<event>
 5    0  0.1531977E+001  0.2379862E+03  0.7546771E-02  0.1121142E+00
         21   -1    0    0  502  501  0.00000000000E+00  0.00000000000E+00  0.47467254623E+03  0.47467254623E+03  0.00000000000E+00 0.  1.
         21   -1    0    0  504  502 -0.00000000000E+00 -0.00000000000E+00 -0.27482165533E+03  0.27482165533E+03  0.00000000000E+00 0. -1.
         25    1    1    2    0    0 -0.14463267773E+03  0.16318106203E+03  0.23832527055E+03  0.34636773096E+03  0.12500000000E+03 0.  0.
         21    1    1    2  503  501 -0.13939569591E+02 -0.40369521179E+02  0.13272531011E+03  0.13942746424E+03  0.00000000000E+00 0.  1.
         21    1    1    2  504  503  0.15857224732E+03 -0.12281154085E+03 -0.17119968976E+03  0.26369900637E+03  0.00000000000E+00 0. -1.
<mgrwt>
<rscale>  4 0.23798617E+03</rscale>
<asrwt>0</asrwt>
<pdfrwt beam="1">  1       21 0.73026546E-01 0.23798617E+03</pdfrwt>
<pdfrwt beam="2">  1       21 0.42280255E-01 0.23798617E+03</pdfrwt>
<totfact> 0.88153661E+03</totfact>
</mgrwt>
</event>
<event>
 5    0  0.1531977E+001  0.2689405E+03  0.7546771E-02  0.1101888E+00
         21   -1    0    0  502  501  0.00000000000E+00  0.00000000000E+00  0.27280369110E+03  0.27280369110E+03  0.00000000000E+00 0.  1.
         21   -1    0    0  504  502 -0.00000000000E+00 -0.00000000000E+00 -0.24857067556E+03  0.24857067556E+03  0.00000000000E+00 0.  1.
         25    1    1    2    0    0  0.23661878935E+03  0.26749726221E+02  0.47924681662E+02  0.27317718506E+03  0.12500000000E+03 0.  0.
         21    1    1    2  503  501 -0.20863156927E+03 -0.27586835643E+02  0.16180349606E+01  0.21045375557E+03  0.00000000000E+00 0.  1.
         21    1    1    2  504  503 -0.27987220082E+02  0.83710942275E+00 -0.25309701080E+02  0.37743426035E+02  0.00000000000E+00 0. -1.
<mgrwt>
<rscale>  4 0.26894051E+03</rscale>
<asrwt>0</asrwt>
<pdfrwt beam="1">  1       21 0.41969799E-01 0.26894051E+03</pdfrwt>
<pdfrwt beam="2">  1       21 0.38241642E-01 0.26894051E+03</pdfrwt>
<totfact> 0.34776623E+04</totfact>
</mgrwt>
</event>
<event>
 5    0  0.1531977E+001  0.2559890E+03  0.7546771E-02  0.1109577E+00
         21   -1    0    0  502  501  0.00000000000E+00  0.00000000000E+00  0.97225625555E+03  0.97225625555E+03  0.00000000000E+00 0. -1.
         21   -1    0    0  504  502 -0.00000000000E+00 -0.00000000000E+00 -0.99191917780E+02  0.99191917780E+02  0.00000000000E+00 0. -1.
         25    1    1    2    0    0 -0.24049023234E+03  0.15907140404E+01  0.16409718136E+03  0.31684533633E+03  0.12500000000E+03 0.  0.
         21    1    1    2  503  501  0.21936055353E+03 -0.10784137451E+02  0.69191903045E+03  0.72593890567E+03  0.00000000000E+00 0. -1.
         21    1    1    2  504  503  0.21129678809E+02  0.91934234111E+01  0.17048125956E+02  0.28663931328E+02  0.00000000000E+00 0. -1.
<mgrwt>
<rscale>  4 0.25598904E+03</rscale>
<asrwt>0</asrwt>
<pdfrwt beam="1">  1       21 0.14957788E+00 0.25598904E+03</pdfrwt>
<pdfrwt beam="2">  1       21 0.15260296E-01 0.25598904E+03</pdfrwt>
<totfact> 0.10976353E+04</totfact>
</mgrwt>
</event>
<event>
 5    0  0.1531977E+001  0.3521992E+03  0.7546771E-02  0.1061716E+00
         21   -1    0    0  502  501  0.00000000000E+00  0.00000000000E+00  0.40681363433E+03  0.40681363433E+03  0.00000000000E+00 0.  1.
         21   -1    0    0  504  502 -0.00000000000E+00 -0.00000000000E+00 -0.93543252526E+03  0.93543252526E+03  0.00000000000E+00 0. -1.
         25    1    1    2    0    0  0.12040401123E+03 -0.37090038799E+03 -0.70066825661E+03  0.81155728668E+03  0.12500000000E+03 0.  0.
         21    1    1    2  503  501 -0.16474057544E+03  0.27863046975E+03  0.24417943210E+03  0.40546022115E+03  0.00000000000E+00 0.  1.
         21    1    1    2  504  503  0.44336564211E+02  0.92269918246E+02 -0.72130066423E+02  0.12522865176E+03  0.00000000000E+00 0.  1.
<mgrwt>
<rscale>  4 0.35219916E+03</rscale>
<asrwt>0</asrwt>
<pdfrwt beam="1">  1       21 0.62586714E-01 0.35219916E+03</pdfrwt>
<pdfrwt beam="2">  1       21 0.14391269E+00 0.35219916E+03</pdfrwt>
<totfact> 0.69467901E+02</totfact>
</mgrwt>
</event>
<event>
 5    0  0.1531977E+001  0.2435158E+03  0.7546771E-02  0.1117473E+00
         21   -1    0    0  502  501  0.00000000000E+00  0.00000000000E+00  0.18117750229E+03  0.18117750229E+03  0.00000000000E+00 0. -1.
         21   -1    0    0  504  502 -0.00000000000E+00 -0.00000000000E+00 -0.10897365620E+04  0.10897365620E+04  0.00000000000E+00 0. -1.
         25    1    1    2    0    0 -0.10932419599E+03 -0.19499285258E+03 -0.52766140719E+03  0.58653691532E+03  0.12500000000E+03 0.  0.
         21    1    1    2  503  501 -0.65224852994E+02  0.80336602121E+02  0.10992701023E+03  0.15097085370E+03  0.00000000000E+00 0. -1.
         21    1    1    2  504  503  0.17454904899E+03  0.11465625046E+03 -0.49082466272E+03  0.53340629524E+03  0.00000000000E+00 0. -1.
<mgrwt>
<rscale>  4 0.24351580E+03</rscale>
<asrwt>0</asrwt>
<pdfrwt beam="1">  1       21 0.27873462E-01 0.24351580E+03</pdfrwt>
<pdfrwt beam="2">  1       21 0.16765178E+00 0.24351580E+03</pdfrwt>
<totfact> 0.26077459E+03</totfact>
</mgrwt>
</event>
<event>
 5    0  0.1531977E+001  0.2176548E+03  0.7546771E-02  0.1135644E+00
         21   -1    0    0  504  501  0.00000000000E+00  0.00000000000E+00  0.67456630789E+03  0.67456630789E+03  0.00000000000E+00 0. -1.
         21   -1    0    0  503  502 -0.00000000000E+00 -0.00000000000E+00 -0.11327125342E+03  0.11327125342E+03  0.00000000000E+00 0. -1.
         25    1    1    2    0    0 -0.10228480919E+03  0.18758818065E+03  0.27544584767E+03  0.37033352901E+03  0.12500000000E+03 0.  0.
         21    1    1    2  503  501  0.85880190751E+02 -0.14236220867E+03  0.45480955476E+02  0.17236856712E+03  0.00000000000E+00 0. -1.
         21    1    1    2  504  502  0.16404618438E+02 -0.45225971976E+02  0.24036825132E+03  0.24513546518E+03  0.00000000000E+00 0.  1.
<mgrwt>
<rscale>  4 0.21765483E+03</rscale>
<asrwt>0</asrwt>
<pdfrwt beam="1">  1       21 0.10377943E+00 0.21765483E+03</pdfrwt>
<pdfrwt beam="2">  1       21 0.17426347E-01 0.21765483E+03</pdfrwt>
<totfact> 0.22064121E+04</totfact>
</mgrwt>
</event>
<event>
 5    0  0.1531977E+001  0.4469987E+03  0.7546771E-02  0.1028621E+00
         21   -1    0    0  502  501  0.00000000000E+00  0.00000000000E+00  0.22895780880E+04  0.22895780880E+04  0.00000000000E+00 0. -1.
         21   -1    0    0  504  502 -0.00000000000E+00 -0.00000000000E+00 -0.15413213035E+03  0.15413213035E+03  0.00000000000E+00 0. -1.
         25    1    1    2    0    0 -0.41259339277E+03  0.11810827615E+03  0.25702838941E+03  0.51562725453E+03  0.12500000000E+03 0.  0.
         21    1    1    2  503  501  0.38558461846E+03 -0.10918444275E+03  0.18127734406E+04  0.18565409469E+04  0.00000000000E+00 0. -1.
         21    1    1    2  504  503  0.27008774310E+02 -0.89238334033E+01  0.65644127685E+02  0.71542016968E+02  0.00000000000E+00 0.  1.
<mgrwt>
<rscale>  4 0.44699874E+03</rscale>
<asrwt>0</asrwt>
<pdfrwt beam="1">  1       21 0.35224276E+00 0.44699874E+03</pdfrwt>
<pdfrwt beam="2">  1       21 0.23712637E-01 0.44699874E+03</pdfrwt>
<totfact> 0.21991194E+02</totfact>
</mgrwt>
</event>
<event>
 5    0  0.1531977E+001  0.2394911E+03  0.7546771E-02  0.1120132E+00
         21   -1    0    0  502  501  0.00000000000E+00  0.00000000000E+00  0.91931799028E+02  0.91931799028E+02  0.00000000000E+00 0. -1.
         21   -1    0    0  504  502 -0.00000000000E+00 -0.00000000000E+00 -0.66742515998E+03  0.66742515998E+03  0.00000000000E+00 0. -1.
         25    1    1    2    0    0 -0.19161550611E+03  0.70812918886E+02 -0.46614025345E+03  0.52406364838E+03  0.12500000000E+03 0.  0.
         21    1    1    2  503  501  0.29159386966E+02 -0.12646666396E+02 -0.15298544987E+01  0.31820566839E+02  0.00000000000E+00 0.  1.
         21    1    1    2  504  503  0.16245611915E+03 -0.58166252490E+02 -0.10782325300E+03  0.20347274378E+03  0.00000000000E+00 0. -1.
<mgrwt>
<rscale>  4 0.23949107E+03</rscale>
<asrwt>0</asrwt>
<pdfrwt beam="1">  1       21 0.14143354E-01 0.23949107E+03</pdfrwt>
<pdfrwt beam="2">  1       21 0.10268079E+00 0.23949107E+03</pdfrwt>
<totfact> 0.32826946E+04</totfact>
</mgrwt>
</event>
<event>
 5    0  0.1531977E+001  0.2384035E+03  0.7546771E-02  0.1120861E+00
         21   -1    0    0  502  501  0.00000000000E+00  0.00000000000E+00  0.14540933230E+03  0.14540933230E+03  0.00000000000E+00 0.  1.
         21   -1    0    0  504  502 -0.00000000000E+00 -0.00000000000E+00 -0.48657739885E+03  0.48657739885E+03  0.00000000000E+00 0.  1.
         25    1    1    2    0    0 -0.16585328158E+03 -0.15551997845E+03 -0.12801101991E+03  0.28931919384E+03  0.12500000000E+03 0.  0.
         21    1    1    2  503  501  0.26066099559E+02  0.23091968585E+02  0.20093799975E+02  0.40204991690E+02  0.00000000000E+00 0.  1.
         21    1    1    2  504  503  0.13978718203E+03  0.13242800986E+03 -0.23325084662E+03  0.30246254562E+03  0.00000000000E+00 0.  1.
<mgrwt>
<rscale>  4 0.23840350E+03</rscale>
<asrwt>0</asrwt>
<pdfrwt beam="1">  1       21 0.22370667E-01 0.23840350E+03</pdfrwt>
<pdfrwt beam="2">  1       21 0.74858059E-01 0.23840350E+03</pdfrwt>
<totfact> 0.29157597E+04</totfact>
</mgrwt>
</event>
<event>
 5    0  0.1531977E+001  0.2862138E+03  0.7546771E-02  0.1092343E+00
         21   -1    0    0  504  501  0.00000000000E+00  0.00000000000E+00  0.14987937201E+03  0.14987937201E+03  0.00000000000E+00 0.  1.
         21   -1    0    0  501  502 -0.00000000000E+00 -0.00000000000E+00 -0.10890849388E+04  0.10890849388E+04  0.00000000000E+00 0.  1.
         25    1    1    2    0    0 -0.84415554958E+02  0.25629951368E+03 -0.55089853115E+02  0.30244886931E+03  0.12500000000E+03 0.  0.
         21    1    1    2  503  502 -0.23534219121E+02 -0.24348234990E+02 -0.31164042745E+02  0.46020577756E+02  0.00000000000E+00 0.  1.
         21    1    1    2  504  503  0.10794977408E+03 -0.23195127869E+03 -0.85295167089E+03  0.89049486370E+03  0.00000000000E+00 0.  1.
<mgrwt>
<rscale>  4 0.28621380E+03</rscale>
<asrwt>0</asrwt>
<pdfrwt beam="1">  1       21 0.23058364E-01 0.28621380E+03</pdfrwt>
<pdfrwt beam="2">  1       21 0.16755153E+00 0.28621380E+03</pdfrwt>
<totfact> 0.36550992E+03</totfact>
</mgrwt>
</event>
<event>
 5    0  0.1531977E+001  0.2681615E+03  0.7546771E-02  0.1102336E+00
         21   -1    0    0  502  501  0.00000000000E+00  0.00000000000E+00  0.31598998286E+03  0.31598998286E+03  0.00000000000E+00 0.  1.
         21   -1    0    0  504  502 -0.00000000000E+00 -0.00000000000E+00 -0.29623908826E+03  0.29623908826E+03  0.00000000000E+00 0. -1.
         25    1    1    2    0    0 -0.13481934376E+03  0.15871817431E+03 -0.11074292587E+03  0.26693952487E+03  0.12500000000E+03 0.  0.
         21    1    1    2  503  501  0.15716724426E+03 -0.19127413740E+03  0.16106879903E+03  0.29534809349E+03  0.00000000000E+00 0.  1.
         21    1    1    2  504  503 -0.22347900503E+02  0.32555963091E+02 -0.30574978559E+02  0.49941452758E+02  0.00000000000E+00 0. -1.
<mgrwt>
<rscale>  4 0.26816151E+03</rscale>
<asrwt>0</asrwt>
<pdfrwt beam="1">  1       21 0.48613843E-01 0.26816151E+03</pdfrwt>
<pdfrwt beam="2">  1       21 0.45575244E-01 0.26816151E+03</pdfrwt>
<totfact> 0.17910653E+04</totfact>
</mgrwt>
</event>
<event>
 5    0  0.1531977E+001  0.2568991E+03  0.7546771E-02  0.1109021E+00
         21   -1    0    0  503  501  0.00000000000E+00  0.00000000000E+00  0.22798030643E+04  0.22798030643E+04  0.00000000000E+00 0.  1.
         21   -1    0    0  504  502 -0.00000000000E+00 -0.00000000000E+00 -0.19249134715E+03  0.19249134715E+03  0.00000000000E+00 0.  1.
         25    1    1    2    0    0 -0.71364913448E+02 -0.21834650034E+03  0.17778788802E+04  0.17970104223E+04  0.12500000000E+03 0.  0.
         21    1    1    2  503  502  0.91867200711E+02  0.20460405054E+03 -0.11368342298E+03  0.25144844546E+03  0.00000000000E+00 0.  1.
         21    1    1    2  504  501 -0.20502287263E+02  0.13742449799E+02  0.42311625989E+03  0.42383554369E+03  0.00000000000E+00 0.  1.
<mgrwt>
<rscale>  4 0.25689906E+03</rscale>
<asrwt>0</asrwt>
<pdfrwt beam="1">  1       21 0.35073891E+00 0.25689906E+03</pdfrwt>
<pdfrwt beam="2">  1       21 0.29614055E-01 0.25689906E+03</pdfrwt>
<totfact> 0.17244157E+02</totfact>
</mgrwt>
</event>
<event>
 5    0  0.1531977E+001  0.2454454E+03  0.7546771E-02  0.1116218E+00
         21   -1    0    0  503  501  0.00000000000E+00  0.00000000000E+00  0.37396682071E+03  0.37396682071E+03  0.00000000000E+00 0. -1.
         21   -1    0    0  504  502 -0.00000000000E+00 -0.00000000000E+00 -0.23044209850E+03  0.23044209850E+03  0.00000000000E+00 0. -1.
         25    1    1    2    0    0 -0.15968320844E+03  0.14596105725E+03  0.22750107127E+03  0.33791285077E+03  0.12500000000E+03 0.  0.
         21    1    1    2  503  502  0.13287389674E+03 -0.16321308568E+03 -0.97397395468E+02  0.23190566275E+03  0.00000000000E+00 0. -1.
         21    1    1    2  504  501  0.26809311700E+02  0.17252028433E+02  0.13421046414E+02  0.34590405689E+02  0.00000000000E+00 0.  1.
<mgrwt>
<rscale>  4 0.24544539E+03</rscale>
<asrwt>0</asrwt>
<pdfrwt beam="1">  1       21 0.57533357E-01 0.24544539E+03</pdfrwt>
<pdfrwt beam="2">  1       21 0.35452631E-01 0.24544539E+03</pdfrwt>
<totfact> 0.21128582E+04</totfact>
</mgrwt>
</event>
<event>
 5    0  0.1531977E+001  0.2078189E+03  0.7546771E-02  0.1143305E+00
         21   -1    0    0  502  501  0.00000000000E+00  0.00000000000E+00  0.17132554078E+04  0.17132554078E+04  0.00000000000E+00 0.  1.
         21   -1    0    0  504  502 -0.00000000000E+00 -0.00000000000E+00 -0.48563632704E+02  0.48563632704E+02  0.00000000000E+00 0.  1.
         25    1    1    2    0    0  0.20263924477E+03 -0.41922845391E+02  0.12187901038E+04  0.12425355149E+04  0.12500000000E+03 0.  0.
         21    1    1    2  503  501 -0.48482210197E+02 -0.75734976911E+00  0.29639676372E+03  0.30033671076E+03  0.00000000000E+00 0. -1.
         21    1    1    2  504  503 -0.15415703457E+03  0.42680195160E+02  0.14950490751E+03  0.21894681486E+03  0.00000000000E+00 0.  1.
<mgrwt>
<rscale>  4 0.20781893E+03</rscale>
<asrwt>0</asrwt>
<pdfrwt beam="1">  1       21 0.26357771E+00 0.20781893E+03</pdfrwt>
<pdfrwt beam="2">  1       21 0.74713294E-02 0.20781893E+03</pdfrwt>
<totfact> 0.73727358E+03</totfact>
</mgrwt>
</event>
<event>
 5    0  0.1531977E+001  0.2181915E+03  0.7546771E-02  0.1135239E+00
         21   -1    0    0  503  501  0.00000000000E+00  0.00000000000E+00  0.42903586416E+03  0.42903586416E+03  0.00000000000E+00 0. -1.
         21   -1    0    0  504  502 -0.00000000000E+00 -0.00000000000E+00 -0.19215925765E+03  0.19215925765E+03  0.00000000000E+00 0. -1.
         25    1    1    2    0    0  0.29383008960E+02 -0.20355513059E+03 -0.55566275692E+02  0.24700336718E+03  0.12500000000E+03 0.  0.
         21    1    1    2  503  502 -0.22577569087E+02  0.13814695481E+03  0.10337426696E+03  0.17401312255E+03  0.00000000000E+00 0. -1.
         21    1    1    2  504  501 -0.68054398725E+01  0.65408175775E+02  0.18906861524E+03  0.20017863208E+03  0.00000000000E+00 0. -1.
<mgrwt>
<rscale>  4 0.21819153E+03</rscale>
<asrwt>0</asrwt>
<pdfrwt beam="1">  1       21 0.66005517E-01 0.21819153E+03</pdfrwt>
<pdfrwt beam="2">  1       21 0.29562963E-01 0.21819153E+03</pdfrwt>
<totfact> 0.22776816E+04</totfact>
</mgrwt>
</event>
<event>
 5    0  0.1531977E+001  0.2100012E+03  0.7546771E-02  0.1141565E+00
         21   -1    0    0  502  501  0.00000000000E+00  0.00000000000E+00  0.32305744276E+03  0.32305744276E+03  0.00000000000E+00 0.  1.
         21   -1    0    0  504  502 -0.00000000000E+00 -0.00000000000E+00 -0.31140059916E+03  0.31140059916E+03  0.00000000000E+00 0.  1.
         25    1    1    2    0    0 -0.21922845339E+03  0.88210096017E+02  0.16753425588E+03  0.31549146218E+03  0.12500000000E+03 0.  0.
         21    1    1    2  503  501  0.62201076830E+02 -0.56059225124E+02  0.14569536280E+02  0.84993423674E+02  0.00000000000E+00 0.  1.
         21    1    1    2  504  503  0.15702737656E+03 -0.32150870893E+02 -0.17044694857E+03  0.23397315607E+03  0.00000000000E+00 0.  1.
<mgrwt>
<rscale>  4 0.21000118E+03</rscale>
<asrwt>0</asrwt>
<pdfrwt beam="1">  1       21 0.49701145E-01 0.21000118E+03</pdfrwt>
<pdfrwt beam="2">  1       21 0.47907784E-01 0.21000118E+03</pdfrwt>
<totfact> 0.15895299E+04</totfact>
</mgrwt>
</event>
<event>
 5    0  0.1531977E+001  0.2303419E+03  0.7546771E-02  0.1126399E+00
         21   -1    0    0  502  501  0.00000000000E+00  0.00000000000E+00  0.16089509556E+04  0.16089509556E+04  0.00000000000E+00 0. -1.
         21   -1    0    0  504  502 -0.00000000000E+00 -0.00000000000E+00 -0.15069726569E+03  0.15069726569E+03  0.00000000000E+00 0. -1.
         25    1    1    2    0    0  0.14656682312E+03 -0.15687241654E+03 -0.16487088832E+02  0.24897311664E+03  0.12500000000E+03 0.  0.
         21    1    1    2  503  501 -0.10748626217E+03  0.15979636555E+03  0.14532982519E+04  0.14660027231E+04  0.00000000000E+00 0. -1.
         21    1    1    2  504  503 -0.39080560944E+02 -0.29239490098E+01  0.21442526845E+02  0.44672381614E+02  0.00000000000E+00 0. -1.
<mgrwt>
<rscale>  4 0.23034193E+03</rscale>
<asrwt>0</asrwt>
<pdfrwt beam="1">  1       21 0.24753090E+00 0.23034193E+03</pdfrwt>
<pdfrwt beam="2">  1       21 0.23184196E-01 0.23034193E+03</pdfrwt>
<totfact> 0.11521250E+03</totfact>
</mgrwt>
</event>
<event>
 5    0  0.1531977E+001  0.3298081E+03  0.7546771E-02  0.1071222E+00
         21   -1    0    0  502  501  0.00000000000E+00  0.00000000000E+00  0.24599792647E+03  0.24599792647E+03  0.00000000000E+00 0. -1.
         21   -1    0    0  504  502 -0.00000000000E+00 -0.00000000000E+00 -0.51068481897E+03  0.51068481897E+03  0.00000000000E+00 0. -1.
         25    1    1    2    0    0  0.13024998524E+03 -0.29496610310E+03 -0.15737967972E+03  0.37995187092E+03  0.12500000000E+03 0.  0.
         21    1    1    2  503  501 -0.81194012048E+02  0.28033436110E+03 -0.13149749814E+03  0.32011156434E+03  0.00000000000E+00 0. -1.
         21    1    1    2  504  503 -0.49055973193E+02  0.14631741993E+02  0.24190285347E+02  0.56619310177E+02  0.00000000000E+00 0. -1.
<mgrwt>
<rscale>  4 0.32980807E+03</rscale>
<asrwt>0</asrwt>
<pdfrwt beam="1">  1       21 0.37845835E-01 0.32980807E+03</pdfrwt>
<pdfrwt beam="2">  1       21 0.78566895E-01 0.32980807E+03</pdfrwt>
<totfact> 0.89496408E+03</totfact>
</mgrwt>
</event>
<event>
 5    0  0.1531977E+001  0.2461400E+03  0.7546771E-02  0.1115769E+00
         21   -1    0    0  502  501  0.00000000000E+00  0.00000000000E+00  0.12379847250E+04  0.12379847250E+04  0.00000000000E+00 0.  1.
         21   -1    0    0  504  502 -0.00000000000E+00 -0.00000000000E+00 -0.18079834898E+03  0.18079834898E+03  0.00000000000E+00 0.  1.
         25    1    1    2    0    0 -0.18465752920E+03  0.12647616338E+03 -0.60290575559E+02  0.26335257070E+03  0.12500000000E+03 0.  0.
         21    1    1    2  503  501  0.16488233634E+03 -0.13222394564E+03  0.11148068387E+04  0.11346645514E+04  0.00000000000E+00 0.  1.
         21    1    1    2  504  503  0.19775192857E+02  0.57477822636E+01  0.26701128681E+01  0.20765951849E+02  0.00000000000E+00 0. -1.
<mgrwt>
<rscale>  4 0.24613998E+03</rscale>
<asrwt>0</asrwt>
<pdfrwt beam="1">  1       21 0.19045918E+00 0.24613998E+03</pdfrwt>
<pdfrwt beam="2">  1       21 0.27815131E-01 0.24613998E+03</pdfrwt>
<totfact> 0.18187311E+03</totfact>
</mgrwt>
</event>
<event>
 5    0  0.1531977E+001  0.2120403E+03  0.7546771E-02  0.1139960E+00
         21   -1    0    0  502  501  0.00000000000E+00  0.00000000000E+00  0.22374258109E+03  0.22374258109E+03  0.00000000000E+00 0.  1.
         21   -1    0    0  504  502 -0.00000000000E+00 -0.00000000000E+00 -0.45041976216E+03  0.45041976216E+03  0.00000000000E+00 0.  1.
         25    1    1    2    0    0  0.58540311703E+02  0.20307582382E+03 -0.35924170833E+02  0.24815782149E+03  0.12500000000E+03 0.  0.
         21    1    1    2  503  501  0.34568592796E+02 -0.67561476887E+02  0.79346468308E+02  0.10979709832E+03  0.00000000000E+00 0.  1.
         21    1    1    2  504  503 -0.93108904499E+02 -0.13551434694E+03 -0.27009947855E+03  0.31620742343E+03  0.00000000000E+00 0.  1.
<mgrwt>
<rscale>  4 0.21204025E+03</rscale>
<asrwt>0</asrwt>
<pdfrwt beam="1">  1       21 0.34421936E-01 0.21204025E+03</pdfrwt>
<pdfrwt beam="2">  1       21 0.69295348E-01 0.21204025E+03</pdfrwt>
<totfact> 0.15223815E+04</totfact>
</mgrwt>
</event>
<event>
 5    0  0.1531977E+001  0.2669514E+03  0.7546771E-02  0.1103037E+00
         21   -1    0    0  502  501  0.00000000000E+00  0.00000000000E+00  0.45890713631E+03  0.45890713631E+03  0.00000000000E+00 0. -1.
         21   -1    0    0  504  502 -0.00000000000E+00 -0.00000000000E+00 -0.26814187729E+03  0.26814187729E+03  0.00000000000E+00 0. -1.
         25    1    1    2    0    0  0.23367681647E+03 -0.32640438339E+02  0.16366464619E+03  0.31317945204E+03  0.12500000000E+03 0.  0.
         21    1    1    2  503  501 -0.12436721731E+02 -0.53372419665E+02  0.14049404143E+03  0.15080405467E+03  0.00000000000E+00 0. -1.
         21    1    1    2  504  503 -0.22124009474E+03  0.86012858004E+02 -0.11339342860E+03  0.26306550688E+03  0.00000000000E+00 0. -1.
<mgrwt>
<rscale>  4 0.26695137E+03</rscale>
<asrwt>0</asrwt>
<pdfrwt beam="1">  1       21 0.70601098E-01 0.26695137E+03</pdfrwt>
<pdfrwt beam="2">  1       21 0.41252597E-01 0.26695137E+03</pdfrwt>
<totfact> 0.98377777E+03</totfact>
</mgrwt>
</event>
<event>
 5    0  0.1531977E+001  0.2347916E+03  0.7546771E-02  0.1123312E+00
         21   -1    0    0  502  501  0.00000000000E+00  0.00000000000E+00  0.91731214039E+03  0.91731214039E+03  0.00000000000E+00 0. -1.
         21   -1    0    0  504  502 -0.00000000000E+00 -0.00000000000E+00 -0.82670930370E+02  0.82670930370E+02  0.00000000000E+00 0. -1.
         25    1    1    2    0    0  0.18251931446E+03 -0.10559830389E+03  0.58963850159E+03  0.63856312491E+03  0.12500000000E+03 0.  0.
         21    1    1    2  503  501 -0.70951310947E+01  0.19154739548E+02  0.13600457338E+03  0.13752995642E+03  0.00000000000E+00 0. -1.
         21    1    1    2  504  503 -0.17542418336E+03  0.86443564341E+02  0.10899813505E+03  0.22388998944E+03  0.00000000000E+00 0. -1.
<mgrwt>
<rscale>  4 0.23479161E+03</rscale>
<asrwt>0</asrwt>
<pdfrwt beam="1">  1       21 0.14112494E+00 0.23479161E+03</pdfrwt>
<pdfrwt beam="2">  1       21 0.12718605E-01 0.23479161E+03</pdfrwt>
<totfact> 0.18043106E+04</totfact>
</mgrwt>
</event>
<event>
 5    0  0.1531977E+001  0.2640467E+03  0.7546771E-02  0.1104736E+00
         21   -1    0    0  502  501  0.00000000000E+00  0.00000000000E+00  0.17045451210E+04  0.17045451210E+04  0.00000000000E+00 0.  1.
         21   -1    0    0  504  502 -0.00000000000E+00 -0.00000000000E+00 -0.78983986030E+02  0.78983986030E+02  0.00000000000E+00 0.  1.
         25    1    1    2    0    0 -0.11094093701E+03 -0.24006547402E+03  0.12177314840E+04  0.12523714667E+04  0.12500000000E+03 0.  0.
         21    1    1    2  503  501  0.40707391734E+02  0.23938936992E+02  0.25012887051E+03  0.25454786644E+03  0.00000000000E+00 0. -1.
         21    1    1    2  504  503  0.70233545275E+02  0.21612653703E+03  0.15770078046E+03  0.27660977395E+03  0.00000000000E+00 0.  1.
<mgrwt>
<rscale>  4 0.26404674E+03</rscale>
<asrwt>0</asrwt>
<pdfrwt beam="1">  1       21 0.26223768E+00 0.26404674E+03</pdfrwt>
<pdfrwt beam="2">  1       21 0.12151384E-01 0.26404674E+03</pdfrwt>
<totfact> 0.30197948E+03</totfact>
</mgrwt>
</event>
<event>
 5    0  0.1531977E+001  0.1979141E+03  0.7546771E-02  0.1151511E+00
         21   -1    0    0  502  501  0.00000000000E+00  0.00000000000E+00  0.46727182121E+03  0.46727182121E+03  0.00000000000E+00 0. -1.
         21   -1    0    0  504  502 -0.00000000000E+00 -0.00000000000E+00 -0.25745879500E+03  0.25745879500E+03  0.00000000000E+00 0. -1.
         25    1    1    2    0    0 -0.22570044778E+03  0.48246364684E+02 -0.77111598959E+02  0.27356827764E+03  0.12500000000E+03 0.  0.
         21    1    1    2  503  501  0.14066264725E+03 -0.41152239063E+02  0.32590887896E+03  0.35734588915E+03  0.00000000000E+00 0. -1.
         21    1    1    2  504  503  0.85037800536E+02 -0.70941256211E+01 -0.38984253792E+02  0.93816449421E+02  0.00000000000E+00 0. -1.
<mgrwt>
<rscale>  4 0.19791411E+03</rscale>
<asrwt>0</asrwt>
<pdfrwt beam="1">  1       21 0.71887972E-01 0.19791411E+03</pdfrwt>
<pdfrwt beam="2">  1       21 0.39609045E-01 0.19791411E+03</pdfrwt>
<totfact> 0.10695772E+04</totfact>
</mgrwt>
</event>
<event>
 5    0  0.1531977E+001  0.2734337E+03  0.7546771E-02  0.1099330E+00
         21   -1    0    0  504  501  0.00000000000E+00  0.00000000000E+00  0.44796307767E+03  0.44796307767E+03  0.00000000000E+00 0. -1.
         21   -1    0    0  503  502 -0.00000000000E+00 -0.00000000000E+00 -0.74807665589E+03  0.74807665589E+03  0.00000000000E+00 0. -1.
         25    1    1    2    0    0  0.15490096001E+03  0.17336178429E+03  0.28905634957E+03  0.39144244646E+03  0.12500000000E+03 0.  0.
         21    1    1    2  503  501 -0.14574502080E+03 -0.19558564977E+03 -0.67381562919E+03  0.71660509321E+03  0.00000000000E+00 0. -1.
         21    1    1    2  504  502 -0.91559392087E+01  0.22223865483E+02  0.84645701397E+02  0.87992193886E+02  0.00000000000E+00 0. -1.
<mgrwt>
<rscale>  4 0.27343367E+03</rscale>
<asrwt>0</asrwt>
<pdfrwt beam="1">  1       21 0.68917397E-01 0.27343367E+03</pdfrwt>
<pdfrwt beam="2">  1       21 0.11508872E+00 0.27343367E+03</pdfrwt>
<totfact> 0.10472450E+03</totfact>
</mgrwt>
</event>
<event>
 5    0  0.1531977E+001  0.2198122E+03  0.7546771E-02  0.1134023E+00
         21   -1    0    0  504  501  0.00000000000E+00  0.00000000000E+00  0.25767381924E+03  0.25767381924E+03  0.00000000000E+00 0. -1.
         21   -1    0    0  503  502 -0.00000000000E+00 -0.00000000000E+00 -0.41261712287E+03  0.41261712287E+03  0.00000000000E+00 0. -1.
         25    1    1    2    0    0 -0.77706637160E+02  0.18556051065E+03 -0.24056228052E+03  0.33758885553E+03  0.12500000000E+03 0.  0.
         21    1    1    2  503  501 -0.74498972277E+01 -0.28999372936E+02 -0.82458713399E+02  0.87726301727E+02  0.00000000000E+00 0. -1.
         21    1    1    2  504  502  0.85156534387E+02 -0.15656113771E+03  0.16807769029E+03  0.24497578485E+03  0.00000000000E+00 0. -1.
<mgrwt>
<rscale>  4 0.21981219E+03</rscale>
<asrwt>0</asrwt>
<pdfrwt beam="1">  1       21 0.39642126E-01 0.21981219E+03</pdfrwt>
<pdfrwt beam="2">  1       21 0.63479557E-01 0.21981219E+03</pdfrwt>
<totfact> 0.13835809E+04</totfact>
</mgrwt>
</event>
<event>
 5    0  0.1531977E+001  0.2413150E+03  0.7546771E-02  0.1118920E+00
         21   -1    0    0  504  501  0.00000000000E+00  0.00000000000E+00  0.89490111483E+03  0.89490111483E+03  0.00000000000E+00 0.  1.
         21   -1    0    0  503  502 -0.00000000000E+00 -0.00000000000E+00 -0.91495551422E+02  0.91495551422E+02  0.00000000000E+00 0.  1.
         25    1    1    2    0    0  0.15539124134E+03  0.13587299544E+03  0.12863687239E+03  0.27345996730E+03  0.12500000000E+03 0.  0.
         21    1    1    2  503  501 -0.82136053143E+02 -0.11033883316E+03  0.29731261740E+03  0.32759087562E+03  0.00000000000E+00 0.  1.
         21    1    1    2  504  502 -0.73255188201E+02 -0.25534162281E+02  0.37745607363E+03  0.38534582333E+03  0.00000000000E+00 0.  1.
<mgrwt>
<rscale>  4 0.24131496E+03</rscale>
<asrwt>0</asrwt>
<pdfrwt beam="1">  1       21 0.13767709E+00 0.24131496E+03</pdfrwt>
<pdfrwt beam="2">  1       21 0.14076239E-01 0.24131496E+03</pdfrwt>
<totfact> 0.15950813E+04</totfact>
</mgrwt>
</event>
<event>
 5    0  0.1531977E+001  0.2271839E+03  0.7546771E-02  0.1128638E+00
         21   -1    0    0  502  501  0.00000000000E+00  0.00000000000E+00  0.85870659807E+02  0.85870659807E+02  0.00000000000E+00 0.  1.
         21   -1    0    0  504  502 -0.00000000000E+00 -0.00000000000E+00 -0.70239084646E+03  0.70239084646E+03  0.00000000000E+00 0.  1.
         25    1    1    2    0    0 -0.20035466019E+03  0.13932196867E+02 -0.41780753912E+03  0.48012939476E+03  0.12500000000E+03 0.  0.
         21    1    1    2  503  501  0.17913730174E+03 -0.51899072657E+02 -0.13198487775E+03  0.22848127839E+03  0.00000000000E+00 0.  1.
         21    1    1    2  504  503  0.21217358443E+02  0.37966875790E+02 -0.66727769786E+02  0.79650833123E+02  0.00000000000E+00 0.  1.
<mgrwt>
<rscale>  4 0.22718387E+03</rscale>
<asrwt>0</asrwt>
<pdfrwt beam="1">  1       21 0.13210871E-01 0.22718387E+03</pdfrwt>
<pdfrwt beam="2">  1       21 0.10806013E+00 0.22718387E+03</pdfrwt>
<totfact> 0.33039925E+04</totfact>
</mgrwt>
</event>
<event>
 5    0  0.1531977E+001  0.2829218E+03  0.7546771E-02  0.1094104E+00
         21   -1    0    0  504  501  0.00000000000E+00  0.00000000000E+00  0.72218133984E+03  0.72218133984E+03  0.00000000000E+00 0.  1.
         21   -1    0    0  503  502 -0.00000000000E+00 -0.00000000000E+00 -0.18095763692E+04  0.18095763692E+04  0.00000000000E+00 0. -1.
         25    1    1    2    0    0  0.68359745813E+01 -0.27741054234E+03 -0.11876509610E+04  0.12260273834E+04  0.12500000000E+03 0.  0.
         21    1    1    2  503  501 -0.10236299176E+03  0.42285370893E+02 -0.57436786516E+03  0.58494844149E+03  0.00000000000E+00 0. -1.
         21    1    1    2  504  502  0.95527017181E+02  0.23512517145E+03  0.67462379685E+03  0.72078188416E+03  0.00000000000E+00 0.  1.
<mgrwt>
<rscale>  4 0.28292177E+03</rscale>
<asrwt>0</asrwt>
<pdfrwt beam="1">  1       21 0.11110482E+00 0.28292177E+03</pdfrwt>
<pdfrwt beam="2">  1       21 0.27839636E+00 0.28292177E+03</pdfrwt>
<totfact> 0.25392148E+01</totfact>
</mgrwt>
</event>
<event>
 5    0  0.1531977E+001  0.2819975E+03  0.7546771E-02  0.1094603E+00
         21   -1    0    0  502  501  0.00000000000E+00  0.00000000000E+00  0.63931852999E+03  0.63931852999E+03  0.00000000000E+00 0.  1.
         21   -1    0    0  504  502 -0.00000000000E+00 -0.00000000000E+00 -0.34428292315E+03  0.34428292315E+03  0.00000000000E+00 0.  1.
         25    1    1    2    0    0  0.24550679325E+03 -0.12333897277E+03  0.43801563480E+03  0.53194810280E+03  0.12500000000E+03 0.  0.
         21    1    1    2  503  501 -0.20071012473E+03  0.81598842401E+02  0.71851763984E+02  0.22826651361E+03  0.00000000000E+00 0.  1.
         21    1    1    2  504  503 -0.44796668521E+02  0.41740130368E+02 -0.21483179195E+03  0.22338683673E+03  0.00000000000E+00 0.  1.
<mgrwt>
<rscale>  4 0.28199748E+03</rscale>
<asrwt>0</asrwt>
<pdfrwt beam="1">  1       21 0.98356697E-01 0.28199748E+03</pdfrwt>
<pdfrwt beam="2">  1       21 0.52966604E-01 0.28199748E+03</pdfrwt>
<totfact> 0.27011381E+03</totfact>
</mgrwt>
</event>
<event>
 5    0  0.1531977E+001  0.2325722E+03  0.7546771E-02  0.1124842E+00
         21   -1    0    0  504  501  0.00000000000E+00  0.00000000000E+00  0.63279439805E+03  0.63279439805E+03  0.00000000000E+00 0.  1.
         21   -1    0    0  503  502 -0.00000000000E+00 -0.00000000000E+00 -0.12734535866E+03  0.12734535866E+03  0.00000000000E+00 0.  1.
         25    1    1    2    0    0  0.12015497350E+03 -0.18399604740E+03  0.24304490725E+03  0.35069586547E+03  0.12500000000E+03 0.  0.
         21    1    1    2  503  501 -0.12967307233E+03  0.13515785588E+03  0.53641687920E+02  0.19483373008E+03  0.00000000000E+00 0.  1.
         21    1    1    2  504  502  0.95180988306E+01  0.48838191513E+02  0.20876244422E+03  0.21461016116E+03  0.00000000000E+00 0.  1.
<mgrwt>
<rscale>  4 0.23257220E+03</rscale>
<asrwt>0</asrwt>
<pdfrwt beam="1">  1       21 0.97352983E-01 0.23257220E+03</pdfrwt>
<pdfrwt beam="2">  1       21 0.19591594E-01 0.23257220E+03</pdfrwt>
<totfact> 0.20499792E+04</totfact>
</mgrwt>
</event>
<event>
 5    0  0.1531977E+001  0.2639182E+03  0.7546771E-02  0.1104812E+00
         21   -1    0    0  504  501  0.00000000000E+00  0.00000000000E+00  0.47295394164E+03  0.47295394164E+03  0.00000000000E+00 0. -1.
         21   -1    0    0  501  502 -0.00000000000E+00 -0.00000000000E+00 -0.16265511403E+03  0.16265511403E+03  0.00000000000E+00 0. -1.
         25    1    1    2    0    0  0.11013927268E+03 -0.20468796950E+03  0.28946053654E+03  0.39171447058E+03  0.12500000000E+03 0.  0.
         21    1    1    2  503  502 -0.66897482461E+02  0.64607839151E+02 -0.11668069931E+02  0.93731477612E+02  0.00000000000E+00 0. -1.
         21    1    1    2  504  503 -0.43241790218E+02  0.14008013035E+03  0.32506361001E+02  0.15016310747E+03  0.00000000000E+00 0. -1.
<mgrwt>
<rscale>  4 0.26391822E+03</rscale>
<asrwt>0</asrwt>
<pdfrwt beam="1">  1       21 0.72762144E-01 0.26391822E+03</pdfrwt>
<pdfrwt beam="2">  1       21 0.25023864E-01 0.26391822E+03</pdfrwt>
<totfact> 0.24794994E+04</totfact>
</mgrwt>
</event>
<event>
 5    0  0.1531977E+001  0.2955608E+03  0.7546771E-02  0.1087481E+00
         21   -1    0    0  503  501  0.00000000000E+00  0.00000000000E+00  0.33524605315E+03  0.33524605315E+03  0.00000000000E+00 0. -1.
         21   -1    0    0  504  502 -0.00000000000E+00 -0.00000000000E+00 -0.30276803778E+03  0.30276803778E+03  0.00000000000E+00 0. -1.
         25    1    1    2    0    0 -0.97994405961E+02  0.25457699911E+03 -0.68916891282E+02  0.30787479594E+03  0.12500000000E+03 0.  0.
         21    1    1    2  503  502 -0.39669612957E+02 -0.30727474992E+02  0.58563977525E+01  0.50518841101E+02  0.00000000000E+00 0. -1.
         21    1    1    2  504  501  0.13766401892E+03 -0.22384952411E+03  0.95538508894E+02  0.27962045389E+03  0.00000000000E+00 0. -1.
<mgrwt>
<rscale>  4 0.29556083E+03</rscale>
<asrwt>0</asrwt>
<pdfrwt beam="1">  1       21 0.51576316E-01 0.29556083E+03</pdfrwt>
<pdfrwt beam="2">  1       21 0.46579698E-01 0.29556083E+03</pdfrwt>
<totfact> 0.14931104E+04</totfact>
</mgrwt>
</event>
<event>
 5    0  0.1531977E+001  0.1752769E+03  0.7546771E-02  0.1172454E+00
         21   -1    0    0  502  501  0.00000000000E+00  0.00000000000E+00  0.80871899895E+03  0.80871899895E+03  0.00000000000E+00 0.  1.
         21   -1    0    0  504  502 -0.00000000000E+00 -0.00000000000E+00 -0.31098403347E+03  0.31098403347E+03  0.00000000000E+00 0. -1.
         25    1    1    2    0    0  0.55067685745E+02  0.20054949023E+03 -0.82469794956E+02  0.25627878399E+03  0.12500000000E+03 0.  0.
         21    1    1    2  503  501 -0.58191140885E+02 -0.10546346772E+03  0.70009006929E+03  0.71037656001E+03  0.00000000000E+00 0.  1.
         21    1    1    2  504  503  0.31234551399E+01 -0.95086022514E+02 -0.11988530885E+03  0.15304768841E+03  0.00000000000E+00 0. -1.
<mgrwt>
<rscale>  4 0.17527687E+03</rscale>
<asrwt>0</asrwt>
<pdfrwt beam="1">  1       21 0.12441831E+00 0.17527687E+03</pdfrwt>
<pdfrwt beam="2">  1       21 0.47843698E-01 0.17527687E+03</pdfrwt>
<totfact> 0.20493762E+03</totfact>
</mgrwt>
</event>
<event>
 5    0  0.1531977E+001  0.2141253E+03  0.7546771E-02  0.1138340E+00
         21   -1    0    0  502  501  0.00000000000E+00  0.00000000000E+00  0.53100885375E+03  0.53100885375E+03  0.00000000000E+00 0. -1.
         21   -1    0    0  504  502 -0.00000000000E+00 -0.00000000000E+00 -0.10984943657E+03  0.10984943657E+03  0.00000000000E+00 0. -1.
         25    1    1    2    0    0 -0.28430753295E+02 -0.20313643201E+03  0.14177089697E+03  0.27892060693E+03  0.12500000000E+03 0.  0.
         21    1    1    2  503  501  0.31212160581E+02  0.16061882418E+03  0.27379818384E+03  0.31896402794E+03  0.00000000000E+00 0. -1.
         21    1    1    2  504  503 -0.27814072862E+01  0.42517607830E+02  0.55903363686E+01  0.42973655450E+02  0.00000000000E+00 0. -1.
<mgrwt>
<rscale>  4 0.21412527E+03</rscale>
<asrwt>0</asrwt>
<pdfrwt beam="1">  1       21 0.81693669E-01 0.21412527E+03</pdfrwt>
<pdfrwt beam="2">  1       21 0.16899914E-01 0.21412527E+03</pdfrwt>
<totfact> 0.40910616E+04</totfact>
</mgrwt>
</event>
<event>
 5    0  0.1531977E+001  0.3075161E+03  0.7546771E-02  0.1081543E+00
         21   -1    0    0  502  501  0.00000000000E+00  0.00000000000E+00  0.11046546717E+03  0.11046546717E+03  0.00000000000E+00 0. -1.
         21   -1    0    0  504  502 -0.00000000000E+00 -0.00000000000E+00 -0.10626457354E+04  0.10626457354E+04  0.00000000000E+00 0. -1.
         25    1    1    2    0    0 -0.17458296157E+03 -0.18551810255E+03 -0.49178247145E+03  0.56777740010E+03  0.12500000000E+03 0.  0.
         21    1    1    2  503  501  0.21813122842E+03  0.20123632416E+03 -0.24448499681E+03  0.38451294470E+03  0.00000000000E+00 0. -1.
         21    1    1    2  504  503 -0.43548266853E+02 -0.15718221609E+02 -0.21591279993E+03  0.22082085773E+03  0.00000000000E+00 0. -1.
<mgrwt>
<rscale>  4 0.30751610E+03</rscale>
<asrwt>0</asrwt>
<pdfrwt beam="1">  1       21 0.16994687E-01 0.30751610E+03</pdfrwt>
<pdfrwt beam="2">  1       21 0.16348396E+00 0.30751610E+03</pdfrwt>
<totfact> 0.68718759E+03</totfact>
</mgrwt>
</event>
<event>
 5    0  0.1531977E+001  0.2598086E+03  0.7546771E-02  0.1107258E+00
         21   -1    0    0  503  501  0.00000000000E+00  0.00000000000E+00  0.48967168402E+03  0.48967168402E+03  0.00000000000E+00 0.  1.
         21   -1    0    0  504  502 -0.00000000000E+00 -0.00000000000E+00 -0.12883745220E+03  0.12883745220E+03  0.00000000000E+00 0.  1.
         25    1    1    2    0    0 -0.18707408951E+03 -0.12991849114E+03  0.24764909027E+03  0.35892979984E+03  0.12500000000E+03 0.  0.
         21    1    1    2  503  502  0.22173988983E+02  0.40451061849E+01 -0.14045647659E+01  0.22583655010E+02  0.00000000000E+00 0.  1.
         21    1    1    2  504  501  0.16490010053E+03  0.12587338495E+03  0.11458970632E+03  0.23699568137E+03  0.00000000000E+00 0.  1.
<mgrwt>
<rscale>  4 0.25980864E+03</rscale>
<asrwt>0</asrwt>
<pdfrwt beam="1">  1       21 0.75334105E-01 0.25980864E+03</pdfrwt>
<pdfrwt beam="2">  1       21 0.19821147E-01 0.25980864E+03</pdfrwt>
<totfact> 0.35783651E+04</totfact>
</mgrwt>
</event>
<event>
 5    0  0.1531977E+001  0.4094948E+03  0.7546771E-02  0.1040541E+00
         21   -1    0    0  503  501  0.00000000000E+00  0.00000000000E+00  0.78571007706E+03  0.78571007706E+03  0.00000000000E+00 0. -1.
         21   -1    0    0  504  502 -0.00000000000E+00 -0.00000000000E+00 -0.49763633608E+03  0.49763633608E+03  0.00000000000E+00 0.  1.
         25    1    1    2    0    0  0.18988008048E+03 -0.37453631783E+03  0.57993775763E+03  0.72683196205E+03  0.12500000000E+03 0.  0.
         21    1    1    2  503  502 -0.15451112951E+03  0.35362807240E+03 -0.32436893003E+03  0.50412469241E+03  0.00000000000E+00 0.  1.
         21    1    1    2  504  501 -0.35368950970E+02  0.20908245435E+02  0.32504913386E+02  0.52389758676E+02  0.00000000000E+00 0.  1.
<mgrwt>
<rscale>  4 0.40949482E+03</rscale>
<asrwt>0</asrwt>
<pdfrwt beam="1">  1       21 0.12087847E+00 0.40949482E+03</pdfrwt>
<pdfrwt beam="2">  1       21 0.76559436E-01 0.40949482E+03</pdfrwt>
<totfact> 0.67493536E+02</totfact>
</mgrwt>
</event>
<event>
 5    0  0.1531977E+001  0.3447594E+03  0.7546771E-02  0.1064787E+00
         21   -1    0    0  503  501  0.00000000000E+00  0.00000000000E+00  0.13308886975E+03  0.13308886975E+03  0.00000000000E+00 0. -1.
         21   -1    0    0  504  502 -0.00000000000E+00 -0.00000000000E+00 -0.88792425214E+03  0.88792425214E+03  0.00000000000E+00 0. -1.
         25    1    1    2    0    0 -0.10812211567E+03 -0.30400705547E+03 -0.40433361345E+03  0.53218544948E+03  0.12500000000E+03 0.  0.
         21    1    1    2  503  502  0.12618725734E+03  0.29433268274E+03 -0.32975903027E+03  0.45966941391E+03  0.00000000000E+00 0. -1.
         21    1    1    2  504  501 -0.18065141666E+02  0.96743727342E+01 -0.20742738668E+02  0.29158258498E+02  0.00000000000E+00 0. -1.
<mgrwt>
<rscale>  4 0.34475941E+03</rscale>
<asrwt>0</asrwt>
<pdfrwt beam="1">  1       21 0.20475210E-01 0.34475941E+03</pdfrwt>
<pdfrwt beam="2">  1       21 0.13660374E+00 0.34475941E+03</pdfrwt>
<totfact> 0.77104179E+03</totfact>
</mgrwt>
</event>
<event>
 5    0  0.1531977E+001  0.3922571E+03  0.7546771E-02  0.1046494E+00
         21   -1    0    0  504  501  0.00000000000E+00  0.00000000000E+00  0.52052209891E+03  0.52052209891E+03  0.00000000000E+00 0.  1.
         21   -1    0    0  503  502 -0.00000000000E+00 -0.00000000000E+00 -0.13685571861E+04  0.13685571861E+04  0.00000000000E+00 0.  1.
         25    1    1    2    0    0  0.35965530204E+03  0.98846188666E+02  0.37129600964E+03  0.54093274265E+03  0.12500000000E+03 0.  0.
         21    1    1    2  503  501 -0.36638688541E+03 -0.63417659560E+02 -0.12479123730E+04  0.13021314988E+04  0.00000000000E+00 0.  1.
         21    1    1    2  504  502  0.67315833712E+01 -0.35428529106E+02  0.28581276182E+02  0.46015043600E+02  0.00000000000E+00 0. -1.
<mgrwt>
<rscale>  4 0.39225707E+03</rscale>
<asrwt>0</asrwt>
<pdfrwt beam="1">  1       21 0.80080322E-01 0.39225707E+03</pdfrwt>
<pdfrwt beam="2">  1       21 0.21054726E+00 0.39225707E+03</pdfrwt>
<totfact> 0.13063294E+02</totfact>
</mgrwt>
</event>
<event>
 5    0  0.1531977E+001  0.3238013E+03  0.7546771E-02  0.1073913E+00
         21   -1    0    0  502  501  0.00000000000E+00  0.00000000000E+00  0.36556305231E+03  0.36556305231E+03  0.00000000000E+00 0.  1.
         21   -1    0    0  504  502 -0.00000000000E+00 -0.00000000000E+00 -0.20771895213E+04  0.20771895213E+04  0.00000000000E+00 0. -1.
         25    1    1    2    0    0  0.10349365143E+03  0.29826922273E+03  0.57844319086E+02  0.34445091140E+03  0.12500000000E+03 0.  0.
         21    1    1    2  503  501  0.51228968692E+02 -0.43458297052E+02  0.14550333491E+03  0.16026306900E+03  0.00000000000E+00 0.  1.
         21    1    1    2  504  503 -0.15472262012E+03 -0.25481092568E+03 -0.19149741229E+04  0.19380385932E+04  0.00000000000E+00 0. -1.
<mgrwt>
<rscale>  4 0.32380131E+03</rscale>
<asrwt>0</asrwt>
<pdfrwt beam="1">  1       21 0.56240470E-01 0.32380131E+03</pdfrwt>
<pdfrwt beam="2">  1       21 0.31956762E+00 0.32380131E+03</pdfrwt>
<totfact> 0.66029300E+01</totfact>
</mgrwt>
</event>
<event>
 5    0  0.1531977E+001  0.2566054E+03  0.7546771E-02  0.1109200E+00
         21   -1    0    0  504  501  0.00000000000E+00  0.00000000000E+00  0.79462538969E+03  0.79462538969E+03  0.00000000000E+00 0.  1.
         21   -1    0    0  503  502 -0.00000000000E+00 -0.00000000000E+00 -0.10419107345E+03  0.10419107345E+03  0.00000000000E+00 0.  1.
         25    1    1    2    0    0 -0.23659509287E+03  0.52985444067E+02  0.41474703017E+03  0.49641191997E+03  0.12500000000E+03 0.  0.
         21    1    1    2  503  501  0.21102212838E+03 -0.48464762811E+02  0.12605932187E+03  0.25053966658E+03  0.00000000000E+00 0.  1.
         21    1    1    2  504  502  0.25572964491E+02 -0.45206812564E+01  0.14962796420E+03  0.15186487659E+03  0.00000000000E+00 0.  1.
<mgrwt>
<rscale>  4 0.25660541E+03</rscale>
<asrwt>0</asrwt>
<pdfrwt beam="1">  1       21 0.12225006E+00 0.25660541E+03</pdfrwt>
<pdfrwt beam="2">  1       21 0.16029396E-01 0.25660541E+03</pdfrwt>
<totfact> 0.16874452E+04</totfact>
</mgrwt>
</event>
<event>
 5    0  0.1531977E+001  0.3767910E+03  0.7546771E-02  0.1052126E+00
         21   -1    0    0  503  501  0.00000000000E+00  0.00000000000E+00  0.11332100517E+04  0.11332100517E+04  0.00000000000E+00 0. -1.
         21   -1    0    0  504  502 -0.00000000000E+00 -0.00000000000E+00 -0.10306081998E+04  0.10306081998E+04  0.00000000000E+00 0. -1.
         25    1    1    2    0    0  0.21268323241E+03 -0.36850877307E+03 -0.52889181387E+03  0.69020607354E+03  0.12500000000E+03 0.  0.
         21    1    1    2  503  502 -0.25414131888E+03  0.18808535770E+03 -0.35182628767E+03  0.47301759845E+03  0.00000000000E+00 0. -1.
         21    1    1    2  504  501  0.41458086471E+02  0.18042341538E+03  0.98331995343E+03  0.10005945795E+04  0.00000000000E+00 0. -1.
<mgrwt>
<rscale>  4 0.37679099E+03</rscale>
<asrwt>0</asrwt>
<pdfrwt beam="1">  1       21 0.17434001E+00 0.37679099E+03</pdfrwt>
<pdfrwt beam="2">  1       21 0.15855511E+00 0.37679099E+03</pdfrwt>
<totfact> 0.42088111E+01</totfact>
</mgrwt>
</event>
<event>
 5    0  0.1531977E+001  0.3072432E+03  0.7546771E-02  0.1081675E+00
         21   -1    0    0  502  501  0.00000000000E+00  0.00000000000E+00  0.37503211495E+03  0.37503211495E+03  0.00000000000E+00 0. -1.
         21   -1    0    0  504  502 -0.00000000000E+00 -0.00000000000E+00 -0.65494896099E+03  0.65494896099E+03  0.00000000000E+00 0.  1.
         25    1    1    2    0    0 -0.20956556352E+02  0.29753760955E+03  0.22116678137E+03  0.39180039757E+03  0.12500000000E+03 0.  0.
         21    1    1    2  503  501 -0.15534137235E+02 -0.21191626318E+02  0.29087625543E+02  0.39198015325E+02  0.00000000000E+00 0.  1.
         21    1    1    2  504  503  0.36490693587E+02 -0.27634598323E+03 -0.53017125295E+03  0.59898266304E+03  0.00000000000E+00 0.  1.
<mgrwt>
<rscale>  4 0.30724324E+03</rscale>
<asrwt>0</asrwt>
<pdfrwt beam="1">  1       21 0.57697249E-01 0.30724324E+03</pdfrwt>
<pdfrwt beam="2">  1       21 0.10076138E+00 0.30724324E+03</pdfrwt>
<totfact> 0.20918119E+03</totfact>
</mgrwt>
</event>
<event>
 5    0  0.1531977E+001  0.2206518E+03  0.7546771E-02  0.1133398E+00
         21   -1    0    0  503  501  0.00000000000E+00  0.00000000000E+00  0.95750973140E+03  0.95750973140E+03  0.00000000000E+00 0.  1.
         21   -1    0    0  504  502 -0.00000000000E+00 -0.00000000000E+00 -0.92502429348E+02  0.92502429348E+02  0.00000000000E+00 0. -1.
         25    1    1    2    0    0 -0.16613930310E+02 -0.21514622506E+03  0.67096627775E+03  0.71581049638E+03  0.12500000000E+03 0.  0.
         21    1    1    2  503  502  0.42068068235E+01  0.17617035106E+03  0.48143107854E+02  0.18267853911E+03  0.00000000000E+00 0. -1.
         21    1    1    2  504  501  0.12407123486E+02  0.38975874000E+02  0.14589791644E+03  0.15152312526E+03  0.00000000000E+00 0.  1.
<mgrwt>
<rscale>  4 0.22065185E+03</rscale>
<asrwt>0</asrwt>
<pdfrwt beam="1">  1       21 0.14730918E+00 0.22065185E+03</pdfrwt>
<pdfrwt beam="2">  1       21 0.14231144E-01 0.22065185E+03</pdfrwt>
<totfact> 0.13269225E+04</totfact>
</mgrwt>
</event>
