<event>
 5    0  0.1856407E+000  0.2479599E+03  0.7546771E-02  0.1114601E+00
         21   -1    0    0  502  501  0.00000000000E+00  0.00000000000E+00  0.41234590813E+03  0.41234590813E+03  0.00000000000E+00 0. -1.
         21   -1    0    0  503  502 -0.00000000000E+00 -0.00000000000E+00 -0.17743014858E+03  0.17743014858E+03  0.00000000000E+00 0. -1.
         25    1    1    2    0    0  0.12635985665E+03 -0.17289385132E+03  0.27282245038E+03  0.36866812532E+03  0.12500000000E+03 0.  0.
         21    1    1    2  503  504 -0.24987780730E+02  0.35132658210E+02  0.83728783566E+01  0.43918082274E+02  0.00000000000E+00 0. -1.
         21    1    1    2  504  501 -0.10137207592E+03  0.13776119311E+03 -0.46279569183E+02  0.17718984911E+03  0.00000000000E+00 0. -1.
<mgrwt>
<rscale>  4 0.24795987E+03</rscale>
<asrwt>0</asrwt>
<pdfrwt beam="1">  1       21 0.63437832E-01 0.24795987E+03</pdfrwt>
<pdfrwt beam="2">  1       21 0.27296946E-01 0.24795987E+03</pdfrwt>
<totfact> 0.28585062E+04</totfact>
</mgrwt>
</event>
<event>
 5    0  0.1856407E+000  0.2782529E+03  0.7546771E-02  0.1096647E+00
         21   -1    0    0  502  501  0.00000000000E+00  0.00000000000E+00  0.77354642947E+02  0.77354642947E+02  0.00000000000E+00 0.  1.
         21   -1    0    0  503  502 -0.00000000000E+00 -0.00000000000E+00 -0.19087201205E+04  0.19087201205E+04  0.00000000000E+00 0.  1.
         25    1    1    2    0    0  0.23957011384E+03  0.44764285570E+02 -0.24103522950E+03  0.36485704401E+03  0.12500000000E+03 0.  0.
         21    1    1    2  503  504 -0.26245590524E+03 -0.52948374377E+02 -0.11725163329E+04  0.12026974613E+04  0.00000000000E+00 0.  1.
         21    1    1    2  504  501  0.22885791397E+02  0.81840888075E+01 -0.41781391511E+03  0.41852025808E+03  0.00000000000E+00 0.  1.
<mgrwt>
<rscale>  4 0.27825290E+03</rscale>
<asrwt>0</asrwt>
<pdfrwt beam="1">  1       21 0.11900714E-01 0.27825290E+03</pdfrwt>
<pdfrwt beam="2">  1       21 0.29364926E+00 0.27825290E+03</pdfrwt>
<totfact> 0.20234922E+03</totfact>
</mgrwt>
</event>
<event>
 5    0  0.1856407E+000  0.2239631E+03  0.7546771E-02  0.1130962E+00
         21   -1    0    0  502  501  0.00000000000E+00  0.00000000000E+00  0.25077138127E+03  0.25077138127E+03  0.00000000000E+00 0. -1.
         21   -1    0    0  503  502 -0.00000000000E+00 -0.00000000000E+00 -0.27496198645E+03  0.27496198645E+03  0.00000000000E+00 0. -1.
         25    1    1    2    0    0 -0.72144123993E+01 -0.21201790943E+03 -0.97934730196E+02  0.26499028859E+03  0.12500000000E+03 0.  0.
         21    1    1    2  503  504 -0.19547402868E+02  0.16109932659E+03 -0.60296962824E+01  0.16239289154E+03  0.00000000000E+00 0. -1.
         21    1    1    2  504  501  0.26761815267E+02  0.50918582842E+02  0.79773821293E+02  0.98350187589E+02  0.00000000000E+00 0.  1.
<mgrwt>
<rscale>  4 0.22396306E+03</rscale>
<asrwt>0</asrwt>
<pdfrwt beam="1">  1       21 0.38580212E-01 0.22396306E+03</pdfrwt>
<pdfrwt beam="2">  1       21 0.42301844E-01 0.22396306E+03</pdfrwt>
<totfact> 0.34281271E+04</totfact>
</mgrwt>
</event>
<event>
 5    0  0.1856407E+000  0.4376027E+03  0.7546771E-02  0.1031485E+00
         21   -1    0    0  502  501  0.00000000000E+00  0.00000000000E+00  0.43673839415E+03  0.43673839415E+03  0.00000000000E+00 0. -1.
         21   -1    0    0  503  502 -0.00000000000E+00 -0.00000000000E+00 -0.10010452629E+04  0.10010452629E+04  0.00000000000E+00 0. -1.
         25    1    1    2    0    0 -0.41622890785E+03  0.51231319746E+02  0.25703012827E+03  0.50750432382E+03  0.12500000000E+03 0.  0.
         21    1    1    2  503  504  0.31167435032E+03  0.12336468803E+02 -0.63308401928E+03  0.70575382718E+03  0.00000000000E+00 0. -1.
         21    1    1    2  504  501  0.10455455753E+03 -0.63567788550E+02 -0.18825297778E+03  0.22452550609E+03  0.00000000000E+00 0.  1.
<mgrwt>
<rscale>  4 0.43760273E+03</rscale>
<asrwt>0</asrwt>
<pdfrwt beam="1">  1       21 0.67190523E-01 0.43760273E+03</pdfrwt>
<pdfrwt beam="2">  1       21 0.15400696E+00 0.43760273E+03</pdfrwt>
<totfact> 0.47261259E+02</totfact>
</mgrwt>
</event>
<event>
 5    0  0.2664259E+000  0.2416594E+03  0.7546771E-02  0.1118692E+00
         21   -1    0    0  502  501  0.00000000000E+00  0.00000000000E+00  0.85751833192E+02  0.85751833192E+02  0.00000000000E+00 0. -1.
         21   -1    0    0  503  502 -0.00000000000E+00 -0.00000000000E+00 -0.69882669715E+03  0.69882669715E+03  0.00000000000E+00 0. -1.
         25    1    1    2    0    0 -0.12392660359E+03  0.17451275162E+03 -0.23242749026E+03  0.33979411676E+03  0.12500000000E+03 0.  0.
         21    1    1    2  503  504  0.10355937517E+03 -0.17521965507E+03 -0.36873355835E+03  0.42117800128E+03  0.00000000000E+00 0. -1.
         21    1    1    2  504  501  0.20367228415E+02  0.70690345176E+00 -0.11913815356E+02  0.23606412309E+02  0.00000000000E+00 0. -1.
<mgrwt>
<rscale>  4 0.24165936E+03</rscale>
<asrwt>0</asrwt>
<pdfrwt beam="1">  1       21 0.13192589E-01 0.24165936E+03</pdfrwt>
<pdfrwt beam="2">  1       21 0.10751180E+00 0.24165936E+03</pdfrwt>
<totfact> 0.33298589E+04</totfact>
</mgrwt>
</event>
<event>
 5    0  0.4553076E+000  0.2484994E+03  0.7546771E-02  0.1114257E+00
         21   -1    0    0  502  501  0.00000000000E+00  0.00000000000E+00  0.11108644905E+03  0.11108644905E+03  0.00000000000E+00 0.  1.
         21   -1    0    0  503  502 -0.00000000000E+00 -0.00000000000E+00 -0.57899976623E+03  0.57899976623E+03  0.00000000000E+00 0.  1.
         25    1    1    2    0    0  0.23063105012E+03  0.74421625331E+01 -0.21587046305E+03  0.33981042344E+03  0.12500000000E+03 0.  0.
         21    1    1    2  503  504 -0.28471234028E+02 -0.54747692222E+01 -0.79035820479E+02  0.84185777801E+02  0.00000000000E+00 0.  1.
         21    1    1    2  504  501 -0.20215981609E+03 -0.19673933110E+01 -0.17300703365E+03  0.26609001403E+03  0.00000000000E+00 0.  1.
<mgrwt>
<rscale>  4 0.24849937E+03</rscale>
<asrwt>0</asrwt>
<pdfrwt beam="1">  1       21 0.17090223E-01 0.24849937E+03</pdfrwt>
<pdfrwt beam="2">  1       21 0.89076887E-01 0.24849937E+03</pdfrwt>
<totfact> 0.32310860E+04</totfact>
</mgrwt>
</event>
<event>
 5    0  0.4424179E+000  0.2890503E+03  0.7546771E-02  0.1090846E+00
         21   -1    0    0  502  501  0.00000000000E+00  0.00000000000E+00  0.88937914816E+03  0.88937914816E+03  0.00000000000E+00 0. -1.
         21   -1    0    0  503  502 -0.00000000000E+00 -0.00000000000E+00 -0.95815275332E+02  0.95815275332E+02  0.00000000000E+00 0. -1.
         25    1    1    2    0    0  0.15705197859E+03  0.20798984694E+03  0.54695593507E+03  0.61863631911E+03  0.12500000000E+03 0.  0.
         21    1    1    2  503  504 -0.28032117089E+01 -0.28247235838E+02  0.61639713728E+01  0.29047527803E+02  0.00000000000E+00 0. -1.
         21    1    1    2  504  501 -0.15424876689E+03 -0.17974261111E+03  0.24044396638E+03  0.33751057658E+03  0.00000000000E+00 0. -1.
<mgrwt>
<rscale>  4 0.28905034E+03</rscale>
<asrwt>0</asrwt>
<pdfrwt beam="1">  1       21 0.13682756E+00 0.28905034E+03</pdfrwt>
<pdfrwt beam="2">  1       21 0.14740812E-01 0.28905034E+03</pdfrwt>
<totfact> 0.14533749E+04</totfact>
</mgrwt>
</event>
<event>
 5    0  0.1856407E+000  0.4264168E+03  0.7546771E-02  0.1034998E+00
         21   -1    0    0  502  501  0.00000000000E+00  0.00000000000E+00  0.28841707993E+03  0.28841707993E+03  0.00000000000E+00 0.  1.
         21   -1    0    0  503  502 -0.00000000000E+00 -0.00000000000E+00 -0.62420510735E+03  0.62420510735E+03  0.00000000000E+00 0.  1.
         25    1    1    2    0    0 -0.36084982098E+03  0.18971994105E+03 -0.11794678412E+03  0.44242817860E+03  0.12500000000E+03 0.  0.
         21    1    1    2  503  504  0.18446381367E+03 -0.14522003086E+03 -0.12146396122E+03  0.26432792095E+03  0.00000000000E+00 0.  1.
         21    1    1    2  504  501  0.17638600730E+03 -0.44499910197E+02 -0.96377282075E+02  0.20586608774E+03  0.00000000000E+00 0.  1.
<mgrwt>
<rscale>  4 0.42641676E+03</rscale>
<asrwt>0</asrwt>
<pdfrwt beam="1">  1       21 0.44371859E-01 0.42641676E+03</pdfrwt>
<pdfrwt beam="2">  1       21 0.96031555E-01 0.42641676E+03</pdfrwt>
<totfact> 0.38827192E+03</totfact>
</mgrwt>
</event>
<event>
 5    0  0.1856407E+000  0.2808342E+03  0.7546771E-02  0.1095234E+00
         21   -1    0    0  502  501  0.00000000000E+00  0.00000000000E+00  0.63615689912E+03  0.63615689912E+03  0.00000000000E+00 0. -1.
         21   -1    0    0  503  502 -0.00000000000E+00 -0.00000000000E+00 -0.29873786267E+03  0.29873786267E+03  0.00000000000E+00 0.  1.
         25    1    1    2    0    0  0.24748883564E+03 -0.44633407958E+02  0.54077567851E+03  0.60934899634E+03  0.12500000000E+03 0.  0.
         21    1    1    2  503  504 -0.36368815664E+02  0.10982936419E+02 -0.48295722448E+02  0.61447477181E+02  0.00000000000E+00 0.  1.
         21    1    1    2  504  501 -0.21112001998E+03  0.33650471539E+02 -0.15506091962E+03  0.26409828826E+03  0.00000000000E+00 0.  1.
<mgrwt>
<rscale>  4 0.28083423E+03</rscale>
<asrwt>0</asrwt>
<pdfrwt beam="1">  1       21 0.97870292E-01 0.28083423E+03</pdfrwt>
<pdfrwt beam="2">  1       21 0.45959671E-01 0.28083423E+03</pdfrwt>
<totfact> 0.36849382E+03</totfact>
</mgrwt>
</event>
<event>
 5    0  0.1856407E+000  0.2506288E+03  0.7546771E-02  0.1112908E+00
         21   -1    0    0  502  501  0.00000000000E+00  0.00000000000E+00  0.20385133869E+04  0.20385133869E+04  0.00000000000E+00 0.  1.
         21   -1    0    0  503  502 -0.00000000000E+00 -0.00000000000E+00 -0.10067306935E+03  0.10067306935E+03  0.00000000000E+00 0.  1.
         25    1    1    2    0    0  0.48386588832E+02  0.21177474093E+03  0.19006402814E+04  0.19170937072E+04  0.12500000000E+03 0.  0.
         21    1    1    2  503  504 -0.56637715572E+01 -0.22209598831E+02  0.12785413506E+02  0.26245216459E+02  0.00000000000E+00 0. -1.
         21    1    1    2  504  501 -0.42722817275E+02 -0.18956514210E+03  0.24414622625E+02  0.19584753257E+03  0.00000000000E+00 0.  1.
<mgrwt>
<rscale>  4 0.25062881E+03</rscale>
<asrwt>0</asrwt>
<pdfrwt beam="1">  1       21 0.31361741E+00 0.25062881E+03</pdfrwt>
<pdfrwt beam="2">  1       21 0.15488166E-01 0.25062881E+03</pdfrwt>
<totfact> 0.98265744E+02</totfact>
</mgrwt>
</event>
<event>
 5    0  0.1856407E+000  0.2366553E+03  0.7546771E-02  0.1122041E+00
         21   -1    0    0  502  501  0.00000000000E+00  0.00000000000E+00  0.31274539834E+03  0.31274539834E+03  0.00000000000E+00 0. -1.
         21   -1    0    0  503  502 -0.00000000000E+00 -0.00000000000E+00 -0.18564595152E+03  0.18564595152E+03  0.00000000000E+00 0. -1.
         25    1    1    2    0    0  0.17639913671E+03  0.96250099846E+02  0.15579700076E+03  0.28333450654E+03  0.12500000000E+03 0.  0.
         21    1    1    2  503  504 -0.35520183277E+02 -0.54630747519E+02  0.10763147387E+01  0.65171776467E+02  0.00000000000E+00 0. -1.
         21    1    1    2  504  501 -0.14087895343E+03 -0.41619352327E+02 -0.29773868684E+02  0.14988506685E+03  0.00000000000E+00 0. -1.
<mgrwt>
<rscale>  4 0.23665531E+03</rscale>
<asrwt>0</asrwt>
<pdfrwt beam="1">  1       21 0.48114677E-01 0.23665531E+03</pdfrwt>
<pdfrwt beam="2">  1       21 0.28560916E-01 0.23665531E+03</pdfrwt>
<totfact> 0.47415219E+04</totfact>
</mgrwt>
</event>
