<event>
 5    0  0.1911311E+001  0.2143801E+03  0.7546771E-02  0.1138144E+00
         21   -1    0    0  503  501  0.00000000000E+00  0.00000000000E+00  0.12620617960E+04  0.12620617960E+04  0.00000000000E+00 0.  1.
         21   -1    0    0  504  502 -0.00000000000E+00 -0.00000000000E+00 -0.90366944764E+02  0.90366944764E+02  0.00000000000E+00 0.  1.
         25    1    1    2    0    0 -0.89778796097E+02  0.20911774314E+03  0.35538998423E+03  0.44013350659E+03  0.12500000000E+03 0.  0.
         21    1    1    2  503  502  0.47938665362E+02 -0.14904873841E+03  0.86589681485E+02  0.17891734124E+03  0.00000000000E+00 0.  1.
         21    1    1    2  504  501  0.41840130735E+02 -0.60069004735E+02  0.72971518554E+03  0.73337789295E+03  0.00000000000E+00 0.  1.
<mgrwt>
<rscale>  4 0.21438013E+03</rscale>
<asrwt>0</asrwt>
<pdfrwt beam="1">  1       21 0.19416334E+00 0.21438013E+03</pdfrwt>
<pdfrwt beam="2">  1       21 0.13902608E-01 0.21438013E+03</pdfrwt>
<totfact> 0.64737331E+03</totfact>
</mgrwt>
</event>
<event>
 5    0  0.1911311E+001  0.2708418E+03  0.7546771E-02  0.1100799E+00
         21   -1    0    0  502  501  0.00000000000E+00  0.00000000000E+00  0.14948523132E+04  0.14948523132E+04  0.00000000000E+00 0. -1.
         21   -1    0    0  504  502 -0.00000000000E+00 -0.00000000000E+00 -0.89737858819E+03  0.89737858819E+03  0.00000000000E+00 0. -1.
         25    1    1    2    0    0 -0.25820045506E+03 -0.23692903112E+03  0.68629961342E+03  0.78066317972E+03  0.12500000000E+03 0.  0.
         21    1    1    2  503  501  0.16205364848E+03  0.12918037944E+03  0.74091553800E+03  0.76935348824E+03  0.00000000000E+00 0. -1.
         21    1    1    2  504  503  0.96146806580E+02  0.10774865169E+03 -0.82974142639E+03  0.84221423345E+03  0.00000000000E+00 0. -1.
<mgrwt>
<rscale>  4 0.27084184E+03</rscale>
<asrwt>0</asrwt>
<pdfrwt beam="1">  1       21 0.22997728E+00 0.27084184E+03</pdfrwt>
<pdfrwt beam="2">  1       21 0.13805824E+00 0.27084184E+03</pdfrwt>
<totfact> 0.29041212E+01</totfact>
</mgrwt>
</event>
<event>
 5    0  0.1911311E+001  0.1740935E+03  0.7546771E-02  0.1173645E+00
         21   -1    0    0  502  501  0.00000000000E+00  0.00000000000E+00  0.18732726370E+03  0.18732726370E+03  0.00000000000E+00 0. -1.
         21   -1    0    0  504  502 -0.00000000000E+00 -0.00000000000E+00 -0.10640613044E+04  0.10640613044E+04  0.00000000000E+00 0. -1.
         25    1    1    2    0    0 -0.11692295692E+03  0.19480997058E+03 -0.88452664485E+03  0.92175608918E+03  0.12500000000E+03 0.  0.
         21    1    1    2  503  501  0.48105837771E+02 -0.10819470950E+03  0.12243064392E+03  0.17032184053E+03  0.00000000000E+00 0. -1.
         21    1    1    2  504  503  0.68817119149E+02 -0.86615261083E+02 -0.11463803976E+03  0.15931063838E+03  0.00000000000E+00 0. -1.
<mgrwt>
<rscale>  4 0.17409349E+03</rscale>
<asrwt>0</asrwt>
<pdfrwt beam="1">  1       21 0.28819579E-01 0.17409349E+03</pdfrwt>
<pdfrwt beam="2">  1       21 0.16370174E+00 0.17409349E+03</pdfrwt>
<totfact> 0.27754511E+03</totfact>
</mgrwt>
</event>
