<event>
 5    0  0.1257040E+001  0.2408649E+03  0.7546771E-02  0.1119218E+00
         21   -1    0    0  502  501  0.00000000000E+00  0.00000000000E+00  0.62060106783E+03  0.62060106783E+03  0.00000000000E+00 0. -1.
         21   -1    0    0  504  502 -0.00000000000E+00 -0.00000000000E+00 -0.29517341592E+03  0.29517341592E+03  0.00000000000E+00 0. -1.
         25    1    1    2    0    0 -0.30396305631E+02  0.21911031499E+03 -0.18004989444E+03  0.31141006731E+03  0.12500000000E+03 0.  0.
         21    1    1    2  503  501  0.40746580045E+02 -0.20064065948E+03  0.53222832136E+03  0.57024901936E+03  0.00000000000E+00 0. -1.
         21    1    1    2  504  503 -0.10350274414E+02 -0.18469655513E+02 -0.26750775006E+02  0.34115397090E+02  0.00000000000E+00 0.  1.
<mgrwt>
<rscale>  4 0.24086491E+03</rscale>
<asrwt>0</asrwt>
<pdfrwt beam="1">  1       21 0.95477087E-01 0.24086491E+03</pdfrwt>
<pdfrwt beam="2">  1       21 0.45411295E-01 0.24086491E+03</pdfrwt>
<totfact> 0.41071303E+03</totfact>
</mgrwt>
</event>
<event>
 5    0  0.1257040E+001  0.2371456E+03  0.7546771E-02  0.1121709E+00
         21   -1    0    0  502  501  0.00000000000E+00  0.00000000000E+00  0.34090916523E+03  0.34090916523E+03  0.00000000000E+00 0. -1.
         21   -1    0    0  504  502 -0.00000000000E+00 -0.00000000000E+00 -0.51503307288E+03  0.51503307288E+03  0.00000000000E+00 0. -1.
         25    1    1    2    0    0 -0.10425849869E+02  0.23563163956E+03 -0.86558992237E+02  0.28062150139E+03  0.12500000000E+03 0.  0.
         21    1    1    2  503  501 -0.66039245663E+02 -0.18553999403E+03  0.19571812622E+03  0.27765420271E+03  0.00000000000E+00 0. -1.
         21    1    1    2  504  503  0.76465095533E+02 -0.50091645530E+02 -0.28328304164E+03  0.29766653401E+03  0.00000000000E+00 0.  1.
<mgrwt>
<rscale>  4 0.23714561E+03</rscale>
<asrwt>0</asrwt>
<pdfrwt beam="1">  1       21 0.52447564E-01 0.23714561E+03</pdfrwt>
<pdfrwt beam="2">  1       21 0.79235857E-01 0.23714561E+03</pdfrwt>
<totfact> 0.46902317E+03</totfact>
</mgrwt>
</event>
<event>
 5    0  0.1257040E+001  0.2346958E+03  0.7546771E-02  0.1123378E+00
         21   -1    0    0  504  501  0.00000000000E+00  0.00000000000E+00  0.99402346829E+02  0.99402346829E+02  0.00000000000E+00 0. -1.
         21   -1    0    0  503  502 -0.00000000000E+00 -0.00000000000E+00 -0.13449038319E+04  0.13449038319E+04  0.00000000000E+00 0. -1.
         25    1    1    2    0    0 -0.18925055643E+02  0.22073627968E+03 -0.12590105950E+03  0.28382871539E+03  0.12500000000E+03 0.  0.
         21    1    1    2  503  501  0.19959946027E+02 -0.19514496056E+03 -0.11177125897E+04  0.11347957473E+04  0.00000000000E+00 0. -1.
         21    1    1    2  504  502 -0.10348903841E+01 -0.25591319124E+02 -0.18878359109E+01  0.25681716007E+02  0.00000000000E+00 0. -1.
<mgrwt>
<rscale>  4 0.23469581E+03</rscale>
<asrwt>0</asrwt>
<pdfrwt beam="1">  1       21 0.15292670E-01 0.23469581E+03</pdfrwt>
<pdfrwt beam="2">  1       21 0.20690827E+00 0.23469581E+03</pdfrwt>
<totfact> 0.44274400E+03</totfact>
</mgrwt>
</event>
<event>
 5    0  0.1257040E+001  0.2132568E+03  0.7546771E-02  0.1139013E+00
         21   -1    0    0  502  501  0.00000000000E+00  0.00000000000E+00  0.78247067966E+02  0.78247067966E+02  0.00000000000E+00 0. -1.
         21   -1    0    0  504  502 -0.00000000000E+00 -0.00000000000E+00 -0.85431887050E+03  0.85431887050E+03  0.00000000000E+00 0.  1.
         25    1    1    2    0    0 -0.76155200155E+02  0.18770128767E+03 -0.41117732668E+03  0.47510333811E+03  0.12500000000E+03 0.  0.
         21    1    1    2  503  501  0.51316982454E+02 -0.15460437165E+03 -0.10391034204E+03  0.19321827968E+03  0.00000000000E+00 0. -1.
         21    1    1    2  504  503  0.24838217701E+02 -0.33096916020E+02 -0.26098413381E+03  0.26424432068E+03  0.00000000000E+00 0. -1.
<mgrwt>
<rscale>  4 0.21325678E+03</rscale>
<asrwt>0</asrwt>
<pdfrwt beam="1">  1       21 0.12038010E-01 0.21325678E+03</pdfrwt>
<pdfrwt beam="2">  1       21 0.13143368E+00 0.21325678E+03</pdfrwt>
<totfact> 0.24223181E+04</totfact>
</mgrwt>
</event>
<event>
 5    0  0.1257040E+001  0.2298078E+03  0.7546771E-02  0.1126775E+00
         21   -1    0    0  504  501  0.00000000000E+00  0.00000000000E+00  0.15846576851E+03  0.15846576851E+03  0.00000000000E+00 0. -1.
         21   -1    0    0  503  502 -0.00000000000E+00 -0.00000000000E+00 -0.89571371582E+03  0.89571371582E+03  0.00000000000E+00 0. -1.
         25    1    1    2    0    0  0.11445437905E+03  0.18879454656E+03 -0.68400745879E+03  0.72954395986E+03  0.12500000000E+03 0.  0.
         21    1    1    2  503  501 -0.11110773992E+03 -0.10679839617E+03 -0.13784743283E+03  0.20676736210E+03  0.00000000000E+00 0. -1.
         21    1    1    2  504  502 -0.33466391357E+01 -0.81996150383E+02  0.84606944309E+02  0.11786816235E+03  0.00000000000E+00 0. -1.
<mgrwt>
<rscale>  4 0.22980775E+03</rscale>
<asrwt>0</asrwt>
<pdfrwt beam="1">  1       21 0.24379349E-01 0.22980775E+03</pdfrwt>
<pdfrwt beam="2">  1       21 0.13780211E+00 0.22980775E+03</pdfrwt>
<totfact> 0.57571569E+03</totfact>
</mgrwt>
</event>
<event>
 5    0  0.1257040E+001  0.2402640E+03  0.7546771E-02  0.1119617E+00
         21   -1    0    0  503  501  0.00000000000E+00  0.00000000000E+00  0.27280977207E+03  0.27280977207E+03  0.00000000000E+00 0. -1.
         21   -1    0    0  504  502 -0.00000000000E+00 -0.00000000000E+00 -0.36764744770E+03  0.36764744770E+03  0.00000000000E+00 0. -1.
         25    1    1    2    0    0 -0.16676613969E+03  0.12142916833E+03  0.15828450508E+03  0.28850471888E+03  0.12500000000E+03 0.  0.
         21    1    1    2  503  502 -0.18085343478E+02 -0.35019925987E+02 -0.53916507647E+02  0.66786710218E+02  0.00000000000E+00 0. -1.
         21    1    1    2  504  501  0.18485148317E+03 -0.86409242341E+02 -0.19920567306E+03  0.28516579067E+03  0.00000000000E+00 0. -1.
<mgrwt>
<rscale>  4 0.24026399E+03</rscale>
<asrwt>0</asrwt>
<pdfrwt beam="1">  1       21 0.41970734E-01 0.24026399E+03</pdfrwt>
<pdfrwt beam="2">  1       21 0.56561145E-01 0.24026399E+03</pdfrwt>
<totfact> 0.15619578E+04</totfact>
</mgrwt>
</event>
<event>
 5    0  0.1257040E+001  0.2533922E+03  0.7546771E-02  0.1111180E+00
         21   -1    0    0  504  501  0.00000000000E+00  0.00000000000E+00  0.32276769808E+03  0.32276769808E+03  0.00000000000E+00 0.  1.
         21   -1    0    0  503  502 -0.00000000000E+00 -0.00000000000E+00 -0.32148156070E+03  0.32148156070E+03  0.00000000000E+00 0. -1.
         25    1    1    2    0    0 -0.18400762340E+03  0.89052492732E+02  0.12764505735E+03  0.27149109119E+03  0.12500000000E+03 0.  0.
         21    1    1    2  503  501  0.19845189100E+03 -0.10499229720E+03 -0.19713912211E+03  0.29878147362E+03  0.00000000000E+00 0. -1.
         21    1    1    2  504  502 -0.14444267601E+02  0.15939804464E+02  0.70780202148E+02  0.73976693958E+02  0.00000000000E+00 0. -1.
<mgrwt>
<rscale>  4 0.25339223E+03</rscale>
<asrwt>0</asrwt>
<pdfrwt beam="1">  1       21 0.49656569E-01 0.25339223E+03</pdfrwt>
<pdfrwt beam="2">  1       21 0.49458702E-01 0.25339223E+03</pdfrwt>
<totfact> 0.14549188E+04</totfact>
</mgrwt>
</event>
<event>
 5    0  0.1257040E+001  0.2197978E+03  0.7546771E-02  0.1134034E+00
         21   -1    0    0  502  501  0.00000000000E+00  0.00000000000E+00  0.94748536323E+03  0.94748536323E+03  0.00000000000E+00 0. -1.
         21   -1    0    0  504  502 -0.00000000000E+00 -0.00000000000E+00 -0.32728735980E+03  0.32728735980E+03  0.00000000000E+00 0.  1.
         25    1    1    2    0    0 -0.59686707291E+02 -0.21077974239E+03  0.75361436633E+03  0.79470133759E+03  0.12500000000E+03 0.  0.
         21    1    1    2  503  501  0.10555788129E+02  0.38151588153E+02  0.14417431810E+03  0.14950987372E+03  0.00000000000E+00 0. -1.
         21    1    1    2  504  503  0.49130919161E+02  0.17262815424E+03 -0.27759068099E+03  0.33056151171E+03  0.00000000000E+00 0.  1.
<mgrwt>
<rscale>  4 0.21979783E+03</rscale>
<asrwt>0</asrwt>
<pdfrwt beam="1">  1       21 0.14576698E+00 0.21979783E+03</pdfrwt>
<pdfrwt beam="2">  1       21 0.50351902E-01 0.21979783E+03</pdfrwt>
<totfact> 0.11782360E+03</totfact>
</mgrwt>
</event>
<event>
 5    0  0.1257040E+001  0.2751919E+03  0.7546771E-02  0.1098344E+00
         21   -1    0    0  502  501  0.00000000000E+00  0.00000000000E+00  0.25409091543E+03  0.25409091543E+03  0.00000000000E+00 0. -1.
         21   -1    0    0  504  502 -0.00000000000E+00 -0.00000000000E+00 -0.45261487201E+03  0.45261487201E+03  0.00000000000E+00 0. -1.
         25    1    1    2    0    0  0.25176717063E+03  0.49519472092E+01 -0.13615667461E+03  0.31236976491E+03  0.12500000000E+03 0.  0.
         21    1    1    2  503  501 -0.22231875137E+02 -0.10389737357E+03  0.53355541428E+02  0.11889379424E+03  0.00000000000E+00 0. -1.
         21    1    1    2  504  503 -0.22953529549E+03  0.98945426359E+02 -0.11572282340E+03  0.27544222830E+03  0.00000000000E+00 0. -1.
<mgrwt>
<rscale>  4 0.27519188E+03</rscale>
<asrwt>0</asrwt>
<pdfrwt beam="1">  1       21 0.39090911E-01 0.27519188E+03</pdfrwt>
<pdfrwt beam="2">  1       21 0.69633056E-01 0.27519188E+03</pdfrwt>
<totfact> 0.11274169E+04</totfact>
</mgrwt>
</event>
<event>
 5    0  0.1257040E+001  0.2686395E+03  0.7546771E-02  0.1102061E+00
         21   -1    0    0  504  501  0.00000000000E+00  0.00000000000E+00  0.87333385626E+02  0.87333385626E+02  0.00000000000E+00 0.  1.
         21   -1    0    0  503  502 -0.00000000000E+00 -0.00000000000E+00 -0.15283544198E+04  0.15283544198E+04  0.00000000000E+00 0. -1.
         25    1    1    2    0    0  0.19445613116E+03 -0.64754595438E+02 -0.44183715522E+03  0.50284333177E+03  0.12500000000E+03 0.  0.
         21    1    1    2  503  501 -0.20456131477E+03  0.16216276709E+03 -0.97854186963E+03  0.10127617119E+04  0.00000000000E+00 0. -1.
         21    1    1    2  504  502  0.10105183607E+02 -0.97408171647E+02 -0.20642009286E+02  0.10008276169E+03  0.00000000000E+00 0.  1.
<mgrwt>
<rscale>  4 0.26863955E+03</rscale>
<asrwt>0</asrwt>
<pdfrwt beam="1">  1       21 0.13435906E-01 0.26863955E+03</pdfrwt>
<pdfrwt beam="2">  1       21 0.23513144E+00 0.26863955E+03</pdfrwt>
<totfact> 0.36467876E+03</totfact>
</mgrwt>
</event>
<event>
 5    0  0.1257040E+001  0.2635027E+03  0.7546771E-02  0.1105057E+00
         21   -1    0    0  502  501  0.00000000000E+00  0.00000000000E+00  0.68764411841E+03  0.68764411841E+03  0.00000000000E+00 0.  1.
         21   -1    0    0  504  502 -0.00000000000E+00 -0.00000000000E+00 -0.14107496546E+03  0.14107496546E+03  0.00000000000E+00 0.  1.
         25    1    1    2    0    0  0.11124906859E+03 -0.22661339696E+03  0.43461209924E+03  0.51792148415E+03  0.12500000000E+03 0.  0.
         21    1    1    2  503  501 -0.46801957973E+02  0.92548143840E+01  0.62716823615E+02  0.78800220962E+02  0.00000000000E+00 0.  1.
         21    1    1    2  504  503 -0.64447110618E+02  0.21735858258E+03  0.49240230096E+02  0.23199737875E+03  0.00000000000E+00 0.  1.
<mgrwt>
<rscale>  4 0.26350266E+03</rscale>
<asrwt>0</asrwt>
<pdfrwt beam="1">  1       21 0.10579140E+00 0.26350266E+03</pdfrwt>
<pdfrwt beam="2">  1       21 0.21703841E-01 0.26350266E+03</pdfrwt>
<totfact> 0.13625931E+04</totfact>
</mgrwt>
</event>
<event>
 5    0  0.1257040E+001  0.2040846E+03  0.7546771E-02  0.1146338E+00
         21   -1    0    0  504  501  0.00000000000E+00  0.00000000000E+00  0.72553996385E+03  0.72553996385E+03  0.00000000000E+00 0.  1.
         21   -1    0    0  503  502 -0.00000000000E+00 -0.00000000000E+00 -0.76004633004E+03  0.76004633004E+03  0.00000000000E+00 0. -1.
         25    1    1    2    0    0 -0.22250094555E+03  0.10916290305E+03 -0.45631691177E+03  0.53410985213E+03  0.12500000000E+03 0.  0.
         21    1    1    2  503  501  0.84101008668E+02 -0.29491497857E+02 -0.24766805132E+03  0.26321510548E+03  0.00000000000E+00 0. -1.
         21    1    1    2  504  502  0.13839993689E+03 -0.79671405191E+02  0.66947859689E+03  0.68826133629E+03  0.00000000000E+00 0.  1.
<mgrwt>
<rscale>  4 0.20408464E+03</rscale>
<asrwt>0</asrwt>
<pdfrwt beam="1">  1       21 0.11162153E+00 0.20408464E+03</pdfrwt>
<pdfrwt beam="2">  1       21 0.11693020E+00 0.20408464E+03</pdfrwt>
<totfact> 0.35018041E+02</totfact>
</mgrwt>
</event>
<event>
 5    0  0.1257040E+001  0.2093135E+03  0.7546771E-02  0.1142111E+00
         21   -1    0    0  503  501  0.00000000000E+00  0.00000000000E+00  0.42569300568E+03  0.42569300568E+03  0.00000000000E+00 0. -1.
         21   -1    0    0  501  502 -0.00000000000E+00 -0.00000000000E+00 -0.16682679725E+03  0.16682679725E+03  0.00000000000E+00 0. -1.
         25    1    1    2    0    0 -0.21815041127E+03  0.74606724072E+02  0.13551333147E+03  0.29520269006E+03  0.12500000000E+03 0.  0.
         21    1    1    2  503  504  0.14220217647E+03 -0.36502385368E+02 -0.86797031447E+00  0.14681497370E+03  0.00000000000E+00 0. -1.
         21    1    1    2  504  502  0.75948234793E+02 -0.38104338704E+02  0.12422084727E+03  0.15050213917E+03  0.00000000000E+00 0. -1.
<mgrwt>
<rscale>  4 0.20931345E+03</rscale>
<asrwt>0</asrwt>
<pdfrwt beam="1">  1       21 0.65491231E-01 0.20931345E+03</pdfrwt>
<pdfrwt beam="2">  1       21 0.25665661E-01 0.20931345E+03</pdfrwt>
<totfact> 0.30604013E+04</totfact>
</mgrwt>
</event>
<event>
 5    0  0.1257040E+001  0.3645826E+03  0.7546771E-02  0.1056784E+00
         21   -1    0    0  503  501  0.00000000000E+00  0.00000000000E+00  0.45103889226E+03  0.45103889226E+03  0.00000000000E+00 0. -1.
         21   -1    0    0  504  502 -0.00000000000E+00 -0.00000000000E+00 -0.31350188913E+03  0.31350188913E+03  0.00000000000E+00 0. -1.
         25    1    1    2    0    0  0.25282302360E+03  0.24697720070E+03  0.10560225171E+03  0.38947920932E+03  0.12500000000E+03 0.  0.
         21    1    1    2  503  502 -0.25703829363E+03 -0.21529520590E+03  0.84474803998E+01  0.33539837508E+03  0.00000000000E+00 0. -1.
         21    1    1    2  504  501  0.42152700328E+01 -0.31681994800E+02  0.23487271016E+02  0.39663196993E+02  0.00000000000E+00 0.  1.
<mgrwt>
<rscale>  4 0.36458263E+03</rscale>
<asrwt>0</asrwt>
<pdfrwt beam="1">  1       21 0.69390598E-01 0.36458263E+03</pdfrwt>
<pdfrwt beam="2">  1       21 0.48231060E-01 0.36458263E+03</pdfrwt>
<totfact> 0.70778120E+03</totfact>
</mgrwt>
</event>
<event>
 5    0  0.1257040E+001  0.2106422E+03  0.7546771E-02  0.1141058E+00
         21   -1    0    0  504  501  0.00000000000E+00  0.00000000000E+00  0.10623538245E+03  0.10623538245E+03  0.00000000000E+00 0.  1.
         21   -1    0    0  503  502 -0.00000000000E+00 -0.00000000000E+00 -0.64182019240E+03  0.64182019240E+03  0.00000000000E+00 0.  1.
         25    1    1    2    0    0  0.71131657684E+02  0.18833385460E+03 -0.31428048539E+03  0.39360713537E+03  0.12500000000E+03 0.  0.
         21    1    1    2  503  501 -0.90304410192E+02 -0.25613472904E+02 -0.14729712058E+03  0.17466361448E+03  0.00000000000E+00 0.  1.
         21    1    1    2  504  502  0.19172752508E+02 -0.16272038170E+03 -0.74007203981E+02  0.17978482500E+03  0.00000000000E+00 0.  1.
<mgrwt>
<rscale>  4 0.21064222E+03</rscale>
<asrwt>0</asrwt>
<pdfrwt beam="1">  1       21 0.16343905E-01 0.21064222E+03</pdfrwt>
<pdfrwt beam="2">  1       21 0.98741567E-01 0.21064222E+03</pdfrwt>
<totfact> 0.28077729E+04</totfact>
</mgrwt>
</event>
<event>
 5    0  0.1257040E+001  0.3542426E+03  0.7546771E-02  0.1060887E+00
         21   -1    0    0  502  501  0.00000000000E+00  0.00000000000E+00  0.29777071601E+03  0.29777071601E+03  0.00000000000E+00 0. -1.
         21   -1    0    0  504  502 -0.00000000000E+00 -0.00000000000E+00 -0.51990123749E+03  0.51990123749E+03  0.00000000000E+00 0. -1.
         25    1    1    2    0    0 -0.16351564095E+03  0.27851559163E+03 -0.17264565931E+03  0.38696230216E+03  0.12500000000E+03 0.  0.
         21    1    1    2  503  501  0.89923171819E+01  0.26050759873E+02  0.64925248885E+02  0.70532204000E+02  0.00000000000E+00 0. -1.
         21    1    1    2  504  503  0.15452332377E+03 -0.30456635150E+03 -0.11441011106E+03  0.36017744733E+03  0.00000000000E+00 0. -1.
<mgrwt>
<rscale>  4 0.35424257E+03</rscale>
<asrwt>0</asrwt>
<pdfrwt beam="1">  1       21 0.45810880E-01 0.35424257E+03</pdfrwt>
<pdfrwt beam="2">  1       21 0.79984805E-01 0.35424257E+03</pdfrwt>
<totfact> 0.57378494E+03</totfact>
</mgrwt>
</event>
<event>
 5    0  0.1257040E+001  0.2902636E+03  0.7546771E-02  0.1090212E+00
         21   -1    0    0  502  501  0.00000000000E+00  0.00000000000E+00  0.38189016822E+03  0.38189016822E+03  0.00000000000E+00 0. -1.
         21   -1    0    0  504  502 -0.00000000000E+00 -0.00000000000E+00 -0.45589577606E+03  0.45589577606E+03  0.00000000000E+00 0. -1.
         25    1    1    2    0    0 -0.23465566425E+03 -0.41196337606E+02  0.13990588695E+03  0.30324754937E+03  0.12500000000E+03 0.  0.
         21    1    1    2  503  501 -0.57868786315E+01 -0.80095464418E+02  0.95215408109E+02  0.12455820056E+03  0.00000000000E+00 0.  1.
         21    1    1    2  504  503  0.24044254288E+03  0.12129180202E+03 -0.30912690290E+03  0.40998019435E+03  0.00000000000E+00 0. -1.
<mgrwt>
<rscale>  4 0.29026360E+03</rscale>
<asrwt>0</asrwt>
<pdfrwt beam="1">  1       21 0.58752334E-01 0.29026360E+03</pdfrwt>
<pdfrwt beam="2">  1       21 0.70137811E-01 0.29026360E+03</pdfrwt>
<totfact> 0.46922962E+03</totfact>
</mgrwt>
</event>
<event>
 5    0  0.1257040E+001  0.2536172E+03  0.7546771E-02  0.1111040E+00
         21   -1    0    0  502  501  0.00000000000E+00  0.00000000000E+00  0.78208552740E+03  0.78208552740E+03  0.00000000000E+00 0.  1.
         21   -1    0    0  504  502 -0.00000000000E+00 -0.00000000000E+00 -0.14346810276E+03  0.14346810276E+03  0.00000000000E+00 0.  1.
         25    1    1    2    0    0  0.21201673347E+03 -0.98599354224E+02  0.11604272463E+03  0.28941983668E+03  0.12500000000E+03 0.  0.
         21    1    1    2  503  501 -0.19197427025E+03  0.10250112126E+03  0.55593941111E+03  0.59701694207E+03  0.00000000000E+00 0.  1.
         21    1    1    2  504  503 -0.20042463218E+02 -0.39017670366E+01 -0.33364711095E+02  0.39116851411E+02  0.00000000000E+00 0. -1.
<mgrwt>
<rscale>  4 0.25361717E+03</rscale>
<asrwt>0</asrwt>
<pdfrwt beam="1">  1       21 0.12032085E+00 0.25361717E+03</pdfrwt>
<pdfrwt beam="2">  1       21 0.22072016E-01 0.25361717E+03</pdfrwt>
<totfact> 0.96728250E+03</totfact>
</mgrwt>
</event>
<event>
 5    0  0.1257040E+001  0.2374161E+03  0.7546771E-02  0.1121526E+00
         21   -1    0    0  502  501  0.00000000000E+00  0.00000000000E+00  0.86153125025E+02  0.86153125025E+02  0.00000000000E+00 0. -1.
         21   -1    0    0  504  502 -0.00000000000E+00 -0.00000000000E+00 -0.29943842904E+04  0.29943842904E+04  0.00000000000E+00 0. -1.
         25    1    1    2    0    0 -0.19993345792E+03 -0.25994601479E+02 -0.84162797615E+03  0.87442081239E+03  0.12500000000E+03 0.  0.
         21    1    1    2  503  501  0.14706533685E+03  0.14809422638E+03 -0.93780033599E+02  0.22881173023E+03  0.00000000000E+00 0. -1.
         21    1    1    2  504  503  0.52868121067E+02 -0.12209962490E+03 -0.19728231556E+04  0.19773048728E+04  0.00000000000E+00 0. -1.
<mgrwt>
<rscale>  4 0.23741610E+03</rscale>
<asrwt>0</asrwt>
<pdfrwt beam="1">  1       21 0.13254329E-01 0.23741610E+03</pdfrwt>
<pdfrwt beam="2">  1       21 0.46067444E+00 0.23741610E+03</pdfrwt>
<totfact> 0.16110711E+02</totfact>
</mgrwt>
</event>
<event>
 5    0  0.1257040E+001  0.2963891E+03  0.7546771E-02  0.1087060E+00
         21   -1    0    0  502  501  0.00000000000E+00  0.00000000000E+00  0.11833788738E+03  0.11833788738E+03  0.00000000000E+00 0. -1.
         21   -1    0    0  504  502 -0.00000000000E+00 -0.00000000000E+00 -0.22256091862E+04  0.22256091862E+04  0.00000000000E+00 0.  1.
         25    1    1    2    0    0  0.13909527455E+03  0.20700780420E+03 -0.90754043788E+02  0.29336159065E+03  0.12500000000E+03 0.  0.
         21    1    1    2  503  501  0.14280729574E+02  0.15770949827E+02 -0.62081244331E+01  0.22163097811E+02  0.00000000000E+00 0. -1.
         21    1    1    2  504  503 -0.15337600412E+03 -0.22277875403E+03 -0.20103091306E+04  0.20284223851E+04  0.00000000000E+00 0.  1.
<mgrwt>
<rscale>  4 0.29638906E+03</rscale>
<asrwt>0</asrwt>
<pdfrwt beam="1">  1       21 0.18205830E-01 0.29638906E+03</pdfrwt>
<pdfrwt beam="2">  1       21 0.34240140E+00 0.29638906E+03</pdfrwt>
<totfact> 0.46967124E+02</totfact>
</mgrwt>
</event>
<event>
 5    0  0.1257040E+001  0.3215524E+03  0.7546771E-02  0.1074937E+00
         21   -1    0    0  504  501  0.00000000000E+00  0.00000000000E+00  0.42764058064E+03  0.42764058064E+03  0.00000000000E+00 0. -1.
         21   -1    0    0  503  502 -0.00000000000E+00 -0.00000000000E+00 -0.36314257411E+03  0.36314257411E+03  0.00000000000E+00 0. -1.
         25    1    1    2    0    0 -0.64004299819E+02  0.28071258533E+03  0.17989523726E+03  0.36177811203E+03  0.12500000000E+03 0.  0.
         21    1    1    2  503  501  0.49897109286E+02  0.33745033616E+02 -0.96382266732E+02  0.11365733654E+03  0.00000000000E+00 0. -1.
         21    1    1    2  504  502  0.14107190533E+02 -0.31445761894E+03 -0.19014964006E+02  0.31534770618E+03  0.00000000000E+00 0. -1.
<mgrwt>
<rscale>  4 0.32155238E+03</rscale>
<asrwt>0</asrwt>
<pdfrwt beam="1">  1       21 0.65790859E-01 0.32155238E+03</pdfrwt>
<pdfrwt beam="2">  1       21 0.55868088E-01 0.32155238E+03</pdfrwt>
<totfact> 0.59356643E+03</totfact>
</mgrwt>
</event>
<event>
 5    0  0.1257040E+001  0.2864007E+03  0.7546771E-02  0.1092243E+00
         21   -1    0    0  502  501  0.00000000000E+00  0.00000000000E+00  0.89734562948E+02  0.89734562948E+02  0.00000000000E+00 0.  1.
         21   -1    0    0  504  502 -0.00000000000E+00 -0.00000000000E+00 -0.93382238557E+03  0.93382238557E+03  0.00000000000E+00 0.  1.
         25    1    1    2    0    0 -0.19168010109E+02  0.24925084974E+03 -0.50474478561E+03  0.57696247478E+03  0.12500000000E+03 0.  0.
         21    1    1    2  503  501  0.93595051230E+01  0.18633131959E+02 -0.14349441301E+02  0.25312060533E+02  0.00000000000E+00 0. -1.
         21    1    1    2  504  503  0.98085049862E+01 -0.26788398170E+03 -0.32499359571E+03  0.42128241320E+03  0.00000000000E+00 0.  1.
<mgrwt>
<rscale>  4 0.28640071E+03</rscale>
<asrwt>0</asrwt>
<pdfrwt beam="1">  1       21 0.13805318E-01 0.28640071E+03</pdfrwt>
<pdfrwt beam="2">  1       21 0.14366498E+00 0.28640071E+03</pdfrwt>
<totfact> 0.14437380E+04</totfact>
</mgrwt>
</event>
<event>
 5    0  0.1257040E+001  0.2488967E+03  0.7546771E-02  0.1114004E+00
         21   -1    0    0  502  501  0.00000000000E+00  0.00000000000E+00  0.71689443345E+02  0.71689443345E+02  0.00000000000E+00 0. -1.
         21   -1    0    0  504  502 -0.00000000000E+00 -0.00000000000E+00 -0.90158519487E+03  0.90158519487E+03  0.00000000000E+00 0. -1.
         25    1    1    2    0    0 -0.19762594854E+03 -0.35102968843E+02 -0.44364819728E+03  0.50272950670E+03  0.12500000000E+03 0.  0.
         21    1    1    2  503  501  0.22073789858E+03  0.41972291625E+02 -0.26737068610E+03  0.34924773002E+03  0.00000000000E+00 0. -1.
         21    1    1    2  504  503 -0.23111950042E+02 -0.68693227819E+01 -0.11887686814E+03  0.12129740149E+03  0.00000000000E+00 0.  1.
<mgrwt>
<rscale>  4 0.24889666E+03</rscale>
<asrwt>0</asrwt>
<pdfrwt beam="1">  1       21 0.11029145E-01 0.24889666E+03</pdfrwt>
<pdfrwt beam="2">  1       21 0.13870542E+00 0.24889666E+03</pdfrwt>
<totfact> 0.24198865E+04</totfact>
</mgrwt>
</event>
<event>
 5    0  0.1257040E+001  0.2224961E+03  0.7546771E-02  0.1132036E+00
         21   -1    0    0  502  501  0.00000000000E+00  0.00000000000E+00  0.15717803018E+03  0.15717803018E+03  0.00000000000E+00 0.  1.
         21   -1    0    0  504  502 -0.00000000000E+00 -0.00000000000E+00 -0.50972843208E+03  0.50972843208E+03  0.00000000000E+00 0.  1.
         25    1    1    2    0    0 -0.10623915714E+03  0.17097906561E+03 -0.34412652686E+03  0.41781415231E+03  0.12500000000E+03 0.  0.
         21    1    1    2  503  501  0.81001550187E+02 -0.11368125788E+02  0.21903156346E+02  0.84677232327E+02  0.00000000000E+00 0.  1.
         21    1    1    2  504  503  0.25237606949E+02 -0.15961093982E+03 -0.30327031385E+02  0.16441507762E+03  0.00000000000E+00 0.  1.
<mgrwt>
<rscale>  4 0.22249613E+03</rscale>
<asrwt>0</asrwt>
<pdfrwt beam="1">  1       21 0.24181236E-01 0.22249613E+03</pdfrwt>
<pdfrwt beam="2">  1       21 0.78419757E-01 0.22249613E+03</pdfrwt>
<totfact> 0.22826278E+04</totfact>
</mgrwt>
</event>
<event>
 5    0  0.1257040E+001  0.2744971E+03  0.7546771E-02  0.1098733E+00
         21   -1    0    0  502  501  0.00000000000E+00  0.00000000000E+00  0.69666075067E+02  0.69666075067E+02  0.00000000000E+00 0. -1.
         21   -1    0    0  504  502 -0.00000000000E+00 -0.00000000000E+00 -0.14684328342E+04  0.14684328342E+04  0.00000000000E+00 0.  1.
         25    1    1    2    0    0  0.22746506188E+03 -0.43029994753E+02 -0.10910123426E+04  0.11222855548E+04  0.12500000000E+03 0.  0.
         21    1    1    2  503  501 -0.23996869809E+03  0.62341608575E+02 -0.24327706911E+03  0.34735455169E+03  0.00000000000E+00 0. -1.
         21    1    1    2  504  503  0.12503636211E+02 -0.19311613822E+02 -0.64477347431E+02  0.68458802784E+02  0.00000000000E+00 0. -1.
<mgrwt>
<rscale>  4 0.27449713E+03</rscale>
<asrwt>0</asrwt>
<pdfrwt beam="1">  1       21 0.10717858E-01 0.27449713E+03</pdfrwt>
<pdfrwt beam="2">  1       21 0.22591275E+00 0.27449713E+03</pdfrwt>
<totfact> 0.62184303E+03</totfact>
</mgrwt>
</event>
<event>
 5    0  0.1257040E+001  0.2316556E+03  0.7546771E-02  0.1125480E+00
         21   -1    0    0  504  501  0.00000000000E+00  0.00000000000E+00  0.26896631751E+03  0.26896631751E+03  0.00000000000E+00 0.  1.
         21   -1    0    0  503  502 -0.00000000000E+00 -0.00000000000E+00 -0.31925239552E+03  0.31925239552E+03  0.00000000000E+00 0.  1.
         25    1    1    2    0    0  0.19646122732E+03  0.85331543611E+02 -0.19206634572E+03  0.31367653296E+03  0.12500000000E+03 0.  0.
         21    1    1    2  503  501 -0.27289856753E+02  0.47021600348E+01 -0.10655629674E+02  0.29671350397E+02  0.00000000000E+00 0.  1.
         21    1    1    2  504  502 -0.16917137057E+03 -0.90033703646E+02  0.15243589738E+03  0.24487082967E+03  0.00000000000E+00 0.  1.
<mgrwt>
<rscale>  4 0.23165555E+03</rscale>
<asrwt>0</asrwt>
<pdfrwt beam="1">  1       21 0.41379433E-01 0.23165555E+03</pdfrwt>
<pdfrwt beam="2">  1       21 0.49115753E-01 0.23165555E+03</pdfrwt>
<totfact> 0.21761211E+04</totfact>
</mgrwt>
</event>
<event>
 5    0  0.1257040E+001  0.2268579E+03  0.7546771E-02  0.1128871E+00
         21   -1    0    0  503  501  0.00000000000E+00  0.00000000000E+00  0.41621243333E+03  0.41621243333E+03  0.00000000000E+00 0.  1.
         21   -1    0    0  504  502 -0.00000000000E+00 -0.00000000000E+00 -0.73955413250E+03  0.73955413250E+03  0.00000000000E+00 0.  1.
         25    1    1    2    0    0 -0.15078463928E+03 -0.27499461042E+03 -0.18522960075E+01  0.33761882975E+03  0.12500000000E+03 0.  0.
         21    1    1    2  503  502  0.10217000657E+03  0.11380261018E+03 -0.52915146481E+03  0.55080941989E+03  0.00000000000E+00 0.  1.
         21    1    1    2  504  501  0.48614632703E+02  0.16119200024E+03  0.20766206165E+03  0.26733831619E+03  0.00000000000E+00 0.  1.
<mgrwt>
<rscale>  4 0.22685790E+03</rscale>
<asrwt>0</asrwt>
<pdfrwt beam="1">  1       21 0.64032683E-01 0.22685790E+03</pdfrwt>
<pdfrwt beam="2">  1       21 0.11377756E+00 0.22685790E+03</pdfrwt>
<totfact> 0.13128523E+03</totfact>
</mgrwt>
</event>
<event>
 5    0  0.1257040E+001  0.3103376E+03  0.7546771E-02  0.1080184E+00
         21   -1    0    0  503  501  0.00000000000E+00  0.00000000000E+00  0.31663809946E+03  0.31663809946E+03  0.00000000000E+00 0. -1.
         21   -1    0    0  504  502 -0.00000000000E+00 -0.00000000000E+00 -0.47751199210E+03  0.47751199210E+03  0.00000000000E+00 0. -1.
         25    1    1    2    0    0 -0.11100327267E+03  0.20883350461E+03  0.11844507834E+03  0.29255323580E+03  0.12500000000E+03 0.  0.
         21    1    1    2  503  502  0.13864586613E+03 -0.26359782000E+03 -0.31262942135E+03  0.43179120185E+03  0.00000000000E+00 0. -1.
         21    1    1    2  504  501 -0.27642593460E+02  0.54764315387E+02  0.33310450373E+02  0.69805653905E+02  0.00000000000E+00 0. -1.
<mgrwt>
<rscale>  4 0.31033762E+03</rscale>
<asrwt>0</asrwt>
<pdfrwt beam="1">  1       21 0.48713554E-01 0.31033762E+03</pdfrwt>
<pdfrwt beam="2">  1       21 0.73463383E-01 0.31033762E+03</pdfrwt>
<totfact> 0.62417601E+03</totfact>
</mgrwt>
</event>
<event>
 5    0  0.1257040E+001  0.2669208E+03  0.7546771E-02  0.1103055E+00
         21   -1    0    0  503  501  0.00000000000E+00  0.00000000000E+00  0.57856634122E+03  0.57856634122E+03  0.00000000000E+00 0. -1.
         21   -1    0    0  504  502 -0.00000000000E+00 -0.00000000000E+00 -0.13219515679E+03  0.13219515679E+03  0.00000000000E+00 0. -1.
         25    1    1    2    0    0 -0.22570600584E+03 -0.10677746721E+03  0.19597571149E+03  0.34113942615E+03  0.12500000000E+03 0.  0.
         21    1    1    2  503  502  0.20926104882E+02  0.72614609361E+01 -0.95007430413E+01  0.24101759247E+02  0.00000000000E+00 0. -1.
         21    1    1    2  504  501  0.20477990096E+03  0.99516006278E+02  0.25989621599E+03  0.34552031261E+03  0.00000000000E+00 0. -1.
<mgrwt>
<rscale>  4 0.26692078E+03</rscale>
<asrwt>0</asrwt>
<pdfrwt beam="1">  1       21 0.89010205E-01 0.26692078E+03</pdfrwt>
<pdfrwt beam="2">  1       21 0.20337717E-01 0.26692078E+03</pdfrwt>
<totfact> 0.23194193E+04</totfact>
</mgrwt>
</event>
<event>
 5    0  0.1257040E+001  0.2425884E+03  0.7546771E-02  0.1118080E+00
         21   -1    0    0  504  501  0.00000000000E+00  0.00000000000E+00  0.86958179473E+03  0.86958179473E+03  0.00000000000E+00 0. -1.
         21   -1    0    0  503  502 -0.00000000000E+00 -0.00000000000E+00 -0.13213625750E+03  0.13213625750E+03  0.00000000000E+00 0. -1.
         25    1    1    2    0    0 -0.19529881653E+03  0.58934701668E+02  0.20207728458E+02  0.24010056037E+03  0.12500000000E+03 0.  0.
         21    1    1    2  503  501  0.21862692189E+03 -0.57746650544E+02  0.58214168918E+03  0.62451689561E+03  0.00000000000E+00 0. -1.
         21    1    1    2  504  502 -0.23328105359E+02 -0.11880511240E+01  0.13509611959E+03  0.13710059625E+03  0.00000000000E+00 0.  1.
<mgrwt>
<rscale>  4 0.24258840E+03</rscale>
<asrwt>0</asrwt>
<pdfrwt beam="1">  1       21 0.13378181E+00 0.24258840E+03</pdfrwt>
<pdfrwt beam="2">  1       21 0.20328656E-01 0.24258840E+03</pdfrwt>
<totfact> 0.86951142E+03</totfact>
</mgrwt>
</event>
<event>
 5    0  0.1257040E+001  0.2265596E+03  0.7546771E-02  0.1129085E+00
         21   -1    0    0  502  501  0.00000000000E+00  0.00000000000E+00  0.99880785700E+02  0.99880785700E+02  0.00000000000E+00 0. -1.
         21   -1    0    0  504  502 -0.00000000000E+00 -0.00000000000E+00 -0.64229474332E+03  0.64229474332E+03  0.00000000000E+00 0.  1.
         25    1    1    2    0    0 -0.13467787016E+03  0.15058938241E+03 -0.19776476753E+03  0.30911356179E+03  0.12500000000E+03 0.  0.
         21    1    1    2  503  501  0.40617747621E+01 -0.21158295244E+02  0.16937032781E+02  0.27405009602E+02  0.00000000000E+00 0.  1.
         21    1    1    2  504  503  0.13061609540E+03 -0.12943108717E+03 -0.36158622287E+03  0.40565695763E+03  0.00000000000E+00 0.  1.
<mgrwt>
<rscale>  4 0.22655959E+03</rscale>
<asrwt>0</asrwt>
<pdfrwt beam="1">  1       21 0.15366275E-01 0.22655959E+03</pdfrwt>
<pdfrwt beam="2">  1       21 0.98814577E-01 0.22655959E+03</pdfrwt>
<totfact> 0.31122173E+04</totfact>
</mgrwt>
</event>
<event>
 5    0  0.1257040E+001  0.1925833E+03  0.7546771E-02  0.1156152E+00
         21   -1    0    0  504  501  0.00000000000E+00  0.00000000000E+00  0.63290657253E+03  0.63290657253E+03  0.00000000000E+00 0.  1.
         21   -1    0    0  503  502 -0.00000000000E+00 -0.00000000000E+00 -0.98216074505E+02  0.98216074505E+02  0.00000000000E+00 0.  1.
         25    1    1    2    0    0 -0.15689543687E+03 -0.12849636246E+03  0.24814482685E+03  0.34398887826E+03  0.12500000000E+03 0.  0.
         21    1    1    2  503  501  0.77840961295E+02  0.10326257241E+03  0.53841632268E+02  0.14007603464E+03  0.00000000000E+00 0.  1.
         21    1    1    2  504  502  0.79054475575E+02  0.25233790054E+02  0.23270403891E+03  0.24705773413E+03  0.00000000000E+00 0.  1.
<mgrwt>
<rscale>  4 0.19258331E+03</rscale>
<asrwt>0</asrwt>
<pdfrwt beam="1">  1       21 0.97370240E-01 0.19258331E+03</pdfrwt>
<pdfrwt beam="2">  1       21 0.15110166E-01 0.19258331E+03</pdfrwt>
<totfact> 0.33845650E+04</totfact>
</mgrwt>
</event>
<event>
 5    0  0.1257040E+001  0.2372988E+03  0.7546771E-02  0.1121605E+00
         21   -1    0    0  502  501  0.00000000000E+00  0.00000000000E+00  0.60443341144E+03  0.60443341144E+03  0.00000000000E+00 0. -1.
         21   -1    0    0  504  502 -0.00000000000E+00 -0.00000000000E+00 -0.18696386561E+03  0.18696386561E+03  0.00000000000E+00 0. -1.
         25    1    1    2    0    0  0.15560748795E+03 -0.12804503871E+03  0.24782504588E+03  0.34300360875E+03  0.12500000000E+03 0.  0.
         21    1    1    2  503  501 -0.42941934635E+02 -0.41498468225E+02  0.22875452595E+03  0.23642073884E+03  0.00000000000E+00 0. -1.
         21    1    1    2  504  503 -0.11266555332E+03  0.16954350694E+03 -0.59110025993E+02  0.21197292946E+03  0.00000000000E+00 0. -1.
<mgrwt>
<rscale>  4 0.23729882E+03</rscale>
<asrwt>0</asrwt>
<pdfrwt beam="1">  1       21 0.92989755E-01 0.23729882E+03</pdfrwt>
<pdfrwt beam="2">  1       21 0.28763672E-01 0.23729882E+03</pdfrwt>
<totfact> 0.10943253E+04</totfact>
</mgrwt>
</event>
<event>
 5    0  0.1257040E+001  0.2518666E+03  0.7546771E-02  0.1112131E+00
         21   -1    0    0  504  501  0.00000000000E+00  0.00000000000E+00  0.79591317141E+03  0.79591317141E+03  0.00000000000E+00 0.  1.
         21   -1    0    0  503  502 -0.00000000000E+00 -0.00000000000E+00 -0.10650563031E+03  0.10650563031E+03  0.00000000000E+00 0.  1.
         25    1    1    2    0    0  0.12713242488E+03 -0.17822028611E+03  0.16131925502E+03  0.29928920107E+03  0.12500000000E+03 0.  0.
         21    1    1    2  503  501 -0.21205688105E+02 -0.13366470600E+02 -0.61211006138E+01  0.25803325697E+02  0.00000000000E+00 0.  1.
         21    1    1    2  504  502 -0.10592673677E+03  0.19158675671E+03  0.53420938670E+03  0.57732627495E+03  0.00000000000E+00 0.  1.
<mgrwt>
<rscale>  4 0.25186658E+03</rscale>
<asrwt>0</asrwt>
<pdfrwt beam="1">  1       21 0.12244818E+00 0.25186658E+03</pdfrwt>
<pdfrwt beam="2">  1       21 0.16385482E-01 0.25186658E+03</pdfrwt>
<totfact> 0.16178387E+04</totfact>
</mgrwt>
</event>
<event>
 5    0  0.1257040E+001  0.3659542E+03  0.7546771E-02  0.1056251E+00
         21   -1    0    0  502  501  0.00000000000E+00  0.00000000000E+00  0.11079150514E+03  0.11079150514E+03  0.00000000000E+00 0. -1.
         21   -1    0    0  504  502 -0.00000000000E+00 -0.00000000000E+00 -0.15219808870E+04  0.15219808870E+04  0.00000000000E+00 0. -1.
         25    1    1    2    0    0 -0.31303745492E+03 -0.58176545240E+02 -0.48283482989E+03  0.59171904782E+03  0.12500000000E+03 0.  0.
         21    1    1    2  503  501 -0.38723572755E+02 -0.17069523183E+02  0.32186877591E+01  0.42441061008E+02  0.00000000000E+00 0. -1.
         21    1    1    2  504  503  0.35176102768E+03  0.75246068424E+02 -0.93157323977E+03  0.99861228335E+03  0.00000000000E+00 0. -1.
<mgrwt>
<rscale>  4 0.36595424E+03</rscale>
<asrwt>0</asrwt>
<pdfrwt beam="1">  1       21 0.17044849E-01 0.36595424E+03</pdfrwt>
<pdfrwt beam="2">  1       21 0.23415088E+00 0.36595424E+03</pdfrwt>
<totfact> 0.22398265E+03</totfact>
</mgrwt>
</event>
<event>
 5    0  0.1257040E+001  0.2294618E+03  0.7546771E-02  0.1127019E+00
         21   -1    0    0  502  501  0.00000000000E+00  0.00000000000E+00  0.30763141435E+03  0.30763141435E+03  0.00000000000E+00 0. -1.
         21   -1    0    0  504  502 -0.00000000000E+00 -0.00000000000E+00 -0.25065435434E+03  0.25065435434E+03  0.00000000000E+00 0.  1.
         25    1    1    2    0    0  0.20300637229E+03  0.75062448667E+02 -0.89270704565E+02  0.26540575933E+03  0.12500000000E+03 0.  0.
         21    1    1    2  503  501 -0.17470629575E+03 -0.66321797211E+02  0.17173939169E+03  0.25380167300E+03  0.00000000000E+00 0. -1.
         21    1    1    2  504  503 -0.28300076536E+02 -0.87406514560E+01 -0.25491627118E+02  0.39078336364E+02  0.00000000000E+00 0.  1.
<mgrwt>
<rscale>  4 0.22946176E+03</rscale>
<asrwt>0</asrwt>
<pdfrwt beam="1">  1       21 0.47327910E-01 0.22946176E+03</pdfrwt>
<pdfrwt beam="2">  1       21 0.38562208E-01 0.22946176E+03</pdfrwt>
<totfact> 0.27154361E+04</totfact>
</mgrwt>
</event>
<event>
 5    0  0.1257040E+001  0.2637670E+03  0.7546771E-02  0.1104901E+00
         21   -1    0    0  503  501  0.00000000000E+00  0.00000000000E+00  0.66666416927E+03  0.66666416927E+03  0.00000000000E+00 0.  1.
         21   -1    0    0  504  502 -0.00000000000E+00 -0.00000000000E+00 -0.16898677150E+03  0.16898677150E+03  0.00000000000E+00 0.  1.
         25    1    1    2    0    0 -0.45307990784E+02 -0.25242526707E+03  0.62605637220E+02  0.29208867711E+03  0.12500000000E+03 0.  0.
         21    1    1    2  503  502  0.11024229087E+03  0.17656443552E+03  0.20225036594E+03  0.29023020709E+03  0.00000000000E+00 0.  1.
         21    1    1    2  504  501 -0.64934300082E+02  0.75860831556E+02  0.23282139461E+03  0.25333205656E+03  0.00000000000E+00 0.  1.
<mgrwt>
<rscale>  4 0.26376702E+03</rscale>
<asrwt>0</asrwt>
<pdfrwt beam="1">  1       21 0.10256372E+00 0.26376702E+03</pdfrwt>
<pdfrwt beam="2">  1       21 0.25997965E-01 0.26376702E+03</pdfrwt>
<totfact> 0.10395803E+04</totfact>
</mgrwt>
</event>
<event>
 5    0  0.1257040E+001  0.3699550E+03  0.7546771E-02  0.1054710E+00
         21   -1    0    0  502  501  0.00000000000E+00  0.00000000000E+00  0.40063578933E+03  0.40063578933E+03  0.00000000000E+00 0.  1.
         21   -1    0    0  504  502 -0.00000000000E+00 -0.00000000000E+00 -0.63904482430E+03  0.63904482430E+03  0.00000000000E+00 0.  1.
         25    1    1    2    0    0 -0.14701027415E+03  0.34998240154E+03  0.10107947430E+03  0.41223993283E+03  0.12500000000E+03 0.  0.
         21    1    1    2  503  501  0.15685497171E+03 -0.27183994718E+03 -0.38360819969E+02  0.31618347766E+03  0.00000000000E+00 0.  1.
         21    1    1    2  504  503 -0.98446975597E+01 -0.78142454359E+02 -0.30112768930E+03  0.31125720314E+03  0.00000000000E+00 0. -1.
<mgrwt>
<rscale>  4 0.36995502E+03</rscale>
<asrwt>0</asrwt>
<pdfrwt beam="1">  1       21 0.61636276E-01 0.36995502E+03</pdfrwt>
<pdfrwt beam="2">  1       21 0.98314588E-01 0.36995502E+03</pdfrwt>
<totfact> 0.18610297E+03</totfact>
</mgrwt>
</event>
<event>
 5    0  0.1257040E+001  0.2706784E+03  0.7546771E-02  0.1100892E+00
         21   -1    0    0  503  501  0.00000000000E+00  0.00000000000E+00  0.90854603599E+03  0.90854603599E+03  0.00000000000E+00 0.  1.
         21   -1    0    0  504  502 -0.00000000000E+00 -0.00000000000E+00 -0.19082613876E+03  0.19082613876E+03  0.00000000000E+00 0.  1.
         25    1    1    2    0    0  0.22822440949E+03  0.94717382563E+02  0.70071164126E+03  0.75344513261E+03  0.12500000000E+03 0.  0.
         21    1    1    2  503  502 -0.59162474016E+02  0.59540740542E+02 -0.61411430959E+02  0.10400318249E+03  0.00000000000E+00 0.  1.
         21    1    1    2  504  501 -0.16906193547E+03 -0.15425812310E+03  0.78419686928E+02  0.24192385965E+03  0.00000000000E+00 0.  1.
<mgrwt>
<rscale>  4 0.27067840E+03</rscale>
<asrwt>0</asrwt>
<pdfrwt beam="1">  1       21 0.13977631E+00 0.27067840E+03</pdfrwt>
<pdfrwt beam="2">  1       21 0.29357868E-01 0.27067840E+03</pdfrwt>
<totfact> 0.37688214E+03</totfact>
</mgrwt>
</event>
<event>
 5    0  0.1257040E+001  0.3158439E+03  0.7546771E-02  0.1077578E+00
         21   -1    0    0  502  501  0.00000000000E+00  0.00000000000E+00  0.25393923471E+03  0.25393923471E+03  0.00000000000E+00 0. -1.
         21   -1    0    0  504  502 -0.00000000000E+00 -0.00000000000E+00 -0.42454712066E+03  0.42454712066E+03  0.00000000000E+00 0. -1.
         25    1    1    2    0    0  0.24249460089E+03 -0.18296433965E+03 -0.97440428175E+02  0.34263569296E+03  0.12500000000E+03 0.  0.
         21    1    1    2  503  501 -0.22465105866E+03  0.16571783102E+03 -0.10254125801E+03  0.29739738948E+03  0.00000000000E+00 0. -1.
         21    1    1    2  504  503 -0.17843542226E+02  0.17246508629E+02  0.29373800230E+02  0.38453272930E+02  0.00000000000E+00 0.  1.
<mgrwt>
<rscale>  4 0.31584391E+03</rscale>
<asrwt>0</asrwt>
<pdfrwt beam="1">  1       21 0.39067575E-01 0.31584391E+03</pdfrwt>
<pdfrwt beam="2">  1       21 0.65314941E-01 0.31584391E+03</pdfrwt>
<totfact> 0.12773587E+04</totfact>
</mgrwt>
</event>
