<event>
 5    0  0.1943430E+001  0.2830617E+03  0.7546771E-02  0.1094028E+00
         21   -1    0    0  503  501  0.00000000000E+00  0.00000000000E+00  0.36015644676E+03  0.36015644676E+03  0.00000000000E+00 0. -1.
         21   -1    0    0  504  502 -0.00000000000E+00 -0.00000000000E+00 -0.34373337648E+03  0.34373337648E+03  0.00000000000E+00 0.  1.
         25    1    1    2    0    0 -0.12547241145E+03 -0.21097298465E+03  0.14014002915E+03  0.30905849618E+03  0.12500000000E+03 0.  0.
         21    1    1    2  503  502 -0.41662238999E+02 -0.72009285032E-01 -0.11845710063E+03  0.12557002840E+03  0.00000000000E+00 0.  1.
         21    1    1    2  504  501  0.16713465045E+03  0.21104499394E+03 -0.52598582485E+01  0.26926129866E+03  0.00000000000E+00 0. -1.
<mgrwt>
<rscale>  4 0.28306172E+03</rscale>
<asrwt>0</asrwt>
<pdfrwt beam="1">  1       21 0.55408684E-01 0.28306172E+03</pdfrwt>
<pdfrwt beam="2">  1       21 0.52882058E-01 0.28306172E+03</pdfrwt>
<totfact> 0.98711269E+03</totfact>
</mgrwt>
</event>
<event>
 5    0  0.1943430E+001  0.2643188E+03  0.7546771E-02  0.1104576E+00
         21   -1    0    0  504  501  0.00000000000E+00  0.00000000000E+00  0.18866771609E+03  0.18866771609E+03  0.00000000000E+00 0.  1.
         21   -1    0    0  501  502 -0.00000000000E+00 -0.00000000000E+00 -0.57610443970E+03  0.57610443970E+03  0.00000000000E+00 0. -1.
         25    1    1    2    0    0 -0.13201566350E+03 -0.15353687927E+03 -0.45410984315E+02  0.24225785065E+03  0.12500000000E+03 0.  0.
         21    1    1    2  503  502 -0.57820907221E+02 -0.62927328073E+02 -0.16140926068E+03  0.18263640207E+03  0.00000000000E+00 0. -1.
         21    1    1    2  504  503  0.18983657072E+03  0.21646420734E+03 -0.18061647862E+03  0.33987790307E+03  0.00000000000E+00 0.  1.
<mgrwt>
<rscale>  4 0.26431881E+03</rscale>
<asrwt>0</asrwt>
<pdfrwt beam="1">  1       21 0.29025803E-01 0.26431881E+03</pdfrwt>
<pdfrwt beam="2">  1       21 0.88631451E-01 0.26431881E+03</pdfrwt>
<totfact> 0.11852057E+04</totfact>
</mgrwt>
</event>
<event>
 5    0  0.1943430E+001  0.2565402E+03  0.7546771E-02  0.1109240E+00
         21   -1    0    0  503  501  0.00000000000E+00  0.00000000000E+00  0.44324184995E+03  0.44324184995E+03  0.00000000000E+00 0.  1.
         21   -1    0    0  504  502 -0.00000000000E+00 -0.00000000000E+00 -0.25306362338E+03  0.25306362338E+03  0.00000000000E+00 0.  1.
         25    1    1    2    0    0 -0.15752564535E+03  0.15929077544E+03  0.33370187476E+03  0.42091545624E+03  0.12500000000E+03 0.  0.
         21    1    1    2  503  502  0.11977419386E+02 -0.27398003330E+02  0.34097964646E+01  0.30095446060E+02  0.00000000000E+00 0.  1.
         21    1    1    2  504  501  0.14554822597E+03 -0.13189277211E+03 -0.14693344465E+03  0.24529457102E+03  0.00000000000E+00 0.  1.
<mgrwt>
<rscale>  4 0.25654021E+03</rscale>
<asrwt>0</asrwt>
<pdfrwt beam="1">  1       21 0.68191054E-01 0.25654021E+03</pdfrwt>
<pdfrwt beam="2">  1       21 0.38932865E-01 0.25654021E+03</pdfrwt>
<totfact> 0.12019294E+04</totfact>
</mgrwt>
</event>
<event>
 5    0  0.1943430E+001  0.3320450E+03  0.7546771E-02  0.1070236E+00
         21   -1    0    0  503  501  0.00000000000E+00  0.00000000000E+00  0.51485808781E+03  0.51485808781E+03  0.00000000000E+00 0. -1.
         21   -1    0    0  504  502 -0.00000000000E+00 -0.00000000000E+00 -0.57099459198E+03  0.57099459198E+03  0.00000000000E+00 0. -1.
         25    1    1    2    0    0 -0.18293316857E+03  0.23719718487E+03  0.60941270945E+02  0.33025124856E+03  0.12500000000E+03 0.  0.
         21    1    1    2  503  502  0.17404385699E+03 -0.25948524668E+03  0.24232086399E+03  0.39540265367E+03  0.00000000000E+00 0. -1.
         21    1    1    2  504  501  0.88893115793E+01  0.22288061810E+02 -0.35939863910E+03  0.36019877755E+03  0.00000000000E+00 0. -1.
<mgrwt>
<rscale>  4 0.33204499E+03</rscale>
<asrwt>0</asrwt>
<pdfrwt beam="1">  1       21 0.79208937E-01 0.33204499E+03</pdfrwt>
<pdfrwt beam="2">  1       21 0.87845321E-01 0.33204499E+03</pdfrwt>
<totfact> 0.14128439E+03</totfact>
</mgrwt>
</event>
<event>
 5    0  0.1943430E+001  0.3615287E+03  0.7546771E-02  0.1057980E+00
         21   -1    0    0  503  501  0.00000000000E+00  0.00000000000E+00  0.11241866921E+04  0.11241866921E+04  0.00000000000E+00 0. -1.
         21   -1    0    0  504  502 -0.00000000000E+00 -0.00000000000E+00 -0.58009960856E+03  0.58009960856E+03  0.00000000000E+00 0. -1.
         25    1    1    2    0    0  0.33480654895E+03  0.11093293164E+02  0.83397072559E+03  0.90738671884E+03  0.12500000000E+03 0.  0.
         21    1    1    2  503  502 -0.37958182836E+03 -0.22988357831E+03 -0.35050485764E+03  0.56549312925E+03  0.00000000000E+00 0. -1.
         21    1    1    2  504  501  0.44775279415E+02  0.21879028515E+03  0.60621215597E+02  0.23140645259E+03  0.00000000000E+00 0. -1.
<mgrwt>
<rscale>  4 0.36152869E+03</rscale>
<asrwt>0</asrwt>
<pdfrwt beam="1">  1       21 0.17295180E+00 0.36152869E+03</pdfrwt>
<pdfrwt beam="2">  1       21 0.89246094E-01 0.36152869E+03</pdfrwt>
<totfact> 0.18633855E+02</totfact>
</mgrwt>
</event>
<event>
 5    0  0.1943430E+001  0.2663650E+03  0.7546771E-02  0.1103378E+00
         21   -1    0    0  503  501  0.00000000000E+00  0.00000000000E+00  0.12939466524E+04  0.12939466524E+04  0.00000000000E+00 0.  1.
         21   -1    0    0  504  502 -0.00000000000E+00 -0.00000000000E+00 -0.13068453791E+03  0.13068453791E+03  0.00000000000E+00 0.  1.
         25    1    1    2    0    0 -0.13095458062E+03  0.24565971844E+03  0.85009705487E+03  0.90320972213E+03  0.12500000000E+03 0.  0.
         21    1    1    2  503  502 -0.59012013849E+02 -0.16173936189E+03  0.37368858468E+02  0.17617738376E+03  0.00000000000E+00 0.  1.
         21    1    1    2  504  501  0.18996659447E+03 -0.83920356552E+02  0.27579620114E+03  0.34524408441E+03  0.00000000000E+00 0.  1.
<mgrwt>
<rscale>  4 0.26636502E+03</rscale>
<asrwt>0</asrwt>
<pdfrwt beam="1">  1       21 0.19906871E+00 0.26636502E+03</pdfrwt>
<pdfrwt beam="2">  1       21 0.20105314E-01 0.26636502E+03</pdfrwt>
<totfact> 0.29220661E+03</totfact>
</mgrwt>
</event>
<event>
 5    0  0.1943430E+001  0.2400986E+03  0.7546771E-02  0.1119727E+00
         21   -1    0    0  504  501  0.00000000000E+00  0.00000000000E+00  0.14911919421E+04  0.14911919421E+04  0.00000000000E+00 0.  1.
         21   -1    0    0  501  502 -0.00000000000E+00 -0.00000000000E+00 -0.44440341724E+02  0.44440341724E+02  0.00000000000E+00 0.  1.
         25    1    1    2    0    0  0.17524501824E+02  0.20424307303E+03  0.10795376599E+04  0.11059154127E+04  0.12500000000E+03 0.  0.
         21    1    1    2  503  502  0.20875433120E+02 -0.93592449128E+02  0.10311852517E+03  0.14081463161E+03  0.00000000000E+00 0.  1.
         21    1    1    2  504  503 -0.38399934944E+02 -0.11065062390E+03  0.26409541531E+03  0.28890223946E+03  0.00000000000E+00 0.  1.
<mgrwt>
<rscale>  4 0.24009861E+03</rscale>
<asrwt>0</asrwt>
<pdfrwt beam="1">  1       21 0.22941411E+00 0.24009861E+03</pdfrwt>
<pdfrwt beam="2">  1       21 0.68369768E-02 0.24009861E+03</pdfrwt>
<totfact> 0.13373495E+04</totfact>
</mgrwt>
</event>
<event>
 5    0  0.1943430E+001  0.2517124E+03  0.7546771E-02  0.1112227E+00
         21   -1    0    0  503  501  0.00000000000E+00  0.00000000000E+00  0.71424270621E+03  0.71424270621E+03  0.00000000000E+00 0. -1.
         21   -1    0    0  504  502 -0.00000000000E+00 -0.00000000000E+00 -0.57329057944E+03  0.57329057944E+03  0.00000000000E+00 0. -1.
         25    1    1    2    0    0  0.12617510599E+03  0.16778745280E+03  0.51910951565E+03  0.57373554529E+03  0.12500000000E+03 0.  0.
         21    1    1    2  503  502  0.21270355721E+03 -0.64378010101E+02 -0.25604997023E+03  0.33904117551E+03  0.00000000000E+00 0. -1.
         21    1    1    2  504  501 -0.33887866320E+03 -0.10340944270E+03 -0.12210741865E+03  0.37475656485E+03  0.00000000000E+00 0. -1.
<mgrwt>
<rscale>  4 0.25171241E+03</rscale>
<asrwt>0</asrwt>
<pdfrwt beam="1">  1       21 0.10988349E+00 0.25171241E+03</pdfrwt>
<pdfrwt beam="2">  1       21 0.88198550E-01 0.25171241E+03</pdfrwt>
<totfact> 0.68164296E+02</totfact>
</mgrwt>
</event>
<event>
 5    0  0.1943430E+001  0.3416185E+03  0.7546771E-02  0.1066109E+00
         21   -1    0    0  504  501  0.00000000000E+00  0.00000000000E+00  0.20071383992E+04  0.20071383992E+04  0.00000000000E+00 0. -1.
         21   -1    0    0  501  502 -0.00000000000E+00 -0.00000000000E+00 -0.69466596538E+02  0.69466596538E+02  0.00000000000E+00 0. -1.
         25    1    1    2    0    0 -0.27207183251E+03  0.13850513212E+03  0.11657430046E+04  0.12115232175E+04  0.12500000000E+03 0.  0.
         21    1    1    2  503  502 -0.33475343338E+02  0.58484575548E+01  0.17059804204E+02  0.38024202646E+02  0.00000000000E+00 0. -1.
         21    1    1    2  504  503  0.30554717585E+03 -0.14435358967E+03  0.75486899384E+03  0.82705757561E+03  0.00000000000E+00 0. -1.
<mgrwt>
<rscale>  4 0.34161855E+03</rscale>
<asrwt>0</asrwt>
<pdfrwt beam="1">  1       21 0.30879048E+00 0.34161855E+03</pdfrwt>
<pdfrwt beam="2">  1       21 0.10687170E-01 0.34161855E+03</pdfrwt>
<totfact> 0.19030372E+03</totfact>
</mgrwt>
</event>
<event>
 5    0  0.1943430E+001  0.2527993E+03  0.7546771E-02  0.1111548E+00
         21   -1    0    0  503  501  0.00000000000E+00  0.00000000000E+00  0.29882870694E+03  0.29882870694E+03  0.00000000000E+00 0.  1.
         21   -1    0    0  504  502 -0.00000000000E+00 -0.00000000000E+00 -0.58185050069E+03  0.58185050069E+03  0.00000000000E+00 0.  1.
         25    1    1    2    0    0  0.21611943957E+03 -0.21594823729E+02  0.19181848039E+03  0.31558402684E+03  0.12500000000E+03 0.  0.
         21    1    1    2  503  502  0.11554220722E+02 -0.61928276599E+02 -0.11580798010E+03  0.13183360616E+03  0.00000000000E+00 0.  1.
         21    1    1    2  504  501 -0.22767366030E+03  0.83523100328E+02 -0.35903229405E+03  0.43326157463E+03  0.00000000000E+00 0.  1.
<mgrwt>
<rscale>  4 0.25279933E+03</rscale>
<asrwt>0</asrwt>
<pdfrwt beam="1">  1       21 0.45973647E-01 0.25279933E+03</pdfrwt>
<pdfrwt beam="2">  1       21 0.89515462E-01 0.25279933E+03</pdfrwt>
<totfact> 0.46215062E+03</totfact>
</mgrwt>
</event>
<event>
 5    0  0.1943430E+001  0.3345096E+03  0.7546771E-02  0.1069159E+00
         21   -1    0    0  502  501  0.00000000000E+00  0.00000000000E+00  0.57148398178E+03  0.57148398178E+03  0.00000000000E+00 0. -1.
         21   -1    0    0  503  502 -0.00000000000E+00 -0.00000000000E+00 -0.94115538043E+03  0.94115538043E+03  0.00000000000E+00 0. -1.
         25    1    1    2    0    0  0.31264949861E+03  0.23356224379E+03  0.34518577900E+03  0.53579777223E+03  0.12500000000E+03 0.  0.
         21    1    1    2  503  504 -0.13062228830E+03 -0.10322805955E+03 -0.73353072939E+03  0.75218717447E+03  0.00000000000E+00 0. -1.
         21    1    1    2  504  501 -0.18202721030E+03 -0.13033418423E+03  0.18673551744E+02  0.22465441551E+03  0.00000000000E+00 0. -1.
<mgrwt>
<rscale>  4 0.33450961E+03</rscale>
<asrwt>0</asrwt>
<pdfrwt beam="1">  1       21 0.87920613E-01 0.33450961E+03</pdfrwt>
<pdfrwt beam="2">  1       21 0.14479314E+00 0.33450961E+03</pdfrwt>
<totfact> 0.32019614E+02</totfact>
</mgrwt>
</event>
