<event>
 5    0  0.2349231E+000  0.4262963E+03  0.7546771E-02  0.1035036E+00
         21   -1    0    0  502  501  0.00000000000E+00  0.00000000000E+00  0.40392392872E+03  0.40392392872E+03  0.00000000000E+00 0.  1.
         21   -1    0    0  503  502 -0.00000000000E+00 -0.00000000000E+00 -0.28900567918E+03  0.28900567918E+03  0.00000000000E+00 0.  1.
         25    1    1    2    0    0  0.12689676329E+03 -0.16881545072E+03  0.49693022137E+01  0.24546107411E+03  0.12500000000E+03 0.  0.
         21    1    1    2  503  504 -0.10893345199E+03  0.10399113302E+03 -0.12957924286E+03  0.19867418778E+03  0.00000000000E+00 0.  1.
         21    1    1    2  504  501 -0.17963311306E+02  0.64824317699E+02  0.23952819018E+03  0.24879434602E+03  0.00000000000E+00 0.  1.
<mgrwt>
<rscale>  4 0.42629625E+03</rscale>
<asrwt>0</asrwt>
<pdfrwt beam="1">  1       21 0.62142143E-01 0.42629625E+03</pdfrwt>
<pdfrwt beam="2">  1       21 0.44462412E-01 0.42629625E+03</pdfrwt>
<totfact> 0.10496889E+04</totfact>
</mgrwt>
</event>
<event>
 5    0  0.2349231E+000  0.4326290E+03  0.7546771E-02  0.1033033E+00
         21   -1    0    0  502  501  0.00000000000E+00  0.00000000000E+00  0.50304913477E+03  0.50304913477E+03  0.00000000000E+00 0.  1.
         21   -1    0    0  504  502 -0.00000000000E+00 -0.00000000000E+00 -0.28984603123E+03  0.28984603123E+03  0.00000000000E+00 0.  1.
         25    1    1    2    0    0 -0.13054257056E+03  0.15332585644E+03  0.56742280692E+01  0.23708095210E+03  0.12500000000E+03 0.  0.
         21    1    1    2  503  501  0.37243425265E+02 -0.13819668135E+02  0.33980777466E+03  0.34212187839E+03  0.00000000000E+00 0.  1.
         21    1    1    2  504  503  0.93299145299E+02 -0.13950618831E+03 -0.13227889919E+03  0.21369233552E+03  0.00000000000E+00 0.  1.
<mgrwt>
<rscale>  4 0.43262896E+03</rscale>
<asrwt>0</asrwt>
<pdfrwt beam="1">  1       21 0.77392175E-01 0.43262896E+03</pdfrwt>
<pdfrwt beam="2">  1       21 0.44591697E-01 0.43262896E+03</pdfrwt>
<totfact> 0.63599554E+03</totfact>
</mgrwt>
</event>
<event>
 5    0  0.2349231E+000  0.4104288E+03  0.7546771E-02  0.1040227E+00
         21   -1    0    0  502  501  0.00000000000E+00  0.00000000000E+00  0.27346473541E+03  0.27346473541E+03  0.00000000000E+00 0. -1.
         21   -1    0    0  503  502 -0.00000000000E+00 -0.00000000000E+00 -0.59063089032E+03  0.59063089032E+03  0.00000000000E+00 0. -1.
         25    1    1    2    0    0  0.13236674353E+03 -0.18063536665E+03 -0.29702058558E+03  0.39242364702E+03  0.12500000000E+03 0.  0.
         21    1    1    2  503  504 -0.10041238943E+03  0.11523486910E+03 -0.21492743334E+03  0.26373381393E+03  0.00000000000E+00 0. -1.
         21    1    1    2  504  501 -0.31954354098E+02  0.65400497558E+02  0.19478186401E+03  0.20793816478E+03  0.00000000000E+00 0. -1.
<mgrwt>
<rscale>  4 0.41042885E+03</rscale>
<asrwt>0</asrwt>
<pdfrwt beam="1">  1       21 0.42071498E-01 0.41042885E+03</pdfrwt>
<pdfrwt beam="2">  1       21 0.90866291E-01 0.41042885E+03</pdfrwt>
<totfact> 0.49768918E+03</totfact>
</mgrwt>
</event>
