<event>
 5    0  0.1911311E+001  0.3804885E+03  0.7546771E-02  0.1050753E+00
         21   -1    0    0  504  501  0.00000000000E+00  0.00000000000E+00  0.22245305617E+04  0.22245305617E+04  0.00000000000E+00 0. -1.
         21   -1    0    0  503  502 -0.00000000000E+00 -0.00000000000E+00 -0.84578883983E+02  0.84578883983E+02  0.00000000000E+00 0. -1.
         25    1    1    2    0    0  0.35567525317E+03  0.63495730165E+02  0.62995804776E+03  0.73689126430E+03  0.12500000000E+03 0.  0.
         21    1    1    2  503  501  0.18444343003E+01 -0.31095340134E+02  0.14714751414E+02  0.34450631708E+02  0.00000000000E+00 0.  1.
         21    1    1    2  504  502 -0.35751968747E+03 -0.32400390031E+02  0.14952788786E+04  0.15377675497E+04  0.00000000000E+00 0. -1.
<mgrwt>
<rscale>  4 0.38048853E+03</rscale>
<asrwt>0</asrwt>
<pdfrwt beam="1">  1       21 0.34223543E+00 0.38048853E+03</pdfrwt>
<pdfrwt beam="2">  1       21 0.13012138E-01 0.38048853E+03</pdfrwt>
<totfact> 0.81733155E+02</totfact>
</mgrwt>
</event>
<event>
 5    0  0.1911311E+001  0.2572151E+03  0.7546771E-02  0.1108828E+00
         21   -1    0    0  502  501  0.00000000000E+00  0.00000000000E+00  0.40375100502E+03  0.40375100502E+03  0.00000000000E+00 0. -1.
         21   -1    0    0  504  502 -0.00000000000E+00 -0.00000000000E+00 -0.39207710589E+03  0.39207710589E+03  0.00000000000E+00 0. -1.
         25    1    1    2    0    0 -0.18384393805E+03  0.84505712934E+02 -0.26820461268E+03  0.35846690690E+03  0.12500000000E+03 0.  0.
         21    1    1    2  503  501  0.20368021628E+03 -0.10117001174E+03  0.31819239300E+03  0.39111047127E+03  0.00000000000E+00 0. -1.
         21    1    1    2  504  503 -0.19836278225E+02  0.16664298806E+02 -0.38313881181E+02  0.46250732747E+02  0.00000000000E+00 0. -1.
<mgrwt>
<rscale>  4 0.25721511E+03</rscale>
<asrwt>0</asrwt>
<pdfrwt beam="1">  1       21 0.62115539E-01 0.25721511E+03</pdfrwt>
<pdfrwt beam="2">  1       21 0.60319555E-01 0.25721511E+03</pdfrwt>
<totfact> 0.58992839E+03</totfact>
</mgrwt>
</event>
<event>
 5    0  0.1911311E+001  0.3673003E+03  0.7546771E-02  0.1055730E+00
         21   -1    0    0  504  501  0.00000000000E+00  0.00000000000E+00  0.16255060821E+03  0.16255060821E+03  0.00000000000E+00 0.  1.
         21   -1    0    0  503  502 -0.00000000000E+00 -0.00000000000E+00 -0.22367320575E+04  0.22367320575E+04  0.00000000000E+00 0.  1.
         25    1    1    2    0    0 -0.33112975040E+03  0.14987540784E+03 -0.17409918580E+04  0.17829153651E+04  0.12500000000E+03 0.  0.
         21    1    1    2  503  501  0.64591309264E+01 -0.38064113335E+02 -0.26308123271E+03  0.26589910135E+03  0.00000000000E+00 0.  1.
         21    1    1    2  504  502  0.32467061948E+03 -0.11181129450E+03 -0.70108358536E+02  0.35046819922E+03  0.00000000000E+00 0.  1.
<mgrwt>
<rscale>  4 0.36730029E+03</rscale>
<asrwt>0</asrwt>
<pdfrwt beam="1">  1       21 0.25007785E-01 0.36730029E+03</pdfrwt>
<pdfrwt beam="2">  1       21 0.34411263E+00 0.36730029E+03</pdfrwt>
<totfact> 0.23554594E+02</totfact>
</mgrwt>
</event>
<event>
 5    0  0.3357529E+001  0.3165676E+03  0.7546771E-02  0.1077240E+00
         21   -1    0    0  504  501  0.00000000000E+00  0.00000000000E+00  0.69451816824E+02  0.69451816824E+02  0.00000000000E+00 0.  1.
         21   -1    0    0  503  502 -0.00000000000E+00 -0.00000000000E+00 -0.17770173800E+04  0.17770173800E+04  0.00000000000E+00 0.  1.
         25    1    1    2    0    0  0.30561846067E+03 -0.30768944571E+02 -0.56360048560E+03  0.65392650873E+03  0.12500000000E+03 0.  0.
         21    1    1    2  503  501 -0.28361229218E+03  0.22346800561E+02 -0.11297602177E+04  0.11650293821E+04  0.00000000000E+00 0.  1.
         21    1    1    2  504  502 -0.22006168491E+02  0.84221440102E+01 -0.14204859932E+02  0.27513306000E+02  0.00000000000E+00 0. -1.
<mgrwt>
<rscale>  4 0.31656764E+03</rscale>
<asrwt>0</asrwt>
<pdfrwt beam="1">  1       21 0.10684897E-01 0.31656764E+03</pdfrwt>
<pdfrwt beam="2">  1       21 0.27338723E+00 0.31656764E+03</pdfrwt>
<totfact> 0.31420928E+03</totfact>
</mgrwt>
</event>
<event>
 5    0  0.3244956E+001  0.2458543E+03  0.7546771E-02  0.1115953E+00
         21   -1    0    0  503  501  0.00000000000E+00  0.00000000000E+00  0.63706738077E+03  0.63706738077E+03  0.00000000000E+00 0.  1.
         21   -1    0    0  504  502 -0.00000000000E+00 -0.00000000000E+00 -0.17772426766E+03  0.17772426766E+03  0.00000000000E+00 0. -1.
         25    1    1    2    0    0 -0.15787956511E+03 -0.16703320506E+03  0.36189321683E+03  0.44656214468E+03  0.12500000000E+03 0.  0.
         21    1    1    2  503  502  0.13973239418E+03  0.15421620896E+03 -0.54130190937E+02  0.21502990178E+03  0.00000000000E+00 0. -1.
         21    1    1    2  504  501  0.18147170930E+02  0.12816996108E+02  0.15158008723E+03  0.15319960197E+03  0.00000000000E+00 0. -1.
<mgrwt>
<rscale>  4 0.24585433E+03</rscale>
<asrwt>0</asrwt>
<pdfrwt beam="1">  1       21 0.98010365E-01 0.24585433E+03</pdfrwt>
<pdfrwt beam="2">  1       21 0.27342195E-01 0.24585433E+03</pdfrwt>
<totfact> 0.10616060E+04</totfact>
</mgrwt>
</event>
