<event>
 5    0  0.4115852E+000  0.3012757E+03  0.7546771E-02  0.1084605E+00
         21   -1    0    0  503  502  0.00000000000E+00  0.00000000000E+00  0.10906931741E+04  0.10906931741E+04  0.00000000000E+00 0.  1.
          1   -1    0    0  502    0 -0.00000000000E+00 -0.00000000000E+00 -0.24479087603E+04  0.24479087603E+04  0.00000000000E+00 0. -1.
         25    1    1    2    0    0  0.95478744844E+02  0.33050983653E+03 -0.59721688640E+02  0.37087008892E+03  0.12500000000E+03 0.  0.
         21    1    1    2  503  501  0.58001771576E+01 -0.79658928178E+02  0.92519727902E+03  0.92863835372E+03  0.00000000000E+00 0.  1.
          1    1    1    2  501    0 -0.10127892200E+03 -0.25085090835E+03 -0.22226911766E+04  0.22390934917E+04  0.00000000000E+00 0. -1.
<mgrwt>
<rscale>  4 0.30127568E+03</rscale>
<asrwt>0</asrwt>
<pdfrwt beam="1">  1       21 0.16779895E+00 0.30127568E+03</pdfrwt>
<pdfrwt beam="2">  1        1 0.37660135E+00 0.30127568E+03</pdfrwt>
<totfact> 0.38603843E+00</totfact>
</mgrwt>
</event>
<event>
 5    0  0.4115852E+000  0.2204829E+03  0.7546771E-02  0.1133524E+00
         21   -1    0    0  503  502  0.00000000000E+00  0.00000000000E+00  0.12352821080E+03  0.12352821080E+03  0.00000000000E+00 0.  1.
          2   -1    0    0  502    0 -0.00000000000E+00 -0.00000000000E+00 -0.65214866753E+03  0.65214866753E+03  0.00000000000E+00 0.  1.
         25    1    1    2    0    0 -0.48010269139E+02  0.20447929718E+03 -0.21983965517E+03  0.32874190926E+03  0.12500000000E+03 0.  0.
         21    1    1    2  503  501  0.14064212564E+00 -0.39962260844E+02  0.41117173401E+02  0.57337806206E+02  0.00000000000E+00 0.  1.
          2    1    1    2  501    0  0.47869627014E+02 -0.16451703634E+03 -0.34989797495E+03  0.38959716286E+03  0.00000000000E+00 0.  1.
<mgrwt>
<rscale>  4 0.22048288E+03</rscale>
<asrwt>0</asrwt>
<pdfrwt beam="1">  1       21 0.19004340E-01 0.22048288E+03</pdfrwt>
<pdfrwt beam="2">  1        2 0.10033056E+00 0.22048288E+03</pdfrwt>
<totfact> 0.14522872E+04</totfact>
</mgrwt>
</event>
<event>
 5    0  0.4115852E+000  0.2381997E+03  0.7546771E-02  0.1120998E+00
         -1   -1    0    0    0  501 -0.00000000000E+00  0.00000000000E+00  0.45050249672E+03  0.45050249672E+03  0.00000000000E+00 0.  1.
         21   -1    0    0  501  502  0.00000000000E+00 -0.00000000000E+00 -0.16989195199E+03  0.16989195199E+03  0.00000000000E+00 0.  1.
         25    1    1    2    0    0  0.22051850972E+03 -0.28827866328E+02  0.11648358427E+03  0.28045121574E+03  0.12500000000E+03 0.  0.
         21    1    1    2  503  502 -0.26735986231E+02  0.21709198520E+02 -0.43739462103E+02  0.55670843403E+02  0.00000000000E+00 0.  1.
         -1    1    1    2    0  503 -0.19378252348E+03  0.71186678074E+01  0.20786642256E+03  0.28427238956E+03  0.00000000000E+00 0.  1.
<mgrwt>
<rscale>  4 0.23819972E+03</rscale>
<asrwt>0</asrwt>
<pdfrwt beam="1">  1       21 0.26137223E-01 0.23819972E+03</pdfrwt>
<pdfrwt beam="2">  1       -1 0.69308076E-01 0.23819972E+03</pdfrwt>
<totfact> 0.27996846E+03</totfact>
</mgrwt>
</event>
<event>
 5    0  0.4115852E+000  0.3925582E+03  0.7546771E-02  0.1046387E+00
          2   -1    0    0  502    0 -0.00000000000E+00  0.00000000000E+00  0.21694083924E+04  0.21694083924E+04  0.00000000000E+00 0.  1.
         21   -1    0    0  503  502  0.00000000000E+00 -0.00000000000E+00 -0.97331534433E+02  0.97331534433E+02  0.00000000000E+00 0.  1.
         25    1    1    2    0    0  0.30123643516E+03 -0.17551862003E+03  0.63224972899E+03  0.73274476843E+03  0.12500000000E+03 0.  0.
         21    1    1    2  503  501  0.65018897545E+02  0.50359169763E+02  0.62435047340E+02  0.10325520884E+03  0.00000000000E+00 0.  1.
          2    1    1    2  501    0 -0.36625533271E+03  0.12515945026E+03  0.13773920817E+04  0.14307399496E+04  0.00000000000E+00 0.  1.
<mgrwt>
<rscale>  4 0.39255817E+03</rscale>
<asrwt>0</asrwt>
<pdfrwt beam="1">  1       21 0.14974084E-01 0.39255817E+03</pdfrwt>
<pdfrwt beam="2">  1        2 0.33375510E+00 0.39255817E+03</pdfrwt>
<totfact> 0.28496521E+03</totfact>
</mgrwt>
</event>
<event>
 5    0  0.4115852E+000  0.2101438E+03  0.7546771E-02  0.1141452E+00
          1   -1    0    0  502    0 -0.00000000000E+00  0.00000000000E+00  0.27043553973E+04  0.27043553973E+04  0.00000000000E+00 0. -1.
         21   -1    0    0  503  502  0.00000000000E+00 -0.00000000000E+00 -0.30563739501E+03  0.30563739501E+03  0.00000000000E+00 0. -1.
         25    1    1    2    0    0  0.17564437326E+03  0.10365747624E+03  0.13088171127E+04  0.13304972953E+04  0.12500000000E+03 0.  0.
         21    1    1    2  503  501 -0.39088430415E+02 -0.30447306749E+02 -0.28834328928E+03  0.29256930180E+03  0.00000000000E+00 0. -1.
          1    1    1    2  501    0 -0.13655594284E+03 -0.73210169495E+02  0.13782441788E+04  0.13869261952E+04  0.00000000000E+00 0. -1.
<mgrwt>
<rscale>  4 0.21014380E+03</rscale>
<asrwt>0</asrwt>
<pdfrwt beam="1">  1       21 0.47021140E-01 0.21014380E+03</pdfrwt>
<pdfrwt beam="2">  1        1 0.41605466E+00 0.21014380E+03</pdfrwt>
<totfact> 0.56886689E+01</totfact>
</mgrwt>
</event>
<event>
 5    0  0.4115852E+000  0.2584323E+03  0.7546771E-02  0.1108089E+00
         21   -1    0    0  503  502  0.00000000000E+00  0.00000000000E+00  0.26780831697E+02  0.26780831697E+02  0.00000000000E+00 0.  1.
          2   -1    0    0  502    0 -0.00000000000E+00 -0.00000000000E+00 -0.33212363822E+04  0.33212363822E+04  0.00000000000E+00 0.  1.
         25    1    1    2    0    0  0.19079479100E+03 -0.11020901574E+03 -0.11824744180E+04  0.12093053496E+04  0.12500000000E+03 0.  0.
         21    1    1    2  503  501 -0.33306555191E+01 -0.21642475262E+02 -0.96574493736E+01  0.23932328137E+02  0.00000000000E+00 0.  1.
          2    1    1    2  501    0 -0.18746413549E+03  0.13185149101E+03 -0.21023236832E+04  0.21147795362E+04  0.00000000000E+00 0.  1.
<mgrwt>
<rscale>  4 0.25843234E+03</rscale>
<asrwt>0</asrwt>
<pdfrwt beam="1">  1       21 0.41201291E-02 0.25843234E+03</pdfrwt>
<pdfrwt beam="2">  1        2 0.51095930E+00 0.25843234E+03</pdfrwt>
<totfact> 0.63190774E+03</totfact>
</mgrwt>
</event>
<event>
 5    0  0.4115852E+000  0.3267506E+03  0.7546771E-02  0.1072584E+00
          2   -1    0    0  502    0 -0.00000000000E+00  0.00000000000E+00  0.25601915058E+04  0.25601915058E+04  0.00000000000E+00 0.  1.
         21   -1    0    0  503  502  0.00000000000E+00 -0.00000000000E+00 -0.14601840511E+03  0.14601840511E+03  0.00000000000E+00 0. -1.
         25    1    1    2    0    0 -0.29073614725E+03 -0.15776066511E+03  0.29122822452E+03  0.45809913068E+03  0.12500000000E+03 0.  0.
         21    1    1    2  503  501  0.26550077473E+02  0.19096872418E+02 -0.47270614582E+02  0.57481372226E+02  0.00000000000E+00 0. -1.
          2    1    1    2  501    0  0.26418606977E+03  0.13866379270E+03  0.21702154907E+04  0.21906294080E+04  0.00000000000E+00 0.  1.
<mgrwt>
<rscale>  4 0.32675064E+03</rscale>
<asrwt>0</asrwt>
<pdfrwt beam="1">  1       21 0.22464372E-01 0.32675064E+03</pdfrwt>
<pdfrwt beam="2">  1        2 0.39387558E+00 0.32675064E+03</pdfrwt>
<totfact> 0.83343643E+02</totfact>
</mgrwt>
</event>
<event>
 5    0  0.4115852E+000  0.2398938E+03  0.7546771E-02  0.1119864E+00
          2   -1    0    0  502    0 -0.00000000000E+00  0.00000000000E+00  0.24356717347E+04  0.24356717347E+04  0.00000000000E+00 0. -1.
         21   -1    0    0  503  502  0.00000000000E+00 -0.00000000000E+00 -0.89863232717E+02  0.89863232717E+02  0.00000000000E+00 0. -1.
         25    1    1    2    0    0 -0.20846588962E+02  0.35340541600E+03  0.47665858371E+03  0.60676055719E+03  0.12500000000E+03 0.  0.
         21    1    1    2  503  501  0.10694514942E+02 -0.16250794524E+03  0.33211201885E+03  0.36989403615E+03  0.00000000000E+00 0. -1.
          2    1    1    2  501    0  0.10152074020E+02 -0.19089747077E+03  0.15370378994E+04  0.15488803741E+04  0.00000000000E+00 0. -1.
<mgrwt>
<rscale>  4 0.23989384E+03</rscale>
<asrwt>0</asrwt>
<pdfrwt beam="1">  1       21 0.13825115E-01 0.23989384E+03</pdfrwt>
<pdfrwt beam="2">  1        2 0.37471868E+00 0.23989384E+03</pdfrwt>
<totfact> 0.25140074E+03</totfact>
</mgrwt>
</event>
<event>
 5    0  0.4115852E+000  0.3576753E+03  0.7546771E-02  0.1059508E+00
          2   -1    0    0  502    0 -0.00000000000E+00  0.00000000000E+00  0.11049338550E+04  0.11049338550E+04  0.00000000000E+00 0. -1.
         21   -1    0    0  503  502  0.00000000000E+00 -0.00000000000E+00 -0.34932941767E+03  0.34932941767E+03  0.00000000000E+00 0. -1.
         25    1    1    2    0    0 -0.13800016767E+03 -0.26460291087E+03 -0.18012347360E+03  0.37030826679E+03  0.12500000000E+03 0.  0.
         21    1    1    2  503  501 -0.10805041364E+02 -0.39947135830E+02 -0.35972148779E+02  0.54831725011E+02  0.00000000000E+00 0. -1.
          2    1    1    2  501    0  0.14880520903E+03  0.30455004670E+03  0.97170005970E+03  0.10291232809E+04  0.00000000000E+00 0. -1.
<mgrwt>
<rscale>  4 0.35767531E+03</rscale>
<asrwt>0</asrwt>
<pdfrwt beam="1">  1       21 0.53742988E-01 0.35767531E+03</pdfrwt>
<pdfrwt beam="2">  1        2 0.16998982E+00 0.35767531E+03</pdfrwt>
<totfact> 0.87910538E+02</totfact>
</mgrwt>
</event>
<event>
 5    0  0.4115852E+000  0.2103927E+03  0.7546771E-02  0.1141255E+00
          2   -1    0    0  502    0 -0.00000000000E+00  0.00000000000E+00  0.58464412699E+03  0.58464412699E+03  0.00000000000E+00 0. -1.
         21   -1    0    0  503  502  0.00000000000E+00 -0.00000000000E+00 -0.48376948237E+03  0.48376948237E+03  0.00000000000E+00 0. -1.
         25    1    1    2    0    0  0.21593570002E+03 -0.57236452640E+02 -0.29423879076E+03  0.39000731280E+03  0.12500000000E+03 0.  0.
         21    1    1    2  503  501 -0.10995676914E+03  0.79661678244E+02 -0.10187469885E+03  0.16974960479E+03  0.00000000000E+00 0. -1.
          2    1    1    2  501    0 -0.10597893087E+03 -0.22425225604E+02  0.49698813422E+03  0.50865669177E+03  0.00000000000E+00 0. -1.
<mgrwt>
<rscale>  4 0.21039270E+03</rscale>
<asrwt>0</asrwt>
<pdfrwt beam="1">  1       21 0.74426074E-01 0.21039270E+03</pdfrwt>
<pdfrwt beam="2">  1        2 0.89945250E-01 0.21039270E+03</pdfrwt>
<totfact> 0.10468928E+03</totfact>
</mgrwt>
</event>
<event>
 5    0  0.4115852E+000  0.3677137E+03  0.7546771E-02  0.1055571E+00
         21   -1    0    0  503  502  0.00000000000E+00  0.00000000000E+00  0.16281832287E+03  0.16281832287E+03  0.00000000000E+00 0.  1.
          1   -1    0    0  502    0 -0.00000000000E+00 -0.00000000000E+00 -0.26529771522E+04  0.26529771522E+04  0.00000000000E+00 0.  1.
         25    1    1    2    0    0  0.31920285691E+03  0.11418591239E+03 -0.12698068080E+04  0.13202133222E+04  0.12500000000E+03 0.  0.
         21    1    1    2  503  501  0.26775257724E+02 -0.41270563915E+02  0.10922582206E+03  0.11979338077E+03  0.00000000000E+00 0.  1.
          1    1    1    2  501    0 -0.34597811464E+03 -0.72915348473E+02 -0.13295778434E+04  0.13757887721E+04  0.00000000000E+00 0.  1.
<mgrwt>
<rscale>  4 0.36771367E+03</rscale>
<asrwt>0</asrwt>
<pdfrwt beam="1">  1       21 0.25048972E-01 0.36771367E+03</pdfrwt>
<pdfrwt beam="2">  1        1 0.40815034E+00 0.36771367E+03</pdfrwt>
<totfact> 0.19582096E+02</totfact>
</mgrwt>
</event>
<event>
 5    0  0.4115852E+000  0.2309466E+03  0.7546771E-02  0.1125975E+00
         -4   -1    0    0    0  501 -0.00000000000E+00  0.00000000000E+00  0.16640100686E+03  0.16640100686E+03  0.00000000000E+00 0. -1.
         21   -1    0    0  501  502  0.00000000000E+00 -0.00000000000E+00 -0.66133916856E+03  0.66133916856E+03  0.00000000000E+00 0.  1.
         25    1    1    2    0    0 -0.22402800096E+03  0.41151357525E+02 -0.37093471143E+03  0.45287916665E+03  0.12500000000E+03 0.  0.
         21    1    1    2  503  502  0.17050555273E+03  0.26661600438E+02 -0.19689958419E+03  0.26182519112E+03  0.00000000000E+00 0.  1.
         -4    1    1    2    0  503  0.53522448222E+02 -0.67812957963E+02  0.72896133927E+02  0.11303581765E+03  0.00000000000E+00 0. -1.
<mgrwt>
<rscale>  4 0.23094662E+03</rscale>
<asrwt>0</asrwt>
<pdfrwt beam="1">  1       21 0.10174449E+00 0.23094662E+03</pdfrwt>
<pdfrwt beam="2">  1       -4 0.25600155E-01 0.23094662E+03</pdfrwt>
<totfact> 0.47242825E+02</totfact>
</mgrwt>
</event>
<event>
 5    0  0.4115852E+000  0.2416295E+03  0.7546771E-02  0.1118712E+00
         21   -1    0    0  501  502  0.00000000000E+00  0.00000000000E+00  0.17118594107E+03  0.17118594107E+03  0.00000000000E+00 0. -1.
         -4   -1    0    0    0  501 -0.00000000000E+00 -0.00000000000E+00 -0.66341943034E+03  0.66341943034E+03  0.00000000000E+00 0. -1.
         25    1    1    2    0    0 -0.22376719800E+03  0.54280544599E+02  0.16290354703E+02  0.26250430869E+03  0.12500000000E+03 0.  0.
         21    1    1    2  503  502  0.26705489820E+02 -0.36200178464E+01 -0.29390512861E+01  0.27109513795E+02  0.00000000000E+00 0. -1.
         -4    1    1    2    0  503  0.19706170818E+03 -0.50660526752E+02 -0.50558479269E+03  0.54499154893E+03  0.00000000000E+00 0. -1.
<mgrwt>
<rscale>  4 0.24162955E+03</rscale>
<asrwt>0</asrwt>
<pdfrwt beam="1">  1       21 0.26336298E-01 0.24162955E+03</pdfrwt>
<pdfrwt beam="2">  1       -4 0.10206453E+00 0.24162955E+03</pdfrwt>
<totfact> 0.46852269E+02</totfact>
</mgrwt>
</event>
<event>
 5    0  0.4115852E+000  0.2100743E+03  0.7546771E-02  0.1141507E+00
          1   -1    0    0  502    0 -0.00000000000E+00  0.00000000000E+00  0.24813733782E+04  0.24813733782E+04  0.00000000000E+00 0. -1.
         21   -1    0    0  503  502  0.00000000000E+00 -0.00000000000E+00 -0.38157907428E+02  0.38157907428E+02  0.00000000000E+00 0.  1.
         25    1    1    2    0    0  0.17320452602E+03 -0.10989042039E+03  0.63489739049E+03  0.67881912817E+03  0.12500000000E+03 0.  0.
         21    1    1    2  503  501 -0.44040295363E+02  0.10773298708E+02  0.28693669760E+02  0.53655738416E+02  0.00000000000E+00 0.  1.
          1    1    1    2  501    0 -0.12916423066E+03  0.99117121677E+02  0.17796244105E+04  0.17870564190E+04  0.00000000000E+00 0. -1.
<mgrwt>
<rscale>  4 0.21007430E+03</rscale>
<asrwt>0</asrwt>
<pdfrwt beam="1">  1       21 0.58704493E-02 0.21007430E+03</pdfrwt>
<pdfrwt beam="2">  1        1 0.38174962E+00 0.21007430E+03</pdfrwt>
<totfact> 0.38165323E+03</totfact>
</mgrwt>
</event>
<event>
 5    0  0.4115852E+000  0.2694511E+03  0.7546771E-02  0.1101594E+00
         21   -1    0    0  503  502  0.00000000000E+00  0.00000000000E+00  0.99363003957E+02  0.99363003957E+02  0.00000000000E+00 0. -1.
          2   -1    0    0  502    0 -0.00000000000E+00 -0.00000000000E+00 -0.23157805586E+04  0.23157805586E+04  0.00000000000E+00 0.  1.
         25    1    1    2    0    0  0.10112732681E+03  0.23691613485E+03 -0.24247460158E+03  0.37519984487E+03  0.12500000000E+03 0.  0.
         21    1    1    2  503  501 -0.23230326424E+03 -0.96223049215E+02 -0.57147424525E+03  0.62434485243E+03  0.00000000000E+00 0. -1.
          2    1    1    2  501    0  0.13117593742E+03 -0.14069308564E+03 -0.14024687078E+04  0.14155988653E+04  0.00000000000E+00 0.  1.
<mgrwt>
<rscale>  4 0.26945106E+03</rscale>
<asrwt>0</asrwt>
<pdfrwt beam="1">  1       21 0.15286617E-01 0.26945106E+03</pdfrwt>
<pdfrwt beam="2">  1        2 0.35627390E+00 0.26945106E+03</pdfrwt>
<totfact> 0.23932384E+03</totfact>
</mgrwt>
</event>
<event>
 5    0  0.4115852E+000  0.2458172E+03  0.7546771E-02  0.1115977E+00
         21   -1    0    0  501  502  0.00000000000E+00  0.00000000000E+00  0.98988481368E+03  0.98988481368E+03  0.00000000000E+00 0.  1.
         -2   -1    0    0    0  501 -0.00000000000E+00 -0.00000000000E+00 -0.85108363767E+02  0.85108363767E+02  0.00000000000E+00 0.  1.
         25    1    1    2    0    0  0.27026683870E+02 -0.20098776301E+03  0.45128666850E+03  0.51030498693E+03  0.12500000000E+03 0.  0.
         21    1    1    2  503  502  0.30454892224E+02 -0.74089834910E+01  0.29493775118E+03  0.29659850061E+03  0.00000000000E+00 0. -1.
         -2    1    1    2    0  503 -0.57481576093E+02  0.20839674650E+03  0.15855203024E+03  0.26808968991E+03  0.00000000000E+00 0.  1.
<mgrwt>
<rscale>  4 0.24581717E+03</rscale>
<asrwt>0</asrwt>
<pdfrwt beam="1">  1       21 0.15228996E+00 0.24581717E+03</pdfrwt>
<pdfrwt beam="2">  1       -2 0.13093595E-01 0.24581717E+03</pdfrwt>
<totfact> 0.94831472E+02</totfact>
</mgrwt>
</event>
<event>
 5    0  0.4115852E+000  0.2322413E+03  0.7546771E-02  0.1125072E+00
         21   -1    0    0  503  502  0.00000000000E+00  0.00000000000E+00  0.18664045321E+03  0.18664045321E+03  0.00000000000E+00 0. -1.
          2   -1    0    0  502    0 -0.00000000000E+00 -0.00000000000E+00 -0.12554956141E+04  0.12554956141E+04  0.00000000000E+00 0.  1.
         25    1    1    2    0    0  0.24031032127E+03  0.94119048679E+02 -0.20517758684E+03  0.35260500276E+03  0.12500000000E+03 0.  0.
         21    1    1    2  503  501 -0.69296797215E+02 -0.15973215123E+02  0.91578061852E+02  0.11594710483E+03  0.00000000000E+00 0. -1.
          2    1    1    2  501    0 -0.17101352405E+03 -0.78145833556E+02 -0.95525563594E+03  0.97358395976E+03  0.00000000000E+00 0.  1.
<mgrwt>
<rscale>  4 0.23224134E+03</rscale>
<asrwt>0</asrwt>
<pdfrwt beam="1">  1       21 0.28713917E-01 0.23224134E+03</pdfrwt>
<pdfrwt beam="2">  1        2 0.19315316E+00 0.23224134E+03</pdfrwt>
<totfact> 0.27085754E+03</totfact>
</mgrwt>
</event>
<event>
 5    0  0.4115852E+000  0.3669156E+03  0.7546771E-02  0.1055879E+00
         21   -1    0    0  503  502  0.00000000000E+00  0.00000000000E+00  0.15302850174E+04  0.15302850174E+04  0.00000000000E+00 0. -1.
          2   -1    0    0  502    0 -0.00000000000E+00 -0.00000000000E+00 -0.16378136451E+03  0.16378136451E+03  0.00000000000E+00 0. -1.
         25    1    1    2    0    0 -0.36071896354E+03 -0.41400836113E+02  0.11822538132E+04  0.12430532083E+04  0.12500000000E+03 0.  0.
         21    1    1    2  503  501  0.22582603081E+02 -0.77176367099E+01  0.94877637276E+02  0.97833030892E+02  0.00000000000E+00 0. -1.
          2    1    1    2  501    0  0.33813636046E+03  0.49118472823E+02  0.89372202417E+02  0.35318014270E+03  0.00000000000E+00 0. -1.
<mgrwt>
<rscale>  4 0.36691563E+03</rscale>
<asrwt>0</asrwt>
<pdfrwt beam="1">  1       21 0.23542846E+00 0.36691563E+03</pdfrwt>
<pdfrwt beam="2">  1        2 0.25197134E-01 0.36691563E+03</pdfrwt>
<totfact> 0.18956447E+02</totfact>
</mgrwt>
</event>
<event>
 5    0  0.4115852E+000  0.2629065E+03  0.7546771E-02  0.1105409E+00
         21   -1    0    0  501  502  0.00000000000E+00  0.00000000000E+00  0.59707049289E+03  0.59707049289E+03  0.00000000000E+00 0.  1.
         -4   -1    0    0    0  501 -0.00000000000E+00 -0.00000000000E+00 -0.15845215386E+03  0.15845215386E+03  0.00000000000E+00 0.  1.
         25    1    1    2    0    0  0.20652057134E+03  0.12828265484E+02  0.33535833195E+03  0.41340721037E+03  0.12500000000E+03 0.  0.
         21    1    1    2  503  502  0.22660479039E+02  0.67116633704E+02  0.65483758523E+02  0.96468971490E+02  0.00000000000E+00 0.  1.
         -4    1    1    2    0  503 -0.22918105038E+03 -0.79944899189E+02  0.37776248561E+02  0.24564646489E+03  0.00000000000E+00 0.  1.
<mgrwt>
<rscale>  4 0.26290650E+03</rscale>
<asrwt>0</asrwt>
<pdfrwt beam="1">  1       21 0.91856998E-01 0.26290650E+03</pdfrwt>
<pdfrwt beam="2">  1       -4 0.24377255E-01 0.26290650E+03</pdfrwt>
<totfact> 0.65714881E+02</totfact>
</mgrwt>
</event>
<event>
 5    0  0.4115852E+000  0.2393159E+03  0.7546771E-02  0.1120249E+00
          2   -1    0    0  502    0 -0.00000000000E+00  0.00000000000E+00  0.25068342435E+03  0.25068342435E+03  0.00000000000E+00 0.  1.
         21   -1    0    0  503  502  0.00000000000E+00 -0.00000000000E+00 -0.45072598012E+03  0.45072598012E+03  0.00000000000E+00 0. -1.
         25    1    1    2    0    0  0.37830914228E+02 -0.23543861956E+03 -0.10260818298E+03  0.28812490497E+03  0.12500000000E+03 0.  0.
         21    1    1    2  503  501  0.45849726577E+02  0.59116248070E+02 -0.18486142289E+03  0.19942586062E+03  0.00000000000E+00 0.  1.
          2    1    1    2  501    0 -0.83680640804E+02  0.17632237149E+03  0.87427050087E+02  0.21385863887E+03  0.00000000000E+00 0.  1.
<mgrwt>
<rscale>  4 0.23931587E+03</rscale>
<asrwt>0</asrwt>
<pdfrwt beam="1">  1       21 0.69342458E-01 0.23931587E+03</pdfrwt>
<pdfrwt beam="2">  1        2 0.38566681E-01 0.23931587E+03</pdfrwt>
<totfact> 0.30611926E+03</totfact>
</mgrwt>
</event>
<event>
 5    0  0.4115852E+000  0.4769966E+03  0.7546771E-02  0.1019964E+00
         -4   -1    0    0    0  501 -0.00000000000E+00  0.00000000000E+00  0.16732276250E+04  0.16732276250E+04  0.00000000000E+00 0. -1.
         21   -1    0    0  501  502  0.00000000000E+00 -0.00000000000E+00 -0.82993138638E+03  0.82993138638E+03  0.00000000000E+00 0.  1.
         25    1    1    2    0    0 -0.34213956016E+03 -0.21603639236E+03 -0.58575405294E+03  0.72281672088E+03  0.12500000000E+03 0.  0.
         21    1    1    2  503  502 -0.28629823613E+02 -0.61687753128E+02 -0.13390205856E+03  0.15018257879E+03  0.00000000000E+00 0.  1.
         -4    1    1    2    0  503  0.37076938377E+03  0.27772414549E+03  0.15629523501E+04  0.16301597117E+04  0.00000000000E+00 0. -1.
<mgrwt>
<rscale>  4 0.47699659E+03</rscale>
<asrwt>0</asrwt>
<pdfrwt beam="1">  1       21 0.12768175E+00 0.47699659E+03</pdfrwt>
<pdfrwt beam="2">  1       -4 0.25741963E+00 0.47699659E+03</pdfrwt>
<totfact> 0.10589280E+00</totfact>
</mgrwt>
</event>
<event>
 5    0  0.4115852E+000  0.2861910E+03  0.7546771E-02  0.1092355E+00
         21   -1    0    0  503  502  0.00000000000E+00  0.00000000000E+00  0.19552018581E+03  0.19552018581E+03  0.00000000000E+00 0.  1.
          1   -1    0    0  502    0 -0.00000000000E+00 -0.00000000000E+00 -0.10106574895E+04  0.10106574895E+04  0.00000000000E+00 0.  1.
         25    1    1    2    0    0  0.18581763951E+03  0.16984099536E+03 -0.49741824614E+03  0.57133533975E+03  0.12500000000E+03 0.  0.
         21    1    1    2  503  501 -0.36594913916E+01  0.20368225417E+02  0.12120982890E+03  0.12296373085E+03  0.00000000000E+00 0.  1.
          1    1    1    2  501    0 -0.18215814812E+03 -0.19020922078E+03 -0.43892888644E+03  0.51187860470E+03  0.00000000000E+00 0.  1.
<mgrwt>
<rscale>  4 0.28619103E+03</rscale>
<asrwt>0</asrwt>
<pdfrwt beam="1">  1       21 0.30080028E-01 0.28619103E+03</pdfrwt>
<pdfrwt beam="2">  1        1 0.15548577E+00 0.28619103E+03</pdfrwt>
<totfact> 0.17986948E+03</totfact>
</mgrwt>
</event>
<event>
 5    0  0.4115852E+000  0.2427502E+03  0.7546771E-02  0.1117974E+00
         -2   -1    0    0    0  501 -0.00000000000E+00  0.00000000000E+00  0.97450351082E+03  0.97450351082E+03  0.00000000000E+00 0. -1.
         21   -1    0    0  501  502  0.00000000000E+00 -0.00000000000E+00 -0.72401856919E+03  0.72401856919E+03  0.00000000000E+00 0. -1.
         25    1    1    2    0    0  0.21540466288E+03 -0.13815188591E+03  0.10346597111E+02  0.28498625308E+03  0.12500000000E+03 0.  0.
         21    1    1    2  503  502 -0.43452841572E+02  0.28910420244E+02 -0.57294643693E+03  0.57531867815E+03  0.00000000000E+00 0. -1.
         -2    1    1    2    0  503 -0.17195182131E+03  0.10924146567E+03  0.81308478145E+03  0.83821714877E+03  0.00000000000E+00 0. -1.
<mgrwt>
<rscale>  4 0.24275024E+03</rscale>
<asrwt>0</asrwt>
<pdfrwt beam="1">  1       21 0.11138747E+00 0.24275024E+03</pdfrwt>
<pdfrwt beam="2">  1       -2 0.14992362E+00 0.24275024E+03</pdfrwt>
<totfact> 0.16025339E+01</totfact>
</mgrwt>
</event>
<event>
 5    0  0.4115852E+000  0.3476415E+03  0.7546771E-02  0.1063587E+00
         21   -1    0    0  503  502  0.00000000000E+00  0.00000000000E+00  0.37646349347E+03  0.37646349347E+03  0.00000000000E+00 0. -1.
          2   -1    0    0  502    0 -0.00000000000E+00 -0.00000000000E+00 -0.14023178993E+04  0.14023178993E+04  0.00000000000E+00 0.  1.
         25    1    1    2    0    0 -0.29529070485E+03  0.21467772243E+03  0.15965710333E+03  0.41761048301E+03  0.12500000000E+03 0.  0.
         21    1    1    2  503  501  0.97790532205E+01 -0.66319472749E+02  0.50523501871E+02  0.83943591709E+02  0.00000000000E+00 0. -1.
          2    1    1    2  501    0  0.28551165163E+03 -0.14835824968E+03 -0.12360350110E+04  0.12772273181E+04  0.00000000000E+00 0.  1.
<mgrwt>
<rscale>  4 0.34764146E+03</rscale>
<asrwt>0</asrwt>
<pdfrwt beam="1">  1       21 0.57917460E-01 0.34764146E+03</pdfrwt>
<pdfrwt beam="2">  1        2 0.21574122E+00 0.34764146E+03</pdfrwt>
<totfact> 0.50874416E+02</totfact>
</mgrwt>
</event>
<event>
 5    0  0.4115852E+000  0.2930378E+03  0.7546771E-02  0.1088774E+00
         21   -1    0    0  503  502  0.00000000000E+00  0.00000000000E+00  0.17163957462E+03  0.17163957462E+03  0.00000000000E+00 0. -1.
          2   -1    0    0  502    0 -0.00000000000E+00 -0.00000000000E+00 -0.22625529710E+04  0.22625529710E+04  0.00000000000E+00 0. -1.
         25    1    1    2    0    0 -0.14129852904E+03  0.20633024937E+03  0.23188040652E+01  0.27958509074E+03  0.12500000000E+03 0.  0.
         21    1    1    2  503  501  0.62936364947E+01  0.22815684850E+02  0.16067620884E+02  0.28606533806E+02  0.00000000000E+00 0. -1.
          2    1    1    2  501    0  0.13500489254E+03 -0.22914593422E+03 -0.21092998213E+04  0.21260009211E+04  0.00000000000E+00 0. -1.
<mgrwt>
<rscale>  4 0.29303781E+03</rscale>
<asrwt>0</asrwt>
<pdfrwt beam="1">  1       21 0.26406089E-01 0.29303781E+03</pdfrwt>
<pdfrwt beam="2">  1        2 0.34808507E+00 0.29303781E+03</pdfrwt>
<totfact> 0.90154483E+02</totfact>
</mgrwt>
</event>
<event>
 5    0  0.4115852E+000  0.4092177E+03  0.7546771E-02  0.1040634E+00
          2   -1    0    0  502    0 -0.00000000000E+00  0.00000000000E+00  0.44335392088E+03  0.44335392088E+03  0.00000000000E+00 0. -1.
         21   -1    0    0  503  502  0.00000000000E+00 -0.00000000000E+00 -0.89931425316E+03  0.89931425316E+03  0.00000000000E+00 0.  1.
         25    1    1    2    0    0  0.31875031162E+03 -0.21130169218E+03 -0.52459365218E+03  0.66111547114E+03  0.12500000000E+03 0.  0.
         21    1    1    2  503  501 -0.71400020031E+01 -0.24905185622E+02 -0.20351029992E+03  0.20515284564E+03  0.00000000000E+00 0. -1.
          2    1    1    2  501    0 -0.31161030961E+03  0.23620687780E+03  0.27214361983E+03  0.47639985726E+03  0.00000000000E+00 0. -1.
<mgrwt>
<rscale>  4 0.40921769E+03</rscale>
<asrwt>0</asrwt>
<pdfrwt beam="1">  1       21 0.13835604E+00 0.40921769E+03</pdfrwt>
<pdfrwt beam="2">  1        2 0.68208296E-01 0.40921769E+03</pdfrwt>
<totfact> 0.29530136E+02</totfact>
</mgrwt>
</event>
<event>
 5    0  0.4115852E+000  0.2773083E+03  0.7546771E-02  0.1097168E+00
         21   -1    0    0  503  502  0.00000000000E+00  0.00000000000E+00  0.90248991232E+02  0.90248991232E+02  0.00000000000E+00 0. -1.
          1   -1    0    0  502    0 -0.00000000000E+00 -0.00000000000E+00 -0.19384406341E+04  0.19384406341E+04  0.00000000000E+00 0. -1.
         25    1    1    2    0    0 -0.54765000561E+02 -0.22636577910E+03 -0.70080456943E+03  0.74899446978E+03  0.12500000000E+03 0.  0.
         21    1    1    2  503  501  0.10968397888E+02 -0.25808058259E+02  0.48880509391E+02  0.56353046250E+02  0.00000000000E+00 0. -1.
          1    1    1    2  501    0  0.43796602673E+02  0.25217383736E+03 -0.11962675828E+04  0.12233421093E+04  0.00000000000E+00 0. -1.
<mgrwt>
<rscale>  4 0.27730828E+03</rscale>
<asrwt>0</asrwt>
<pdfrwt beam="1">  1       21 0.13884461E-01 0.27730828E+03</pdfrwt>
<pdfrwt beam="2">  1        1 0.29822162E+00 0.27730828E+03</pdfrwt>
<totfact> 0.18317556E+03</totfact>
</mgrwt>
</event>
<event>
 5    0  0.4115852E+000  0.4427864E+03  0.7546771E-02  0.1029895E+00
         21   -1    0    0  503  502  0.00000000000E+00  0.00000000000E+00  0.82858143615E+03  0.82858143615E+03  0.00000000000E+00 0.  1.
          1   -1    0    0  502    0 -0.00000000000E+00 -0.00000000000E+00 -0.20200343023E+04  0.20200343023E+04  0.00000000000E+00 0.  1.
         25    1    1    2    0    0  0.35287810379E+03 -0.28000967706E+03  0.12860258407E+03  0.48486286722E+03  0.12500000000E+03 0.  0.
         21    1    1    2  503  501  0.21565075627E+01  0.50249823938E+02  0.49628721389E+03  0.49882932351E+03  0.00000000000E+00 0.  1.
          1    1    1    2  501    0 -0.35503461135E+03  0.22975985312E+03 -0.18163426641E+04  0.18649235477E+04  0.00000000000E+00 0.  1.
<mgrwt>
<rscale>  4 0.44278643E+03</rscale>
<asrwt>0</asrwt>
<pdfrwt beam="1">  1       21 0.12747407E+00 0.44278643E+03</pdfrwt>
<pdfrwt beam="2">  1        1 0.31077451E+00 0.44278643E+03</pdfrwt>
<totfact> 0.14046681E+01</totfact>
</mgrwt>
</event>
<event>
 5    0  0.4115852E+000  0.2634251E+03  0.7546771E-02  0.1105103E+00
         21   -1    0    0  503  502  0.00000000000E+00  0.00000000000E+00  0.31152082964E+03  0.31152082964E+03  0.00000000000E+00 0.  1.
          2   -1    0    0  502    0 -0.00000000000E+00 -0.00000000000E+00 -0.15296748827E+04  0.15296748827E+04  0.00000000000E+00 0. -1.
         25    1    1    2    0    0  0.20319459250E+03  0.27929576192E+02 -0.14403020926E+03  0.28006750048E+03  0.12500000000E+03 0.  0.
         21    1    1    2  503  501  0.30770321627E+02  0.33262898396E+01  0.23189444076E+03  0.23395065410E+03  0.00000000000E+00 0.  1.
          2    1    1    2  501    0 -0.23396491413E+03 -0.31255866032E+02 -0.13060182845E+04  0.13271775577E+04  0.00000000000E+00 0. -1.
<mgrwt>
<rscale>  4 0.26342514E+03</rscale>
<asrwt>0</asrwt>
<pdfrwt beam="1">  1       21 0.47926281E-01 0.26342514E+03</pdfrwt>
<pdfrwt beam="2">  1        2 0.23533460E+00 0.26342514E+03</pdfrwt>
<totfact> 0.67454371E+02</totfact>
</mgrwt>
</event>
<event>
 5    0  0.4115852E+000  0.3104978E+03  0.7546771E-02  0.1080108E+00
          2   -1    0    0  502    0 -0.00000000000E+00  0.00000000000E+00  0.83945685007E+03  0.83945685007E+03  0.00000000000E+00 0.  1.
         21   -1    0    0  503  502  0.00000000000E+00 -0.00000000000E+00 -0.14190049979E+04  0.14190049979E+04  0.00000000000E+00 0. -1.
         25    1    1    2    0    0 -0.24261875111E+03 -0.19355238189E+03  0.33486871723E+03  0.47337980598E+03  0.12500000000E+03 0.  0.
         21    1    1    2  503  501  0.63574757755E+02 -0.85976515490E+01 -0.13070100525E+04  0.13085835651E+04  0.00000000000E+00 0. -1.
          2    1    1    2  501    0  0.17904399336E+03  0.20215003344E+03  0.39259318750E+03  0.47649847686E+03  0.00000000000E+00 0.  1.
<mgrwt>
<rscale>  4 0.31049781E+03</rscale>
<asrwt>0</asrwt>
<pdfrwt beam="1">  1       21 0.21830846E+00 0.31049781E+03</pdfrwt>
<pdfrwt beam="2">  1        2 0.12914721E+00 0.31049781E+03</pdfrwt>
<totfact> 0.39078396E+01</totfact>
</mgrwt>
</event>
<event>
 5    0  0.4115852E+000  0.2408877E+03  0.7546771E-02  0.1119203E+00
         21   -1    0    0  503  502  0.00000000000E+00  0.00000000000E+00  0.11868132538E+03  0.11868132538E+03  0.00000000000E+00 0.  1.
          1   -1    0    0  502    0 -0.00000000000E+00 -0.00000000000E+00 -0.30257646238E+04  0.30257646238E+04  0.00000000000E+00 0.  1.
         25    1    1    2    0    0 -0.25895317203E+03 -0.11494163405E+03 -0.92053072748E+03  0.97122095569E+03  0.12500000000E+03 0.  0.
         21    1    1    2  503  501  0.10489173802E+03 -0.14428745815E+01  0.57802268259E+02  0.11977253778E+03  0.00000000000E+00 0.  1.
          1    1    1    2  501    0  0.15406143401E+03  0.11638450863E+03 -0.20443548392E+04  0.20534524558E+04  0.00000000000E+00 0.  1.
<mgrwt>
<rscale>  4 0.24088768E+03</rscale>
<asrwt>0</asrwt>
<pdfrwt beam="1">  1       21 0.18258667E-01 0.24088768E+03</pdfrwt>
<pdfrwt beam="2">  1        1 0.46550221E+00 0.24088768E+03</pdfrwt>
<totfact> 0.21224780E+02</totfact>
</mgrwt>
</event>
<event>
 5    0  0.4115852E+000  0.2766244E+03  0.7546771E-02  0.1097547E+00
         21   -1    0    0  503  502  0.00000000000E+00  0.00000000000E+00  0.52335073489E+02  0.52335073489E+02  0.00000000000E+00 0. -1.
          2   -1    0    0  502    0 -0.00000000000E+00 -0.00000000000E+00 -0.31623795092E+04  0.31623795092E+04  0.00000000000E+00 0. -1.
         25    1    1    2    0    0 -0.12526340159E+03  0.22986652539E+03 -0.42927678583E+03  0.51810529637E+03  0.12500000000E+03 0.  0.
         21    1    1    2  503  501  0.21443599798E+02 -0.80620997872E+01 -0.56917031888E+02  0.61354494083E+02  0.00000000000E+00 0.  1.
          2    1    1    2  501    0  0.10381980179E+03 -0.22180442561E+03 -0.26238506180E+04  0.26352547923E+04  0.00000000000E+00 0. -1.
<mgrwt>
<rscale>  4 0.27662440E+03</rscale>
<asrwt>0</asrwt>
<pdfrwt beam="1">  1       21 0.80515474E-02 0.27662440E+03</pdfrwt>
<pdfrwt beam="2">  1        2 0.48652007E+00 0.27662440E+03</pdfrwt>
<totfact> 0.24828698E+03</totfact>
</mgrwt>
</event>
<event>
 5    0  0.4115852E+000  0.3971549E+03  0.7546771E-02  0.1044769E+00
          2   -1    0    0  502    0 -0.00000000000E+00  0.00000000000E+00  0.70276173620E+03  0.70276173620E+03  0.00000000000E+00 0.  1.
         21   -1    0    0  503  502  0.00000000000E+00 -0.00000000000E+00 -0.25416230522E+03  0.25416230522E+03  0.00000000000E+00 0.  1.
         25    1    1    2    0    0 -0.38343273484E+03  0.71499580528E+02  0.11760730787E+03  0.42613299688E+03  0.12500000000E+03 0.  0.
         21    1    1    2  503  501  0.35737016665E+03 -0.51128332046E+02  0.23879731605E+03  0.43284142651E+03  0.00000000000E+00 0.  1.
          2    1    1    2  501    0  0.26062568195E+02 -0.20371248482E+02  0.92194807049E+02  0.97949618031E+02  0.00000000000E+00 0.  1.
<mgrwt>
<rscale>  4 0.39715487E+03</rscale>
<asrwt>0</asrwt>
<pdfrwt beam="1">  1       21 0.39101893E-01 0.39715487E+03</pdfrwt>
<pdfrwt beam="2">  1        2 0.10811719E+00 0.39715487E+03</pdfrwt>
<totfact> 0.31282846E+03</totfact>
</mgrwt>
</event>
<event>
 5    0  0.4115852E+000  0.3656055E+03  0.7546771E-02  0.1056386E+00
         21   -1    0    0  503  502  0.00000000000E+00  0.00000000000E+00  0.10117770326E+03  0.10117770326E+03  0.00000000000E+00 0. -1.
          2   -1    0    0  502    0 -0.00000000000E+00 -0.00000000000E+00 -0.27406173445E+04  0.27406173445E+04  0.00000000000E+00 0. -1.
         25    1    1    2    0    0  0.18918527677E+03  0.30386013493E+03 -0.57425038053E+03  0.68812102866E+03  0.12500000000E+03 0.  0.
         21    1    1    2  503  501  0.12457320879E+02 -0.29733347965E+02  0.21932829317E+02  0.38991099325E+02  0.00000000000E+00 0.  1.
          2    1    1    2  501    0 -0.20164259765E+03 -0.27412678696E+03 -0.20871220901E+04  0.21146829198E+04  0.00000000000E+00 0. -1.
<mgrwt>
<rscale>  4 0.36560547E+03</rscale>
<asrwt>0</asrwt>
<pdfrwt beam="1">  1       21 0.15565799E-01 0.36560547E+03</pdfrwt>
<pdfrwt beam="2">  1        2 0.42163347E+00 0.36560547E+03</pdfrwt>
<totfact> 0.12934637E+03</totfact>
</mgrwt>
</event>
<event>
 5    0  0.4115852E+000  0.2854739E+03  0.7546771E-02  0.1092736E+00
         21   -1    0    0  503  502  0.00000000000E+00  0.00000000000E+00  0.11776407428E+04  0.11776407428E+04  0.00000000000E+00 0.  1.
          2   -1    0    0  502    0 -0.00000000000E+00 -0.00000000000E+00 -0.15788808958E+03  0.15788808958E+03  0.00000000000E+00 0. -1.
         25    1    1    2    0    0  0.85276400306E+02 -0.20977340320E+03  0.64800645835E+03  0.69772080032E+03  0.12500000000E+03 0.  0.
         21    1    1    2  503  501  0.17880325986E+02 -0.31619844311E+02  0.37352887417E+03  0.37529100768E+03  0.00000000000E+00 0.  1.
          2    1    1    2  501    0 -0.10315672629E+03  0.24139324751E+03 -0.17826793321E+01  0.26251702434E+03  0.00000000000E+00 0. -1.
<mgrwt>
<rscale>  4 0.28547395E+03</rscale>
<asrwt>0</asrwt>
<pdfrwt beam="1">  1       21 0.18117549E+00 0.28547395E+03</pdfrwt>
<pdfrwt beam="2">  1        2 0.24290476E-01 0.28547395E+03</pdfrwt>
<totfact> 0.46138474E+02</totfact>
</mgrwt>
</event>
<event>
 5    0  0.4115852E+000  0.2768136E+03  0.7546771E-02  0.1097442E+00
          2   -1    0    0  502    0 -0.00000000000E+00  0.00000000000E+00  0.17376954594E+04  0.17376954594E+04  0.00000000000E+00 0. -1.
         21   -1    0    0  503  502  0.00000000000E+00 -0.00000000000E+00 -0.93163682324E+02  0.93163682324E+02  0.00000000000E+00 0. -1.
         25    1    1    2    0    0 -0.26794064626E+03 -0.40363511842E+02  0.22609445976E+03  0.37438630816E+03  0.12500000000E+03 0.  0.
         21    1    1    2  503  501  0.24743736664E+02  0.25017775712E+02  0.28345291536E+02  0.45184036539E+02  0.00000000000E+00 0.  1.
          2    1    1    2  501    0  0.24319690960E+03  0.15345736130E+02  0.13900920258E+04  0.14112887970E+04  0.00000000000E+00 0. -1.
<mgrwt>
<rscale>  4 0.27681362E+03</rscale>
<asrwt>0</asrwt>
<pdfrwt beam="1">  1       21 0.14332875E-01 0.27681362E+03</pdfrwt>
<pdfrwt beam="2">  1        2 0.26733774E+00 0.27681362E+03</pdfrwt>
<totfact> 0.54288890E+03</totfact>
</mgrwt>
</event>
<event>
 5    0  0.4115852E+000  0.4154620E+03  0.7546771E-02  0.1039531E+00
         21   -1    0    0  503  502  0.00000000000E+00  0.00000000000E+00  0.20170779098E+03  0.20170779098E+03  0.00000000000E+00 0.  1.
          2   -1    0    0  502    0 -0.00000000000E+00 -0.00000000000E+00 -0.92919937235E+03  0.92919937235E+03  0.00000000000E+00 0.  1.
         25    1    1    2    0    0 -0.30781679737E+03  0.22950731757E+03 -0.54209447500E+03  0.67595577472E+03  0.12500000000E+03 0.  0.
         21    1    1    2  503  501  0.21902612629E+03 -0.15702952485E+03 -0.44217921698E+02  0.27310426629E+03  0.00000000000E+00 0.  1.
          2    1    1    2  501    0  0.88790671087E+02 -0.72477792721E+02 -0.14117918468E+03  0.18184712232E+03  0.00000000000E+00 0.  1.
<mgrwt>
<rscale>  4 0.41251388E+03</rscale>
<asrwt>0</asrwt>
<pdfrwt beam="1">  1       21 0.31031968E-01 0.41546201E+03</pdfrwt>
<pdfrwt beam="2">  1        2 0.14295375E+00 0.41546201E+03</pdfrwt>
<totfact> 0.34503084E+03</totfact>
</mgrwt>
</event>
<event>
 5    0  0.4115852E+000  0.2818741E+03  0.7546771E-02  0.1094670E+00
          2   -1    0    0  502    0 -0.00000000000E+00  0.00000000000E+00  0.14204304075E+04  0.14204304075E+04  0.00000000000E+00 0. -1.
         21   -1    0    0  503  502  0.00000000000E+00 -0.00000000000E+00 -0.54349865278E+03  0.54349865278E+03  0.00000000000E+00 0.  1.
         25    1    1    2    0    0 -0.34996642001E+03 -0.15139153947E+03 -0.34602628864E+03  0.52986327085E+03  0.12500000000E+03 0.  0.
         21    1    1    2  503  501  0.10019095579E+03  0.14951910183E+03 -0.58982820578E+01  0.18008047969E+03  0.00000000000E+00 0.  1.
          2    1    1    2  501    0  0.24977546422E+03  0.18724376458E+01  0.12288563254E+04  0.12539853098E+04  0.00000000000E+00 0. -1.
<mgrwt>
<rscale>  4 0.28187406E+03</rscale>
<asrwt>0</asrwt>
<pdfrwt beam="1">  1       21 0.83615178E-01 0.28187406E+03</pdfrwt>
<pdfrwt beam="2">  1        2 0.21852775E+00 0.28187406E+03</pdfrwt>
<totfact> 0.22611838E+02</totfact>
</mgrwt>
</event>
<event>
 5    0  0.4115852E+000  0.2640739E+03  0.7546771E-02  0.1104720E+00
         21   -1    0    0  503  502  0.00000000000E+00  0.00000000000E+00  0.22802116638E+03  0.22802116638E+03  0.00000000000E+00 0.  1.
          1   -1    0    0  502    0 -0.00000000000E+00 -0.00000000000E+00 -0.21074808328E+04  0.21074808328E+04  0.00000000000E+00 0. -1.
         25    1    1    2    0    0 -0.13735339320E+00  0.29001683953E+03  0.77356569430E+02  0.32514431398E+03  0.12500000000E+03 0.  0.
         21    1    1    2  503  501 -0.34213432989E+02 -0.61843131206E+02 -0.43101256631E+02  0.82781943668E+02  0.00000000000E+00 0.  1.
          1    1    1    2  501    0  0.34350786382E+02 -0.22817370832E+03 -0.19137149792E+04  0.19275757416E+04  0.00000000000E+00 0. -1.
<mgrwt>
<rscale>  4 0.26407389E+03</rscale>
<asrwt>0</asrwt>
<pdfrwt beam="1">  1       21 0.35080179E-01 0.26407389E+03</pdfrwt>
<pdfrwt beam="2">  1        1 0.32422782E+00 0.26407389E+03</pdfrwt>
<totfact> 0.24506374E+02</totfact>
</mgrwt>
</event>
<event>
 5    0  0.4115852E+000  0.2234362E+03  0.7546771E-02  0.1131347E+00
         21   -1    0    0  503  502  0.00000000000E+00  0.00000000000E+00  0.21683419393E+03  0.21683419393E+03  0.00000000000E+00 0.  1.
          2   -1    0    0  502    0 -0.00000000000E+00 -0.00000000000E+00 -0.28145472975E+04  0.28145472975E+04  0.00000000000E+00 0.  1.
         25    1    1    2    0    0 -0.21286156899E+03  0.29713298973E+02  0.50679059639E+02  0.25374454630E+03  0.12500000000E+03 0.  0.
         21    1    1    2  503  501  0.29257364661E+02 -0.10682674691E+02  0.57533121571E+02  0.65423031138E+02  0.00000000000E+00 0. -1.
          2    1    1    2  501    0  0.18360420433E+03 -0.19030624282E+02 -0.27059252848E+04  0.27122139140E+04  0.00000000000E+00 0.  1.
<mgrwt>
<rscale>  4 0.22343621E+03</rscale>
<asrwt>0</asrwt>
<pdfrwt beam="1">  1       21 0.33359109E-01 0.22343621E+03</pdfrwt>
<pdfrwt beam="2">  1        2 0.43300724E+00 0.22343621E+03</pdfrwt>
<totfact> 0.29590232E+02</totfact>
</mgrwt>
</event>
<event>
 5    0  0.4115852E+000  0.1851871E+03  0.7546771E-02  0.1162875E+00
          1   -1    0    0  502    0 -0.00000000000E+00  0.00000000000E+00  0.28232125727E+04  0.28232125727E+04  0.00000000000E+00 0. -1.
         21   -1    0    0  503  502  0.00000000000E+00 -0.00000000000E+00 -0.54327942595E+02  0.54327942595E+02  0.00000000000E+00 0.  1.
         25    1    1    2    0    0  0.17620626252E+03  0.98096072193E+02  0.33895893405E+03  0.41375070429E+03  0.12500000000E+03 0.  0.
         21    1    1    2  503  501 -0.78404068390E+02 -0.70793964937E+01  0.88067035209E+02  0.11812331897E+03  0.00000000000E+00 0.  1.
          1    1    1    2  501    0 -0.97802194134E+02 -0.91016675699E+02  0.23418586608E+04  0.23456664920E+04  0.00000000000E+00 0. -1.
<mgrwt>
<rscale>  4 0.18518709E+03</rscale>
<asrwt>0</asrwt>
<pdfrwt beam="1">  1       21 0.83581472E-02 0.18518709E+03</pdfrwt>
<pdfrwt beam="2">  1        1 0.43434028E+00 0.18518709E+03</pdfrwt>
<totfact> 0.12426362E+03</totfact>
</mgrwt>
</event>
<event>
 5    0  0.4115852E+000  0.3118358E+03  0.7546771E-02  0.1079469E+00
         -1   -1    0    0    0  501 -0.00000000000E+00  0.00000000000E+00  0.82507060950E+03  0.82507060950E+03  0.00000000000E+00 0. -1.
         21   -1    0    0  501  502  0.00000000000E+00 -0.00000000000E+00 -0.49949344472E+03  0.49949344472E+03  0.00000000000E+00 0. -1.
         25    1    1    2    0    0 -0.23599484127E+03  0.13367819103E+03 -0.26004250710E+03  0.39599309256E+03  0.12500000000E+03 0.  0.
         21    1    1    2  503  502 -0.37162728820E+02 -0.44592024312E+02 -0.13815444827E+03  0.14985382418E+03  0.00000000000E+00 0.  1.
         -1    1    1    2    0  503  0.27315757009E+03 -0.89086166717E+02  0.72377412015E+03  0.77871713747E+03  0.00000000000E+00 0. -1.
<mgrwt>
<rscale>  4 0.31183579E+03</rscale>
<asrwt>0</asrwt>
<pdfrwt beam="1">  1       21 0.76845145E-01 0.31183579E+03</pdfrwt>
<pdfrwt beam="2">  1       -1 0.12693394E+00 0.31183579E+03</pdfrwt>
<totfact> 0.76600073E+01</totfact>
</mgrwt>
</event>
<event>
 5    0  0.4115852E+000  0.3202044E+03  0.7546771E-02  0.1075555E+00
         21   -1    0    0  503  502  0.00000000000E+00  0.00000000000E+00  0.42335455461E+02  0.42335455461E+02  0.00000000000E+00 0.  1.
          2   -1    0    0  502    0 -0.00000000000E+00 -0.00000000000E+00 -0.30251062604E+04  0.30251062604E+04  0.00000000000E+00 0.  1.
         25    1    1    2    0    0 -0.26198918780E+03 -0.71447901355E+02 -0.16130966585E+04  0.16405636125E+04  0.12500000000E+03 0.  0.
         21    1    1    2  503  501 -0.63575565200E+02 -0.99976311272E+01 -0.22462065835E+03  0.23365839441E+03  0.00000000000E+00 0. -1.
          2    1    1    2  501    0  0.32556475300E+03  0.81445532482E+02 -0.11450534882E+04  0.11932197090E+04  0.00000000000E+00 0.  1.
<mgrwt>
<rscale>  4 0.32020442E+03</rscale>
<asrwt>0</asrwt>
<pdfrwt beam="1">  1       21 0.65131464E-02 0.32020442E+03</pdfrwt>
<pdfrwt beam="2">  1        2 0.46540100E+00 0.32020442E+03</pdfrwt>
<totfact> 0.42738595E+03</totfact>
</mgrwt>
</event>
<event>
 5    0  0.4115852E+000  0.3428779E+03  0.7546771E-02  0.1065577E+00
          2   -1    0    0  502    0 -0.00000000000E+00  0.00000000000E+00  0.30169968110E+04  0.30169968110E+04  0.00000000000E+00 0.  1.
         21   -1    0    0  503  502  0.00000000000E+00 -0.00000000000E+00 -0.19028646065E+04  0.19028646065E+04  0.00000000000E+00 0. -1.
         25    1    1    2    0    0 -0.27039670547E+03 -0.66777394482E+02 -0.12061481266E+04  0.12441832269E+04  0.12500000000E+03 0.  0.
         21    1    1    2  503  501 -0.42014696543E+02 -0.46046898385E+00 -0.66852161364E+03  0.66984072335E+03  0.00000000000E+00 0. -1.
          2    1    1    2  501    0  0.31241140201E+03  0.67237863465E+02  0.29888019448E+04  0.30058374673E+04  0.00000000000E+00 0.  1.
<mgrwt>
<rscale>  4 0.34287785E+03</rscale>
<asrwt>0</asrwt>
<pdfrwt beam="1">  1       21 0.29274840E+00 0.34287785E+03</pdfrwt>
<pdfrwt beam="2">  1        2 0.46415336E+00 0.34287785E+03</pdfrwt>
<totfact> 0.80854517E-01</totfact>
</mgrwt>
</event>
<event>
 5    0  0.4115852E+000  0.2331038E+03  0.7546771E-02  0.1124474E+00
          1   -1    0    0  502    0 -0.00000000000E+00  0.00000000000E+00  0.12260716524E+04  0.12260716524E+04  0.00000000000E+00 0.  1.
         21   -1    0    0  503  502  0.00000000000E+00 -0.00000000000E+00 -0.13652783403E+03  0.13652783403E+03  0.00000000000E+00 0.  1.
         25    1    1    2    0    0 -0.20146406136E+03  0.14941540539E+03  0.71215284976E+02  0.28915281116E+03  0.12500000000E+03 0.  0.
         21    1    1    2  503  501  0.22883258080E+02 -0.77327104505E+02  0.73241391777E+02  0.10893771643E+03  0.00000000000E+00 0.  1.
          1    1    1    2  501    0  0.17858080328E+03 -0.72088300889E+02  0.94508714162E+03  0.96450895884E+03  0.00000000000E+00 0.  1.
<mgrwt>
<rscale>  4 0.23310376E+03</rscale>
<asrwt>0</asrwt>
<pdfrwt beam="1">  1       21 0.21004283E-01 0.23310376E+03</pdfrwt>
<pdfrwt beam="2">  1        1 0.18862640E+00 0.23310376E+03</pdfrwt>
<totfact> 0.25652464E+03</totfact>
</mgrwt>
</event>
<event>
 5    0  0.4115852E+000  0.2663737E+03  0.7546771E-02  0.1103373E+00
          1   -1    0    0  502    0 -0.00000000000E+00  0.00000000000E+00  0.26590681128E+04  0.26590681128E+04  0.00000000000E+00 0.  1.
         21   -1    0    0  503  502  0.00000000000E+00 -0.00000000000E+00 -0.14677231798E+03  0.14677231798E+03  0.00000000000E+00 0.  1.
         25    1    1    2    0    0 -0.18992085609E+03 -0.10998687115E+03  0.39551143447E+03  0.46927746398E+03  0.12500000000E+03 0.  0.
         21    1    1    2  503  501 -0.99850116249E+01 -0.19131707758E+02 -0.10240287118E+03  0.10465214152E+03  0.00000000000E+00 0.  1.
          1    1    1    2  501    0  0.19990586772E+03  0.12911857891E+03  0.22191872315E+04  0.22319108253E+04  0.00000000000E+00 0.  1.
<mgrwt>
<rscale>  4 0.26637370E+03</rscale>
<asrwt>0</asrwt>
<pdfrwt beam="1">  1       21 0.22580359E-01 0.26637370E+03</pdfrwt>
<pdfrwt beam="2">  1        1 0.40908737E+00 0.26637370E+03</pdfrwt>
<totfact> 0.24974497E+02</totfact>
</mgrwt>
</event>
<event>
 5    0  0.4115852E+000  0.1990553E+03  0.7546771E-02  0.1150539E+00
          2   -1    0    0  502    0 -0.00000000000E+00  0.00000000000E+00  0.24251432108E+04  0.24251432108E+04  0.00000000000E+00 0. -1.
         21   -1    0    0  503  502  0.00000000000E+00 -0.00000000000E+00 -0.30034439304E+03  0.30034439304E+03  0.00000000000E+00 0. -1.
         25    1    1    2    0    0  0.22542155455E+03 -0.15158938770E+02  0.68660116357E+02  0.26717762305E+03  0.12500000000E+03 0.  0.
         21    1    1    2  503  501 -0.81391797701E+02 -0.37251417688E+02 -0.18837968597E+03  0.20856461574E+03  0.00000000000E+00 0. -1.
          2    1    1    2  501    0 -0.14402975685E+03  0.52410356458E+02  0.22445183873E+04  0.22497453650E+04  0.00000000000E+00 0. -1.
<mgrwt>
<rscale>  4 0.19905528E+03</rscale>
<asrwt>0</asrwt>
<pdfrwt beam="1">  1       21 0.46206831E-01 0.19905528E+03</pdfrwt>
<pdfrwt beam="2">  1        2 0.37309894E+00 0.19905528E+03</pdfrwt>
<totfact> 0.25675350E+02</totfact>
</mgrwt>
</event>
<event>
 5    0  0.4115852E+000  0.2004279E+03  0.7546771E-02  0.1149378E+00
          1   -1    0    0  502    0 -0.00000000000E+00  0.00000000000E+00  0.13152629552E+04  0.13152629552E+04  0.00000000000E+00 0.  1.
         21   -1    0    0  503  502  0.00000000000E+00 -0.00000000000E+00 -0.11904994800E+03  0.11904994800E+03  0.00000000000E+00 0. -1.
         25    1    1    2    0    0 -0.21254092487E+03 -0.21931347937E+02  0.35031444626E+03  0.42895202532E+03  0.12500000000E+03 0.  0.
         21    1    1    2  503  501  0.14658177358E+03  0.57327509322E+01 -0.97532337626E+01  0.14701770760E+03  0.00000000000E+00 0. -1.
          1    1    1    2  501    0  0.65959151294E+02  0.16198597004E+02  0.85565179473E+03  0.85834317030E+03  0.00000000000E+00 0.  1.
<mgrwt>
<rscale>  4 0.20042791E+03</rscale>
<asrwt>0</asrwt>
<pdfrwt beam="1">  1       21 0.18315378E-01 0.20042791E+03</pdfrwt>
<pdfrwt beam="2">  1        1 0.20234814E+00 0.20042791E+03</pdfrwt>
<totfact> 0.29215087E+03</totfact>
</mgrwt>
</event>
<event>
 5    0  0.4115852E+000  0.3007782E+03  0.7546771E-02  0.1084852E+00
         21   -1    0    0  503  502  0.00000000000E+00  0.00000000000E+00  0.53873829938E+03  0.53873829938E+03  0.00000000000E+00 0. -1.
          2   -1    0    0  502    0 -0.00000000000E+00 -0.00000000000E+00 -0.77540806987E+03  0.77540806987E+03  0.00000000000E+00 0. -1.
         25    1    1    2    0    0  0.17648529000E+03  0.10223335628E+03  0.39733375749E+03  0.46378640727E+03  0.12500000000E+03 0.  0.
         21    1    1    2  503  501  0.87756993747E+02 -0.15243384297E+02  0.56802976431E+02  0.10564198430E+03  0.00000000000E+00 0.  1.
          2    1    1    2  501    0 -0.26424228375E+03 -0.86989971982E+02 -0.69080650441E+03  0.74471797768E+03  0.00000000000E+00 0. -1.
<mgrwt>
<rscale>  4 0.30077822E+03</rscale>
<asrwt>0</asrwt>
<pdfrwt beam="1">  1       21 0.82882816E-01 0.30077822E+03</pdfrwt>
<pdfrwt beam="2">  1        2 0.11929355E+00 0.30077822E+03</pdfrwt>
<totfact> 0.55971098E+02</totfact>
</mgrwt>
</event>
<event>
 5    0  0.4115852E+000  0.2555327E+03  0.7546771E-02  0.1109857E+00
          2   -1    0    0  502    0 -0.00000000000E+00  0.00000000000E+00  0.20636047505E+04  0.20636047505E+04  0.00000000000E+00 0. -1.
         21   -1    0    0  503  502  0.00000000000E+00 -0.00000000000E+00 -0.55038916773E+02  0.55038916773E+02  0.00000000000E+00 0.  1.
         25    1    1    2    0    0  0.15226885818E+03  0.15125846595E+03  0.33068237161E+03  0.41357074315E+03  0.12500000000E+03 0.  0.
         21    1    1    2  503  501  0.31302526206E+02  0.28420087010E+02  0.15431217225E+03  0.15999936249E+03  0.00000000000E+00 0.  1.
          2    1    1    2  501    0 -0.18357138439E+03 -0.17967855296E+03  0.15235712899E+04  0.15450735617E+04  0.00000000000E+00 0. -1.
<mgrwt>
<rscale>  4 0.25553271E+03</rscale>
<asrwt>0</asrwt>
<pdfrwt beam="1">  1       21 0.84675272E-02 0.25553271E+03</pdfrwt>
<pdfrwt beam="2">  1        2 0.31747760E+00 0.25553271E+03</pdfrwt>
<totfact> 0.94671997E+03</totfact>
</mgrwt>
</event>
<event>
 5    0  0.4115852E+000  0.2325051E+03  0.7546771E-02  0.1124889E+00
          2   -1    0    0  502    0 -0.00000000000E+00  0.00000000000E+00  0.70691438583E+03  0.70691438583E+03  0.00000000000E+00 0. -1.
         21   -1    0    0  503  502  0.00000000000E+00 -0.00000000000E+00 -0.20551078337E+03  0.20551078337E+03  0.00000000000E+00 0. -1.
         25    1    1    2    0    0 -0.14479459006E+02  0.20745775907E+03  0.32160745732E+03  0.40287061588E+03  0.12500000000E+03 0.  0.
         21    1    1    2  503  501  0.16416393677E+02 -0.18773413077E+02 -0.13785084686E+03  0.14008852558E+03  0.00000000000E+00 0. -1.
          2    1    1    2  501    0 -0.19369346713E+01 -0.18868434600E+03  0.31764699199E+03  0.36946602775E+03  0.00000000000E+00 0. -1.
<mgrwt>
<rscale>  4 0.23250506E+03</rscale>
<asrwt>0</asrwt>
<pdfrwt beam="1">  1       21 0.31617044E-01 0.23250506E+03</pdfrwt>
<pdfrwt beam="2">  1        2 0.10875606E+00 0.23250506E+03</pdfrwt>
<totfact> 0.49594485E+03</totfact>
</mgrwt>
</event>
<event>
 5    0  0.4115852E+000  0.2507919E+03  0.7546771E-02  0.1112805E+00
         21   -1    0    0  503  502  0.00000000000E+00  0.00000000000E+00  0.18605015489E+03  0.18605015489E+03  0.00000000000E+00 0. -1.
          2   -1    0    0  502    0 -0.00000000000E+00 -0.00000000000E+00 -0.13336456588E+04  0.13336456588E+04  0.00000000000E+00 0. -1.
         25    1    1    2    0    0 -0.19371365738E+03 -0.95332137721E+02  0.16357382597E+02  0.25001152274E+03  0.12500000000E+03 0.  0.
         21    1    1    2  503  501  0.26248426601E+02 -0.44160409535E+02  0.27631008380E+02  0.58331760589E+02  0.00000000000E+00 0. -1.
          2    1    1    2  501    0  0.16746523078E+03  0.13949254726E+03 -0.11915838949E+04  0.12113525304E+04  0.00000000000E+00 0. -1.
<mgrwt>
<rscale>  4 0.25079191E+03</rscale>
<asrwt>0</asrwt>
<pdfrwt beam="1">  1       21 0.28623102E-01 0.25079191E+03</pdfrwt>
<pdfrwt beam="2">  1        2 0.20517625E+00 0.25079191E+03</pdfrwt>
<totfact> 0.24478759E+03</totfact>
</mgrwt>
</event>
<event>
 5    0  0.4115852E+000  0.4680779E+03  0.7546771E-02  0.1022464E+00
          2   -1    0    0  502    0 -0.00000000000E+00  0.00000000000E+00  0.17654826722E+04  0.17654826722E+04  0.00000000000E+00 0. -1.
         21   -1    0    0  503  502  0.00000000000E+00 -0.00000000000E+00 -0.40264513721E+03  0.40264513721E+03  0.00000000000E+00 0. -1.
         25    1    1    2    0    0 -0.22339911610E+01 -0.39989446540E+03 -0.15417943837E+02  0.41926517524E+03  0.12500000000E+03 0.  0.
         21    1    1    2  503  501 -0.23828034913E+02 -0.58485561406E+02 -0.14487400848E+03  0.15804054693E+03  0.00000000000E+00 0. -1.
          2    1    1    2  501    0  0.26062026074E+02  0.45838002681E+03  0.15231294873E+04  0.15908220873E+04  0.00000000000E+00 0. -1.
<mgrwt>
<rscale>  4 0.46807786E+03</rscale>
<asrwt>0</asrwt>
<pdfrwt beam="1">  1       21 0.61945407E-01 0.46807786E+03</pdfrwt>
<pdfrwt beam="2">  1        2 0.27161271E+00 0.46807786E+03</pdfrwt>
<totfact> 0.26739620E+02</totfact>
</mgrwt>
</event>
<event>
 5    0  0.4115852E+000  0.3709934E+03  0.7546771E-02  0.1054314E+00
          1   -1    0    0  502    0 -0.00000000000E+00  0.00000000000E+00  0.27054715298E+04  0.27054715298E+04  0.00000000000E+00 0.  1.
         21   -1    0    0  503  502  0.00000000000E+00 -0.00000000000E+00 -0.40677636749E+03  0.40677636749E+03  0.00000000000E+00 0. -1.
         25    1    1    2    0    0 -0.89373354833E+02  0.29625128563E+03 -0.16151393618E+03  0.37076161124E+03  0.12500000000E+03 0.  0.
         21    1    1    2  503  501 -0.10164603824E+03 -0.10405949231E+01 -0.10858392707E+03  0.14873960181E+03  0.00000000000E+00 0. -1.
          1    1    1    2  501    0  0.19101939308E+03 -0.29521069070E+03  0.25687930256E+04  0.25927466842E+04  0.00000000000E+00 0.  1.
<mgrwt>
<rscale>  4 0.37099336E+03</rscale>
<asrwt>0</asrwt>
<pdfrwt beam="1">  1       21 0.62580981E-01 0.37099336E+03</pdfrwt>
<pdfrwt beam="2">  1        1 0.41622638E+00 0.37099336E+03</pdfrwt>
<totfact> 0.27435210E+01</totfact>
</mgrwt>
</event>
<event>
 5    0  0.4115852E+000  0.1774434E+03  0.7546771E-02  0.1170301E+00
         21   -1    0    0  503  502  0.00000000000E+00  0.00000000000E+00  0.24962915576E+03  0.24962915576E+03  0.00000000000E+00 0. -1.
          2   -1    0    0  502    0 -0.00000000000E+00 -0.00000000000E+00 -0.82414792084E+03  0.82414792084E+03  0.00000000000E+00 0.  1.
         25    1    1    2    0    0 -0.13385697406E+03 -0.15456731960E+03 -0.24677758197E+03  0.34399552432E+03  0.12500000000E+03 0.  0.
         21    1    1    2  503  501  0.10755224465E+03  0.56990073080E+02  0.17711642133E+03  0.21490830711E+03  0.00000000000E+00 0. -1.
          2    1    1    2  501    0  0.26304729403E+02  0.97577246519E+02 -0.50485760443E+03  0.51487324516E+03  0.00000000000E+00 0.  1.
<mgrwt>
<rscale>  4 0.17744341E+03</rscale>
<asrwt>0</asrwt>
<pdfrwt beam="1">  1       21 0.38404486E-01 0.17744341E+03</pdfrwt>
<pdfrwt beam="2">  1        2 0.12679198E+00 0.17744341E+03</pdfrwt>
<totfact> 0.28447993E+03</totfact>
</mgrwt>
</event>
<event>
 5    0  0.4115852E+000  0.2312027E+03  0.7546771E-02  0.1125796E+00
          2   -1    0    0  502    0 -0.00000000000E+00  0.00000000000E+00  0.95544972474E+03  0.95544972474E+03  0.00000000000E+00 0.  1.
         21   -1    0    0  503  502  0.00000000000E+00 -0.00000000000E+00 -0.63028384305E+03  0.63028384305E+03  0.00000000000E+00 0. -1.
         25    1    1    2    0    0 -0.18275665620E+03  0.11168697097E+03 -0.88029774231E+02  0.26315055770E+03  0.12500000000E+03 0.  0.
         21    1    1    2  503  501  0.18971513122E+02 -0.90399134655E+01 -0.44367956722E+03  0.44417698805E+03  0.00000000000E+00 0. -1.
          2    1    1    2  501    0  0.16378514307E+03 -0.10264705750E+03  0.85687522315E+03  0.87840602204E+03  0.00000000000E+00 0.  1.
<mgrwt>
<rscale>  4 0.23120267E+03</rscale>
<asrwt>0</asrwt>
<pdfrwt beam="1">  1       21 0.96966745E-01 0.23120267E+03</pdfrwt>
<pdfrwt beam="2">  1        2 0.14699227E+00 0.23120267E+03</pdfrwt>
<totfact> 0.30548857E+02</totfact>
</mgrwt>
</event>
<event>
 5    0  0.4115852E+000  0.4116736E+03  0.7546771E-02  0.1039811E+00
         21   -1    0    0  503  502  0.00000000000E+00  0.00000000000E+00  0.24992165011E+03  0.24992165011E+03  0.00000000000E+00 0. -1.
          3   -1    0    0  502    0 -0.00000000000E+00 -0.00000000000E+00 -0.20714673016E+04  0.20714673016E+04  0.00000000000E+00 0.  1.
         25    1    1    2    0    0 -0.10636597344E+03 -0.37660197573E+03 -0.12520369634E+02  0.41100429205E+03  0.12500000000E+03 0.  0.
         21    1    1    2  503  501 -0.14180075597E+03  0.35130154571E+02 -0.20488607030E+03  0.25163442522E+03  0.00000000000E+00 0. -1.
          3    1    1    2  501    0  0.24816672940E+03  0.34147182116E+03 -0.16041392115E+04  0.16587502344E+04  0.00000000000E+00 0.  1.
<mgrwt>
<rscale>  4 0.41167361E+03</rscale>
<asrwt>0</asrwt>
<pdfrwt beam="1">  1       21 0.38449485E-01 0.41167361E+03</pdfrwt>
<pdfrwt beam="2">  1        3 0.31868728E+00 0.41167361E+03</pdfrwt>
<totfact> 0.10475143E+01</totfact>
</mgrwt>
</event>
<event>
 5    0  0.4115852E+000  0.2763857E+03  0.7546771E-02  0.1097680E+00
         21   -1    0    0  503  502  0.00000000000E+00  0.00000000000E+00  0.47680183960E+03  0.47680183960E+03  0.00000000000E+00 0. -1.
          1   -1    0    0  502    0 -0.00000000000E+00 -0.00000000000E+00 -0.57068643015E+03  0.57068643015E+03  0.00000000000E+00 0.  1.
         25    1    1    2    0    0 -0.24057507689E+03  0.67074553823E+02  0.33070683470E+03  0.43285953138E+03  0.12500000000E+03 0.  0.
         21    1    1    2  503  501  0.13643349826E+02  0.28920243224E+02  0.61689466303E+02  0.69484614954E+02  0.00000000000E+00 0.  1.
          1    1    1    2  501    0  0.22693172706E+03 -0.95994797047E+02 -0.48628089156E+03  0.54514412342E+03  0.00000000000E+00 0.  1.
<mgrwt>
<rscale>  4 0.27638568E+03</rscale>
<asrwt>0</asrwt>
<pdfrwt beam="1">  1       21 0.73354129E-01 0.27638568E+03</pdfrwt>
<pdfrwt beam="2">  1        1 0.87797913E-01 0.27638568E+03</pdfrwt>
<totfact> 0.66991712E+02</totfact>
</mgrwt>
</event>
<event>
 5    0  0.4115852E+000  0.2006771E+03  0.7546771E-02  0.1149169E+00
          2   -1    0    0  502    0 -0.00000000000E+00  0.00000000000E+00  0.23808557762E+04  0.23808557762E+04  0.00000000000E+00 0.  1.
         21   -1    0    0  503  502  0.00000000000E+00 -0.00000000000E+00 -0.43809932543E+03  0.43809932543E+03  0.00000000000E+00 0. -1.
         25    1    1    2    0    0  0.16547643910E+03  0.19564624417E+03 -0.34110285244E+03  0.44456277475E+03  0.12500000000E+03 0.  0.
         21    1    1    2  503  501 -0.44272706355E+02 -0.96896647869E+02  0.24090219723E+02  0.10922166261E+03  0.00000000000E+00 0.  1.
          2    1    1    2  501    0 -0.12120373275E+03 -0.98749596298E+02  0.22597690835E+04  0.22651706643E+04  0.00000000000E+00 0.  1.
<mgrwt>
<rscale>  4 0.20067713E+03</rscale>
<asrwt>0</asrwt>
<pdfrwt beam="1">  1       21 0.67399898E-01 0.20067713E+03</pdfrwt>
<pdfrwt beam="2">  1        2 0.36628550E+00 0.20067713E+03</pdfrwt>
<totfact> 0.12140489E+02</totfact>
</mgrwt>
</event>
<event>
 5    0  0.4115852E+000  0.2366835E+03  0.7546771E-02  0.1122022E+00
          2   -1    0    0  502    0 -0.00000000000E+00  0.00000000000E+00  0.25393445293E+04  0.25393445293E+04  0.00000000000E+00 0. -1.
         21   -1    0    0  503  502  0.00000000000E+00 -0.00000000000E+00 -0.55779502169E+02  0.55779502169E+02  0.00000000000E+00 0.  1.
         25    1    1    2    0    0 -0.22666739037E+03 -0.14583087955E+03  0.54274470173E+03  0.61874191917E+03  0.12500000000E+03 0.  0.
         21    1    1    2  503  501  0.12014231398E+03 -0.15865793923E+02  0.29081993836E+03  0.31505893984E+03  0.00000000000E+00 0.  1.
          2    1    1    2  501    0  0.10652507639E+03  0.16169667347E+03  0.16500003870E+04  0.16613231725E+04  0.00000000000E+00 0. -1.
<mgrwt>
<rscale>  4 0.23668353E+03</rscale>
<asrwt>0</asrwt>
<pdfrwt beam="1">  1       21 0.85814639E-02 0.23668353E+03</pdfrwt>
<pdfrwt beam="2">  1        2 0.39066830E+00 0.23668353E+03</pdfrwt>
<totfact> 0.51820632E+03</totfact>
</mgrwt>
</event>
<event>
 5    0  0.4115852E+000  0.3642237E+03  0.7546771E-02  0.1056924E+00
          2   -1    0    0  502    0 -0.00000000000E+00  0.00000000000E+00  0.96381746637E+03  0.96381746637E+03  0.00000000000E+00 0. -1.
         21   -1    0    0  503  502  0.00000000000E+00 -0.00000000000E+00 -0.12058449326E+04  0.12058449326E+04  0.00000000000E+00 0. -1.
         25    1    1    2    0    0 -0.36396219402E+03  0.39043625453E+01 -0.98647341394E+03  0.10588855080E+04  0.12500000000E+03 0.  0.
         21    1    1    2  503  501  0.22551971076E+02 -0.77559496903E+01 -0.15077823683E+03  0.15265262151E+03  0.00000000000E+00 0. -1.
          2    1    1    2  501    0  0.34141022294E+03  0.38515871450E+01  0.89522418455E+03  0.95812426942E+03  0.00000000000E+00 0. -1.
<mgrwt>
<rscale>  4 0.36422373E+03</rscale>
<asrwt>0</asrwt>
<pdfrwt beam="1">  1       21 0.18551460E+00 0.36422373E+03</pdfrwt>
<pdfrwt beam="2">  1        2 0.14827961E+00 0.36422373E+03</pdfrwt>
<totfact> 0.51445346E+01</totfact>
</mgrwt>
</event>
<event>
 5    0  0.4115852E+000  0.2478315E+03  0.7546771E-02  0.1114683E+00
         21   -1    0    0  501  502  0.00000000000E+00  0.00000000000E+00  0.45894775115E+03  0.45894775115E+03  0.00000000000E+00 0.  1.
         -1   -1    0    0    0  501 -0.00000000000E+00 -0.00000000000E+00 -0.34302419262E+03  0.34302419262E+03  0.00000000000E+00 0.  1.
         25    1    1    2    0    0  0.80410452093E+02  0.21836390313E+03  0.85291747300E+02  0.27757578632E+03  0.12500000000E+03 0.  0.
         21    1    1    2  503  502 -0.74155782688E+01 -0.22086582390E+02  0.23241972245E+03  0.23358453568E+03  0.00000000000E+00 0.  1.
         -1    1    1    2    0  503 -0.72994873824E+02 -0.19627732074E+03 -0.20178791122E+03  0.29081162177E+03  0.00000000000E+00 0.  1.
<mgrwt>
<rscale>  4 0.24783145E+03</rscale>
<asrwt>0</asrwt>
<pdfrwt beam="1">  1       21 0.70607346E-01 0.24783145E+03</pdfrwt>
<pdfrwt beam="2">  1       -1 0.52772953E-01 0.24783145E+03</pdfrwt>
<totfact> 0.61015576E+02</totfact>
</mgrwt>
</event>
<event>
 5    0  0.4115852E+000  0.2991739E+03  0.7546771E-02  0.1085654E+00
         21   -1    0    0  503  502  0.00000000000E+00  0.00000000000E+00  0.82627609515E+03  0.82627609515E+03  0.00000000000E+00 0.  1.
          2   -1    0    0  502    0 -0.00000000000E+00 -0.00000000000E+00 -0.17928143009E+03  0.17928143009E+03  0.00000000000E+00 0.  1.
         25    1    1    2    0    0  0.20098132532E+03  0.15003896210E+03  0.31305450603E+03  0.42015866886E+03  0.12500000000E+03 0.  0.
         21    1    1    2  503  501  0.76994810690E+02 -0.74215714743E+02  0.26979078738E+03  0.29021240866E+03  0.00000000000E+00 0. -1.
          2    1    1    2  501    0 -0.27797613601E+03 -0.75823247359E+02  0.64149371648E+02  0.29518644771E+03  0.00000000000E+00 0.  1.
<mgrwt>
<rscale>  4 0.29917386E+03</rscale>
<asrwt>0</asrwt>
<pdfrwt beam="1">  1       21 0.12711940E+00 0.29917386E+03</pdfrwt>
<pdfrwt beam="2">  1        2 0.27581759E-01 0.29917386E+03</pdfrwt>
<totfact> 0.10339841E+03</totfact>
</mgrwt>
</event>
<event>
 5    0  0.4115852E+000  0.2411017E+03  0.7546771E-02  0.1119061E+00
         21   -1    0    0  503  502  0.00000000000E+00  0.00000000000E+00  0.12188161922E+03  0.12188161922E+03  0.00000000000E+00 0. -1.
          1   -1    0    0  502    0 -0.00000000000E+00 -0.00000000000E+00 -0.79554382052E+03  0.79554382052E+03  0.00000000000E+00 0. -1.
         25    1    1    2    0    0  0.19346217342E+03 -0.15426729748E+03 -0.35603327041E+03  0.45123242487E+03  0.12500000000E+03 0.  0.
         21    1    1    2  503  501 -0.36666321051E+02  0.53677103105E+02  0.30155299399E+02  0.71658862529E+02  0.00000000000E+00 0. -1.
          1    1    1    2  501    0 -0.15679585237E+03  0.10059019437E+03 -0.34778423028E+03  0.39453415233E+03  0.00000000000E+00 0. -1.
<mgrwt>
<rscale>  4 0.24110172E+03</rscale>
<asrwt>0</asrwt>
<pdfrwt beam="1">  1       21 0.18751018E-01 0.24110172E+03</pdfrwt>
<pdfrwt beam="2">  1        1 0.12239136E+00 0.24110172E+03</pdfrwt>
<totfact> 0.66629735E+03</totfact>
</mgrwt>
</event>
<event>
 5    0  0.4115852E+000  0.3464734E+03  0.7546771E-02  0.1064072E+00
          2   -1    0    0  502    0 -0.00000000000E+00  0.00000000000E+00  0.19016319077E+04  0.19016319077E+04  0.00000000000E+00 0. -1.
         21   -1    0    0  503  502  0.00000000000E+00 -0.00000000000E+00 -0.15006849115E+03  0.15006849115E+03  0.00000000000E+00 0. -1.
         25    1    1    2    0    0  0.30683522867E+03  0.17834735171E+03  0.45688468765E+03  0.59188195886E+03  0.12500000000E+03 0.  0.
         21    1    1    2  503  501 -0.58536150804E+02  0.15900423143E+02 -0.50043904879E+02  0.78636485314E+02  0.00000000000E+00 0. -1.
          2    1    1    2  501    0 -0.24829907787E+03 -0.19424777485E+03  0.13447226338E+04  0.13811819547E+04  0.00000000000E+00 0. -1.
<mgrwt>
<rscale>  4 0.34647337E+03</rscale>
<asrwt>0</asrwt>
<pdfrwt beam="1">  1       21 0.23087462E-01 0.34647337E+03</pdfrwt>
<pdfrwt beam="2">  1        2 0.29255874E+00 0.34647337E+03</pdfrwt>
<totfact> 0.17781447E+03</totfact>
</mgrwt>
</event>
<event>
 5    0  0.4115852E+000  0.2740087E+03  0.7546771E-02  0.1099007E+00
         21   -1    0    0  503  502  0.00000000000E+00  0.00000000000E+00  0.36791168070E+03  0.36791168070E+03  0.00000000000E+00 0. -1.
          2   -1    0    0  502    0 -0.00000000000E+00 -0.00000000000E+00 -0.15832498632E+04  0.15832498632E+04  0.00000000000E+00 0. -1.
         25    1    1    2    0    0  0.14195595922E+02 -0.26674598576E+03  0.57749922952E+02  0.30052452390E+03  0.12500000000E+03 0.  0.
         21    1    1    2  503  501 -0.13453414156E+02  0.24202611690E+02  0.17763399133E+03  0.17977929703E+03  0.00000000000E+00 0. -1.
          2    1    1    2  501    0 -0.74218176590E+00  0.24254337407E+03 -0.14507220968E+04  0.14708577229E+04  0.00000000000E+00 0. -1.
<mgrwt>
<rscale>  4 0.27400874E+03</rscale>
<asrwt>0</asrwt>
<pdfrwt beam="1">  1       21 0.56601797E-01 0.27400874E+03</pdfrwt>
<pdfrwt beam="2">  1        2 0.24357690E+00 0.27400874E+03</pdfrwt>
<totfact> 0.44171251E+02</totfact>
</mgrwt>
</event>
<event>
 5    0  0.4115852E+000  0.2987984E+03  0.7546771E-02  0.1085843E+00
         21   -1    0    0  503  502  0.00000000000E+00  0.00000000000E+00  0.99992252434E+03  0.99992252434E+03  0.00000000000E+00 0.  1.
          2   -1    0    0  502    0 -0.00000000000E+00 -0.00000000000E+00 -0.26428203540E+03  0.26428203540E+03  0.00000000000E+00 0.  1.
         25    1    1    2    0    0  0.30721571440E+03  0.12528069730E+03  0.70494387707E+03  0.78908023553E+03  0.12500000000E+03 0.  0.
         21    1    1    2  503  501 -0.64629792903E+02 -0.19035292532E+02  0.16497000843E+03  0.17819780070E+03  0.00000000000E+00 0.  1.
          2    1    1    2  501    0 -0.24258592150E+03 -0.10624540477E+03 -0.13427339655E+03  0.29692652351E+03  0.00000000000E+00 0.  1.
<mgrwt>
<rscale>  4 0.29879841E+03</rscale>
<asrwt>0</asrwt>
<pdfrwt beam="1">  1       21 0.15383423E+00 0.29879841E+03</pdfrwt>
<pdfrwt beam="2">  1        2 0.40658775E-01 0.29879841E+03</pdfrwt>
<totfact> 0.40941757E+02</totfact>
</mgrwt>
</event>
<event>
 5    0  0.4115852E+000  0.2869899E+03  0.7546771E-02  0.1091931E+00
          1   -1    0    0  502    0 -0.00000000000E+00  0.00000000000E+00  0.14582818677E+04  0.14582818677E+04  0.00000000000E+00 0. -1.
         21   -1    0    0  503  502  0.00000000000E+00 -0.00000000000E+00 -0.25388578129E+03  0.25388578129E+03  0.00000000000E+00 0.  1.
         25    1    1    2    0    0  0.25011198853E+03 -0.67317455511E+02 -0.15278181035E+02  0.28800359275E+03  0.12500000000E+03 0.  0.
         21    1    1    2  503  501  0.46980155159E+01  0.24550694083E+02 -0.87859918603E+02  0.91346446163E+02  0.00000000000E+00 0.  1.
          1    1    1    2  501    0 -0.25481000404E+03  0.42766761428E+02  0.13075341861E+04  0.13328176101E+04  0.00000000000E+00 0. -1.
<mgrwt>
<rscale>  4 0.28698987E+03</rscale>
<asrwt>0</asrwt>
<pdfrwt beam="1">  1       21 0.39059352E-01 0.28698987E+03</pdfrwt>
<pdfrwt beam="2">  1        1 0.22435105E+00 0.28698987E+03</pdfrwt>
<totfact> 0.51815011E+02</totfact>
</mgrwt>
</event>
<event>
 5    0  0.4115852E+000  0.4276257E+03  0.7546771E-02  0.1034613E+00
         -4   -1    0    0    0  501 -0.00000000000E+00  0.00000000000E+00  0.54285526780E+03  0.54285526780E+03  0.00000000000E+00 0.  1.
         21   -1    0    0  501  502  0.00000000000E+00 -0.00000000000E+00 -0.61832051659E+03  0.61832051659E+03  0.00000000000E+00 0. -1.
         25    1    1    2    0    0  0.26163749679E+03 -0.28859876476E+03  0.35877932854E+02  0.41067706634E+03  0.12500000000E+03 0.  0.
         21    1    1    2  503  502  0.24651332597E+02 -0.23514111810E+02 -0.28915807252E+03  0.29115801990E+03  0.00000000000E+00 0. -1.
         -4    1    1    2    0  503 -0.28628882939E+03  0.31211287657E+03  0.17781489087E+03  0.45934069814E+03  0.00000000000E+00 0.  1.
<mgrwt>
<rscale>  4 0.42762574E+03</rscale>
<asrwt>0</asrwt>
<pdfrwt beam="1">  1       21 0.95126233E-01 0.42762574E+03</pdfrwt>
<pdfrwt beam="2">  1       -4 0.83516196E-01 0.42762574E+03</pdfrwt>
<totfact> 0.47194625E+01</totfact>
</mgrwt>
</event>
<event>
 5    0  0.4115852E+000  0.2884014E+03  0.7546771E-02  0.1091187E+00
         21   -1    0    0  503  502  0.00000000000E+00  0.00000000000E+00  0.18957913094E+03  0.18957913094E+03  0.00000000000E+00 0. -1.
          2   -1    0    0  502    0 -0.00000000000E+00 -0.00000000000E+00 -0.72619613568E+03  0.72619613568E+03  0.00000000000E+00 0. -1.
         25    1    1    2    0    0 -0.90127164696E+02  0.25646313211E+03 -0.20138660050E+02  0.29987799115E+03  0.12500000000E+03 0.  0.
         21    1    1    2  503  501  0.52929999199E+02 -0.10218478807E+01 -0.20509422396E+02  0.56773809061E+02  0.00000000000E+00 0. -1.
          2    1    1    2  501    0  0.37197165497E+02 -0.25544128423E+03 -0.49596892230E+03  0.55912346641E+03  0.00000000000E+00 0. -1.
<mgrwt>
<rscale>  4 0.28840137E+03</rscale>
<asrwt>0</asrwt>
<pdfrwt beam="1">  1       21 0.29166020E-01 0.28840137E+03</pdfrwt>
<pdfrwt beam="2">  1        2 0.11172248E+00 0.28840137E+03</pdfrwt>
<totfact> 0.55373405E+03</totfact>
</mgrwt>
</event>
<event>
 5    0  0.4115852E+000  0.2598938E+03  0.7546771E-02  0.1107207E+00
          2   -1    0    0  502    0 -0.00000000000E+00  0.00000000000E+00  0.98987510528E+03  0.98987510528E+03  0.00000000000E+00 0. -1.
         21   -1    0    0  503  502  0.00000000000E+00 -0.00000000000E+00 -0.19312847074E+03  0.19312847074E+03  0.00000000000E+00 0. -1.
         25    1    1    2    0    0  0.36931174046E+02  0.24266549978E+03  0.59239133293E+02  0.28175296150E+03  0.12500000000E+03 0.  0.
         21    1    1    2  503  501 -0.26012114490E+02 -0.17380347381E+02 -0.62588026467E+02  0.69971191445E+02  0.00000000000E+00 0. -1.
          2    1    1    2  501    0 -0.10919059556E+02 -0.22528515240E+03  0.80009552772E+03  0.83127942307E+03  0.00000000000E+00 0. -1.
<mgrwt>
<rscale>  4 0.25989385E+03</rscale>
<asrwt>0</asrwt>
<pdfrwt beam="1">  1       21 0.29712073E-01 0.25989385E+03</pdfrwt>
<pdfrwt beam="2">  1        2 0.15228847E+00 0.25989385E+03</pdfrwt>
<totfact> 0.35833392E+03</totfact>
</mgrwt>
</event>
<event>
 5    0  0.4115852E+000  0.3483302E+03  0.7546771E-02  0.1063302E+00
          3   -1    0    0  502    0 -0.00000000000E+00  0.00000000000E+00  0.16871593111E+04  0.16871593111E+04  0.00000000000E+00 0. -1.
         21   -1    0    0  503  502  0.00000000000E+00 -0.00000000000E+00 -0.21445136326E+03  0.21445136326E+03  0.00000000000E+00 0. -1.
         25    1    1    2    0    0  0.27721090471E+02  0.30922780751E+03  0.38366343270E+03  0.50912957622E+03  0.12500000000E+03 0.  0.
         21    1    1    2  503  501 -0.15572795455E+02  0.20936891155E+02 -0.12838884035E+03  0.13101358592E+03  0.00000000000E+00 0. -1.
          3    1    1    2  501    0 -0.12148295016E+02 -0.33016469866E+03  0.12174333555E+04  0.12614675122E+04  0.00000000000E+00 0. -1.
<mgrwt>
<rscale>  4 0.34833019E+03</rscale>
<asrwt>0</asrwt>
<pdfrwt beam="1">  1       21 0.32992519E-01 0.34833019E+03</pdfrwt>
<pdfrwt beam="2">  1        3 0.25956296E+00 0.34833019E+03</pdfrwt>
<totfact> 0.30373456E+01</totfact>
</mgrwt>
</event>
<event>
 5    0  0.4115852E+000  0.2902909E+03  0.7546771E-02  0.1090197E+00
         21   -1    0    0  503  502  0.00000000000E+00  0.00000000000E+00  0.68986238633E+02  0.68986238633E+02  0.00000000000E+00 0. -1.
          2   -1    0    0  502    0 -0.00000000000E+00 -0.00000000000E+00 -0.16372610622E+04  0.16372610622E+04  0.00000000000E+00 0. -1.
         25    1    1    2    0    0  0.18343598473E+03  0.16208793463E+03 -0.49662502585E+03  0.56761137704E+03  0.12500000000E+03 0.  0.
         21    1    1    2  503  501  0.47811551457E+01  0.32017545181E+02  0.10470588967E+01  0.32389488670E+02  0.00000000000E+00 0. -1.
          2    1    1    2  501    0 -0.18821713987E+03 -0.19410547981E+03 -0.10726968567E+04  0.11062464352E+04  0.00000000000E+00 0. -1.
<mgrwt>
<rscale>  4 0.29029094E+03</rscale>
<asrwt>0</asrwt>
<pdfrwt beam="1">  1       21 0.10613267E-01 0.29029094E+03</pdfrwt>
<pdfrwt beam="2">  1        2 0.25188633E+00 0.29029094E+03</pdfrwt>
<totfact> 0.10522242E+04</totfact>
</mgrwt>
</event>
<event>
 5    0  0.4115852E+000  0.2459627E+03  0.7546771E-02  0.1115883E+00
         21   -1    0    0  503  502  0.00000000000E+00  0.00000000000E+00  0.56241394076E+03  0.56241394076E+03  0.00000000000E+00 0.  1.
          2   -1    0    0  502    0 -0.00000000000E+00 -0.00000000000E+00 -0.58249534019E+03  0.58249534019E+03  0.00000000000E+00 0. -1.
         25    1    1    2    0    0 -0.30972271528E+03  0.89660436128E+00 -0.21836295901E+03  0.39904429093E+03  0.12500000000E+03 0.  0.
         21    1    1    2  503  501  0.13075741697E+03  0.12718585997E+01  0.43207503932E+03  0.45142879762E+03  0.00000000000E+00 0.  1.
          2    1    1    2  501    0  0.17896529831E+03 -0.21684629609E+01 -0.23379347974E+03  0.29443619241E+03  0.00000000000E+00 0. -1.
<mgrwt>
<rscale>  4 0.24596266E+03</rscale>
<asrwt>0</asrwt>
<pdfrwt beam="1">  1       21 0.86525222E-01 0.24596266E+03</pdfrwt>
<pdfrwt beam="2">  1        2 0.89614668E-01 0.24596266E+03</pdfrwt>
<totfact> 0.73355318E+02</totfact>
</mgrwt>
</event>
<event>
 5    0  0.4115852E+000  0.2392651E+03  0.7546771E-02  0.1120283E+00
          2   -1    0    0  502    0 -0.00000000000E+00  0.00000000000E+00  0.30723363302E+04  0.30723363302E+04  0.00000000000E+00 0.  1.
         21   -1    0    0  503  502  0.00000000000E+00 -0.00000000000E+00 -0.10798001991E+03  0.10798001991E+03  0.00000000000E+00 0.  1.
         25    1    1    2    0    0 -0.17509714733E+03  0.10261681153E+03  0.24526871537E+04  0.24642419717E+04  0.12500000000E+03 0.  0.
         21    1    1    2  503  501 -0.23417244340E+02 -0.33140937637E+02 -0.79144655981E+02  0.88941360740E+02  0.00000000000E+00 0.  1.
          2    1    1    2  501    0  0.19851439167E+03 -0.69475873891E+02  0.59081381252E+03  0.62713301764E+03  0.00000000000E+00 0.  1.
<mgrwt>
<rscale>  4 0.23926512E+03</rscale>
<asrwt>0</asrwt>
<pdfrwt beam="1">  1       21 0.16612313E-01 0.23926512E+03</pdfrwt>
<pdfrwt beam="2">  1        2 0.47266706E+00 0.23926512E+03</pdfrwt>
<totfact> 0.78230333E+02</totfact>
</mgrwt>
</event>
<event>
 5    0  0.4115852E+000  0.2864779E+03  0.7546771E-02  0.1092203E+00
          1   -1    0    0  502    0 -0.00000000000E+00  0.00000000000E+00  0.77727821916E+03  0.77727821916E+03  0.00000000000E+00 0. -1.
         21   -1    0    0  503  502  0.00000000000E+00 -0.00000000000E+00 -0.15852885864E+04  0.15852885864E+04  0.00000000000E+00 0. -1.
         25    1    1    2    0    0 -0.24321972220E+03  0.12619252210E+03 -0.79525206213E+03  0.85037122965E+03  0.12500000000E+03 0.  0.
         21    1    1    2  503  501  0.71467532032E+01 -0.23731011106E+02 -0.74017887069E+03  0.74059367914E+03  0.00000000000E+00 0. -1.
          1    1    1    2  501    0  0.23607296899E+03 -0.10246151099E+03  0.72742056556E+03  0.77160189678E+03  0.00000000000E+00 0. -1.
<mgrwt>
<rscale>  4 0.28647792E+03</rscale>
<asrwt>0</asrwt>
<pdfrwt beam="1">  1       21 0.24389055E+00 0.28647792E+03</pdfrwt>
<pdfrwt beam="2">  1        1 0.11958127E+00 0.28647792E+03</pdfrwt>
<totfact> 0.17598464E+01</totfact>
</mgrwt>
</event>
<event>
 5    0  0.4115852E+000  0.2378239E+03  0.7546771E-02  0.1121251E+00
         21   -1    0    0  503  502  0.00000000000E+00  0.00000000000E+00  0.14007154738E+03  0.14007154738E+03  0.00000000000E+00 0.  1.
          2   -1    0    0  502    0 -0.00000000000E+00 -0.00000000000E+00 -0.55483066437E+03  0.55483066437E+03  0.00000000000E+00 0.  1.
         25    1    1    2    0    0  0.57807228282E+02 -0.20411763659E+03 -0.64132251677E+02  0.25444769779E+03  0.12500000000E+03 0.  0.
         21    1    1    2  503  501 -0.33504930151E+02  0.54539807343E+01  0.30408924558E+01  0.34081861410E+02  0.00000000000E+00 0.  1.
          2    1    1    2  501    0 -0.24302298131E+02  0.19866365585E+03 -0.35366775777E+03  0.40637265254E+03  0.00000000000E+00 0.  1.
<mgrwt>
<rscale>  4 0.23782388E+03</rscale>
<asrwt>0</asrwt>
<pdfrwt beam="1">  1       21 0.21549469E-01 0.23782388E+03</pdfrwt>
<pdfrwt beam="2">  1        2 0.85358565E-01 0.23782388E+03</pdfrwt>
<totfact> 0.13792999E+04</totfact>
</mgrwt>
</event>
<event>
 5    0  0.4115852E+000  0.2575359E+03  0.7546771E-02  0.1108633E+00
         21   -1    0    0  503  502  0.00000000000E+00  0.00000000000E+00  0.15172428584E+03  0.15172428584E+03  0.00000000000E+00 0.  1.
          1   -1    0    0  502    0 -0.00000000000E+00 -0.00000000000E+00 -0.18053532933E+04  0.18053532933E+04  0.00000000000E+00 0. -1.
         25    1    1    2    0    0  0.11024789543E+03  0.22405357464E+03 -0.34598019134E+02  0.28138341402E+03  0.12500000000E+03 0.  0.
         21    1    1    2  503  501 -0.78909527729E+02 -0.16125038815E+03 -0.26640046698E+03  0.32124384827E+03  0.00000000000E+00 0.  1.
          1    1    1    2  501    0 -0.31338367700E+02 -0.62803186489E+02 -0.13526305214E+04  0.13544503169E+04  0.00000000000E+00 0. -1.
<mgrwt>
<rscale>  4 0.25753592E+03</rscale>
<asrwt>0</asrwt>
<pdfrwt beam="1">  1       21 0.23342198E-01 0.25753592E+03</pdfrwt>
<pdfrwt beam="2">  1        1 0.27774666E+00 0.25753592E+03</pdfrwt>
<totfact> 0.85617308E+02</totfact>
</mgrwt>
</event>
<event>
 5    0  0.4115852E+000  0.1899283E+03  0.7546771E-02  0.1158526E+00
          1   -1    0    0  502    0 -0.00000000000E+00  0.00000000000E+00  0.73682257355E+03  0.73682257355E+03  0.00000000000E+00 0.  1.
         21   -1    0    0  503  502  0.00000000000E+00 -0.00000000000E+00 -0.45360017556E+03  0.45360017556E+03  0.00000000000E+00 0. -1.
         25    1    1    2    0    0  0.19148657802E+03  0.64092474559E+02 -0.35821779526E+03  0.42979058121E+03  0.12500000000E+03 0.  0.
         21    1    1    2  503  501 -0.49629936873E+02 -0.73005494842E+02 -0.14507262599E+02  0.89461687774E+02  0.00000000000E+00 0.  1.
          1    1    1    2  501    0 -0.14185664115E+03  0.89130202831E+01  0.65594745584E+03  0.67117048013E+03  0.00000000000E+00 0.  1.
<mgrwt>
<rscale>  4 0.18992826E+03</rscale>
<asrwt>0</asrwt>
<pdfrwt beam="1">  1       21 0.69784642E-01 0.18992826E+03</pdfrwt>
<pdfrwt beam="2">  1        1 0.11335732E+00 0.18992826E+03</pdfrwt>
<totfact> 0.54447389E+02</totfact>
</mgrwt>
</event>
<event>
 5    0  0.4115852E+000  0.4786385E+03  0.7546771E-02  0.1019510E+00
          1   -1    0    0  502    0 -0.00000000000E+00  0.00000000000E+00  0.11734317299E+04  0.11734317299E+04  0.00000000000E+00 0.  1.
         21   -1    0    0  503  502  0.00000000000E+00 -0.00000000000E+00 -0.29755518704E+03  0.29755518704E+03  0.00000000000E+00 0.  1.
         25    1    1    2    0    0  0.14369216447E+03  0.42154128813E+03  0.56618910270E+03  0.73112214830E+03  0.12500000000E+03 0.  0.
         21    1    1    2  503  501  0.50540000190E+02  0.24006869944E+02 -0.93096485172E+02  0.10861665146E+03  0.00000000000E+00 0.  1.
          1    1    1    2  501    0 -0.19423216466E+03 -0.44554815807E+03  0.40278392535E+03  0.63124811720E+03  0.00000000000E+00 0.  1.
<mgrwt>
<rscale>  4 0.47863845E+03</rscale>
<asrwt>0</asrwt>
<pdfrwt beam="1">  1       21 0.45777722E-01 0.47863845E+03</pdfrwt>
<pdfrwt beam="2">  1        1 0.18052796E+00 0.47863845E+03</pdfrwt>
<totfact> 0.54944737E+02</totfact>
</mgrwt>
</event>
<event>
 5    0  0.4115852E+000  0.2949531E+03  0.7546771E-02  0.1087791E+00
         21   -1    0    0  503  502  0.00000000000E+00  0.00000000000E+00  0.52999027025E+02  0.52999027025E+02  0.00000000000E+00 0. -1.
          2   -1    0    0  502    0 -0.00000000000E+00 -0.00000000000E+00 -0.15580640024E+04  0.15580640024E+04  0.00000000000E+00 0. -1.
         25    1    1    2    0    0 -0.23220352659E+03  0.13211293573E+03 -0.91592515992E+03  0.96224539704E+03  0.12500000000E+03 0.  0.
         21    1    1    2  503  501  0.23666403078E+02 -0.49197977186E+01 -0.29125573065E+02  0.37849729862E+02  0.00000000000E+00 0. -1.
          2    1    1    2  501    0  0.20853712351E+03 -0.12719313801E+03 -0.56001424240E+03  0.61096790254E+03  0.00000000000E+00 0. -1.
<mgrwt>
<rscale>  4 0.29495306E+03</rscale>
<asrwt>0</asrwt>
<pdfrwt beam="1">  1       21 0.81536955E-02 0.29495306E+03</pdfrwt>
<pdfrwt beam="2">  1        2 0.23970218E+00 0.29495306E+03</pdfrwt>
<totfact> 0.18491818E+04</totfact>
</mgrwt>
</event>
<event>
 5    0  0.4115852E+000  0.2967887E+03  0.7546771E-02  0.1086857E+00
         21   -1    0    0  503  502  0.00000000000E+00  0.00000000000E+00  0.57034250302E+03  0.57034250302E+03  0.00000000000E+00 0. -1.
          2   -1    0    0  502    0 -0.00000000000E+00 -0.00000000000E+00 -0.10429824218E+04  0.10429824218E+04  0.00000000000E+00 0.  1.
         25    1    1    2    0    0 -0.13700614177E+03 -0.17351051203E+03  0.48098588514E+03  0.54392003307E+03  0.12500000000E+03 0.  0.
         21    1    1    2  503  501 -0.54156382738E+01 -0.57014298456E+02  0.18527669623E+02  0.60193304512E+02  0.00000000000E+00 0. -1.
          2    1    1    2  501    0  0.14242178004E+03  0.23052481049E+03 -0.97215347351E+03  0.10092115872E+04  0.00000000000E+00 0.  1.
<mgrwt>
<rscale>  4 0.29678869E+03</rscale>
<asrwt>0</asrwt>
<pdfrwt beam="1">  1       21 0.87745001E-01 0.29678869E+03</pdfrwt>
<pdfrwt beam="2">  1        2 0.16045883E+00 0.29678869E+03</pdfrwt>
<totfact> 0.32898721E+02</totfact>
</mgrwt>
</event>
<event>
 5    0  0.4115852E+000  0.2875958E+03  0.7546771E-02  0.1091611E+00
          2   -1    0    0  502    0 -0.00000000000E+00  0.00000000000E+00  0.36931685087E+04  0.36931685087E+04  0.00000000000E+00 0. -1.
         21   -1    0    0  503  502  0.00000000000E+00 -0.00000000000E+00 -0.75416316395E+03  0.75416316395E+03  0.00000000000E+00 0.  1.
         25    1    1    2    0    0  0.30377859964E+03 -0.33781658855E+02 -0.58509755683E+03  0.67185324966E+03  0.12500000000E+03 0.  0.
         21    1    1    2  503  501 -0.45100153787E+02  0.32440505426E+02 -0.11472435468E+03  0.12746798743E+03  0.00000000000E+00 0.  1.
          2    1    1    2  501    0 -0.25867844585E+03  0.13411534293E+01  0.36388272563E+04  0.36480104356E+04  0.00000000000E+00 0. -1.
<mgrwt>
<rscale>  4 0.28759583E+03</rscale>
<asrwt>0</asrwt>
<pdfrwt beam="1">  1       21 0.11602510E+00 0.28759583E+03</pdfrwt>
<pdfrwt beam="2">  1        2 0.56817976E+00 0.28759583E+03</pdfrwt>
<totfact> 0.50973130E+00</totfact>
</mgrwt>
</event>
<event>
 5    0  0.4115852E+000  0.2408651E+03  0.7546771E-02  0.1119218E+00
          2   -1    0    0  502    0 -0.00000000000E+00  0.00000000000E+00  0.80345575641E+03  0.80345575641E+03  0.00000000000E+00 0. -1.
         21   -1    0    0  503  502  0.00000000000E+00 -0.00000000000E+00 -0.96814048212E+02  0.96814048212E+02  0.00000000000E+00 0. -1.
         25    1    1    2    0    0 -0.21913124317E+03 -0.33909394417E+02  0.20527996532E+03  0.32700644172E+03  0.12500000000E+03 0.  0.
         21    1    1    2  503  501  0.31537656270E+02 -0.40753311390E+02  0.28015564671E+02  0.58654309442E+02  0.00000000000E+00 0. -1.
          2    1    1    2  501    0  0.18759358690E+03  0.74662705807E+02  0.47334617820E+03  0.51460905346E+03  0.00000000000E+00 0. -1.
<mgrwt>
<rscale>  4 0.24086510E+03</rscale>
<asrwt>0</asrwt>
<pdfrwt beam="1">  1       21 0.14894469E-01 0.24086510E+03</pdfrwt>
<pdfrwt beam="2">  1        2 0.12360857E+00 0.24086510E+03</pdfrwt>
<totfact> 0.17558682E+04</totfact>
</mgrwt>
</event>
<event>
 5    0  0.4115852E+000  0.3457349E+03  0.7546771E-02  0.1064379E+00
          2   -1    0    0  502    0 -0.00000000000E+00  0.00000000000E+00  0.43521401776E+03  0.43521401776E+03  0.00000000000E+00 0. -1.
         21   -1    0    0  503  502  0.00000000000E+00 -0.00000000000E+00 -0.18335145922E+04  0.18335145922E+04  0.00000000000E+00 0. -1.
         25    1    1    2    0    0 -0.16975261136E+03  0.18106846448E+03 -0.77401246246E+03  0.82238800450E+03  0.12500000000E+03 0.  0.
         21    1    1    2  503  501 -0.18051077513E+02  0.88679669771E+02 -0.96715241390E+03  0.97137722691E+03  0.00000000000E+00 0. -1.
          2    1    1    2  501    0  0.18780368888E+03 -0.26974813425E+03  0.34286430189E+03  0.47496337859E+03  0.00000000000E+00 0. -1.
<mgrwt>
<rscale>  4 0.34573493E+03</rscale>
<asrwt>0</asrwt>
<pdfrwt beam="1">  1       21 0.28207917E+00 0.34573493E+03</pdfrwt>
<pdfrwt beam="2">  1        2 0.66956003E-01 0.34573493E+03</pdfrwt>
<totfact> 0.34133648E+01</totfact>
</mgrwt>
</event>
<event>
 5    0  0.4115852E+000  0.2743410E+03  0.7546771E-02  0.1098821E+00
         21   -1    0    0  503  502  0.00000000000E+00  0.00000000000E+00  0.33377938972E+03  0.33377938972E+03  0.00000000000E+00 0. -1.
          2   -1    0    0  502    0 -0.00000000000E+00 -0.00000000000E+00 -0.14493375897E+04  0.14493375897E+04  0.00000000000E+00 0. -1.
         25    1    1    2    0    0 -0.19908331548E+03 -0.18984635922E+03  0.85582816700E+02  0.31404653338E+03  0.12500000000E+03 0.  0.
         21    1    1    2  503  501  0.24941146471E+02  0.21077387536E+02  0.12076639227E+03  0.12510331153E+03  0.00000000000E+00 0. -1.
          2    1    1    2  501    0  0.17414216901E+03  0.16876897169E+03 -0.13219074089E+04  0.13439671345E+04  0.00000000000E+00 0. -1.
<mgrwt>
<rscale>  4 0.27434098E+03</rscale>
<asrwt>0</asrwt>
<pdfrwt beam="1">  1       21 0.51350676E-01 0.27434098E+03</pdfrwt>
<pdfrwt beam="2">  1        2 0.22297501E+00 0.27434098E+03</pdfrwt>
<totfact> 0.64087924E+02</totfact>
</mgrwt>
</event>
<event>
 5    0  0.4115852E+000  0.2610508E+03  0.7546771E-02  0.1106514E+00
         21   -1    0    0  503  502  0.00000000000E+00  0.00000000000E+00  0.11426707922E+03  0.11426707922E+03  0.00000000000E+00 0.  1.
          1   -1    0    0  502    0 -0.00000000000E+00 -0.00000000000E+00 -0.86193997130E+03  0.86193997130E+03  0.00000000000E+00 0. -1.
         25    1    1    2    0    0 -0.11772083653E+03 -0.20644668709E+03 -0.28088059209E+03  0.38858375799E+03  0.12500000000E+03 0.  0.
         21    1    1    2  503  501  0.46432353232E+02 -0.87397057942E+01  0.19482096810E+02  0.51106731261E+02  0.00000000000E+00 0.  1.
          1    1    1    2  501    0  0.71288483299E+02  0.21518639288E+03 -0.48627439680E+03  0.53651656127E+03  0.00000000000E+00 0. -1.
<mgrwt>
<rscale>  4 0.26105078E+03</rscale>
<asrwt>0</asrwt>
<pdfrwt beam="1">  1       21 0.17579551E-01 0.26105078E+03</pdfrwt>
<pdfrwt beam="2">  1        1 0.13260615E+00 0.26105078E+03</pdfrwt>
<totfact> 0.65925821E+03</totfact>
</mgrwt>
</event>
<event>
 5    0  0.4115852E+000  0.3524717E+03  0.7546771E-02  0.1061605E+00
         21   -1    0    0  503  502  0.00000000000E+00  0.00000000000E+00  0.39353198935E+03  0.39353198935E+03  0.00000000000E+00 0. -1.
          2   -1    0    0  502    0 -0.00000000000E+00 -0.00000000000E+00 -0.40202574243E+03  0.40202574243E+03  0.00000000000E+00 0. -1.
         25    1    1    2    0    0  0.15857900702E+03 -0.28434243238E+03  0.16590199192E+03  0.38619475818E+03  0.12500000000E+03 0.  0.
         21    1    1    2  503  501 -0.23350095041E+02 -0.18110412958E+02  0.87310927545E+01  0.30813081258E+02  0.00000000000E+00 0.  1.
          2    1    1    2  501    0 -0.13522891198E+03  0.30245284533E+03 -0.18312683776E+03  0.37854989234E+03  0.00000000000E+00 0. -1.
<mgrwt>
<rscale>  4 0.35247165E+03</rscale>
<asrwt>0</asrwt>
<pdfrwt beam="1">  1       21 0.60543383E-01 0.35247165E+03</pdfrwt>
<pdfrwt beam="2">  1        2 0.61850114E-01 0.35247165E+03</pdfrwt>
<totfact> 0.23941403E+03</totfact>
</mgrwt>
</event>
<event>
 5    0  0.4115852E+000  0.3598717E+03  0.7546771E-02  0.1058635E+00
         -4   -1    0    0    0  501 -0.00000000000E+00  0.00000000000E+00  0.53637086160E+03  0.53637086160E+03  0.00000000000E+00 0. -1.
         21   -1    0    0  501  502  0.00000000000E+00 -0.00000000000E+00 -0.56031107885E+03  0.56031107885E+03  0.00000000000E+00 0.  1.
         25    1    1    2    0    0 -0.22346437541E+03 -0.38898708898E+03 -0.13767023998E+03  0.48561855138E+03  0.12500000000E+03 0.  0.
         21    1    1    2  503  502  0.54286475664E+02  0.12715764295E+03 -0.14908525942E+03  0.20332855721E+03  0.00000000000E+00 0.  1.
         -4    1    1    2    0  503  0.16917789975E+03  0.26182944603E+03  0.26281528215E+03  0.40773483185E+03  0.00000000000E+00 0. -1.
<mgrwt>
<rscale>  4 0.35987167E+03</rscale>
<asrwt>0</asrwt>
<pdfrwt beam="1">  1       21 0.86201705E-01 0.35987167E+03</pdfrwt>
<pdfrwt beam="2">  1       -4 0.82518594E-01 0.35987167E+03</pdfrwt>
<totfact> 0.62023180E+01</totfact>
</mgrwt>
</event>
<event>
 5    0  0.4115852E+000  0.2564670E+03  0.7546771E-02  0.1109285E+00
          3   -1    0    0  502    0 -0.00000000000E+00  0.00000000000E+00  0.16608798336E+03  0.16608798336E+03  0.00000000000E+00 0.  1.
         21   -1    0    0  503  502  0.00000000000E+00 -0.00000000000E+00 -0.12145806663E+04  0.12145806663E+04  0.00000000000E+00 0.  1.
         25    1    1    2    0    0 -0.22053135517E+03 -0.20241686754E+01  0.32725045297E+01  0.25352294799E+03  0.12500000000E+03 0.  0.
         21    1    1    2  503  501 -0.14677859243E+02  0.12579685790E+03 -0.48322214888E+03  0.49954372599E+03  0.00000000000E+00 0.  1.
          3    1    1    2  501    0  0.23520921441E+03 -0.12377268922E+03 -0.56854303859E+03  0.62760197567E+03  0.00000000000E+00 0.  1.
<mgrwt>
<rscale>  4 0.25646698E+03</rscale>
<asrwt>0</asrwt>
<pdfrwt beam="1">  1       21 0.18685856E+00 0.25646698E+03</pdfrwt>
<pdfrwt beam="2">  1        3 0.25551998E-01 0.25646698E+03</pdfrwt>
<totfact> 0.11298030E+02</totfact>
</mgrwt>
</event>
<event>
 5    0  0.4115852E+000  0.3250301E+03  0.7546771E-02  0.1073357E+00
          2   -1    0    0  502    0 -0.00000000000E+00  0.00000000000E+00  0.18644250706E+04  0.18644250706E+04  0.00000000000E+00 0.  1.
         21   -1    0    0  503  502  0.00000000000E+00 -0.00000000000E+00 -0.11790611399E+03  0.11790611399E+03  0.00000000000E+00 0.  1.
         25    1    1    2    0    0  0.17340887226E+02 -0.34857936551E+03  0.31201727453E+03  0.48454933705E+03  0.12500000000E+03 0.  0.
         21    1    1    2  503  501 -0.62515473027E-02  0.57576779970E+02  0.33167705221E+02  0.66446838153E+02  0.00000000000E+00 0.  1.
          2    1    1    2  501    0 -0.17334635679E+02  0.29100258554E+03  0.14013339768E+04  0.14313350094E+04  0.00000000000E+00 0.  1.
<mgrwt>
<rscale>  4 0.32503010E+03</rscale>
<asrwt>0</asrwt>
<pdfrwt beam="1">  1       21 0.18139404E-01 0.32503010E+03</pdfrwt>
<pdfrwt beam="2">  1        2 0.28683460E+00 0.32503010E+03</pdfrwt>
<totfact> 0.29612113E+03</totfact>
</mgrwt>
</event>
<event>
 5    0  0.4115852E+000  0.2172462E+03  0.7546771E-02  0.1135953E+00
         21   -1    0    0  503  502  0.00000000000E+00  0.00000000000E+00  0.75849681788E+02  0.75849681788E+02  0.00000000000E+00 0.  1.
          2   -1    0    0  502    0 -0.00000000000E+00 -0.00000000000E+00 -0.16100773049E+04  0.16100773049E+04  0.00000000000E+00 0.  1.
         25    1    1    2    0    0 -0.22589486873E+03 -0.22837978404E+02 -0.27873238467E+03  0.38061372446E+03  0.12500000000E+03 0.  0.
         21    1    1    2  503  501  0.14444505504E+03 -0.86150935153E+00 -0.20158778399E+03  0.24799748140E+03  0.00000000000E+00 0.  1.
          2    1    1    2  501    0  0.81449813698E+02  0.23699487755E+02 -0.10539074545E+04  0.10573157809E+04  0.00000000000E+00 0.  1.
<mgrwt>
<rscale>  4 0.21724618E+03</rscale>
<asrwt>0</asrwt>
<pdfrwt beam="1">  1       21 0.11669182E-01 0.21724618E+03</pdfrwt>
<pdfrwt beam="2">  1        2 0.24770420E+00 0.21724618E+03</pdfrwt>
<totfact> 0.93872323E+03</totfact>
</mgrwt>
</event>
<event>
 5    0  0.4115852E+000  0.2249501E+03  0.7546771E-02  0.1130245E+00
         21   -1    0    0  503  502  0.00000000000E+00  0.00000000000E+00  0.10635859125E+03  0.10635859125E+03  0.00000000000E+00 0.  1.
          2   -1    0    0  502    0 -0.00000000000E+00 -0.00000000000E+00 -0.29565834968E+04  0.29565834968E+04  0.00000000000E+00 0. -1.
         25    1    1    2    0    0 -0.29615140488E+03  0.64596520659E+02 -0.18380684447E+04  0.18670830117E+04  0.12500000000E+03 0.  0.
         21    1    1    2  503  501  0.18065249994E+03  0.20573919662E+02 -0.85252494928E+01  0.18202003128E+03  0.00000000000E+00 0.  1.
          2    1    1    2  501    0  0.11549890493E+03 -0.85170440321E+02 -0.10036312113E+04  0.10138390451E+04  0.00000000000E+00 0. -1.
<mgrwt>
<rscale>  4 0.22495015E+03</rscale>
<asrwt>0</asrwt>
<pdfrwt beam="1">  1       21 0.16362864E-01 0.22495015E+03</pdfrwt>
<pdfrwt beam="2">  1        2 0.45485890E+00 0.22495015E+03</pdfrwt>
<totfact> 0.95107661E+02</totfact>
</mgrwt>
</event>
<event>
 5    0  0.4115852E+000  0.2838733E+03  0.7546771E-02  0.1093592E+00
          2   -1    0    0  502    0 -0.00000000000E+00  0.00000000000E+00  0.26201659444E+04  0.26201659444E+04  0.00000000000E+00 0. -1.
         21   -1    0    0  503  502  0.00000000000E+00 -0.00000000000E+00 -0.33277264526E+02  0.33277264526E+02  0.00000000000E+00 0. -1.
         25    1    1    2    0    0 -0.11161612748E+03 -0.20953932086E+03  0.93696902827E+03  0.97462856865E+03  0.12500000000E+03 0.  0.
         21    1    1    2  503  501 -0.13614943236E+02 -0.23973428826E+02  0.49962508525E+02  0.57064386680E+02  0.00000000000E+00 0.  1.
          2    1    1    2  501    0  0.12523107072E+03  0.23351274968E+03  0.15999571431E+04  0.16217502536E+04  0.00000000000E+00 0. -1.
<mgrwt>
<rscale>  4 0.28387332E+03</rscale>
<asrwt>0</asrwt>
<pdfrwt beam="1">  1       21 0.51195812E-02 0.28387332E+03</pdfrwt>
<pdfrwt beam="2">  1        2 0.40310229E+00 0.28387332E+03</pdfrwt>
<totfact> 0.11233564E+04</totfact>
</mgrwt>
</event>
<event>
 5    0  0.4115852E+000  0.2076479E+03  0.7546771E-02  0.1143442E+00
         21   -1    0    0  503  502  0.00000000000E+00  0.00000000000E+00  0.19767013260E+04  0.19767013260E+04  0.00000000000E+00 0.  1.
          4   -1    0    0  502    0 -0.00000000000E+00 -0.00000000000E+00 -0.36010478892E+02  0.36010478892E+02  0.00000000000E+00 0.  1.
         25    1    1    2    0    0  0.19351972471E+03 -0.62984762361E+02  0.96722345926E+03  0.99627465303E+03  0.12500000000E+03 0.  0.
         21    1    1    2  503  501 -0.15236381316E+03 -0.18125832944E+02  0.84626135964E+03  0.86005904809E+03  0.00000000000E+00 0.  1.
          4    1    1    2  501    0 -0.41155911548E+02  0.81110595305E+02  0.12720602824E+03  0.15637810379E+03  0.00000000000E+00 0.  1.
<mgrwt>
<rscale>  4 0.20764791E+03</rscale>
<asrwt>0</asrwt>
<pdfrwt beam="1">  1       21 0.30410781E+00 0.20764791E+03</pdfrwt>
<pdfrwt beam="2">  1        4 0.55400752E-02 0.20764791E+03</pdfrwt>
<totfact> 0.27278505E+02</totfact>
</mgrwt>
</event>
<event>
 5    0  0.4115852E+000  0.3401595E+03  0.7546771E-02  0.1066728E+00
         21   -1    0    0  503  502  0.00000000000E+00  0.00000000000E+00  0.17611676245E+03  0.17611676245E+03  0.00000000000E+00 0. -1.
          4   -1    0    0  502    0 -0.00000000000E+00 -0.00000000000E+00 -0.71059046397E+03  0.71059046397E+03  0.00000000000E+00 0.  1.
         25    1    1    2    0    0  0.56600715404E+02  0.30458763368E+03 -0.14545180660E+03  0.36436039250E+03  0.12500000000E+03 0.  0.
         21    1    1    2  503  501  0.12994410023E+02  0.15577455608E+02 -0.15788675873E+02  0.25705915679E+02  0.00000000000E+00 0. -1.
          4    1    1    2  501    0 -0.69595125427E+02 -0.32016508929E+03 -0.37323321904E+03  0.49664091825E+03  0.00000000000E+00 0.  1.
<mgrwt>
<rscale>  4 0.34015947E+03</rscale>
<asrwt>0</asrwt>
<pdfrwt beam="1">  1       21 0.27094886E-01 0.34015947E+03</pdfrwt>
<pdfrwt beam="2">  1        4 0.10932161E+00 0.34015947E+03</pdfrwt>
<totfact> 0.37369330E+02</totfact>
</mgrwt>
</event>
<event>
 5    0  0.4115852E+000  0.2962884E+03  0.7546771E-02  0.1087111E+00
         21   -1    0    0  503  502  0.00000000000E+00  0.00000000000E+00  0.11984860243E+04  0.11984860243E+04  0.00000000000E+00 0. -1.
          1   -1    0    0  502    0 -0.00000000000E+00 -0.00000000000E+00 -0.69741539836E+03  0.69741539836E+03  0.00000000000E+00 0.  1.
         25    1    1    2    0    0  0.18015463512E+03 -0.13137940553E+03  0.38143050309E+03  0.45916279187E+03  0.12500000000E+03 0.  0.
         21    1    1    2  503  501  0.37819127401E+02 -0.30781679559E+02  0.74934370356E+03  0.75092861462E+03  0.00000000000E+00 0. -1.
          1    1    1    2  501    0 -0.21797376252E+03  0.16216108509E+03 -0.62970358073E+03  0.68581001614E+03  0.00000000000E+00 0.  1.
<mgrwt>
<rscale>  4 0.29628844E+03</rscale>
<asrwt>0</asrwt>
<pdfrwt beam="1">  1       21 0.18438247E+00 0.29628844E+03</pdfrwt>
<pdfrwt beam="2">  1        1 0.10729468E+00 0.29628844E+03</pdfrwt>
<totfact> 0.49204214E+01</totfact>
</mgrwt>
</event>
<event>
 5    0  0.4115852E+000  0.2456780E+03  0.7546771E-02  0.1116067E+00
         21   -1    0    0  503  502  0.00000000000E+00  0.00000000000E+00  0.65792844370E+02  0.65792844370E+02  0.00000000000E+00 0.  1.
          2   -1    0    0  502    0 -0.00000000000E+00 -0.00000000000E+00 -0.18004028338E+04  0.18004028338E+04  0.00000000000E+00 0. -1.
         25    1    1    2    0    0 -0.12653648241E+03 -0.19460553461E+03 -0.26535287916E+03  0.37405874667E+03  0.12500000000E+03 0.  0.
         21    1    1    2  503  501  0.22219614024E+02  0.13888055476E+02 -0.40596326062E+02  0.48318226603E+02  0.00000000000E+00 0.  1.
          2    1    1    2  501    0  0.10431686838E+03  0.18071747913E+03 -0.14286607842E+04  0.14438187049E+04  0.00000000000E+00 0. -1.
<mgrwt>
<rscale>  4 0.24567801E+03</rscale>
<asrwt>0</asrwt>
<pdfrwt beam="1">  1       21 0.10121976E-01 0.24567801E+03</pdfrwt>
<pdfrwt beam="2">  1        2 0.27698506E+00 0.24567801E+03</pdfrwt>
<totfact> 0.95208047E+03</totfact>
</mgrwt>
</event>
<event>
 5    0  0.4115852E+000  0.3454480E+03  0.7546771E-02  0.1064499E+00
         21   -1    0    0  501  502  0.00000000000E+00  0.00000000000E+00  0.79006524731E+03  0.79006524731E+03  0.00000000000E+00 0.  1.
         -1   -1    0    0    0  501 -0.00000000000E+00 -0.00000000000E+00 -0.60254054787E+03  0.60254054787E+03  0.00000000000E+00 0. -1.
         25    1    1    2    0    0 -0.60696981437E+02 -0.27817549107E+03  0.56791294369E+03  0.64746879384E+03  0.12500000000E+03 0.  0.
         21    1    1    2  503  502 -0.29051658455E+02 -0.34169514732E+02  0.13142321075E+03  0.13886545618E+03  0.00000000000E+00 0.  1.
         -1    1    1    2    0  503  0.89748639892E+02  0.31234500581E+03 -0.51181145500E+03  0.60627154517E+03  0.00000000000E+00 0. -1.
<mgrwt>
<rscale>  4 0.34544795E+03</rscale>
<asrwt>0</asrwt>
<pdfrwt beam="1">  1       21 0.12154850E+00 0.34544795E+03</pdfrwt>
<pdfrwt beam="2">  1       -1 0.92698546E-01 0.34544795E+03</pdfrwt>
<totfact> 0.52128085E+01</totfact>
</mgrwt>
</event>
