<event>
 5    0  0.1856407E+000  0.3200890E+03  0.7546771E-02  0.1075608E+00
         21   -1    0    0  502  501  0.00000000000E+00  0.00000000000E+00  0.43156138728E+03  0.43156138728E+03  0.00000000000E+00 0.  1.
         21   -1    0    0  503  502 -0.00000000000E+00 -0.00000000000E+00 -0.63676673356E+03  0.63676673356E+03  0.00000000000E+00 0. -1.
         25    1    1    2    0    0 -0.15525036866E+03 -0.25282266899E+03  0.32098041999E+03  0.45461567168E+03  0.12500000000E+03 0.  0.
         21    1    1    2  503  504  0.12695154156E+03  0.24849684832E+03 -0.50858036389E+03  0.58010461476E+03  0.00000000000E+00 0. -1.
         21    1    1    2  504  501  0.28298827105E+02  0.43258206699E+01 -0.17605402379E+02  0.33607834398E+02  0.00000000000E+00 0.  1.
<mgrwt>
<rscale>  4 0.32008902E+03</rscale>
<asrwt>0</asrwt>
<pdfrwt beam="1">  1       21 0.66394060E-01 0.32008902E+03</pdfrwt>
<pdfrwt beam="2">  1       21 0.97964113E-01 0.32008902E+03</pdfrwt>
<totfact> 0.16348638E+03</totfact>
</mgrwt>
</event>
<event>
 5    0  0.1856407E+000  0.3017606E+03  0.7546771E-02  0.1084364E+00
         21   -1    0    0  502  501  0.00000000000E+00  0.00000000000E+00  0.60082878569E+03  0.60082878569E+03  0.00000000000E+00 0.  1.
         21   -1    0    0  503  502 -0.00000000000E+00 -0.00000000000E+00 -0.91058236416E+03  0.91058236416E+03  0.00000000000E+00 0. -1.
         25    1    1    2    0    0  0.75754641552E+02  0.26404318969E+03  0.52955055489E+03  0.60951321719E+03  0.12500000000E+03 0.  0.
         21    1    1    2  503  504 -0.28899634061E+02  0.72468890687E+01 -0.16075135512E+02  0.33854338448E+02  0.00000000000E+00 0. -1.
         21    1    1    2  504  501 -0.46855007492E+02 -0.27129007876E+03 -0.82322899785E+03  0.86804359422E+03  0.00000000000E+00 0. -1.
<mgrwt>
<rscale>  4 0.30176063E+03</rscale>
<asrwt>0</asrwt>
<pdfrwt beam="1">  1       21 0.92435198E-01 0.30176063E+03</pdfrwt>
<pdfrwt beam="2">  1       21 0.14008959E+00 0.30176063E+03</pdfrwt>
<totfact> 0.31802689E+02</totfact>
</mgrwt>
</event>
<event>
 5    0  0.1856407E+000  0.2371368E+03  0.7546771E-02  0.1121715E+00
         21   -1    0    0  502  501  0.00000000000E+00  0.00000000000E+00  0.90947716778E+03  0.90947716778E+03  0.00000000000E+00 0. -1.
         21   -1    0    0  503  502 -0.00000000000E+00 -0.00000000000E+00 -0.27774913100E+03  0.27774913100E+03  0.00000000000E+00 0.  1.
         25    1    1    2    0    0 -0.72379213281E+01  0.20540496408E+03  0.82553014359E+03  0.85986545735E+03  0.12500000000E+03 0.  0.
         21    1    1    2  503  504  0.74258217722E+02 -0.15086648288E+03 -0.16676190335E+03  0.23682168602E+03  0.00000000000E+00 0.  1.
         21    1    1    2  504  501 -0.67020296394E+02 -0.54538481197E+02 -0.27040203447E+02  0.90539155411E+02  0.00000000000E+00 0.  1.
<mgrwt>
<rscale>  4 0.23713683E+03</rscale>
<asrwt>0</asrwt>
<pdfrwt beam="1">  1       21 0.13991956E+00 0.23713683E+03</pdfrwt>
<pdfrwt beam="2">  1       21 0.42730636E-01 0.23713683E+03</pdfrwt>
<totfact> 0.18150824E+03</totfact>
</mgrwt>
</event>
<event>
 5    0  0.1856407E+000  0.2714354E+03  0.7546771E-02  0.1100461E+00
         21   -1    0    0  502  501  0.00000000000E+00  0.00000000000E+00  0.33081655747E+03  0.33081655747E+03  0.00000000000E+00 0. -1.
         21   -1    0    0  503  502 -0.00000000000E+00 -0.00000000000E+00 -0.26960308115E+03  0.26960308115E+03  0.00000000000E+00 0.  1.
         25    1    1    2    0    0  0.12103877068E+02 -0.24063598358E+03  0.17747438403E+03  0.32430593183E+03  0.12500000000E+03 0.  0.
         21    1    1    2  503  504 -0.34151123843E+02  0.18638022214E+03 -0.10446983254E+03  0.21637428769E+03  0.00000000000E+00 0.  1.
         21    1    1    2  504  501  0.22047246774E+02  0.54255761443E+02 -0.11791075168E+02  0.59739419094E+02  0.00000000000E+00 0.  1.
<mgrwt>
<rscale>  4 0.27143541E+03</rscale>
<asrwt>0</asrwt>
<pdfrwt beam="1">  1       21 0.50894855E-01 0.27143541E+03</pdfrwt>
<pdfrwt beam="2">  1       21 0.41477397E-01 0.27143541E+03</pdfrwt>
<totfact> 0.19722025E+04</totfact>
</mgrwt>
</event>
<event>
 5    0  0.1856407E+000  0.3362701E+03  0.7546771E-02  0.1068396E+00
         21   -1    0    0  502  501  0.00000000000E+00  0.00000000000E+00  0.14278077037E+03  0.14278077037E+03  0.00000000000E+00 0. -1.
         21   -1    0    0  503  502 -0.00000000000E+00 -0.00000000000E+00 -0.12500176012E+04  0.12500176012E+04  0.00000000000E+00 0. -1.
         25    1    1    2    0    0  0.90896722661E+02  0.27980652012E+03 -0.16412769330E+03  0.35932826579E+03  0.12500000000E+03 0.  0.
         21    1    1    2  503  504  0.58768201193E+02  0.90881531634E+00 -0.28905476916E+02  0.65498503895E+02  0.00000000000E+00 0.  1.
         21    1    1    2  504  501 -0.14966492385E+03 -0.28071533543E+03 -0.91420366057E+03  0.96797160185E+03  0.00000000000E+00 0. -1.
<mgrwt>
<rscale>  4 0.33627013E+03</rscale>
<asrwt>0</asrwt>
<pdfrwt beam="1">  1       21 0.21966273E-01 0.33627013E+03</pdfrwt>
<pdfrwt beam="2">  1       21 0.19231039E+00 0.33627013E+03</pdfrwt>
<totfact> 0.26196353E+03</totfact>
</mgrwt>
</event>
<event>
 5    0  0.1856407E+000  0.3078417E+03  0.7546771E-02  0.1081420E+00
         21   -1    0    0  502  501  0.00000000000E+00  0.00000000000E+00  0.88646955042E+03  0.88646955042E+03  0.00000000000E+00 0.  1.
         21   -1    0    0  503  502 -0.00000000000E+00 -0.00000000000E+00 -0.14288836251E+03  0.14288836251E+03  0.00000000000E+00 0.  1.
         25    1    1    2    0    0 -0.26808948962E+03  0.84223158295E+02  0.63030243171E+03  0.70133563310E+03  0.12500000000E+03 0.  0.
         21    1    1    2  503  504  0.15738920604E+03 -0.45514589445E+02 -0.16164287830E+01  0.16384612560E+03  0.00000000000E+00 0.  1.
         21    1    1    2  504  501  0.11070028357E+03 -0.38708568850E+02  0.11489518498E+03  0.16417615423E+03  0.00000000000E+00 0.  1.
<mgrwt>
<rscale>  4 0.30777021E+03</rscale>
<asrwt>0</asrwt>
<pdfrwt beam="1">  1       21 0.13637993E+00 0.30784174E+03</pdfrwt>
<pdfrwt beam="2">  1       21 0.21982825E-01 0.30784174E+03</pdfrwt>
<totfact> 0.68826871E+03</totfact>
</mgrwt>
</event>
<event>
 5    0  0.2522700E+000  0.2678040E+03  0.7546771E-02  0.1102543E+00
         21   -1    0    0  502  501  0.00000000000E+00  0.00000000000E+00  0.40860035798E+03  0.40860035798E+03  0.00000000000E+00 0. -1.
         21   -1    0    0  503  502 -0.00000000000E+00 -0.00000000000E+00 -0.17643935231E+03  0.17643935231E+03  0.00000000000E+00 0. -1.
         25    1    1    2    0    0 -0.69009942875E+02 -0.22656476548E+03  0.20481575782E+03  0.33714753421E+03  0.12500000000E+03 0.  0.
         21    1    1    2  503  504  0.15144906187E+02  0.38376204729E+02 -0.20958231959E+02  0.46274709720E+02  0.00000000000E+00 0. -1.
         21    1    1    2  504  501  0.53865036688E+02  0.18818856075E+03  0.48303479806E+02  0.20161746635E+03  0.00000000000E+00 0. -1.
<mgrwt>
<rscale>  4 0.26780397E+03</rscale>
<asrwt>0</asrwt>
<pdfrwt beam="1">  1       21 0.62861593E-01 0.26780397E+03</pdfrwt>
<pdfrwt beam="2">  1       21 0.27144516E-01 0.26780397E+03</pdfrwt>
<totfact> 0.29225590E+04</totfact>
</mgrwt>
</event>
<event>
 5    0  0.2712971E+000  0.3016514E+03  0.7546771E-02  0.1084418E+00
         21   -1    0    0  502  501  0.00000000000E+00  0.00000000000E+00  0.32760619968E+03  0.32760619968E+03  0.00000000000E+00 0.  1.
         21   -1    0    0  503  502 -0.00000000000E+00 -0.00000000000E+00 -0.26007026341E+03  0.26007026341E+03  0.00000000000E+00 0.  1.
         25    1    1    2    0    0  0.78989143227E+02  0.26292450364E+03 -0.33308341275E+00  0.30165160418E+03  0.12500000000E+03 0.  0.
         21    1    1    2  503  504 -0.81024187529E+02 -0.23545509607E+03  0.69216665258E+02  0.25844722475E+03  0.00000000000E+00 0.  1.
         21    1    1    2  504  501  0.20350443020E+01 -0.27469407567E+02 -0.13476455719E+01  0.27577634163E+02  0.00000000000E+00 0.  1.
<mgrwt>
<rscale>  4 0.30165142E+03</rscale>
<asrwt>0</asrwt>
<pdfrwt beam="1">  1       21 0.50400954E-01 0.30165142E+03</pdfrwt>
<pdfrwt beam="2">  1       21 0.40010810E-01 0.30165142E+03</pdfrwt>
<totfact> 0.21400266E+04</totfact>
</mgrwt>
</event>
<event>
 5    0  0.1856407E+000  0.2424920E+03  0.7546771E-02  0.1118144E+00
         21   -1    0    0  502  501  0.00000000000E+00  0.00000000000E+00  0.85137090127E+03  0.85137090127E+03  0.00000000000E+00 0.  1.
         21   -1    0    0  503  502 -0.00000000000E+00 -0.00000000000E+00 -0.79256873630E+03  0.79256873630E+03  0.00000000000E+00 0.  1.
         25    1    1    2    0    0 -0.16900930015E+03 -0.12254804598E+03  0.81461476580E+03  0.85017903042E+03  0.12500000000E+03 0.  0.
         21    1    1    2  503  504  0.20615848890E+02  0.15454384476E+02 -0.32065901001E+03  0.32169248037E+03  0.00000000000E+00 0.  1.
         21    1    1    2  504  501  0.14839345126E+03  0.10709366150E+03 -0.43515359082E+03  0.47206812677E+03  0.00000000000E+00 0.  1.
<mgrwt>
<rscale>  4 0.24249197E+03</rscale>
<asrwt>0</asrwt>
<pdfrwt beam="1">  1       21 0.13098014E+00 0.24249197E+03</pdfrwt>
<pdfrwt beam="2">  1       21 0.12193365E+00 0.24249197E+03</pdfrwt>
<totfact> 0.20336798E+02</totfact>
</mgrwt>
</event>
<event>
 5    0  0.4826224E+000  0.2450751E+03  0.7546771E-02  0.1116457E+00
         21   -1    0    0  502  501  0.00000000000E+00  0.00000000000E+00  0.52566470163E+02  0.52566470163E+02  0.00000000000E+00 0. -1.
         21   -1    0    0  503  502 -0.00000000000E+00 -0.00000000000E+00 -0.18538399515E+04  0.18538399515E+04  0.00000000000E+00 0. -1.
         25    1    1    2    0    0  0.22588264874E+02  0.21444021441E+03 -0.31251479699E+03  0.39973157694E+03  0.12500000000E+03 0.  0.
         21    1    1    2  503  504  0.47048030437E+01 -0.19372805362E+03 -0.13450729983E+04  0.13589606561E+04  0.00000000000E+00 0. -1.
         21    1    1    2  504  501 -0.27293067918E+02 -0.20712160790E+02 -0.14368568601E+03  0.14771418864E+03  0.00000000000E+00 0.  1.
<mgrwt>
<rscale>  4 0.24507511E+03</rscale>
<asrwt>0</asrwt>
<pdfrwt beam="1">  1       21 0.80871485E-02 0.24507511E+03</pdfrwt>
<pdfrwt beam="2">  1       21 0.28520617E+00 0.24507511E+03</pdfrwt>
<totfact> 0.46379392E+03</totfact>
</mgrwt>
</event>
