<event>
 5    0  0.3888462E+000  0.3410291E+03  0.7546771E-02  0.1066358E+00
         21   -1    0    0  501  502  0.00000000000E+00  0.00000000000E+00  0.61289909983E+03  0.61289909983E+03  0.00000000000E+00 0. -1.
          2   -1    0    0  503    0 -0.00000000000E+00 -0.00000000000E+00 -0.70221461760E+03  0.70221461760E+03  0.00000000000E+00 0. -1.
         25    1    1    2    0    0 -0.16528370105E+03 -0.27163238576E+03  0.43996971016E+03  0.55704685681E+03  0.12500000000E+03 0.  0.
         21    1    1    2  503  502  0.12223922800E+03  0.29315612593E+03 -0.11015111341E+03  0.33617883755E+03  0.00000000000E+00 0. -1.
          2    1    1    2  501    0  0.43044473058E+02 -0.21523740163E+02 -0.41913411453E+03  0.42188802307E+03  0.00000000000E+00 0. -1.
<mgrwt>
<rscale>  4 0.34102915E+03</rscale>
<asrwt>0</asrwt>
<pdfrwt beam="1">  1       21 0.94292169E-01 0.34102915E+03</pdfrwt>
<pdfrwt beam="2">  1        2 0.10803302E+00 0.34102915E+03</pdfrwt>
<totfact> 0.46108743E+02</totfact>
</mgrwt>
</event>
<event>
 5    0  0.3888462E+000  0.2823463E+03  0.7546771E-02  0.1094414E+00
          1   -1    0    0  503    0 -0.00000000000E+00  0.00000000000E+00  0.70654738084E+03  0.70654738084E+03  0.00000000000E+00 0. -1.
         21   -1    0    0  501  502  0.00000000000E+00 -0.00000000000E+00 -0.10633558292E+04  0.10633558292E+04  0.00000000000E+00 0. -1.
         25    1    1    2    0    0 -0.14881821052E+02  0.26134910300E+03 -0.84771603607E+03  0.89597561353E+03  0.12500000000E+03 0.  0.
         21    1    1    2  503  502  0.49729687663E+02 -0.22513870198E+03 -0.12070745756E+03  0.26025135403E+03  0.00000000000E+00 0. -1.
          1    1    1    2  501    0 -0.34847866611E+02 -0.36210401019E+02  0.61161504528E+03  0.61367624246E+03  0.00000000000E+00 0. -1.
<mgrwt>
<rscale>  4 0.28234633E+03</rscale>
<asrwt>0</asrwt>
<pdfrwt beam="1">  1       21 0.16359320E+00 0.28234633E+03</pdfrwt>
<pdfrwt beam="2">  1        1 0.10869960E+00 0.28234633E+03</pdfrwt>
<totfact> 0.68323157E+01</totfact>
</mgrwt>
</event>
<event>
 5    0  0.3888462E+000  0.2694095E+03  0.7546771E-02  0.1101618E+00
          2   -1    0    0  503    0 -0.00000000000E+00  0.00000000000E+00  0.15175177132E+03  0.15175177132E+03  0.00000000000E+00 0. -1.
         21   -1    0    0  501  502  0.00000000000E+00 -0.00000000000E+00 -0.10141302340E+04  0.10141302340E+04  0.00000000000E+00 0.  1.
         25    1    1    2    0    0  0.24784274506E+03  0.87987773631E+02 -0.37590601922E+03  0.47549785475E+03  0.12500000000E+03 0.  0.
         21    1    1    2  503  502 -0.21994101424E+03 -0.60030124473E+02 -0.56126524999E+03  0.60580223376E+03  0.00000000000E+00 0.  1.
          2    1    1    2  501    0 -0.27901730817E+02 -0.27957649158E+02  0.74792806563E+02  0.84581916759E+02  0.00000000000E+00 0. -1.
<mgrwt>
<rscale>  4 0.26940946E+03</rscale>
<asrwt>0</asrwt>
<pdfrwt beam="1">  1       21 0.15602004E+00 0.26940946E+03</pdfrwt>
<pdfrwt beam="2">  1        2 0.23346426E-01 0.26940946E+03</pdfrwt>
<totfact> 0.73752522E+02</totfact>
</mgrwt>
</event>
<event>
 5    0  0.3888462E+000  0.2902407E+03  0.7546771E-02  0.1090224E+00
          2   -1    0    0  503    0 -0.00000000000E+00  0.00000000000E+00  0.17920124747E+04  0.17920124747E+04  0.00000000000E+00 0.  1.
         21   -1    0    0  501  502  0.00000000000E+00 -0.00000000000E+00 -0.12083661328E+03  0.12083661328E+03  0.00000000000E+00 0.  1.
         25    1    1    2    0    0 -0.10867948188E+03  0.21950388451E+03  0.99396304760E+03  0.10313005018E+04  0.12500000000E+03 0.  0.
         21    1    1    2  503  502  0.73798246593E+02 -0.25497928058E+03  0.73011200927E+02  0.27530210712E+03  0.00000000000E+00 0.  1.
          2    1    1    2  501    0  0.34881235286E+02  0.35475396067E+02  0.60420161289E+03  0.60624647902E+03  0.00000000000E+00 0.  1.
<mgrwt>
<rscale>  4 0.29024065E+03</rscale>
<asrwt>0</asrwt>
<pdfrwt beam="1">  1       21 0.18590250E-01 0.29024065E+03</pdfrwt>
<pdfrwt beam="2">  1        2 0.27569421E+00 0.29024065E+03</pdfrwt>
<totfact> 0.31264535E+03</totfact>
</mgrwt>
</event>
<event>
 5    0  0.3888462E+000  0.2349268E+03  0.7546771E-02  0.1123219E+00
         21   -1    0    0  501  502  0.00000000000E+00  0.00000000000E+00  0.19408589218E+03  0.19408589218E+03  0.00000000000E+00 0.  1.
          1   -1    0    0  503    0 -0.00000000000E+00 -0.00000000000E+00 -0.29603086722E+03  0.29603086722E+03  0.00000000000E+00 0.  1.
         25    1    1    2    0    0  0.15430947413E+03  0.13339634996E+03  0.10043141929E+02  0.23944073315E+03  0.12500000000E+03 0.  0.
         21    1    1    2  503  502 -0.12652159537E+03 -0.14566591729E+03 -0.10436101568E+03  0.21935700387E+03  0.00000000000E+00 0.  1.
          1    1    1    2  501    0 -0.27787878761E+02  0.12269567325E+02 -0.76271012857E+01  0.31319022373E+02  0.00000000000E+00 0.  1.
<mgrwt>
<rscale>  4 0.23492679E+03</rscale>
<asrwt>0</asrwt>
<pdfrwt beam="1">  1       21 0.29859368E-01 0.23492679E+03</pdfrwt>
<pdfrwt beam="2">  1        1 0.45543210E-01 0.23492679E+03</pdfrwt>
<totfact> 0.10387495E+04</totfact>
</mgrwt>
</event>
<event>
 5    0  0.3888462E+000  0.2877115E+03  0.7546771E-02  0.1091550E+00
         21   -1    0    0  501  502  0.00000000000E+00  0.00000000000E+00  0.26275349933E+03  0.26275349933E+03  0.00000000000E+00 0. -1.
          2   -1    0    0  503    0 -0.00000000000E+00 -0.00000000000E+00 -0.36141194593E+03  0.36141194593E+03  0.00000000000E+00 0. -1.
         25    1    1    2    0    0  0.22091189206E+03  0.13546536218E+03  0.78683890479E+02  0.29827685634E+03  0.12500000000E+03 0.  0.
         21    1    1    2  503  502 -0.30117313908E+02 -0.60073834742E+02 -0.31731414775E+02  0.74315549526E+02  0.00000000000E+00 0. -1.
          2    1    1    2  501    0 -0.19079457815E+03 -0.75391527442E+02 -0.14561092231E+03  0.25157303941E+03  0.00000000000E+00 0. -1.
<mgrwt>
<rscale>  4 0.28771154E+03</rscale>
<asrwt>0</asrwt>
<pdfrwt beam="1">  1       21 0.40423615E-01 0.28771154E+03</pdfrwt>
<pdfrwt beam="2">  1        2 0.55601838E-01 0.28771154E+03</pdfrwt>
<totfact> 0.63980505E+03</totfact>
</mgrwt>
</event>
<event>
 5    0  0.3888462E+000  0.2570798E+03  0.7546771E-02  0.1108911E+00
         21   -1    0    0  501  502  0.00000000000E+00  0.00000000000E+00  0.12457686633E+04  0.12457686633E+04  0.00000000000E+00 0.  1.
          2   -1    0    0  503    0 -0.00000000000E+00 -0.00000000000E+00 -0.65615489110E+02  0.65615489110E+02  0.00000000000E+00 0.  1.
         25    1    1    2    0    0 -0.15362378692E+03  0.13546855570E+03  0.57286419161E+03  0.62108806101E+03  0.12500000000E+03 0.  0.
         21    1    1    2  503  502  0.18478236271E+03 -0.15965713494E+03  0.60305631171E+03  0.65062419061E+03  0.00000000000E+00 0.  1.
          2    1    1    2  501    0 -0.31158575782E+02  0.24188579244E+02  0.42326708706E+01  0.39671900802E+02  0.00000000000E+00 0.  1.
<mgrwt>
<rscale>  4 0.25707983E+03</rscale>
<asrwt>0</asrwt>
<pdfrwt beam="1">  1       21 0.19165670E+00 0.25707983E+03</pdfrwt>
<pdfrwt beam="2">  1        2 0.10094692E-01 0.25707983E+03</pdfrwt>
<totfact> 0.11263815E+03</totfact>
</mgrwt>
</event>
<event>
 5    0  0.3888462E+000  0.4380770E+03  0.7546771E-02  0.1031338E+00
          2   -1    0    0  503    0 -0.00000000000E+00  0.00000000000E+00  0.20894400958E+04  0.20894400958E+04  0.00000000000E+00 0.  1.
         21   -1    0    0  501  502  0.00000000000E+00 -0.00000000000E+00 -0.58068359864E+03  0.58068359864E+03  0.00000000000E+00 0. -1.
         25    1    1    2    0    0 -0.41495917736E+03 -0.10661104442E+03 -0.42590877047E+03  0.61691191789E+03  0.12500000000E+03 0.  0.
         21    1    1    2  503  502  0.38223214600E+03 -0.83884148140E+02  0.68677826593E+03  0.79044440051E+03  0.00000000000E+00 0.  1.
          2    1    1    2  501    0  0.32727031362E+02  0.19049519256E+03  0.12478870017E+04  0.12627673760E+04  0.00000000000E+00 0.  1.
<mgrwt>
<rscale>  4 0.43807704E+03</rscale>
<asrwt>0</asrwt>
<pdfrwt beam="1">  1       21 0.89335939E-01 0.43807704E+03</pdfrwt>
<pdfrwt beam="2">  1        2 0.32145232E+00 0.43807704E+03</pdfrwt>
<totfact> 0.78672680E+01</totfact>
</mgrwt>
</event>
<event>
 5    0  0.3888462E+000  0.2969408E+03  0.7546771E-02  0.1086780E+00
         -4   -1    0    0    0  501 -0.00000000000E+00  0.00000000000E+00  0.11723245917E+04  0.11723245917E+04  0.00000000000E+00 0.  1.
         21   -1    0    0  503  502  0.00000000000E+00 -0.00000000000E+00 -0.39357064240E+03  0.39357064240E+03  0.00000000000E+00 0. -1.
         25    1    1    2    0    0  0.17292821566E+03 -0.22278593757E+03 -0.77198884863E+02  0.31799749932E+03  0.12500000000E+03 0.  0.
         21    1    1    2  503  501 -0.17024226872E+03  0.19703159820E+03 -0.10922540079E+03  0.28237221698E+03  0.00000000000E+00 0. -1.
         -4    1    1    2    0  502 -0.26859469448E+01  0.25754339371E+02  0.96517823498E+03  0.96552551783E+03  0.00000000000E+00 0.  1.
<mgrwt>
<rscale>  4 0.29694077E+03</rscale>
<asrwt>0</asrwt>
<pdfrwt beam="1">  1       21 0.60549330E-01 0.29694077E+03</pdfrwt>
<pdfrwt beam="2">  1       -4 0.18035763E+00 0.29694077E+03</pdfrwt>
<totfact> 0.19944703E+01</totfact>
</mgrwt>
</event>
<event>
 5    0  0.3888462E+000  0.3331753E+03  0.7546771E-02  0.1069740E+00
          2   -1    0    0  503    0 -0.00000000000E+00  0.00000000000E+00  0.34853851539E+04  0.34853851539E+04  0.00000000000E+00 0. -1.
         21   -1    0    0  501  502  0.00000000000E+00 -0.00000000000E+00 -0.31863123746E+03  0.31863123746E+03  0.00000000000E+00 0. -1.
         25    1    1    2    0    0  0.95086006623E+02  0.29285891221E+03 -0.19488482124E+03  0.38524379900E+03  0.12500000000E+03 0.  0.
         21    1    1    2  503  502 -0.22543650147E+02 -0.32625336850E+03  0.93002549609E+03  0.98584831490E+03  0.00000000000E+00 0.  1.
          2    1    1    2  501    0 -0.72542356476E+02  0.33394456288E+02  0.24316132416E+04  0.24329242775E+04  0.00000000000E+00 0. -1.
<mgrwt>
<rscale>  4 0.33317525E+03</rscale>
<asrwt>0</asrwt>
<pdfrwt beam="1">  1       21 0.49020193E-01 0.33317525E+03</pdfrwt>
<pdfrwt beam="2">  1        2 0.53621307E+00 0.33317525E+03</pdfrwt>
<totfact> 0.48236633E+01</totfact>
</mgrwt>
</event>
<event>
 5    0  0.3888462E+000  0.3137241E+03  0.7546771E-02  0.1078574E+00
          2   -1    0    0  503    0 -0.00000000000E+00  0.00000000000E+00  0.15981978426E+03  0.15981978426E+03  0.00000000000E+00 0.  1.
         21   -1    0    0  501  502  0.00000000000E+00 -0.00000000000E+00 -0.57098250220E+03  0.57098250220E+03  0.00000000000E+00 0. -1.
         25    1    1    2    0    0  0.67675970242E+02 -0.27967436453E+03 -0.22293759236E+03  0.38486875323E+03  0.12500000000E+03 0.  0.
         21    1    1    2  503  502 -0.51355693871E+02  0.25685068769E+03 -0.16562605691E+03  0.30990591118E+03  0.00000000000E+00 0.  1.
          2    1    1    2  501    0 -0.16320276371E+02  0.22823676845E+02 -0.22599068669E+02  0.36027622046E+02  0.00000000000E+00 0.  1.
<mgrwt>
<rscale>  4 0.31372406E+03</rscale>
<asrwt>0</asrwt>
<pdfrwt beam="1">  1       21 0.87843461E-01 0.31372406E+03</pdfrwt>
<pdfrwt beam="2">  1        2 0.24587659E-01 0.31372406E+03</pdfrwt>
<totfact> 0.28818473E+03</totfact>
</mgrwt>
</event>
<event>
 5    0  0.3888462E+000  0.2590196E+03  0.7546771E-02  0.1107734E+00
         21   -1    0    0  501  502  0.00000000000E+00  0.00000000000E+00  0.56179404135E+02  0.56179404135E+02  0.00000000000E+00 0. -1.
          2   -1    0    0  503    0 -0.00000000000E+00 -0.00000000000E+00 -0.23742648329E+04  0.23742648329E+04  0.00000000000E+00 0. -1.
         25    1    1    2    0    0 -0.11439071007E+03  0.18473155528E+03 -0.34271881864E+03  0.42460825559E+03  0.12500000000E+03 0.  0.
         21    1    1    2  503  502  0.19037009641E+03 -0.18771007545E+03 -0.13824784458E+04  0.14080917935E+04  0.00000000000E+00 0. -1.
          2    1    1    2  501    0 -0.75979386344E+02  0.29785201708E+01 -0.59288816436E+03  0.59774418790E+03  0.00000000000E+00 0. -1.
<mgrwt>
<rscale>  4 0.25901957E+03</rscale>
<asrwt>0</asrwt>
<pdfrwt beam="1">  1       21 0.86429878E-02 0.25901957E+03</pdfrwt>
<pdfrwt beam="2">  1        2 0.36527140E+00 0.25901957E+03</pdfrwt>
<totfact> 0.62319330E+03</totfact>
</mgrwt>
</event>
<event>
 5    0  0.3888462E+000  0.3158668E+03  0.7546771E-02  0.1077567E+00
          2   -1    0    0  503    0 -0.00000000000E+00  0.00000000000E+00  0.21360092527E+04  0.21360092527E+04  0.00000000000E+00 0. -1.
         21   -1    0    0  501  502  0.00000000000E+00 -0.00000000000E+00 -0.80602525814E+03  0.80602525814E+03  0.00000000000E+00 0.  1.
         25    1    1    2    0    0  0.49988978767E+02 -0.31587860991E+03 -0.37726549857E+03  0.51012983701E+03  0.12500000000E+03 0.  0.
         21    1    1    2  503  502  0.86104200542E+01  0.26969419681E+03 -0.31130555138E+03  0.41197117065E+03  0.00000000000E+00 0.  1.
          2    1    1    2  501    0 -0.58599398821E+02  0.46184413100E+02  0.20185550445E+04  0.20199335032E+04  0.00000000000E+00 0. -1.
<mgrwt>
<rscale>  4 0.31586675E+03</rscale>
<asrwt>0</asrwt>
<pdfrwt beam="1">  1       21 0.12400389E+00 0.31586675E+03</pdfrwt>
<pdfrwt beam="2">  1        2 0.32861681E+00 0.31586675E+03</pdfrwt>
<totfact> 0.35628306E+01</totfact>
</mgrwt>
</event>
<event>
 5    0  0.3888462E+000  0.1736116E+03  0.7546771E-02  0.1174133E+00
          1   -1    0    0  503    0 -0.00000000000E+00  0.00000000000E+00  0.25754168678E+03  0.25754168678E+03  0.00000000000E+00 0.  1.
         21   -1    0    0  501  502  0.00000000000E+00 -0.00000000000E+00 -0.18809197468E+04  0.18809197468E+04  0.00000000000E+00 0.  1.
         25    1    1    2    0    0 -0.10684878395E+03 -0.17708156560E+03 -0.16779737078E+04  0.16952862022E+04  0.12500000000E+03 0.  0.
         21    1    1    2  503  502  0.92706607436E+02  0.58062493948E+02 -0.16209135263E+03  0.19554890658E+03  0.00000000000E+00 0.  1.
          1    1    1    2  501    0  0.14142176517E+02  0.11901907165E+03  0.21668700040E+03  0.24762632476E+03  0.00000000000E+00 0.  1.
<mgrwt>
<rscale>  4 0.17361156E+03</rscale>
<asrwt>0</asrwt>
<pdfrwt beam="1">  1       21 0.28937226E+00 0.17361156E+03</pdfrwt>
<pdfrwt beam="2">  1        1 0.39621799E-01 0.17361156E+03</pdfrwt>
<totfact> 0.46705974E+01</totfact>
</mgrwt>
</event>
<event>
 5    0  0.3888462E+000  0.3098014E+03  0.7546771E-02  0.1080441E+00
         21   -1    0    0  501  502  0.00000000000E+00  0.00000000000E+00  0.38221353453E+03  0.38221353453E+03  0.00000000000E+00 0.  1.
          1   -1    0    0  503    0 -0.00000000000E+00 -0.00000000000E+00 -0.28343862652E+03  0.28343862652E+03  0.00000000000E+00 0.  1.
         25    1    1    2    0    0  0.29808035968E+03  0.43178669167E+01  0.10949856081E+03  0.34129969180E+03  0.12500000000E+03 0.  0.
         21    1    1    2  503  502 -0.26282673092E+03 -0.44358711061E+02 -0.28634323747E+02  0.26807743327E+03  0.00000000000E+00 0.  1.
          1    1    1    2  501    0 -0.35253628769E+02  0.40040844144E+02  0.17910670936E+02  0.56275035980E+02  0.00000000000E+00 0.  1.
<mgrwt>
<rscale>  4 0.30980136E+03</rscale>
<asrwt>0</asrwt>
<pdfrwt beam="1">  1       21 0.58802082E-01 0.30980136E+03</pdfrwt>
<pdfrwt beam="2">  1        1 0.43605943E-01 0.30980136E+03</pdfrwt>
<totfact> 0.26853651E+03</totfact>
</mgrwt>
</event>
<event>
 5    0  0.3888462E+000  0.2308981E+03  0.7546771E-02  0.1126009E+00
         -4   -1    0    0    0  501 -0.00000000000E+00  0.00000000000E+00  0.17146247363E+04  0.17146247363E+04  0.00000000000E+00 0.  1.
         21   -1    0    0  503  502  0.00000000000E+00 -0.00000000000E+00 -0.77457231141E+02  0.77457231141E+02  0.00000000000E+00 0. -1.
         25    1    1    2    0    0  0.14858275551E+03  0.13976871200E+03  0.21746994591E+03  0.32331146819E+03  0.12500000000E+03 0.  0.
         21    1    1    2  503  501 -0.10838218617E+03 -0.14779405529E+03  0.32351883816E+03  0.37182552320E+03  0.00000000000E+00 0. -1.
         -4    1    1    2    0  502 -0.40200569340E+02  0.80253432895E+01  0.10961787211E+04  0.10969449761E+04  0.00000000000E+00 0.  1.
<mgrwt>
<rscale>  4 0.23089814E+03</rscale>
<asrwt>0</asrwt>
<pdfrwt beam="1">  1       21 0.11916498E-01 0.23089814E+03</pdfrwt>
<pdfrwt beam="2">  1       -4 0.26378839E+00 0.23089814E+03</pdfrwt>
<totfact> 0.14903078E+02</totfact>
</mgrwt>
</event>
<event>
 5    0  0.3888462E+000  0.2850284E+03  0.7546771E-02  0.1092974E+00
         21   -1    0    0  501  502  0.00000000000E+00  0.00000000000E+00  0.22377925040E+03  0.22377925040E+03  0.00000000000E+00 0.  1.
          1   -1    0    0  503    0 -0.00000000000E+00 -0.00000000000E+00 -0.95482566232E+03  0.95482566232E+03  0.00000000000E+00 0.  1.
         25    1    1    2    0    0  0.25081555107E+03  0.69923434459E+02  0.96366368372E+02  0.30448186202E+03  0.12500000000E+03 0.  0.
         21    1    1    2  503  502 -0.22512811864E+03 -0.55964488220E+02 -0.57513873930E+03  0.62016067531E+03  0.00000000000E+00 0.  1.
          1    1    1    2  501    0 -0.25687432422E+02 -0.13958946239E+02 -0.25227404099E+03  0.25396237540E+03  0.00000000000E+00 0.  1.
<mgrwt>
<rscale>  4 0.28502842E+03</rscale>
<asrwt>0</asrwt>
<pdfrwt beam="1">  1       21 0.34427576E-01 0.28502842E+03</pdfrwt>
<pdfrwt beam="2">  1        1 0.14689626E+00 0.28502842E+03</pdfrwt>
<totfact> 0.15176018E+03</totfact>
</mgrwt>
</event>
