<event>
 5    0  0.1911311E+001  0.5007636E+03  0.7546771E-02  0.1013580E+00
         21   -1    0    0  504  501  0.00000000000E+00  0.00000000000E+00  0.42085207815E+03  0.42085207815E+03  0.00000000000E+00 0.  1.
         21   -1    0    0  503  502 -0.00000000000E+00 -0.00000000000E+00 -0.62842027906E+03  0.62842027906E+03  0.00000000000E+00 0.  1.
         25    1    1    2    0    0  0.17121580840E+03 -0.45367865643E+03 -0.24390485698E+03  0.55700426893E+03  0.12500000000E+03 0.  0.
         21    1    1    2  503  501 -0.15685619074E+03  0.43634412946E+03  0.49296655751E+02  0.46629413910E+03  0.00000000000E+00 0.  1.
         21    1    1    2  504  502 -0.14359617658E+02  0.17334526968E+02 -0.12959999681E+02  0.25973949184E+02  0.00000000000E+00 0.  1.
<mgrwt>
<rscale>  4 0.50076359E+03</rscale>
<asrwt>0</asrwt>
<pdfrwt beam="1">  1       21 0.64746474E-01 0.50076359E+03</pdfrwt>
<pdfrwt beam="2">  1       21 0.96680042E-01 0.50076359E+03</pdfrwt>
<totfact> 0.16489851E+03</totfact>
</mgrwt>
</event>
<event>
 5    0  0.1911311E+001  0.2439147E+03  0.7546771E-02  0.1117212E+00
         21   -1    0    0  504  501  0.00000000000E+00  0.00000000000E+00  0.28935456172E+03  0.28935456172E+03  0.00000000000E+00 0. -1.
         21   -1    0    0  503  502 -0.00000000000E+00 -0.00000000000E+00 -0.14261951677E+04  0.14261951677E+04  0.00000000000E+00 0. -1.
         25    1    1    2    0    0 -0.26132601894E+03  0.66532100567E+02 -0.74750076350E+03  0.80442538499E+03  0.12500000000E+03 0.  0.
         21    1    1    2  503  501  0.15682562911E+03  0.11612716412E+03 -0.58933927671E+03  0.62080639435E+03  0.00000000000E+00 0. -1.
         21    1    1    2  504  502  0.10450038983E+03 -0.18265926469E+03  0.19999943422E+03  0.29031795008E+03  0.00000000000E+00 0. -1.
<mgrwt>
<rscale>  4 0.24391469E+03</rscale>
<asrwt>0</asrwt>
<pdfrwt beam="1">  1       21 0.44516087E-01 0.24391469E+03</pdfrwt>
<pdfrwt beam="2">  1       21 0.21941464E+00 0.24391469E+03</pdfrwt>
<totfact> 0.46367569E+02</totfact>
</mgrwt>
</event>
<event>
 5    0  0.1911311E+001  0.3485378E+03  0.7546771E-02  0.1063217E+00
         21   -1    0    0  504  501  0.00000000000E+00  0.00000000000E+00  0.46086680130E+03  0.46086680130E+03  0.00000000000E+00 0.  1.
         21   -1    0    0  503  502 -0.00000000000E+00 -0.00000000000E+00 -0.33630294673E+03  0.33630294673E+03  0.00000000000E+00 0.  1.
         25    1    1    2    0    0  0.13083599527E+03 -0.28338436727E+03  0.13278972889E+03  0.36150085666E+03  0.12500000000E+03 0.  0.
         21    1    1    2  503  501 -0.15994507050E+03  0.29132734124E+03 -0.93471762693E+02  0.34524051870E+03  0.00000000000E+00 0.  1.
         21    1    1    2  504  502  0.29109075239E+02 -0.79429739738E+01  0.85245888381E+02  0.90428372664E+02  0.00000000000E+00 0.  1.
<mgrwt>
<rscale>  4 0.34853775E+03</rscale>
<asrwt>0</asrwt>
<pdfrwt beam="1">  1       21 0.70902585E-01 0.34853775E+03</pdfrwt>
<pdfrwt beam="2">  1       21 0.51738915E-01 0.34853775E+03</pdfrwt>
<totfact> 0.58508136E+03</totfact>
</mgrwt>
</event>
<event>
 5    0  0.1911311E+001  0.2920408E+03  0.7546771E-02  0.1089288E+00
         21   -1    0    0  502  501  0.00000000000E+00  0.00000000000E+00  0.74456490564E+03  0.74456490564E+03  0.00000000000E+00 0. -1.
         21   -1    0    0  504  502 -0.00000000000E+00 -0.00000000000E+00 -0.12439241407E+03  0.12439241407E+03  0.00000000000E+00 0. -1.
         25    1    1    2    0    0  0.26435848428E+03  0.36721406743E+02  0.26280724784E+03  0.39487532138E+03  0.12500000000E+03 0.  0.
         21    1    1    2  503  501 -0.25629200530E+03 -0.56104027050E+02  0.36687640597E+03  0.45103386912E+03  0.00000000000E+00 0. -1.
         21    1    1    2  504  503 -0.80664789706E+01  0.19382620307E+02 -0.95111622418E+01  0.23048129212E+02  0.00000000000E+00 0. -1.
<mgrwt>
<rscale>  4 0.29204079E+03</rscale>
<asrwt>0</asrwt>
<pdfrwt beam="1">  1       21 0.11454844E+00 0.29204079E+03</pdfrwt>
<pdfrwt beam="2">  1       21 0.19137295E-01 0.29204079E+03</pdfrwt>
<totfact> 0.14027998E+04</totfact>
</mgrwt>
</event>
