<event>
 5    0  0.1257040E+001  0.4083300E+03  0.7546771E-02  0.1040933E+00
         21   -1    0    0  502  501  0.00000000000E+00  0.00000000000E+00  0.10455138512E+04  0.10455138512E+04  0.00000000000E+00 0. -1.
         21   -1    0    0  504  502 -0.00000000000E+00 -0.00000000000E+00 -0.10447537550E+04  0.10447537550E+04  0.00000000000E+00 0. -1.
         25    1    1    2    0    0 -0.27939318689E+03  0.30532037808E+03  0.91709312361E+03  0.10138865240E+04  0.12500000000E+03 0.  0.
         21    1    1    2  503  501  0.99539744679E+01 -0.26485047186E+02  0.37367542061E+02  0.46870806819E+02  0.00000000000E+00 0. -1.
         21    1    1    2  504  503  0.26943921242E+03 -0.27883533089E+03 -0.95370056946E+03  0.10295102754E+04  0.00000000000E+00 0. -1.
<mgrwt>
<rscale>  4 0.40832997E+03</rscale>
<asrwt>0</asrwt>
<pdfrwt beam="1">  1       21 0.16084829E+00 0.40832997E+03</pdfrwt>
<pdfrwt beam="2">  1       21 0.16073135E+00 0.40832997E+03</pdfrwt>
<totfact> 0.49698821E+01</totfact>
</mgrwt>
</event>
<event>
 5    0  0.1257040E+001  0.2273416E+03  0.7546771E-02  0.1128525E+00
         21   -1    0    0  504  501  0.00000000000E+00  0.00000000000E+00  0.14210587287E+04  0.14210587287E+04  0.00000000000E+00 0. -1.
         21   -1    0    0  503  502 -0.00000000000E+00 -0.00000000000E+00 -0.47883407260E+02  0.47883407260E+02  0.00000000000E+00 0. -1.
         25    1    1    2    0    0  0.13514869727E+02 -0.22534967247E+03  0.67522013272E+03  0.72285016028E+03  0.12500000000E+03 0.  0.
         21    1    1    2  503  501 -0.33216958492E+02  0.53155495221E+02  0.66930455778E+02  0.91698194717E+02  0.00000000000E+00 0. -1.
         21    1    1    2  504  502  0.19702088765E+02  0.17219417725E+03  0.63102473296E+03  0.65439378098E+03  0.00000000000E+00 0. -1.
<mgrwt>
<rscale>  4 0.22734164E+03</rscale>
<asrwt>0</asrwt>
<pdfrwt beam="1">  1       21 0.21862439E+00 0.22734164E+03</pdfrwt>
<pdfrwt beam="2">  1       21 0.73666791E-02 0.22734164E+03</pdfrwt>
<totfact> 0.13816477E+04</totfact>
</mgrwt>
</event>
<event>
 5    0  0.1257040E+001  0.2604835E+03  0.7546771E-02  0.1106853E+00
         21   -1    0    0  504  501  0.00000000000E+00  0.00000000000E+00  0.20340760806E+04  0.20340760806E+04  0.00000000000E+00 0.  1.
         21   -1    0    0  503  502 -0.00000000000E+00 -0.00000000000E+00 -0.31320472255E+02  0.31320472255E+02  0.00000000000E+00 0.  1.
         25    1    1    2    0    0  0.13588344077E+03  0.18374530839E+03  0.86378490313E+03  0.90220618858E+03  0.12500000000E+03 0.  0.
         21    1    1    2  503  501 -0.15524808969E+02 -0.20408598148E+02  0.59074983621E+02  0.64400188367E+02  0.00000000000E+00 0.  1.
         21    1    1    2  504  502 -0.12035863180E+03 -0.16333671024E+03  0.10798957215E+04  0.10987901759E+04  0.00000000000E+00 0.  1.
<mgrwt>
<rscale>  4 0.26048349E+03</rscale>
<asrwt>0</asrwt>
<pdfrwt beam="1">  1       21 0.31293468E+00 0.26048349E+03</pdfrwt>
<pdfrwt beam="2">  1       21 0.48185358E-02 0.26048349E+03</pdfrwt>
<totfact> 0.77035130E+03</totfact>
</mgrwt>
</event>
<event>
 5    0  0.1257040E+001  0.2433574E+03  0.7546771E-02  0.1117576E+00
         21   -1    0    0  503  501  0.00000000000E+00  0.00000000000E+00  0.14026614910E+03  0.14026614910E+03  0.00000000000E+00 0.  1.
         21   -1    0    0  504  502 -0.00000000000E+00 -0.00000000000E+00 -0.11658163055E+04  0.11658163055E+04  0.00000000000E+00 0.  1.
         25    1    1    2    0    0 -0.14298541715E+03  0.16073191073E+03 -0.30054136154E+02  0.25061489929E+03  0.12500000000E+03 0.  0.
         21    1    1    2  503  502 -0.58742719216E+01 -0.33907388364E+02 -0.70166381949E+03  0.70250717693E+03  0.00000000000E+00 0.  1.
         21    1    1    2  504  501  0.14885968908E+03 -0.12682452237E+03 -0.29383220075E+03  0.35296037837E+03  0.00000000000E+00 0.  1.
<mgrwt>
<rscale>  4 0.24335740E+03</rscale>
<asrwt>0</asrwt>
<pdfrwt beam="1">  1       21 0.21579407E-01 0.24335740E+03</pdfrwt>
<pdfrwt beam="2">  1       21 0.17935636E+00 0.24335740E+03</pdfrwt>
<totfact> 0.35248188E+03</totfact>
</mgrwt>
</event>
<event>
 5    0  0.1257040E+001  0.3703072E+03  0.7546771E-02  0.1054576E+00
         21   -1    0    0  503  501  0.00000000000E+00  0.00000000000E+00  0.34646138673E+03  0.34646138673E+03  0.00000000000E+00 0.  1.
         21   -1    0    0  504  502 -0.00000000000E+00 -0.00000000000E+00 -0.78947724870E+03  0.78947724870E+03  0.00000000000E+00 0.  1.
         25    1    1    2    0    0  0.30702743662E+03  0.15730019767E+03 -0.52351282547E+03  0.63929639250E+03  0.12500000000E+03 0.  0.
         21    1    1    2  503  502  0.33989455672E+02 -0.74824881163E+02 -0.76492012686E+02  0.11227232047E+03  0.00000000000E+00 0.  1.
         21    1    1    2  504  501 -0.34101689229E+03 -0.82475316508E+02  0.15698897619E+03  0.38436992248E+03  0.00000000000E+00 0.  1.
<mgrwt>
<rscale>  4 0.37030725E+03</rscale>
<asrwt>0</asrwt>
<pdfrwt beam="1">  1       21 0.53301752E-01 0.37030725E+03</pdfrwt>
<pdfrwt beam="2">  1       21 0.12145804E+00 0.37030725E+03</pdfrwt>
<totfact> 0.15128207E+03</totfact>
</mgrwt>
</event>
<event>
 5    0  0.1257040E+001  0.2546452E+03  0.7546771E-02  0.1110404E+00
         21   -1    0    0  504  501  0.00000000000E+00  0.00000000000E+00  0.17804719229E+03  0.17804719229E+03  0.00000000000E+00 0. -1.
         21   -1    0    0  503  502 -0.00000000000E+00 -0.00000000000E+00 -0.35843224017E+03  0.35843224017E+03  0.00000000000E+00 0. -1.
         25    1    1    2    0    0 -0.14456063225E+03  0.15101000168E+03 -0.78036976425E+02  0.25576662545E+03  0.12500000000E+03 0.  0.
         21    1    1    2  503  501 -0.25987001218E+02  0.79246852378E+01 -0.31108761962E+01  0.27345976288E+02  0.00000000000E+00 0. -1.
         21    1    1    2  504  502  0.17054763347E+03 -0.15893468692E+03 -0.99237195268E+02  0.25336683072E+03  0.00000000000E+00 0. -1.
<mgrwt>
<rscale>  4 0.25464518E+03</rscale>
<asrwt>0</asrwt>
<pdfrwt beam="1">  1       21 0.27391876E-01 0.25464518E+03</pdfrwt>
<pdfrwt beam="2">  1       21 0.55143421E-01 0.25464518E+03</pdfrwt>
<totfact> 0.38298724E+04</totfact>
</mgrwt>
</event>
<event>
 5    0  0.1257040E+001  0.2555820E+03  0.7546771E-02  0.1109827E+00
         21   -1    0    0  502  501  0.00000000000E+00  0.00000000000E+00  0.55802957870E+03  0.55802957870E+03  0.00000000000E+00 0. -1.
         21   -1    0    0  504  502 -0.00000000000E+00 -0.00000000000E+00 -0.12401806596E+03  0.12401806596E+03  0.00000000000E+00 0. -1.
         25    1    1    2    0    0  0.18482963186E+03 -0.12745057662E+03  0.13680929583E+03  0.29111411116E+03  0.12500000000E+03 0.  0.
         21    1    1    2  503  501  0.91465943434E+01  0.20442015152E+02  0.70456301767E+02  0.73929876439E+02  0.00000000000E+00 0. -1.
         21    1    1    2  504  503 -0.19397622620E+03  0.10700856147E+03  0.22674591514E+03  0.31700365706E+03  0.00000000000E+00 0. -1.
<mgrwt>
<rscale>  4 0.25558203E+03</rscale>
<asrwt>0</asrwt>
<pdfrwt beam="1">  1       21 0.85850703E-01 0.25558203E+03</pdfrwt>
<pdfrwt beam="2">  1       21 0.19079703E-01 0.25558203E+03</pdfrwt>
<totfact> 0.28582440E+04</totfact>
</mgrwt>
</event>
<event>
 5    0  0.1257040E+001  0.3301020E+03  0.7546771E-02  0.1071092E+00
         21   -1    0    0  504  501  0.00000000000E+00  0.00000000000E+00  0.18644647431E+04  0.18644647431E+04  0.00000000000E+00 0.  1.
         21   -1    0    0  501  502 -0.00000000000E+00 -0.00000000000E+00 -0.70482097324E+02  0.70482097324E+02  0.00000000000E+00 0.  1.
         25    1    1    2    0    0 -0.29607340952E+03  0.75384934263E+02  0.13601265705E+04  0.13996112460E+04  0.12500000000E+03 0.  0.
         21    1    1    2  503  502  0.21125414830E+02 -0.12756010879E+02  0.74907302423E+02  0.78867629111E+02  0.00000000000E+00 0. -1.
         21    1    1    2  504  503  0.27494799469E+03 -0.62628923384E+02  0.35894877286E+03  0.45646796532E+03  0.00000000000E+00 0.  1.
<mgrwt>
<rscale>  4 0.33010203E+03</rscale>
<asrwt>0</asrwt>
<pdfrwt beam="1">  1       21 0.28684069E+00 0.33010203E+03</pdfrwt>
<pdfrwt beam="2">  1       21 0.10843401E-01 0.33010203E+03</pdfrwt>
<totfact> 0.25225513E+03</totfact>
</mgrwt>
</event>
<event>
 5    0  0.1257040E+001  0.3719108E+03  0.7546771E-02  0.1053965E+00
         21   -1    0    0  504  501  0.00000000000E+00  0.00000000000E+00  0.36430426260E+03  0.36430426260E+03  0.00000000000E+00 0.  1.
         21   -1    0    0  501  502 -0.00000000000E+00 -0.00000000000E+00 -0.67411663963E+03  0.67411663963E+03  0.00000000000E+00 0.  1.
         25    1    1    2    0    0  0.29323428435E+02 -0.31988398706E+03  0.19111095915E+03  0.39412438054E+03  0.12500000000E+03 0.  0.
         21    1    1    2  503  502 -0.92753352550E+01 -0.35598281181E+02 -0.10499183952E+02  0.38255748990E+02  0.00000000000E+00 0. -1.
         21    1    1    2  504  503 -0.20048093180E+02  0.35548226824E+03 -0.49042415223E+03  0.60604077269E+03  0.00000000000E+00 0.  1.
<mgrwt>
<rscale>  4 0.37191075E+03</rscale>
<asrwt>0</asrwt>
<pdfrwt beam="1">  1       21 0.56046811E-01 0.37191075E+03</pdfrwt>
<pdfrwt beam="2">  1       21 0.10371025E+00 0.37191075E+03</pdfrwt>
<totfact> 0.20083942E+03</totfact>
</mgrwt>
</event>
<event>
 5    0  0.1257040E+001  0.1979814E+03  0.7546771E-02  0.1151453E+00
         21   -1    0    0  502  501  0.00000000000E+00  0.00000000000E+00  0.80260719915E+02  0.80260719915E+02  0.00000000000E+00 0.  1.
         21   -1    0    0  504  502 -0.00000000000E+00 -0.00000000000E+00 -0.13194369840E+04  0.13194369840E+04  0.00000000000E+00 0.  1.
         25    1    1    2    0    0  0.15994469127E+03  0.13895978261E+03 -0.25483157293E+03  0.35419804631E+03  0.12500000000E+03 0.  0.
         21    1    1    2  503  501 -0.51712273520E+02 -0.39465977282E+02 -0.17257520309E+02  0.67301891523E+02  0.00000000000E+00 0.  1.
         21    1    1    2  504  503 -0.10823241775E+03 -0.99493805327E+02 -0.96708717080E+03  0.97819776603E+03  0.00000000000E+00 0.  1.
<mgrwt>
<rscale>  4 0.19798139E+03</rscale>
<asrwt>0</asrwt>
<pdfrwt beam="1">  1       21 0.12347804E-01 0.19798139E+03</pdfrwt>
<pdfrwt beam="2">  1       21 0.20299029E+00 0.19798139E+03</pdfrwt>
<totfact> 0.71299430E+03</totfact>
</mgrwt>
</event>
<event>
 5    0  0.1257040E+001  0.2024838E+03  0.7546771E-02  0.1147660E+00
         21   -1    0    0  504  501  0.00000000000E+00  0.00000000000E+00  0.25597579752E+03  0.25597579752E+03  0.00000000000E+00 0. -1.
         21   -1    0    0  501  502 -0.00000000000E+00 -0.00000000000E+00 -0.25013347120E+03  0.25013347120E+03  0.00000000000E+00 0. -1.
         25    1    1    2    0    0  0.13964527771E+01  0.20298657577E+03 -0.72403285310E+02  0.24914400605E+03  0.12500000000E+03 0.  0.
         21    1    1    2  503  502 -0.28502589911E+02 -0.73709017394E+02  0.95273055020E+02  0.12378356874E+03  0.00000000000E+00 0. -1.
         21    1    1    2  504  503  0.27106137134E+02 -0.12927755838E+03 -0.17027443388E+02  0.13318169393E+03  0.00000000000E+00 0. -1.
<mgrwt>
<rscale>  4 0.20248381E+03</rscale>
<asrwt>0</asrwt>
<pdfrwt beam="1">  1       21 0.39380892E-01 0.20248381E+03</pdfrwt>
<pdfrwt beam="2">  1       21 0.38482073E-01 0.20248381E+03</pdfrwt>
<totfact> 0.40274094E+04</totfact>
</mgrwt>
</event>
<event>
 5    0  0.1257040E+001  0.3551293E+03  0.7546771E-02  0.1060529E+00
         21   -1    0    0  502  501  0.00000000000E+00  0.00000000000E+00  0.19424571981E+04  0.19424571981E+04  0.00000000000E+00 0.  1.
         21   -1    0    0  504  502 -0.00000000000E+00 -0.00000000000E+00 -0.51469332120E+03  0.51469332120E+03  0.00000000000E+00 0.  1.
         25    1    1    2    0    0  0.65164404532E+02 -0.28614831291E+03  0.15643431526E+04  0.15965342952E+04  0.12500000000E+03 0.  0.
         21    1    1    2  503  501 -0.58365432071E+02 -0.47786286586E+02  0.30089961617E+03  0.31021062499E+03  0.00000000000E+00 0.  1.
         21    1    1    2  504  503 -0.67989724600E+01  0.33393459950E+03 -0.43747889185E+03  0.55040559916E+03  0.00000000000E+00 0.  1.
<mgrwt>
<rscale>  4 0.35512929E+03</rscale>
<asrwt>0</asrwt>
<pdfrwt beam="1">  1       21 0.29883957E+00 0.35512929E+03</pdfrwt>
<pdfrwt beam="2">  1       21 0.79183588E-01 0.35512929E+03</pdfrwt>
<totfact> 0.39837797E+01</totfact>
</mgrwt>
</event>
<event>
 5    0  0.1257040E+001  0.3133370E+03  0.7546771E-02  0.1078757E+00
         21   -1    0    0  502  501  0.00000000000E+00  0.00000000000E+00  0.78008726026E+03  0.78008726026E+03  0.00000000000E+00 0. -1.
         21   -1    0    0  504  502 -0.00000000000E+00 -0.00000000000E+00 -0.29753973820E+03  0.29753973820E+03  0.00000000000E+00 0.  1.
         25    1    1    2    0    0 -0.16932657838E+03  0.21823540201E+03 -0.15632100539E+03  0.34111499170E+03  0.12500000000E+03 0.  0.
         21    1    1    2  503  501  0.19504266270E+03 -0.21298522734E+03  0.64741586741E+03  0.70890877602E+03  0.00000000000E+00 0. -1.
         21    1    1    2  504  503 -0.25716084322E+02 -0.52501746759E+01 -0.85473399650E+01  0.27603230743E+02  0.00000000000E+00 0.  1.
<mgrwt>
<rscale>  4 0.31333701E+03</rscale>
<asrwt>0</asrwt>
<pdfrwt beam="1">  1       21 0.12001342E+00 0.31333701E+03</pdfrwt>
<pdfrwt beam="2">  1       21 0.45775345E-01 0.31333701E+03</pdfrwt>
<totfact> 0.22152780E+03</totfact>
</mgrwt>
</event>
<event>
 5    0  0.1257040E+001  0.3244388E+03  0.7546771E-02  0.1073624E+00
         21   -1    0    0  502  501  0.00000000000E+00  0.00000000000E+00  0.87562743032E+03  0.87562743032E+03  0.00000000000E+00 0. -1.
         21   -1    0    0  504  502 -0.00000000000E+00 -0.00000000000E+00 -0.23601528672E+03  0.23601528672E+03  0.00000000000E+00 0. -1.
         25    1    1    2    0    0 -0.12248943805E+03  0.26108518367E+03  0.61610711414E+03  0.69165172714E+03  0.12500000000E+03 0.  0.
         21    1    1    2  503  501 -0.31709374122E+02 -0.19360469377E+01  0.10328549735E+03  0.10806075443E+03  0.00000000000E+00 0. -1.
         21    1    1    2  504  503  0.15419881217E+03 -0.25914913673E+03 -0.79780467892E+02  0.31193023547E+03  0.00000000000E+00 0. -1.
<mgrwt>
<rscale>  4 0.32443876E+03</rscale>
<asrwt>0</asrwt>
<pdfrwt beam="1">  1       21 0.13471191E+00 0.32443876E+03</pdfrwt>
<pdfrwt beam="2">  1       21 0.36310044E-01 0.32443876E+03</pdfrwt>
<totfact> 0.26355677E+03</totfact>
</mgrwt>
</event>
<event>
 5    0  0.1257040E+001  0.2328131E+03  0.7546771E-02  0.1124675E+00
         21   -1    0    0  502  501  0.00000000000E+00  0.00000000000E+00  0.19426006266E+03  0.19426006266E+03  0.00000000000E+00 0.  1.
         21   -1    0    0  504  502 -0.00000000000E+00 -0.00000000000E+00 -0.74308900750E+03  0.74308900750E+03  0.00000000000E+00 0.  1.
         25    1    1    2    0    0 -0.20653998631E+03 -0.10098183452E+03 -0.34185067883E+03  0.43051478891E+03  0.12500000000E+03 0.  0.
         21    1    1    2  503  501  0.19443500221E+03 -0.82776621264E+01  0.71589673596E+02  0.20736096822E+03  0.00000000000E+00 0.  1.
         21    1    1    2  504  503  0.12104984100E+02  0.10925949665E+03 -0.27856793960E+03  0.29947331304E+03  0.00000000000E+00 0.  1.
<mgrwt>
<rscale>  4 0.23281307E+03</rscale>
<asrwt>0</asrwt>
<pdfrwt beam="1">  1       21 0.29886163E-01 0.23281307E+03</pdfrwt>
<pdfrwt beam="2">  1       21 0.11432139E+00 0.23281307E+03</pdfrwt>
<totfact> 0.62009470E+03</totfact>
</mgrwt>
</event>
<event>
 5    0  0.1257040E+001  0.2718201E+03  0.7546771E-02  0.1100242E+00
         21   -1    0    0  504  501  0.00000000000E+00  0.00000000000E+00  0.38011205077E+03  0.38011205077E+03  0.00000000000E+00 0.  1.
         21   -1    0    0  503  502 -0.00000000000E+00 -0.00000000000E+00 -0.26333427586E+03  0.26333427586E+03  0.00000000000E+00 0.  1.
         25    1    1    2    0    0 -0.21606437687E+03  0.95889211301E+02  0.18416586198E+03  0.32468541778E+03  0.12500000000E+03 0.  0.
         21    1    1    2  503  501 -0.19773270652E+02 -0.10604040439E+02 -0.64144275293E+02  0.67955249678E+02  0.00000000000E+00 0. -1.
         21    1    1    2  504  502  0.23583764753E+03 -0.85285170862E+02 -0.32438117746E+01  0.25080565918E+03  0.00000000000E+00 0.  1.
<mgrwt>
<rscale>  4 0.27182014E+03</rscale>
<asrwt>0</asrwt>
<pdfrwt beam="1">  1       21 0.58478777E-01 0.27182014E+03</pdfrwt>
<pdfrwt beam="2">  1       21 0.40512965E-01 0.27182014E+03</pdfrwt>
<totfact> 0.15387964E+04</totfact>
</mgrwt>
</event>
<event>
 5    0  0.1257040E+001  0.3089662E+03  0.7546771E-02  0.1080842E+00
         21   -1    0    0  504  501  0.00000000000E+00  0.00000000000E+00  0.27922515979E+03  0.27922515979E+03  0.00000000000E+00 0. -1.
         21   -1    0    0  503  502 -0.00000000000E+00 -0.00000000000E+00 -0.87863473125E+03  0.87863473125E+03  0.00000000000E+00 0. -1.
         25    1    1    2    0    0  0.13887752981E+03  0.26685270636E+03  0.84910838632E+02  0.33664846011E+03  0.12500000000E+03 0.  0.
         21    1    1    2  503  501 -0.11297496450E+03 -0.25657231734E+03 -0.72190136975E+03  0.77442513148E+03  0.00000000000E+00 0. -1.
         21    1    1    2  504  502 -0.25902565312E+02 -0.10280389012E+02  0.37580959649E+02  0.46786299449E+02  0.00000000000E+00 0.  1.
<mgrwt>
<rscale>  4 0.30896619E+03</rscale>
<asrwt>0</asrwt>
<pdfrwt beam="1">  1       21 0.42957717E-01 0.30896619E+03</pdfrwt>
<pdfrwt beam="2">  1       21 0.13517457E+00 0.30896619E+03</pdfrwt>
<totfact> 0.18698955E+03</totfact>
</mgrwt>
</event>
<event>
 5    0  0.1257040E+001  0.2852890E+03  0.7546771E-02  0.1092835E+00
         21   -1    0    0  504  501  0.00000000000E+00  0.00000000000E+00  0.56022960623E+03  0.56022960623E+03  0.00000000000E+00 0. -1.
         21   -1    0    0  501  502 -0.00000000000E+00 -0.00000000000E+00 -0.39090410696E+03  0.39090410696E+03  0.00000000000E+00 0. -1.
         25    1    1    2    0    0  0.23258951383E+03  0.10704783370E+03  0.41898181349E+03  0.50668321531E+03  0.12500000000E+03 0.  0.
         21    1    1    2  503  502  0.17716699090E+02 -0.48784690517E+02  0.33719545611E+02  0.61893741296E+02  0.00000000000E+00 0. -1.
         21    1    1    2  504  503 -0.25030621292E+03 -0.58263143178E+02 -0.28337585982E+03  0.38255675659E+03  0.00000000000E+00 0. -1.
<mgrwt>
<rscale>  4 0.28528904E+03</rscale>
<asrwt>0</asrwt>
<pdfrwt beam="1">  1       21 0.86189170E-01 0.28528904E+03</pdfrwt>
<pdfrwt beam="2">  1       21 0.60139093E-01 0.28528904E+03</pdfrwt>
<totfact> 0.28004719E+03</totfact>
</mgrwt>
</event>
<event>
 5    0  0.1257040E+001  0.3642425E+03  0.7546771E-02  0.1056917E+00
         21   -1    0    0  502  501  0.00000000000E+00  0.00000000000E+00  0.75832796134E+03  0.75832796134E+03  0.00000000000E+00 0.  1.
         21   -1    0    0  504  502 -0.00000000000E+00 -0.00000000000E+00 -0.79850420604E+03  0.79850420604E+03  0.00000000000E+00 0. -1.
         25    1    1    2    0    0  0.69881506104E+01  0.33059390694E+03 -0.68714891887E+03  0.77274821401E+03  0.12500000000E+03 0.  0.
         21    1    1    2  503  501  0.18031191540E+02 -0.34234685772E+03  0.66700363589E+03  0.74994689489E+03  0.00000000000E+00 0.  1.
         21    1    1    2  504  503 -0.25019342150E+02  0.11752950782E+02 -0.20030961725E+02  0.34137058475E+02  0.00000000000E+00 0. -1.
<mgrwt>
<rscale>  4 0.36424248E+03</rscale>
<asrwt>0</asrwt>
<pdfrwt beam="1">  1       21 0.11666584E+00 0.36424248E+03</pdfrwt>
<pdfrwt beam="2">  1       21 0.12284680E+00 0.36424248E+03</pdfrwt>
<totfact> 0.24285261E+02</totfact>
</mgrwt>
</event>
<event>
 5    0  0.1257040E+001  0.2568598E+03  0.7546771E-02  0.1109045E+00
         21   -1    0    0  502  501  0.00000000000E+00  0.00000000000E+00  0.12836984904E+04  0.12836984904E+04  0.00000000000E+00 0. -1.
         21   -1    0    0  504  502 -0.00000000000E+00 -0.00000000000E+00 -0.24985833425E+03  0.24985833425E+03  0.00000000000E+00 0. -1.
         25    1    1    2    0    0 -0.26428300813E+03  0.20450249278E+03  0.72662553673E+03  0.80949147529E+03  0.12500000000E+03 0.  0.
         21    1    1    2  503  501  0.81066695405E+02 -0.89774345492E+02  0.44935331787E+03  0.46534895132E+03  0.00000000000E+00 0. -1.
         21    1    1    2  504  503  0.18321631272E+03 -0.11472814729E+03 -0.14213869843E+03  0.25871639805E+03  0.00000000000E+00 0. -1.
<mgrwt>
<rscale>  4 0.25685981E+03</rscale>
<asrwt>0</asrwt>
<pdfrwt beam="1">  1       21 0.19749207E+00 0.25685981E+03</pdfrwt>
<pdfrwt beam="2">  1       21 0.38439744E-01 0.25685981E+03</pdfrwt>
<totfact> 0.85299658E+02</totfact>
</mgrwt>
</event>
<event>
 5    0  0.1257040E+001  0.3165903E+03  0.7546771E-02  0.1077229E+00
         21   -1    0    0  503  501  0.00000000000E+00  0.00000000000E+00  0.76276397197E+03  0.76276397197E+03  0.00000000000E+00 0. -1.
         21   -1    0    0  504  502 -0.00000000000E+00 -0.00000000000E+00 -0.31663531348E+03  0.31663531348E+03  0.00000000000E+00 0. -1.
         25    1    1    2    0    0 -0.13463169873E+03  0.30647268882E+03  0.29973466040E+03  0.46638725319E+03  0.12500000000E+03 0.  0.
         21    1    1    2  503  502  0.10421413400E+03 -0.26106702513E+03 -0.14516901375E+03  0.31637101619E+03  0.00000000000E+00 0. -1.
         21    1    1    2  504  501  0.30417564735E+02 -0.45405663690E+02  0.29156301184E+03  0.29664101607E+03  0.00000000000E+00 0.  1.
<mgrwt>
<rscale>  4 0.31659032E+03</rscale>
<asrwt>0</asrwt>
<pdfrwt beam="1">  1       21 0.11734830E+00 0.31659032E+03</pdfrwt>
<pdfrwt beam="2">  1       21 0.48713126E-01 0.31659032E+03</pdfrwt>
<totfact> 0.20536965E+03</totfact>
</mgrwt>
</event>
<event>
 5    0  0.1257040E+001  0.1795434E+03  0.7546771E-02  0.1168246E+00
         21   -1    0    0  504  501  0.00000000000E+00  0.00000000000E+00  0.11968719003E+04  0.11968719003E+04  0.00000000000E+00 0.  1.
         21   -1    0    0  503  502 -0.00000000000E+00 -0.00000000000E+00 -0.19554663262E+03  0.19554663262E+03  0.00000000000E+00 0.  1.
         25    1    1    2    0    0  0.16898890509E+03 -0.11096544250E+03  0.75820788149E+03  0.79459094572E+03  0.12500000000E+03 0.  0.
         21    1    1    2  503  501 -0.81870161741E+02  0.96983292551E+02 -0.14910224393E+03  0.19580592832E+03  0.00000000000E+00 0.  1.
         21    1    1    2  504  502 -0.87118743350E+02  0.13982149948E+02  0.39221963015E+03  0.40202165891E+03  0.00000000000E+00 0.  1.
<mgrwt>
<rscale>  4 0.17954338E+03</rscale>
<asrwt>0</asrwt>
<pdfrwt beam="1">  1       21 0.18413413E+00 0.17954338E+03</pdfrwt>
<pdfrwt beam="2">  1       21 0.30084098E-01 0.17954338E+03</pdfrwt>
<totfact> 0.18334364E+03</totfact>
</mgrwt>
</event>
<event>
 5    0  0.1257040E+001  0.2574846E+03  0.7546771E-02  0.1108664E+00
         21   -1    0    0  503  501  0.00000000000E+00  0.00000000000E+00  0.30174310387E+03  0.30174310387E+03  0.00000000000E+00 0.  1.
         21   -1    0    0  501  502 -0.00000000000E+00 -0.00000000000E+00 -0.24792199232E+03  0.24792199232E+03  0.00000000000E+00 0.  1.
         25    1    1    2    0    0  0.73137585635E+02 -0.22492399191E+03  0.27813489691E+02  0.26895817291E+03  0.12500000000E+03 0.  0.
         21    1    1    2  503  504 -0.10993813678E+03  0.18953703414E+03 -0.81755047311E+01  0.21926586626E+03  0.00000000000E+00 0.  1.
         21    1    1    2  504  502  0.36800551145E+02  0.35386957764E+02  0.34183126588E+02  0.61441057019E+02  0.00000000000E+00 0.  1.
<mgrwt>
<rscale>  4 0.25748465E+03</rscale>
<asrwt>0</asrwt>
<pdfrwt beam="1">  1       21 0.46422016E-01 0.25748465E+03</pdfrwt>
<pdfrwt beam="2">  1       21 0.38141845E-01 0.25748465E+03</pdfrwt>
<totfact> 0.28528454E+04</totfact>
</mgrwt>
</event>
<event>
 5    0  0.1257040E+001  0.2828598E+03  0.7546771E-02  0.1094137E+00
         21   -1    0    0  504  501  0.00000000000E+00  0.00000000000E+00  0.13712203650E+03  0.13712203650E+03  0.00000000000E+00 0. -1.
         21   -1    0    0  503  502 -0.00000000000E+00 -0.00000000000E+00 -0.90145928691E+03  0.90145928691E+03  0.00000000000E+00 0. -1.
         25    1    1    2    0    0 -0.12728367576E+02  0.24250157243E+03 -0.67787768076E+03  0.73082978459E+03  0.12500000000E+03 0.  0.
         21    1    1    2  503  501 -0.21476743480E+02  0.11460927895E+02 -0.40725979439E+02  0.47446904852E+02  0.00000000000E+00 0. -1.
         21    1    1    2  504  502  0.34205111056E+02 -0.25396250032E+03 -0.45733590204E+02  0.26030463397E+03  0.00000000000E+00 0. -1.
<mgrwt>
<rscale>  4 0.28285976E+03</rscale>
<asrwt>0</asrwt>
<pdfrwt beam="1">  1       21 0.21095698E-01 0.28285976E+03</pdfrwt>
<pdfrwt beam="2">  1       21 0.13868604E+00 0.28285976E+03</pdfrwt>
<totfact> 0.72169044E+03</totfact>
</mgrwt>
</event>
<event>
 5    0  0.1257040E+001  0.2318971E+03  0.7546771E-02  0.1125312E+00
         21   -1    0    0  502  501  0.00000000000E+00  0.00000000000E+00  0.30176291747E+03  0.30176291747E+03  0.00000000000E+00 0.  1.
         21   -1    0    0  504  502 -0.00000000000E+00 -0.00000000000E+00 -0.23908915731E+03  0.23908915731E+03  0.00000000000E+00 0.  1.
         25    1    1    2    0    0 -0.20294402344E+03  0.37837767751E+02 -0.23473441920E+02  0.24247469104E+03  0.12500000000E+03 0.  0.
         21    1    1    2  503  501  0.19170139443E+03 -0.68417071747E+01  0.13843648110E+03  0.23656054803E+03  0.00000000000E+00 0.  1.
         21    1    1    2  504  503  0.11242629010E+02 -0.30996060577E+02 -0.52289279018E+02  0.61816835721E+02  0.00000000000E+00 0. -1.
<mgrwt>
<rscale>  4 0.23189709E+03</rscale>
<asrwt>0</asrwt>
<pdfrwt beam="1">  1       21 0.46425064E-01 0.23189709E+03</pdfrwt>
<pdfrwt beam="2">  1       21 0.36782947E-01 0.23189709E+03</pdfrwt>
<totfact> 0.31042694E+04</totfact>
</mgrwt>
</event>
<event>
 5    0  0.1257040E+001  0.2875960E+03  0.7546771E-02  0.1091611E+00
         21   -1    0    0  503  501  0.00000000000E+00  0.00000000000E+00  0.81120352974E+03  0.81120352974E+03  0.00000000000E+00 0.  1.
         21   -1    0    0  504  502 -0.00000000000E+00 -0.00000000000E+00 -0.24284914833E+03  0.24284914833E+03  0.00000000000E+00 0.  1.
         25    1    1    2    0    0 -0.12563740835E+03 -0.26467469276E+03  0.85662283365E+02  0.32984917486E+03  0.12500000000E+03 0.  0.
         21    1    1    2  503  502  0.63394144998E+02  0.23205713406E+03  0.42188042627E+01  0.24059744263E+03  0.00000000000E+00 0.  1.
         21    1    1    2  504  501  0.62243263356E+02  0.32617558694E+02  0.47847329378E+03  0.48360606058E+03  0.00000000000E+00 0.  1.
<mgrwt>
<rscale>  4 0.28759601E+03</rscale>
<asrwt>0</asrwt>
<pdfrwt beam="1">  1       21 0.12480054E+00 0.28759601E+03</pdfrwt>
<pdfrwt beam="2">  1       21 0.37361408E-01 0.28759601E+03</pdfrwt>
<totfact> 0.30891998E+03</totfact>
</mgrwt>
</event>
<event>
 5    0  0.1257040E+001  0.2278551E+03  0.7546771E-02  0.1128159E+00
         21   -1    0    0  503  501  0.00000000000E+00  0.00000000000E+00  0.77660664316E+03  0.77660664316E+03  0.00000000000E+00 0. -1.
         21   -1    0    0  504  502 -0.00000000000E+00 -0.00000000000E+00 -0.14494418229E+03  0.14494418229E+03  0.00000000000E+00 0. -1.
         25    1    1    2    0    0  0.20356870764E+02 -0.28635303535E+03  0.22133053932E+03  0.38343796196E+03  0.12500000000E+03 0.  0.
         21    1    1    2  503  502  0.26565763059E+02  0.12357466947E+03  0.42851164205E+02  0.13346408122E+03  0.00000000000E+00 0. -1.
         21    1    1    2  504  501 -0.46922633824E+02  0.16277836587E+03  0.36748075736E+03  0.40464878226E+03  0.00000000000E+00 0. -1.
<mgrwt>
<rscale>  4 0.22785513E+03</rscale>
<asrwt>0</asrwt>
<pdfrwt beam="1">  1       21 0.11947794E+00 0.22785513E+03</pdfrwt>
<pdfrwt beam="2">  1       21 0.22299105E-01 0.22785513E+03</pdfrwt>
<totfact> 0.98050864E+03</totfact>
</mgrwt>
</event>
<event>
 5    0  0.1257040E+001  0.3454539E+03  0.7546771E-02  0.1064497E+00
         21   -1    0    0  503  501  0.00000000000E+00  0.00000000000E+00  0.12359915196E+03  0.12359915196E+03  0.00000000000E+00 0.  1.
         21   -1    0    0  504  502 -0.00000000000E+00 -0.00000000000E+00 -0.14173191290E+04  0.14173191290E+04  0.00000000000E+00 0.  1.
         25    1    1    2    0    0 -0.34509025562E+03  0.47317052197E+02 -0.44638882081E+03  0.57983977727E+03  0.12500000000E+03 0.  0.
         21    1    1    2  503  502  0.31144461893E+03  0.38191357633E+02 -0.79647546191E+03  0.85605460801E+03  0.00000000000E+00 0.  1.
         21    1    1    2  504  501  0.33645636695E+02 -0.85508409829E+02 -0.50855694305E+02  0.10502389568E+03  0.00000000000E+00 0.  1.
<mgrwt>
<rscale>  4 0.34545389E+03</rscale>
<asrwt>0</asrwt>
<pdfrwt beam="1">  1       21 0.19015255E-01 0.34545389E+03</pdfrwt>
<pdfrwt beam="2">  1       21 0.21804908E+00 0.34545389E+03</pdfrwt>
<totfact> 0.23281903E+03</totfact>
</mgrwt>
</event>
<event>
 5    0  0.1257040E+001  0.3127712E+03  0.7546771E-02  0.1079025E+00
         21   -1    0    0  502  501  0.00000000000E+00  0.00000000000E+00  0.13167561498E+04  0.13167561498E+04  0.00000000000E+00 0.  1.
         21   -1    0    0  504  502 -0.00000000000E+00 -0.00000000000E+00 -0.27708729061E+03  0.27708729061E+03  0.00000000000E+00 0. -1.
         25    1    1    2    0    0  0.66529106197E+02  0.24467710030E+03  0.10994995319E+04  0.11352608625E+04  0.12500000000E+03 0.  0.
         21    1    1    2  503  501  0.62120914284E+02  0.14697642633E+02  0.10687746320E+03  0.12449024391E+03  0.00000000000E+00 0. -1.
         21    1    1    2  504  503 -0.12865002048E+03 -0.25937474294E+03 -0.16670813589E+03  0.33409233397E+03  0.00000000000E+00 0. -1.
<mgrwt>
<rscale>  4 0.31277121E+03</rscale>
<asrwt>0</asrwt>
<pdfrwt beam="1">  1       21 0.20257787E+00 0.31277121E+03</pdfrwt>
<pdfrwt beam="2">  1       21 0.42628815E-01 0.31277121E+03</pdfrwt>
<totfact> 0.61205599E+02</totfact>
</mgrwt>
</event>
<event>
 5    0  0.1257040E+001  0.3056706E+03  0.7546771E-02  0.1082440E+00
         21   -1    0    0  504  501  0.00000000000E+00  0.00000000000E+00  0.22709014546E+04  0.22709014546E+04  0.00000000000E+00 0.  1.
         21   -1    0    0  503  502 -0.00000000000E+00 -0.00000000000E+00 -0.15779209082E+03  0.15779209082E+03  0.00000000000E+00 0. -1.
         25    1    1    2    0    0  0.20939896678E+03 -0.14328175533E+03  0.20552719461E+02  0.28359302350E+03  0.12500000000E+03 0.  0.
         21    1    1    2  503  501  0.16419545673E+02 -0.23527811415E+02 -0.47546588157E+01  0.29082059256E+02  0.00000000000E+00 0. -1.
         21    1    1    2  504  502 -0.22581851246E+03  0.16680956674E+03  0.20973113032E+04  0.21160184627E+04  0.00000000000E+00 0.  1.
<mgrwt>
<rscale>  4 0.30567059E+03</rscale>
<asrwt>0</asrwt>
<pdfrwt beam="1">  1       21 0.34936943E+00 0.30567059E+03</pdfrwt>
<pdfrwt beam="2">  1       21 0.24275708E-01 0.30567059E+03</pdfrwt>
<totfact> 0.24491299E+02</totfact>
</mgrwt>
</event>
<event>
 5    0  0.1257040E+001  0.1825900E+03  0.7546771E-02  0.1165320E+00
         21   -1    0    0  504  501  0.00000000000E+00  0.00000000000E+00  0.45079789224E+03  0.45079789224E+03  0.00000000000E+00 0.  1.
         21   -1    0    0  503  502 -0.00000000000E+00 -0.00000000000E+00 -0.13373767308E+04  0.13373767308E+04  0.00000000000E+00 0. -1.
         25    1    1    2    0    0 -0.11590529509E+03 -0.21268774082E+03 -0.31535914780E+03  0.41682910722E+03  0.12500000000E+03 0.  0.
         21    1    1    2  503  501  0.57962498915E+02  0.96395003777E+02 -0.95735338293E+03  0.96393835272E+03  0.00000000000E+00 0. -1.
         21    1    1    2  504  502  0.57942796170E+02  0.11629273704E+03  0.38613369217E+03  0.40740716310E+03  0.00000000000E+00 0.  1.
<mgrwt>
<rscale>  4 0.18259003E+03</rscale>
<asrwt>0</asrwt>
<pdfrwt beam="1">  1       21 0.69353521E-01 0.18259003E+03</pdfrwt>
<pdfrwt beam="2">  1       21 0.20575027E+00 0.18259003E+03</pdfrwt>
<totfact> 0.23662960E+02</totfact>
</mgrwt>
</event>
<event>
 5    0  0.1257040E+001  0.2258726E+03  0.7546771E-02  0.1129579E+00
         21   -1    0    0  503  501  0.00000000000E+00  0.00000000000E+00  0.70589120692E+03  0.70589120692E+03  0.00000000000E+00 0. -1.
         21   -1    0    0  504  502 -0.00000000000E+00 -0.00000000000E+00 -0.48869009736E+03  0.48869009736E+03  0.00000000000E+00 0. -1.
         25    1    1    2    0    0 -0.30363539473E+03  0.58627225104E+02 -0.27329284127E+03  0.43121407855E+03  0.12500000000E+03 0.  0.
         21    1    1    2  503  502  0.13908125248E+03  0.22832850608E+02 -0.81372631719E+02  0.16274654851E+03  0.00000000000E+00 0. -1.
         21    1    1    2  504  501  0.16455414224E+03 -0.81460075712E+02  0.57186658255E+03  0.60062067722E+03  0.00000000000E+00 0. -1.
<mgrwt>
<rscale>  4 0.22587257E+03</rscale>
<asrwt>0</asrwt>
<pdfrwt beam="1">  1       21 0.10859865E+00 0.22587257E+03</pdfrwt>
<pdfrwt beam="2">  1       21 0.75183092E-01 0.22587257E+03</pdfrwt>
<totfact> 0.10321310E+03</totfact>
</mgrwt>
</event>
<event>
 5    0  0.1257040E+001  0.2856487E+03  0.7546771E-02  0.1092643E+00
         21   -1    0    0  503  501  0.00000000000E+00  0.00000000000E+00  0.30998426024E+03  0.30998426024E+03  0.00000000000E+00 0. -1.
         21   -1    0    0  504  502 -0.00000000000E+00 -0.00000000000E+00 -0.59267981789E+03  0.59267981789E+03  0.00000000000E+00 0. -1.
         25    1    1    2    0    0  0.34171151097E+02  0.31896909581E+03 -0.16247525147E+03  0.38069956525E+03  0.12500000000E+03 0.  0.
         21    1    1    2  503  502  0.24419578614E+02 -0.23130765025E+03 -0.25871682727E+03  0.34789932681E+03  0.00000000000E+00 0. -1.
         21    1    1    2  504  501 -0.58590729711E+02 -0.87661445553E+02  0.13849652108E+03  0.17406518606E+03  0.00000000000E+00 0. -1.
<mgrwt>
<rscale>  4 0.28564866E+03</rscale>
<asrwt>0</asrwt>
<pdfrwt beam="1">  1       21 0.47689887E-01 0.28564866E+03</pdfrwt>
<pdfrwt beam="2">  1       21 0.91181509E-01 0.28564866E+03</pdfrwt>
<totfact> 0.40224325E+03</totfact>
</mgrwt>
</event>
<event>
 5    0  0.1257040E+001  0.5038064E+03  0.7546771E-02  0.1012790E+00
         21   -1    0    0  503  501  0.00000000000E+00  0.00000000000E+00  0.34738254643E+03  0.34738254643E+03  0.00000000000E+00 0.  1.
         21   -1    0    0  504  502 -0.00000000000E+00 -0.00000000000E+00 -0.16330383803E+04  0.16330383803E+04  0.00000000000E+00 0. -1.
         25    1    1    2    0    0  0.18719565993E+02 -0.51206464165E+03  0.30662768773E+02  0.52832359853E+03  0.12500000000E+03 0.  0.
         21    1    1    2  503  502  0.26708825055E+02  0.48382862196E+03 -0.13117795754E+04  0.13984166586E+04  0.00000000000E+00 0. -1.
         21    1    1    2  504  501 -0.45428391049E+02  0.28236019687E+02 -0.45390273135E+01  0.53680669612E+02  0.00000000000E+00 0.  1.
<mgrwt>
<rscale>  4 0.50380637E+03</rscale>
<asrwt>0</asrwt>
<pdfrwt beam="1">  1       21 0.53443470E-01 0.50380637E+03</pdfrwt>
<pdfrwt beam="2">  1       21 0.25123667E+00 0.50380637E+03</pdfrwt>
<totfact> 0.16696201E+02</totfact>
</mgrwt>
</event>
<event>
 5    0  0.1257040E+001  0.2193847E+03  0.7546771E-02  0.1134343E+00
         21   -1    0    0  504  501  0.00000000000E+00  0.00000000000E+00  0.43029788440E+03  0.43029788440E+03  0.00000000000E+00 0.  1.
         21   -1    0    0  503  502 -0.00000000000E+00 -0.00000000000E+00 -0.10016999186E+04  0.10016999186E+04  0.00000000000E+00 0. -1.
         25    1    1    2    0    0 -0.98998091519E+02 -0.18362270570E+03 -0.79118066342E+03  0.82771357506E+03  0.12500000000E+03 0.  0.
         21    1    1    2  503  501  0.25250554634E+02  0.19845218894E+02 -0.17111285732E+03  0.17410064090E+03  0.00000000000E+00 0. -1.
         21    1    1    2  504  502  0.73747536885E+02  0.16377748681E+03  0.39089148649E+03  0.43018358708E+03  0.00000000000E+00 0.  1.
<mgrwt>
<rscale>  4 0.21938466E+03</rscale>
<asrwt>0</asrwt>
<pdfrwt beam="1">  1       21 0.66199675E-01 0.21938466E+03</pdfrwt>
<pdfrwt beam="2">  1       21 0.15410768E+00 0.21938466E+03</pdfrwt>
<totfact> 0.56632429E+02</totfact>
</mgrwt>
</event>
<event>
 5    0  0.1257040E+001  0.2441433E+03  0.7546771E-02  0.1117063E+00
         21   -1    0    0  502  501  0.00000000000E+00  0.00000000000E+00  0.10534334801E+03  0.10534334801E+03  0.00000000000E+00 0.  1.
         21   -1    0    0  504  502 -0.00000000000E+00 -0.00000000000E+00 -0.10062522543E+04  0.10062522543E+04  0.00000000000E+00 0.  1.
         25    1    1    2    0    0 -0.14150652398E+03 -0.18559557968E+03 -0.23817178056E+03  0.35611881807E+03  0.12500000000E+03 0.  0.
         21    1    1    2  503  501  0.15536256741E+02  0.25407585114E+02  0.24561494732E+02  0.38602949088E+02  0.00000000000E+00 0.  1.
         21    1    1    2  504  503  0.12597026724E+03  0.16018799457E+03 -0.68729862045E+03  0.71687383514E+03  0.00000000000E+00 0.  1.
<mgrwt>
<rscale>  4 0.24414334E+03</rscale>
<asrwt>0</asrwt>
<pdfrwt beam="1">  1       21 0.16206670E-01 0.24414334E+03</pdfrwt>
<pdfrwt beam="2">  1       21 0.15480803E+00 0.24414334E+03</pdfrwt>
<totfact> 0.90293072E+03</totfact>
</mgrwt>
</event>
<event>
 5    0  0.1257040E+001  0.2669898E+03  0.7546771E-02  0.1103015E+00
         21   -1    0    0  503  501  0.00000000000E+00  0.00000000000E+00  0.31406048265E+03  0.31406048265E+03  0.00000000000E+00 0. -1.
         21   -1    0    0  501  502 -0.00000000000E+00 -0.00000000000E+00 -0.22458367103E+03  0.22458367103E+03  0.00000000000E+00 0.  1.
         25    1    1    2    0    0 -0.21129067759E+03 -0.10495141491E+03  0.12255359846E+03  0.29377361084E+03  0.12500000000E+03 0.  0.
         21    1    1    2  503  504  0.16257756292E+03  0.70819553019E+02 -0.47665338937E+02  0.18362695224E+03  0.00000000000E+00 0.  1.
         21    1    1    2  504  502  0.48713114671E+02  0.34131861890E+02  0.14588552090E+02  0.61243590596E+02  0.00000000000E+00 0. -1.
<mgrwt>
<rscale>  4 0.26698979E+03</rscale>
<asrwt>0</asrwt>
<pdfrwt beam="1">  1       21 0.48316997E-01 0.26698979E+03</pdfrwt>
<pdfrwt beam="2">  1       21 0.34551334E-01 0.26698979E+03</pdfrwt>
<totfact> 0.31884010E+04</totfact>
</mgrwt>
</event>
<event>
 5    0  0.1257040E+001  0.2595872E+03  0.7546771E-02  0.1107391E+00
         21   -1    0    0  502  501  0.00000000000E+00  0.00000000000E+00  0.10792806380E+03  0.10792806380E+03  0.00000000000E+00 0. -1.
         21   -1    0    0  504  502 -0.00000000000E+00 -0.00000000000E+00 -0.14843251240E+04  0.14843251240E+04  0.00000000000E+00 0. -1.
         25    1    1    2    0    0  0.15463913215E+03  0.14545909455E+03 -0.86838197885E+02  0.26122305027E+03  0.12500000000E+03 0.  0.
         21    1    1    2  503  501 -0.41645814354E+01  0.27691951069E+02 -0.80306136969E+01  0.29132089676E+02  0.00000000000E+00 0. -1.
         21    1    1    2  504  503 -0.15047455071E+03 -0.17315104561E+03 -0.12815282486E+04  0.13018980479E+04  0.00000000000E+00 0. -1.
<mgrwt>
<rscale>  4 0.25958722E+03</rscale>
<asrwt>0</asrwt>
<pdfrwt beam="1">  1       21 0.16604318E-01 0.25958722E+03</pdfrwt>
<pdfrwt beam="2">  1       21 0.22835771E+00 0.25958722E+03</pdfrwt>
<totfact> 0.27403877E+03</totfact>
</mgrwt>
</event>
<event>
 5    0  0.1257040E+001  0.2152030E+03  0.7546771E-02  0.1137511E+00
         21   -1    0    0  503  501  0.00000000000E+00  0.00000000000E+00  0.71655361119E+03  0.71655361119E+03  0.00000000000E+00 0. -1.
         21   -1    0    0  501  502 -0.00000000000E+00 -0.00000000000E+00 -0.88423556156E+02  0.88423556156E+02  0.00000000000E+00 0. -1.
         25    1    1    2    0    0 -0.80468797264E+02 -0.18397302069E+03  0.21348911816E+03  0.31862815828E+03  0.12500000000E+03 0.  0.
         21    1    1    2  503  504  0.62057869647E+02  0.16385597021E+02  0.40283837048E+02  0.75778984568E+02  0.00000000000E+00 0. -1.
         21    1    1    2  504  502  0.18410927617E+02  0.16758742367E+03  0.37435709983E+03  0.41057002450E+03  0.00000000000E+00 0. -1.
<mgrwt>
<rscale>  4 0.21520296E+03</rscale>
<asrwt>0</asrwt>
<pdfrwt beam="1">  1       21 0.11023901E+00 0.21520296E+03</pdfrwt>
<pdfrwt beam="2">  1       21 0.13603624E-01 0.21520296E+03</pdfrwt>
<totfact> 0.30039720E+04</totfact>
</mgrwt>
</event>
<event>
 5    0  0.1257040E+001  0.3091388E+03  0.7546771E-02  0.1080759E+00
         21   -1    0    0  503  501  0.00000000000E+00  0.00000000000E+00  0.12824479373E+03  0.12824479373E+03  0.00000000000E+00 0.  1.
         21   -1    0    0  504  502 -0.00000000000E+00 -0.00000000000E+00 -0.83225982417E+03  0.83225982417E+03  0.00000000000E+00 0.  1.
         25    1    1    2    0    0 -0.24708050867E+03  0.14962757655E+03 -0.21747320580E+03  0.38256605269E+03  0.12500000000E+03 0.  0.
         21    1    1    2  503  502  0.25152425884E+03 -0.12353914893E+03 -0.46849555330E+03  0.54590700450E+03  0.00000000000E+00 0.  1.
         21    1    1    2  504  501 -0.44437501631E+01 -0.26088427626E+02 -0.18046271342E+02  0.32031560700E+02  0.00000000000E+00 0.  1.
<mgrwt>
<rscale>  4 0.30913879E+03</rscale>
<asrwt>0</asrwt>
<pdfrwt beam="1">  1       21 0.19729968E-01 0.30913879E+03</pdfrwt>
<pdfrwt beam="2">  1       21 0.12803997E+00 0.30913879E+03</pdfrwt>
<totfact> 0.99315811E+03</totfact>
</mgrwt>
</event>
