<event>
 5    0  0.1911311E+001  0.2707779E+03  0.7546771E-02  0.1100835E+00
         21   -1    0    0  502  501  0.00000000000E+00  0.00000000000E+00  0.30493805525E+03  0.30493805525E+03  0.00000000000E+00 0. -1.
         21   -1    0    0  504  502 -0.00000000000E+00 -0.00000000000E+00 -0.27713843374E+03  0.27713843374E+03  0.00000000000E+00 0. -1.
         25    1    1    2    0    0  0.13462357729E+03  0.19313777023E+03  0.37568509818E+02  0.26918785036E+03  0.12500000000E+03 0.  0.
         21    1    1    2  503  501 -0.11467866411E+02  0.16759669540E+02  0.57021157220E+02  0.60529421390E+02  0.00000000000E+00 0. -1.
         21    1    1    2  504  503 -0.12315571088E+03 -0.20989743977E+03 -0.66790045528E+02  0.25235921724E+03  0.00000000000E+00 0. -1.
<mgrwt>
<rscale>  4 0.27077785E+03</rscale>
<asrwt>0</asrwt>
<pdfrwt beam="1">  1       21 0.46913547E-01 0.27077785E+03</pdfrwt>
<pdfrwt beam="2">  1       21 0.42636682E-01 0.27077785E+03</pdfrwt>
<totfact> 0.22113273E+04</totfact>
</mgrwt>
</event>
<event>
 5    0  0.1911311E+001  0.2178915E+03  0.7546771E-02  0.1135465E+00
         21   -1    0    0  504  501  0.00000000000E+00  0.00000000000E+00  0.31226618168E+03  0.31226618168E+03  0.00000000000E+00 0.  1.
         21   -1    0    0  503  502 -0.00000000000E+00 -0.00000000000E+00 -0.35549096580E+03  0.35549096580E+03  0.00000000000E+00 0.  1.
         25    1    1    2    0    0 -0.20872915904E+03  0.19234397135E+02  0.11509616856E+03  0.26983319270E+03  0.12500000000E+03 0.  0.
         21    1    1    2  503  501  0.17390290607E+03 -0.69131193160E+01 -0.24682807972E+03  0.30201674274E+03  0.00000000000E+00 0.  1.
         21    1    1    2  504  502  0.34826252969E+02 -0.12321277819E+02  0.88507127043E+02  0.95907212035E+02  0.00000000000E+00 0.  1.
<mgrwt>
<rscale>  4 0.21789152E+03</rscale>
<asrwt>0</asrwt>
<pdfrwt beam="1">  1       21 0.48040951E-01 0.21789152E+03</pdfrwt>
<pdfrwt beam="2">  1       21 0.54690918E-01 0.21789152E+03</pdfrwt>
<totfact> 0.12861130E+04</totfact>
</mgrwt>
</event>
<event>
 5    0  0.1911311E+001  0.2170755E+03  0.7546771E-02  0.1136082E+00
         21   -1    0    0  502  501  0.00000000000E+00  0.00000000000E+00  0.61408185950E+03  0.61408185950E+03  0.00000000000E+00 0. -1.
         21   -1    0    0  504  502 -0.00000000000E+00 -0.00000000000E+00 -0.10014826488E+03  0.10014826488E+03  0.00000000000E+00 0. -1.
         25    1    1    2    0    0 -0.17025573682E+03  0.11407911957E+03  0.20977538783E+03  0.31879738829E+03  0.12500000000E+03 0.  0.
         21    1    1    2  503  501  0.28519304060E+02 -0.35869226634E+02  0.19469377083E+03  0.20001404081E+03  0.00000000000E+00 0.  1.
         21    1    1    2  504  503  0.14173643276E+03 -0.78209892936E+02  0.10946443596E+03  0.19541869528E+03  0.00000000000E+00 0. -1.
<mgrwt>
<rscale>  4 0.21707547E+03</rscale>
<asrwt>0</asrwt>
<pdfrwt beam="1">  1       21 0.94474130E-01 0.21707547E+03</pdfrwt>
<pdfrwt beam="2">  1       21 0.15407426E-01 0.21707547E+03</pdfrwt>
<totfact> 0.34600236E+04</totfact>
</mgrwt>
</event>
<event>
 5    0  0.1911311E+001  0.1912478E+03  0.7546771E-02  0.1157341E+00
         21   -1    0    0  502  501  0.00000000000E+00  0.00000000000E+00  0.24837514498E+03  0.24837514498E+03  0.00000000000E+00 0.  1.
         21   -1    0    0  504  502 -0.00000000000E+00 -0.00000000000E+00 -0.84694175374E+03  0.84694175374E+03  0.00000000000E+00 0.  1.
         25    1    1    2    0    0 -0.17897869676E+03  0.14531650292E+03 -0.16900823138E+03  0.31199205469E+03  0.12500000000E+03 0.  0.
         21    1    1    2  503  501  0.12202443431E+03 -0.59512211589E+02  0.14556710869E+03  0.19905137284E+03  0.00000000000E+00 0.  1.
         21    1    1    2  504  503  0.56954262451E+02 -0.85804291330E+02 -0.57512548607E+03  0.58427347120E+03  0.00000000000E+00 0.  1.
<mgrwt>
<rscale>  4 0.19124782E+03</rscale>
<asrwt>0</asrwt>
<pdfrwt beam="1">  1       21 0.38211561E-01 0.19124782E+03</pdfrwt>
<pdfrwt beam="2">  1       21 0.13029873E+00 0.19124782E+03</pdfrwt>
<totfact> 0.28420488E+03</totfact>
</mgrwt>
</event>
<event>
 5    0  0.1911311E+001  0.2338937E+03  0.7546771E-02  0.1123929E+00
         21   -1    0    0  502  501  0.00000000000E+00  0.00000000000E+00  0.22094401029E+03  0.22094401029E+03  0.00000000000E+00 0. -1.
         21   -1    0    0  504  502 -0.00000000000E+00 -0.00000000000E+00 -0.35139877078E+03  0.35139877078E+03  0.00000000000E+00 0. -1.
         25    1    1    2    0    0  0.31077549733E+02  0.23255105655E+03 -0.19521056756E+02  0.26655558456E+03  0.12500000000E+03 0.  0.
         21    1    1    2  503  501  0.65188326332E+01 -0.17593315457E+03 -0.42794530930E+00  0.17605440407E+03  0.00000000000E+00 0. -1.
         21    1    1    2  504  503 -0.37596382366E+02 -0.56617901981E+02 -0.11050575842E+03  0.12973279245E+03  0.00000000000E+00 0.  1.
<mgrwt>
<rscale>  4 0.23389369E+03</rscale>
<asrwt>0</asrwt>
<pdfrwt beam="1">  1       21 0.33991386E-01 0.23389369E+03</pdfrwt>
<pdfrwt beam="2">  1       21 0.54061349E-01 0.23389369E+03</pdfrwt>
<totfact> 0.26385963E+04</totfact>
</mgrwt>
</event>
<event>
 5    0  0.1911311E+001  0.2865798E+03  0.7546771E-02  0.1092149E+00
         21   -1    0    0  502  501  0.00000000000E+00  0.00000000000E+00  0.38375749816E+03  0.38375749816E+03  0.00000000000E+00 0. -1.
         21   -1    0    0  504  502 -0.00000000000E+00 -0.00000000000E+00 -0.24407214424E+03  0.24407214424E+03  0.00000000000E+00 0.  1.
         25    1    1    2    0    0  0.26307816582E+03  0.15517875292E+02  0.82940288261E+02  0.30324085675E+03  0.12500000000E+03 0.  0.
         21    1    1    2  503  501 -0.25173366006E+03 -0.31992013182E+02  0.10325385701E+03  0.27396109852E+03  0.00000000000E+00 0. -1.
         21    1    1    2  504  503 -0.11344505756E+02  0.16474137890E+02 -0.46508791357E+02  0.50627687124E+02  0.00000000000E+00 0. -1.
<mgrwt>
<rscale>  4 0.28657978E+03</rscale>
<asrwt>0</asrwt>
<pdfrwt beam="1">  1       21 0.59039616E-01 0.28657978E+03</pdfrwt>
<pdfrwt beam="2">  1       21 0.37549560E-01 0.28657978E+03</pdfrwt>
<totfact> 0.17472907E+04</totfact>
</mgrwt>
</event>
<event>
 5    0  0.1911311E+001  0.2615789E+03  0.7546771E-02  0.1106198E+00
         21   -1    0    0  503  501  0.00000000000E+00  0.00000000000E+00  0.14904372589E+03  0.14904372589E+03  0.00000000000E+00 0.  1.
         21   -1    0    0  504  502 -0.00000000000E+00 -0.00000000000E+00 -0.13717868567E+04  0.13717868567E+04  0.00000000000E+00 0.  1.
         25    1    1    2    0    0  0.24887996703E+03 -0.17017024980E+01 -0.17113889098E+02  0.27903766588E+03  0.12500000000E+03 0.  0.
         21    1    1    2  503  502 -0.22718026240E+03 -0.22413834792E+02 -0.11756899157E+04  0.11976477067E+04  0.00000000000E+00 0.  1.
         21    1    1    2  504  501 -0.21699704628E+02  0.24115537290E+02 -0.29939326021E+02  0.44145209959E+02  0.00000000000E+00 0.  1.
<mgrwt>
<rscale>  4 0.26157895E+03</rscale>
<asrwt>0</asrwt>
<pdfrwt beam="1">  1       21 0.22929804E-01 0.26157895E+03</pdfrwt>
<pdfrwt beam="2">  1       21 0.21104413E+00 0.26157895E+03</pdfrwt>
<totfact> 0.19145329E+03</totfact>
</mgrwt>
</event>
