<event>
 5    0  0.1911311E+001  0.2397359E+03  0.7546771E-02  0.1119969E+00
         21   -1    0    0  504  501  0.00000000000E+00  0.00000000000E+00  0.45721685304E+03  0.45721685304E+03  0.00000000000E+00 0.  1.
         21   -1    0    0  503  502 -0.00000000000E+00 -0.00000000000E+00 -0.14329823750E+03  0.14329823750E+03  0.00000000000E+00 0.  1.
         25    1    1    2    0    0 -0.45484509566E+02  0.21000285716E+03  0.68154981114E+02  0.25775985350E+03  0.12500000000E+03 0.  0.
         21    1    1    2  503  501  0.70399446675E+02 -0.17930812049E+03  0.16834675723E+03  0.25582829170E+03  0.00000000000E+00 0.  1.
         21    1    1    2  504  502 -0.24914937109E+02 -0.30694736669E+02  0.77416877204E+02  0.86926945341E+02  0.00000000000E+00 0.  1.
<mgrwt>
<rscale>  4 0.23973595E+03</rscale>
<asrwt>0</asrwt>
<pdfrwt beam="1">  1       21 0.70341054E-01 0.23973595E+03</pdfrwt>
<pdfrwt beam="2">  1       21 0.22045883E-01 0.23973595E+03</pdfrwt>
<totfact> 0.34423781E+04</totfact>
</mgrwt>
</event>
<event>
 5    0  0.1911311E+001  0.2165252E+03  0.7546771E-02  0.1136500E+00
         21   -1    0    0  502  501  0.00000000000E+00  0.00000000000E+00  0.17611434477E+04  0.17611434477E+04  0.00000000000E+00 0. -1.
         21   -1    0    0  504  502 -0.00000000000E+00 -0.00000000000E+00 -0.54580173558E+03  0.54580173558E+03  0.00000000000E+00 0. -1.
         25    1    1    2    0    0 -0.22325362854E+03 -0.31943924923E+02  0.11113855807E+04  0.11409055640E+04  0.12500000000E+03 0.  0.
         21    1    1    2  503  501  0.50742819444E+02 -0.37847729842E+01  0.61931454883E+03  0.62140137481E+03  0.00000000000E+00 0. -1.
         21    1    1    2  504  503  0.17251080910E+03  0.35728697908E+02 -0.51535841732E+03  0.54463824454E+03  0.00000000000E+00 0. -1.
<mgrwt>
<rscale>  4 0.21652517E+03</rscale>
<asrwt>0</asrwt>
<pdfrwt beam="1">  1       21 0.27094514E+00 0.21652517E+03</pdfrwt>
<pdfrwt beam="2">  1       21 0.83969499E-01 0.21652517E+03</pdfrwt>
<totfact> 0.59578795E+01</totfact>
</mgrwt>
</event>
<event>
 5    0  0.1911311E+001  0.1928732E+03  0.7546771E-02  0.1155895E+00
         21   -1    0    0  504  501  0.00000000000E+00  0.00000000000E+00  0.15360347145E+04  0.15360347145E+04  0.00000000000E+00 0.  1.
         21   -1    0    0  503  502 -0.00000000000E+00 -0.00000000000E+00 -0.99196992364E+03  0.99196992364E+03  0.00000000000E+00 0. -1.
         25    1    1    2    0    0  0.12606294471E+03  0.19202048859E+03  0.12675164498E+03  0.29061093161E+03  0.12500000000E+03 0.  0.
         21    1    1    2  503  501 -0.13076010250E+03 -0.63669672620E+02 -0.90108890382E+03  0.91275037343E+03  0.00000000000E+00 0. -1.
         21    1    1    2  504  502  0.46971577921E+01 -0.12835081597E+03  0.13184020497E+04  0.13246433330E+04  0.00000000000E+00 0.  1.
<mgrwt>
<rscale>  4 0.19287324E+03</rscale>
<asrwt>0</asrwt>
<pdfrwt beam="1">  1       21 0.23631303E+00 0.19287324E+03</pdfrwt>
<pdfrwt beam="2">  1       21 0.15261076E+00 0.19287324E+03</pdfrwt>
<totfact> 0.22879733E+01</totfact>
</mgrwt>
</event>
<event>
 5    0  0.1911311E+001  0.2181387E+03  0.7546771E-02  0.1135278E+00
         21   -1    0    0  502  501  0.00000000000E+00  0.00000000000E+00  0.17890285466E+03  0.17890285466E+03  0.00000000000E+00 0. -1.
         21   -1    0    0  504  502 -0.00000000000E+00 -0.00000000000E+00 -0.73674002729E+03  0.73674002729E+03  0.00000000000E+00 0. -1.
         25    1    1    2    0    0 -0.37782492697E+02  0.26309381630E+03 -0.25101758208E+03  0.38636860567E+03  0.12500000000E+03 0.  0.
         21    1    1    2  503  501  0.97379084585E+02 -0.13285298415E+03  0.26171886406E+02  0.16678599807E+03  0.00000000000E+00 0. -1.
         21    1    1    2  504  503 -0.59596591888E+02 -0.13024083214E+03 -0.33299147695E+03  0.36248827821E+03  0.00000000000E+00 0. -1.
<mgrwt>
<rscale>  4 0.21813870E+03</rscale>
<asrwt>0</asrwt>
<pdfrwt beam="1">  1       21 0.27523516E-01 0.21813870E+03</pdfrwt>
<pdfrwt beam="2">  1       21 0.11334462E+00 0.21813870E+03</pdfrwt>
<totfact> 0.75082092E+03</totfact>
</mgrwt>
</event>
<event>
 5    0  0.1911311E+001  0.3403093E+03  0.7546771E-02  0.1066664E+00
         21   -1    0    0  503  501  0.00000000000E+00  0.00000000000E+00  0.35116423908E+03  0.35116423908E+03  0.00000000000E+00 0.  1.
         21   -1    0    0  504  502 -0.00000000000E+00 -0.00000000000E+00 -0.42668691992E+03  0.42668691992E+03  0.00000000000E+00 0. -1.
         25    1    1    2    0    0  0.29569124706E+03  0.68557569212E+02 -0.56436346288E+02  0.33308184439E+03  0.12500000000E+03 0.  0.
         21    1    1    2  503  502 -0.30860239833E+03 -0.11375751842E+03 -0.10633446387E+03  0.34566346562E+03  0.00000000000E+00 0. -1.
         21    1    1    2  504  501  0.12911151278E+02  0.45199949207E+02  0.87248129315E+02  0.99105848993E+02  0.00000000000E+00 0. -1.
<mgrwt>
<rscale>  4 0.34030929E+03</rscale>
<asrwt>0</asrwt>
<pdfrwt beam="1">  1       21 0.54025268E-01 0.34030929E+03</pdfrwt>
<pdfrwt beam="2">  1       21 0.65644141E-01 0.34030929E+03</pdfrwt>
<totfact> 0.63564026E+03</totfact>
</mgrwt>
</event>
