<event>
 5    0  0.1911311E+001  0.2153120E+03  0.7546771E-02  0.1137427E+00
         21   -1    0    0  504  501  0.00000000000E+00  0.00000000000E+00  0.44160395074E+03  0.44160395074E+03  0.00000000000E+00 0.  1.
         21   -1    0    0  503  502 -0.00000000000E+00 -0.00000000000E+00 -0.50672974461E+03  0.50672974461E+03  0.00000000000E+00 0.  1.
         25    1    1    2    0    0 -0.22969355719E+03 -0.24142435647E+01 -0.41251254538E+03  0.48842252086E+03  0.12500000000E+03 0.  0.
         21    1    1    2  503  501  0.59185613161E+02  0.31932656167E+02 -0.48897227941E+01  0.67428041082E+02  0.00000000000E+00 0.  1.
         21    1    1    2  504  502  0.17050794403E+03 -0.29518412602E+02  0.35227647430E+03  0.39248313341E+03  0.00000000000E+00 0.  1.
<mgrwt>
<rscale>  4 0.21531201E+03</rscale>
<asrwt>0</asrwt>
<pdfrwt beam="1">  1       21 0.67939070E-01 0.21531201E+03</pdfrwt>
<pdfrwt beam="2">  1       21 0.77958422E-01 0.21531201E+03</pdfrwt>
<totfact> 0.28309222E+03</totfact>
</mgrwt>
</event>
<event>
 5    0  0.1911311E+001  0.2876394E+03  0.7546771E-02  0.1091588E+00
         21   -1    0    0  504  501  0.00000000000E+00  0.00000000000E+00  0.28203381033E+03  0.28203381033E+03  0.00000000000E+00 0. -1.
         21   -1    0    0  501  502 -0.00000000000E+00 -0.00000000000E+00 -0.34381957234E+03  0.34381957234E+03  0.00000000000E+00 0.  1.
         25    1    1    2    0    0  0.21922275597E+03 -0.82486650683E+02 -0.23267616811E+02  0.26651275067E+03  0.12500000000E+03 0.  0.
         21    1    1    2  503  502  0.54066004916E+02  0.13598135153E+02  0.37795771103E+02  0.67354008644E+02  0.00000000000E+00 0. -1.
         21    1    1    2  504  503 -0.27328876088E+03  0.68888515531E+02 -0.76313916303E+02  0.29198662336E+03  0.00000000000E+00 0.  1.
<mgrwt>
<rscale>  4 0.28763937E+03</rscale>
<asrwt>0</asrwt>
<pdfrwt beam="1">  1       21 0.43389817E-01 0.28763937E+03</pdfrwt>
<pdfrwt beam="2">  1       21 0.52895318E-01 0.28763937E+03</pdfrwt>
<totfact> 0.16451632E+04</totfact>
</mgrwt>
</event>
<event>
 5    0  0.1911311E+001  0.3405287E+03  0.7546771E-02  0.1066571E+00
         21   -1    0    0  504  501  0.00000000000E+00  0.00000000000E+00  0.54970970964E+02  0.54970970964E+02  0.00000000000E+00 0.  1.
         21   -1    0    0  501  502 -0.00000000000E+00 -0.00000000000E+00 -0.20817744035E+04  0.20817744035E+04  0.00000000000E+00 0.  1.
         25    1    1    2    0    0 -0.30663188215E+03  0.79446077430E+02 -0.94727197556E+03  0.10066200803E+04  0.12500000000E+03 0.  0.
         21    1    1    2  503  502  0.25330412400E+02 -0.43231947094E+02 -0.18828382892E+03  0.19483693508E+03  0.00000000000E+00 0. -1.
         21    1    1    2  504  503  0.28130146975E+03 -0.36214130337E+02 -0.89124762806E+03  0.93528835908E+03  0.00000000000E+00 0.  1.
<mgrwt>
<rscale>  4 0.34052869E+03</rscale>
<asrwt>0</asrwt>
<pdfrwt beam="1">  1       21 0.84570736E-02 0.34052869E+03</pdfrwt>
<pdfrwt beam="2">  1       21 0.32027294E+00 0.34052869E+03</pdfrwt>
<totfact> 0.24698728E+03</totfact>
</mgrwt>
</event>
