<event>
 5    0  0.4115852E+000  0.2785159E+03  0.7546771E-02  0.1096502E+00
         21   -1    0    0  503  502  0.00000000000E+00  0.00000000000E+00  0.10385454495E+04  0.10385454495E+04  0.00000000000E+00 0. -1.
          1   -1    0    0  502    0 -0.00000000000E+00 -0.00000000000E+00 -0.10284220205E+04  0.10284220205E+04  0.00000000000E+00 0.  1.
         25    1    1    2    0    0  0.36843432983E+03 -0.29078673102E+03  0.19580009900E+03  0.52370168713E+03  0.12500000000E+03 0.  0.
         21    1    1    2  503  501 -0.16028934263E+03  0.17378114634E+03  0.64078266664E+03  0.68300438216E+03  0.00000000000E+00 0. -1.
          1    1    1    2  501    0 -0.20814498720E+03  0.11700558468E+03 -0.82645933662E+03  0.86026140076E+03  0.00000000000E+00 0.  1.
<mgrwt>
<rscale>  4 0.27851592E+03</rscale>
<asrwt>0</asrwt>
<pdfrwt beam="1">  1       21 0.15977622E+00 0.27851592E+03</pdfrwt>
<pdfrwt beam="2">  1        1 0.15821877E+00 0.27851592E+03</pdfrwt>
<totfact> 0.40094145E+01</totfact>
</mgrwt>
</event>
<event>
 5    0  0.4115852E+000  0.2482455E+03  0.7546771E-02  0.1114419E+00
         -4   -1    0    0    0  501 -0.00000000000E+00  0.00000000000E+00  0.12049451201E+03  0.12049451201E+03  0.00000000000E+00 0.  1.
         21   -1    0    0  501  502  0.00000000000E+00 -0.00000000000E+00 -0.65490633335E+03  0.65490633335E+03  0.00000000000E+00 0. -1.
         25    1    1    2    0    0 -0.64437932244E+02  0.20423186753E+03 -0.45043166172E+03  0.51417563605E+03  0.12500000000E+03 0.  0.
         21    1    1    2  503  502  0.26749887059E+02  0.90957773083E+01 -0.22271144092E+02  0.35976290549E+02  0.00000000000E+00 0. -1.
         -4    1    1    2    0  503  0.37688045185E+02 -0.21332764484E+03 -0.61709015527E+02  0.22524891876E+03  0.00000000000E+00 0.  1.
<mgrwt>
<rscale>  4 0.24824549E+03</rscale>
<asrwt>0</asrwt>
<pdfrwt beam="1">  1       21 0.10075482E+00 0.24824549E+03</pdfrwt>
<pdfrwt beam="2">  1       -4 0.18537617E-01 0.24824549E+03</pdfrwt>
<totfact> 0.87362114E+02</totfact>
</mgrwt>
</event>
<event>
 5    0  0.4115852E+000  0.2379214E+03  0.7546771E-02  0.1121185E+00
         21   -1    0    0  503  502  0.00000000000E+00  0.00000000000E+00  0.33334617336E+02  0.33334617336E+02  0.00000000000E+00 0.  1.
          2   -1    0    0  502    0 -0.00000000000E+00 -0.00000000000E+00 -0.14987354855E+04  0.14987354855E+04  0.00000000000E+00 0.  1.
         25    1    1    2    0    0  0.19800882279E+03 -0.42119907498E+02 -0.75196611027E+03  0.78870755766E+03  0.12500000000E+03 0.  0.
         21    1    1    2  503  501 -0.36062294666E+02  0.12971332574E+02 -0.77139433135E+02  0.86134991204E+02  0.00000000000E+00 0. -1.
          2    1    1    2  501    0 -0.16194652813E+03  0.29148574924E+02 -0.63629532473E+03  0.65722755395E+03  0.00000000000E+00 0.  1.
<mgrwt>
<rscale>  4 0.23792137E+03</rscale>
<asrwt>0</asrwt>
<pdfrwt beam="1">  1       21 0.51284029E-02 0.23792137E+03</pdfrwt>
<pdfrwt beam="2">  1        2 0.23057468E+00 0.23792137E+03</pdfrwt>
<totfact> 0.44903562E+04</totfact>
</mgrwt>
</event>
<event>
 5    0  0.4115852E+000  0.2522990E+03  0.7546771E-02  0.1111860E+00
         21   -1    0    0  501  502  0.00000000000E+00  0.00000000000E+00  0.18957006277E+04  0.18957006277E+04  0.00000000000E+00 0.  1.
         -3   -1    0    0    0  501 -0.00000000000E+00 -0.00000000000E+00 -0.44577346788E+02  0.44577346788E+02  0.00000000000E+00 0. -1.
         25    1    1    2    0    0  0.80044552636E+02 -0.19087235433E+03  0.14149471564E+04  0.14354580598E+04  0.12500000000E+03 0.  0.
         21    1    1    2  503  502 -0.14061409231E+02 -0.21753329870E+02  0.86437628244E+02  0.90235215778E+02  0.00000000000E+00 0.  1.
         -3    1    1    2    0  503 -0.65983143405E+02  0.21262568420E+03  0.34973849626E+03  0.41458469890E+03  0.00000000000E+00 0. -1.
<mgrwt>
<rscale>  4 0.25229904E+03</rscale>
<asrwt>0</asrwt>
<pdfrwt beam="1">  1       21 0.29164619E+00 0.25229904E+03</pdfrwt>
<pdfrwt beam="2">  1       -3 0.68580548E-02 0.25229904E+03</pdfrwt>
<totfact> 0.24806009E+02</totfact>
</mgrwt>
</event>
<event>
 5    0  0.4115852E+000  0.3267966E+03  0.7546771E-02  0.1072563E+00
          2   -1    0    0  502    0 -0.00000000000E+00  0.00000000000E+00  0.12513677659E+04  0.12513677659E+04  0.00000000000E+00 0.  1.
         21   -1    0    0  503  502  0.00000000000E+00 -0.00000000000E+00 -0.22783268302E+03  0.22783268302E+03  0.00000000000E+00 0. -1.
         25    1    1    2    0    0  0.27269850731E+03 -0.23640991017E+02 -0.45672647699E+02  0.30435893792E+03  0.12500000000E+03 0.  0.
         21    1    1    2  503  501  0.26091874757E+02 -0.40459707260E+02 -0.13365434084E+02  0.49964073774E+02  0.00000000000E+00 0.  1.
          2    1    1    2  501    0 -0.29879038206E+03  0.64100698277E+02  0.10825731647E+04  0.11248774373E+04  0.00000000000E+00 0.  1.
<mgrwt>
<rscale>  4 0.32679659E+03</rscale>
<asrwt>0</asrwt>
<pdfrwt beam="1">  1       21 0.35051183E-01 0.32679659E+03</pdfrwt>
<pdfrwt beam="2">  1        2 0.19251811E+00 0.32679659E+03</pdfrwt>
<totfact> 0.17713527E+03</totfact>
</mgrwt>
</event>
<event>
 5    0  0.4115852E+000  0.2795004E+03  0.7546771E-02  0.1095962E+00
         21   -1    0    0  503  502  0.00000000000E+00  0.00000000000E+00  0.47669522485E+03  0.47669522485E+03  0.00000000000E+00 0. -1.
          2   -1    0    0  502    0 -0.00000000000E+00 -0.00000000000E+00 -0.20299479954E+04  0.20299479954E+04  0.00000000000E+00 0. -1.
         25    1    1    2    0    0  0.73631030857E+02  0.19840511303E+03  0.35384634420E+03  0.43083448432E+03  0.12500000000E+03 0.  0.
         21    1    1    2  503  501  0.71032688115E+02  0.66044865631E+01  0.59728156150E+02  0.93041467425E+02  0.00000000000E+00 0.  1.
          2    1    1    2  501    0 -0.14466371897E+03 -0.20500959959E+03 -0.19668272709E+04  0.19827672685E+04  0.00000000000E+00 0. -1.
<mgrwt>
<rscale>  4 0.27950037E+03</rscale>
<asrwt>0</asrwt>
<pdfrwt beam="1">  1       21 0.73337727E-01 0.27950037E+03</pdfrwt>
<pdfrwt beam="2">  1        2 0.31229969E+00 0.27950037E+03</pdfrwt>
<totfact> 0.14498838E+02</totfact>
</mgrwt>
</event>
<event>
 5    0  0.4115852E+000  0.3429238E+03  0.7546771E-02  0.1065557E+00
          2   -1    0    0  502    0 -0.00000000000E+00  0.00000000000E+00  0.14350017498E+04  0.14350017498E+04  0.00000000000E+00 0. -1.
         21   -1    0    0  503  502  0.00000000000E+00 -0.00000000000E+00 -0.16718450419E+03  0.16718450419E+03  0.00000000000E+00 0. -1.
         25    1    1    2    0    0  0.28394884310E+03 -0.15693928788E+03  0.10604740288E+04  0.11160139118E+04  0.12500000000E+03 0.  0.
         21    1    1    2  503  501 -0.10284845363E+02  0.17962738002E+02 -0.69694749169E+02  0.72703480401E+02  0.00000000000E+00 0. -1.
          2    1    1    2  501    0 -0.27366399773E+03  0.13897654987E+03  0.27703796594E+03  0.41346886176E+03  0.00000000000E+00 0. -1.
<mgrwt>
<rscale>  4 0.34292382E+03</rscale>
<asrwt>0</asrwt>
<pdfrwt beam="1">  1       21 0.25720694E-01 0.34292382E+03</pdfrwt>
<pdfrwt beam="2">  1        2 0.22076949E+00 0.34292382E+03</pdfrwt>
<totfact> 0.25678392E+03</totfact>
</mgrwt>
</event>
<event>
 5    0  0.4115852E+000  0.5787977E+03  0.7546771E-02  0.9950397E-01
          2   -1    0    0  502    0 -0.00000000000E+00  0.00000000000E+00  0.25241956159E+04  0.25241956159E+04  0.00000000000E+00 0. -1.
         21   -1    0    0  503  502  0.00000000000E+00 -0.00000000000E+00 -0.14768038406E+03  0.14768038406E+03  0.00000000000E+00 0. -1.
         25    1    1    2    0    0  0.52430599038E+02 -0.54915517368E+03  0.86782908346E+03  0.10358922196E+04  0.12500000000E+03 0.  0.
         21    1    1    2  503  501 -0.22603414842E+02 -0.23956473589E+02  0.15678266807E+02  0.36477870544E+02  0.00000000000E+00 0.  1.
          2    1    1    2  501    0 -0.29827184196E+02  0.57311164726E+03  0.14930078816E+04  0.15995059098E+04  0.00000000000E+00 0. -1.
<mgrwt>
<rscale>  4 0.57879768E+03</rscale>
<asrwt>0</asrwt>
<pdfrwt beam="1">  1       21 0.22720061E-01 0.57879768E+03</pdfrwt>
<pdfrwt beam="2">  1        2 0.38833775E+00 0.57879768E+03</pdfrwt>
<totfact> 0.78573280E+02</totfact>
</mgrwt>
</event>
<event>
 5    0  0.4115852E+000  0.2727097E+03  0.7546771E-02  0.1099739E+00
         21   -1    0    0  501  502  0.00000000000E+00  0.00000000000E+00  0.22181286961E+03  0.22181286961E+03  0.00000000000E+00 0. -1.
         -3   -1    0    0    0  501 -0.00000000000E+00 -0.00000000000E+00 -0.90009898947E+03  0.90009898947E+03  0.00000000000E+00 0. -1.
         25    1    1    2    0    0 -0.83078013540E+02 -0.24317690812E+03 -0.46460554729E+03  0.54545419564E+03  0.12500000000E+03 0.  0.
         21    1    1    2  503  502  0.10892679507E+02  0.24558408793E+02  0.14652176023E+03  0.14896439887E+03  0.00000000000E+00 0. -1.
         -3    1    1    2    0  503  0.72185334033E+02  0.21861849932E+03 -0.36020233281E+03  0.42749326457E+03  0.00000000000E+00 0. -1.
<mgrwt>
<rscale>  4 0.27270971E+03</rscale>
<asrwt>0</asrwt>
<pdfrwt beam="1">  1       21 0.34125056E-01 0.27270971E+03</pdfrwt>
<pdfrwt beam="2">  1       -3 0.13847677E+00 0.27270971E+03</pdfrwt>
<totfact> 0.16752419E+02</totfact>
</mgrwt>
</event>
<event>
 5    0  0.4115852E+000  0.3668571E+03  0.7546771E-02  0.1055901E+00
          4   -1    0    0  502    0 -0.00000000000E+00  0.00000000000E+00  0.87035110807E+03  0.87035110807E+03  0.00000000000E+00 0.  1.
         21   -1    0    0  503  502  0.00000000000E+00 -0.00000000000E+00 -0.21777672990E+03  0.21777672990E+03  0.00000000000E+00 0.  1.
         25    1    1    2    0    0  0.15666126048E+03 -0.32956037489E+03  0.30865487254E+03  0.49400973834E+03  0.12500000000E+03 0.  0.
         21    1    1    2  503  501 -0.10990544051E+02  0.31098475497E+02 -0.61649357685E+02  0.69918170311E+02  0.00000000000E+00 0.  1.
          4    1    1    2  501    0 -0.14567071643E+03  0.29846189939E+03  0.40556886331E+03  0.52419992932E+03  0.00000000000E+00 0.  1.
<mgrwt>
<rscale>  4 0.36685711E+03</rscale>
<asrwt>0</asrwt>
<pdfrwt beam="1">  1       21 0.33504113E-01 0.36685711E+03</pdfrwt>
<pdfrwt beam="2">  1        4 0.13390017E+00 0.36685711E+03</pdfrwt>
<totfact> 0.14849677E+02</totfact>
</mgrwt>
</event>
<event>
 5    0  0.4149994E+000  0.3101211E+03  0.7546771E-02  0.1080288E+00
         21   -1    0    0  503  502  0.00000000000E+00  0.00000000000E+00  0.26240139066E+03  0.26240139066E+03  0.00000000000E+00 0.  1.
          3   -1    0    0  502    0 -0.00000000000E+00 -0.00000000000E+00 -0.18795737541E+04  0.18795737541E+04  0.00000000000E+00 0.  1.
         25    1    1    2    0    0 -0.20307035055E+03 -0.16294555922E+03  0.15067796055E+03  0.32575707258E+03  0.12500000000E+03 0.  0.
         21    1    1    2  503  501  0.30150704542E+01 -0.40083533251E+02 -0.19302660625E+02  0.44591176201E+02  0.00000000000E+00 0. -1.
          3    1    1    2  501    0  0.20005528010E+03  0.20302909247E+03 -0.17485476633E+04  0.17716268959E+04  0.00000000000E+00 0.  1.
<mgrwt>
<rscale>  4 0.31012110E+03</rscale>
<asrwt>0</asrwt>
<pdfrwt beam="1">  1       21 0.40369446E-01 0.31012110E+03</pdfrwt>
<pdfrwt beam="2">  1        3 0.28916519E+00 0.31012110E+03</pdfrwt>
<totfact> 0.14165226E+01</totfact>
</mgrwt>
</event>
<event>
 5    0  0.4115852E+000  0.3929924E+03  0.7546771E-02  0.1046234E+00
          2   -1    0    0  502    0 -0.00000000000E+00  0.00000000000E+00  0.25801598718E+04  0.25801598718E+04  0.00000000000E+00 0. -1.
         21   -1    0    0  503  502  0.00000000000E+00 -0.00000000000E+00 -0.53183483418E+03  0.53183483418E+03  0.00000000000E+00 0.  1.
         25    1    1    2    0    0  0.87967445257E+02 -0.39618252542E+03 -0.29288690951E+03  0.51585521868E+03  0.12500000000E+03 0.  0.
         21    1    1    2  503  501 -0.12611394994E+03  0.26026245825E+02 -0.76618326629E+02  0.14984145560E+03  0.00000000000E+00 0.  1.
          2    1    1    2  501    0  0.38146504685E+02  0.37015627960E+03  0.24178302738E+04  0.24462980317E+04  0.00000000000E+00 0. -1.
<mgrwt>
<rscale>  4 0.39299236E+03</rscale>
<asrwt>0</asrwt>
<pdfrwt beam="1">  1       21 0.81820746E-01 0.39299236E+03</pdfrwt>
<pdfrwt beam="2">  1        2 0.39694766E+00 0.39299236E+03</pdfrwt>
<totfact> 0.53187012E+01</totfact>
</mgrwt>
</event>
<event>
 5    0  0.4115852E+000  0.3689958E+03  0.7546771E-02  0.1055078E+00
          2   -1    0    0  502    0 -0.00000000000E+00  0.00000000000E+00  0.33140311461E+03  0.33140311461E+03  0.00000000000E+00 0.  1.
         21   -1    0    0  503  502  0.00000000000E+00 -0.00000000000E+00 -0.49350419680E+03  0.49350419680E+03  0.00000000000E+00 0.  1.
         25    1    1    2    0    0 -0.20610973967E+03  0.25505668096E+03  0.20334067437E+01  0.35094767421E+03  0.12500000000E+03 0.  0.
         21    1    1    2  503  501 -0.39412220033E+02  0.26071431746E+02 -0.77529710344E+02  0.90795917459E+02  0.00000000000E+00 0.  1.
          2    1    1    2  501    0  0.24552195970E+03 -0.28112811271E+03 -0.86604778591E+02  0.38316371974E+03  0.00000000000E+00 0.  1.
<mgrwt>
<rscale>  4 0.36899579E+03</rscale>
<asrwt>0</asrwt>
<pdfrwt beam="1">  1       21 0.75923723E-01 0.36899579E+03</pdfrwt>
<pdfrwt beam="2">  1        2 0.50985095E-01 0.36899579E+03</pdfrwt>
<totfact> 0.17804609E+03</totfact>
</mgrwt>
</event>
<event>
 5    0  0.4115852E+000  0.3126478E+03  0.7546771E-02  0.1079084E+00
          2   -1    0    0  502    0 -0.00000000000E+00  0.00000000000E+00  0.11938773812E+04  0.11938773812E+04  0.00000000000E+00 0. -1.
         21   -1    0    0  503  502  0.00000000000E+00 -0.00000000000E+00 -0.13079016544E+03  0.13079016544E+03  0.00000000000E+00 0. -1.
         25    1    1    2    0    0 -0.13704818085E+03 -0.24386023306E+03  0.90100308385E+03  0.95167303957E+03  0.12500000000E+03 0.  0.
         21    1    1    2  503  501  0.10834884958E+03  0.26741757205E+03  0.10947799971E+03  0.30860502826E+03  0.00000000000E+00 0. -1.
          2    1    1    2  501    0  0.28699331269E+02 -0.23557338996E+02  0.52606132202E+02  0.64389478808E+02  0.00000000000E+00 0. -1.
<mgrwt>
<rscale>  4 0.31264783E+03</rscale>
<asrwt>0</asrwt>
<pdfrwt beam="1">  1       21 0.20121565E-01 0.31264783E+03</pdfrwt>
<pdfrwt beam="2">  1        2 0.18367344E+00 0.31264783E+03</pdfrwt>
<totfact> 0.56505280E+03</totfact>
</mgrwt>
</event>
<event>
 5    0  0.5052088E+000  0.2765285E+03  0.7546771E-02  0.1097600E+00
          2   -1    0    0  502    0 -0.00000000000E+00  0.00000000000E+00  0.13855230949E+04  0.13855230949E+04  0.00000000000E+00 0.  1.
         21   -1    0    0  503  502  0.00000000000E+00 -0.00000000000E+00 -0.56269365206E+03  0.56269365206E+03  0.00000000000E+00 0.  1.
         25    1    1    2    0    0 -0.11438124405E+03 -0.20501597634E+03 -0.49089272360E+03  0.55831468333E+03  0.12500000000E+03 0.  0.
         21    1    1    2  503  501 -0.25652343649E+02  0.16166575699E+01 -0.20588737808E+02  0.32932543797E+02  0.00000000000E+00 0. -1.
          2    1    1    2  501    0  0.14003358770E+03  0.20339931877E+03  0.13343109042E+04  0.13569695198E+04  0.00000000000E+00 0.  1.
<mgrwt>
<rscale>  4 0.27652850E+03</rscale>
<asrwt>0</asrwt>
<pdfrwt beam="1">  1       21 0.86568255E-01 0.27652850E+03</pdfrwt>
<pdfrwt beam="2">  1        2 0.21315740E+00 0.27652850E+03</pdfrwt>
<totfact> 0.21870917E+02</totfact>
</mgrwt>
</event>
<event>
 5    0  0.4115852E+000  0.2574498E+03  0.7546771E-02  0.1108685E+00
         21   -1    0    0  503  502  0.00000000000E+00  0.00000000000E+00  0.90424921734E+03  0.90424921734E+03  0.00000000000E+00 0. -1.
          4   -1    0    0  502    0 -0.00000000000E+00 -0.00000000000E+00 -0.10728300005E+03  0.10728300005E+03  0.00000000000E+00 0. -1.
         25    1    1    2    0    0  0.22780467052E+03 -0.83593019898E+02  0.57182668256E+03  0.63363515983E+03  0.12500000000E+03 0.  0.
         21    1    1    2  503  501 -0.34499346142E+02 -0.23123584406E+02  0.13177189927E+03  0.13816200084E+03  0.00000000000E+00 0.  1.
          4    1    1    2  501    0 -0.19330532437E+03  0.10671660430E+03  0.93367635469E+02  0.23973505672E+03  0.00000000000E+00 0. -1.
<mgrwt>
<rscale>  4 0.25744978E+03</rscale>
<asrwt>0</asrwt>
<pdfrwt beam="1">  1       21 0.13911526E+00 0.25744978E+03</pdfrwt>
<pdfrwt beam="2">  1        4 0.16505078E-01 0.25744978E+03</pdfrwt>
<totfact> 0.48141531E+02</totfact>
</mgrwt>
</event>
<event>
 5    0  0.4115852E+000  0.6434617E+03  0.7546771E-02  0.9819126E-01
         21   -1    0    0  501  502  0.00000000000E+00  0.00000000000E+00  0.60837558404E+03  0.60837558404E+03  0.00000000000E+00 0. -1.
         -2   -1    0    0    0  501 -0.00000000000E+00 -0.00000000000E+00 -0.11080147443E+04  0.11080147443E+04  0.00000000000E+00 0. -1.
         25    1    1    2    0    0  0.62051970311E+03 -0.47439050596E+02 -0.71412225178E+03  0.95545316785E+03  0.12500000000E+03 0.  0.
         21    1    1    2  503  502  0.38985267976E+02  0.99505385873E+00  0.76043151848E+02  0.85459944970E+02  0.00000000000E+00 0.  1.
         -2    1    1    2    0  503 -0.65950497108E+03  0.46443996737E+02  0.13843993972E+03  0.67547721548E+03  0.00000000000E+00 0. -1.
<mgrwt>
<rscale>  4 0.64346169E+03</rscale>
<asrwt>0</asrwt>
<pdfrwt beam="1">  1       21 0.93596245E-01 0.64346169E+03</pdfrwt>
<pdfrwt beam="2">  1       -2 0.17046381E+00 0.64346169E+03</pdfrwt>
<totfact> 0.14921347E+01</totfact>
</mgrwt>
</event>
<event>
 5    0  0.4115852E+000  0.2471914E+03  0.7546771E-02  0.1115093E+00
          2   -1    0    0  502    0 -0.00000000000E+00  0.00000000000E+00  0.43418704814E+03  0.43418704814E+03  0.00000000000E+00 0. -1.
         21   -1    0    0  503  502  0.00000000000E+00 -0.00000000000E+00 -0.78117035876E+03  0.78117035876E+03  0.00000000000E+00 0.  1.
         25    1    1    2    0    0  0.35490321223E+03  0.14419353612E+03 -0.32183035121E+03  0.51570130975E+03  0.12500000000E+03 0.  0.
         21    1    1    2  503  501 -0.18482300102E+03 -0.38012633107E+02 -0.30304099847E+03  0.35698508195E+03  0.00000000000E+00 0.  1.
          2    1    1    2  501    0 -0.17008021121E+03 -0.10618090301E+03  0.27788803906E+03  0.34267101521E+03  0.00000000000E+00 0. -1.
<mgrwt>
<rscale>  4 0.24719136E+03</rscale>
<asrwt>0</asrwt>
<pdfrwt beam="1">  1       21 0.12018005E+00 0.24719136E+03</pdfrwt>
<pdfrwt beam="2">  1        2 0.66798008E-01 0.24719136E+03</pdfrwt>
<totfact> 0.46386609E+02</totfact>
</mgrwt>
</event>
<event>
 5    0  0.4115852E+000  0.3158987E+03  0.7546771E-02  0.1077552E+00
          2   -1    0    0  502    0 -0.00000000000E+00  0.00000000000E+00  0.11623713148E+04  0.11623713148E+04  0.00000000000E+00 0. -1.
         21   -1    0    0  503  502  0.00000000000E+00 -0.00000000000E+00 -0.13164507346E+04  0.13164507346E+04  0.00000000000E+00 0. -1.
         25    1    1    2    0    0  0.38388227544E+02 -0.22926550784E+03  0.11343917400E+02  0.26417799598E+03  0.12500000000E+03 0.  0.
         21    1    1    2  503  501 -0.14040817642E+03 -0.58380676914E+02 -0.11622429102E+04  0.11721481740E+04  0.00000000000E+00 0. -1.
          2    1    1    2  501    0  0.10201994887E+03  0.28764618475E+03  0.99681957301E+03  0.10424958795E+04  0.00000000000E+00 0. -1.
<mgrwt>
<rscale>  4 0.31589867E+03</rscale>
<asrwt>0</asrwt>
<pdfrwt beam="1">  1       21 0.20253088E+00 0.31589867E+03</pdfrwt>
<pdfrwt beam="2">  1        2 0.17882636E+00 0.31589867E+03</pdfrwt>
<totfact> 0.30949694E+01</totfact>
</mgrwt>
</event>
<event>
 5    0  0.4115852E+000  0.4556099E+03  0.7546771E-02  0.1026062E+00
         21   -1    0    0  501  502  0.00000000000E+00  0.00000000000E+00  0.23426717873E+03  0.23426717873E+03  0.00000000000E+00 0. -1.
         -1   -1    0    0    0  501 -0.00000000000E+00 -0.00000000000E+00 -0.13925365309E+04  0.13925365309E+04  0.00000000000E+00 0. -1.
         25    1    1    2    0    0  0.23559418154E+03 -0.37835080882E+03 -0.15758798061E+03  0.48899174282E+03  0.12500000000E+03 0.  0.
         21    1    1    2  503  502 -0.22291975741E+02 -0.21185497759E+01  0.18609033805E+02  0.29115572719E+02  0.00000000000E+00 0.  1.
         -1    1    1    2    0  503 -0.21330220580E+03  0.38046935859E+03 -0.10192904053E+04  0.11086963941E+04  0.00000000000E+00 0. -1.
<mgrwt>
<rscale>  4 0.45560989E+03</rscale>
<asrwt>0</asrwt>
<pdfrwt beam="1">  1       21 0.36041105E-01 0.45560989E+03</pdfrwt>
<pdfrwt beam="2">  1       -1 0.21423639E+00 0.45560989E+03</pdfrwt>
<totfact> 0.84927316E+01</totfact>
</mgrwt>
</event>
<event>
 5    0  0.4115852E+000  0.2592841E+03  0.7546771E-02  0.1107574E+00
          2   -1    0    0  502    0 -0.00000000000E+00  0.00000000000E+00  0.29423250466E+03  0.29423250466E+03  0.00000000000E+00 0. -1.
         21   -1    0    0  503  502  0.00000000000E+00 -0.00000000000E+00 -0.34355181891E+03  0.34355181891E+03  0.00000000000E+00 0.  1.
         25    1    1    2    0    0  0.76195165473E+02 -0.24822662588E+03  0.14156089262E+01  0.28818252027E+03  0.12500000000E+03 0.  0.
         21    1    1    2  503  501 -0.51390238656E+02  0.39007631614E+02 -0.11281582853E+03  0.12996139088E+03  0.00000000000E+00 0.  1.
          2    1    1    2  501    0 -0.24804926817E+02  0.20921899427E+03  0.62080905362E+02  0.21964041242E+03  0.00000000000E+00 0. -1.
<mgrwt>
<rscale>  4 0.25928413E+03</rscale>
<asrwt>0</asrwt>
<pdfrwt beam="1">  1       21 0.52854126E-01 0.25928413E+03</pdfrwt>
<pdfrwt beam="2">  1        2 0.45266539E-01 0.25928413E+03</pdfrwt>
<totfact> 0.46081253E+03</totfact>
</mgrwt>
</event>
<event>
 5    0  0.4115852E+000  0.2247391E+03  0.7546771E-02  0.1130398E+00
          2   -1    0    0  502    0 -0.00000000000E+00  0.00000000000E+00  0.28441599623E+03  0.28441599623E+03  0.00000000000E+00 0. -1.
         21   -1    0    0  503  502  0.00000000000E+00 -0.00000000000E+00 -0.25127298844E+03  0.25127298844E+03  0.00000000000E+00 0.  1.
         25    1    1    2    0    0  0.80765611071E+01 -0.20298878685E+03  0.91284393076E+01  0.23870066366E+03  0.12500000000E+03 0.  0.
         21    1    1    2  503  501  0.76926213013E+01  0.24096948633E+02 -0.83793493048E+02  0.87528217353E+02  0.00000000000E+00 0.  1.
          2    1    1    2  501    0 -0.15769182408E+02  0.17889183822E+03  0.10780806153E+03  0.20946010366E+03  0.00000000000E+00 0. -1.
<mgrwt>
<rscale>  4 0.22473914E+03</rscale>
<asrwt>0</asrwt>
<pdfrwt beam="1">  1       21 0.38657383E-01 0.22473914E+03</pdfrwt>
<pdfrwt beam="2">  1        2 0.43756307E-01 0.22473914E+03</pdfrwt>
<totfact> 0.91984208E+03</totfact>
</mgrwt>
</event>
<event>
 5    0  0.4115852E+000  0.2077028E+03  0.7546771E-02  0.1143398E+00
          2   -1    0    0  502    0 -0.00000000000E+00  0.00000000000E+00  0.14785409264E+04  0.14785409264E+04  0.00000000000E+00 0. -1.
         21   -1    0    0  503  502  0.00000000000E+00 -0.00000000000E+00 -0.83387672014E+02  0.83387672014E+02  0.00000000000E+00 0. -1.
         25    1    1    2    0    0  0.20131260067E+03 -0.39569892114E+02  0.13969435813E+03  0.27790655488E+03  0.12500000000E+03 0.  0.
         21    1    1    2  503  501 -0.55602814614E+02 -0.33823153396E+02  0.11657746994E+03  0.13351398877E+03  0.00000000000E+00 0. -1.
          2    1    1    2  501    0 -0.14570978606E+03  0.73393045510E+02  0.11388814263E+04  0.11505080547E+04  0.00000000000E+00 0. -1.
<mgrwt>
<rscale>  4 0.20770282E+03</rscale>
<asrwt>0</asrwt>
<pdfrwt beam="1">  1       21 0.12828874E-01 0.20770282E+03</pdfrwt>
<pdfrwt beam="2">  1        2 0.22746782E+00 0.20770282E+03</pdfrwt>
<totfact> 0.93257015E+03</totfact>
</mgrwt>
</event>
<event>
 5    0  0.4115852E+000  0.2582660E+03  0.7546771E-02  0.1108190E+00
         21   -1    0    0  503  502  0.00000000000E+00  0.00000000000E+00  0.75081643592E+02  0.75081643592E+02  0.00000000000E+00 0. -1.
          2   -1    0    0  502    0 -0.00000000000E+00 -0.00000000000E+00 -0.11769605622E+04  0.11769605622E+04  0.00000000000E+00 0. -1.
         25    1    1    2    0    0  0.17930014966E+03 -0.10103428555E+03 -0.29356535614E+03  0.37968682997E+03  0.12500000000E+03 0.  0.
         21    1    1    2  503  501  0.55004207648E+02 -0.26770674961E+02 -0.15301782827E+03  0.16479255950E+03  0.00000000000E+00 0. -1.
          2    1    1    2  501    0 -0.23430435731E+03  0.12780496051E+03 -0.65529573418E+03  0.70756281631E+03  0.00000000000E+00 0. -1.
<mgrwt>
<rscale>  4 0.25826601E+03</rscale>
<asrwt>0</asrwt>
<pdfrwt beam="1">  1       21 0.11551022E-01 0.25826601E+03</pdfrwt>
<pdfrwt beam="2">  1        2 0.18107085E+00 0.25826601E+03</pdfrwt>
<totfact> 0.16261262E+04</totfact>
</mgrwt>
</event>
<event>
 5    0  0.4115852E+000  0.3696762E+03  0.7546771E-02  0.1054817E+00
          2   -1    0    0  502    0 -0.00000000000E+00  0.00000000000E+00  0.20229867261E+04  0.20229867261E+04  0.00000000000E+00 0. -1.
         21   -1    0    0  503  502  0.00000000000E+00 -0.00000000000E+00 -0.34506823648E+03  0.34506823648E+03  0.00000000000E+00 0.  1.
         25    1    1    2    0    0 -0.22033060583E+03  0.23798485588E+03 -0.15387749240E+03  0.38011268088E+03  0.12500000000E+03 0.  0.
         21    1    1    2  503  501 -0.36681864163E+02 -0.13252220959E+01 -0.56621278464E+02  0.67478030106E+02  0.00000000000E+00 0.  1.
          2    1    1    2  501    0  0.25701247000E+03 -0.23665963379E+03  0.18884172605E+04  0.19204642516E+04  0.00000000000E+00 0. -1.
<mgrwt>
<rscale>  4 0.36967621E+03</rscale>
<asrwt>0</asrwt>
<pdfrwt beam="1">  1       21 0.53087422E-01 0.36967621E+03</pdfrwt>
<pdfrwt beam="2">  1        2 0.31122872E+00 0.36967621E+03</pdfrwt>
<totfact> 0.28274890E+02</totfact>
</mgrwt>
</event>
<event>
 5    0  0.4115852E+000  0.2674105E+03  0.7546771E-02  0.1102771E+00
          3   -1    0    0  502    0 -0.00000000000E+00  0.00000000000E+00  0.71907755104E+03  0.71907755104E+03  0.00000000000E+00 0.  1.
         21   -1    0    0  503  502  0.00000000000E+00 -0.00000000000E+00 -0.18963179614E+03  0.18963179614E+03  0.00000000000E+00 0.  1.
         25    1    1    2    0    0  0.24663445359E+03  0.10965254983E+03  0.24795036494E+02  0.29848287926E+03  0.12500000000E+03 0.  0.
         21    1    1    2  503  501 -0.58977686663E+02  0.25008744973E+02  0.10709736990E+02  0.64950006279E+02  0.00000000000E+00 0.  1.
          3    1    1    2  501    0 -0.18765676692E+03 -0.13466129480E+03  0.49394098142E+03  0.54527646163E+03  0.00000000000E+00 0.  1.
<mgrwt>
<rscale>  4 0.26741053E+03</rscale>
<asrwt>0</asrwt>
<pdfrwt beam="1">  1       21 0.29174123E-01 0.26741053E+03</pdfrwt>
<pdfrwt beam="2">  1        3 0.11062731E+00 0.26741053E+03</pdfrwt>
<totfact> 0.39398725E+02</totfact>
</mgrwt>
</event>
<event>
 5    0  0.4115852E+000  0.2866789E+03  0.7546771E-02  0.1092096E+00
          2   -1    0    0  502    0 -0.00000000000E+00  0.00000000000E+00  0.20140812041E+04  0.20140812041E+04  0.00000000000E+00 0.  1.
         21   -1    0    0  503  502  0.00000000000E+00 -0.00000000000E+00 -0.12599849126E+03  0.12599849126E+03  0.00000000000E+00 0.  1.
         25    1    1    2    0    0 -0.23299425909E+03 -0.96684101681E+02  0.20258428599E+03  0.34684223102E+03  0.12500000000E+03 0.  0.
         21    1    1    2  503  501 -0.18492696746E+02  0.34333045703E+02 -0.35565608755E+02  0.52779260949E+02  0.00000000000E+00 0.  1.
          2    1    1    2  501    0  0.25148695583E+03  0.62351055979E+02  0.17210640356E+04  0.17404582034E+04  0.00000000000E+00 0.  1.
<mgrwt>
<rscale>  4 0.28667891E+03</rscale>
<asrwt>0</asrwt>
<pdfrwt beam="1">  1       21 0.19384385E-01 0.28667891E+03</pdfrwt>
<pdfrwt beam="2">  1        2 0.30985862E+00 0.28667891E+03</pdfrwt>
<totfact> 0.22107571E+03</totfact>
</mgrwt>
</event>
<event>
 5    0  0.4115852E+000  0.2197896E+03  0.7546771E-02  0.1134040E+00
         21   -1    0    0  501  502  0.00000000000E+00  0.00000000000E+00  0.56016634375E+03  0.56016634375E+03  0.00000000000E+00 0.  1.
         -1   -1    0    0    0  501 -0.00000000000E+00 -0.00000000000E+00 -0.22874303539E+03  0.22874303539E+03  0.00000000000E+00 0.  1.
         25    1    1    2    0    0  0.14149570430E+03  0.18325909995E+03  0.25141966936E+02  0.26431430259E+03  0.12500000000E+03 0.  0.
         21    1    1    2  503  502 -0.69067582914E+02 -0.40215974815E+02  0.34951292198E+03  0.35853443108E+03  0.00000000000E+00 0.  1.
         -1    1    1    2    0  503 -0.72428121387E+02 -0.14304312514E+03 -0.43231580564E+02  0.16606064547E+03  0.00000000000E+00 0.  1.
<mgrwt>
<rscale>  4 0.21978960E+03</rscale>
<asrwt>0</asrwt>
<pdfrwt beam="1">  1       21 0.86179437E-01 0.21978960E+03</pdfrwt>
<pdfrwt beam="2">  1       -1 0.35191237E-01 0.21978960E+03</pdfrwt>
<totfact> 0.81550216E+02</totfact>
</mgrwt>
</event>
<event>
 5    0  0.4115852E+000  0.2172295E+03  0.7546771E-02  0.1135966E+00
          1   -1    0    0  502    0 -0.00000000000E+00  0.00000000000E+00  0.38250355006E+03  0.38250355006E+03  0.00000000000E+00 0.  1.
         21   -1    0    0  503  502  0.00000000000E+00 -0.00000000000E+00 -0.24088745425E+03  0.24088745425E+03  0.00000000000E+00 0.  1.
         25    1    1    2    0    0  0.17722228526E+03 -0.14631441247E+03 -0.37618288286E+02  0.26430244286E+03  0.12500000000E+03 0.  0.
         21    1    1    2  503  501 -0.96153561010E+02  0.11187723620E+03 -0.12542693782E+02  0.14805182350E+03  0.00000000000E+00 0.  1.
          1    1    1    2  501    0 -0.81068724246E+02  0.34437176277E+02  0.19177707788E+03  0.21103673795E+03  0.00000000000E+00 0.  1.
<mgrwt>
<rscale>  4 0.21722950E+03</rscale>
<asrwt>0</asrwt>
<pdfrwt beam="1">  1       21 0.37059608E-01 0.21722950E+03</pdfrwt>
<pdfrwt beam="2">  1        1 0.58846700E-01 0.21722950E+03</pdfrwt>
<totfact> 0.49167095E+03</totfact>
</mgrwt>
</event>
<event>
 5    0  0.4115852E+000  0.2259228E+03  0.7546771E-02  0.1129543E+00
         21   -1    0    0  501  502  0.00000000000E+00  0.00000000000E+00  0.79255033355E+03  0.79255033355E+03  0.00000000000E+00 0.  1.
         -2   -1    0    0    0  501 -0.00000000000E+00 -0.00000000000E+00 -0.78756528355E+02  0.78756528355E+02  0.00000000000E+00 0.  1.
         25    1    1    2    0    0 -0.16412320644E+03  0.12039074233E+03  0.48331989733E+03  0.53912288107E+03  0.12500000000E+03 0.  0.
         21    1    1    2  503  502  0.22331679551E+02 -0.43988126306E+01  0.11138456574E+03  0.11368630062E+03  0.00000000000E+00 0.  1.
         -2    1    1    2    0  503  0.14179152689E+03 -0.11599192970E+03  0.11908934213E+03  0.21849768022E+03  0.00000000000E+00 0.  1.
<mgrwt>
<rscale>  4 0.22592285E+03</rscale>
<asrwt>0</asrwt>
<pdfrwt beam="1">  1       21 0.12193082E+00 0.22592285E+03</pdfrwt>
<pdfrwt beam="2">  1       -2 0.12116390E-01 0.22592285E+03</pdfrwt>
<totfact> 0.19228622E+03</totfact>
</mgrwt>
</event>
<event>
 5    0  0.4115852E+000  0.2319019E+03  0.7546771E-02  0.1125308E+00
         21   -1    0    0  501  502  0.00000000000E+00  0.00000000000E+00  0.26393260174E+02  0.26393260174E+02  0.00000000000E+00 0. -1.
         -1   -1    0    0    0  501 -0.00000000000E+00 -0.00000000000E+00 -0.26060825723E+04  0.26060825723E+04  0.00000000000E+00 0. -1.
         25    1    1    2    0    0 -0.20139789826E+03 -0.50629620095E+02 -0.12951385178E+04  0.13176240937E+04  0.12500000000E+03 0.  0.
         21    1    1    2  503  502  0.17902230601E+02  0.10449165658E+02 -0.46548035794E+01  0.21244813951E+02  0.00000000000E+00 0.  1.
         -1    1    1    2    0  503  0.18349566766E+03  0.40180454437E+02 -0.12798959907E+04  0.12936069248E+04  0.00000000000E+00 0. -1.
<mgrwt>
<rscale>  4 0.23190192E+03</rscale>
<asrwt>0</asrwt>
<pdfrwt beam="1">  1       21 0.40604997E-02 0.23190192E+03</pdfrwt>
<pdfrwt beam="2">  1       -1 0.40093597E+00 0.23190192E+03</pdfrwt>
<totfact> 0.31618433E+02</totfact>
</mgrwt>
</event>
<event>
 5    0  0.4115852E+000  0.2049160E+03  0.7546771E-02  0.1145656E+00
         21   -1    0    0  503  502  0.00000000000E+00  0.00000000000E+00  0.35610633436E+03  0.35610633436E+03  0.00000000000E+00 0. -1.
          1   -1    0    0  502    0 -0.00000000000E+00 -0.00000000000E+00 -0.20701152309E+03  0.20701152309E+03  0.00000000000E+00 0.  1.
         25    1    1    2    0    0 -0.16702743956E+02  0.23418350617E+03  0.90401621314E+02  0.28092409892E+03  0.12500000000E+03 0.  0.
         21    1    1    2  503  501  0.11487846500E+02 -0.13642380940E+03  0.10630377903E+03  0.17333182000E+03  0.00000000000E+00 0. -1.
          1    1    1    2  501    0  0.52148974556E+01 -0.97759696765E+02 -0.47610589074E+02  0.10886193852E+03  0.00000000000E+00 0.  1.
<mgrwt>
<rscale>  4 0.20491605E+03</rscale>
<asrwt>0</asrwt>
<pdfrwt beam="1">  1       21 0.54785590E-01 0.20491605E+03</pdfrwt>
<pdfrwt beam="2">  1        1 0.31847927E-01 0.20491605E+03</pdfrwt>
<totfact> 0.47737882E+03</totfact>
</mgrwt>
</event>
<event>
 5    0  0.4115852E+000  0.2919109E+03  0.7546771E-02  0.1089356E+00
         21   -1    0    0  503  502  0.00000000000E+00  0.00000000000E+00  0.89178918693E+02  0.89178918693E+02  0.00000000000E+00 0.  1.
          1   -1    0    0  502    0 -0.00000000000E+00 -0.00000000000E+00 -0.17537006647E+04  0.17537006647E+04  0.00000000000E+00 0.  1.
         25    1    1    2    0    0 -0.16565580652E+03 -0.18463794613E+03 -0.23730821128E+03  0.36533984799E+03  0.12500000000E+03 0.  0.
         21    1    1    2  503  501  0.30484840709E+01 -0.27081753949E+02 -0.17662322512E+01  0.27309965735E+02  0.00000000000E+00 0.  1.
          1    1    1    2  501    0  0.16260732245E+03  0.21171970007E+03 -0.14254473025E+04  0.14502297697E+04  0.00000000000E+00 0.  1.
<mgrwt>
<rscale>  4 0.29191088E+03</rscale>
<asrwt>0</asrwt>
<pdfrwt beam="1">  1       21 0.13719833E-01 0.29191088E+03</pdfrwt>
<pdfrwt beam="2">  1        1 0.26980011E+00 0.29191088E+03</pdfrwt>
<totfact> 0.24558775E+03</totfact>
</mgrwt>
</event>
<event>
 5    0  0.4115852E+000  0.2534676E+03  0.7546771E-02  0.1111133E+00
          2   -1    0    0  502    0 -0.00000000000E+00  0.00000000000E+00  0.35196100482E+04  0.35196100482E+04  0.00000000000E+00 0.  1.
         21   -1    0    0  503  502  0.00000000000E+00 -0.00000000000E+00 -0.12968957662E+04  0.12968957662E+04  0.00000000000E+00 0. -1.
         25    1    1    2    0    0  0.10053317278E+03  0.17320256725E+03  0.16517868647E+04  0.16685715131E+04  0.12500000000E+03 0.  0.
         21    1    1    2  503  501 -0.19754780413E+02  0.54012017850E+02 -0.12800365948E+04  0.12813279180E+04  0.00000000000E+00 0. -1.
          2    1    1    2  501    0 -0.80778392371E+02 -0.22721458510E+03  0.18509640120E+04  0.18666063833E+04  0.00000000000E+00 0.  1.
<mgrwt>
<rscale>  4 0.25346757E+03</rscale>
<asrwt>0</asrwt>
<pdfrwt beam="1">  1       21 0.19952243E+00 0.25346757E+03</pdfrwt>
<pdfrwt beam="2">  1        2 0.54147846E+00 0.25346757E+03</pdfrwt>
<totfact> 0.16103877E+00</totfact>
</mgrwt>
</event>
<event>
 5    0  0.4115852E+000  0.2166989E+03  0.7546771E-02  0.1136368E+00
         21   -1    0    0  503  502  0.00000000000E+00  0.00000000000E+00  0.37514183904E+02  0.37514183904E+02  0.00000000000E+00 0.  1.
          2   -1    0    0  502    0 -0.00000000000E+00 -0.00000000000E+00 -0.22954020599E+04  0.22954020599E+04  0.00000000000E+00 0.  1.
         25    1    1    2    0    0  0.11091279386E+03 -0.18203457813E+03 -0.57837428716E+03  0.62895154942E+03  0.12500000000E+03 0.  0.
         21    1    1    2  503  501 -0.76346541546E+02  0.12688866244E+03 -0.47170470771E+03  0.49440353795E+03  0.00000000000E+00 0.  1.
          2    1    1    2  501    0 -0.34566252316E+02  0.55145915689E+02 -0.12078088811E+04  0.12095611564E+04  0.00000000000E+00 0.  1.
<mgrwt>
<rscale>  4 0.21669887E+03</rscale>
<asrwt>0</asrwt>
<pdfrwt beam="1">  1       21 0.57714122E-02 0.21669887E+03</pdfrwt>
<pdfrwt beam="2">  1        2 0.35313882E+00 0.21669887E+03</pdfrwt>
<totfact> 0.14080924E+04</totfact>
</mgrwt>
</event>
<event>
 5    0  0.4115852E+000  0.3295623E+03  0.7546771E-02  0.1071331E+00
         21   -1    0    0  503  502  0.00000000000E+00  0.00000000000E+00  0.32316740067E+03  0.32316740067E+03  0.00000000000E+00 0. -1.
          2   -1    0    0  502    0 -0.00000000000E+00 -0.00000000000E+00 -0.22860910479E+04  0.22860910479E+04  0.00000000000E+00 0. -1.
         25    1    1    2    0    0 -0.34268380573E+03 -0.44752485181E+02  0.85330137304E+02  0.37728133796E+03  0.12500000000E+03 0.  0.
         21    1    1    2  503  501  0.44082565934E+02 -0.70342936420E+01  0.74959101201E+02  0.87244603038E+02  0.00000000000E+00 0. -1.
          2    1    1    2  501    0  0.29860123979E+03  0.51786778823E+02 -0.21232128857E+04  0.21447325076E+04  0.00000000000E+00 0. -1.
<mgrwt>
<rscale>  4 0.32956232E+03</rscale>
<asrwt>0</asrwt>
<pdfrwt beam="1">  1       21 0.49718063E-01 0.32956232E+03</pdfrwt>
<pdfrwt beam="2">  1        2 0.35170630E+00 0.32956232E+03</pdfrwt>
<totfact> 0.23946754E+02</totfact>
</mgrwt>
</event>
<event>
 5    0  0.4115852E+000  0.3294065E+03  0.7546771E-02  0.1071400E+00
          1   -1    0    0  502    0 -0.00000000000E+00  0.00000000000E+00  0.54707095250E+03  0.54707095250E+03  0.00000000000E+00 0.  1.
         21   -1    0    0  503  502  0.00000000000E+00 -0.00000000000E+00 -0.98253753414E+03  0.98253753414E+03  0.00000000000E+00 0.  1.
         25    1    1    2    0    0 -0.24728736020E+03 -0.25877341784E+02  0.14474657928E+03  0.31368335554E+03  0.12500000000E+03 0.  0.
         21    1    1    2  503  501 -0.12770636003E+03 -0.65313189500E+02 -0.77183351785E+03  0.78504885606E+03  0.00000000000E+00 0.  1.
          1    1    1    2  501    0  0.37499372023E+03  0.91190531283E+02  0.19162035693E+03  0.43087627504E+03  0.00000000000E+00 0.  1.
<mgrwt>
<rscale>  4 0.32940651E+03</rscale>
<asrwt>0</asrwt>
<pdfrwt beam="1">  1       21 0.15115962E+00 0.32940651E+03</pdfrwt>
<pdfrwt beam="2">  1        1 0.84164764E-01 0.32940651E+03</pdfrwt>
<totfact> 0.11856549E+02</totfact>
</mgrwt>
</event>
<event>
 5    0  0.4115852E+000  0.2958633E+03  0.7546771E-02  0.1087327E+00
          1   -1    0    0  502    0 -0.00000000000E+00  0.00000000000E+00  0.17449946224E+04  0.17449946224E+04  0.00000000000E+00 0. -1.
         21   -1    0    0  503  502  0.00000000000E+00 -0.00000000000E+00 -0.72299284831E+02  0.72299284831E+02  0.00000000000E+00 0. -1.
         25    1    1    2    0    0  0.13161854668E+02  0.23366186049E+03  0.57992977302E+03  0.63774182950E+03  0.12500000000E+03 0.  0.
         21    1    1    2  503  501 -0.92573173892E+02  0.69354572439E+02  0.44841203356E+03  0.46309092097E+03  0.00000000000E+00 0. -1.
          1    1    1    2  501    0  0.79411319224E+02 -0.30301643293E+03  0.64435353102E+03  0.71646115679E+03  0.00000000000E+00 0. -1.
<mgrwt>
<rscale>  4 0.29586326E+03</rscale>
<asrwt>0</asrwt>
<pdfrwt beam="1">  1       21 0.11122968E-01 0.29586326E+03</pdfrwt>
<pdfrwt beam="2">  1        1 0.26846068E+00 0.29586326E+03</pdfrwt>
<totfact> 0.36332531E+03</totfact>
</mgrwt>
</event>
<event>
 5    0  0.4115852E+000  0.2249696E+03  0.7546771E-02  0.1130231E+00
         -1   -1    0    0    0  501 -0.00000000000E+00  0.00000000000E+00  0.16549900187E+04  0.16549900187E+04  0.00000000000E+00 0. -1.
         21   -1    0    0  501  502  0.00000000000E+00 -0.00000000000E+00 -0.19719306016E+03  0.19719306016E+03  0.00000000000E+00 0.  1.
         25    1    1    2    0    0 -0.23492178142E+03 -0.31027077646E+02  0.97965790745E+03  0.10156306113E+04  0.12500000000E+03 0.  0.
         21    1    1    2  503  502  0.78537800748E+02 -0.23348675059E+01 -0.16023170543E+03  0.17845962338E+03  0.00000000000E+00 0.  1.
         -1    1    1    2    0  503  0.15638398067E+03  0.33361945152E+02  0.63837075649E+03  0.65809284417E+03  0.00000000000E+00 0. -1.
<mgrwt>
<rscale>  4 0.22496964E+03</rscale>
<asrwt>0</asrwt>
<pdfrwt beam="1">  1       21 0.30337395E-01 0.22496964E+03</pdfrwt>
<pdfrwt beam="2">  1       -1 0.25461384E+00 0.22496964E+03</pdfrwt>
<totfact> 0.72622581E+01</totfact>
</mgrwt>
</event>
<event>
 5    0  0.4115852E+000  0.1775400E+03  0.7546771E-02  0.1170205E+00
         -3   -1    0    0    0  501 -0.00000000000E+00  0.00000000000E+00  0.27355145573E+04  0.27355145573E+04  0.00000000000E+00 0.  1.
         21   -1    0    0  501  502  0.00000000000E+00 -0.00000000000E+00 -0.75796771851E+03  0.75796771851E+03  0.00000000000E+00 0. -1.
         25    1    1    2    0    0  0.77172006810E+02 -0.18578252389E+03  0.15544466666E+04  0.15723867540E+04  0.12500000000E+03 0.  0.
         21    1    1    2  503  502 -0.65154024880E+02  0.10764882406E+03 -0.74236439519E+03  0.75295299424E+03  0.00000000000E+00 0. -1.
         -3    1    1    2    0  503 -0.12017981930E+02  0.78133699837E+02  0.11654645674E+04  0.11681425276E+04  0.00000000000E+00 0.  1.
<mgrwt>
<rscale>  4 0.17753998E+03</rscale>
<asrwt>0</asrwt>
<pdfrwt beam="1">  1       21 0.11661042E+00 0.17753998E+03</pdfrwt>
<pdfrwt beam="2">  1       -3 0.42084839E+00 0.17753998E+03</pdfrwt>
<totfact> 0.29307217E-01</totfact>
</mgrwt>
</event>
<event>
 5    0  0.4115852E+000  0.2266886E+03  0.7546771E-02  0.1128992E+00
         21   -1    0    0  503  502  0.00000000000E+00  0.00000000000E+00  0.93062624626E+02  0.93062624626E+02  0.00000000000E+00 0.  1.
          1   -1    0    0  502    0 -0.00000000000E+00 -0.00000000000E+00 -0.13539696642E+04  0.13539696642E+04  0.00000000000E+00 0.  1.
         25    1    1    2    0    0  0.71086229844E+02  0.18811019565E+03 -0.68612351484E+03  0.72582999070E+03  0.12500000000E+03 0.  0.
         21    1    1    2  503  501 -0.25552581990E+02 -0.12088445749E+02  0.57082430485E+02  0.63698264003E+02  0.00000000000E+00 0.  1.
          1    1    1    2  501    0 -0.45533647854E+02 -0.17602174990E+03 -0.63186595525E+03  0.65750403416E+03  0.00000000000E+00 0.  1.
<mgrwt>
<rscale>  4 0.22668855E+03</rscale>
<asrwt>0</asrwt>
<pdfrwt beam="1">  1       21 0.14317328E-01 0.22668855E+03</pdfrwt>
<pdfrwt beam="2">  1        1 0.20830301E+00 0.22668855E+03</pdfrwt>
<totfact> 0.42764056E+03</totfact>
</mgrwt>
</event>
<event>
 5    0  0.4115852E+000  0.3412857E+03  0.7546771E-02  0.1066250E+00
         21   -1    0    0  503  502  0.00000000000E+00  0.00000000000E+00  0.50768139380E+03  0.50768139380E+03  0.00000000000E+00 0. -1.
          2   -1    0    0  502    0 -0.00000000000E+00 -0.00000000000E+00 -0.27271704473E+04  0.27271704473E+04  0.00000000000E+00 0. -1.
         25    1    1    2    0    0  0.29281956254E+03 -0.17867628128E+03  0.33520619105E+03  0.49563767029E+03  0.12500000000E+03 0.  0.
         21    1    1    2  503  501 -0.22183115628E+02  0.13638343708E+02  0.80713477424E+02  0.84810143709E+02  0.00000000000E+00 0. -1.
          2    1    1    2  501    0 -0.27063644691E+03  0.16503793757E+03 -0.26354087220E+04  0.26544040271E+04  0.00000000000E+00 0. -1.
<mgrwt>
<rscale>  4 0.34128572E+03</rscale>
<asrwt>0</asrwt>
<pdfrwt beam="1">  1       21 0.78104829E-01 0.34128572E+03</pdfrwt>
<pdfrwt beam="2">  1        2 0.41956469E+00 0.34128572E+03</pdfrwt>
<totfact> 0.50352206E+01</totfact>
</mgrwt>
</event>
<event>
 5    0  0.4115852E+000  0.3301117E+03  0.7546771E-02  0.1071087E+00
         21   -1    0    0  503  502  0.00000000000E+00  0.00000000000E+00  0.57420197646E+03  0.57420197646E+03  0.00000000000E+00 0.  1.
          1   -1    0    0  502    0 -0.00000000000E+00 -0.00000000000E+00 -0.10151885779E+04  0.10151885779E+04  0.00000000000E+00 0.  1.
         25    1    1    2    0    0 -0.26581913479E+03 -0.12946751071E+03  0.13776608543E+03  0.34932240559E+03  0.12500000000E+03 0.  0.
         21    1    1    2  503  501 -0.11704463648E+01 -0.21325023768E+02  0.30442605645E+03  0.30517429516E+03  0.00000000000E+00 0.  1.
          1    1    1    2  501    0  0.26698958115E+03  0.15079253448E+03 -0.88317874330E+03  0.93489385361E+03  0.00000000000E+00 0.  1.
<mgrwt>
<rscale>  4 0.33011173E+03</rscale>
<asrwt>0</asrwt>
<pdfrwt beam="1">  1       21 0.88338766E-01 0.33011173E+03</pdfrwt>
<pdfrwt beam="2">  1        1 0.15618286E+00 0.33011173E+03</pdfrwt>
<totfact> 0.17659097E+02</totfact>
</mgrwt>
</event>
<event>
 5    0  0.4115852E+000  0.4013258E+03  0.7546771E-02  0.1043322E+00
         21   -1    0    0  503  502  0.00000000000E+00  0.00000000000E+00  0.36636341112E+03  0.36636341112E+03  0.00000000000E+00 0.  1.
          2   -1    0    0  502    0 -0.00000000000E+00 -0.00000000000E+00 -0.79470928278E+03  0.79470928278E+03  0.00000000000E+00 0.  1.
         25    1    1    2    0    0 -0.19185350850E+03  0.35297334563E+03  0.12976274642E+03  0.44029685646E+03  0.12500000000E+03 0.  0.
         21    1    1    2  503  501  0.27607597589E+02 -0.13192860648E+02  0.15383848750E+02  0.34247537416E+02  0.00000000000E+00 0. -1.
          2    1    1    2  501    0  0.16424591091E+03 -0.33978048499E+03 -0.57349246683E+03  0.68652830003E+03  0.00000000000E+00 0.  1.
<mgrwt>
<rscale>  4 0.40132576E+03</rscale>
<asrwt>0</asrwt>
<pdfrwt beam="1">  1       21 0.56363602E-01 0.40132576E+03</pdfrwt>
<pdfrwt beam="2">  1        2 0.12226297E+00 0.40132576E+03</pdfrwt>
<totfact> 0.12398268E+03</totfact>
</mgrwt>
</event>
<event>
 5    0  0.4115852E+000  0.2333351E+03  0.7546771E-02  0.1124314E+00
         -1   -1    0    0    0  501 -0.00000000000E+00  0.00000000000E+00  0.22637991298E+03  0.22637991298E+03  0.00000000000E+00 0. -1.
         21   -1    0    0  501  502  0.00000000000E+00 -0.00000000000E+00 -0.33642154523E+03  0.33642154523E+03  0.00000000000E+00 0. -1.
         25    1    1    2    0    0  0.85919574045E+02  0.20422045480E+03 -0.14715859452E+03  0.29388572491E+03  0.12500000000E+03 0.  0.
         21    1    1    2  503  502  0.86501772812E+01 -0.38911177570E+02 -0.46217962727E+02  0.61032822198E+02  0.00000000000E+00 0.  1.
         -1    1    1    2    0  503 -0.94569751326E+02 -0.16530927723E+03  0.83334925001E+02  0.20788291111E+03  0.00000000000E+00 0. -1.
<mgrwt>
<rscale>  4 0.23333514E+03</rscale>
<asrwt>0</asrwt>
<pdfrwt beam="1">  1       21 0.51757160E-01 0.23333514E+03</pdfrwt>
<pdfrwt beam="2">  1       -1 0.34827679E-01 0.23333514E+03</pdfrwt>
<totfact> 0.25357671E+03</totfact>
</mgrwt>
</event>
<event>
 5    0  0.4115852E+000  0.3005483E+03  0.7546771E-02  0.1084967E+00
          1   -1    0    0  502    0 -0.00000000000E+00  0.00000000000E+00  0.10396864269E+04  0.10396864269E+04  0.00000000000E+00 0.  1.
         21   -1    0    0  503  502  0.00000000000E+00 -0.00000000000E+00 -0.13423581623E+03  0.13423581623E+03  0.00000000000E+00 0.  1.
         25    1    1    2    0    0 -0.27821464247E+03 -0.28506874220E+01  0.79708074609E+03  0.85344843400E+03  0.12500000000E+03 0.  0.
         21    1    1    2  503  501  0.19576483084E+02 -0.20665375261E+02 -0.15859487742E+02  0.32585576196E+02  0.00000000000E+00 0. -1.
          1    1    1    2  501    0  0.25863815939E+03  0.23516062683E+02  0.12422935234E+03  0.28788823296E+03  0.00000000000E+00 0.  1.
<mgrwt>
<rscale>  4 0.30054827E+03</rscale>
<asrwt>0</asrwt>
<pdfrwt beam="1">  1       21 0.20651665E-01 0.30054827E+03</pdfrwt>
<pdfrwt beam="2">  1        1 0.15995175E+00 0.30054827E+03</pdfrwt>
<totfact> 0.35185100E+03</totfact>
</mgrwt>
</event>
<event>
 5    0  0.4115852E+000  0.2348151E+03  0.7546771E-02  0.1123296E+00
          2   -1    0    0  502    0 -0.00000000000E+00  0.00000000000E+00  0.11035413242E+04  0.11035413242E+04  0.00000000000E+00 0. -1.
         21   -1    0    0  503  502  0.00000000000E+00 -0.00000000000E+00 -0.11810701943E+04  0.11810701943E+04  0.00000000000E+00 0.  1.
         25    1    1    2    0    0 -0.23596649720E+03 -0.67490949740E+02 -0.10552745176E+04  0.10906257486E+04  0.12500000000E+03 0.  0.
         21    1    1    2  503  501  0.49450659581E+02 -0.10755493124E+00 -0.92832099284E+02  0.10518164269E+03  0.00000000000E+00 0. -1.
          2    1    1    2  501    0  0.18651583762E+03  0.67598504671E+02  0.10705777468E+04  0.10888041272E+04  0.00000000000E+00 0. -1.
<mgrwt>
<rscale>  4 0.23481509E+03</rscale>
<asrwt>0</asrwt>
<pdfrwt beam="1">  1       21 0.18170311E+00 0.23481509E+03</pdfrwt>
<pdfrwt beam="2">  1        2 0.16977559E+00 0.23481509E+03</pdfrwt>
<totfact> 0.49212747E+01</totfact>
</mgrwt>
</event>
<event>
 5    0  0.4115852E+000  0.2160563E+03  0.7546771E-02  0.1136858E+00
         21   -1    0    0  501  502  0.00000000000E+00  0.00000000000E+00  0.66041625557E+02  0.66041625557E+02  0.00000000000E+00 0.  1.
         -1   -1    0    0    0  501 -0.00000000000E+00 -0.00000000000E+00 -0.12336208643E+04  0.12336208643E+04  0.00000000000E+00 0.  1.
         25    1    1    2    0    0 -0.12801882815E+03 -0.16561022171E+03 -0.51999563132E+03  0.57431352282E+03  0.12500000000E+03 0.  0.
         21    1    1    2  503  502 -0.54194775427E+01  0.67795697574E+02 -0.12605669193E+02  0.69170298844E+02  0.00000000000E+00 0. -1.
         -1    1    1    2    0  503  0.13343830569E+03  0.97814524139E+02 -0.63497793819E+03  0.65617866816E+03  0.00000000000E+00 0.  1.
<mgrwt>
<rscale>  4 0.21605629E+03</rscale>
<asrwt>0</asrwt>
<pdfrwt beam="1">  1       21 0.10160251E-01 0.21605629E+03</pdfrwt>
<pdfrwt beam="2">  1       -1 0.18978780E+00 0.21605629E+03</pdfrwt>
<totfact> 0.14582555E+03</totfact>
</mgrwt>
</event>
<event>
 5    0  0.4115852E+000  0.2853540E+03  0.7546771E-02  0.1092800E+00
         21   -1    0    0  503  502  0.00000000000E+00  0.00000000000E+00  0.52338729394E+02  0.52338729394E+02  0.00000000000E+00 0. -1.
          2   -1    0    0  502    0 -0.00000000000E+00 -0.00000000000E+00 -0.15501275608E+04  0.15501275608E+04  0.00000000000E+00 0. -1.
         25    1    1    2    0    0  0.21649217588E+03 -0.11040774470E+03 -0.67569915983E+03  0.72887110445E+03  0.12500000000E+03 0.  0.
         21    1    1    2  503  501  0.20380526777E+02 -0.14774870498E+02 -0.44260686275E+02  0.50918277853E+02  0.00000000000E+00 0. -1.
          2    1    1    2  501    0 -0.23687270265E+03  0.12518261520E+03 -0.77782898535E+03  0.82267690794E+03  0.00000000000E+00 0. -1.
<mgrwt>
<rscale>  4 0.28535400E+03</rscale>
<asrwt>0</asrwt>
<pdfrwt beam="1">  1       21 0.80521128E-02 0.28535400E+03</pdfrwt>
<pdfrwt beam="2">  1        2 0.23848115E+00 0.28535400E+03</pdfrwt>
<totfact> 0.19129140E+04</totfact>
</mgrwt>
</event>
<event>
 5    0  0.4115852E+000  0.3114240E+03  0.7546771E-02  0.1079665E+00
          1   -1    0    0  502    0 -0.00000000000E+00  0.00000000000E+00  0.75445941024E+03  0.75445941024E+03  0.00000000000E+00 0. -1.
         21   -1    0    0  503  502  0.00000000000E+00 -0.00000000000E+00 -0.33745960042E+03  0.33745960042E+03  0.00000000000E+00 0. -1.
         25    1    1    2    0    0  0.30511603887E+03 -0.31888192997E+02 -0.17206296699E+03  0.37328717985E+03  0.12500000000E+03 0.  0.
         21    1    1    2  503  501 -0.23551324845E+02  0.54157791819E+01 -0.29708216468E+02  0.38295870428E+02  0.00000000000E+00 0. -1.
          1    1    1    2  501    0 -0.28156471403E+03  0.26472413815E+02  0.61877099327E+03  0.68033596038E+03  0.00000000000E+00 0. -1.
<mgrwt>
<rscale>  4 0.31142399E+03</rscale>
<asrwt>0</asrwt>
<pdfrwt beam="1">  1       21 0.51916862E-01 0.31142399E+03</pdfrwt>
<pdfrwt beam="2">  1        1 0.11607068E+00 0.31142399E+03</pdfrwt>
<totfact> 0.93997396E+02</totfact>
</mgrwt>
</event>
<event>
 5    0  0.4115852E+000  0.3057490E+03  0.7546771E-02  0.1082402E+00
         21   -1    0    0  503  502  0.00000000000E+00  0.00000000000E+00  0.39256769991E+03  0.39256769991E+03  0.00000000000E+00 0. -1.
          2   -1    0    0  502    0 -0.00000000000E+00 -0.00000000000E+00 -0.11737463882E+04  0.11737463882E+04  0.00000000000E+00 0. -1.
         25    1    1    2    0    0 -0.26037985024E+03  0.20035846158E+03  0.83071054878E+02  0.36120213135E+03  0.12500000000E+03 0.  0.
         21    1    1    2  503  501  0.46225706862E+02 -0.27926261506E+02  0.14728617056E+03  0.15687545409E+03  0.00000000000E+00 0. -1.
          2    1    1    2  501    0  0.21415414338E+03 -0.17243220007E+03 -0.10115359137E+04  0.10482365026E+04  0.00000000000E+00 0. -1.
<mgrwt>
<rscale>  4 0.30574902E+03</rscale>
<asrwt>0</asrwt>
<pdfrwt beam="1">  1       21 0.60395031E-01 0.30574902E+03</pdfrwt>
<pdfrwt beam="2">  1        2 0.18057637E+00 0.30574902E+03</pdfrwt>
<totfact> 0.63524996E+02</totfact>
</mgrwt>
</event>
<event>
 5    0  0.4115852E+000  0.5076993E+03  0.7546771E-02  0.1011789E+00
         21   -1    0    0  501  502  0.00000000000E+00  0.00000000000E+00  0.24197542998E+04  0.24197542998E+04  0.00000000000E+00 0. -1.
         -2   -1    0    0    0  501 -0.00000000000E+00 -0.00000000000E+00 -0.15913957783E+03  0.15913957783E+03  0.00000000000E+00 0.  1.
         25    1    1    2    0    0  0.51623613448E+03 -0.49730051816E+02  0.13838589888E+04  0.14831262675E+04  0.12500000000E+03 0.  0.
         21    1    1    2  503  502 -0.39668510595E+02 -0.24810075078E+02  0.44787728558E+03  0.45031454951E+03  0.00000000000E+00 0.  1.
         -2    1    1    2    0  503 -0.47656762388E+03  0.74540126894E+02  0.42887844768E+03  0.64545306068E+03  0.00000000000E+00 0.  1.
<mgrwt>
<rscale>  4 0.50769928E+03</rscale>
<asrwt>0</asrwt>
<pdfrwt beam="1">  1       21 0.37226987E+00 0.50769928E+03</pdfrwt>
<pdfrwt beam="2">  1       -2 0.24483014E-01 0.50769928E+03</pdfrwt>
<totfact> 0.11721781E+01</totfact>
</mgrwt>
</event>
<event>
 5    0  0.4115852E+000  0.2743549E+03  0.7546771E-02  0.1098813E+00
          2   -1    0    0  502    0 -0.00000000000E+00  0.00000000000E+00  0.99402796139E+03  0.99402796139E+03  0.00000000000E+00 0.  1.
         21   -1    0    0  503  502  0.00000000000E+00 -0.00000000000E+00 -0.16312862104E+03  0.16312862104E+03  0.00000000000E+00 0.  1.
         25    1    1    2    0    0  0.67919707733E+01 -0.30886972999E+03  0.20042146989E+03  0.38889639567E+03  0.12500000000E+03 0.  0.
         21    1    1    2  503  501  0.13730611749E+03  0.16861795504E+03  0.21060740482E+03  0.30272175942E+03  0.00000000000E+00 0.  1.
          2    1    1    2  501    0 -0.14409808826E+03  0.14025177495E+03  0.41987046564E+03  0.46553842734E+03  0.00000000000E+00 0.  1.
<mgrwt>
<rscale>  4 0.27435486E+03</rscale>
<asrwt>0</asrwt>
<pdfrwt beam="1">  1       21 0.25096711E-01 0.27435486E+03</pdfrwt>
<pdfrwt beam="2">  1        2 0.15292738E+00 0.27435486E+03</pdfrwt>
<totfact> 0.49229366E+03</totfact>
</mgrwt>
</event>
<event>
 5    0  0.4115852E+000  0.2242497E+03  0.7546771E-02  0.1130754E+00
          2   -1    0    0  502    0 -0.00000000000E+00  0.00000000000E+00  0.21135650193E+03  0.21135650193E+03  0.00000000000E+00 0. -1.
         21   -1    0    0  503  502  0.00000000000E+00 -0.00000000000E+00 -0.32291263460E+03  0.32291263460E+03  0.00000000000E+00 0. -1.
         25    1    1    2    0    0  0.10715510928E+03  0.19085742672E+03 -0.10728312951E+03  0.27394058600E+03  0.12500000000E+03 0.  0.
         21    1    1    2  503  501 -0.20237301474E+02 -0.38622704730E+02 -0.61974083484E+02  0.75776307084E+02  0.00000000000E+00 0. -1.
          2    1    1    2  501    0 -0.86917807804E+02 -0.15223472199E+03  0.57701080333E+02  0.18455224345E+03  0.00000000000E+00 0. -1.
<mgrwt>
<rscale>  4 0.22424973E+03</rscale>
<asrwt>0</asrwt>
<pdfrwt beam="1">  1       21 0.49678867E-01 0.22424973E+03</pdfrwt>
<pdfrwt beam="2">  1        2 0.32516385E-01 0.22424973E+03</pdfrwt>
<totfact> 0.75798404E+03</totfact>
</mgrwt>
</event>
<event>
 5    0  0.4115852E+000  0.1826526E+03  0.7546771E-02  0.1165260E+00
         21   -1    0    0  501  502  0.00000000000E+00  0.00000000000E+00  0.66525900754E+03  0.66525900754E+03  0.00000000000E+00 0.  1.
         -2   -1    0    0    0  501 -0.00000000000E+00 -0.00000000000E+00 -0.89874907054E+03  0.89874907054E+03  0.00000000000E+00 0.  1.
         25    1    1    2    0    0  0.21280701574E+03 -0.11472191426E+03 -0.43931887271E+03  0.51679204278E+03  0.12500000000E+03 0.  0.
         21    1    1    2  503  502 -0.83238117589E+02  0.10224572063E+03  0.60923036462E+03  0.62333330473E+03  0.00000000000E+00 0.  1.
         -2    1    1    2    0  503 -0.12956889815E+03  0.12476193635E+02 -0.40340155491E+03  0.42388273057E+03  0.00000000000E+00 0.  1.
<mgrwt>
<rscale>  4 0.18265262E+03</rscale>
<asrwt>0</asrwt>
<pdfrwt beam="1">  1       21 0.10234754E+00 0.18265262E+03</pdfrwt>
<pdfrwt beam="2">  1       -2 0.13826909E+00 0.18265262E+03</pdfrwt>
<totfact> 0.25259312E+01</totfact>
</mgrwt>
</event>
<event>
 5    0  0.4115852E+000  0.2755018E+03  0.7546771E-02  0.1098171E+00
          2   -1    0    0  502    0 -0.00000000000E+00  0.00000000000E+00  0.27471201521E+04  0.27471201521E+04  0.00000000000E+00 0. -1.
         21   -1    0    0  503  502  0.00000000000E+00 -0.00000000000E+00 -0.78968905121E+02  0.78968905121E+02  0.00000000000E+00 0. -1.
         25    1    1    2    0    0 -0.21353056097E+03 -0.11834213653E+03  0.25286329504E+03  0.37304826460E+03  0.12500000000E+03 0.  0.
         21    1    1    2  503  501  0.28347017372E+03 -0.62686290571E+01  0.14825102694E+04  0.15093811096E+04  0.00000000000E+00 0. -1.
          2    1    1    2  501    0 -0.69939612753E+02  0.12461076559E+03  0.93277768255E+03  0.94365968304E+03  0.00000000000E+00 0. -1.
<mgrwt>
<rscale>  4 0.27550181E+03</rscale>
<asrwt>0</asrwt>
<pdfrwt beam="1">  1       21 0.12149064E-01 0.27550181E+03</pdfrwt>
<pdfrwt beam="2">  1        2 0.42263380E+00 0.27550181E+03</pdfrwt>
<totfact> 0.20977184E+03</totfact>
</mgrwt>
</event>
<event>
 5    0  0.4115852E+000  0.2524660E+03  0.7546771E-02  0.1111756E+00
          2   -1    0    0  502    0 -0.00000000000E+00  0.00000000000E+00  0.65718410083E+03  0.65718410083E+03  0.00000000000E+00 0.  1.
         21   -1    0    0  503  502  0.00000000000E+00 -0.00000000000E+00 -0.15876709932E+03  0.15876709932E+03  0.00000000000E+00 0.  1.
         25    1    1    2    0    0  0.83825994499E+02 -0.20752778993E+03  0.17576383910E+02  0.25696013352E+03  0.12500000000E+03 0.  0.
         21    1    1    2  503  501 -0.22377667802E+02 -0.23159667437E+01 -0.76775797125E+01  0.23771178945E+02  0.00000000000E+00 0.  1.
          2    1    1    2  501    0 -0.61448326698E+02  0.20984375667E+03  0.48851819731E+03  0.53521988768E+03  0.00000000000E+00 0.  1.
<mgrwt>
<rscale>  4 0.25246596E+03</rscale>
<asrwt>0</asrwt>
<pdfrwt beam="1">  1       21 0.24425708E-01 0.25246596E+03</pdfrwt>
<pdfrwt beam="2">  1        2 0.10110524E+00 0.25246596E+03</pdfrwt>
<totfact> 0.88920566E+03</totfact>
</mgrwt>
</event>
<event>
 5    0  0.4115852E+000  0.3851034E+03  0.7546771E-02  0.1050328E+00
         21   -1    0    0  501  502  0.00000000000E+00  0.00000000000E+00  0.17175677180E+03  0.17175677180E+03  0.00000000000E+00 0.  1.
         -2   -1    0    0    0  501 -0.00000000000E+00 -0.00000000000E+00 -0.89503568795E+03  0.89503568795E+03  0.00000000000E+00 0.  1.
         25    1    1    2    0    0 -0.34973693227E+03  0.54942099526E+01 -0.21527411764E+03  0.42931812664E+03  0.12500000000E+03 0.  0.
         21    1    1    2  503  502  0.96674199779E+02 -0.53197486679E+02 -0.74135033880E+02  0.13293561126E+03  0.00000000000E+00 0.  1.
         -2    1    1    2    0  503  0.25306273249E+03  0.47703276726E+02 -0.43386976463E+03  0.50453872185E+03  0.00000000000E+00 0.  1.
<mgrwt>
<rscale>  4 0.38164235E+03</rscale>
<asrwt>0</asrwt>
<pdfrwt beam="1">  1       21 0.26424118E-01 0.38510343E+03</pdfrwt>
<pdfrwt beam="2">  1       -2 0.13769780E+00 0.38510343E+03</pdfrwt>
<totfact> 0.42061037E+02</totfact>
</mgrwt>
</event>
<event>
 5    0  0.4115852E+000  0.2662291E+03  0.7546771E-02  0.1103457E+00
         21   -1    0    0  501  502  0.00000000000E+00  0.00000000000E+00  0.11121012289E+03  0.11121012289E+03  0.00000000000E+00 0. -1.
         -1   -1    0    0    0  501 -0.00000000000E+00 -0.00000000000E+00 -0.75463977264E+03  0.75463977264E+03  0.00000000000E+00 0. -1.
         25    1    1    2    0    0 -0.19563527289E+03  0.14933930708E+03 -0.27598771501E+03  0.39034549757E+03  0.12500000000E+03 0.  0.
         21    1    1    2  503  502 -0.42691527363E+01 -0.36400156128E+02  0.59882826673E+01  0.37135650803E+02  0.00000000000E+00 0. -1.
         -1    1    1    2    0  503  0.19990442563E+03 -0.11293915095E+03 -0.37343021741E+03  0.43836874715E+03  0.00000000000E+00 0. -1.
<mgrwt>
<rscale>  4 0.26622909E+03</rscale>
<asrwt>0</asrwt>
<pdfrwt beam="1">  1       21 0.17109250E-01 0.26622909E+03</pdfrwt>
<pdfrwt beam="2">  1       -1 0.11609842E+00 0.26622909E+03</pdfrwt>
<totfact> 0.20343851E+03</totfact>
</mgrwt>
</event>
<event>
 5    0  0.4115852E+000  0.2946489E+03  0.7546771E-02  0.1087947E+00
          2   -1    0    0  502    0 -0.00000000000E+00  0.00000000000E+00  0.32386973789E+04  0.32386973789E+04  0.00000000000E+00 0.  1.
         21   -1    0    0  503  502  0.00000000000E+00 -0.00000000000E+00 -0.32535574077E+02  0.32535574077E+02  0.00000000000E+00 0. -1.
         25    1    1    2    0    0 -0.19462344827E+03 -0.17151989343E+03  0.99520118913E+03  0.10360249839E+04  0.12500000000E+03 0.  0.
         21    1    1    2  503  501 -0.30858343896E+02  0.21775736657E+02  0.98772277122E+02  0.10574678635E+03  0.00000000000E+00 0. -1.
          2    1    1    2  501    0  0.22548179216E+03  0.14974415677E+03  0.21121883386E+04  0.21294611827E+04  0.00000000000E+00 0.  1.
<mgrwt>
<rscale>  4 0.29464893E+03</rscale>
<asrwt>0</asrwt>
<pdfrwt beam="1">  1       21 0.50054755E-02 0.29464893E+03</pdfrwt>
<pdfrwt beam="2">  1        2 0.49826088E+00 0.29464893E+03</pdfrwt>
<totfact> 0.50337574E+03</totfact>
</mgrwt>
</event>
<event>
 5    0  0.4115852E+000  0.2568276E+03  0.7546771E-02  0.1109064E+00
          2   -1    0    0  502    0 -0.00000000000E+00  0.00000000000E+00  0.31013041758E+03  0.31013041758E+03  0.00000000000E+00 0. -1.
         21   -1    0    0  503  502  0.00000000000E+00 -0.00000000000E+00 -0.21490175169E+03  0.21490175169E+03  0.00000000000E+00 0. -1.
         25    1    1    2    0    0  0.10752504259E+02  0.21688530538E+03  0.82882399877E+02  0.26391162204E+03  0.12500000000E+03 0.  0.
         21    1    1    2  503  501  0.15065455845E+02  0.14449073283E+02 -0.16447721236E+02  0.26575763628E+02  0.00000000000E+00 0. -1.
          2    1    1    2  501    0 -0.25817960104E+02 -0.23133437866E+03  0.28793987253E+02  0.23454478360E+03  0.00000000000E+00 0. -1.
<mgrwt>
<rscale>  4 0.25682764E+03</rscale>
<asrwt>0</asrwt>
<pdfrwt beam="1">  1       21 0.33061808E-01 0.25682764E+03</pdfrwt>
<pdfrwt beam="2">  1        2 0.47712372E-01 0.25682764E+03</pdfrwt>
<totfact> 0.11386585E+04</totfact>
</mgrwt>
</event>
<event>
 5    0  0.4115852E+000  0.2449589E+03  0.7546771E-02  0.1116533E+00
          2   -1    0    0  502    0 -0.00000000000E+00  0.00000000000E+00  0.49858437725E+03  0.49858437725E+03  0.00000000000E+00 0.  1.
         21   -1    0    0  503  502  0.00000000000E+00 -0.00000000000E+00 -0.23983922210E+03  0.23983922210E+03  0.00000000000E+00 0.  1.
         25    1    1    2    0    0 -0.24689313995E+03 -0.68147168503E+02  0.11027220208E+03  0.30558995023E+03  0.12500000000E+03 0.  0.
         21    1    1    2  503  501  0.57320884851E+02  0.22454441127E+02 -0.99724301024E+02  0.11719565684E+03  0.00000000000E+00 0.  1.
          2    1    1    2  501    0  0.18957225510E+03  0.45692727377E+02  0.24819725409E+03  0.31563799228E+03  0.00000000000E+00 0.  1.
<mgrwt>
<rscale>  4 0.24495891E+03</rscale>
<asrwt>0</asrwt>
<pdfrwt beam="1">  1       21 0.36898342E-01 0.24495891E+03</pdfrwt>
<pdfrwt beam="2">  1        2 0.76705288E-01 0.24495891E+03</pdfrwt>
<totfact> 0.54541768E+03</totfact>
</mgrwt>
</event>
<event>
 5    0  0.4115852E+000  0.2705414E+03  0.7546771E-02  0.1100970E+00
          2   -1    0    0  502    0 -0.00000000000E+00  0.00000000000E+00  0.31491621306E+04  0.31491621306E+04  0.00000000000E+00 0. -1.
         21   -1    0    0  503  502  0.00000000000E+00 -0.00000000000E+00 -0.48875437932E+02  0.48875437932E+02  0.00000000000E+00 0. -1.
         25    1    1    2    0    0  0.19861112001E+03  0.17371811221E+03  0.48750352312E+03  0.56825086411E+03  0.12500000000E+03 0.  0.
         21    1    1    2  503  501 -0.20870558007E+02 -0.17415360012E+02  0.57899507623E+02  0.63962707407E+02  0.00000000000E+00 0. -1.
          2    1    1    2  501    0 -0.17774056200E+03 -0.15630275220E+03  0.25548836619E+04  0.25658239970E+04  0.00000000000E+00 0. -1.
<mgrwt>
<rscale>  4 0.27054138E+03</rscale>
<asrwt>0</asrwt>
<pdfrwt beam="1">  1       21 0.75193006E-02 0.27054138E+03</pdfrwt>
<pdfrwt beam="2">  1        2 0.48448632E+00 0.27054138E+03</pdfrwt>
<totfact> 0.28601012E+03</totfact>
</mgrwt>
</event>
<event>
 5    0  0.4115852E+000  0.3039504E+03  0.7546771E-02  0.1083282E+00
          2   -1    0    0  502    0 -0.00000000000E+00  0.00000000000E+00  0.39432676897E+03  0.39432676897E+03  0.00000000000E+00 0.  1.
         21   -1    0    0  503  502  0.00000000000E+00 -0.00000000000E+00 -0.40636810500E+03  0.40636810500E+03  0.00000000000E+00 0.  1.
         25    1    1    2    0    0  0.27598641040E+03 -0.46937606429E+02  0.16436125428E+03  0.34786672668E+03  0.12500000000E+03 0.  0.
         21    1    1    2  503  501 -0.13482569567E+02 -0.31432737910E+02 -0.17557368245E+03  0.17887401898E+03  0.00000000000E+00 0. -1.
          2    1    1    2  501    0 -0.26250384084E+03  0.78370344339E+02 -0.82890786041E+00  0.27395412830E+03  0.00000000000E+00 0.  1.
<mgrwt>
<rscale>  4 0.30395037E+03</rscale>
<asrwt>0</asrwt>
<pdfrwt beam="1">  1       21 0.62518170E-01 0.30395037E+03</pdfrwt>
<pdfrwt beam="2">  1        2 0.60665657E-01 0.30395037E+03</pdfrwt>
<totfact> 0.23080592E+03</totfact>
</mgrwt>
</event>
<event>
 5    0  0.4115852E+000  0.2534466E+03  0.7546771E-02  0.1111146E+00
         21   -1    0    0  503  502  0.00000000000E+00  0.00000000000E+00  0.10976271197E+03  0.10976271197E+03  0.00000000000E+00 0. -1.
          2   -1    0    0  502    0 -0.00000000000E+00 -0.00000000000E+00 -0.33890616162E+04  0.33890616162E+04  0.00000000000E+00 0. -1.
         25    1    1    2    0    0 -0.40992552742E+02 -0.28958422984E+03 -0.11867936714E+04  0.12286755610E+04  0.12500000000E+03 0.  0.
         21    1    1    2  503  501  0.38149755635E+02  0.85355449298E+02  0.57962775351E+02  0.11000290863E+03  0.00000000000E+00 0. -1.
          2    1    1    2  501    0  0.28427971073E+01  0.20422878054E+03 -0.21504680082E+04  0.21601458586E+04  0.00000000000E+00 0. -1.
<mgrwt>
<rscale>  4 0.25344664E+03</rscale>
<asrwt>0</asrwt>
<pdfrwt beam="1">  1       21 0.16886571E-01 0.25344664E+03</pdfrwt>
<pdfrwt beam="2">  1        2 0.52139409E+00 0.25344664E+03</pdfrwt>
<totfact> 0.47828690E+02</totfact>
</mgrwt>
</event>
<event>
 5    0  0.4115852E+000  0.2962437E+03  0.7546771E-02  0.1087134E+00
          2   -1    0    0  502    0 -0.00000000000E+00  0.00000000000E+00  0.81787669795E+03  0.81787669795E+03  0.00000000000E+00 0. -1.
         21   -1    0    0  503  502  0.00000000000E+00 -0.00000000000E+00 -0.23954927077E+03  0.23954927077E+03  0.00000000000E+00 0. -1.
         25    1    1    2    0    0 -0.36319001319E+03  0.98362334874E+02  0.43549479811E+03  0.58895063782E+03  0.12500000000E+03 0.  0.
         21    1    1    2  503  501  0.16906569450E+03 -0.25676423918E+02 -0.57293477195E+02  0.18034697206E+03  0.00000000000E+00 0. -1.
          2    1    1    2  501    0  0.19412431869E+03 -0.72685910955E+02  0.20012610627E+03  0.28812835884E+03  0.00000000000E+00 0. -1.
<mgrwt>
<rscale>  4 0.29624372E+03</rscale>
<asrwt>0</asrwt>
<pdfrwt beam="1">  1       21 0.36853734E-01 0.29624372E+03</pdfrwt>
<pdfrwt beam="2">  1        2 0.12582718E+00 0.29624372E+03</pdfrwt>
<totfact> 0.29852015E+03</totfact>
</mgrwt>
</event>
<event>
 5    0  0.4115852E+000  0.4405974E+03  0.7546771E-02  0.1030564E+00
          2   -1    0    0  502    0 -0.00000000000E+00  0.00000000000E+00  0.45951810616E+03  0.45951810616E+03  0.00000000000E+00 0. -1.
         21   -1    0    0  503  502  0.00000000000E+00 -0.00000000000E+00 -0.11013875768E+04  0.11013875768E+04  0.00000000000E+00 0. -1.
         25    1    1    2    0    0  0.94309816472E+02  0.51181592993E+03  0.90473334920E+02  0.54282622629E+03  0.12500000000E+03 0.  0.
         21    1    1    2  503  501 -0.91799306026E+02 -0.39680932202E+03 -0.79044376437E+03  0.88920531671E+03  0.00000000000E+00 0. -1.
          2    1    1    2  501    0 -0.25105104457E+01 -0.11500660791E+03  0.58100958833E+02  0.12887413993E+03  0.00000000000E+00 0. -1.
<mgrwt>
<rscale>  4 0.44059743E+03</rscale>
<asrwt>0</asrwt>
<pdfrwt beam="1">  1       21 0.16944424E+00 0.44059743E+03</pdfrwt>
<pdfrwt beam="2">  1        2 0.70695093E-01 0.44059743E+03</pdfrwt>
<totfact> 0.16114915E+02</totfact>
</mgrwt>
</event>
<event>
 5    0  0.4115852E+000  0.3456740E+03  0.7546771E-02  0.1064405E+00
          1   -1    0    0  502    0 -0.00000000000E+00  0.00000000000E+00  0.10435707207E+04  0.10435707207E+04  0.00000000000E+00 0. -1.
         21   -1    0    0  503  502  0.00000000000E+00 -0.00000000000E+00 -0.23568626376E+03  0.23568626376E+03  0.00000000000E+00 0. -1.
         25    1    1    2    0    0  0.34343525480E+03  0.28645446466E+02  0.76853626444E+02  0.37456617004E+03  0.12500000000E+03 0.  0.
         21    1    1    2  503  501 -0.29611665828E+03 -0.21164039289E+02  0.17096817304E+03  0.34258299441E+03  0.00000000000E+00 0. -1.
          1    1    1    2  501    0 -0.47318596523E+02 -0.74814071768E+01  0.56006265742E+03  0.56210781996E+03  0.00000000000E+00 0. -1.
<mgrwt>
<rscale>  4 0.34567404E+03</rscale>
<asrwt>0</asrwt>
<pdfrwt beam="1">  1       21 0.36259426E-01 0.34567404E+03</pdfrwt>
<pdfrwt beam="2">  1        1 0.16054934E+00 0.34567404E+03</pdfrwt>
<totfact> 0.11482494E+03</totfact>
</mgrwt>
</event>
<event>
 5    0  0.4115852E+000  0.4181320E+03  0.7546771E-02  0.1037676E+00
          2   -1    0    0  502    0 -0.00000000000E+00  0.00000000000E+00  0.34035602152E+04  0.34035602152E+04  0.00000000000E+00 0. -1.
         21   -1    0    0  503  502  0.00000000000E+00 -0.00000000000E+00 -0.41970534129E+03  0.41970534129E+03  0.00000000000E+00 0. -1.
         25    1    1    2    0    0 -0.22413282270E+03 -0.40404618907E+03  0.90591753948E+02  0.48715573587E+03  0.12500000000E+03 0.  0.
         21    1    1    2  503  501  0.77990005390E+02  0.36822723303E+02 -0.19994518162E+03  0.21775313900E+03  0.00000000000E+00 0.  1.
          2    1    1    2  501    0  0.14614281731E+03  0.36722346576E+03  0.30932083016E+04  0.31183566816E+04  0.00000000000E+00 0. -1.
<mgrwt>
<rscale>  4 0.41813202E+03</rscale>
<asrwt>0</asrwt>
<pdfrwt beam="1">  1       21 0.64570055E-01 0.41813202E+03</pdfrwt>
<pdfrwt beam="2">  1        2 0.52362463E+00 0.41813202E+03</pdfrwt>
<totfact> 0.28607980E+01</totfact>
</mgrwt>
</event>
<event>
 5    0  0.4115852E+000  0.2797848E+03  0.7546771E-02  0.1095807E+00
          2   -1    0    0  502    0 -0.00000000000E+00  0.00000000000E+00  0.98651929816E+03  0.98651929816E+03  0.00000000000E+00 0. -1.
         21   -1    0    0  503  502  0.00000000000E+00 -0.00000000000E+00 -0.26903862775E+03  0.26903862775E+03  0.00000000000E+00 0. -1.
         25    1    1    2    0    0  0.33739593580E+03 -0.84396013425E+02 -0.63756915729E+02  0.37503153051E+03  0.12500000000E+03 0.  0.
         21    1    1    2  503  501 -0.10761399651E+03  0.99872179260E+01  0.68450391262E+02  0.12792956199E+03  0.00000000000E+00 0. -1.
          2    1    1    2  501    0 -0.22978193929E+03  0.74408795499E+02  0.71278719488E+03  0.75259683341E+03  0.00000000000E+00 0. -1.
<mgrwt>
<rscale>  4 0.27978482E+03</rscale>
<asrwt>0</asrwt>
<pdfrwt beam="1">  1       21 0.41390559E-01 0.27978482E+03</pdfrwt>
<pdfrwt beam="2">  1        2 0.15177220E+00 0.27978482E+03</pdfrwt>
<totfact> 0.18409781E+03</totfact>
</mgrwt>
</event>
<event>
 5    0  0.4115852E+000  0.2568781E+03  0.7546771E-02  0.1109034E+00
         21   -1    0    0  503  502  0.00000000000E+00  0.00000000000E+00  0.30590864418E+03  0.30590864418E+03  0.00000000000E+00 0.  1.
          1   -1    0    0  502    0 -0.00000000000E+00 -0.00000000000E+00 -0.31407306358E+03  0.31407306358E+03  0.00000000000E+00 0.  1.
         25    1    1    2    0    0 -0.22226732296E+03  0.13985221391E+03  0.52739672513E+02  0.29558057725E+03  0.12500000000E+03 0.  0.
         21    1    1    2  503  501  0.96947290902E+02  0.31881008250E+02  0.39531760992E+01  0.10213130520E+03  0.00000000000E+00 0. -1.
          1    1    1    2  501    0  0.12532003206E+03 -0.17173322216E+03 -0.64857268006E+02  0.22226982531E+03  0.00000000000E+00 0.  1.
<mgrwt>
<rscale>  4 0.25687807E+03</rscale>
<asrwt>0</asrwt>
<pdfrwt beam="1">  1       21 0.47062868E-01 0.25687807E+03</pdfrwt>
<pdfrwt beam="2">  1        1 0.48318933E-01 0.25687807E+03</pdfrwt>
<totfact> 0.38334677E+03</totfact>
</mgrwt>
</event>
<event>
 5    0  0.4115852E+000  0.3157741E+03  0.7546771E-02  0.1077611E+00
          4   -1    0    0  502    0 -0.00000000000E+00  0.00000000000E+00  0.51660526130E+03  0.51660526130E+03  0.00000000000E+00 0. -1.
         21   -1    0    0  503  502  0.00000000000E+00 -0.00000000000E+00 -0.75290570937E+03  0.75290570937E+03  0.00000000000E+00 0. -1.
         25    1    1    2    0    0 -0.10363937200E+03  0.29903144471E+03 -0.56983323391E+03  0.66369860541E+03  0.12500000000E+03 0.  0.
         21    1    1    2  503  501 -0.39423032269E+02 -0.48614423756E+02 -0.80043255921E+02  0.10160935237E+03  0.00000000000E+00 0. -1.
          4    1    1    2  501    0  0.14306240427E+03 -0.25041702095E+03  0.41357604175E+03  0.50420301290E+03  0.00000000000E+00 0. -1.
<mgrwt>
<rscale>  4 0.31577407E+03</rscale>
<asrwt>0</asrwt>
<pdfrwt beam="1">  1       21 0.11583165E+00 0.31577407E+03</pdfrwt>
<pdfrwt beam="2">  1        4 0.79477733E-01 0.31577407E+03</pdfrwt>
<totfact> 0.33481347E+01</totfact>
</mgrwt>
</event>
<event>
 5    0  0.4115852E+000  0.1792152E+03  0.7546771E-02  0.1168565E+00
          2   -1    0    0  502    0 -0.00000000000E+00  0.00000000000E+00  0.91406779501E+03  0.91406779501E+03  0.00000000000E+00 0.  1.
         21   -1    0    0  503  502  0.00000000000E+00 -0.00000000000E+00 -0.30806016521E+03  0.30806016521E+03  0.00000000000E+00 0. -1.
         25    1    1    2    0    0  0.12622508430E+03 -0.17362839039E+03  0.30161786288E+03  0.39074022708E+03  0.12500000000E+03 0.  0.
         21    1    1    2  503  501 -0.61140778933E+02  0.76818690358E+02 -0.24804602475E+03  0.26676981919E+03  0.00000000000E+00 0. -1.
          2    1    1    2  501    0 -0.65084305366E+02  0.96809700032E+02  0.55243579168E+03  0.56461791395E+03  0.00000000000E+00 0.  1.
<mgrwt>
<rscale>  4 0.17921525E+03</rscale>
<asrwt>0</asrwt>
<pdfrwt beam="1">  1       21 0.47393872E-01 0.17921525E+03</pdfrwt>
<pdfrwt beam="2">  1        2 0.14062581E+00 0.17921525E+03</pdfrwt>
<totfact> 0.16192220E+03</totfact>
</mgrwt>
</event>
<event>
 5    0  0.4115852E+000  0.7666811E+03  0.7546771E-02  0.9609538E-01
          1   -1    0    0  502    0 -0.00000000000E+00  0.00000000000E+00  0.12077642898E+04  0.12077642898E+04  0.00000000000E+00 0. -1.
         21   -1    0    0  503  502  0.00000000000E+00 -0.00000000000E+00 -0.59498140957E+03  0.59498140957E+03  0.00000000000E+00 0. -1.
         25    1    1    2    0    0 -0.50511571442E+03  0.52804536100E+03  0.17334424139E+03  0.76134552882E+03  0.12500000000E+03 0.  0.
         21    1    1    2  503  501 -0.21868284293E+02  0.39206277358E+02 -0.91951461642E+02  0.10232509634E+03  0.00000000000E+00 0.  1.
          1    1    1    2  501    0  0.52698399872E+03 -0.56725163836E+03  0.53139010052E+03  0.93907507424E+03  0.00000000000E+00 0. -1.
<mgrwt>
<rscale>  4 0.76668113E+03</rscale>
<asrwt>0</asrwt>
<pdfrwt beam="1">  1       21 0.91535602E-01 0.76668113E+03</pdfrwt>
<pdfrwt beam="2">  1        1 0.18580989E+00 0.76668113E+03</pdfrwt>
<totfact> 0.10278069E+02</totfact>
</mgrwt>
</event>
<event>
 5    0  0.4115852E+000  0.3713770E+03  0.7546771E-02  0.1054168E+00
          2   -1    0    0  502    0 -0.00000000000E+00  0.00000000000E+00  0.94966411108E+03  0.94966411108E+03  0.00000000000E+00 0. -1.
         21   -1    0    0  503  502  0.00000000000E+00 -0.00000000000E+00 -0.43621235900E+03  0.43621235900E+03  0.00000000000E+00 0.  1.
         25    1    1    2    0    0 -0.31131123904E+03  0.12797941735E+03 -0.32516269696E+02  0.36052146485E+03  0.12500000000E+03 0.  0.
         21    1    1    2  503  501 -0.79633859292E+01  0.21209731692E+02 -0.19950125989E+03  0.20078351758E+03  0.00000000000E+00 0.  1.
          2    1    1    2  501    0  0.31927462497E+03 -0.14918914904E+03  0.74546928167E+03  0.82457148766E+03  0.00000000000E+00 0. -1.
<mgrwt>
<rscale>  4 0.37137700E+03</rscale>
<asrwt>0</asrwt>
<pdfrwt beam="1">  1       21 0.67109594E-01 0.37137700E+03</pdfrwt>
<pdfrwt beam="2">  1        2 0.14610217E+00 0.37137700E+03</pdfrwt>
<totfact> 0.67160721E+02</totfact>
</mgrwt>
</event>
<event>
 5    0  0.4115852E+000  0.8527861E+03  0.7546771E-02  0.9486605E-01
         21   -1    0    0  503  502  0.00000000000E+00  0.00000000000E+00  0.69508272703E+03  0.69508272703E+03  0.00000000000E+00 0.  1.
          2   -1    0    0  502    0 -0.00000000000E+00 -0.00000000000E+00 -0.20518117427E+04  0.20518117427E+04  0.00000000000E+00 0.  1.
         25    1    1    2    0    0  0.63146868539E+03  0.57575807606E+03  0.21868442567E+03  0.89089726726E+03  0.12500000000E+03 0.  0.
         21    1    1    2  503  501 -0.23497385730E+02  0.61431887835E+01  0.32849685734E+02  0.40853001816E+02  0.00000000000E+00 0. -1.
          2    1    1    2  501    0 -0.60797129966E+03 -0.58190126484E+03 -0.16082631270E+04  0.18151442006E+04  0.00000000000E+00 0.  1.
<mgrwt>
<rscale>  4 0.85278614E+03</rscale>
<asrwt>0</asrwt>
<pdfrwt beam="1">  1       21 0.10693581E+00 0.85278614E+03</pdfrwt>
<pdfrwt beam="2">  1        2 0.31566334E+00 0.85278614E+03</pdfrwt>
<totfact> 0.46865278E+01</totfact>
</mgrwt>
</event>
<event>
 5    0  0.4115852E+000  0.4554163E+03  0.7546771E-02  0.1026119E+00
          2   -1    0    0  502    0 -0.00000000000E+00  0.00000000000E+00  0.24878329702E+04  0.24878329702E+04  0.00000000000E+00 0.  1.
         21   -1    0    0  503  502  0.00000000000E+00 -0.00000000000E+00 -0.22878858792E+03  0.22878858792E+03  0.00000000000E+00 0.  1.
         25    1    1    2    0    0  0.71893984982E+02  0.62132279935E+03  0.73352259403E+03  0.97205512294E+03  0.12500000000E+03 0.  0.
         21    1    1    2  503  501 -0.95792709377E+02 -0.35051899325E+03  0.25163710189E+03  0.44199665027E+03  0.00000000000E+00 0.  1.
          2    1    1    2  501    0  0.23898724395E+02 -0.27080380609E+03  0.12738846864E+04  0.13025697849E+04  0.00000000000E+00 0.  1.
<mgrwt>
<rscale>  4 0.45541627E+03</rscale>
<asrwt>0</asrwt>
<pdfrwt beam="1">  1       21 0.35198246E-01 0.45541627E+03</pdfrwt>
<pdfrwt beam="2">  1        2 0.38274352E+00 0.45541627E+03</pdfrwt>
<totfact> 0.35912074E+02</totfact>
</mgrwt>
</event>
<event>
 5    0  0.4115852E+000  0.4360726E+03  0.7546771E-02  0.1031959E+00
         21   -1    0    0  503  502  0.00000000000E+00  0.00000000000E+00  0.28853045292E+03  0.28853045292E+03  0.00000000000E+00 0.  1.
          2   -1    0    0  502    0 -0.00000000000E+00 -0.00000000000E+00 -0.18999440202E+04  0.18999440202E+04  0.00000000000E+00 0. -1.
         25    1    1    2    0    0 -0.56053000736E+03  0.23608766545E+02 -0.17335240260E+03  0.60035599314E+03  0.12500000000E+03 0.  0.
         21    1    1    2  503  501  0.17396933796E+03 -0.12393648389E+03 -0.22163560470E+03  0.30781150703E+03  0.00000000000E+00 0.  1.
          2    1    1    2  501    0  0.38656066940E+03  0.10032771734E+03 -0.12164255600E+04  0.12803069729E+04  0.00000000000E+00 0. -1.
<mgrwt>
<rscale>  4 0.43607260E+03</rscale>
<asrwt>0</asrwt>
<pdfrwt beam="1">  1       21 0.44389300E-01 0.43607260E+03</pdfrwt>
<pdfrwt beam="2">  1        2 0.29229908E+00 0.43607260E+03</pdfrwt>
<totfact> 0.46791911E+02</totfact>
</mgrwt>
</event>
<event>
 5    0  0.4115852E+000  0.3896187E+03  0.7546771E-02  0.1047435E+00
         21   -1    0    0  501  502  0.00000000000E+00  0.00000000000E+00  0.46319658004E+03  0.46319658004E+03  0.00000000000E+00 0.  1.
         -1   -1    0    0    0  501 -0.00000000000E+00 -0.00000000000E+00 -0.46182854843E+03  0.46182854843E+03  0.00000000000E+00 0.  1.
         25    1    1    2    0    0  0.61788588219E+02  0.38748116869E+03  0.21164164754E+03  0.46300828577E+03  0.12500000000E+03 0.  0.
         21    1    1    2  503  502 -0.24000776012E+02 -0.27345482387E+02  0.10551311431E+02  0.37883279017E+02  0.00000000000E+00 0. -1.
         -1    1    1    2    0  503 -0.37787812207E+02 -0.36013568630E+03 -0.22082492736E+03  0.42413356368E+03  0.00000000000E+00 0.  1.
<mgrwt>
<rscale>  4 0.38961865E+03</rscale>
<asrwt>0</asrwt>
<pdfrwt beam="1">  1       21 0.71261012E-01 0.38961865E+03</pdfrwt>
<pdfrwt beam="2">  1       -1 0.71050546E-01 0.38961865E+03</pdfrwt>
<totfact> 0.31990151E+02</totfact>
</mgrwt>
</event>
<event>
 5    0  0.4115852E+000  0.2428879E+03  0.7546771E-02  0.1117884E+00
          1   -1    0    0  502    0 -0.00000000000E+00  0.00000000000E+00  0.22894829577E+04  0.22894829577E+04  0.00000000000E+00 0.  1.
         21   -1    0    0  503  502  0.00000000000E+00 -0.00000000000E+00 -0.73552580771E+02  0.73552580771E+02  0.00000000000E+00 0.  1.
         25    1    1    2    0    0 -0.16510192103E+03 -0.11515740789E+03  0.63129324124E+03  0.67429669238E+03  0.12500000000E+03 0.  0.
         21    1    1    2  503  501  0.19959360265E+02 -0.38707524286E+02 -0.34676048732E+02  0.55669352917E+02  0.00000000000E+00 0.  1.
          1    1    1    2  501    0  0.14514256076E+03  0.15386493217E+03  0.16193131844E+04  0.16330694932E+04  0.00000000000E+00 0.  1.
<mgrwt>
<rscale>  4 0.24288790E+03</rscale>
<asrwt>0</asrwt>
<pdfrwt beam="1">  1       21 0.11315783E-01 0.24288790E+03</pdfrwt>
<pdfrwt beam="2">  1        1 0.35222809E+00 0.24288790E+03</pdfrwt>
<totfact> 0.15910873E+03</totfact>
</mgrwt>
</event>
<event>
 5    0  0.4115852E+000  0.2550765E+03  0.7546771E-02  0.1110138E+00
         21   -1    0    0  503  502  0.00000000000E+00  0.00000000000E+00  0.10838024912E+03  0.10838024912E+03  0.00000000000E+00 0.  1.
          2   -1    0    0  502    0 -0.00000000000E+00 -0.00000000000E+00 -0.16440093701E+04  0.16440093701E+04  0.00000000000E+00 0.  1.
         25    1    1    2    0    0 -0.19985084702E+03 -0.90232728694E+02 -0.13664340221E+04  0.13895500146E+04  0.12500000000E+03 0.  0.
         21    1    1    2  503  501  0.18206504132E+03  0.12876715223E+03 -0.39620659582E+02  0.22649162331E+03  0.00000000000E+00 0.  1.
          2    1    1    2  501    0  0.17785805702E+02 -0.38534423533E+02 -0.12957443935E+03  0.13634798134E+03  0.00000000000E+00 0.  1.
<mgrwt>
<rscale>  4 0.25507655E+03</rscale>
<asrwt>0</asrwt>
<pdfrwt beam="1">  1       21 0.16673885E-01 0.25507655E+03</pdfrwt>
<pdfrwt beam="2">  1        2 0.25292451E+00 0.25507655E+03</pdfrwt>
<totfact> 0.46414513E+03</totfact>
</mgrwt>
</event>
<event>
 5    0  0.4115852E+000  0.1787624E+03  0.7546771E-02  0.1169006E+00
         21   -1    0    0  501  502  0.00000000000E+00  0.00000000000E+00  0.63475416284E+03  0.63475416284E+03  0.00000000000E+00 0. -1.
         -1   -1    0    0    0  501 -0.00000000000E+00 -0.00000000000E+00 -0.58136861944E+03  0.58136861944E+03  0.00000000000E+00 0.  1.
         25    1    1    2    0    0  0.19109250384E+03 -0.77539320697E+02  0.19734175243E+03  0.31160465101E+03  0.12500000000E+03 0.  0.
         21    1    1    2  503  502 -0.72706743044E+02  0.35987583168E+02  0.36829569708E+03  0.37712477658E+03  0.00000000000E+00 0. -1.
         -1    1    1    2    0  503 -0.11838576079E+03  0.41551737529E+02 -0.51225190612E+03  0.52739335469E+03  0.00000000000E+00 0.  1.
<mgrwt>
<rscale>  4 0.17876238E+03</rscale>
<asrwt>0</asrwt>
<pdfrwt beam="1">  1       21 0.97654487E-01 0.17876238E+03</pdfrwt>
<pdfrwt beam="2">  1       -1 0.89441326E-01 0.17876238E+03</pdfrwt>
<totfact> 0.10577928E+02</totfact>
</mgrwt>
</event>
<event>
 5    0  0.4115852E+000  0.4126417E+03  0.7546771E-02  0.1039488E+00
          1   -1    0    0  502    0 -0.00000000000E+00  0.00000000000E+00  0.24022102869E+03  0.24022102869E+03  0.00000000000E+00 0. -1.
         21   -1    0    0  503  502  0.00000000000E+00 -0.00000000000E+00 -0.86122693497E+03  0.86122693497E+03  0.00000000000E+00 0. -1.
         25    1    1    2    0    0 -0.20048351694E+03 -0.33894941062E+03 -0.29241152137E+03  0.50617175085E+03  0.12500000000E+03 0.  0.
         21    1    1    2  503  501  0.67634882965E+02 -0.34145132483E+02 -0.13417318367E+03  0.15408702308E+03  0.00000000000E+00 0. -1.
          1    1    1    2  501    0  0.13284863397E+03  0.37309454311E+03 -0.19442120123E+03  0.44118918973E+03  0.00000000000E+00 0. -1.
<mgrwt>
<rscale>  4 0.41264174E+03</rscale>
<asrwt>0</asrwt>
<pdfrwt beam="1">  1       21 0.13249645E+00 0.41264174E+03</pdfrwt>
<pdfrwt beam="2">  1        1 0.36957081E-01 0.41264174E+03</pdfrwt>
<totfact> 0.47465748E+02</totfact>
</mgrwt>
</event>
<event>
 5    0  0.4115852E+000  0.2176110E+03  0.7546771E-02  0.1135677E+00
          2   -1    0    0  502    0 -0.00000000000E+00  0.00000000000E+00  0.11862504429E+04  0.11862504429E+04  0.00000000000E+00 0. -1.
         21   -1    0    0  503  502  0.00000000000E+00 -0.00000000000E+00 -0.42965999142E+03  0.42965999142E+03  0.00000000000E+00 0.  1.
         25    1    1    2    0    0  0.20684794626E+03  0.15413524672E+03 -0.21648928196E+03  0.35921630859E+03  0.12500000000E+03 0.  0.
         21    1    1    2  503  501 -0.38362655888E+02 -0.10155063579E+03 -0.11280764553E+03  0.15655602795E+03  0.00000000000E+00 0.  1.
          2    1    1    2  501    0 -0.16848529037E+03 -0.52584610929E+02  0.10858873789E+04  0.11001380977E+04  0.00000000000E+00 0. -1.
<mgrwt>
<rscale>  4 0.21761101E+03</rscale>
<asrwt>0</asrwt>
<pdfrwt beam="1">  1       21 0.66101538E-01 0.21761101E+03</pdfrwt>
<pdfrwt beam="2">  1        2 0.18250007E+00 0.21761101E+03</pdfrwt>
<totfact> 0.53711184E+02</totfact>
</mgrwt>
</event>
<event>
 5    0  0.4115852E+000  0.4442890E+03  0.7546771E-02  0.1029439E+00
          2   -1    0    0  502    0 -0.00000000000E+00  0.00000000000E+00  0.51112291887E+03  0.51112291887E+03  0.00000000000E+00 0. -1.
         21   -1    0    0  503  502  0.00000000000E+00 -0.00000000000E+00 -0.45730775625E+03  0.45730775625E+03  0.00000000000E+00 0. -1.
         25    1    1    2    0    0 -0.38211704139E+03  0.13672404936E+03 -0.62573241340E+02  0.42924038664E+03  0.12500000000E+03 0.  0.
         21    1    1    2  503  501 -0.33048207455E+02  0.52471227800E+01 -0.58061359961E+02  0.67013713775E+02  0.00000000000E+00 0. -1.
          2    1    1    2  501    0  0.41516524884E+03 -0.14197117214E+03  0.17444976393E+03  0.47217657470E+03  0.00000000000E+00 0. -1.
<mgrwt>
<rscale>  4 0.44428902E+03</rscale>
<asrwt>0</asrwt>
<pdfrwt beam="1">  1       21 0.70355039E-01 0.44428902E+03</pdfrwt>
<pdfrwt beam="2">  1        2 0.78634295E-01 0.44428902E+03</pdfrwt>
<totfact> 0.12833464E+03</totfact>
</mgrwt>
</event>
<event>
 5    0  0.4115852E+000  0.2238460E+03  0.7546771E-02  0.1131048E+00
          2   -1    0    0  502    0 -0.00000000000E+00  0.00000000000E+00  0.17640197641E+04  0.17640197641E+04  0.00000000000E+00 0. -1.
         21   -1    0    0  503  502  0.00000000000E+00 -0.00000000000E+00 -0.30106738399E+03  0.30106738399E+03  0.00000000000E+00 0.  1.
         25    1    1    2    0    0 -0.15535309054E+03 -0.18041431677E+03 -0.57862319887E+02  0.27505809659E+03  0.12500000000E+03 0.  0.
         21    1    1    2  503  501  0.72832863999E+02  0.15639140435E+02 -0.11872778374E+03  0.14016238947E+03  0.00000000000E+00 0.  1.
          2    1    1    2  501    0  0.82520226543E+02  0.16477517634E+03  0.16395424838E+04  0.16498666621E+04  0.00000000000E+00 0. -1.
<mgrwt>
<rscale>  4 0.22384601E+03</rscale>
<asrwt>0</asrwt>
<pdfrwt beam="1">  1       21 0.46318060E-01 0.22384601E+03</pdfrwt>
<pdfrwt beam="2">  1        2 0.27138765E+00 0.22384601E+03</pdfrwt>
<totfact> 0.55772278E+02</totfact>
</mgrwt>
</event>
<event>
 5    0  0.4115852E+000  0.2387748E+03  0.7546771E-02  0.1120612E+00
         21   -1    0    0  503  502  0.00000000000E+00  0.00000000000E+00  0.35364112671E+02  0.35364112671E+02  0.00000000000E+00 0. -1.
          4   -1    0    0  502    0 -0.00000000000E+00 -0.00000000000E+00 -0.21104915636E+04  0.21104915636E+04  0.00000000000E+00 0. -1.
         25    1    1    2    0    0 -0.20137106933E+03 -0.97546254814E+02 -0.14184772784E+04  0.14414466236E+04  0.12500000000E+03 0.  0.
         21    1    1    2  503  501  0.30441391661E+02  0.38021375594E+02 -0.44194467437E+02  0.65768185929E+02  0.00000000000E+00 0. -1.
          4    1    1    2  501    0  0.17092967767E+03  0.59524879219E+02 -0.61245570508E+03  0.63864086672E+03  0.00000000000E+00 0. -1.
<mgrwt>
<rscale>  4 0.23877483E+03</rscale>
<asrwt>0</asrwt>
<pdfrwt beam="1">  1       21 0.54406317E-02 0.23877483E+03</pdfrwt>
<pdfrwt beam="2">  1        4 0.32469107E+00 0.23877483E+03</pdfrwt>
<totfact> 0.25610833E+02</totfact>
</mgrwt>
</event>
<event>
 5    0  0.4115852E+000  0.3131067E+03  0.7546771E-02  0.1078866E+00
         21   -1    0    0  503  502  0.00000000000E+00  0.00000000000E+00  0.60190462217E+03  0.60190462217E+03  0.00000000000E+00 0.  1.
          2   -1    0    0  502    0 -0.00000000000E+00 -0.00000000000E+00 -0.68501915232E+03  0.68501915232E+03  0.00000000000E+00 0. -1.
         25    1    1    2    0    0 -0.36187952507E+03  0.52647601475E+01  0.37202298910E+03  0.53386385229E+03  0.12500000000E+03 0.  0.
         21    1    1    2  503  501  0.80618092631E+02 -0.18238186390E+02  0.10051942162E+03  0.13013862772E+03  0.00000000000E+00 0.  1.
          2    1    1    2  501    0  0.28126143244E+03  0.12973426242E+02 -0.55565694088E+03  0.62292129448E+03  0.00000000000E+00 0. -1.
<mgrwt>
<rscale>  4 0.31310669E+03</rscale>
<asrwt>0</asrwt>
<pdfrwt beam="1">  1       21 0.92600711E-01 0.31310669E+03</pdfrwt>
<pdfrwt beam="2">  1        2 0.10538756E+00 0.31310669E+03</pdfrwt>
<totfact> 0.50158949E+02</totfact>
</mgrwt>
</event>
<event>
 5    0  0.4115852E+000  0.2005126E+03  0.7546771E-02  0.1149307E+00
          2   -1    0    0  502    0 -0.00000000000E+00  0.00000000000E+00  0.23148442004E+04  0.23148442004E+04  0.00000000000E+00 0. -1.
         21   -1    0    0  503  502  0.00000000000E+00 -0.00000000000E+00 -0.60195931247E+03  0.60195931247E+03  0.00000000000E+00 0. -1.
         25    1    1    2    0    0  0.20024123900E+03 -0.48684563465E+02  0.24559447200E+03  0.34410519495E+03  0.12500000000E+03 0.  0.
         21    1    1    2  503  501 -0.49886042201E+02  0.16073648525E+02 -0.54852351194E+03  0.55102179861E+03  0.00000000000E+00 0. -1.
          2    1    1    2  501    0 -0.15035519679E+03  0.32610914940E+02  0.20158139279E+04  0.20216765193E+04  0.00000000000E+00 0. -1.
<mgrwt>
<rscale>  4 0.20051265E+03</rscale>
<asrwt>0</asrwt>
<pdfrwt beam="1">  1       21 0.92609126E-01 0.20051265E+03</pdfrwt>
<pdfrwt beam="2">  1        2 0.35612987E+00 0.20051265E+03</pdfrwt>
<totfact> 0.64237612E+01</totfact>
</mgrwt>
</event>
<event>
 5    0  0.4115852E+000  0.2132774E+03  0.7546771E-02  0.1138997E+00
         21   -1    0    0  503  502  0.00000000000E+00  0.00000000000E+00  0.17762334151E+03  0.17762334151E+03  0.00000000000E+00 0.  1.
          2   -1    0    0  502    0 -0.00000000000E+00 -0.00000000000E+00 -0.88857947428E+03  0.88857947428E+03  0.00000000000E+00 0.  1.
         25    1    1    2    0    0  0.13567379850E+03  0.14982909952E+03  0.64512577938E+02  0.24625801789E+03  0.12500000000E+03 0.  0.
         21    1    1    2  503  501 -0.18812487011E+02 -0.24941823269E+02 -0.61471819262E+01  0.31840101463E+02  0.00000000000E+00 0.  1.
          2    1    1    2  501    0 -0.11686131149E+03 -0.12488727625E+03 -0.76932152879E+03  0.78810469644E+03  0.00000000000E+00 0.  1.
<mgrwt>
<rscale>  4 0.21327740E+03</rscale>
<asrwt>0</asrwt>
<pdfrwt beam="1">  1       21 0.27326668E-01 0.21327740E+03</pdfrwt>
<pdfrwt beam="2">  1        2 0.13670453E+00 0.21327740E+03</pdfrwt>
<totfact> 0.49661066E+03</totfact>
</mgrwt>
</event>
<event>
 5    0  0.4115852E+000  0.2111379E+03  0.7546771E-02  0.1140668E+00
         21   -1    0    0  503  502  0.00000000000E+00  0.00000000000E+00  0.22080588911E+03  0.22080588911E+03  0.00000000000E+00 0. -1.
          1   -1    0    0  502    0 -0.00000000000E+00 -0.00000000000E+00 -0.10639871576E+04  0.10639871576E+04  0.00000000000E+00 0. -1.
         25    1    1    2    0    0 -0.10388321109E+03 -0.19492386617E+03 -0.79014115821E+02  0.26581058227E+03  0.12500000000E+03 0.  0.
         21    1    1    2  503  501 -0.36256569287E+01  0.68072089751E+02  0.10985319872E+03  0.12928526621E+03  0.00000000000E+00 0. -1.
          1    1    1    2  501    0  0.10750886802E+03  0.12685177642E+03 -0.87402035137E+03  0.88969719820E+03  0.00000000000E+00 0. -1.
<mgrwt>
<rscale>  4 0.21113786E+03</rscale>
<asrwt>0</asrwt>
<pdfrwt beam="1">  1       21 0.33970137E-01 0.21113786E+03</pdfrwt>
<pdfrwt beam="2">  1        1 0.16369033E+00 0.21113786E+03</pdfrwt>
<totfact> 0.13338983E+03</totfact>
</mgrwt>
</event>
<event>
 5    0  0.4115852E+000  0.2039174E+03  0.7546771E-02  0.1146475E+00
          2   -1    0    0  502    0 -0.00000000000E+00  0.00000000000E+00  0.29881374046E+03  0.29881374046E+03  0.00000000000E+00 0. -1.
         21   -1    0    0  503  502  0.00000000000E+00 -0.00000000000E+00 -0.35747971005E+03  0.35747971005E+03  0.00000000000E+00 0.  1.
         25    1    1    2    0    0 -0.20669709342E+03  0.64160682679E+02 -0.18084322937E+03  0.30849563244E+03  0.12500000000E+03 0.  0.
         21    1    1    2  503  501  0.62916658748E+02 -0.60017595918E+01 -0.74258548395E+02  0.97513378959E+02  0.00000000000E+00 0.  1.
          2    1    1    2  501    0  0.14378043467E+03 -0.58158923087E+02  0.19643580817E+03  0.25028443911E+03  0.00000000000E+00 0. -1.
<mgrwt>
<rscale>  4 0.20391742E+03</rscale>
<asrwt>0</asrwt>
<pdfrwt beam="1">  1       21 0.54996878E-01 0.20391742E+03</pdfrwt>
<pdfrwt beam="2">  1        2 0.45971345E-01 0.20391742E+03</pdfrwt>
<totfact> 0.42326428E+03</totfact>
</mgrwt>
</event>
<event>
 5    0  0.4115852E+000  0.2651990E+03  0.7546771E-02  0.1104059E+00
         21   -1    0    0  503  502  0.00000000000E+00  0.00000000000E+00  0.35694481600E+02  0.35694481600E+02  0.00000000000E+00 0. -1.
          1   -1    0    0  502    0 -0.00000000000E+00 -0.00000000000E+00 -0.19794612842E+04  0.19794612842E+04  0.00000000000E+00 0. -1.
         25    1    1    2    0    0  0.15101877913E+03  0.17860247754E+03 -0.70523427375E+03  0.75344933307E+03  0.12500000000E+03 0.  0.
         21    1    1    2  503  501 -0.71381958069E+01 -0.20492300883E+02 -0.57014688424E+02  0.61004614013E+02  0.00000000000E+00 0. -1.
          1    1    1    2  501    0 -0.14388058333E+03 -0.15811017665E+03 -0.11815178404E+04  0.12007018187E+04  0.00000000000E+00 0. -1.
<mgrwt>
<rscale>  4 0.26519901E+03</rscale>
<asrwt>0</asrwt>
<pdfrwt beam="1">  1       21 0.54914572E-02 0.26519901E+03</pdfrwt>
<pdfrwt beam="2">  1        1 0.30453259E+00 0.26519901E+03</pdfrwt>
<totfact> 0.89031325E+03</totfact>
</mgrwt>
</event>
<event>
 5    0  0.4115852E+000  0.2868836E+03  0.7546771E-02  0.1091988E+00
          2   -1    0    0  502    0 -0.00000000000E+00  0.00000000000E+00  0.15531877868E+04  0.15531877868E+04  0.00000000000E+00 0. -1.
         21   -1    0    0  503  502  0.00000000000E+00 -0.00000000000E+00 -0.27956633427E+03  0.27956633427E+03  0.00000000000E+00 0. -1.
         25    1    1    2    0    0  0.41571517749E+02 -0.23967404438E+03  0.23012327256E+03  0.35742629899E+03  0.12500000000E+03 0.  0.
         21    1    1    2  503  501  0.97522333673E+02  0.14410846698E+02 -0.18983174522E+03  0.21390271051E+03  0.00000000000E+00 0. -1.
          2    1    1    2  501    0 -0.13909385142E+03  0.22526319768E+03  0.12333299252E+04  0.12614251115E+04  0.00000000000E+00 0. -1.
<mgrwt>
<rscale>  4 0.28688359E+03</rscale>
<asrwt>0</asrwt>
<pdfrwt beam="1">  1       21 0.43010206E-01 0.28688359E+03</pdfrwt>
<pdfrwt beam="2">  1        2 0.23895196E+00 0.28688359E+03</pdfrwt>
<totfact> 0.81080374E+02</totfact>
</mgrwt>
</event>
<event>
 5    0  0.4115852E+000  0.2094199E+03  0.7546771E-02  0.1142026E+00
          2   -1    0    0  502    0 -0.00000000000E+00  0.00000000000E+00  0.12285294902E+04  0.12285294902E+04  0.00000000000E+00 0. -1.
         21   -1    0    0  503  502  0.00000000000E+00 -0.00000000000E+00 -0.17168950555E+03  0.17168950555E+03  0.00000000000E+00 0. -1.
         25    1    1    2    0    0 -0.19392773746E+03  0.11660451008E+03 -0.14002940398E+02  0.25889314681E+03  0.12500000000E+03 0.  0.
         21    1    1    2  503  501  0.59692435181E+02 -0.20084618209E+02  0.54894821421E+01  0.63219562801E+02  0.00000000000E+00 0. -1.
          2    1    1    2  501    0  0.13423530228E+03 -0.96519891871E+02  0.10653534429E+04  0.10781062861E+04  0.00000000000E+00 0. -1.
<mgrwt>
<rscale>  4 0.20941985E+03</rscale>
<asrwt>0</asrwt>
<pdfrwt beam="1">  1       21 0.26413771E-01 0.20941985E+03</pdfrwt>
<pdfrwt beam="2">  1        2 0.18900453E+00 0.20941985E+03</pdfrwt>
<totfact> 0.33295716E+03</totfact>
</mgrwt>
</event>
<event>
 5    0  0.4115852E+000  0.3083389E+03  0.7546771E-02  0.1081145E+00
         21   -1    0    0  503  502  0.00000000000E+00  0.00000000000E+00  0.17040528857E+04  0.17040528857E+04  0.00000000000E+00 0. -1.
          2   -1    0    0  502    0 -0.00000000000E+00 -0.00000000000E+00 -0.44095468088E+03  0.44095468088E+03  0.00000000000E+00 0.  1.
         25    1    1    2    0    0 -0.33708892985E+02 -0.24294375213E+03  0.21475147450E+03  0.34914345471E+03  0.12500000000E+03 0.  0.
         21    1    1    2  503  501  0.40329748717E+02 -0.46685267525E+02  0.13651655988E+04  0.13665588590E+04  0.00000000000E+00 0. -1.
          2    1    1    2  501    0 -0.66208557316E+01  0.28962901965E+03 -0.31681886849E+03  0.42930525292E+03  0.00000000000E+00 0.  1.
<mgrwt>
<rscale>  4 0.30833889E+03</rscale>
<asrwt>0</asrwt>
<pdfrwt beam="1">  1       21 0.26216198E+00 0.30833889E+03</pdfrwt>
<pdfrwt beam="2">  1        2 0.67839183E-01 0.30833889E+03</pdfrwt>
<totfact> 0.45388579E+01</totfact>
</mgrwt>
</event>
<event>
 5    0  0.4115852E+000  0.3153225E+03  0.7546771E-02  0.1077822E+00
          1   -1    0    0  502    0 -0.00000000000E+00  0.00000000000E+00  0.13158428501E+04  0.13158428501E+04  0.00000000000E+00 0. -1.
         21   -1    0    0  503  502  0.00000000000E+00 -0.00000000000E+00 -0.10517352456E+03  0.10517352456E+03  0.00000000000E+00 0. -1.
         25    1    1    2    0    0  0.95891062778E+02 -0.28996727339E+03  0.95082339223E+03  0.10064622391E+04  0.12500000000E+03 0.  0.
         21    1    1    2  503  501 -0.10883073213E+03  0.26359899139E+03  0.20135411928E+03  0.34910175862E+03  0.00000000000E+00 0. -1.
          1    1    1    2  501    0  0.12939669351E+02  0.26368281997E+02  0.58491814057E+02  0.65452376963E+02  0.00000000000E+00 0. -1.
<mgrwt>
<rscale>  4 0.31532249E+03</rscale>
<asrwt>0</asrwt>
<pdfrwt beam="1">  1       21 0.16180543E-01 0.31532249E+03</pdfrwt>
<pdfrwt beam="2">  1        1 0.20243735E+00 0.31532249E+03</pdfrwt>
<totfact> 0.35217862E+03</totfact>
</mgrwt>
</event>
<event>
 5    0  0.4115852E+000  0.2274698E+03  0.7546771E-02  0.1128433E+00
          2   -1    0    0  502    0 -0.00000000000E+00  0.00000000000E+00  0.11444761653E+04  0.11444761653E+04  0.00000000000E+00 0. -1.
         21   -1    0    0  503  502  0.00000000000E+00 -0.00000000000E+00 -0.77277267451E+02  0.77277267451E+02  0.00000000000E+00 0. -1.
         25    1    1    2    0    0 -0.17443372972E+02  0.23832293789E+03  0.58194303783E+03  0.64139285408E+03  0.12500000000E+03 0.  0.
         21    1    1    2  503  501  0.35053144515E+01 -0.72045737722E+02  0.54133640280E+01  0.72333809960E+02  0.00000000000E+00 0. -1.
          2    1    1    2  501    0  0.13938058520E+02 -0.16627720016E+03  0.47984249597E+03  0.50802676870E+03  0.00000000000E+00 0. -1.
<mgrwt>
<rscale>  4 0.22746985E+03</rscale>
<asrwt>0</asrwt>
<pdfrwt beam="1">  1       21 0.11888811E-01 0.22746985E+03</pdfrwt>
<pdfrwt beam="2">  1        2 0.17607324E+00 0.22746985E+03</pdfrwt>
<totfact> 0.16234360E+04</totfact>
</mgrwt>
</event>
<event>
 5    0  0.4115852E+000  0.3898584E+03  0.7546771E-02  0.1047349E+00
         21   -1    0    0  503  502  0.00000000000E+00  0.00000000000E+00  0.28375937272E+03  0.28375937272E+03  0.00000000000E+00 0. -1.
          1   -1    0    0  502    0 -0.00000000000E+00 -0.00000000000E+00 -0.11620985307E+04  0.11620985307E+04  0.00000000000E+00 0. -1.
         25    1    1    2    0    0  0.26928403017E+03 -0.27843500372E+03 -0.30884511358E+03  0.51093076281E+03  0.12500000000E+03 0.  0.
         21    1    1    2  503  501 -0.22290133591E+02  0.14460491652E+02  0.13794059338E+03  0.14047620146E+03  0.00000000000E+00 0. -1.
          1    1    1    2  501    0 -0.24699389658E+03  0.26397451207E+03 -0.70743463776E+03  0.79445093912E+03  0.00000000000E+00 0. -1.
<mgrwt>
<rscale>  4 0.38985837E+03</rscale>
<asrwt>0</asrwt>
<pdfrwt beam="1">  1       21 0.43655289E-01 0.38985837E+03</pdfrwt>
<pdfrwt beam="2">  1        1 0.17878439E+00 0.38985837E+03</pdfrwt>
<totfact> 0.63423128E+02</totfact>
</mgrwt>
</event>
<event>
 5    0  0.4115852E+000  0.2577862E+03  0.7546771E-02  0.1108481E+00
         21   -1    0    0  501  502  0.00000000000E+00  0.00000000000E+00  0.72156376654E+02  0.72156376654E+02  0.00000000000E+00 0. -1.
         -1   -1    0    0    0  501 -0.00000000000E+00 -0.00000000000E+00 -0.12713691386E+04  0.12713691386E+04  0.00000000000E+00 0. -1.
         25    1    1    2    0    0 -0.86278113570E+02  0.19928487205E+03 -0.37975298408E+03  0.45496780328E+03  0.12500000000E+03 0.  0.
         21    1    1    2  503  502  0.41422024015E+02  0.26832621892E+02 -0.14795208714E+02  0.51523507954E+02  0.00000000000E+00 0. -1.
         -1    1    1    2    0  503  0.44856089556E+02 -0.22611749394E+03 -0.80466456916E+03  0.83703420402E+03  0.00000000000E+00 0. -1.
<mgrwt>
<rscale>  4 0.25778622E+03</rscale>
<asrwt>0</asrwt>
<pdfrwt beam="1">  1       21 0.11100981E-01 0.25778622E+03</pdfrwt>
<pdfrwt beam="2">  1       -1 0.19559526E+00 0.25778622E+03</pdfrwt>
<totfact> 0.11228985E+03</totfact>
</mgrwt>
</event>
<event>
 5    0  0.4115852E+000  0.4537661E+03  0.7546771E-02  0.1026605E+00
         21   -1    0    0  503  502  0.00000000000E+00  0.00000000000E+00  0.52900130822E+03  0.52900130822E+03  0.00000000000E+00 0.  1.
          2   -1    0    0  502    0 -0.00000000000E+00 -0.00000000000E+00 -0.14853229752E+04  0.14853229752E+04  0.00000000000E+00 0. -1.
         25    1    1    2    0    0  0.15355830113E+03  0.40898062973E+03  0.22795176654E+03  0.50836238571E+03  0.12500000000E+03 0.  0.
         21    1    1    2  503  501 -0.25374226327E+02  0.79787001461E+01  0.12403097724E+03  0.12685107147E+03  0.00000000000E+00 0. -1.
          2    1    1    2  501    0 -0.12818407480E+03 -0.41695932988E+03 -0.13083044107E+04  0.13791108262E+04  0.00000000000E+00 0. -1.
<mgrwt>
<rscale>  4 0.45376609E+03</rscale>
<asrwt>0</asrwt>
<pdfrwt beam="1">  1       21 0.81384817E-01 0.45376609E+03</pdfrwt>
<pdfrwt beam="2">  1        2 0.22851123E+00 0.45376609E+03</pdfrwt>
<totfact> 0.20560080E+02</totfact>
</mgrwt>
</event>
<event>
 5    0  0.4115852E+000  0.2279029E+03  0.7546771E-02  0.1128125E+00
         21   -1    0    0  503  502  0.00000000000E+00  0.00000000000E+00  0.86054877985E+02  0.86054877985E+02  0.00000000000E+00 0. -1.
          1   -1    0    0  502    0 -0.00000000000E+00 -0.00000000000E+00 -0.78421132578E+03  0.78421132578E+03  0.00000000000E+00 0. -1.
         25    1    1    2    0    0  0.54374783426E+02 -0.20245404135E+03 -0.17313886610E+03  0.29924291619E+03  0.12500000000E+03 0.  0.
         21    1    1    2  503  501 -0.26405758556E+01  0.24191320768E+02 -0.15760075840E+02  0.28992630647E+02  0.00000000000E+00 0. -1.
          1    1    1    2  501    0 -0.51734207570E+02  0.17826272059E+03 -0.50925750585E+03  0.54203065693E+03  0.00000000000E+00 0. -1.
<mgrwt>
<rscale>  4 0.22790285E+03</rscale>
<asrwt>0</asrwt>
<pdfrwt beam="1">  1       21 0.13239212E-01 0.22790285E+03</pdfrwt>
<pdfrwt beam="2">  1        1 0.12064789E+00 0.22790285E+03</pdfrwt>
<totfact> 0.12950230E+04</totfact>
</mgrwt>
</event>
<event>
 5    0  0.4115852E+000  0.2502025E+03  0.7546771E-02  0.1113177E+00
          1   -1    0    0  502    0 -0.00000000000E+00  0.00000000000E+00  0.13023548960E+04  0.13023548960E+04  0.00000000000E+00 0.  1.
         21   -1    0    0  503  502  0.00000000000E+00 -0.00000000000E+00 -0.84023747119E+02  0.84023747119E+02  0.00000000000E+00 0.  1.
         25    1    1    2    0    0 -0.21234837711E+03  0.94079462887E+02  0.28313884641E+03  0.38695656726E+03  0.12500000000E+03 0.  0.
         21    1    1    2  503  501  0.47489793717E+02  0.43455510562E+02  0.33586789529E+02  0.72606709996E+02  0.00000000000E+00 0.  1.
          1    1    1    2  501    0  0.16485858339E+03 -0.13753497345E+03  0.90160551291E+03  0.92681536583E+03  0.00000000000E+00 0.  1.
<mgrwt>
<rscale>  4 0.25020248E+03</rscale>
<asrwt>0</asrwt>
<pdfrwt beam="1">  1       21 0.12926731E-01 0.25020248E+03</pdfrwt>
<pdfrwt beam="2">  1        1 0.20036228E+00 0.25020248E+03</pdfrwt>
<totfact> 0.55348479E+03</totfact>
</mgrwt>
</event>
<event>
 5    0  0.4115852E+000  0.2839497E+03  0.7546771E-02  0.1093551E+00
          2   -1    0    0  502    0 -0.00000000000E+00  0.00000000000E+00  0.18771236166E+04  0.18771236166E+04  0.00000000000E+00 0. -1.
         21   -1    0    0  503  502  0.00000000000E+00 -0.00000000000E+00 -0.12655134995E+03  0.12655134995E+03  0.00000000000E+00 0. -1.
         25    1    1    2    0    0  0.24781861410E+03  0.21084792524E+03  0.10504253207E+04  0.11067471561E+04  0.12500000000E+03 0.  0.
         21    1    1    2  503  501 -0.20293723629E+03 -0.13716198116E+03  0.61588450578E+02  0.25256695784E+03  0.00000000000E+00 0. -1.
          2    1    1    2  501    0 -0.44881377806E+02 -0.73685944089E+02  0.63855849535E+03  0.64436085264E+03  0.00000000000E+00 0. -1.
<mgrwt>
<rscale>  4 0.28394973E+03</rscale>
<asrwt>0</asrwt>
<pdfrwt beam="1">  1       21 0.19469440E-01 0.28394973E+03</pdfrwt>
<pdfrwt beam="2">  1        2 0.28878823E+00 0.28394973E+03</pdfrwt>
<totfact> 0.25918538E+03</totfact>
</mgrwt>
</event>
<event>
 5    0  0.4115852E+000  0.2691978E+03  0.7546771E-02  0.1101740E+00
         21   -1    0    0  503  502  0.00000000000E+00  0.00000000000E+00  0.25355772460E+03  0.25355772460E+03  0.00000000000E+00 0. -1.
          2   -1    0    0  502    0 -0.00000000000E+00 -0.00000000000E+00 -0.15320173111E+04  0.15320173111E+04  0.00000000000E+00 0.  1.
         25    1    1    2    0    0 -0.25296552546E+03 -0.50755157142E+02  0.14121114878E+03  0.31958290253E+03  0.12500000000E+03 0.  0.
         21    1    1    2  503  501  0.16948388902E+02  0.23277158782E+02 -0.23472641352E+01  0.28889161571E+02  0.00000000000E+00 0. -1.
          2    1    1    2  501    0  0.23601713656E+03  0.27477998359E+02 -0.14173234711E+04  0.14371029716E+04  0.00000000000E+00 0.  1.
<mgrwt>
<rscale>  4 0.26919780E+03</rscale>
<asrwt>0</asrwt>
<pdfrwt beam="1">  1       21 0.39008881E-01 0.26919780E+03</pdfrwt>
<pdfrwt beam="2">  1        2 0.23569497E+00 0.26919780E+03</pdfrwt>
<totfact> 0.10246249E+03</totfact>
</mgrwt>
</event>
<event>
 5    0  0.4115852E+000  0.1927932E+03  0.7546771E-02  0.1155966E+00
         21   -1    0    0  503  502  0.00000000000E+00  0.00000000000E+00  0.17306398401E+03  0.17306398401E+03  0.00000000000E+00 0. -1.
          2   -1    0    0  502    0 -0.00000000000E+00 -0.00000000000E+00 -0.15541285936E+04  0.15541285936E+04  0.00000000000E+00 0. -1.
         25    1    1    2    0    0  0.24734447571E+03 -0.47246994863E+02 -0.52933699277E+03  0.59936151036E+03  0.12500000000E+03 0.  0.
         21    1    1    2  503  501 -0.11393901518E+03  0.55306739377E+02  0.10333680673E+03  0.16346079109E+03  0.00000000000E+00 0. -1.
          2    1    1    2  501    0 -0.13340546054E+03 -0.80597445138E+01 -0.95506442355E+03  0.96437027614E+03  0.00000000000E+00 0. -1.
<mgrwt>
<rscale>  4 0.19279321E+03</rscale>
<asrwt>0</asrwt>
<pdfrwt beam="1">  1       21 0.26625228E-01 0.19279321E+03</pdfrwt>
<pdfrwt beam="2">  1        2 0.23909671E+00 0.19279321E+03</pdfrwt>
<totfact> 0.22062478E+03</totfact>
</mgrwt>
</event>
<event>
 5    0  0.4115852E+000  0.2338899E+03  0.7546771E-02  0.1123931E+00
          2   -1    0    0  502    0 -0.00000000000E+00  0.00000000000E+00  0.25367441641E+03  0.25367441641E+03  0.00000000000E+00 0. -1.
         21   -1    0    0  503  502  0.00000000000E+00 -0.00000000000E+00 -0.53479203818E+03  0.53479203818E+03  0.00000000000E+00 0. -1.
         25    1    1    2    0    0  0.35146470843E+02 -0.21553263242E+03 -0.23559805772E+03  0.34470427159E+03  0.12500000000E+03 0.  0.
         21    1    1    2  503  501  0.69943429638E+02  0.49346035426E+02 -0.18422197373E+03  0.20313751541E+03  0.00000000000E+00 0. -1.
          2    1    1    2  501    0 -0.10508990048E+03  0.16618659699E+03  0.13870240968E+03  0.24062466759E+03  0.00000000000E+00 0. -1.
<mgrwt>
<rscale>  4 0.23388988E+03</rscale>
<asrwt>0</asrwt>
<pdfrwt beam="1">  1       21 0.82275698E-01 0.23388988E+03</pdfrwt>
<pdfrwt beam="2">  1        2 0.39026833E-01 0.23388988E+03</pdfrwt>
<totfact> 0.20611216E+03</totfact>
</mgrwt>
</event>
<event>
 5    0  0.4115852E+000  0.2684192E+03  0.7546771E-02  0.1102188E+00
         21   -1    0    0  503  502  0.00000000000E+00  0.00000000000E+00  0.21916664283E+04  0.21916664283E+04  0.00000000000E+00 0.  1.
          1   -1    0    0  502    0 -0.00000000000E+00 -0.00000000000E+00 -0.11951718987E+03  0.11951718987E+03  0.00000000000E+00 0.  1.
         25    1    1    2    0    0  0.20303149610E+03  0.85202122684E+02  0.75679330347E+03  0.79802399356E+03  0.12500000000E+03 0.  0.
         21    1    1    2  503  501  0.20308476637E+02  0.48610465378E+01  0.12674541056E+04  0.12676261175E+04  0.00000000000E+00 0.  1.
          1    1    1    2  501    0 -0.22333997274E+03 -0.90063169222E+02  0.47901829419E+02  0.24553350716E+03  0.00000000000E+00 0.  1.
<mgrwt>
<rscale>  4 0.26841924E+03</rscale>
<asrwt>0</asrwt>
<pdfrwt beam="1">  1       21 0.33717942E+00 0.26841924E+03</pdfrwt>
<pdfrwt beam="2">  1        1 0.18387262E-01 0.26841924E+03</pdfrwt>
<totfact> 0.58682842E+01</totfact>
</mgrwt>
</event>
<event>
 5    0  0.4115852E+000  0.2455639E+03  0.7546771E-02  0.1116141E+00
          1   -1    0    0  502    0 -0.00000000000E+00  0.00000000000E+00  0.13028157959E+04  0.13028157959E+04  0.00000000000E+00 0. -1.
         21   -1    0    0  503  502  0.00000000000E+00 -0.00000000000E+00 -0.18343588930E+03  0.18343588930E+03  0.00000000000E+00 0. -1.
         25    1    1    2    0    0  0.17022991505E+03 -0.15241305046E+03  0.56189626653E+03  0.61932251394E+03  0.12500000000E+03 0.  0.
         21    1    1    2  503  501 -0.23217265443E+02  0.12747970938E+02 -0.13901327766E+03  0.14151411076E+03  0.00000000000E+00 0. -1.
          1    1    1    2  501    0 -0.14701264961E+03  0.13966507952E+03  0.69649691775E+03  0.72541506051E+03  0.00000000000E+00 0. -1.
<mgrwt>
<rscale>  4 0.24556392E+03</rscale>
<asrwt>0</asrwt>
<pdfrwt beam="1">  1       21 0.28220907E-01 0.24556392E+03</pdfrwt>
<pdfrwt beam="2">  1        1 0.20043319E+00 0.24556392E+03</pdfrwt>
<totfact> 0.12836795E+03</totfact>
</mgrwt>
</event>
<event>
 5    0  0.4115852E+000  0.1997704E+03  0.7546771E-02  0.1149933E+00
          3   -1    0    0  502    0 -0.00000000000E+00  0.00000000000E+00  0.25222334916E+04  0.25222334916E+04  0.00000000000E+00 0. -1.
         21   -1    0    0  503  502  0.00000000000E+00 -0.00000000000E+00 -0.45892444504E+02  0.45892444504E+02  0.00000000000E+00 0. -1.
         25    1    1    2    0    0 -0.20188353790E+03 -0.30208898465E+02  0.17587665977E+04  0.17749801367E+04  0.12500000000E+03 0.  0.
         21    1    1    2  503  501  0.14390486860E+03  0.48119438349E+02  0.12257730799E+03  0.19506226695E+03  0.00000000000E+00 0. -1.
          3    1    1    2  501    0  0.57978669297E+02 -0.17910539885E+02  0.59499714133E+03  0.59808353239E+03  0.00000000000E+00 0. -1.
<mgrwt>
<rscale>  4 0.19977039E+03</rscale>
<asrwt>0</asrwt>
<pdfrwt beam="1">  1       21 0.70603781E-02 0.19977039E+03</pdfrwt>
<pdfrwt beam="2">  1        3 0.38803581E+00 0.19977039E+03</pdfrwt>
<totfact> 0.11674583E+02</totfact>
</mgrwt>
</event>
<event>
 5    0  0.4115852E+000  0.2371671E+03  0.7546771E-02  0.1121695E+00
         21   -1    0    0  503  502  0.00000000000E+00  0.00000000000E+00  0.12631123361E+03  0.12631123361E+03  0.00000000000E+00 0.  1.
          1   -1    0    0  502    0 -0.00000000000E+00 -0.00000000000E+00 -0.58928439714E+03  0.58928439714E+03  0.00000000000E+00 0. -1.
         25    1    1    2    0    0 -0.16000905002E+03 -0.14838728456E+03 -0.10321290803E+03  0.27184478418E+03  0.12500000000E+03 0.  0.
         21    1    1    2  503  501 -0.20064173993E+01  0.36269746298E+02 -0.33148353408E+01  0.36476133849E+02  0.00000000000E+00 0.  1.
          1    1    1    2  501    0  0.16201546742E+03  0.11211753826E+03 -0.35644542016E+03  0.40727471272E+03  0.00000000000E+00 0. -1.
<mgrwt>
<rscale>  4 0.23716709E+03</rscale>
<asrwt>0</asrwt>
<pdfrwt beam="1">  1       21 0.19432497E-01 0.23716709E+03</pdfrwt>
<pdfrwt beam="2">  1        1 0.90659138E-01 0.23716709E+03</pdfrwt>
<totfact> 0.96436374E+03</totfact>
</mgrwt>
</event>
<event>
 5    0  0.4115852E+000  0.2347411E+03  0.7546771E-02  0.1123347E+00
         21   -1    0    0  503  502  0.00000000000E+00  0.00000000000E+00  0.10755188131E+03  0.10755188131E+03  0.00000000000E+00 0. -1.
          2   -1    0    0  502    0 -0.00000000000E+00 -0.00000000000E+00 -0.16797460388E+04  0.16797460388E+04  0.00000000000E+00 0.  1.
         25    1    1    2    0    0 -0.53043669145E+02 -0.19437679933E+03 -0.65138447828E+02  0.24589426252E+03  0.12500000000E+03 0.  0.
         21    1    1    2  503  501 -0.77155004866E+02  0.50493315784E+02 -0.20263216270E+03  0.22262583649E+03  0.00000000000E+00 0.  1.
          2    1    1    2  501    0  0.13019867401E+03  0.14388348354E+03 -0.13044235469E+04  0.13187778211E+04  0.00000000000E+00 0.  1.
<mgrwt>
<rscale>  4 0.23474113E+03</rscale>
<asrwt>0</asrwt>
<pdfrwt beam="1">  1       21 0.16546444E-01 0.23474113E+03</pdfrwt>
<pdfrwt beam="2">  1        2 0.25842246E+00 0.23474113E+03</pdfrwt>
<totfact> 0.45441745E+03</totfact>
</mgrwt>
</event>
<event>
 5    0  0.4115852E+000  0.2181952E+03  0.7546771E-02  0.1135236E+00
         21   -1    0    0  503  502  0.00000000000E+00  0.00000000000E+00  0.28779677668E+03  0.28779677668E+03  0.00000000000E+00 0. -1.
          2   -1    0    0  502    0 -0.00000000000E+00 -0.00000000000E+00 -0.34507629189E+04  0.34507629189E+04  0.00000000000E+00 0.  1.
         25    1    1    2    0    0  0.20269073266E+03  0.22255949109E+03  0.10727646482E+03  0.34314647030E+03  0.12500000000E+03 0.  0.
         21    1    1    2  503  501 -0.77559808803E+02 -0.96617365801E+02 -0.35993839339E+01  0.12394916248E+03  0.00000000000E+00 0. -1.
          2    1    1    2  501    0 -0.12513092385E+03 -0.12594212529E+03 -0.32666432231E+04  0.32714640627E+04  0.00000000000E+00 0.  1.
<mgrwt>
<rscale>  4 0.21819520E+03</rscale>
<asrwt>0</asrwt>
<pdfrwt beam="1">  1       21 0.44276430E-01 0.21819520E+03</pdfrwt>
<pdfrwt beam="2">  1        2 0.53088657E+00 0.21819520E+03</pdfrwt>
<totfact> 0.69133877E+01</totfact>
</mgrwt>
</event>
<event>
 5    0  0.4115852E+000  0.2236449E+03  0.7546771E-02  0.1131194E+00
          2   -1    0    0  502    0 -0.00000000000E+00  0.00000000000E+00  0.17246405546E+04  0.17246405546E+04  0.00000000000E+00 0. -1.
         21   -1    0    0  503  502  0.00000000000E+00 -0.00000000000E+00 -0.97615949303E+02  0.97615949303E+02  0.00000000000E+00 0. -1.
         25    1    1    2    0    0 -0.15886937653E+03 -0.15710473612E+03  0.12391898988E+03  0.28443328385E+03  0.12500000000E+03 0.  0.
         21    1    1    2  503  501 -0.53410562411E+01  0.75493075242E+02  0.11507020271E+03  0.13772756748E+03  0.00000000000E+00 0. -1.
          2    1    1    2  501    0  0.16421043278E+03  0.81611660877E+02  0.13880354127E+04  0.14000956526E+04  0.00000000000E+00 0. -1.
<mgrwt>
<rscale>  4 0.22364491E+03</rscale>
<asrwt>0</asrwt>
<pdfrwt beam="1">  1       21 0.15017840E-01 0.22364491E+03</pdfrwt>
<pdfrwt beam="2">  1        2 0.26532929E+00 0.22364491E+03</pdfrwt>
<totfact> 0.51670249E+03</totfact>
</mgrwt>
</event>
<event>
 5    0  0.4115852E+000  0.3746955E+03  0.7546771E-02  0.1052912E+00
         21   -1    0    0  503  502  0.00000000000E+00  0.00000000000E+00  0.19392506691E+03  0.19392506691E+03  0.00000000000E+00 0. -1.
          2   -1    0    0  502    0 -0.00000000000E+00 -0.00000000000E+00 -0.92934218424E+03  0.92934218424E+03  0.00000000000E+00 0. -1.
         25    1    1    2    0    0 -0.34162871856E+03  0.89407952145E+02 -0.11937450690E+03  0.39316565993E+03  0.12500000000E+03 0.  0.
         21    1    1    2  503  501  0.63019369834E+01  0.22349906961E+02 -0.43427163201E+01  0.23623969522E+02  0.00000000000E+00 0.  1.
          2    1    1    2  501    0  0.33532678157E+03 -0.11175785911E+03 -0.61169989410E+03  0.70647762170E+03  0.00000000000E+00 0. -1.
<mgrwt>
<rscale>  4 0.37469553E+03</rscale>
<asrwt>0</asrwt>
<pdfrwt beam="1">  1       21 0.29834626E-01 0.37469553E+03</pdfrwt>
<pdfrwt beam="2">  1        2 0.14297572E+00 0.37469553E+03</pdfrwt>
<totfact> 0.37623545E+03</totfact>
</mgrwt>
</event>
<event>
 5    0  0.4115852E+000  0.3355785E+03  0.7546771E-02  0.1068695E+00
          2   -1    0    0  502    0 -0.00000000000E+00  0.00000000000E+00  0.12525043973E+04  0.12525043973E+04  0.00000000000E+00 0. -1.
         21   -1    0    0  503  502  0.00000000000E+00 -0.00000000000E+00 -0.11054633614E+04  0.11054633614E+04  0.00000000000E+00 0. -1.
         25    1    1    2    0    0  0.26621092233E+03 -0.38555241119E+03 -0.54847048697E+03  0.73209548013E+03  0.12500000000E+03 0.  0.
         21    1    1    2  503  501 -0.63519437074E+02  0.15564885238E+03 -0.42877699099E+03  0.46055509131E+03  0.00000000000E+00 0. -1.
          2    1    1    2  501    0 -0.20269148526E+03  0.22990355882E+03  0.11242885139E+04  0.11653171873E+04  0.00000000000E+00 0. -1.
<mgrwt>
<rscale>  4 0.33557853E+03</rscale>
<asrwt>0</asrwt>
<pdfrwt beam="1">  1       21 0.17007129E+00 0.33557853E+03</pdfrwt>
<pdfrwt beam="2">  1        2 0.19269298E+00 0.33557853E+03</pdfrwt>
<totfact> 0.45207153E+01</totfact>
</mgrwt>
</event>
<event>
 5    0  0.4115852E+000  0.3659955E+03  0.7546771E-02  0.1056235E+00
         -4   -1    0    0    0  501 -0.00000000000E+00  0.00000000000E+00  0.21321475597E+03  0.21321475597E+03  0.00000000000E+00 0.  1.
         21   -1    0    0  501  502  0.00000000000E+00 -0.00000000000E+00 -0.12675713046E+04  0.12675713046E+04  0.00000000000E+00 0. -1.
         25    1    1    2    0    0 -0.34720771566E+03 -0.88332865815E+02 -0.96266542796E+03  0.10347490610E+04  0.12500000000E+03 0.  0.
         21    1    1    2  503  502  0.12535458171E+02  0.19538365532E+02 -0.10160533678E+03  0.10422346137E+03  0.00000000000E+00 0.  1.
         -4    1    1    2    0  503  0.33467225749E+03  0.68794500282E+02  0.99142161421E+01  0.34181353818E+03  0.00000000000E+00 0.  1.
<mgrwt>
<rscale>  4 0.36599555E+03</rscale>
<asrwt>0</asrwt>
<pdfrwt beam="1">  1       21 0.19501096E+00 0.36599555E+03</pdfrwt>
<pdfrwt beam="2">  1       -4 0.32802271E-01 0.36599555E+03</pdfrwt>
<totfact> 0.50970183E+01</totfact>
</mgrwt>
</event>
