<event>
 5    0  0.1200001E+000  0.3588342E+03  0.7546771E-02  0.1059046E+00
         21   -1    0    0  503  501  0.00000000000E+00  0.00000000000E+00  0.52313961970E+03  0.52313961970E+03  0.00000000000E+00 0. -1.
         21   -1    0    0  501  502 -0.00000000000E+00 -0.00000000000E+00 -0.16706674434E+04  0.16706674434E+04  0.00000000000E+00 0.  1.
         25    1    1    2    0    0 -0.39000808438E+02  0.32374076395E+03 -0.87653775716E+03  0.94354257192E+03  0.12500000000E+03 0.  0.
         21    1    1    2  503  504  0.18374796365E+02  0.24635208634E+02  0.44905445215E+03  0.45010490737E+03  0.00000000000E+00 0. -1.
         21    1    1    2  504  502  0.20626012073E+02 -0.34837597259E+03 -0.72004451866E+03  0.80015958377E+03  0.00000000000E+00 0.  1.
<mgrwt>
<rscale>  4 0.35883423E+03</rscale>
<asrwt>0</asrwt>
<pdfrwt beam="1">  1       21 0.80483018E-01 0.35883423E+03</pdfrwt>
<pdfrwt beam="2">  1       21 0.25702576E+00 0.35883423E+03</pdfrwt>
<totfact> 0.67997853E+01</totfact>
</mgrwt>
</event>
<event>
 5    0  0.1200001E+000  0.2453926E+03  0.7546771E-02  0.1116252E+00
         21   -1    0    0  502  501  0.00000000000E+00  0.00000000000E+00  0.72473716755E+02  0.72473716755E+02  0.00000000000E+00 0. -1.
         21   -1    0    0  504  502 -0.00000000000E+00 -0.00000000000E+00 -0.15373820794E+04  0.15373820794E+04  0.00000000000E+00 0. -1.
         25    1    1    2    0    0 -0.16474363919E+03 -0.15637562031E+03 -0.12025911548E+04  0.12302212349E+04  0.12500000000E+03 0.  0.
         21    1    1    2  503  501  0.12231404195E+03  0.16958225150E+03 -0.14572762376E+03  0.25486350309E+03  0.00000000000E+00 0. -1.
         21    1    1    2  504  503  0.42429597245E+02 -0.13206631194E+02 -0.11658958413E+03  0.12477105817E+03  0.00000000000E+00 0.  1.
<mgrwt>
<rscale>  4 0.24539259E+03</rscale>
<asrwt>0</asrwt>
<pdfrwt beam="1">  1       21 0.11149803E-01 0.24539259E+03</pdfrwt>
<pdfrwt beam="2">  1       21 0.23652031E+00 0.24539259E+03</pdfrwt>
<totfact> 0.50979777E+03</totfact>
</mgrwt>
</event>
<event>
 5    0  0.1200001E+000  0.2390453E+03  0.7546771E-02  0.1120430E+00
         21   -1    0    0  503  501  0.00000000000E+00  0.00000000000E+00  0.14558293139E+04  0.14558293139E+04  0.00000000000E+00 0.  1.
         21   -1    0    0  504  502 -0.00000000000E+00 -0.00000000000E+00 -0.20430166074E+03  0.20430166074E+03  0.00000000000E+00 0.  1.
         25    1    1    2    0    0 -0.16359287998E+03 -0.12476331346E+03 -0.12089372835E+03  0.26938598390E+03  0.12500000000E+03 0.  0.
         21    1    1    2  503  502  0.14905018503E+03  0.99882218857E+02  0.91553406098E+03  0.93294964072E+03  0.00000000000E+00 0.  1.
         21    1    1    2  504  501  0.14542694948E+02  0.24881094606E+02  0.45688732050E+03  0.45779534999E+03  0.00000000000E+00 0.  1.
<mgrwt>
<rscale>  4 0.23904527E+03</rscale>
<asrwt>0</asrwt>
<pdfrwt beam="1">  1       21 0.22397373E+00 0.23904527E+03</pdfrwt>
<pdfrwt beam="2">  1       21 0.31431026E-01 0.23904527E+03</pdfrwt>
<totfact> 0.88001535E+02</totfact>
</mgrwt>
</event>
<event>
 5    0  0.1200001E+000  0.2301691E+03  0.7546771E-02  0.1126521E+00
         21   -1    0    0  502  501  0.00000000000E+00  0.00000000000E+00  0.10808724668E+03  0.10808724668E+03  0.00000000000E+00 0.  1.
         21   -1    0    0  503  502 -0.00000000000E+00 -0.00000000000E+00 -0.12719081921E+04  0.12719081921E+04  0.00000000000E+00 0. -1.
         25    1    1    2    0    0  0.70186971203E+02  0.20454153784E+03 -0.10314205597E+04  0.10612336324E+04  0.12500000000E+03 0.  0.
         21    1    1    2  503  504  0.18677080814E+02 -0.35182812880E+02 -0.12074999758E+03  0.12715040537E+03  0.00000000000E+00 0. -1.
         21    1    1    2  504  501 -0.88864052017E+02 -0.16935872496E+03 -0.11650388201E+02  0.19161140104E+03  0.00000000000E+00 0.  1.
<mgrwt>
<rscale>  4 0.23016906E+03</rscale>
<asrwt>0</asrwt>
<pdfrwt beam="1">  1       21 0.16628807E-01 0.23016906E+03</pdfrwt>
<pdfrwt beam="2">  1       21 0.19567818E+00 0.23016906E+03</pdfrwt>
<totfact> 0.45017576E+03</totfact>
</mgrwt>
</event>
<event>
 5    0  0.1200001E+000  0.2444976E+03  0.7546771E-02  0.1116832E+00
         21   -1    0    0  502  501  0.00000000000E+00  0.00000000000E+00  0.75111161348E+03  0.75111161348E+03  0.00000000000E+00 0. -1.
         21   -1    0    0  503  502 -0.00000000000E+00 -0.00000000000E+00 -0.16355897417E+03  0.16355897417E+03  0.00000000000E+00 0.  1.
         25    1    1    2    0    0 -0.10642862007E+03 -0.18341667203E+03 -0.39292193577E+02  0.24927415274E+03  0.12500000000E+03 0.  0.
         21    1    1    2  503  504  0.21598661436E+02  0.26328487624E+01  0.40451411313E+02  0.45932023095E+02  0.00000000000E+00 0. -1.
         21    1    1    2  504  501  0.84829958637E+02  0.18078382327E+03  0.58639342157E+03  0.61946441181E+03  0.00000000000E+00 0. -1.
<mgrwt>
<rscale>  4 0.24449757E+03</rscale>
<asrwt>0</asrwt>
<pdfrwt beam="1">  1       21 0.11555563E+00 0.24449757E+03</pdfrwt>
<pdfrwt beam="2">  1       21 0.25162920E-01 0.24449757E+03</pdfrwt>
<totfact> 0.83692627E+03</totfact>
</mgrwt>
</event>
<event>
 5    0  0.1200001E+000  0.2449835E+03  0.7546771E-02  0.1116517E+00
         21   -1    0    0  503  501  0.00000000000E+00  0.00000000000E+00  0.75744670158E+02  0.75744670158E+02  0.00000000000E+00 0.  1.
         21   -1    0    0  501  502 -0.00000000000E+00 -0.00000000000E+00 -0.15761099065E+04  0.15761099065E+04  0.00000000000E+00 0.  1.
         25    1    1    2    0    0  0.18722392928E+03 -0.10345833209E+03 -0.13582444387E+04  0.13806554174E+04  0.12500000000E+03 0.  0.
         21    1    1    2  503  504 -0.26287983324E+02 -0.10523065708E+02 -0.34961727559E+00  0.28318107482E+02  0.00000000000E+00 0. -1.
         21    1    1    2  504  502 -0.16093594596E+03  0.11398139780E+03 -0.14177118030E+03  0.24288105177E+03  0.00000000000E+00 0.  1.
<mgrwt>
<rscale>  4 0.24498352E+03</rscale>
<asrwt>0</asrwt>
<pdfrwt beam="1">  1       21 0.11653028E-01 0.24498352E+03</pdfrwt>
<pdfrwt beam="2">  1       21 0.24247842E+00 0.24498352E+03</pdfrwt>
<totfact> 0.43377198E+03</totfact>
</mgrwt>
</event>
<event>
 5    0  0.1200001E+000  0.3801202E+03  0.7546771E-02  0.1050889E+00
         21   -1    0    0  503  501  0.00000000000E+00  0.00000000000E+00  0.58309092130E+03  0.58309092130E+03  0.00000000000E+00 0.  1.
         21   -1    0    0  501  502 -0.00000000000E+00 -0.00000000000E+00 -0.14019293957E+04  0.14019293957E+04  0.00000000000E+00 0.  1.
         25    1    1    2    0    0  0.23977612449E+03  0.24748259693E+03 -0.35274614403E+03  0.50871904603E+03  0.12500000000E+03 0.  0.
         21    1    1    2  503  504  0.19463517668E+02  0.99464244341E+01  0.47048340824E+03  0.47099086754E+03  0.00000000000E+00 0.  1.
         21    1    1    2  504  502 -0.25923964216E+03 -0.25742902137E+03 -0.93657573864E+03  0.10053104035E+04  0.00000000000E+00 0.  1.
<mgrwt>
<rscale>  4 0.38012017E+03</rscale>
<asrwt>0</asrwt>
<pdfrwt beam="1">  1       21 0.89706297E-01 0.38012017E+03</pdfrwt>
<pdfrwt beam="2">  1       21 0.21568144E+00 0.38012017E+03</pdfrwt>
<totfact> 0.93710672E+01</totfact>
</mgrwt>
</event>
<event>
 5    0  0.1200001E+000  0.2387388E+03  0.7546771E-02  0.1120636E+00
         21   -1    0    0  503  501  0.00000000000E+00  0.00000000000E+00  0.13767217062E+03  0.13767217062E+03  0.00000000000E+00 0. -1.
         21   -1    0    0  504  502 -0.00000000000E+00 -0.00000000000E+00 -0.52634635814E+03  0.52634635814E+03  0.00000000000E+00 0. -1.
         25    1    1    2    0    0 -0.20255885149E+03  0.18469548674E+02 -0.38321571135E+03  0.45149805533E+03  0.12500000000E+03 0.  0.
         21    1    1    2  503  502  0.56801119776E+02  0.27286519143E+00  0.25620114279E+02  0.62312373722E+02  0.00000000000E+00 0.  1.
         21    1    1    2  504  501  0.14575773172E+03 -0.18742413865E+02 -0.31078590456E+02  0.15020809971E+03  0.00000000000E+00 0. -1.
<mgrwt>
<rscale>  4 0.23873880E+03</rscale>
<asrwt>0</asrwt>
<pdfrwt beam="1">  1       21 0.21180334E-01 0.23873880E+03</pdfrwt>
<pdfrwt beam="2">  1       21 0.80976362E-01 0.23873880E+03</pdfrwt>
<totfact> 0.27068271E+04</totfact>
</mgrwt>
</event>
<event>
 5    0  0.1200001E+000  0.2571888E+03  0.7546771E-02  0.1108844E+00
         21   -1    0    0  503  501  0.00000000000E+00  0.00000000000E+00  0.34723503030E+04  0.34723503030E+04  0.00000000000E+00 0. -1.
         21   -1    0    0  501  502 -0.00000000000E+00 -0.00000000000E+00 -0.64382533615E+03  0.64382533615E+03  0.00000000000E+00 0.  1.
         25    1    1    2    0    0 -0.35953871690E+02 -0.22338428385E+03 -0.60011902231E+03  0.65342257391E+03  0.12500000000E+03 0.  0.
         21    1    1    2  503  504  0.57565917992E+02  0.25948219146E+02  0.28550017534E+04  0.28556999416E+04  0.00000000000E+00 0. -1.
         21    1    1    2  504  502 -0.21612046302E+02  0.19743606471E+03  0.57364223578E+03  0.60705312359E+03  0.00000000000E+00 0.  1.
<mgrwt>
<rscale>  4 0.25718882E+03</rscale>
<asrwt>0</asrwt>
<pdfrwt beam="1">  1       21 0.53420773E+00 0.25718882E+03</pdfrwt>
<pdfrwt beam="2">  1       21 0.99050054E-01 0.25718882E+03</pdfrwt>
<totfact> 0.78817261E-01</totfact>
</mgrwt>
</event>
<event>
 5    0  0.1200001E+000  0.2423135E+03  0.7546771E-02  0.1118261E+00
         21   -1    0    0  503  501  0.00000000000E+00  0.00000000000E+00  0.29202896977E+04  0.29202896977E+04  0.00000000000E+00 0. -1.
         21   -1    0    0  501  502 -0.00000000000E+00 -0.00000000000E+00 -0.84896150709E+02  0.84896150709E+02  0.00000000000E+00 0. -1.
         25    1    1    2    0    0 -0.19495242780E+03 -0.74872040505E+02  0.11799437089E+03  0.27048094779E+03  0.12500000000E+03 0.  0.
         21    1    1    2  503  504  0.43793529714E+02 -0.65214220409E+02  0.36838008221E+03  0.37666251839E+03  0.00000000000E+00 0. -1.
         21    1    1    2  504  502  0.15115889808E+03  0.14008626091E+03  0.23490190939E+04  0.23580423822E+04  0.00000000000E+00 0. -1.
<mgrwt>
<rscale>  4 0.24231353E+03</rscale>
<asrwt>0</asrwt>
<pdfrwt beam="1">  1       21 0.44927526E+00 0.24231353E+03</pdfrwt>
<pdfrwt beam="2">  1       21 0.13060949E-01 0.24231353E+03</pdfrwt>
<totfact> 0.19598384E+02</totfact>
</mgrwt>
</event>
<event>
 5    0  0.1200001E+000  0.2694186E+03  0.7546771E-02  0.1101613E+00
         21   -1    0    0  503  501  0.00000000000E+00  0.00000000000E+00  0.57697475908E+03  0.57697475908E+03  0.00000000000E+00 0.  1.
         21   -1    0    0  504  502 -0.00000000000E+00 -0.00000000000E+00 -0.39610003272E+03  0.39610003272E+03  0.00000000000E+00 0.  1.
         25    1    1    2    0    0  0.10641203344E+03  0.21363023681E+03 -0.31932753417E+03  0.41779956082E+03  0.12500000000E+03 0.  0.
         21    1    1    2  503  502 -0.90751178341E+02 -0.18731451334E+03  0.45854385405E+03  0.50357220869E+03  0.00000000000E+00 0.  1.
         21    1    1    2  504  501 -0.15660855102E+02 -0.26315723466E+02  0.41658406475E+02  0.51703022292E+02  0.00000000000E+00 0.  1.
<mgrwt>
<rscale>  4 0.26941863E+03</rscale>
<asrwt>0</asrwt>
<pdfrwt beam="1">  1       21 0.88765348E-01 0.26941863E+03</pdfrwt>
<pdfrwt beam="2">  1       21 0.60938466E-01 0.26941863E+03</pdfrwt>
<totfact> 0.25661116E+03</totfact>
</mgrwt>
</event>
<event>
 5    0  0.1200001E+000  0.2754449E+03  0.7546771E-02  0.1098203E+00
         21   -1    0    0  503  501  0.00000000000E+00  0.00000000000E+00  0.18605365741E+04  0.18605365741E+04  0.00000000000E+00 0.  1.
         21   -1    0    0  504  502 -0.00000000000E+00 -0.00000000000E+00 -0.85611022600E+02  0.85611022600E+02  0.00000000000E+00 0.  1.
         25    1    1    2    0    0 -0.21939045404E+03  0.11192243423E+03  0.19060671203E+03  0.33558116944E+03  0.12500000000E+03 0.  0.
         21    1    1    2  503  502  0.23033975912E+03 -0.79232906172E+02  0.11858555181E+04  0.12106145414E+04  0.00000000000E+00 0.  1.
         21    1    1    2  504  501 -0.10949305076E+02 -0.32689528059E+02  0.39846332146E+03  0.39995188595E+03  0.00000000000E+00 0.  1.
<mgrwt>
<rscale>  4 0.27544489E+03</rscale>
<asrwt>0</asrwt>
<pdfrwt beam="1">  1       21 0.28623637E+00 0.27544489E+03</pdfrwt>
<pdfrwt beam="2">  1       21 0.13170928E-01 0.27544489E+03</pdfrwt>
<totfact> 0.18664528E+03</totfact>
</mgrwt>
</event>
<event>
 5    0  0.1200001E+000  0.2686034E+03  0.7546771E-02  0.1102082E+00
         21   -1    0    0  503  501  0.00000000000E+00  0.00000000000E+00  0.24899324268E+03  0.24899324268E+03  0.00000000000E+00 0.  1.
         21   -1    0    0  504  502 -0.00000000000E+00 -0.00000000000E+00 -0.56873398032E+03  0.56873398032E+03  0.00000000000E+00 0. -1.
         25    1    1    2    0    0  0.23339412476E+03 -0.22560500190E+02  0.60780507129E+02  0.27258221455E+03  0.12500000000E+03 0.  0.
         21    1    1    2  503  502 -0.23854162576E+03 -0.16798429337E+01 -0.42890781375E+03  0.49078186783E+03  0.00000000000E+00 0. -1.
         21    1    1    2  504  501  0.51475009962E+01  0.24240343124E+02  0.48386568977E+02  0.54363140625E+02  0.00000000000E+00 0.  1.
<mgrwt>
<rscale>  4 0.26860338E+03</rscale>
<asrwt>0</asrwt>
<pdfrwt beam="1">  1       21 0.38306653E-01 0.26860338E+03</pdfrwt>
<pdfrwt beam="2">  1       21 0.87497534E-01 0.26860338E+03</pdfrwt>
<totfact> 0.70169357E+03</totfact>
</mgrwt>
</event>
<event>
 5    0  0.1200001E+000  0.2767535E+03  0.7546771E-02  0.1097475E+00
         21   -1    0    0  503  501  0.00000000000E+00  0.00000000000E+00  0.13929441536E+03  0.13929441536E+03  0.00000000000E+00 0.  1.
         21   -1    0    0  501  502 -0.00000000000E+00 -0.00000000000E+00 -0.56951846785E+03  0.56951846785E+03  0.00000000000E+00 0.  1.
         25    1    1    2    0    0 -0.23101648007E+03 -0.49502396677E+02 -0.24546784630E+03  0.36290296900E+03  0.12500000000E+03 0.  0.
         21    1    1    2  503  504 -0.18486963664E+02 -0.21455921018E+02 -0.15991493322E+01  0.28366911196E+02  0.00000000000E+00 0.  1.
         21    1    1    2  504  502  0.24950344373E+03  0.70958317695E+02 -0.18315705686E+03  0.31754300301E+03  0.00000000000E+00 0.  1.
<mgrwt>
<rscale>  4 0.27675347E+03</rscale>
<asrwt>0</asrwt>
<pdfrwt beam="1">  1       21 0.21429910E-01 0.27675347E+03</pdfrwt>
<pdfrwt beam="2">  1       21 0.87618226E-01 0.27675347E+03</pdfrwt>
<totfact> 0.21700532E+04</totfact>
</mgrwt>
</event>
<event>
 5    0  0.1200001E+000  0.3721602E+03  0.7546771E-02  0.1053870E+00
         21   -1    0    0  503  501  0.00000000000E+00  0.00000000000E+00  0.86934163214E+03  0.86934163214E+03  0.00000000000E+00 0.  1.
         21   -1    0    0  504  502 -0.00000000000E+00 -0.00000000000E+00 -0.25312369931E+03  0.25312369931E+03  0.00000000000E+00 0.  1.
         25    1    1    2    0    0 -0.26788959413E+03 -0.22337967254E+03  0.16553387302E+03  0.40581988106E+03  0.12500000000E+03 0.  0.
         21    1    1    2  503  502  0.21904169706E+03  0.28025160482E+03  0.11670176624E+03  0.37435214611E+03  0.00000000000E+00 0.  1.
         21    1    1    2  504  501  0.48847897077E+02 -0.56871932287E+02  0.33398229357E+03  0.34229330427E+03  0.00000000000E+00 0.  1.
<mgrwt>
<rscale>  4 0.37216020E+03</rscale>
<asrwt>0</asrwt>
<pdfrwt beam="1">  1       21 0.13374486E+00 0.37216020E+03</pdfrwt>
<pdfrwt beam="2">  1       21 0.38942108E-01 0.37216020E+03</pdfrwt>
<totfact> 0.22744887E+03</totfact>
</mgrwt>
</event>
<event>
 5    0  0.1200001E+000  0.2573884E+03  0.7546771E-02  0.1108723E+00
         21   -1    0    0  503  501  0.00000000000E+00  0.00000000000E+00  0.19436644517E+03  0.19436644517E+03  0.00000000000E+00 0.  1.
         21   -1    0    0  504  502 -0.00000000000E+00 -0.00000000000E+00 -0.86258404733E+03  0.86258404733E+03  0.00000000000E+00 0.  1.
         25    1    1    2    0    0  0.16469557446E+03 -0.17470085380E+03 -0.61857938059E+03  0.67521142663E+03  0.12500000000E+03 0.  0.
         21    1    1    2  503  502  0.37138041371E+02  0.75727841831E+02 -0.11956426770E+03  0.14632004051E+03  0.00000000000E+00 0. -1.
         21    1    1    2  504  501 -0.20183361583E+03  0.98973011970E+02  0.69926046120E+02  0.23541902536E+03  0.00000000000E+00 0.  1.
<mgrwt>
<rscale>  4 0.25738843E+03</rscale>
<asrwt>0</asrwt>
<pdfrwt beam="1">  1       21 0.29902530E-01 0.25738843E+03</pdfrwt>
<pdfrwt beam="2">  1       21 0.13270524E+00 0.25738843E+03</pdfrwt>
<totfact> 0.41930354E+03</totfact>
</mgrwt>
</event>
<event>
 5    0  0.1200001E+000  0.4194640E+03  0.7546771E-02  0.1037241E+00
         21   -1    0    0  502  501  0.00000000000E+00  0.00000000000E+00  0.92990342506E+03  0.92990342506E+03  0.00000000000E+00 0.  1.
         21   -1    0    0  504  502 -0.00000000000E+00 -0.00000000000E+00 -0.35420644407E+03  0.35420644407E+03  0.00000000000E+00 0.  1.
         25    1    1    2    0    0  0.25421718837E+03 -0.41560283764E+02  0.57277544445E+01  0.28637640130E+03  0.12500000000E+03 0.  0.
         21    1    1    2  503  501 -0.52551983539E+03 -0.24640546123E+02  0.45562327416E+03  0.69596754368E+03  0.00000000000E+00 0.  1.
         21    1    1    2  504  503  0.27130264701E+03  0.66200829887E+02  0.11434595239E+03  0.30176592416E+03  0.00000000000E+00 0.  1.
<mgrwt>
<rscale>  4 0.41946395E+03</rscale>
<asrwt>0</asrwt>
<pdfrwt beam="1">  1       21 0.14306206E+00 0.41946395E+03</pdfrwt>
<pdfrwt beam="2">  1       21 0.54493299E-01 0.41946395E+03</pdfrwt>
<totfact> 0.92083091E+02</totfact>
</mgrwt>
</event>
<event>
 5    0  0.1200001E+000  0.2493274E+03  0.7546771E-02  0.1113731E+00
         21   -1    0    0  502  501  0.00000000000E+00  0.00000000000E+00  0.53337587135E+03  0.53337587135E+03  0.00000000000E+00 0.  1.
         21   -1    0    0  503  502 -0.00000000000E+00 -0.00000000000E+00 -0.17588336008E+04  0.17588336008E+04  0.00000000000E+00 0. -1.
         25    1    1    2    0    0 -0.20652616237E+03  0.69284029199E+02 -0.17076971040E+04  0.17260671283E+04  0.12500000000E+03 0.  0.
         21    1    1    2  503  504  0.16270216623E+03 -0.59463602046E+02  0.14493985117E+03  0.22586605615E+03  0.00000000000E+00 0.  1.
         21    1    1    2  504  501  0.43823996139E+02 -0.98204271528E+01  0.33729952342E+03  0.34027628763E+03  0.00000000000E+00 0.  1.
<mgrwt>
<rscale>  4 0.24932741E+03</rscale>
<asrwt>0</asrwt>
<pdfrwt beam="1">  1       21 0.82057829E-01 0.24932741E+03</pdfrwt>
<pdfrwt beam="2">  1       21 0.27058978E+00 0.24932741E+03</pdfrwt>
<totfact> 0.60330856E+01</totfact>
</mgrwt>
</event>
<event>
 5    0  0.1200001E+000  0.3716994E+03  0.7546771E-02  0.1054045E+00
         21   -1    0    0  503  501  0.00000000000E+00  0.00000000000E+00  0.17297325527E+03  0.17297325527E+03  0.00000000000E+00 0. -1.
         21   -1    0    0  501  502 -0.00000000000E+00 -0.00000000000E+00 -0.84624484742E+03  0.84624484742E+03  0.00000000000E+00 0.  1.
         25    1    1    2    0    0 -0.77830416142E+02  0.34143692200E+03 -0.44881044412E+03  0.58283150235E+03  0.12500000000E+03 0.  0.
         21    1    1    2  503  504 -0.21001679619E+02 -0.54316598559E+01 -0.27384796713E+01  0.21864874720E+02  0.00000000000E+00 0.  1.
         21    1    1    2  504  502  0.98832095761E+02 -0.33600526214E+03 -0.22172266836E+03  0.41452172562E+03  0.00000000000E+00 0. -1.
<mgrwt>
<rscale>  4 0.37169940E+03</rscale>
<asrwt>0</asrwt>
<pdfrwt beam="1">  1       21 0.26611270E-01 0.37169940E+03</pdfrwt>
<pdfrwt beam="2">  1       21 0.13019152E+00 0.37169940E+03</pdfrwt>
<totfact> 0.52152102E+03</totfact>
</mgrwt>
</event>
<event>
 5    0  0.1200001E+000  0.3357981E+03  0.7546771E-02  0.1068600E+00
         21   -1    0    0  503  501  0.00000000000E+00  0.00000000000E+00  0.13590858808E+04  0.13590858808E+04  0.00000000000E+00 0.  1.
         21   -1    0    0  504  502 -0.00000000000E+00 -0.00000000000E+00 -0.15213344114E+03  0.15213344114E+03  0.00000000000E+00 0. -1.
         25    1    1    2    0    0  0.32824191978E+03 -0.18040072328E+03  0.30121786977E+03  0.49663304756E+03  0.12500000000E+03 0.  0.
         21    1    1    2  503  502 -0.22558802403E+03  0.12531577666E+03  0.29113166356E+03  0.38903938874E+03  0.00000000000E+00 0. -1.
         21    1    1    2  504  501 -0.10265389575E+03  0.55084946627E+02  0.61460290634E+03  0.62554688565E+03  0.00000000000E+00 0.  1.
<mgrwt>
<rscale>  4 0.33579806E+03</rscale>
<asrwt>0</asrwt>
<pdfrwt beam="1">  1       21 0.20909013E+00 0.33579806E+03</pdfrwt>
<pdfrwt beam="2">  1       21 0.23405146E-01 0.33579806E+03</pdfrwt>
<totfact> 0.17997199E+03</totfact>
</mgrwt>
</event>
<event>
 5    0  0.1200001E+000  0.3970168E+03  0.7546771E-02  0.1044818E+00
         21   -1    0    0  503  501  0.00000000000E+00  0.00000000000E+00  0.52312992714E+03  0.52312992714E+03  0.00000000000E+00 0.  1.
         21   -1    0    0  501  502 -0.00000000000E+00 -0.00000000000E+00 -0.40761745820E+03  0.40761745820E+03  0.00000000000E+00 0. -1.
         25    1    1    2    0    0  0.55818929051E+02  0.37491780040E+03 -0.15388726160E+03  0.42776792678E+03  0.12500000000E+03 0.  0.
         21    1    1    2  503  504  0.48381963601E+02 -0.15981570422E+02  0.34610980003E+02  0.61596630848E+02  0.00000000000E+00 0.  1.
         21    1    1    2  504  502 -0.10420089265E+03 -0.35893622998E+03  0.23478875054E+03  0.44138282771E+03  0.00000000000E+00 0.  1.
<mgrwt>
<rscale>  4 0.39701679E+03</rscale>
<asrwt>0</asrwt>
<pdfrwt beam="1">  1       21 0.80481527E-01 0.39701679E+03</pdfrwt>
<pdfrwt beam="2">  1       21 0.62710379E-01 0.39701679E+03</pdfrwt>
<totfact> 0.28356429E+03</totfact>
</mgrwt>
</event>
<event>
 5    0  0.1200001E+000  0.2668741E+03  0.7546771E-02  0.1103082E+00
         21   -1    0    0  503  501  0.00000000000E+00  0.00000000000E+00  0.22551180879E+04  0.22551180879E+04  0.00000000000E+00 0. -1.
         21   -1    0    0  504  502 -0.00000000000E+00 -0.00000000000E+00 -0.34205612972E+02  0.34205612972E+02  0.00000000000E+00 0. -1.
         25    1    1    2    0    0  0.22595935110E+03  0.42203219024E+02  0.74887918512E+03  0.79327408502E+03  0.12500000000E+03 0.  0.
         21    1    1    2  503  502 -0.22908222930E+03 -0.67893334999E+02  0.13760125569E+04  0.13966025668E+04  0.00000000000E+00 0. -1.
         21    1    1    2  504  501  0.31228781992E+01  0.25690115975E+02  0.96020732863E+02  0.99447049059E+02  0.00000000000E+00 0.  1.
<mgrwt>
<rscale>  4 0.26687413E+03</rscale>
<asrwt>0</asrwt>
<pdfrwt beam="1">  1       21 0.34694113E+00 0.26687413E+03</pdfrwt>
<pdfrwt beam="2">  1       21 0.52624038E-02 0.26687413E+03</pdfrwt>
<totfact> 0.41463709E+03</totfact>
</mgrwt>
</event>
<event>
 5    0  0.1200001E+000  0.2522597E+03  0.7546771E-02  0.1111885E+00
         21   -1    0    0  503  501  0.00000000000E+00  0.00000000000E+00  0.65655872227E+03  0.65655872227E+03  0.00000000000E+00 0. -1.
         21   -1    0    0  504  502 -0.00000000000E+00 -0.00000000000E+00 -0.12507002893E+03  0.12507002893E+03  0.00000000000E+00 0. -1.
         25    1    1    2    0    0 -0.97516361589E+02  0.18358886795E+03  0.15348812693E+03  0.28705037593E+03  0.12500000000E+03 0.  0.
         21    1    1    2  503  502  0.12845971899E+03 -0.19280233094E+03  0.17845934831E+03  0.29244209207E+03  0.00000000000E+00 0. -1.
         21    1    1    2  504  501 -0.30943357397E+02  0.92134629968E+01  0.19954121810E+03  0.20213628321E+03  0.00000000000E+00 0. -1.
<mgrwt>
<rscale>  4 0.25225966E+03</rscale>
<asrwt>0</asrwt>
<pdfrwt beam="1">  1       21 0.10100903E+00 0.25225966E+03</pdfrwt>
<pdfrwt beam="2">  1       21 0.19241543E-01 0.25225966E+03</pdfrwt>
<totfact> 0.19226455E+04</totfact>
</mgrwt>
</event>
<event>
 5    0  0.1200001E+000  0.3945977E+03  0.7546771E-02  0.1045667E+00
         21   -1    0    0  503  501  0.00000000000E+00  0.00000000000E+00  0.81441721060E+03  0.81441721060E+03  0.00000000000E+00 0. -1.
         21   -1    0    0  501  502 -0.00000000000E+00 -0.00000000000E+00 -0.21533132128E+03  0.21533132128E+03  0.00000000000E+00 0. -1.
         25    1    1    2    0    0 -0.35330594245E+03 -0.12936446642E+03  0.25662764598E+03  0.47227428770E+03  0.12500000000E+03 0.  0.
         21    1    1    2  503  504  0.11741982078E+02 -0.20130159423E+02  0.12225609210E+03  0.12445742049E+03  0.00000000000E+00 0. -1.
         21    1    1    2  504  502  0.34156396037E+03  0.14949462584E+03  0.22020215124E+03  0.43301682368E+03  0.00000000000E+00 0. -1.
<mgrwt>
<rscale>  4 0.39459771E+03</rscale>
<asrwt>0</asrwt>
<pdfrwt beam="1">  1       21 0.12529495E+00 0.39459771E+03</pdfrwt>
<pdfrwt beam="2">  1       21 0.33127896E-01 0.39459771E+03</pdfrwt>
<totfact> 0.36964539E+03</totfact>
</mgrwt>
</event>
<event>
 5    0  0.1200001E+000  0.2412338E+03  0.7546771E-02  0.1118974E+00
         21   -1    0    0  502  501  0.00000000000E+00  0.00000000000E+00  0.64133606782E+03  0.64133606782E+03  0.00000000000E+00 0.  1.
         21   -1    0    0  504  502 -0.00000000000E+00 -0.00000000000E+00 -0.15919446100E+03  0.15919446100E+03  0.00000000000E+00 0. -1.
         25    1    1    2    0    0 -0.17366287820E+03 -0.14304307128E+03 -0.62344624435E+01  0.25745676148E+03  0.12500000000E+03 0.  0.
         21    1    1    2  503  501  0.15751924386E+03  0.12865414456E+03  0.47719575825E+03  0.51872920950E+03  0.00000000000E+00 0.  1.
         21    1    1    2  504  503  0.16143634343E+02  0.14388926718E+02  0.11180311022E+02  0.24344557841E+02  0.00000000000E+00 0. -1.
<mgrwt>
<rscale>  4 0.24123375E+03</rscale>
<asrwt>0</asrwt>
<pdfrwt beam="1">  1       21 0.98667086E-01 0.24123375E+03</pdfrwt>
<pdfrwt beam="2">  1       21 0.24491456E-01 0.24123375E+03</pdfrwt>
<totfact> 0.12951900E+04</totfact>
</mgrwt>
</event>
<event>
 5    0  0.1440814E+000  0.2509015E+03  0.7546771E-02  0.1112736E+00
         21   -1    0    0  503  501  0.00000000000E+00  0.00000000000E+00  0.72819373002E+02  0.72819373002E+02  0.00000000000E+00 0.  1.
         21   -1    0    0  504  502 -0.00000000000E+00 -0.00000000000E+00 -0.77893915961E+03  0.77893915961E+03  0.00000000000E+00 0.  1.
         25    1    1    2    0    0 -0.21233370666E+03 -0.47338618148E+02 -0.42885705553E+03  0.49686006263E+03  0.12500000000E+03 0.  0.
         21    1    1    2  503  502  0.18971555468E+03  0.36863654919E+02 -0.26235582416E+03  0.32585502791E+03  0.00000000000E+00 0.  1.
         21    1    1    2  504  501  0.22618151987E+02  0.10474963229E+02 -0.14906906912E+02  0.29043442076E+02  0.00000000000E+00 0. -1.
<mgrwt>
<rscale>  4 0.25090147E+03</rscale>
<asrwt>0</asrwt>
<pdfrwt beam="1">  1       21 0.11202982E-01 0.25090147E+03</pdfrwt>
<pdfrwt beam="2">  1       21 0.11983678E+00 0.25090147E+03</pdfrwt>
<totfact> 0.34098818E+04</totfact>
</mgrwt>
</event>
<event>
 5    0  0.1200001E+000  0.2689292E+03  0.7546771E-02  0.1101894E+00
         21   -1    0    0  503  501  0.00000000000E+00  0.00000000000E+00  0.14355516986E+03  0.14355516986E+03  0.00000000000E+00 0.  1.
         21   -1    0    0  501  502 -0.00000000000E+00 -0.00000000000E+00 -0.71075866179E+03  0.71075866179E+03  0.00000000000E+00 0.  1.
         25    1    1    2    0    0 -0.22033750556E+03 -0.20988705743E+02 -0.38035770094E+03  0.45747800252E+03  0.12500000000E+03 0.  0.
         21    1    1    2  503  504 -0.41092680407E+02 -0.47725295145E+02  0.81910175178E+01  0.63509093425E+02  0.00000000000E+00 0. -1.
         21    1    1    2  504  502  0.26143018597E+03  0.68714000888E+02 -0.19503680851E+03  0.33332673569E+03  0.00000000000E+00 0.  1.
<mgrwt>
<rscale>  4 0.26892919E+03</rscale>
<asrwt>0</asrwt>
<pdfrwt beam="1">  1       21 0.22085411E-01 0.26892919E+03</pdfrwt>
<pdfrwt beam="2">  1       21 0.10934749E+00 0.26892919E+03</pdfrwt>
<totfact> 0.12129198E+04</totfact>
</mgrwt>
</event>
<event>
 5    0  0.1200001E+000  0.3352214E+03  0.7546771E-02  0.1068850E+00
         21   -1    0    0  503  501  0.00000000000E+00  0.00000000000E+00  0.25892277588E+03  0.25892277588E+03  0.00000000000E+00 0.  1.
         21   -1    0    0  501  502 -0.00000000000E+00 -0.00000000000E+00 -0.46943864759E+03  0.46943864759E+03  0.00000000000E+00 0.  1.
         25    1    1    2    0    0  0.21686577813E+03  0.22847435758E+03 -0.18545579761E+03  0.38632907044E+03  0.12500000000E+03 0.  0.
         21    1    1    2  503  504  0.10895552149E+02 -0.23582259013E+02  0.19456071001E+02  0.32455734402E+02  0.00000000000E+00 0. -1.
         21    1    1    2  504  502 -0.22776133028E+03 -0.20489209857E+03 -0.44516145110E+02  0.30957661863E+03  0.00000000000E+00 0.  1.
<mgrwt>
<rscale>  4 0.33522141E+03</rscale>
<asrwt>0</asrwt>
<pdfrwt beam="1">  1       21 0.39834274E-01 0.33522141E+03</pdfrwt>
<pdfrwt beam="2">  1       21 0.72221330E-01 0.33522141E+03</pdfrwt>
<totfact> 0.97367441E+03</totfact>
</mgrwt>
</event>
<event>
 5    0  0.1200001E+000  0.3158282E+03  0.7546771E-02  0.1077585E+00
         21   -1    0    0  503  501  0.00000000000E+00  0.00000000000E+00  0.71250602104E+03  0.71250602104E+03  0.00000000000E+00 0. -1.
         21   -1    0    0  504  502 -0.00000000000E+00 -0.00000000000E+00 -0.28775629443E+03  0.28775629443E+03  0.00000000000E+00 0.  1.
         25    1    1    2    0    0 -0.82486606915E+02  0.28212964179E+03 -0.14575388356E+03  0.35109880329E+03  0.12500000000E+03 0.  0.
         21    1    1    2  503  502  0.96938953886E+02 -0.25396917817E+03  0.46103832986E+03  0.53521383189E+03  0.00000000000E+00 0. -1.
         21    1    1    2  504  501 -0.14452346971E+02 -0.28160463623E+02  0.10946528032E+03  0.11394968029E+03  0.00000000000E+00 0.  1.
<mgrwt>
<rscale>  4 0.31582816E+03</rscale>
<asrwt>0</asrwt>
<pdfrwt beam="1">  1       21 0.10961631E+00 0.31582816E+03</pdfrwt>
<pdfrwt beam="2">  1       21 0.44270199E-01 0.31582816E+03</pdfrwt>
<totfact> 0.29685081E+03</totfact>
</mgrwt>
</event>
<event>
 5    0  0.1200001E+000  0.1982458E+03  0.7546771E-02  0.1151228E+00
         21   -1    0    0  503  501  0.00000000000E+00  0.00000000000E+00  0.12807784090E+04  0.12807784090E+04  0.00000000000E+00 0. -1.
         21   -1    0    0  501  502 -0.00000000000E+00 -0.00000000000E+00 -0.96662630977E+02  0.96662630977E+02  0.00000000000E+00 0. -1.
         25    1    1    2    0    0  0.13447292667E+03  0.15295774996E+03  0.57946397886E+03  0.62680343336E+03  0.12500000000E+03 0.  0.
         21    1    1    2  503  504 -0.48330873078E+02 -0.32994729941E+02  0.60003102928E+03  0.60287789941E+03  0.00000000000E+00 0. -1.
         21    1    1    2  504  502 -0.86142053592E+02 -0.11996302002E+03  0.46207699183E+01  0.14775970724E+03  0.00000000000E+00 0. -1.
<mgrwt>
<rscale>  4 0.19824580E+03</rscale>
<asrwt>0</asrwt>
<pdfrwt beam="1">  1       21 0.19704282E+00 0.19824580E+03</pdfrwt>
<pdfrwt beam="2">  1       21 0.14871175E-01 0.19824580E+03</pdfrwt>
<totfact> 0.55622951E+03</totfact>
</mgrwt>
</event>
<event>
 5    0  0.1200001E+000  0.2412715E+03  0.7546771E-02  0.1118949E+00
         21   -1    0    0  503  501  0.00000000000E+00  0.00000000000E+00  0.14223490844E+03  0.14223490844E+03  0.00000000000E+00 0. -1.
         21   -1    0    0  504  502 -0.00000000000E+00 -0.00000000000E+00 -0.59776266296E+03  0.59776266296E+03  0.00000000000E+00 0. -1.
         25    1    1    2    0    0 -0.44093483748E+01  0.20892515855E+03 -0.44061573377E+03  0.50342466078E+03  0.12500000000E+03 0.  0.
         21    1    1    2  503  502  0.33509012543E+02 -0.19791468916E+03 -0.28272360991E+02  0.20271261555E+03  0.00000000000E+00 0. -1.
         21    1    1    2  504  501 -0.29099664168E+02 -0.11010469393E+02  0.13360340247E+02  0.33860295074E+02  0.00000000000E+00 0. -1.
<mgrwt>
<rscale>  4 0.24127154E+03</rscale>
<asrwt>0</asrwt>
<pdfrwt beam="1">  1       21 0.21882294E-01 0.24127154E+03</pdfrwt>
<pdfrwt beam="2">  1       21 0.91963486E-01 0.24127154E+03</pdfrwt>
<totfact> 0.18947423E+04</totfact>
</mgrwt>
</event>
<event>
 5    0  0.1200001E+000  0.2477941E+03  0.7546771E-02  0.1114707E+00
         21   -1    0    0  503  501  0.00000000000E+00  0.00000000000E+00  0.13831825932E+04  0.13831825932E+04  0.00000000000E+00 0.  1.
         21   -1    0    0  501  502 -0.00000000000E+00 -0.00000000000E+00 -0.59753035920E+02  0.59753035920E+02  0.00000000000E+00 0.  1.
         25    1    1    2    0    0 -0.18475137869E+03 -0.89871736445E+02  0.55129589253E+03  0.60146667577E+03  0.12500000000E+03 0.  0.
         21    1    1    2  503  504 -0.30553068276E+01 -0.23660467241E+02  0.45603303793E+03  0.45665663719E+03  0.00000000000E+00 0.  1.
         21    1    1    2  504  502  0.18780668551E+03  0.11353220369E+03  0.31610062686E+03  0.38481231620E+03  0.00000000000E+00 0.  1.
<mgrwt>
<rscale>  4 0.24779410E+03</rscale>
<asrwt>0</asrwt>
<pdfrwt beam="1">  1       21 0.21279730E+00 0.24779410E+03</pdfrwt>
<pdfrwt beam="2">  1       21 0.91927758E-02 0.24779410E+03</pdfrwt>
<totfact> 0.10047248E+04</totfact>
</mgrwt>
</event>
<event>
 5    0  0.1200001E+000  0.2319214E+03  0.7546771E-02  0.1125295E+00
         21   -1    0    0  503  501  0.00000000000E+00  0.00000000000E+00  0.15242269666E+04  0.15242269666E+04  0.00000000000E+00 0. -1.
         21   -1    0    0  501  502 -0.00000000000E+00 -0.00000000000E+00 -0.20250439430E+03  0.20250439430E+03  0.00000000000E+00 0. -1.
         25    1    1    2    0    0 -0.18994245943E+03  0.17454465076E+03  0.16651041011E+03  0.33150367974E+03  0.12500000000E+03 0.  0.
         21    1    1    2  503  504  0.54758949858E+02 -0.57974319645E+02  0.12067905063E+04  0.12094225442E+04  0.00000000000E+00 0. -1.
         21    1    1    2  504  502  0.13518350958E+03 -0.11657033111E+03 -0.51578344073E+02  0.18580513700E+03  0.00000000000E+00 0. -1.
<mgrwt>
<rscale>  4 0.23192142E+03</rscale>
<asrwt>0</asrwt>
<pdfrwt beam="1">  1       21 0.23449645E+00 0.23192142E+03</pdfrwt>
<pdfrwt beam="2">  1       21 0.31154523E-01 0.23192142E+03</pdfrwt>
<totfact> 0.77777972E+02</totfact>
</mgrwt>
</event>
<event>
 5    0  0.1200001E+000  0.3732177E+03  0.7546771E-02  0.1053469E+00
         21   -1    0    0  503  501  0.00000000000E+00  0.00000000000E+00  0.42577045237E+03  0.42577045237E+03  0.00000000000E+00 0. -1.
         21   -1    0    0  504  502 -0.00000000000E+00 -0.00000000000E+00 -0.81746292145E+03  0.81746292145E+03  0.00000000000E+00 0.  1.
         25    1    1    2    0    0 -0.33469283763E+03 -0.11031059348E+03 -0.66781161567E+03  0.76536597561E+03  0.12500000000E+03 0.  0.
         21    1    1    2  503  502  0.34077111661E+03  0.73085510698E+02  0.22695943292E+03  0.41590507328E+03  0.00000000000E+00 0. -1.
         21    1    1    2  504  501 -0.60782789706E+01  0.37225082777E+02  0.49159713668E+02  0.61962324931E+02  0.00000000000E+00 0.  1.
<mgrwt>
<rscale>  4 0.37321768E+03</rscale>
<asrwt>0</asrwt>
<pdfrwt beam="1">  1       21 0.65503146E-01 0.37321768E+03</pdfrwt>
<pdfrwt beam="2">  1       21 0.12576353E+00 0.37321768E+03</pdfrwt>
<totfact> 0.88251806E+02</totfact>
</mgrwt>
</event>
<event>
 5    0  0.1200001E+000  0.2573576E+03  0.7546771E-02  0.1108741E+00
         21   -1    0    0  503  501  0.00000000000E+00  0.00000000000E+00  0.58879588875E+03  0.58879588875E+03  0.00000000000E+00 0. -1.
         21   -1    0    0  504  502 -0.00000000000E+00 -0.00000000000E+00 -0.39027271901E+03  0.39027271901E+03  0.00000000000E+00 0.  1.
         25    1    1    2    0    0 -0.19063342519E+03  0.11744898246E+03 -0.30643921622E+03  0.39958148045E+03  0.12500000000E+03 0.  0.
         21    1    1    2  503  502  0.18500967834E+03 -0.14476495004E+03  0.34673375363E+03  0.41881949304E+03  0.00000000000E+00 0. -1.
         21    1    1    2  504  501  0.56237468492E+01  0.27315967585E+02  0.15822863234E+03  0.16066763428E+03  0.00000000000E+00 0.  1.
<mgrwt>
<rscale>  4 0.25735760E+03</rscale>
<asrwt>0</asrwt>
<pdfrwt beam="1">  1       21 0.90583983E-01 0.25735760E+03</pdfrwt>
<pdfrwt beam="2">  1       21 0.60041957E-01 0.25735760E+03</pdfrwt>
<totfact> 0.25473697E+03</totfact>
</mgrwt>
</event>
<event>
 5    0  0.1200001E+000  0.2359451E+03  0.7546771E-02  0.1122524E+00
         21   -1    0    0  502  501  0.00000000000E+00  0.00000000000E+00  0.15319422685E+04  0.15319422685E+04  0.00000000000E+00 0. -1.
         21   -1    0    0  504  502 -0.00000000000E+00 -0.00000000000E+00 -0.69834058471E+02  0.69834058471E+02  0.00000000000E+00 0. -1.
         25    1    1    2    0    0 -0.16564719556E+03  0.11227685965E+03  0.16720663013E+03  0.28918531043E+03  0.12500000000E+03 0.  0.
         21    1    1    2  503  501  0.27807263226E+02 -0.54564829786E+02  0.27039534370E+03  0.27724394751E+03  0.00000000000E+00 0.  1.
         21    1    1    2  504  503  0.13783993233E+03 -0.57712029862E+02  0.10245062363E+04  0.10353470691E+04  0.00000000000E+00 0. -1.
<mgrwt>
<rscale>  4 0.23594509E+03</rscale>
<asrwt>0</asrwt>
<pdfrwt beam="1">  1       21 0.23568340E+00 0.23594509E+03</pdfrwt>
<pdfrwt beam="2">  1       21 0.10743702E-01 0.23594509E+03</pdfrwt>
<totfact> 0.55529830E+03</totfact>
</mgrwt>
</event>
<event>
 5    0  0.1200001E+000  0.2613452E+03  0.7546771E-02  0.1106338E+00
         21   -1    0    0  503  501  0.00000000000E+00  0.00000000000E+00  0.47860817779E+03  0.47860817779E+03  0.00000000000E+00 0. -1.
         21   -1    0    0  504  502 -0.00000000000E+00 -0.00000000000E+00 -0.26792957443E+03  0.26792957443E+03  0.00000000000E+00 0. -1.
         25    1    1    2    0    0  0.18246898714E+03  0.11363790775E+03 -0.58316577559E+02  0.25541011837E+03  0.12500000000E+03 0.  0.
         21    1    1    2  503  502 -0.15540310318E+03 -0.22469693322E+03  0.10821203851E+03  0.29385146172E+03  0.00000000000E+00 0. -1.
         21    1    1    2  504  501 -0.27065883957E+02  0.11105902547E+03  0.16078314241E+03  0.19727617214E+03  0.00000000000E+00 0. -1.
<mgrwt>
<rscale>  4 0.26134524E+03</rscale>
<asrwt>0</asrwt>
<pdfrwt beam="1">  1       21 0.73632027E-01 0.26134524E+03</pdfrwt>
<pdfrwt beam="2">  1       21 0.41219935E-01 0.26134524E+03</pdfrwt>
<totfact> 0.89966459E+03</totfact>
</mgrwt>
</event>
<event>
 5    0  0.1200001E+000  0.2669886E+03  0.7546771E-02  0.1103016E+00
         21   -1    0    0  503  501  0.00000000000E+00  0.00000000000E+00  0.34348288059E+03  0.34348288059E+03  0.00000000000E+00 0.  1.
         21   -1    0    0  504  502 -0.00000000000E+00 -0.00000000000E+00 -0.92240092889E+03  0.92240092889E+03  0.00000000000E+00 0. -1.
         25    1    1    2    0    0 -0.17194827577E+03 -0.16152922325E+03 -0.85416333699E+03  0.89491782067E+03  0.12500000000E+03 0.  0.
         21    1    1    2  503  502  0.95261880293E+02  0.10921751786E+03  0.11194788649E+03  0.18312733639E+03  0.00000000000E+00 0.  1.
         21    1    1    2  504  501  0.76686395477E+02  0.52311705391E+02  0.16329740220E+03  0.18783865240E+03  0.00000000000E+00 0.  1.
<mgrwt>
<rscale>  4 0.26698858E+03</rscale>
<asrwt>0</asrwt>
<pdfrwt beam="1">  1       21 0.52843520E-01 0.26698858E+03</pdfrwt>
<pdfrwt beam="2">  1       21 0.14190784E+00 0.26698858E+03</pdfrwt>
<totfact> 0.10982449E+03</totfact>
</mgrwt>
</event>
<event>
 5    0  0.1200001E+000  0.3130392E+03  0.7546771E-02  0.1078898E+00
         21   -1    0    0  503  501  0.00000000000E+00  0.00000000000E+00  0.94415026184E+03  0.94415026184E+03  0.00000000000E+00 0.  1.
         21   -1    0    0  504  502 -0.00000000000E+00 -0.00000000000E+00 -0.28975841594E+03  0.28975841594E+03  0.00000000000E+00 0.  1.
         25    1    1    2    0    0  0.25951429354E+02  0.28218853903E+03 -0.15732989284E+03  0.34739249190E+03  0.12500000000E+03 0.  0.
         21    1    1    2  503  502 -0.17039980851E+02 -0.31278121511E+03  0.64822218838E+03  0.71994059129E+03  0.00000000000E+00 0.  1.
         21    1    1    2  504  501 -0.89114485031E+01  0.30592676082E+02  0.16349955036E+03  0.16657559459E+03  0.00000000000E+00 0. -1.
<mgrwt>
<rscale>  4 0.31303915E+03</rscale>
<asrwt>0</asrwt>
<pdfrwt beam="1">  1       21 0.14525389E+00 0.31303915E+03</pdfrwt>
<pdfrwt beam="2">  1       21 0.44578218E-01 0.31303915E+03</pdfrwt>
<totfact> 0.14302667E+03</totfact>
</mgrwt>
</event>
<event>
 5    0  0.1200001E+000  0.2622057E+03  0.7546771E-02  0.1105825E+00
         21   -1    0    0  503  501  0.00000000000E+00  0.00000000000E+00  0.63398081187E+03  0.63398081187E+03  0.00000000000E+00 0. -1.
         21   -1    0    0  504  502 -0.00000000000E+00 -0.00000000000E+00 -0.16042415344E+03  0.16042415344E+03  0.00000000000E+00 0. -1.
         25    1    1    2    0    0 -0.17452561231E+03  0.15411206637E+03  0.89273777638E+01  0.26441334389E+03  0.12500000000E+03 0.  0.
         21    1    1    2  503  502  0.18535356320E+03 -0.12609119344E+03  0.42189193177E+03  0.47775279648E+03  0.00000000000E+00 0. -1.
         21    1    1    2  504  501 -0.10827950888E+02 -0.28020872924E+02  0.42737348900E+02  0.52238824937E+02  0.00000000000E+00 0.  1.
<mgrwt>
<rscale>  4 0.26220574E+03</rscale>
<asrwt>0</asrwt>
<pdfrwt beam="1">  1       21 0.97535508E-01 0.26220574E+03</pdfrwt>
<pdfrwt beam="2">  1       21 0.24680639E-01 0.26220574E+03</pdfrwt>
<totfact> 0.12971324E+04</totfact>
</mgrwt>
</event>
<event>
 5    0  0.1200001E+000  0.3197450E+03  0.7546771E-02  0.1075767E+00
         21   -1    0    0  502  501  0.00000000000E+00  0.00000000000E+00  0.25299718615E+03  0.25299718615E+03  0.00000000000E+00 0. -1.
         21   -1    0    0  503  502 -0.00000000000E+00 -0.00000000000E+00 -0.54406361856E+03  0.54406361856E+03  0.00000000000E+00 0.  1.
         25    1    1    2    0    0  0.18121550424E+03  0.23272389654E+03 -0.32465085540E+03  0.45609499987E+03  0.12500000000E+03 0.  0.
         21    1    1    2  503  504 -0.36438459339E+02  0.24316805894E+02  0.10545243444E+02  0.45058523358E+02  0.00000000000E+00 0.  1.
         21    1    1    2  504  501 -0.14477704490E+03 -0.25704070244E+03  0.23039179544E+02  0.29590728148E+03  0.00000000000E+00 0. -1.
<mgrwt>
<rscale>  4 0.31974499E+03</rscale>
<asrwt>0</asrwt>
<pdfrwt beam="1">  1       21 0.38922644E-01 0.31974499E+03</pdfrwt>
<pdfrwt beam="2">  1       21 0.83702095E-01 0.31974499E+03</pdfrwt>
<totfact> 0.73409724E+03</totfact>
</mgrwt>
</event>
<event>
 5    0  0.1200001E+000  0.2683455E+03  0.7546771E-02  0.1102230E+00
         21   -1    0    0  502  501  0.00000000000E+00  0.00000000000E+00  0.56936416070E+03  0.56936416070E+03  0.00000000000E+00 0.  1.
         21   -1    0    0  503  502 -0.00000000000E+00 -0.00000000000E+00 -0.11618600892E+03  0.11618600892E+03  0.00000000000E+00 0.  1.
         25    1    1    2    0    0  0.87632594742E+02  0.22069175028E+03  0.27590400958E+03  0.38487964717E+03  0.12500000000E+03 0.  0.
         21    1    1    2  503  504 -0.10044772636E+02 -0.20648525456E+02  0.99959691741E+00  0.22983869448E+02  0.00000000000E+00 0. -1.
         21    1    1    2  504  501 -0.77587822106E+02 -0.20004322483E+03  0.17627454529E+03  0.27768665300E+03  0.00000000000E+00 0.  1.
<mgrwt>
<rscale>  4 0.26834552E+03</rscale>
<asrwt>0</asrwt>
<pdfrwt beam="1">  1       21 0.87594485E-01 0.26834552E+03</pdfrwt>
<pdfrwt beam="2">  1       21 0.17874771E-01 0.26834552E+03</pdfrwt>
<totfact> 0.30644196E+04</totfact>
</mgrwt>
</event>
<event>
 5    0  0.1200001E+000  0.3060333E+03  0.7546771E-02  0.1082263E+00
         21   -1    0    0  503  501  0.00000000000E+00  0.00000000000E+00  0.36426369336E+03  0.36426369336E+03  0.00000000000E+00 0. -1.
         21   -1    0    0  504  502 -0.00000000000E+00 -0.00000000000E+00 -0.30247073854E+03  0.30247073854E+03  0.00000000000E+00 0. -1.
         25    1    1    2    0    0  0.35324115224E+02 -0.28605888007E+03 -0.54171075821E+02  0.31880555428E+03  0.12500000000E+03 0.  0.
         21    1    1    2  503  502 -0.25376448337E+01  0.26934050578E+03  0.52285612914E+02  0.27438027081E+03  0.00000000000E+00 0. -1.
         21    1    1    2  504  501 -0.32786470390E+02  0.16718374292E+02  0.63678417725E+02  0.73548606809E+02  0.00000000000E+00 0.  1.
<mgrwt>
<rscale>  4 0.30603331E+03</rscale>
<asrwt>0</asrwt>
<pdfrwt beam="1">  1       21 0.56040568E-01 0.30603331E+03</pdfrwt>
<pdfrwt beam="2">  1       21 0.46533960E-01 0.30603331E+03</pdfrwt>
<totfact> 0.12479851E+04</totfact>
</mgrwt>
</event>
<event>
 5    0  0.1200001E+000  0.2545374E+03  0.7546771E-02  0.1110470E+00
         21   -1    0    0  503  501  0.00000000000E+00  0.00000000000E+00  0.48894534432E+03  0.48894534432E+03  0.00000000000E+00 0.  1.
         21   -1    0    0  504  502 -0.00000000000E+00 -0.00000000000E+00 -0.24149751055E+03  0.24149751055E+03  0.00000000000E+00 0.  1.
         25    1    1    2    0    0  0.21354316147E+03  0.10533069814E+02  0.19144346446E+03  0.31302911599E+03  0.12500000000E+03 0.  0.
         21    1    1    2  503  502 -0.22381889228E+03  0.13039782723E+02 -0.10978977851E+03  0.24963719262E+03  0.00000000000E+00 0.  1.
         21    1    1    2  504  501  0.10275730804E+02 -0.23572852537E+02  0.16579414783E+03  0.16777654626E+03  0.00000000000E+00 0.  1.
<mgrwt>
<rscale>  4 0.25453738E+03</rscale>
<asrwt>0</asrwt>
<pdfrwt beam="1">  1       21 0.75222360E-01 0.25453738E+03</pdfrwt>
<pdfrwt beam="2">  1       21 0.37153463E-01 0.25453738E+03</pdfrwt>
<totfact> 0.10624363E+04</totfact>
</mgrwt>
</event>
<event>
 5    0  0.1340267E+000  0.2311347E+03  0.7546771E-02  0.1125844E+00
         21   -1    0    0  503  501  0.00000000000E+00  0.00000000000E+00  0.39100645288E+03  0.39100645288E+03  0.00000000000E+00 0. -1.
         21   -1    0    0  504  502 -0.00000000000E+00 -0.00000000000E+00 -0.62706668486E+03  0.62706668486E+03  0.00000000000E+00 0.  1.
         25    1    1    2    0    0 -0.20531122253E+03 -0.68616576925E+02 -0.21410901195E+03  0.32913310640E+03  0.12500000000E+03 0.  0.
         21    1    1    2  503  502  0.17328565760E+03  0.65323456391E+02 -0.33042974133E+03  0.37878607029E+03  0.00000000000E+00 0.  1.
         21    1    1    2  504  501  0.32025564930E+02  0.32931205336E+01  0.30847852131E+03  0.31015396106E+03  0.00000000000E+00 0. -1.
<mgrwt>
<rscale>  4 0.23113473E+03</rscale>
<asrwt>0</asrwt>
<pdfrwt beam="1">  1       21 0.60154840E-01 0.23113473E+03</pdfrwt>
<pdfrwt beam="2">  1       21 0.96471796E-01 0.23113473E+03</pdfrwt>
<totfact> 0.22293519E+03</totfact>
</mgrwt>
</event>
<event>
 5    0  0.1200001E+000  0.2364922E+03  0.7546771E-02  0.1122152E+00
         21   -1    0    0  503  501  0.00000000000E+00  0.00000000000E+00  0.11756124332E+03  0.11756124332E+03  0.00000000000E+00 0. -1.
         21   -1    0    0  504  502 -0.00000000000E+00 -0.00000000000E+00 -0.76064223571E+03  0.76064223571E+03  0.00000000000E+00 0. -1.
         25    1    1    2    0    0  0.20241445036E+03  0.43121283656E+02 -0.59254326192E+03  0.63997154004E+03  0.12500000000E+03 0.  0.
         21    1    1    2  503  502 -0.17955664175E+03 -0.44175556852E+02 -0.79537683986E+02  0.20129160587E+03  0.00000000000E+00 0. -1.
         21    1    1    2  504  501 -0.22857808615E+02  0.10542731965E+01  0.28999953514E+02  0.36940333113E+02  0.00000000000E+00 0.  1.
<mgrwt>
<rscale>  4 0.23649224E+03</rscale>
<asrwt>0</asrwt>
<pdfrwt beam="1">  1       21 0.18086346E-01 0.23649224E+03</pdfrwt>
<pdfrwt beam="2">  1       21 0.11702188E+00 0.23649224E+03</pdfrwt>
<totfact> 0.15212534E+04</totfact>
</mgrwt>
</event>
<event>
 5    0  0.1200001E+000  0.2467462E+03  0.7546771E-02  0.1115379E+00
         21   -1    0    0  503  501  0.00000000000E+00  0.00000000000E+00  0.93432314660E+03  0.93432314660E+03  0.00000000000E+00 0. -1.
         21   -1    0    0  504  502 -0.00000000000E+00 -0.00000000000E+00 -0.11993098208E+03  0.11993098208E+03  0.00000000000E+00 0. -1.
         25    1    1    2    0    0  0.16695562392E+03  0.13068071720E+03  0.46996777450E+02  0.25057000478E+03  0.12500000000E+03 0.  0.
         21    1    1    2  503  502 -0.18325250645E+03 -0.11637762381E+03  0.69933808039E+03  0.73225609122E+03  0.00000000000E+00 0. -1.
         21    1    1    2  504  501  0.16296882533E+02 -0.14303093383E+02  0.68057306675E+02  0.71428032680E+02  0.00000000000E+00 0. -1.
<mgrwt>
<rscale>  4 0.24674621E+03</rscale>
<asrwt>0</asrwt>
<pdfrwt beam="1">  1       21 0.14374202E+00 0.24674621E+03</pdfrwt>
<pdfrwt beam="2">  1       21 0.18450921E-01 0.24674621E+03</pdfrwt>
<totfact> 0.86305732E+03</totfact>
</mgrwt>
</event>
<event>
 5    0  0.1200001E+000  0.2932381E+03  0.7546771E-02  0.1088671E+00
         21   -1    0    0  503  501  0.00000000000E+00  0.00000000000E+00  0.10090871678E+03  0.10090871678E+03  0.00000000000E+00 0.  1.
         21   -1    0    0  501  502 -0.00000000000E+00 -0.00000000000E+00 -0.17811232710E+04  0.17811232710E+04  0.00000000000E+00 0. -1.
         25    1    1    2    0    0  0.74692741351E+02  0.25350972462E+03 -0.12531746615E+04  0.12868247427E+04  0.12500000000E+03 0.  0.
         21    1    1    2  503  504  0.22481609215E+02 -0.37931686656E+01  0.46116331460E+02  0.51444406001E+02  0.00000000000E+00 0.  1.
         21    1    1    2  504  502 -0.97174350566E+02 -0.24971655596E+03 -0.47315622414E+03  0.54376283908E+03  0.00000000000E+00 0. -1.
<mgrwt>
<rscale>  4 0.29323808E+03</rscale>
<asrwt>0</asrwt>
<pdfrwt beam="1">  1       21 0.15524418E-01 0.29323808E+03</pdfrwt>
<pdfrwt beam="2">  1       21 0.27401896E+00 0.29323808E+03</pdfrwt>
<totfact> 0.16068186E+03</totfact>
</mgrwt>
</event>
<event>
 5    0  0.1200001E+000  0.2600805E+03  0.7546771E-02  0.1107095E+00
         21   -1    0    0  502  501  0.00000000000E+00  0.00000000000E+00  0.23182091145E+04  0.23182091145E+04  0.00000000000E+00 0. -1.
         21   -1    0    0  503  502 -0.00000000000E+00 -0.00000000000E+00 -0.31600529799E+02  0.31600529799E+02  0.00000000000E+00 0.  1.
         25    1    1    2    0    0  0.10079842497E+03  0.20458872922E+03  0.70742077822E+03  0.75371481879E+03  0.12500000000E+03 0.  0.
         21    1    1    2  503  504 -0.16101391616E+02 -0.25198279340E+02  0.31765042812E+03  0.31905485826E+03  0.00000000000E+00 0. -1.
         21    1    1    2  504  501 -0.84697033354E+02 -0.17939044988E+03  0.12615373784E+04  0.12770399673E+04  0.00000000000E+00 0. -1.
<mgrwt>
<rscale>  4 0.26008051E+03</rscale>
<asrwt>0</asrwt>
<pdfrwt beam="1">  1       21 0.35664742E+00 0.26008051E+03</pdfrwt>
<pdfrwt beam="2">  1       21 0.48616218E-02 0.26008051E+03</pdfrwt>
<totfact> 0.41779933E+03</totfact>
</mgrwt>
</event>
<event>
 5    0  0.1200001E+000  0.2631946E+03  0.7546771E-02  0.1105239E+00
         21   -1    0    0  503  501  0.00000000000E+00  0.00000000000E+00  0.20603056724E+03  0.20603056724E+03  0.00000000000E+00 0.  1.
         21   -1    0    0  504  502 -0.00000000000E+00 -0.00000000000E+00 -0.48316295776E+03  0.48316295776E+03  0.00000000000E+00 0.  1.
         25    1    1    2    0    0  0.61861260823E+02 -0.20865850553E+03 -0.87967574551E+02  0.26594826883E+03  0.12500000000E+03 0.  0.
         21    1    1    2  503  502 -0.71882160004E+02  0.22792968032E+03 -0.25763152423E+03  0.35141568886E+03  0.00000000000E+00 0.  1.
         21    1    1    2  504  501  0.10020899181E+02 -0.19271174795E+02  0.68466708266E+02  0.71829567304E+02  0.00000000000E+00 0.  1.
<mgrwt>
<rscale>  4 0.26319458E+03</rscale>
<asrwt>0</asrwt>
<pdfrwt beam="1">  1       21 0.31697011E-01 0.26319458E+03</pdfrwt>
<pdfrwt beam="2">  1       21 0.74332762E-01 0.26319458E+03</pdfrwt>
<totfact> 0.14913290E+04</totfact>
</mgrwt>
</event>
<event>
 5    0  0.1200001E+000  0.2900066E+03  0.7546771E-02  0.1090346E+00
         21   -1    0    0  502  501  0.00000000000E+00  0.00000000000E+00  0.19687136619E+03  0.19687136619E+03  0.00000000000E+00 0. -1.
         21   -1    0    0  503  502 -0.00000000000E+00 -0.00000000000E+00 -0.72561453964E+03  0.72561453964E+03  0.00000000000E+00 0. -1.
         25    1    1    2    0    0  0.19488050425E+03 -0.21501048555E+03 -0.43493782821E+03  0.53759076837E+03  0.12500000000E+03 0.  0.
         21    1    1    2  503  504 -0.96958210784E+02 -0.23010174599E+02 -0.78869656645E+02  0.12708574079E+03  0.00000000000E+00 0. -1.
         21    1    1    2  504  501 -0.97922293461E+02  0.23802066015E+03 -0.14935688596E+02  0.25780939667E+03  0.00000000000E+00 0. -1.
<mgrwt>
<rscale>  4 0.29000661E+03</rscale>
<asrwt>0</asrwt>
<pdfrwt beam="1">  1       21 0.30287902E-01 0.29000661E+03</pdfrwt>
<pdfrwt beam="2">  1       21 0.11163301E+00 0.29000661E+03</pdfrwt>
<totfact> 0.61921355E+03</totfact>
</mgrwt>
</event>
<event>
 5    0  0.1200001E+000  0.2867004E+03  0.7546771E-02  0.1092085E+00
         21   -1    0    0  503  501  0.00000000000E+00  0.00000000000E+00  0.10573827256E+04  0.10573827256E+04  0.00000000000E+00 0.  1.
         21   -1    0    0  501  502 -0.00000000000E+00 -0.00000000000E+00 -0.29766477815E+03  0.29766477815E+03  0.00000000000E+00 0. -1.
         25    1    1    2    0    0  0.13184454256E+03 -0.23177334620E+03 -0.19195889857E+03  0.35153248236E+03  0.12500000000E+03 0.  0.
         21    1    1    2  503  504 -0.21950241968E+02  0.19574055003E+03  0.68690967737E+03  0.71459154831E+03  0.00000000000E+00 0.  1.
         21    1    1    2  504  502 -0.10989430060E+03  0.36032796168E+02  0.26476716861E+03  0.28892347305E+03  0.00000000000E+00 0.  1.
<mgrwt>
<rscale>  4 0.28670039E+03</rscale>
<asrwt>0</asrwt>
<pdfrwt beam="1">  1       21 0.16267426E+00 0.28670039E+03</pdfrwt>
<pdfrwt beam="2">  1       21 0.45794582E-01 0.28670039E+03</pdfrwt>
<totfact> 0.10131382E+03</totfact>
</mgrwt>
</event>
<event>
 5    0  0.1200001E+000  0.2427955E+03  0.7546771E-02  0.1117944E+00
         21   -1    0    0  502  501  0.00000000000E+00  0.00000000000E+00  0.20324156915E+04  0.20324156915E+04  0.00000000000E+00 0.  1.
         21   -1    0    0  504  502 -0.00000000000E+00 -0.00000000000E+00 -0.75314799763E+02  0.75314799763E+02  0.00000000000E+00 0. -1.
         25    1    1    2    0    0 -0.19540223081E+03 -0.49805070328E+02  0.19014398427E+03  0.30404327256E+03  0.12500000000E+03 0.  0.
         21    1    1    2  503  501  0.20164330749E+03  0.15305541615E+03  0.10998095203E+04  0.11285685468E+04  0.00000000000E+00 0.  1.
         21    1    1    2  504  503 -0.62410766827E+01 -0.10325034583E+03  0.66714738716E+03  0.67511867189E+03  0.00000000000E+00 0.  1.
<mgrwt>
<rscale>  4 0.24279554E+03</rscale>
<asrwt>0</asrwt>
<pdfrwt beam="1">  1       21 0.31267930E+00 0.24279554E+03</pdfrwt>
<pdfrwt beam="2">  1       21 0.11586894E-01 0.24279554E+03</pdfrwt>
<totfact> 0.16989158E+03</totfact>
</mgrwt>
</event>
<event>
 5    0  0.1200001E+000  0.2291468E+03  0.7546771E-02  0.1127242E+00
         21   -1    0    0  503  501  0.00000000000E+00  0.00000000000E+00  0.10835868421E+04  0.10835868421E+04  0.00000000000E+00 0.  1.
         21   -1    0    0  501  502 -0.00000000000E+00 -0.00000000000E+00 -0.10290559519E+04  0.10290559519E+04  0.00000000000E+00 0.  1.
         25    1    1    2    0    0  0.16984344321E+03  0.11117932183E+03 -0.85497918102E+03  0.88759339609E+03  0.12500000000E+03 0.  0.
         21    1    1    2  503  504 -0.76629919876E+02 -0.17634383012E+03  0.10367267014E+04  0.10544057779E+04  0.00000000000E+00 0.  1.
         21    1    1    2  504  502 -0.93213523332E+02  0.65164508293E+02 -0.12721663021E+03  0.17064362008E+03  0.00000000000E+00 0.  1.
<mgrwt>
<rscale>  4 0.22914679E+03</rscale>
<asrwt>0</asrwt>
<pdfrwt beam="1">  1       21 0.16670567E+00 0.22914679E+03</pdfrwt>
<pdfrwt beam="2">  1       21 0.15831630E+00 0.22914679E+03</pdfrwt>
<totfact> 0.55377643E+01</totfact>
</mgrwt>
</event>
<event>
 5    0  0.1200001E+000  0.1796238E+03  0.7546771E-02  0.1168168E+00
         21   -1    0    0  503  501  0.00000000000E+00  0.00000000000E+00  0.75954321179E+03  0.75954321179E+03  0.00000000000E+00 0. -1.
         21   -1    0    0  501  502 -0.00000000000E+00 -0.00000000000E+00 -0.16784796155E+03  0.16784796155E+03  0.00000000000E+00 0. -1.
         25    1    1    2    0    0  0.17382544962E+02 -0.20158679914E+03  0.13998044931E+02  0.23824427741E+03  0.12500000000E+03 0.  0.
         21    1    1    2  503  504 -0.81261385275E+02  0.96874790135E+02  0.54873594704E+03  0.56311568729E+03  0.00000000000E+00 0. -1.
         21    1    1    2  504  502  0.63878840313E+02  0.10471200901E+03  0.28961258280E+02  0.12603120864E+03  0.00000000000E+00 0.  1.
<mgrwt>
<rscale>  4 0.17962383E+03</rscale>
<asrwt>0</asrwt>
<pdfrwt beam="1">  1       21 0.11685280E+00 0.17962383E+03</pdfrwt>
<pdfrwt beam="2">  1       21 0.25822764E-01 0.17962383E+03</pdfrwt>
<totfact> 0.81066704E+03</totfact>
</mgrwt>
</event>
<event>
 5    0  0.1200001E+000  0.2332240E+03  0.7546771E-02  0.1124391E+00
         21   -1    0    0  502  501  0.00000000000E+00  0.00000000000E+00  0.76430193245E+03  0.76430193245E+03  0.00000000000E+00 0. -1.
         21   -1    0    0  503  502 -0.00000000000E+00 -0.00000000000E+00 -0.32202162055E+03  0.32202162055E+03  0.00000000000E+00 0. -1.
         25    1    1    2    0    0  0.98456276729E+02 -0.19557989126E+03 -0.23448614091E+03  0.34431654415E+03  0.12500000000E+03 0.  0.
         21    1    1    2  503  504 -0.79087510149E+02  0.10966084366E+03  0.12788665104E+03  0.18610569687E+03  0.00000000000E+00 0. -1.
         21    1    1    2  504  501 -0.19368766579E+02  0.85919047601E+02  0.54887980178E+03  0.55590131198E+03  0.00000000000E+00 0. -1.
<mgrwt>
<rscale>  4 0.23322400E+03</rscale>
<asrwt>0</asrwt>
<pdfrwt beam="1">  1       21 0.11758491E+00 0.23322400E+03</pdfrwt>
<pdfrwt beam="2">  1       21 0.49541788E-01 0.23322400E+03</pdfrwt>
<totfact> 0.20831399E+03</totfact>
</mgrwt>
</event>
<event>
 5    0  0.1200001E+000  0.2509662E+03  0.7546771E-02  0.1112696E+00
         21   -1    0    0  503  501  0.00000000000E+00  0.00000000000E+00  0.27704284404E+03  0.27704284404E+03  0.00000000000E+00 0.  1.
         21   -1    0    0  504  502 -0.00000000000E+00 -0.00000000000E+00 -0.23626489314E+03  0.23626489314E+03  0.00000000000E+00 0.  1.
         25    1    1    2    0    0  0.55559819496E+02  0.20301894372E+03 -0.16425678360E+02  0.24535359781E+03  0.12500000000E+03 0.  0.
         21    1    1    2  503  502 -0.42151112903E+02 -0.22181598032E+03  0.23368475539E+02  0.22699147802E+03  0.00000000000E+00 0.  1.
         21    1    1    2  504  501 -0.13408706593E+02  0.18797036599E+02  0.33835153725E+02  0.40962661352E+02  0.00000000000E+00 0.  1.
<mgrwt>
<rscale>  4 0.25096623E+03</rscale>
<asrwt>0</asrwt>
<pdfrwt beam="1">  1       21 0.42621976E-01 0.25096623E+03</pdfrwt>
<pdfrwt beam="2">  1       21 0.36348445E-01 0.25096623E+03</pdfrwt>
<totfact> 0.37598320E+04</totfact>
</mgrwt>
</event>
<event>
 5    0  0.1235481E+000  0.2490547E+03  0.7546771E-02  0.1113904E+00
         21   -1    0    0  503  501  0.00000000000E+00  0.00000000000E+00  0.20633635602E+03  0.20633635602E+03  0.00000000000E+00 0. -1.
         21   -1    0    0  504  502 -0.00000000000E+00 -0.00000000000E+00 -0.50160626096E+03  0.50160626096E+03  0.00000000000E+00 0. -1.
         25    1    1    2    0    0 -0.16944904696E+03 -0.13769273129E+03 -0.38715253209E+03  0.46171890894E+03  0.12500000000E+03 0.  0.
         21    1    1    2  503  502  0.16874421000E+03  0.11565248131E+03  0.73048515596E+02  0.21722382575E+03  0.00000000000E+00 0. -1.
         21    1    1    2  504  501  0.70483695834E+00  0.22040249988E+02  0.18834111560E+02  0.28999882291E+02  0.00000000000E+00 0.  1.
<mgrwt>
<rscale>  4 0.24905472E+03</rscale>
<asrwt>0</asrwt>
<pdfrwt beam="1">  1       21 0.31744055E-01 0.24905472E+03</pdfrwt>
<pdfrwt beam="2">  1       21 0.77170194E-01 0.24905472E+03</pdfrwt>
<totfact> 0.13763583E+04</totfact>
</mgrwt>
</event>
<event>
 5    0  0.1200001E+000  0.4074914E+03  0.7546771E-02  0.1041216E+00
         21   -1    0    0  503  501  0.00000000000E+00  0.00000000000E+00  0.13112267307E+04  0.13112267307E+04  0.00000000000E+00 0. -1.
         21   -1    0    0  501  502 -0.00000000000E+00 -0.00000000000E+00 -0.41434416550E+03  0.41434416550E+03  0.00000000000E+00 0. -1.
         25    1    1    2    0    0 -0.38414653658E+03 -0.12285804544E+02 -0.24884417226E+03  0.47462398235E+03  0.12500000000E+03 0.  0.
         21    1    1    2  503  504 -0.28908283954E+02 -0.58513627475E+02  0.30080069949E+03  0.30779960087E+03  0.00000000000E+00 0. -1.
         21    1    1    2  504  502  0.41305482053E+03  0.70799432019E+02  0.84492603794E+03  0.94314731295E+03  0.00000000000E+00 0. -1.
<mgrwt>
<rscale>  4 0.40749144E+03</rscale>
<asrwt>0</asrwt>
<pdfrwt beam="1">  1       21 0.20172719E+00 0.40749144E+03</pdfrwt>
<pdfrwt beam="2">  1       21 0.63745257E-01 0.40749144E+03</pdfrwt>
<totfact> 0.24713571E+02</totfact>
</mgrwt>
</event>
<event>
 5    0  0.1200001E+000  0.2470329E+03  0.7546771E-02  0.1115194E+00
         21   -1    0    0  503  501  0.00000000000E+00  0.00000000000E+00  0.60048653400E+03  0.60048653400E+03  0.00000000000E+00 0.  1.
         21   -1    0    0  501  502 -0.00000000000E+00 -0.00000000000E+00 -0.23004183672E+03  0.23004183672E+03  0.00000000000E+00 0. -1.
         25    1    1    2    0    0 -0.37684619964E+01 -0.21304003475E+03 -0.13342557230E+03  0.28076260623E+03  0.12500000000E+03 0.  0.
         21    1    1    2  503  504 -0.68764133232E+01  0.24326804384E+02  0.11031727765E+03  0.11317676537E+03  0.00000000000E+00 0.  1.
         21    1    1    2  504  502  0.10644875320E+02  0.18871323037E+03  0.39355299193E+03  0.43658899911E+03  0.00000000000E+00 0.  1.
<mgrwt>
<rscale>  4 0.24703291E+03</rscale>
<asrwt>0</asrwt>
<pdfrwt beam="1">  1       21 0.92382543E-01 0.24703291E+03</pdfrwt>
<pdfrwt beam="2">  1       21 0.35391052E-01 0.24703291E+03</pdfrwt>
<totfact> 0.73382088E+03</totfact>
</mgrwt>
</event>
<event>
 5    0  0.1200001E+000  0.2559153E+03  0.7546771E-02  0.1109623E+00
         21   -1    0    0  503  501  0.00000000000E+00  0.00000000000E+00  0.11014642412E+04  0.11014642412E+04  0.00000000000E+00 0.  1.
         21   -1    0    0  501  502 -0.00000000000E+00 -0.00000000000E+00 -0.78942411932E+02  0.78942411932E+02  0.00000000000E+00 0.  1.
         25    1    1    2    0    0  0.19541644639E+03 -0.86681894008E+02  0.29205883637E+03  0.38291605107E+03  0.12500000000E+03 0.  0.
         21    1    1    2  503  504  0.20586685805E+02 -0.60794750383E+01  0.34729544872E+03  0.34795818765E+03  0.00000000000E+00 0. -1.
         21    1    1    2  504  502 -0.21600313219E+03  0.92761369046E+02  0.38316754423E+03  0.44953241447E+03  0.00000000000E+00 0.  1.
<mgrwt>
<rscale>  4 0.25591533E+03</rscale>
<asrwt>0</asrwt>
<pdfrwt beam="1">  1       21 0.16945603E+00 0.25591533E+03</pdfrwt>
<pdfrwt beam="2">  1       21 0.12144987E-01 0.25591533E+03</pdfrwt>
<totfact> 0.11841295E+04</totfact>
</mgrwt>
</event>
<event>
 5    0  0.1200001E+000  0.3663551E+03  0.7546771E-02  0.1056095E+00
         21   -1    0    0  502  501  0.00000000000E+00  0.00000000000E+00  0.61804216330E+03  0.61804216330E+03  0.00000000000E+00 0. -1.
         21   -1    0    0  503  502 -0.00000000000E+00 -0.00000000000E+00 -0.51628433979E+03  0.51628433979E+03  0.00000000000E+00 0. -1.
         25    1    1    2    0    0  0.65120929520E+02 -0.28563598870E+03 -0.13346435717E+03  0.34534966069E+03  0.12500000000E+03 0.  0.
         21    1    1    2  503  504 -0.30987366684E+02 -0.14861518362E+03  0.31171828357E+03  0.34672031670E+03  0.00000000000E+00 0. -1.
         21    1    1    2  504  501 -0.34133562836E+02  0.43425117232E+03 -0.76496102887E+02  0.44225652570E+03  0.00000000000E+00 0. -1.
<mgrwt>
<rscale>  4 0.36635513E+03</rscale>
<asrwt>0</asrwt>
<pdfrwt beam="1">  1       21 0.95083410E-01 0.36635513E+03</pdfrwt>
<pdfrwt beam="2">  1       21 0.79428360E-01 0.36635513E+03</pdfrwt>
<totfact> 0.11437475E+03</totfact>
</mgrwt>
</event>
<event>
 5    0  0.1200001E+000  0.2623783E+03  0.7546771E-02  0.1105723E+00
         21   -1    0    0  503  501  0.00000000000E+00  0.00000000000E+00  0.58524956250E+03  0.58524956250E+03  0.00000000000E+00 0.  1.
         21   -1    0    0  501  502 -0.00000000000E+00 -0.00000000000E+00 -0.18891399796E+03  0.18891399796E+03  0.00000000000E+00 0.  1.
         25    1    1    2    0    0 -0.22352317609E+03 -0.63270140408E+02 -0.41484009990E+02  0.26704240113E+03  0.12500000000E+03 0.  0.
         21    1    1    2  503  504  0.12187577260E+02 -0.16431034127E+02  0.90762504798E+02  0.93039498059E+02  0.00000000000E+00 0.  1.
         21    1    1    2  504  502  0.21133559883E+03  0.79701174535E+02  0.34705706973E+03  0.41408166127E+03  0.00000000000E+00 0.  1.
<mgrwt>
<rscale>  4 0.26237833E+03</rscale>
<asrwt>0</asrwt>
<pdfrwt beam="1">  1       21 0.90038394E-01 0.26237833E+03</pdfrwt>
<pdfrwt beam="2">  1       21 0.29063692E-01 0.26237833E+03</pdfrwt>
<totfact> 0.11407029E+04</totfact>
</mgrwt>
</event>
<event>
 5    0  0.1200001E+000  0.2347431E+03  0.7546771E-02  0.1123345E+00
         21   -1    0    0  503  501  0.00000000000E+00  0.00000000000E+00  0.18854998937E+03  0.18854998937E+03  0.00000000000E+00 0. -1.
         21   -1    0    0  501  502 -0.00000000000E+00 -0.00000000000E+00 -0.15892429132E+04  0.15892429132E+04  0.00000000000E+00 0. -1.
         25    1    1    2    0    0 -0.10674074198E+03 -0.18229423180E+03 -0.14227735770E+04  0.14437916831E+04  0.12500000000E+03 0.  0.
         21    1    1    2  503  504 -0.23034275332E+02  0.92523426304E+02  0.11616408707E+03  0.15028392256E+03  0.00000000000E+00 0. -1.
         21    1    1    2  504  502  0.12977501731E+03  0.89770805495E+02 -0.94083433939E+02  0.18371729690E+03  0.00000000000E+00 0. -1.
<mgrwt>
<rscale>  4 0.23474310E+03</rscale>
<asrwt>0</asrwt>
<pdfrwt beam="1">  1       21 0.29007691E-01 0.23474310E+03</pdfrwt>
<pdfrwt beam="2">  1       21 0.24449890E+00 0.23474310E+03</pdfrwt>
<totfact> 0.77655780E+02</totfact>
</mgrwt>
</event>
<event>
 5    0  0.1200001E+000  0.3048772E+03  0.7546771E-02  0.1082828E+00
         21   -1    0    0  503  501  0.00000000000E+00  0.00000000000E+00  0.19040996354E+03  0.19040996354E+03  0.00000000000E+00 0.  1.
         21   -1    0    0  501  502 -0.00000000000E+00 -0.00000000000E+00 -0.11535617798E+04  0.11535617798E+04  0.00000000000E+00 0.  1.
         25    1    1    2    0    0 -0.13706567964E+03 -0.19190439122E+03 -0.55041695105E+03  0.61171734969E+03  0.12500000000E+03 0.  0.
         21    1    1    2  503  504 -0.22072832841E+02 -0.16369575433E+03 -0.66876650117E+00  0.16517856152E+03  0.00000000000E+00 0.  1.
         21    1    1    2  504  502  0.15913851249E+03  0.35560014556E+03 -0.41206609872E+03  0.56707583213E+03  0.00000000000E+00 0.  1.
<mgrwt>
<rscale>  4 0.30487715E+03</rscale>
<asrwt>0</asrwt>
<pdfrwt beam="1">  1       21 0.29293841E-01 0.30487715E+03</pdfrwt>
<pdfrwt beam="2">  1       21 0.17747104E+00 0.30487715E+03</pdfrwt>
<totfact> 0.19323666E+03</totfact>
</mgrwt>
</event>
<event>
 5    0  0.1200001E+000  0.2645962E+03  0.7546771E-02  0.1104413E+00
         21   -1    0    0  503  501  0.00000000000E+00  0.00000000000E+00  0.47488999571E+03  0.47488999571E+03  0.00000000000E+00 0. -1.
         21   -1    0    0  501  502 -0.00000000000E+00 -0.00000000000E+00 -0.26756243632E+03  0.26756243632E+03  0.00000000000E+00 0.  1.
         25    1    1    2    0    0 -0.14291650251E+03  0.17131173092E+03  0.30949944023E+03  0.40148192903E+03  0.12500000000E+03 0.  0.
         21    1    1    2  503  504  0.11352783807E+02  0.23629875824E+02  0.53055160122E+02  0.59178600416E+02  0.00000000000E+00 0. -1.
         21    1    1    2  504  502  0.13156371870E+03 -0.19494160674E+03 -0.15522704096E+03  0.28179190259E+03  0.00000000000E+00 0.  1.
<mgrwt>
<rscale>  4 0.26459621E+03</rscale>
<asrwt>0</asrwt>
<pdfrwt beam="1">  1       21 0.73059999E-01 0.26459621E+03</pdfrwt>
<pdfrwt beam="2">  1       21 0.41163452E-01 0.26459621E+03</pdfrwt>
<totfact> 0.91651606E+03</totfact>
</mgrwt>
</event>
<event>
 5    0  0.1200001E+000  0.2991505E+03  0.7546771E-02  0.1085666E+00
         21   -1    0    0  503  501  0.00000000000E+00  0.00000000000E+00  0.21914236545E+04  0.21914236545E+04  0.00000000000E+00 0. -1.
         21   -1    0    0  504  502 -0.00000000000E+00 -0.00000000000E+00 -0.47305208706E+03  0.47305208706E+03  0.00000000000E+00 0.  1.
         25    1    1    2    0    0  0.31016258504E+03  0.18144134646E+03 -0.33027162400E+03  0.50381160862E+03  0.12500000000E+03 0.  0.
         21    1    1    2  503  502 -0.55091870429E+02 -0.92749139495E+02  0.14703030595E+02  0.10887468105E+03  0.00000000000E+00 0. -1.
         21    1    1    2  504  501 -0.25507071461E+03 -0.88692206963E+02  0.20339401609E+04  0.20517894519E+04  0.00000000000E+00 0. -1.
<mgrwt>
<rscale>  4 0.29915050E+03</rscale>
<asrwt>0</asrwt>
<pdfrwt beam="1">  1       21 0.33714209E+00 0.29915050E+03</pdfrwt>
<pdfrwt beam="2">  1       21 0.72777245E-01 0.29915050E+03</pdfrwt>
<totfact> 0.30237558E+01</totfact>
</mgrwt>
</event>
<event>
 5    0  0.1200001E+000  0.3296827E+03  0.7546771E-02  0.1071277E+00
         21   -1    0    0  503  501  0.00000000000E+00  0.00000000000E+00  0.87330631668E+02  0.87330631668E+02  0.00000000000E+00 0.  1.
         21   -1    0    0  501  502 -0.00000000000E+00 -0.00000000000E+00 -0.24904987398E+04  0.24904987398E+04  0.00000000000E+00 0.  1.
         25    1    1    2    0    0  0.19754686839E+03  0.20594373551E+03 -0.26760656885E+03  0.41070167165E+03  0.12500000000E+03 0.  0.
         21    1    1    2  503  504  0.12465700779E+02  0.19558455059E+02 -0.24661744160E+02  0.33854519421E+02  0.00000000000E+00 0.  1.
         21    1    1    2  504  502 -0.21001256916E+03 -0.22550219057E+03 -0.21108997952E+04  0.21332731804E+04  0.00000000000E+00 0.  1.
<mgrwt>
<rscale>  4 0.32968271E+03</rscale>
<asrwt>0</asrwt>
<pdfrwt beam="1">  1       21 0.13435482E-01 0.32968271E+03</pdfrwt>
<pdfrwt beam="2">  1       21 0.38315363E+00 0.32968271E+03</pdfrwt>
<totfact> 0.44985165E+02</totfact>
</mgrwt>
</event>
<event>
 5    0  0.1200001E+000  0.3626760E+03  0.7546771E-02  0.1057529E+00
         21   -1    0    0  503  501  0.00000000000E+00  0.00000000000E+00  0.25993007353E+03  0.25993007353E+03  0.00000000000E+00 0.  1.
         21   -1    0    0  501  502 -0.00000000000E+00 -0.00000000000E+00 -0.70769386003E+03  0.70769386003E+03  0.00000000000E+00 0.  1.
         25    1    1    2    0    0  0.33970615023E+03 -0.22552200767E+02 -0.50281929687E+03  0.61996864079E+03  0.12500000000E+03 0.  0.
         21    1    1    2  503  504 -0.20088548710E+02  0.67499309745E+01 -0.56675004881E+01  0.21936998866E+02  0.00000000000E+00 0.  1.
         21    1    1    2  504  502 -0.31961760152E+03  0.15802269792E+02  0.60723010860E+02  0.32571829390E+03  0.00000000000E+00 0.  1.
<mgrwt>
<rscale>  4 0.36267599E+03</rscale>
<asrwt>0</asrwt>
<pdfrwt beam="1">  1       21 0.39989242E-01 0.36267599E+03</pdfrwt>
<pdfrwt beam="2">  1       21 0.10887598E+00 0.36267599E+03</pdfrwt>
<totfact> 0.36391810E+03</totfact>
</mgrwt>
</event>
<event>
 5    0  0.1200001E+000  0.4702730E+03  0.7546771E-02  0.1021843E+00
         21   -1    0    0  503  501  0.00000000000E+00  0.00000000000E+00  0.34137697093E+03  0.34137697093E+03  0.00000000000E+00 0. -1.
         21   -1    0    0  504  502 -0.00000000000E+00 -0.00000000000E+00 -0.12282760928E+04  0.12282760928E+04  0.00000000000E+00 0. -1.
         25    1    1    2    0    0 -0.43387236347E+03  0.14231298474E+02 -0.81454663591E+03  0.93142846194E+03  0.12500000000E+03 0.  0.
         21    1    1    2  503  502  0.53113516496E+03  0.17918510178E+02 -0.67029407156E+02  0.53564781143E+03  0.00000000000E+00 0. -1.
         21    1    1    2  504  501 -0.97262801490E+02 -0.32149808652E+02 -0.53230787797E+01  0.10257679035E+03  0.00000000000E+00 0. -1.
<mgrwt>
<rscale>  4 0.47027297E+03</rscale>
<asrwt>0</asrwt>
<pdfrwt beam="1">  1       21 0.52519535E-01 0.47027297E+03</pdfrwt>
<pdfrwt beam="2">  1       21 0.18896555E+00 0.47027297E+03</pdfrwt>
<totfact> 0.44448543E+02</totfact>
</mgrwt>
</event>
<event>
 5    0  0.1200001E+000  0.3629111E+03  0.7546771E-02  0.1057437E+00
         21   -1    0    0  503  501  0.00000000000E+00  0.00000000000E+00  0.27238512797E+03  0.27238512797E+03  0.00000000000E+00 0. -1.
         21   -1    0    0  504  502 -0.00000000000E+00 -0.00000000000E+00 -0.57388127472E+03  0.57388127472E+03  0.00000000000E+00 0. -1.
         25    1    1    2    0    0  0.31881192446E+03  0.12206828088E+03 -0.18942816000E+03  0.40993869807E+03  0.12500000000E+03 0.  0.
         21    1    1    2  503  502 -0.33962333419E+03 -0.51390989967E+02 -0.67011235770E+02  0.34996506782E+03  0.00000000000E+00 0. -1.
         21    1    1    2  504  501  0.20811409726E+02 -0.70677290918E+02 -0.45056750983E+02  0.86362636802E+02  0.00000000000E+00 0. -1.
<mgrwt>
<rscale>  4 0.36291113E+03</rscale>
<asrwt>0</asrwt>
<pdfrwt beam="1">  1       21 0.41905405E-01 0.36291113E+03</pdfrwt>
<pdfrwt beam="2">  1       21 0.88289425E-01 0.36291113E+03</pdfrwt>
<totfact> 0.54699864E+03</totfact>
</mgrwt>
</event>
<event>
 5    0  0.1200001E+000  0.2868788E+03  0.7546771E-02  0.1091990E+00
         21   -1    0    0  503  501  0.00000000000E+00  0.00000000000E+00  0.10255612957E+04  0.10255612957E+04  0.00000000000E+00 0.  1.
         21   -1    0    0  504  502 -0.00000000000E+00 -0.00000000000E+00 -0.54618881383E+03  0.54618881383E+03  0.00000000000E+00 0. -1.
         25    1    1    2    0    0 -0.17373184641E+03 -0.22871600845E+03 -0.33439027351E+03  0.45818732195E+03  0.12500000000E+03 0.  0.
         21    1    1    2  503  502  0.15015322007E+03  0.16151552553E+03 -0.66566934142E+02  0.23035713839E+03  0.00000000000E+00 0. -1.
         21    1    1    2  504  501  0.23578626347E+02  0.67200482916E+02  0.88032968955E+03  0.88320564922E+03  0.00000000000E+00 0.  1.
<mgrwt>
<rscale>  4 0.28687883E+03</rscale>
<asrwt>0</asrwt>
<pdfrwt beam="1">  1       21 0.15777866E+00 0.28687883E+03</pdfrwt>
<pdfrwt beam="2">  1       21 0.84029049E-01 0.28687883E+03</pdfrwt>
<totfact> 0.29249393E+02</totfact>
</mgrwt>
</event>
<event>
 5    0  0.1200001E+000  0.2315416E+03  0.7546771E-02  0.1125559E+00
         21   -1    0    0  503  501  0.00000000000E+00  0.00000000000E+00  0.10034627840E+04  0.10034627840E+04  0.00000000000E+00 0.  1.
         21   -1    0    0  504  502 -0.00000000000E+00 -0.00000000000E+00 -0.53154067864E+03  0.53154067864E+03  0.00000000000E+00 0.  1.
         25    1    1    2    0    0  0.20316176961E+03  0.58560197672E+01 -0.47055765531E+03  0.52759691486E+03  0.12500000000E+03 0.  0.
         21    1    1    2  503  502 -0.14470230903E+03  0.24658017840E+02  0.14205655354E+03  0.20427148721E+03  0.00000000000E+00 0.  1.
         21    1    1    2  504  501 -0.58459460573E+02 -0.30514037607E+02  0.80042320712E+03  0.80313506057E+03  0.00000000000E+00 0.  1.
<mgrwt>
<rscale>  4 0.23154156E+03</rscale>
<asrwt>0</asrwt>
<pdfrwt beam="1">  1       21 0.15437889E+00 0.23154156E+03</pdfrwt>
<pdfrwt beam="2">  1       21 0.81775489E-01 0.23154156E+03</pdfrwt>
<totfact> 0.34716845E+02</totfact>
</mgrwt>
</event>
<event>
 5    0  0.1200001E+000  0.2858609E+03  0.7546771E-02  0.1092530E+00
         21   -1    0    0  503  501  0.00000000000E+00  0.00000000000E+00  0.10739399473E+04  0.10739399473E+04  0.00000000000E+00 0.  1.
         21   -1    0    0  501  502 -0.00000000000E+00 -0.00000000000E+00 -0.10241603294E+03  0.10241603294E+03  0.00000000000E+00 0.  1.
         25    1    1    2    0    0  0.24174665443E+03  0.64983758853E+02  0.69175368783E+03  0.74619869905E+03  0.12500000000E+03 0.  0.
         21    1    1    2  503  504  0.15396341872E+02 -0.28583143665E+02  0.12208504034E+03  0.12632814619E+03  0.00000000000E+00 0. -1.
         21    1    1    2  504  502 -0.25714299630E+03 -0.36400615188E+02  0.15768518622E+03  0.30382913502E+03  0.00000000000E+00 0.  1.
<mgrwt>
<rscale>  4 0.28586094E+03</rscale>
<asrwt>0</asrwt>
<pdfrwt beam="1">  1       21 0.16522152E+00 0.28586094E+03</pdfrwt>
<pdfrwt beam="2">  1       21 0.15756313E-01 0.28586094E+03</pdfrwt>
<totfact> 0.77669039E+03</totfact>
</mgrwt>
</event>
<event>
 5    0  0.1200001E+000  0.2559896E+03  0.7546771E-02  0.1109577E+00
         21   -1    0    0  503  501  0.00000000000E+00  0.00000000000E+00  0.19187863397E+03  0.19187863397E+03  0.00000000000E+00 0. -1.
         21   -1    0    0  504  502 -0.00000000000E+00 -0.00000000000E+00 -0.54601734851E+03  0.54601734851E+03  0.00000000000E+00 0. -1.
         25    1    1    2    0    0 -0.78898464053E+02 -0.20651267897E+03 -0.28448789994E+02  0.25555192790E+03  0.12500000000E+03 0.  0.
         21    1    1    2  503  502  0.46776846329E+02  0.21970361072E+03 -0.36581698246E+03  0.42927824843E+03  0.00000000000E+00 0. -1.
         21    1    1    2  504  501  0.32121617724E+02 -0.13190931759E+02  0.40127057914E+02  0.53065806153E+02  0.00000000000E+00 0. -1.
<mgrwt>
<rscale>  4 0.25598960E+03</rscale>
<asrwt>0</asrwt>
<pdfrwt beam="1">  1       21 0.29519790E-01 0.25598960E+03</pdfrwt>
<pdfrwt beam="2">  1       21 0.84002668E-01 0.25598960E+03</pdfrwt>
<totfact> 0.13037883E+04</totfact>
</mgrwt>
</event>
<event>
 5    0  0.1200001E+000  0.2615858E+03  0.7546771E-02  0.1106194E+00
         21   -1    0    0  502  501  0.00000000000E+00  0.00000000000E+00  0.27429034756E+03  0.27429034756E+03  0.00000000000E+00 0.  1.
         21   -1    0    0  503  502 -0.00000000000E+00 -0.00000000000E+00 -0.45491986766E+03  0.45491986766E+03  0.00000000000E+00 0.  1.
         25    1    1    2    0    0 -0.40907666926E+02  0.20647272175E+03 -0.30790986425E+03  0.39336739385E+03  0.12500000000E+03 0.  0.
         21    1    1    2  503  504 -0.33047039839E+02  0.14887114717E+02 -0.35940578803E+02  0.51043689437E+02  0.00000000000E+00 0.  1.
         21    1    1    2  504  501  0.73954706765E+02 -0.22135983647E+03  0.16322092296E+03  0.28479913193E+03  0.00000000000E+00 0.  1.
<mgrwt>
<rscale>  4 0.26158583E+03</rscale>
<asrwt>0</asrwt>
<pdfrwt beam="1">  1       21 0.42198515E-01 0.26158583E+03</pdfrwt>
<pdfrwt beam="2">  1       21 0.69987672E-01 0.26158583E+03</pdfrwt>
<totfact> 0.96024626E+03</totfact>
</mgrwt>
</event>
<event>
 5    0  0.1200001E+000  0.2707998E+03  0.7546771E-02  0.1100823E+00
         21   -1    0    0  502  501  0.00000000000E+00  0.00000000000E+00  0.14309450376E+03  0.14309450376E+03  0.00000000000E+00 0. -1.
         21   -1    0    0  503  502 -0.00000000000E+00 -0.00000000000E+00 -0.52836132523E+03  0.52836132523E+03  0.00000000000E+00 0. -1.
         25    1    1    2    0    0  0.19060964336E+03  0.14620355399E+03 -0.31355041856E+03  0.41430228134E+03  0.12500000000E+03 0.  0.
         21    1    1    2  503  504 -0.21804483664E+02  0.18856726134E+01 -0.17782217586E+01  0.21957990384E+02  0.00000000000E+00 0. -1.
         21    1    1    2  504  501 -0.16880515969E+03 -0.14808922660E+03 -0.69938181150E+02  0.23519555727E+03  0.00000000000E+00 0. -1.
<mgrwt>
<rscale>  4 0.27079977E+03</rscale>
<asrwt>0</asrwt>
<pdfrwt beam="1">  1       21 0.22014539E-01 0.27079977E+03</pdfrwt>
<pdfrwt beam="2">  1       21 0.81286358E-01 0.27079977E+03</pdfrwt>
<totfact> 0.24578331E+04</totfact>
</mgrwt>
</event>
<event>
 5    0  0.1200001E+000  0.3051773E+03  0.7546771E-02  0.1082681E+00
         21   -1    0    0  502  501  0.00000000000E+00  0.00000000000E+00  0.64386235449E+03  0.64386235449E+03  0.00000000000E+00 0.  1.
         21   -1    0    0  503  502 -0.00000000000E+00 -0.00000000000E+00 -0.44903374048E+03  0.44903374048E+03  0.00000000000E+00 0.  1.
         25    1    1    2    0    0 -0.12810748729E+03 -0.24787885048E+03 -0.28782868623E+03  0.41991166384E+03  0.12500000000E+03 0.  0.
         21    1    1    2  503  504  0.25504138651E+03  0.17112354113E+03  0.39616301411E+03  0.50127288866E+03  0.00000000000E+00 0.  1.
         21    1    1    2  504  501 -0.12693389921E+03  0.76755309350E+02  0.86494286132E+02  0.17171154247E+03  0.00000000000E+00 0. -1.
<mgrwt>
<rscale>  4 0.30517732E+03</rscale>
<asrwt>0</asrwt>
<pdfrwt beam="1">  1       21 0.99055746E-01 0.30517732E+03</pdfrwt>
<pdfrwt beam="2">  1       21 0.69082114E-01 0.30517732E+03</pdfrwt>
<totfact> 0.14705527E+03</totfact>
</mgrwt>
</event>
<event>
 5    0  0.1200001E+000  0.2870261E+03  0.7546771E-02  0.1091912E+00
         21   -1    0    0  503  501  0.00000000000E+00  0.00000000000E+00  0.15869010814E+03  0.15869010814E+03  0.00000000000E+00 0. -1.
         21   -1    0    0  504  502 -0.00000000000E+00 -0.00000000000E+00 -0.10705294392E+04  0.10705294392E+04  0.00000000000E+00 0. -1.
         25    1    1    2    0    0  0.30161215508E+02 -0.26484682042E+03 -0.47384957510E+03  0.55786374414E+03  0.12500000000E+03 0.  0.
         21    1    1    2  503  502 -0.11640250703E+03  0.23160700879E+03 -0.49781470427E+03  0.56125825602E+03  0.00000000000E+00 0. -1.
         21    1    1    2  504  501  0.86241291523E+02  0.33239811626E+02  0.59824948352E+02  0.11009754714E+03  0.00000000000E+00 0. -1.
<mgrwt>
<rscale>  4 0.28702613E+03</rscale>
<asrwt>0</asrwt>
<pdfrwt beam="1">  1       21 0.24413862E-01 0.28702613E+03</pdfrwt>
<pdfrwt beam="2">  1       21 0.16469684E+00 0.28702613E+03</pdfrwt>
<totfact> 0.34343661E+03</totfact>
</mgrwt>
</event>
<event>
 5    0  0.1200001E+000  0.2458838E+03  0.7546771E-02  0.1115934E+00
         21   -1    0    0  502  501  0.00000000000E+00  0.00000000000E+00  0.55369764285E+02  0.55369764285E+02  0.00000000000E+00 0.  1.
         21   -1    0    0  504  502 -0.00000000000E+00 -0.00000000000E+00 -0.13315114783E+04  0.13315114783E+04  0.00000000000E+00 0.  1.
         25    1    1    2    0    0  0.19661612048E+03 -0.78587212981E+02 -0.10234406252E+04  0.10525633293E+04  0.12500000000E+03 0.  0.
         21    1    1    2  503  501 -0.17259446889E+03  0.85678357192E+02 -0.23360811713E+03  0.30282401486E+03  0.00000000000E+00 0.  1.
         21    1    1    2  504  503 -0.24021651589E+02 -0.70911442109E+01 -0.19092971710E+02  0.31493898457E+02  0.00000000000E+00 0. -1.
<mgrwt>
<rscale>  4 0.24588381E+03</rscale>
<asrwt>0</asrwt>
<pdfrwt beam="1">  1       21 0.85184257E-02 0.24588381E+03</pdfrwt>
<pdfrwt beam="2">  1       21 0.20484791E+00 0.24588381E+03</pdfrwt>
<totfact> 0.12925449E+04</totfact>
</mgrwt>
</event>
<event>
 5    0  0.1200001E+000  0.2636007E+03  0.7546771E-02  0.1104999E+00
         21   -1    0    0  503  501  0.00000000000E+00  0.00000000000E+00  0.21542290854E+03  0.21542290854E+03  0.00000000000E+00 0.  1.
         21   -1    0    0  501  502 -0.00000000000E+00 -0.00000000000E+00 -0.62790891852E+03  0.62790891852E+03  0.00000000000E+00 0.  1.
         25    1    1    2    0    0  0.41616407630E+02  0.23519335232E+03 -0.20171759857E+03  0.33669396777E+03  0.12500000000E+03 0.  0.
         21    1    1    2  503  504  0.24998098163E+02 -0.16106775631E+02  0.10919674980E+03  0.11317359807E+03  0.00000000000E+00 0.  1.
         21    1    1    2  504  502 -0.66614505793E+02 -0.21908657669E+03 -0.31996516120E+03  0.39346426122E+03  0.00000000000E+00 0.  1.
<mgrwt>
<rscale>  4 0.26360072E+03</rscale>
<asrwt>0</asrwt>
<pdfrwt beam="1">  1       21 0.33141986E-01 0.26360072E+03</pdfrwt>
<pdfrwt beam="2">  1       21 0.96601371E-01 0.26360072E+03</pdfrwt>
<totfact> 0.74571695E+03</totfact>
</mgrwt>
</event>
<event>
 5    0  0.1200001E+000  0.2571604E+03  0.7546771E-02  0.1108861E+00
         21   -1    0    0  503  501  0.00000000000E+00  0.00000000000E+00  0.30156527005E+03  0.30156527005E+03  0.00000000000E+00 0. -1.
         21   -1    0    0  501  502 -0.00000000000E+00 -0.00000000000E+00 -0.41246981116E+03  0.41246981116E+03  0.00000000000E+00 0. -1.
         25    1    1    2    0    0 -0.12525767516E+03 -0.18068038597E+03 -0.12192327873E+03  0.28075821084E+03  0.12500000000E+03 0.  0.
         21    1    1    2  503  504  0.29991294583E+02 -0.28944498801E+02  0.15580365082E+03  0.16128248315E+03  0.00000000000E+00 0. -1.
         21    1    1    2  504  502  0.95266380576E+02  0.20962488477E+03 -0.14478491321E+03  0.27199438721E+03  0.00000000000E+00 0. -1.
<mgrwt>
<rscale>  4 0.25716041E+03</rscale>
<asrwt>0</asrwt>
<pdfrwt beam="1">  1       21 0.46394657E-01 0.25716041E+03</pdfrwt>
<pdfrwt beam="2">  1       21 0.63456894E-01 0.25716041E+03</pdfrwt>
<totfact> 0.98208048E+03</totfact>
</mgrwt>
</event>
<event>
 5    0  0.1200001E+000  0.2843006E+03  0.7546771E-02  0.1093363E+00
         21   -1    0    0  503  501  0.00000000000E+00  0.00000000000E+00  0.20272053664E+03  0.20272053664E+03  0.00000000000E+00 0. -1.
         21   -1    0    0  504  502 -0.00000000000E+00 -0.00000000000E+00 -0.41689181555E+03  0.41689181555E+03  0.00000000000E+00 0. -1.
         25    1    1    2    0    0  0.13132494261E+03 -0.21898760411E+03 -0.20867024620E+03  0.35266142822E+03  0.12500000000E+03 0.  0.
         21    1    1    2  503  502 -0.22612083798E+02  0.21693865627E+02  0.24396275738E+02  0.39712824244E+02  0.00000000000E+00 0. -1.
         21    1    1    2  504  501 -0.10871285881E+03  0.19729373848E+03 -0.29897308439E+02  0.22723809972E+03  0.00000000000E+00 0. -1.
<mgrwt>
<rscale>  4 0.28430057E+03</rscale>
<asrwt>0</asrwt>
<pdfrwt beam="1">  1       21 0.31187775E-01 0.28430057E+03</pdfrwt>
<pdfrwt beam="2">  1       21 0.64137201E-01 0.28430057E+03</pdfrwt>
<totfact> 0.21161678E+04</totfact>
</mgrwt>
</event>
<event>
 5    0  0.1200001E+000  0.2423043E+03  0.7546771E-02  0.1118267E+00
         21   -1    0    0  503  501  0.00000000000E+00  0.00000000000E+00  0.93530627624E+02  0.93530627624E+02  0.00000000000E+00 0.  1.
         21   -1    0    0  504  502 -0.00000000000E+00 -0.00000000000E+00 -0.91142278234E+03  0.91142278234E+03  0.00000000000E+00 0.  1.
         25    1    1    2    0    0 -0.20543110517E+03  0.10575351506E+02 -0.69651608337E+03  0.73693516094E+03  0.12500000000E+03 0.  0.
         21    1    1    2  503  502  0.21429418530E+03  0.12057856155E+02 -0.10798274626E+03  0.24026581787E+03  0.00000000000E+00 0.  1.
         21    1    1    2  504  501 -0.88630801247E+01 -0.22633207660E+02 -0.13393325093E+02  0.27752431161E+02  0.00000000000E+00 0.  1.
<mgrwt>
<rscale>  4 0.24230427E+03</rscale>
<asrwt>0</asrwt>
<pdfrwt beam="1">  1       21 0.14389326E-01 0.24230427E+03</pdfrwt>
<pdfrwt beam="2">  1       21 0.14021890E+00 0.24230427E+03</pdfrwt>
<totfact> 0.14603626E+04</totfact>
</mgrwt>
</event>
<event>
 5    0  0.1200001E+000  0.2477912E+03  0.7546771E-02  0.1114709E+00
         21   -1    0    0  503  501  0.00000000000E+00  0.00000000000E+00  0.47044813677E+03  0.47044813677E+03  0.00000000000E+00 0.  1.
         21   -1    0    0  504  502 -0.00000000000E+00 -0.00000000000E+00 -0.31737088929E+03  0.31737088929E+03  0.00000000000E+00 0.  1.
         25    1    1    2    0    0 -0.15342926914E+03 -0.14836363870E+03 -0.22570957688E+03  0.33484641705E+03  0.12500000000E+03 0.  0.
         21    1    1    2  503  502  0.13619108576E+03  0.17171423789E+03  0.34028876294E+03  0.40475947613E+03  0.00000000000E+00 0.  1.
         21    1    1    2  504  501  0.17238183376E+02 -0.23350599185E+02  0.38498061419E+02  0.48213132873E+02  0.00000000000E+00 0. -1.
<mgrwt>
<rscale>  4 0.24779121E+03</rscale>
<asrwt>0</asrwt>
<pdfrwt beam="1">  1       21 0.72376636E-01 0.24779121E+03</pdfrwt>
<pdfrwt beam="2">  1       21 0.48826291E-01 0.24779121E+03</pdfrwt>
<totfact> 0.66388309E+03</totfact>
</mgrwt>
</event>
<event>
 5    0  0.1200001E+000  0.2385804E+03  0.7546771E-02  0.1120742E+00
         21   -1    0    0  502  501  0.00000000000E+00  0.00000000000E+00  0.62939973311E+03  0.62939973311E+03  0.00000000000E+00 0. -1.
         21   -1    0    0  503  502 -0.00000000000E+00 -0.00000000000E+00 -0.14936008275E+03  0.14936008275E+03  0.00000000000E+00 0.  1.
         25    1    1    2    0    0  0.17794586468E+03 -0.92989387511E+02 -0.81112225933E+01  0.23664857675E+03  0.12500000000E+03 0.  0.
         21    1    1    2  503  504  0.18481680685E+02  0.80381386721E+01  0.26733936790E+02  0.33479659057E+02  0.00000000000E+00 0.  1.
         21    1    1    2  504  501 -0.19642754536E+03  0.84951248839E+02  0.46141693616E+03  0.50863158006E+03  0.00000000000E+00 0. -1.
<mgrwt>
<rscale>  4 0.23858044E+03</rscale>
<asrwt>0</asrwt>
<pdfrwt beam="1">  1       21 0.96830727E-01 0.23858044E+03</pdfrwt>
<pdfrwt beam="2">  1       21 0.22978475E-01 0.23858044E+03</pdfrwt>
<totfact> 0.15316997E+04</totfact>
</mgrwt>
</event>
<event>
 5    0  0.1200001E+000  0.2201157E+03  0.7546771E-02  0.1133797E+00
         21   -1    0    0  503  501  0.00000000000E+00  0.00000000000E+00  0.10337308510E+04  0.10337308510E+04  0.00000000000E+00 0. -1.
         21   -1    0    0  504  502 -0.00000000000E+00 -0.00000000000E+00 -0.73324196510E+02  0.73324196510E+02  0.00000000000E+00 0. -1.
         25    1    1    2    0    0 -0.50640675633E+02 -0.22812925553E+03  0.41046717336E+03  0.48858544356E+03  0.12500000000E+03 0.  0.
         21    1    1    2  503  502 -0.46788387736E+02  0.14962956413E+03  0.27884213992E+03  0.31989232358E+03  0.00000000000E+00 0. -1.
         21    1    1    2  504  501  0.97429063369E+02  0.78499691395E+02  0.27109734117E+03  0.29857728033E+03  0.00000000000E+00 0. -1.
<mgrwt>
<rscale>  4 0.22011572E+03</rscale>
<asrwt>0</asrwt>
<pdfrwt beam="1">  1       21 0.15903550E+00 0.22011572E+03</pdfrwt>
<pdfrwt beam="2">  1       21 0.11280646E-01 0.22011572E+03</pdfrwt>
<totfact> 0.16450723E+04</totfact>
</mgrwt>
</event>
<event>
 5    0  0.1200001E+000  0.2934508E+03  0.7546771E-02  0.1088561E+00
         21   -1    0    0  503  501  0.00000000000E+00  0.00000000000E+00  0.14453384161E+03  0.14453384161E+03  0.00000000000E+00 0. -1.
         21   -1    0    0  501  502 -0.00000000000E+00 -0.00000000000E+00 -0.88865565061E+03  0.88865565061E+03  0.00000000000E+00 0.  1.
         25    1    1    2    0    0  0.24797630031E+03 -0.77799575711E+02 -0.56473124630E+03  0.63410677338E+03  0.12500000000E+03 0.  0.
         21    1    1    2  503  504  0.93021781238E+01 -0.24403103543E+02  0.38681597588E+02  0.46672346977E+02  0.00000000000E+00 0.  1.
         21    1    1    2  504  502 -0.25727847843E+03  0.10220267925E+03 -0.21807216028E+03  0.35241037187E+03  0.00000000000E+00 0. -1.
<mgrwt>
<rscale>  4 0.29345079E+03</rscale>
<asrwt>0</asrwt>
<pdfrwt beam="1">  1       21 0.22235977E-01 0.29345079E+03</pdfrwt>
<pdfrwt beam="2">  1       21 0.13671625E+00 0.29345079E+03</pdfrwt>
<totfact> 0.67406143E+03</totfact>
</mgrwt>
</event>
<event>
 5    0  0.1200001E+000  0.2539597E+03  0.7546771E-02  0.1110828E+00
         21   -1    0    0  503  501  0.00000000000E+00  0.00000000000E+00  0.53838504481E+03  0.53838504481E+03  0.00000000000E+00 0.  1.
         21   -1    0    0  504  502 -0.00000000000E+00 -0.00000000000E+00 -0.36078436271E+03  0.36078436271E+03  0.00000000000E+00 0.  1.
         25    1    1    2    0    0  0.85472606003E+02 -0.21482456492E+03 -0.25882530960E+03  0.36887762328E+03  0.12500000000E+03 0.  0.
         21    1    1    2  503  502 -0.31699832830E+02  0.14124410494E+03  0.41089464273E+03  0.43564800471E+03  0.00000000000E+00 0.  1.
         21    1    1    2  504  501 -0.53772773173E+02  0.73580459975E+02  0.25531348974E+02  0.94643779538E+02  0.00000000000E+00 0.  1.
<mgrwt>
<rscale>  4 0.25395970E+03</rscale>
<asrwt>0</asrwt>
<pdfrwt beam="1">  1       21 0.82828468E-01 0.25395970E+03</pdfrwt>
<pdfrwt beam="2">  1       21 0.55505287E-01 0.25395970E+03</pdfrwt>
<totfact> 0.37182255E+03</totfact>
</mgrwt>
</event>
<event>
 5    0  0.1200001E+000  0.2442364E+03  0.7546771E-02  0.1117002E+00
         21   -1    0    0  503  501  0.00000000000E+00  0.00000000000E+00  0.13557758339E+03  0.13557758339E+03  0.00000000000E+00 0. -1.
         21   -1    0    0  501  502 -0.00000000000E+00 -0.00000000000E+00 -0.71239650306E+03  0.71239650306E+03  0.00000000000E+00 0. -1.
         25    1    1    2    0    0  0.41709675225E+02  0.22158623316E+03 -0.13983440183E+03  0.29328964467E+03  0.12500000000E+03 0.  0.
         21    1    1    2  503  504 -0.45059472469E+02 -0.15296831778E+02  0.21273539815E+02  0.52124011913E+02  0.00000000000E+00 0.  1.
         21    1    1    2  504  502  0.33497972444E+01 -0.20628940139E+03 -0.45825805765E+03  0.50256042987E+03  0.00000000000E+00 0. -1.
<mgrwt>
<rscale>  4 0.24423635E+03</rscale>
<asrwt>0</asrwt>
<pdfrwt beam="1">  1       21 0.20858090E-01 0.24423635E+03</pdfrwt>
<pdfrwt beam="2">  1       21 0.10959946E+00 0.24423635E+03</pdfrwt>
<totfact> 0.13617078E+04</totfact>
</mgrwt>
</event>
<event>
 5    0  0.1200001E+000  0.4025113E+03  0.7546771E-02  0.1042914E+00
         21   -1    0    0  503  501  0.00000000000E+00  0.00000000000E+00  0.56037039309E+03  0.56037039309E+03  0.00000000000E+00 0. -1.
         21   -1    0    0  501  502 -0.00000000000E+00 -0.00000000000E+00 -0.33603419395E+03  0.33603419395E+03  0.00000000000E+00 0. -1.
         25    1    1    2    0    0  0.34161671338E+03 -0.13720293462E+03  0.11454512641E+03  0.40530508276E+03  0.12500000000E+03 0.  0.
         21    1    1    2  503  504  0.26031644280E+02 -0.46702374519E+01  0.92980195115E+02  0.96668372829E+02  0.00000000000E+00 0.  1.
         21    1    1    2  504  502 -0.36764835766E+03  0.14187317207E+03  0.16810877622E+02  0.39443113145E+03  0.00000000000E+00 0. -1.
<mgrwt>
<rscale>  4 0.40251129E+03</rscale>
<asrwt>0</asrwt>
<pdfrwt beam="1">  1       21 0.86210830E-01 0.40251129E+03</pdfrwt>
<pdfrwt beam="2">  1       21 0.51697568E-01 0.40251129E+03</pdfrwt>
<totfact> 0.36644853E+03</totfact>
</mgrwt>
</event>
<event>
 5    0  0.1200001E+000  0.3573047E+03  0.7546771E-02  0.1059656E+00
         21   -1    0    0  503  501  0.00000000000E+00  0.00000000000E+00  0.89720203362E+03  0.89720203362E+03  0.00000000000E+00 0. -1.
         21   -1    0    0  504  502 -0.00000000000E+00 -0.00000000000E+00 -0.30897284234E+03  0.30897284234E+03  0.00000000000E+00 0. -1.
         25    1    1    2    0    0 -0.68626461302E+02 -0.33949538419E+03 -0.13058953726E+03  0.39069852101E+03  0.12500000000E+03 0.  0.
         21    1    1    2  503  502  0.95202413730E+02  0.27743991686E+03  0.44147070228E+03  0.53003093119E+03  0.00000000000E+00 0. -1.
         21    1    1    2  504  501 -0.26575952429E+02  0.62055467328E+02  0.27734802626E+03  0.28544542376E+03  0.00000000000E+00 0.  1.
<mgrwt>
<rscale>  4 0.35730469E+03</rscale>
<asrwt>0</asrwt>
<pdfrwt beam="1">  1       21 0.13803108E+00 0.35730469E+03</pdfrwt>
<pdfrwt beam="2">  1       21 0.47534284E-01 0.35730469E+03</pdfrwt>
<totfact> 0.13960596E+03</totfact>
</mgrwt>
</event>
<event>
 5    0  0.1200001E+000  0.2708219E+03  0.7546771E-02  0.1100810E+00
         21   -1    0    0  503  501  0.00000000000E+00  0.00000000000E+00  0.11858316512E+04  0.11858316512E+04  0.00000000000E+00 0. -1.
         21   -1    0    0  504  502 -0.00000000000E+00 -0.00000000000E+00 -0.18496247299E+03  0.18496247299E+03  0.00000000000E+00 0. -1.
         25    1    1    2    0    0 -0.19305914864E+03  0.16267255148E+03  0.72887195685E+02  0.29098408405E+03  0.12500000000E+03 0.  0.
         21    1    1    2  503  502  0.15808680261E+03 -0.16607195012E+03  0.98438079566E+02  0.24952231421E+03  0.00000000000E+00 0. -1.
         21    1    1    2  504  501  0.34972346023E+02  0.33993986449E+01  0.82954390294E+03  0.83028772591E+03  0.00000000000E+00 0. -1.
<mgrwt>
<rscale>  4 0.27082191E+03</rscale>
<asrwt>0</asrwt>
<pdfrwt beam="1">  1       21 0.18243563E+00 0.27082191E+03</pdfrwt>
<pdfrwt beam="2">  1       21 0.28455766E-01 0.27082191E+03</pdfrwt>
<totfact> 0.19336692E+03</totfact>
</mgrwt>
</event>
<event>
 5    0  0.1200001E+000  0.2446123E+03  0.7546771E-02  0.1116758E+00
         21   -1    0    0  502  501  0.00000000000E+00  0.00000000000E+00  0.41552517180E+03  0.41552517180E+03  0.00000000000E+00 0.  1.
         21   -1    0    0  503  502 -0.00000000000E+00 -0.00000000000E+00 -0.97730983437E+03  0.97730983437E+03  0.00000000000E+00 0.  1.
         25    1    1    2    0    0 -0.19916019481E+03 -0.49458256391E+02 -0.85162527281E+03  0.88487372410E+03  0.12500000000E+03 0.  0.
         21    1    1    2  503  504  0.24594060304E+03  0.82435154686E+02  0.53576967123E+02  0.26486378831E+03  0.00000000000E+00 0.  1.
         21    1    1    2  504  501 -0.46780408227E+02 -0.32976898294E+02  0.23626364311E+03  0.24309749376E+03  0.00000000000E+00 0.  1.
<mgrwt>
<rscale>  4 0.24461229E+03</rscale>
<asrwt>0</asrwt>
<pdfrwt beam="1">  1       21 0.63926949E-01 0.24461229E+03</pdfrwt>
<pdfrwt beam="2">  1       21 0.15035536E+00 0.24461229E+03</pdfrwt>
<totfact> 0.63734736E+02</totfact>
</mgrwt>
</event>
<event>
 5    0  0.1200001E+000  0.2733949E+03  0.7546771E-02  0.1099352E+00
         21   -1    0    0  503  501  0.00000000000E+00  0.00000000000E+00  0.15227767104E+04  0.15227767104E+04  0.00000000000E+00 0.  1.
         21   -1    0    0  504  502 -0.00000000000E+00 -0.00000000000E+00 -0.85080424552E+02  0.85080424552E+02  0.00000000000E+00 0. -1.
         25    1    1    2    0    0 -0.17363498269E+03  0.16034189232E+03  0.22420379405E+03  0.34892831773E+03  0.12500000000E+03 0.  0.
         21    1    1    2  503  502  0.20456305148E+03 -0.16363057092E+03  0.75069555866E+03  0.79508793700E+03  0.00000000000E+00 0.  1.
         21    1    1    2  504  501 -0.30928068791E+02  0.32886786004E+01  0.46279693313E+03  0.46384088022E+03  0.00000000000E+00 0. -1.
<mgrwt>
<rscale>  4 0.27339488E+03</rscale>
<asrwt>0</asrwt>
<pdfrwt beam="1">  1       21 0.23427332E+00 0.27339488E+03</pdfrwt>
<pdfrwt beam="2">  1       21 0.13089297E-01 0.27339488E+03</pdfrwt>
<totfact> 0.38567898E+03</totfact>
</mgrwt>
</event>
<event>
 5    0  0.1200001E+000  0.2778544E+03  0.7546771E-02  0.1096867E+00
         21   -1    0    0  503  501  0.00000000000E+00  0.00000000000E+00  0.24816566994E+04  0.24816566994E+04  0.00000000000E+00 0.  1.
         21   -1    0    0  504  502 -0.00000000000E+00 -0.00000000000E+00 -0.58153049379E+03  0.58153049379E+03  0.00000000000E+00 0.  1.
         25    1    1    2    0    0 -0.82968292836E+02 -0.22448512356E+03 -0.39347342022E+03  0.47720398232E+03  0.12500000000E+03 0.  0.
         21    1    1    2  503  502  0.13773023892E+03  0.24257738747E+03 -0.12434934018E+02  0.27922756885E+03  0.00000000000E+00 0.  1.
         21    1    1    2  504  501 -0.54761946080E+02 -0.18092263905E+02  0.23060345599E+04  0.23067556420E+04  0.00000000000E+00 0.  1.
<mgrwt>
<rscale>  4 0.27785443E+03</rscale>
<asrwt>0</asrwt>
<pdfrwt beam="1">  1       21 0.38179333E+00 0.27785443E+03</pdfrwt>
<pdfrwt beam="2">  1       21 0.89466231E-01 0.27785443E+03</pdfrwt>
<totfact> 0.10371647E+01</totfact>
</mgrwt>
</event>
<event>
 5    0  0.1200001E+000  0.2361945E+03  0.7546771E-02  0.1122354E+00
         21   -1    0    0  503  501  0.00000000000E+00  0.00000000000E+00  0.10453935989E+04  0.10453935989E+04  0.00000000000E+00 0.  1.
         21   -1    0    0  504  502 -0.00000000000E+00 -0.00000000000E+00 -0.25769432189E+03  0.25769432189E+03  0.00000000000E+00 0.  1.
         25    1    1    2    0    0 -0.97726547924E+02 -0.19173163875E+03 -0.65123131994E+02  0.25724992087E+03  0.12500000000E+03 0.  0.
         21    1    1    2  503  502  0.85558179067E+02  0.16571400458E+03 -0.59431774718E+01  0.18659221494E+03  0.00000000000E+00 0.  1.
         21    1    1    2  504  501  0.12168368857E+02  0.26017634175E+02  0.85876558648E+03  0.85924578499E+03  0.00000000000E+00 0.  1.
<mgrwt>
<rscale>  4 0.23619454E+03</rscale>
<asrwt>0</asrwt>
<pdfrwt beam="1">  1       21 0.16082978E+00 0.23619454E+03</pdfrwt>
<pdfrwt beam="2">  1       21 0.39645281E-01 0.23619454E+03</pdfrwt>
<totfact> 0.14614893E+03</totfact>
</mgrwt>
</event>
<event>
 5    0  0.1200001E+000  0.2800029E+03  0.7546771E-02  0.1095687E+00
         21   -1    0    0  503  501  0.00000000000E+00  0.00000000000E+00  0.10035740805E+04  0.10035740805E+04  0.00000000000E+00 0.  1.
         21   -1    0    0  501  502 -0.00000000000E+00 -0.00000000000E+00 -0.41354294050E+03  0.41354294050E+03  0.00000000000E+00 0.  1.
         25    1    1    2    0    0 -0.17726490863E+03 -0.17432516188E+03 -0.32847213954E+03  0.43050093652E+03  0.12500000000E+03 0.  0.
         21    1    1    2  503  504  0.14345308673E+01 -0.34225567327E+02  0.39338627124E+03  0.39487492417E+03  0.00000000000E+00 0.  1.
         21    1    1    2  504  502  0.17583037776E+03  0.20855072921E+03  0.52511700826E+03  0.59174116027E+03  0.00000000000E+00 0.  1.
<mgrwt>
<rscale>  4 0.28000287E+03</rscale>
<asrwt>0</asrwt>
<pdfrwt beam="1">  1       21 0.15439601E+00 0.28000287E+03</pdfrwt>
<pdfrwt beam="2">  1       21 0.63621991E-01 0.28000287E+03</pdfrwt>
<totfact> 0.58259516E+02</totfact>
</mgrwt>
</event>
<event>
 5    0  0.1200001E+000  0.2344514E+03  0.7546771E-02  0.1123545E+00
         21   -1    0    0  503  501  0.00000000000E+00  0.00000000000E+00  0.34959105941E+04  0.34959105941E+04  0.00000000000E+00 0. -1.
         21   -1    0    0  504  502 -0.00000000000E+00 -0.00000000000E+00 -0.58904492234E+02  0.58904492234E+02  0.00000000000E+00 0. -1.
         25    1    1    2    0    0 -0.90410372928E+02  0.17915752508E+03  0.19694440601E+03  0.30770692775E+03  0.12500000000E+03 0.  0.
         21    1    1    2  503  502  0.84862242942E+02 -0.15525547612E+03  0.23270595549E+04  0.23337763464E+04  0.00000000000E+00 0. -1.
         21    1    1    2  504  501  0.55481299857E+01 -0.23902048962E+02  0.91300214100E+03  0.91333181219E+03  0.00000000000E+00 0. -1.
<mgrwt>
<rscale>  4 0.23445142E+03</rscale>
<asrwt>0</asrwt>
<pdfrwt beam="1">  1       21 0.53783224E+00 0.23445142E+03</pdfrwt>
<pdfrwt beam="2">  1       21 0.90622323E-02 0.23445142E+03</pdfrwt>
<totfact> 0.90929659E+01</totfact>
</mgrwt>
</event>
<event>
 5    0  0.1200001E+000  0.1841495E+03  0.7546771E-02  0.1163846E+00
         21   -1    0    0  503  501  0.00000000000E+00  0.00000000000E+00  0.35450449842E+03  0.35450449842E+03  0.00000000000E+00 0. -1.
         21   -1    0    0  501  502 -0.00000000000E+00 -0.00000000000E+00 -0.64981946069E+03  0.64981946069E+03  0.00000000000E+00 0.  1.
         25    1    1    2    0    0  0.23123039943E+03  0.20925867951E+02 -0.29713965657E+03  0.39726863087E+03  0.12500000000E+03 0.  0.
         21    1    1    2  503  504 -0.13119676502E+03  0.47802260095E+00  0.28078789664E+03  0.30992686646E+03  0.00000000000E+00 0. -1.
         21    1    1    2  504  502 -0.10003363441E+03 -0.21403890552E+02 -0.27896320234E+03  0.29712846179E+03  0.00000000000E+00 0.  1.
<mgrwt>
<rscale>  4 0.18414952E+03</rscale>
<asrwt>0</asrwt>
<pdfrwt beam="1">  1       21 0.54539154E-01 0.18414952E+03</pdfrwt>
<pdfrwt beam="2">  1       21 0.99972224E-01 0.18414952E+03</pdfrwt>
<totfact> 0.26282220E+03</totfact>
</mgrwt>
</event>
<event>
 5    0  0.1200001E+000  0.2678055E+03  0.7546771E-02  0.1102542E+00
         21   -1    0    0  503  501  0.00000000000E+00  0.00000000000E+00  0.64478145011E+03  0.64478145011E+03  0.00000000000E+00 0.  1.
         21   -1    0    0  501  502 -0.00000000000E+00 -0.00000000000E+00 -0.25541834439E+03  0.25541834439E+03  0.00000000000E+00 0.  1.
         25    1    1    2    0    0 -0.16242240449E+03 -0.14947952186E+03 -0.79554275661E+02  0.26585531350E+03  0.12500000000E+03 0.  0.
         21    1    1    2  503  504 -0.78364236180E+02 -0.37712256414E+01  0.28309617778E+03  0.29376627024E+03  0.00000000000E+00 0. -1.
         21    1    1    2  504  502  0.24078664067E+03  0.15325074750E+03  0.18582120360E+03  0.34057821076E+03  0.00000000000E+00 0.  1.
<mgrwt>
<rscale>  4 0.26780546E+03</rscale>
<asrwt>0</asrwt>
<pdfrwt beam="1">  1       21 0.99197146E-01 0.26780546E+03</pdfrwt>
<pdfrwt beam="2">  1       21 0.39295130E-01 0.26780546E+03</pdfrwt>
<totfact> 0.49616065E+03</totfact>
</mgrwt>
</event>
<event>
 5    0  0.1200001E+000  0.2398638E+03  0.7546771E-02  0.1119884E+00
         21   -1    0    0  502  501  0.00000000000E+00  0.00000000000E+00  0.29060343685E+03  0.29060343685E+03  0.00000000000E+00 0. -1.
         21   -1    0    0  503  502 -0.00000000000E+00 -0.00000000000E+00 -0.78274159996E+03  0.78274159996E+03  0.00000000000E+00 0.  1.
         25    1    1    2    0    0  0.92914789448E+02 -0.18876498539E+03 -0.70721308884E+03  0.74835869130E+03  0.12500000000E+03 0.  0.
         21    1    1    2  503  504  0.17132424145E+02  0.78902379887E+02  0.37724984997E+02  0.89119470386E+02  0.00000000000E+00 0.  1.
         21    1    1    2  504  501 -0.11004721359E+03  0.10986260550E+03  0.17734994073E+03  0.23586687513E+03  0.00000000000E+00 0. -1.
<mgrwt>
<rscale>  4 0.23986379E+03</rscale>
<asrwt>0</asrwt>
<pdfrwt beam="1">  1       21 0.44708221E-01 0.23986379E+03</pdfrwt>
<pdfrwt beam="2">  1       21 0.12042179E+00 0.23986379E+03</pdfrwt>
<totfact> 0.24178836E+03</totfact>
</mgrwt>
</event>
<event>
 5    0  0.1200001E+000  0.2494347E+03  0.7546771E-02  0.1113663E+00
         21   -1    0    0  503  501  0.00000000000E+00  0.00000000000E+00  0.95170956923E+03  0.95170956923E+03  0.00000000000E+00 0.  1.
         21   -1    0    0  501  502 -0.00000000000E+00 -0.00000000000E+00 -0.48302387594E+03  0.48302387594E+03  0.00000000000E+00 0.  1.
         25    1    1    2    0    0 -0.11925941677E+03 -0.17641730664E+03 -0.41412275048E+03  0.48214990100E+03  0.12500000000E+03 0.  0.
         21    1    1    2  503  504 -0.23663284613E+02 -0.38557569830E+02  0.42179272770E+03  0.42421190739E+03  0.00000000000E+00 0.  1.
         21    1    1    2  504  502  0.14292270138E+03  0.21497487647E+03  0.46101571607E+03  0.52837163677E+03  0.00000000000E+00 0.  1.
<mgrwt>
<rscale>  4 0.24943471E+03</rscale>
<asrwt>0</asrwt>
<pdfrwt beam="1">  1       21 0.14641686E+00 0.24943471E+03</pdfrwt>
<pdfrwt beam="2">  1       21 0.74311366E-01 0.24943471E+03</pdfrwt>
<totfact> 0.48796196E+02</totfact>
</mgrwt>
</event>
<event>
 5    0  0.1200001E+000  0.2893221E+03  0.7546771E-02  0.1090704E+00
         21   -1    0    0  502  501  0.00000000000E+00  0.00000000000E+00  0.11263675633E+03  0.11263675633E+03  0.00000000000E+00 0. -1.
         21   -1    0    0  504  502 -0.00000000000E+00 -0.00000000000E+00 -0.10992727093E+04  0.10992727093E+04  0.00000000000E+00 0.  1.
         25    1    1    2    0    0 -0.11147054424E+03 -0.23591645682E+03 -0.86215791219E+03  0.90940833644E+03  0.12500000000E+03 0.  0.
         21    1    1    2  503  501  0.53291892360E+02  0.19928966552E+03 -0.10230022566E+03  0.23026448433E+03  0.00000000000E+00 0. -1.
         21    1    1    2  504  503  0.58178651885E+02  0.36626791298E+02 -0.22177815097E+02  0.72236644845E+02  0.00000000000E+00 0. -1.
<mgrwt>
<rscale>  4 0.28932206E+03</rscale>
<asrwt>0</asrwt>
<pdfrwt beam="1">  1       21 0.17328732E-01 0.28932206E+03</pdfrwt>
<pdfrwt beam="2">  1       21 0.16911887E+00 0.28932206E+03</pdfrwt>
<totfact> 0.60914558E+03</totfact>
</mgrwt>
</event>
<event>
 5    0  0.1200001E+000  0.2698383E+03  0.7546771E-02  0.1101372E+00
         21   -1    0    0  503  501  0.00000000000E+00  0.00000000000E+00  0.29558266535E+04  0.29558266535E+04  0.00000000000E+00 0. -1.
         21   -1    0    0  501  502 -0.00000000000E+00 -0.00000000000E+00 -0.35639865495E+02  0.35639865495E+02  0.00000000000E+00 0.  1.
         25    1    1    2    0    0  0.20613533719E+02 -0.23292204200E+03  0.62277685113E+03  0.67687044678E+03  0.12500000000E+03 0.  0.
         21    1    1    2  503  504 -0.64203587111E+01 -0.22304782286E+02  0.29986366977E+03  0.30076061040E+03  0.00000000000E+00 0. -1.
         21    1    1    2  504  502 -0.14193175008E+02  0.25522682428E+03  0.19975462671E+04  0.20138354618E+04  0.00000000000E+00 0. -1.
<mgrwt>
<rscale>  4 0.26983833E+03</rscale>
<asrwt>0</asrwt>
<pdfrwt beam="1">  1       21 0.45474237E+00 0.26983833E+03</pdfrwt>
<pdfrwt beam="2">  1       21 0.54830586E-02 0.26983833E+03</pdfrwt>
<totfact> 0.80167320E+02</totfact>
</mgrwt>
</event>
<event>
 5    0  0.1200001E+000  0.2832061E+03  0.7546771E-02  0.1093951E+00
         21   -1    0    0  503  501  0.00000000000E+00  0.00000000000E+00  0.24050190659E+03  0.24050190659E+03  0.00000000000E+00 0. -1.
         21   -1    0    0  501  502 -0.00000000000E+00 -0.00000000000E+00 -0.83983184821E+03  0.83983184821E+03  0.00000000000E+00 0.  1.
         25    1    1    2    0    0 -0.56801525255E+02 -0.24769796884E+03 -0.73410636346E+03  0.78684042213E+03  0.12500000000E+03 0.  0.
         21    1    1    2  503  504  0.15283155871E+02  0.58099457071E+02  0.61658343873E+02  0.86086428283E+02  0.00000000000E+00 0. -1.
         21    1    1    2  504  502  0.41518369383E+02  0.18959851177E+03  0.73118077970E+02  0.20740690438E+03  0.00000000000E+00 0. -1.
<mgrwt>
<rscale>  4 0.28320610E+03</rscale>
<asrwt>0</asrwt>
<pdfrwt beam="1">  1       21 0.37000294E-01 0.28320610E+03</pdfrwt>
<pdfrwt beam="2">  1       21 0.12920490E+00 0.28320610E+03</pdfrwt>
<totfact> 0.28917968E+03</totfact>
</mgrwt>
</event>
<event>
 5    0  0.1200001E+000  0.2006153E+03  0.7546771E-02  0.1149221E+00
         21   -1    0    0  503  501  0.00000000000E+00  0.00000000000E+00  0.54685005774E+03  0.54685005774E+03  0.00000000000E+00 0. -1.
         21   -1    0    0  504  502 -0.00000000000E+00 -0.00000000000E+00 -0.23955055573E+03  0.23955055573E+03  0.00000000000E+00 0. -1.
         25    1    1    2    0    0  0.21982221881E+03  0.34190478134E+02 -0.78816524122E+02  0.26707272633E+03  0.12500000000E+03 0.  0.
         21    1    1    2  503  502 -0.74668639367E+02 -0.83132316893E+02  0.87830850844E+01  0.11208715538E+03  0.00000000000E+00 0. -1.
         21    1    1    2  504  501 -0.14515357944E+03  0.48941838759E+02  0.37733294105E+03  0.40724073176E+03  0.00000000000E+00 0. -1.
<mgrwt>
<rscale>  4 0.20061529E+03</rscale>
<asrwt>0</asrwt>
<pdfrwt beam="1">  1       21 0.84130778E-01 0.20061529E+03</pdfrwt>
<pdfrwt beam="2">  1       21 0.36853932E-01 0.20061529E+03</pdfrwt>
<totfact> 0.86613154E+03</totfact>
</mgrwt>
</event>
<event>
 5    0  0.1200001E+000  0.2921651E+03  0.7546771E-02  0.1089224E+00
         21   -1    0    0  502  501  0.00000000000E+00  0.00000000000E+00  0.68564341048E+03  0.68564341048E+03  0.00000000000E+00 0.  1.
         21   -1    0    0  503  502 -0.00000000000E+00 -0.00000000000E+00 -0.68339694326E+03  0.68339694326E+03  0.00000000000E+00 0. -1.
         25    1    1    2    0    0  0.24147304029E+03 -0.10563180383E+03 -0.61270250590E+03  0.67859904797E+03  0.12500000000E+03 0.  0.
         21    1    1    2  503  504  0.19075736748E+02  0.22655314383E+02  0.13362605424E+03  0.13686880351E+03  0.00000000000E+00 0. -1.
         21    1    1    2  504  501 -0.26054877704E+03  0.82976489444E+02  0.48132291889E+03  0.55357250227E+03  0.00000000000E+00 0.  1.
<mgrwt>
<rscale>  4 0.29216506E+03</rscale>
<asrwt>0</asrwt>
<pdfrwt beam="1">  1       21 0.10548360E+00 0.29216506E+03</pdfrwt>
<pdfrwt beam="2">  1       21 0.10513799E+00 0.29216506E+03</pdfrwt>
<totfact> 0.48076914E+02</totfact>
</mgrwt>
</event>
<event>
 5    0  0.1200001E+000  0.2835013E+03  0.7546771E-02  0.1093792E+00
         21   -1    0    0  503  501  0.00000000000E+00  0.00000000000E+00  0.93043851963E+03  0.93043851963E+03  0.00000000000E+00 0. -1.
         21   -1    0    0  501  502 -0.00000000000E+00 -0.00000000000E+00 -0.14484880058E+03  0.14484880058E+03  0.00000000000E+00 0. -1.
         25    1    1    2    0    0 -0.10372010090E+02 -0.26002809154E+03  0.75143196392E+02  0.29831809691E+03  0.12500000000E+03 0.  0.
         21    1    1    2  503  504  0.21926842953E+02  0.19016149877E+02  0.29585416905E+03  0.29727443507E+03  0.00000000000E+00 0. -1.
         21    1    1    2  504  502 -0.11554832863E+02  0.24101194166E+03  0.41459235361E+03  0.47969478823E+03  0.00000000000E+00 0. -1.
<mgrwt>
<rscale>  4 0.28350132E+03</rscale>
<asrwt>0</asrwt>
<pdfrwt beam="1">  1       21 0.14314438E+00 0.28350132E+03</pdfrwt>
<pdfrwt beam="2">  1       21 0.22284431E-01 0.28350132E+03</pdfrwt>
<totfact> 0.59827726E+03</totfact>
</mgrwt>
</event>
<event>
 5    0  0.1200001E+000  0.2830906E+03  0.7546771E-02  0.1094013E+00
         21   -1    0    0  503  501  0.00000000000E+00  0.00000000000E+00  0.55931685151E+02  0.55931685151E+02  0.00000000000E+00 0.  1.
         21   -1    0    0  501  502 -0.00000000000E+00 -0.00000000000E+00 -0.16299687705E+04  0.16299687705E+04  0.00000000000E+00 0.  1.
         25    1    1    2    0    0 -0.79830833023E+01 -0.25798964036E+03 -0.57276596397E+03  0.64055306856E+03  0.12500000000E+03 0.  0.
         21    1    1    2  503  504  0.47906022319E+02  0.10186967463E+02 -0.18350425276E+03  0.18992780750E+03  0.00000000000E+00 0.  1.
         21    1    1    2  504  502 -0.39922939016E+02  0.24780267289E+03 -0.81776686865E+03  0.85541957963E+03  0.00000000000E+00 0.  1.
<mgrwt>
<rscale>  4 0.28309058E+03</rscale>
<asrwt>0</asrwt>
<pdfrwt beam="1">  1       21 0.86048743E-02 0.28309058E+03</pdfrwt>
<pdfrwt beam="2">  1       21 0.25076444E+00 0.28309058E+03</pdfrwt>
<totfact> 0.64466614E+03</totfact>
</mgrwt>
</event>
<event>
 5    0  0.1200001E+000  0.3446954E+03  0.7546771E-02  0.1064814E+00
         21   -1    0    0  503  501  0.00000000000E+00  0.00000000000E+00  0.41956656449E+03  0.41956656449E+03  0.00000000000E+00 0.  1.
         21   -1    0    0  504  502 -0.00000000000E+00 -0.00000000000E+00 -0.12594274349E+04  0.12594274349E+04  0.00000000000E+00 0.  1.
         25    1    1    2    0    0 -0.38231982081E+03 -0.37183744003E+02 -0.81870141070E+03  0.91293377420E+03  0.12500000000E+03 0.  0.
         21    1    1    2  503  502  0.25313839439E+03 -0.99241612777E+02 -0.31573217793E+03  0.41667103643E+03  0.00000000000E+00 0.  1.
         21    1    1    2  504  501  0.12918142642E+03  0.13642535678E+03  0.29457271822E+03  0.34938918876E+03  0.00000000000E+00 0.  1.
<mgrwt>
<rscale>  4 0.34469541E+03</rscale>
<asrwt>0</asrwt>
<pdfrwt beam="1">  1       21 0.64548701E-01 0.34469541E+03</pdfrwt>
<pdfrwt beam="2">  1       21 0.19375807E+00 0.34469541E+03</pdfrwt>
<totfact> 0.28277996E+02</totfact>
</mgrwt>
</event>
<event>
 5    0  0.1200001E+000  0.2743063E+03  0.7546771E-02  0.1098840E+00
         21   -1    0    0  502  501  0.00000000000E+00  0.00000000000E+00  0.18828308511E+03  0.18828308511E+03  0.00000000000E+00 0.  1.
         21   -1    0    0  504  502 -0.00000000000E+00 -0.00000000000E+00 -0.75291258844E+03  0.75291258844E+03  0.00000000000E+00 0.  1.
         25    1    1    2    0    0 -0.24073300891E+03  0.40823294425E+02 -0.62119753746E+03  0.67906575786E+03  0.12500000000E+03 0.  0.
         21    1    1    2  503  501  0.20075180676E+03 -0.62780550550E+02  0.46603785857E+02  0.21544047508E+03  0.00000000000E+00 0.  1.
         21    1    1    2  504  503  0.39981202149E+02  0.21957256126E+02  0.99642482690E+01  0.46689440620E+02  0.00000000000E+00 0. -1.
<mgrwt>
<rscale>  4 0.27430626E+03</rscale>
<asrwt>0</asrwt>
<pdfrwt beam="1">  1       21 0.28966628E-01 0.27430626E+03</pdfrwt>
<pdfrwt beam="2">  1       21 0.11583271E+00 0.27430626E+03</pdfrwt>
<totfact> 0.62239914E+03</totfact>
</mgrwt>
</event>
<event>
 5    0  0.1200001E+000  0.2607217E+03  0.7546771E-02  0.1106710E+00
         21   -1    0    0  502  501  0.00000000000E+00  0.00000000000E+00  0.24810398146E+03  0.24810398146E+03  0.00000000000E+00 0. -1.
         21   -1    0    0  503  502 -0.00000000000E+00 -0.00000000000E+00 -0.48736950792E+03  0.48736950792E+03  0.00000000000E+00 0. -1.
         25    1    1    2    0    0  0.17219514505E+03 -0.17814868676E+03 -0.13357184213E+03  0.30798467427E+03  0.12500000000E+03 0.  0.
         21    1    1    2  503  504 -0.15996532718E+03 -0.62505160206E+02 -0.26075998468E+02  0.17371171132E+03  0.00000000000E+00 0. -1.
         21    1    1    2  504  501 -0.12229817872E+02  0.24065384697E+03 -0.79617685853E+02  0.25377710379E+03  0.00000000000E+00 0. -1.
<mgrwt>
<rscale>  4 0.26072174E+03</rscale>
<asrwt>0</asrwt>
<pdfrwt beam="1">  1       21 0.38169844E-01 0.26072174E+03</pdfrwt>
<pdfrwt beam="2">  1       21 0.74979924E-01 0.26072174E+03</pdfrwt>
<totfact> 0.10101558E+04</totfact>
</mgrwt>
</event>
<event>
 5    0  0.1200001E+000  0.6523074E+03  0.7546771E-02  0.1011891E+00
         21   -1    0    0  503  501  0.00000000000E+00  0.00000000000E+00  0.44499079590E+03  0.44499079590E+03  0.00000000000E+00 0.  1.
         21   -1    0    0  504  502 -0.00000000000E+00 -0.00000000000E+00 -0.14324744012E+04  0.14324744012E+04  0.00000000000E+00 0.  1.
         25    1    1    2    0    0  0.17615307948E+03  0.10139713460E+03 -0.42769893371E+02  0.24241606814E+03  0.12500000000E+03 0.  0.
         21    1    1    2  503  502 -0.39825456700E+03 -0.63880125139E+03 -0.51774253927E+03  0.91363618354E+03  0.00000000000E+00 0.  1.
         21    1    1    2  504  501  0.22210148752E+03  0.53740411679E+03 -0.42697117262E+03  0.72141294537E+03  0.00000000000E+00 0.  1.
<mgrwt>
<rscale>  4 0.50729769E+03</rscale>
<asrwt>0</asrwt>
<pdfrwt beam="1">  1       21 0.68460122E-01 0.65230742E+03</pdfrwt>
<pdfrwt beam="2">  1       21 0.22038068E+00 0.65230742E+03</pdfrwt>
<totfact> 0.14188052E+02</totfact>
</mgrwt>
</event>
<event>
 5    0  0.1200001E+000  0.2689822E+03  0.7546771E-02  0.1101864E+00
         21   -1    0    0  503  501  0.00000000000E+00  0.00000000000E+00  0.25470261186E+03  0.25470261186E+03  0.00000000000E+00 0. -1.
         21   -1    0    0  501  502 -0.00000000000E+00 -0.00000000000E+00 -0.33356229748E+03  0.33356229748E+03  0.00000000000E+00 0. -1.
         25    1    1    2    0    0 -0.24061251974E+03 -0.40942973188E+02  0.64672412788E+02  0.28174142877E+03  0.12500000000E+03 0.  0.
         21    1    1    2  503  504  0.46220980789E+01  0.27770983560E+02  0.31829921922E+01  0.28332362377E+02  0.00000000000E+00 0.  1.
         21    1    1    2  504  502  0.23599042166E+03  0.13171989628E+02 -0.14671509060E+03  0.27819111819E+03  0.00000000000E+00 0. -1.
<mgrwt>
<rscale>  4 0.26898221E+03</rscale>
<asrwt>0</asrwt>
<pdfrwt beam="1">  1       21 0.39185017E-01 0.26898221E+03</pdfrwt>
<pdfrwt beam="2">  1       21 0.51317277E-01 0.26898221E+03</pdfrwt>
<totfact> 0.21787292E+04</totfact>
</mgrwt>
</event>
<event>
 5    0  0.1200001E+000  0.2563996E+03  0.7546771E-02  0.1109326E+00
         21   -1    0    0  503  501  0.00000000000E+00  0.00000000000E+00  0.23296807491E+03  0.23296807491E+03  0.00000000000E+00 0.  1.
         21   -1    0    0  501  502 -0.00000000000E+00 -0.00000000000E+00 -0.55365781454E+03  0.55365781454E+03  0.00000000000E+00 0.  1.
         25    1    1    2    0    0  0.14807606735E+03  0.16789645286E+03 -0.44274679755E+03  0.51163020566E+03  0.12500000000E+03 0.  0.
         21    1    1    2  503  504 -0.17579574046E+01 -0.63340266650E+02  0.52094690728E+02  0.82030095670E+02  0.00000000000E+00 0.  1.
         21    1    1    2  504  502 -0.14631810995E+03 -0.10455618621E+03  0.69962367189E+02  0.19296558812E+03  0.00000000000E+00 0.  1.
<mgrwt>
<rscale>  4 0.25639957E+03</rscale>
<asrwt>0</asrwt>
<pdfrwt beam="1">  1       21 0.35841243E-01 0.25639957E+03</pdfrwt>
<pdfrwt beam="2">  1       21 0.85178124E-01 0.25639957E+03</pdfrwt>
<totfact> 0.85953181E+03</totfact>
</mgrwt>
</event>
<event>
 5    0  0.1200001E+000  0.2709219E+03  0.7546771E-02  0.1100753E+00
         21   -1    0    0  502  501  0.00000000000E+00  0.00000000000E+00  0.56530353519E+02  0.56530353519E+02  0.00000000000E+00 0. -1.
         21   -1    0    0  504  502 -0.00000000000E+00 -0.00000000000E+00 -0.16801849503E+04  0.16801849503E+04  0.00000000000E+00 0. -1.
         25    1    1    2    0    0  0.16269943494E+03  0.15440183275E+03 -0.98855068794E+03  0.10213562036E+04  0.12500000000E+03 0.  0.
         21    1    1    2  503  501 -0.21088727565E+03 -0.17630691243E+03 -0.50635556847E+03  0.57615408713E+03  0.00000000000E+00 0. -1.
         21    1    1    2  504  503  0.48187840713E+02  0.21905079676E+02 -0.12874834035E+03  0.13920501303E+03  0.00000000000E+00 0. -1.
<mgrwt>
<rscale>  4 0.27092189E+03</rscale>
<asrwt>0</asrwt>
<pdfrwt beam="1">  1       21 0.86969776E-02 0.27092189E+03</pdfrwt>
<pdfrwt beam="2">  1       21 0.25848999E+00 0.27092189E+03</pdfrwt>
<totfact> 0.57394104E+03</totfact>
</mgrwt>
</event>
<event>
 5    0  0.1200001E+000  0.2655194E+03  0.7546771E-02  0.1103872E+00
         21   -1    0    0  503  501  0.00000000000E+00  0.00000000000E+00  0.14490814213E+04  0.14490814213E+04  0.00000000000E+00 0.  1.
         21   -1    0    0  501  502 -0.00000000000E+00 -0.00000000000E+00 -0.12126056296E+03  0.12126056296E+03  0.00000000000E+00 0.  1.
         25    1    1    2    0    0  0.12581387760E+03 -0.21027327821E+03  0.15585387969E+03  0.31616358920E+03  0.12500000000E+03 0.  0.
         21    1    1    2  503  504 -0.60375802459E+02 -0.38165984407E+01  0.89952876320E+03  0.90156075767E+03  0.00000000000E+00 0.  1.
         21    1    1    2  504  502 -0.65438075139E+02  0.21408987665E+03  0.27243821546E+03  0.35261763740E+03  0.00000000000E+00 0.  1.
<mgrwt>
<rscale>  4 0.26551944E+03</rscale>
<asrwt>0</asrwt>
<pdfrwt beam="1">  1       21 0.22293559E+00 0.26551944E+03</pdfrwt>
<pdfrwt beam="2">  1       21 0.18655472E-01 0.26551944E+03</pdfrwt>
<totfact> 0.23725261E+03</totfact>
</mgrwt>
</event>
<event>
 5    0  0.1200001E+000  0.3470465E+03  0.7546771E-02  0.1063834E+00
         21   -1    0    0  503  501  0.00000000000E+00  0.00000000000E+00  0.31566328915E+03  0.31566328915E+03  0.00000000000E+00 0. -1.
         21   -1    0    0  504  502 -0.00000000000E+00 -0.00000000000E+00 -0.68148251166E+03  0.68148251166E+03  0.00000000000E+00 0. -1.
         25    1    1    2    0    0  0.19239660472E+01  0.25032431072E+03  0.93159600977E+01  0.27996026378E+03  0.12500000000E+03 0.  0.
         21    1    1    2  503  502  0.12681041226E+03 -0.34151550979E+03 -0.41724498070E+03  0.55390170428E+03  0.00000000000E+00 0. -1.
         21    1    1    2  504  501 -0.12873437830E+03  0.91191199074E+02  0.42109798085E+02  0.16328383276E+03  0.00000000000E+00 0. -1.
<mgrwt>
<rscale>  4 0.34704655E+03</rscale>
<asrwt>0</asrwt>
<pdfrwt beam="1">  1       21 0.48563583E-01 0.34704655E+03</pdfrwt>
<pdfrwt beam="2">  1       21 0.10484346E+00 0.34704655E+03</pdfrwt>
<totfact> 0.26854206E+03</totfact>
</mgrwt>
</event>
<event>
 5    0  0.1200001E+000  0.3130716E+03  0.7546771E-02  0.1078883E+00
         21   -1    0    0  503  501  0.00000000000E+00  0.00000000000E+00  0.29426624013E+03  0.29426624013E+03  0.00000000000E+00 0. -1.
         21   -1    0    0  501  502 -0.00000000000E+00 -0.00000000000E+00 -0.62457838009E+03  0.62457838009E+03  0.00000000000E+00 0. -1.
         25    1    1    2    0    0  0.25060574962E+03  0.13185677681E+03 -0.46007772576E+03  0.55451417031E+03  0.12500000000E+03 0.  0.
         21    1    1    2  503  504  0.27232400296E+02 -0.75945834953E+01  0.36162219589E+02  0.45901932965E+02  0.00000000000E+00 0. -1.
         21    1    1    2  504  502 -0.27783814992E+03 -0.12426219331E+03  0.93603366214E+02  0.31842851694E+03  0.00000000000E+00 0. -1.
<mgrwt>
<rscale>  4 0.31307161E+03</rscale>
<asrwt>0</asrwt>
<pdfrwt beam="1">  1       21 0.45271729E-01 0.31307161E+03</pdfrwt>
<pdfrwt beam="2">  1       21 0.96088982E-01 0.31307161E+03</pdfrwt>
<totfact> 0.39038773E+03</totfact>
</mgrwt>
</event>
<event>
 5    0  0.1200001E+000  0.3410391E+03  0.7546771E-02  0.1066354E+00
         21   -1    0    0  503  501  0.00000000000E+00  0.00000000000E+00  0.41446746846E+03  0.41446746846E+03  0.00000000000E+00 0.  1.
         21   -1    0    0  501  502 -0.00000000000E+00 -0.00000000000E+00 -0.30150961484E+03  0.30150961484E+03  0.00000000000E+00 0.  1.
         25    1    1    2    0    0 -0.29975724168E+03 -0.83127335879E+02 -0.96852026315E+01  0.33538539184E+03  0.12500000000E+03 0.  0.
         21    1    1    2  503  504 -0.95276370124E+01 -0.18405737548E+02  0.39515740241E+02  0.44621079867E+02  0.00000000000E+00 0.  1.
         21    1    1    2  504  502  0.30928487869E+03  0.10153307343E+03  0.83127316013E+02  0.33597061159E+03  0.00000000000E+00 0.  1.
<mgrwt>
<rscale>  4 0.34103914E+03</rscale>
<asrwt>0</asrwt>
<pdfrwt beam="1">  1       21 0.63764226E-01 0.34103914E+03</pdfrwt>
<pdfrwt beam="2">  1       21 0.46386095E-01 0.34103914E+03</pdfrwt>
<totfact> 0.93525374E+03</totfact>
</mgrwt>
</event>
<event>
 5    0  0.1200001E+000  0.2555106E+03  0.7546771E-02  0.1109871E+00
         21   -1    0    0  503  501  0.00000000000E+00  0.00000000000E+00  0.42007253538E+03  0.42007253538E+03  0.00000000000E+00 0. -1.
         21   -1    0    0  501  502 -0.00000000000E+00 -0.00000000000E+00 -0.29166664786E+03  0.29166664786E+03  0.00000000000E+00 0.  1.
         25    1    1    2    0    0 -0.21867911325E+03 -0.42896257684E+02 -0.18180131244E+03  0.31358788354E+03  0.12500000000E+03 0.  0.
         21    1    1    2  503  504  0.92307656038E+02  0.52351124784E+02  0.21460725275E+03  0.23941097837E+03  0.00000000000E+00 0. -1.
         21    1    1    2  504  502  0.12637145721E+03 -0.94548670993E+01  0.95599947208E+02  0.15874032133E+03  0.00000000000E+00 0.  1.
<mgrwt>
<rscale>  4 0.25551055E+03</rscale>
<asrwt>0</asrwt>
<pdfrwt beam="1">  1       21 0.64626544E-01 0.25551055E+03</pdfrwt>
<pdfrwt beam="2">  1       21 0.44871792E-01 0.25551055E+03</pdfrwt>
<totfact> 0.10120888E+04</totfact>
</mgrwt>
</event>
<event>
 5    0  0.1200001E+000  0.2731342E+03  0.7546771E-02  0.1099499E+00
         21   -1    0    0  503  501  0.00000000000E+00  0.00000000000E+00  0.64445653779E+03  0.64445653779E+03  0.00000000000E+00 0.  1.
         21   -1    0    0  501  502 -0.00000000000E+00 -0.00000000000E+00 -0.24093444160E+03  0.24093444160E+03  0.00000000000E+00 0.  1.
         25    1    1    2    0    0 -0.26525462415E+03  0.88558960310E+01  0.30333624234E+03  0.42199089854E+03  0.12500000000E+03 0.  0.
         21    1    1    2  503  504  0.27270802599E+02 -0.68279126212E+01  0.20243122541E+03  0.20437396626E+03  0.00000000000E+00 0.  1.
         21    1    1    2  504  502  0.23798382155E+03 -0.20279834098E+01 -0.10224537156E+03  0.25902611460E+03  0.00000000000E+00 0.  1.
<mgrwt>
<rscale>  4 0.27313420E+03</rscale>
<asrwt>0</asrwt>
<pdfrwt beam="1">  1       21 0.99147159E-01 0.27313420E+03</pdfrwt>
<pdfrwt beam="2">  1       21 0.37066838E-01 0.27313420E+03</pdfrwt>
<totfact> 0.55731890E+03</totfact>
</mgrwt>
</event>
<event>
 5    0  0.1200001E+000  0.3198746E+03  0.7546771E-02  0.1075707E+00
         21   -1    0    0  503  501  0.00000000000E+00  0.00000000000E+00  0.35031993918E+03  0.35031993918E+03  0.00000000000E+00 0.  1.
         21   -1    0    0  504  502 -0.00000000000E+00 -0.00000000000E+00 -0.42166264386E+03  0.42166264386E+03  0.00000000000E+00 0.  1.
         25    1    1    2    0    0 -0.25954338630E+03  0.12842272870E+03 -0.21094995926E+03  0.37944703442E+03  0.12500000000E+03 0.  0.
         21    1    1    2  503  502  0.26332521491E+03 -0.15567883474E+03  0.64611813222E+02  0.31265117112E+03  0.00000000000E+00 0.  1.
         21    1    1    2  504  501 -0.37818286129E+01  0.27256106040E+02  0.74995441359E+02  0.79884377501E+02  0.00000000000E+00 0.  1.
<mgrwt>
<rscale>  4 0.31987463E+03</rscale>
<asrwt>0</asrwt>
<pdfrwt beam="1">  1       21 0.53895376E-01 0.31987463E+03</pdfrwt>
<pdfrwt beam="2">  1       21 0.64871176E-01 0.31987463E+03</pdfrwt>
<totfact> 0.66179667E+03</totfact>
</mgrwt>
</event>
<event>
 5    0  0.1200001E+000  0.2779808E+03  0.7546771E-02  0.1096797E+00
         21   -1    0    0  503  501  0.00000000000E+00  0.00000000000E+00  0.99210685561E+03  0.99210685561E+03  0.00000000000E+00 0.  1.
         21   -1    0    0  504  502 -0.00000000000E+00 -0.00000000000E+00 -0.29911111020E+03  0.29911111020E+03  0.00000000000E+00 0. -1.
         25    1    1    2    0    0 -0.70597256886E+02  0.21939421380E+03  0.40547048189E+02  0.26530521450E+03  0.12500000000E+03 0.  0.
         21    1    1    2  503  502  0.18630735375E+03 -0.19503278194E+03 -0.82076563948E+02  0.28193044965E+03  0.00000000000E+00 0. -1.
         21    1    1    2  504  501 -0.11571009686E+03 -0.24361431851E+02  0.73452526116E+03  0.74398230165E+03  0.00000000000E+00 0.  1.
<mgrwt>
<rscale>  4 0.27798079E+03</rscale>
<asrwt>0</asrwt>
<pdfrwt beam="1">  1       21 0.15263182E+00 0.27798079E+03</pdfrwt>
<pdfrwt beam="2">  1       21 0.46017094E-01 0.27798079E+03</pdfrwt>
<totfact> 0.12003598E+03</totfact>
</mgrwt>
</event>
<event>
 5    0  0.1200001E+000  0.3472376E+03  0.7546771E-02  0.1063755E+00
         21   -1    0    0  502  501  0.00000000000E+00  0.00000000000E+00  0.15448683029E+03  0.15448683029E+03  0.00000000000E+00 0.  1.
         21   -1    0    0  503  502 -0.00000000000E+00 -0.00000000000E+00 -0.10779997182E+04  0.10779997182E+04  0.00000000000E+00 0.  1.
         25    1    1    2    0    0 -0.52218854454E+02  0.29853999850E+03 -0.38519172054E+03  0.50581676627E+03  0.12500000000E+03 0.  0.
         21    1    1    2  503  504  0.43141521743E+02  0.43349955889E+02  0.26274686843E+02  0.66564019880E+02  0.00000000000E+00 0.  1.
         21    1    1    2  504  501  0.90773327103E+01 -0.34188995439E+03 -0.56459585419E+03  0.66010576232E+03  0.00000000000E+00 0.  1.
<mgrwt>
<rscale>  4 0.34723759E+03</rscale>
<asrwt>0</asrwt>
<pdfrwt beam="1">  1       21 0.23767205E-01 0.34723759E+03</pdfrwt>
<pdfrwt beam="2">  1       21 0.16584611E+00 0.34723759E+03</pdfrwt>
<totfact> 0.34302875E+03</totfact>
</mgrwt>
</event>
<event>
 5    0  0.1200001E+000  0.3005468E+03  0.7546771E-02  0.1084968E+00
         21   -1    0    0  502  501  0.00000000000E+00  0.00000000000E+00  0.62707539078E+03  0.62707539078E+03  0.00000000000E+00 0. -1.
         21   -1    0    0  504  502 -0.00000000000E+00 -0.00000000000E+00 -0.42068663519E+03  0.42068663519E+03  0.00000000000E+00 0.  1.
         25    1    1    2    0    0 -0.25608126047E+03  0.13660369816E+03 -0.27636055031E+03  0.41980749884E+03  0.12500000000E+03 0.  0.
         21    1    1    2  503  501  0.21973481331E+03  0.29218791897E+02  0.34140308007E+03  0.40705428270E+03  0.00000000000E+00 0. -1.
         21    1    1    2  504  503  0.36346447158E+02 -0.16582249005E+03  0.14134622584E+03  0.22090024443E+03  0.00000000000E+00 0.  1.
<mgrwt>
<rscale>  4 0.30054676E+03</rscale>
<asrwt>0</asrwt>
<pdfrwt beam="1">  1       21 0.96473137E-01 0.30054676E+03</pdfrwt>
<pdfrwt beam="2">  1       21 0.64721021E-01 0.30054676E+03</pdfrwt>
<totfact> 0.18143454E+03</totfact>
</mgrwt>
</event>
<event>
 5    0  0.1200001E+000  0.3409393E+03  0.7546771E-02  0.1066397E+00
         21   -1    0    0  503  501  0.00000000000E+00  0.00000000000E+00  0.75527925115E+03  0.75527925115E+03  0.00000000000E+00 0.  1.
         21   -1    0    0  504  502 -0.00000000000E+00 -0.00000000000E+00 -0.16651995188E+03  0.16651995188E+03  0.00000000000E+00 0. -1.
         25    1    1    2    0    0  0.32246335659E+03 -0.30599899795E+02  0.22976531154E+03  0.41633648483E+03  0.12500000000E+03 0.  0.
         21    1    1    2  503  502 -0.30637465473E+03  0.67277722998E+02  0.33425758851E+03  0.45838832506E+03  0.00000000000E+00 0.  1.
         21    1    1    2  504  501 -0.16088701857E+02 -0.36677823203E+02  0.24736399223E+02  0.47074393133E+02  0.00000000000E+00 0. -1.
<mgrwt>
<rscale>  4 0.34093935E+03</rscale>
<asrwt>0</asrwt>
<pdfrwt beam="1">  1       21 0.11619681E+00 0.34093935E+03</pdfrwt>
<pdfrwt beam="2">  1       21 0.25618455E-01 0.34093935E+03</pdfrwt>
<totfact> 0.75942829E+03</totfact>
</mgrwt>
</event>
<event>
 5    0  0.1200001E+000  0.3736244E+03  0.7546771E-02  0.1053316E+00
         21   -1    0    0  503  501  0.00000000000E+00  0.00000000000E+00  0.39787184091E+03  0.39787184091E+03  0.00000000000E+00 0.  1.
         21   -1    0    0  504  502 -0.00000000000E+00 -0.00000000000E+00 -0.47891548878E+03  0.47891548878E+03  0.00000000000E+00 0.  1.
         25    1    1    2    0    0  0.30101422787E+03  0.14279066980E+03 -0.13405464817E+03  0.38025568958E+03  0.12500000000E+03 0.  0.
         21    1    1    2  503  502 -0.35064208665E+03 -0.14084392296E+03 -0.50974350187E+02  0.38129420130E+03  0.00000000000E+00 0.  1.
         21    1    1    2  504  501  0.49627858787E+02 -0.19467468368E+01  0.10398535048E+03  0.11523743882E+03  0.00000000000E+00 0.  1.
<mgrwt>
<rscale>  4 0.37362440E+03</rscale>
<asrwt>0</asrwt>
<pdfrwt beam="1">  1       21 0.61211052E-01 0.37362440E+03</pdfrwt>
<pdfrwt beam="2">  1       21 0.73679306E-01 0.37362440E+03</pdfrwt>
<totfact> 0.36945841E+03</totfact>
</mgrwt>
</event>
<event>
 5    0  0.1200001E+000  0.1981913E+03  0.7546771E-02  0.1151274E+00
         21   -1    0    0  503  501  0.00000000000E+00  0.00000000000E+00  0.75209234510E+03  0.75209234510E+03  0.00000000000E+00 0.  1.
         21   -1    0    0  504  502 -0.00000000000E+00 -0.00000000000E+00 -0.18271265717E+03  0.18271265717E+03  0.00000000000E+00 0. -1.
         25    1    1    2    0    0  0.21746299072E+03 -0.15321890095E+02 -0.36351985623E+02  0.25391214919E+03  0.12500000000E+03 0.  0.
         21    1    1    2  503  502 -0.74266748732E+02 -0.29039153124E+02  0.28769303376E+02  0.84773198584E+02  0.00000000000E+00 0. -1.
         21    1    1    2  504  501 -0.14319624199E+03  0.44361043219E+02  0.57696237018E+03  0.59611965450E+03  0.00000000000E+00 0.  1.
<mgrwt>
<rscale>  4 0.19819129E+03</rscale>
<asrwt>0</asrwt>
<pdfrwt beam="1">  1       21 0.11570651E+00 0.19819129E+03</pdfrwt>
<pdfrwt beam="2">  1       21 0.28109640E-01 0.19819129E+03</pdfrwt>
<totfact> 0.69543226E+03</totfact>
</mgrwt>
</event>
<event>
 5    0  0.1200001E+000  0.3958075E+03  0.7546771E-02  0.1045241E+00
         21   -1    0    0  503  501  0.00000000000E+00  0.00000000000E+00  0.10469777292E+04  0.10469777292E+04  0.00000000000E+00 0. -1.
         21   -1    0    0  501  502 -0.00000000000E+00 -0.00000000000E+00 -0.16684472230E+03  0.16684472230E+03  0.00000000000E+00 0. -1.
         25    1    1    2    0    0  0.26401729351E+03  0.28707068354E+03  0.48418846784E+03  0.63417519741E+03  0.12500000000E+03 0.  0.
         21    1    1    2  503  504  0.14359721549E+02 -0.48788391316E+02  0.85059399912E+02  0.99104037473E+02  0.00000000000E+00 0. -1.
         21    1    1    2  504  502 -0.27837701506E+03 -0.23828229223E+03  0.31088513919E+03  0.48054321665E+03  0.00000000000E+00 0. -1.
<mgrwt>
<rscale>  4 0.39580748E+03</rscale>
<asrwt>0</asrwt>
<pdfrwt beam="1">  1       21 0.16107349E+00 0.39580748E+03</pdfrwt>
<pdfrwt beam="2">  1       21 0.25668420E-01 0.39580748E+03</pdfrwt>
<totfact> 0.31340087E+03</totfact>
</mgrwt>
</event>
<event>
 5    0  0.1200001E+000  0.2761466E+03  0.7546771E-02  0.1097812E+00
         21   -1    0    0  503  501  0.00000000000E+00  0.00000000000E+00  0.84931403545E+02  0.84931403545E+02  0.00000000000E+00 0. -1.
         21   -1    0    0  501  502 -0.00000000000E+00 -0.00000000000E+00 -0.10901726959E+04  0.10901726959E+04  0.00000000000E+00 0. -1.
         25    1    1    2    0    0 -0.14249723363E+03  0.21107460066E+03 -0.75419875020E+03  0.80579073179E+03  0.12500000000E+03 0.  0.
         21    1    1    2  503  504  0.21208220887E+02 -0.13660964331E+02  0.30884398578E+01  0.25415527546E+02  0.00000000000E+00 0. -1.
         21    1    1    2  504  502  0.12128901274E+03 -0.19741363633E+03 -0.25413098205E+03  0.34389784014E+03  0.00000000000E+00 0. -1.
<mgrwt>
<rscale>  4 0.27614665E+03</rscale>
<asrwt>0</asrwt>
<pdfrwt beam="1">  1       21 0.13066370E-01 0.27614665E+03</pdfrwt>
<pdfrwt beam="2">  1       21 0.16771888E+00 0.27614665E+03</pdfrwt>
<totfact> 0.10551630E+04</totfact>
</mgrwt>
</event>
<event>
 5    0  0.1200001E+000  0.2566479E+03  0.7546771E-02  0.1109174E+00
         21   -1    0    0  503  501  0.00000000000E+00  0.00000000000E+00  0.99455225945E+03  0.99455225945E+03  0.00000000000E+00 0. -1.
         21   -1    0    0  501  502 -0.00000000000E+00 -0.00000000000E+00 -0.41657158883E+03  0.41657158883E+03  0.00000000000E+00 0.  1.
         25    1    1    2    0    0 -0.13274524379E+03 -0.19956237273E+03 -0.17944202383E+03  0.32445474303E+03  0.12500000000E+03 0.  0.
         21    1    1    2  503  504  0.63154874939E+02 -0.15993394443E+01  0.85157637154E+03  0.85391651388E+03  0.00000000000E+00 0. -1.
         21    1    1    2  504  502  0.69590368848E+02  0.20116171218E+03 -0.94153677079E+02  0.23275259137E+03  0.00000000000E+00 0.  1.
<mgrwt>
<rscale>  4 0.25664789E+03</rscale>
<asrwt>0</asrwt>
<pdfrwt beam="1">  1       21 0.15300804E+00 0.25664789E+03</pdfrwt>
<pdfrwt beam="2">  1       21 0.64087937E-01 0.25664789E+03</pdfrwt>
<totfact> 0.59873041E+02</totfact>
</mgrwt>
</event>
<event>
 5    0  0.1200001E+000  0.3145276E+03  0.7546771E-02  0.1078196E+00
         21   -1    0    0  503  501  0.00000000000E+00  0.00000000000E+00  0.90566009703E+03  0.90566009703E+03  0.00000000000E+00 0.  1.
         21   -1    0    0  504  502 -0.00000000000E+00 -0.00000000000E+00 -0.15089369426E+03  0.15089369426E+03  0.00000000000E+00 0.  1.
         25    1    1    2    0    0 -0.27049044375E+03 -0.11845011583E+03  0.31299685902E+03  0.44809323121E+03  0.12500000000E+03 0.  0.
         21    1    1    2  503  502  0.26784561218E+03  0.96220781075E+02  0.16137166992E+03  0.32717048542E+03  0.00000000000E+00 0.  1.
         21    1    1    2  504  501  0.26448315629E+01  0.22229334758E+02  0.28039787383E+03  0.28129007467E+03  0.00000000000E+00 0.  1.
<mgrwt>
<rscale>  4 0.31452762E+03</rscale>
<asrwt>0</asrwt>
<pdfrwt beam="1">  1       21 0.13933232E+00 0.31452762E+03</pdfrwt>
<pdfrwt beam="2">  1       21 0.23214415E-01 0.31452762E+03</pdfrwt>
<totfact> 0.58443314E+03</totfact>
</mgrwt>
</event>
<event>
 5    0  0.1200001E+000  0.2908263E+03  0.7546771E-02  0.1089919E+00
         21   -1    0    0  503  501  0.00000000000E+00  0.00000000000E+00  0.52002444365E+02  0.52002444365E+02  0.00000000000E+00 0. -1.
         21   -1    0    0  504  502 -0.00000000000E+00 -0.00000000000E+00 -0.25488079352E+04  0.25488079352E+04  0.00000000000E+00 0. -1.
         25    1    1    2    0    0 -0.25487851440E+03 -0.36214433265E+01 -0.18533492883E+04  0.18749679348E+04  0.12500000000E+03 0.  0.
         21    1    1    2  503  502  0.28428840873E+03 -0.22983699008E+01 -0.63327334436E+03  0.69416158819E+03  0.00000000000E+00 0. -1.
         21    1    1    2  504  501 -0.29409894332E+02  0.59198132273E+01 -0.10182858138E+02  0.31680856572E+02  0.00000000000E+00 0. -1.
<mgrwt>
<rscale>  4 0.29082630E+03</rscale>
<asrwt>0</asrwt>
<pdfrwt beam="1">  1       21 0.80003767E-02 0.29082630E+03</pdfrwt>
<pdfrwt beam="2">  1       21 0.39212427E+00 0.29082630E+03</pdfrwt>
<totfact> 0.10372295E+03</totfact>
</mgrwt>
</event>
<event>
 5    0  0.1200001E+000  0.2301706E+03  0.7546771E-02  0.1126520E+00
         21   -1    0    0  503  501  0.00000000000E+00  0.00000000000E+00  0.10508135454E+04  0.10508135454E+04  0.00000000000E+00 0.  1.
         21   -1    0    0  504  502 -0.00000000000E+00 -0.00000000000E+00 -0.41291168123E+03  0.41291168123E+03  0.00000000000E+00 0.  1.
         25    1    1    2    0    0 -0.19181429020E+03 -0.83680784885E+02 -0.99933236013E+02  0.26345179321E+03  0.12500000000E+03 0.  0.
         21    1    1    2  503  502  0.17237908079E+03  0.69785711810E+02 -0.19364747198E+03  0.26848451812E+03  0.00000000000E+00 0.  1.
         21    1    1    2  504  501  0.19435209411E+02  0.13895073075E+02  0.93148257222E+03  0.93178891535E+03  0.00000000000E+00 0.  1.
<mgrwt>
<rscale>  4 0.23017063E+03</rscale>
<asrwt>0</asrwt>
<pdfrwt beam="1">  1       21 0.16166362E+00 0.23017063E+03</pdfrwt>
<pdfrwt beam="2">  1       21 0.63524874E-01 0.23017063E+03</pdfrwt>
<totfact> 0.53869460E+02</totfact>
</mgrwt>
</event>
<event>
 5    0  0.1200001E+000  0.2153530E+03  0.7546771E-02  0.1137396E+00
         21   -1    0    0  503  501  0.00000000000E+00  0.00000000000E+00  0.42638161709E+03  0.42638161709E+03  0.00000000000E+00 0. -1.
         21   -1    0    0  501  502 -0.00000000000E+00 -0.00000000000E+00 -0.11854641112E+04  0.11854641112E+04  0.00000000000E+00 0. -1.
         25    1    1    2    0    0  0.17800101167E+03 -0.12794107531E+03 -0.94269713728E+03  0.97588737646E+03  0.12500000000E+03 0.  0.
         21    1    1    2  503  504 -0.64171686215E+02  0.70329774173E+02  0.38553202610E+03  0.39711361799E+03  0.00000000000E+00 0. -1.
         21    1    1    2  504  502 -0.11382932545E+03  0.57611301141E+02 -0.20191738291E+03  0.23884473382E+03  0.00000000000E+00 0. -1.
<mgrwt>
<rscale>  4 0.21535301E+03</rscale>
<asrwt>0</asrwt>
<pdfrwt beam="1">  1       21 0.65597172E-01 0.21535301E+03</pdfrwt>
<pdfrwt beam="2">  1       21 0.18237909E+00 0.21535301E+03</pdfrwt>
<totfact> 0.36469792E+02</totfact>
</mgrwt>
</event>
<event>
 5    0  0.1200001E+000  0.2798744E+03  0.7546771E-02  0.1095758E+00
         21   -1    0    0  502  501  0.00000000000E+00  0.00000000000E+00  0.17870479381E+04  0.17870479381E+04  0.00000000000E+00 0. -1.
         21   -1    0    0  504  502 -0.00000000000E+00 -0.00000000000E+00 -0.12804519307E+03  0.12804519307E+03  0.00000000000E+00 0. -1.
         25    1    1    2    0    0  0.33734643299E+02 -0.24812624540E+03  0.48626890803E+02  0.28406730598E+03  0.12500000000E+03 0.  0.
         21    1    1    2  503  501 -0.52610404845E+02  0.20496105374E+03  0.13181409099E+04  0.13350177327E+04  0.00000000000E+00 0. -1.
         21    1    1    2  504  503  0.18875761546E+02  0.43165191660E+02  0.29223494429E+03  0.29600809247E+03  0.00000000000E+00 0. -1.
<mgrwt>
<rscale>  4 0.27987436E+03</rscale>
<asrwt>0</asrwt>
<pdfrwt beam="1">  1       21 0.27493043E+00 0.27987436E+03</pdfrwt>
<pdfrwt beam="2">  1       21 0.19699262E-01 0.27987436E+03</pdfrwt>
<totfact> 0.10298906E+03</totfact>
</mgrwt>
</event>
<event>
 5    0  0.1200001E+000  0.3180912E+03  0.7546771E-02  0.1076531E+00
         21   -1    0    0  502  501  0.00000000000E+00  0.00000000000E+00  0.22896398480E+03  0.22896398480E+03  0.00000000000E+00 0.  1.
         21   -1    0    0  503  502 -0.00000000000E+00 -0.00000000000E+00 -0.56255076118E+03  0.56255076118E+03  0.00000000000E+00 0. -1.
         25    1    1    2    0    0  0.13525636935E+03 -0.25096004715E+03 -0.32968087562E+03  0.45342001551E+03  0.12500000000E+03 0.  0.
         21    1    1    2  503  504  0.84648478189E+01 -0.24017268442E+02  0.10368378512E+02  0.27495201490E+02  0.00000000000E+00 0.  1.
         21    1    1    2  504  501 -0.14372121717E+03  0.27497731559E+03 -0.14274279269E+02  0.31059952898E+03  0.00000000000E+00 0.  1.
<mgrwt>
<rscale>  4 0.31809121E+03</rscale>
<asrwt>0</asrwt>
<pdfrwt beam="1">  1       21 0.35225229E-01 0.31809121E+03</pdfrwt>
<pdfrwt beam="2">  1       21 0.86546270E-01 0.31809121E+03</pdfrwt>
<totfact> 0.83194461E+03</totfact>
</mgrwt>
</event>
<event>
 5    0  0.1200001E+000  0.4468249E+03  0.7546771E-02  0.1028673E+00
         21   -1    0    0  503  501  0.00000000000E+00  0.00000000000E+00  0.21270639361E+03  0.21270639361E+03  0.00000000000E+00 0. -1.
         21   -1    0    0  501  502 -0.00000000000E+00 -0.00000000000E+00 -0.16298608362E+04  0.16298608362E+04  0.00000000000E+00 0. -1.
         25    1    1    2    0    0 -0.34394418580E+03 -0.20951840661E+03 -0.11110453161E+03  0.43607887199E+03  0.12500000000E+03 0.  0.
         21    1    1    2  503  504 -0.11824262098E+02 -0.40625120901E+02 -0.16224261708E+02  0.45314901416E+02  0.00000000000E+00 0. -1.
         21    1    1    2  504  502  0.35576844790E+03  0.25014352751E+03 -0.12898256493E+04  0.13611734564E+04  0.00000000000E+00 0. -1.
<mgrwt>
<rscale>  4 0.44682492E+03</rscale>
<asrwt>0</asrwt>
<pdfrwt beam="1">  1       21 0.32724061E-01 0.44682492E+03</pdfrwt>
<pdfrwt beam="2">  1       21 0.25074781E+00 0.44682492E+03</pdfrwt>
<totfact> 0.47990253E+02</totfact>
</mgrwt>
</event>
<event>
 5    0  0.1200001E+000  0.2881858E+03  0.7546771E-02  0.1091300E+00
         21   -1    0    0  503  501  0.00000000000E+00  0.00000000000E+00  0.61478634344E+03  0.61478634344E+03  0.00000000000E+00 0.  1.
         21   -1    0    0  504  502 -0.00000000000E+00 -0.00000000000E+00 -0.78800458507E+03  0.78800458507E+03  0.00000000000E+00 0.  1.
         25    1    1    2    0    0  0.12966291156E+03 -0.22930517931E+03 -0.71092172134E+03  0.76839314792E+03  0.12500000000E+03 0.  0.
         21    1    1    2  503  502 -0.13828484555E+03  0.17842943858E+03  0.22954273245E+03  0.32194662458E+03  0.00000000000E+00 0.  1.
         21    1    1    2  504  501  0.86219339878E+01  0.50875740733E+02  0.30816074726E+03  0.31245115601E+03  0.00000000000E+00 0.  1.
<mgrwt>
<rscale>  4 0.28818582E+03</rscale>
<asrwt>0</asrwt>
<pdfrwt beam="1">  1       21 0.94582514E-01 0.28818582E+03</pdfrwt>
<pdfrwt beam="2">  1       21 0.12123148E+00 0.28818582E+03</pdfrwt>
<totfact> 0.44094862E+02</totfact>
</mgrwt>
</event>
<event>
 5    0  0.1200001E+000  0.2520086E+03  0.7546771E-02  0.1112042E+00
         21   -1    0    0  502  501  0.00000000000E+00  0.00000000000E+00  0.29537096343E+03  0.29537096343E+03  0.00000000000E+00 0.  1.
         21   -1    0    0  504  502 -0.00000000000E+00 -0.00000000000E+00 -0.33941485908E+03  0.33941485908E+03  0.00000000000E+00 0. -1.
         25    1    1    2    0    0 -0.31862224095E+02 -0.21649046518E+03 -0.23154587148E+03  0.34223064362E+03  0.12500000000E+03 0.  0.
         21    1    1    2  503  501  0.42254727941E+02  0.19800127925E+03  0.17683890688E+03  0.26881586189E+03  0.00000000000E+00 0.  1.
         21    1    1    2  504  503 -0.10392503846E+02  0.18489185927E+02  0.10663068947E+02  0.23739317004E+02  0.00000000000E+00 0.  1.
<mgrwt>
<rscale>  4 0.25200858E+03</rscale>
<asrwt>0</asrwt>
<pdfrwt beam="1">  1       21 0.45441687E-01 0.25200858E+03</pdfrwt>
<pdfrwt beam="2">  1       21 0.52217671E-01 0.25200858E+03</pdfrwt>
<totfact> 0.15624015E+04</totfact>
</mgrwt>
</event>
<event>
 5    0  0.1200001E+000  0.3152568E+03  0.7546771E-02  0.1077853E+00
         21   -1    0    0  502  501  0.00000000000E+00  0.00000000000E+00  0.17241837237E+04  0.17241837237E+04  0.00000000000E+00 0. -1.
         21   -1    0    0  503  502 -0.00000000000E+00 -0.00000000000E+00 -0.18856049413E+03  0.18856049413E+03  0.00000000000E+00 0. -1.
         25    1    1    2    0    0 -0.10656729582E+03  0.26979304967E+03 -0.21844097523E+02  0.31661813401E+03  0.12500000000E+03 0.  0.
         21    1    1    2  503  504  0.13100835688E+03 -0.25403672151E+03  0.10615591288E+04  0.10993660125E+04  0.00000000000E+00 0. -1.
         21    1    1    2  504  501 -0.24441061065E+02 -0.15756328155E+02  0.49590819828E+03  0.49676007133E+03  0.00000000000E+00 0. -1.
<mgrwt>
<rscale>  4 0.31525676E+03</rscale>
<asrwt>0</asrwt>
<pdfrwt beam="1">  1       21 0.26525902E+00 0.31525676E+03</pdfrwt>
<pdfrwt beam="2">  1       21 0.29009308E-01 0.31525676E+03</pdfrwt>
<totfact> 0.54271503E+02</totfact>
</mgrwt>
</event>
<event>
 5    0  0.1200001E+000  0.5279495E+03  0.7546771E-02  0.1006731E+00
         21   -1    0    0  503  501  0.00000000000E+00  0.00000000000E+00  0.38442788897E+03  0.38442788897E+03  0.00000000000E+00 0.  1.
         21   -1    0    0  504  502 -0.00000000000E+00 -0.00000000000E+00 -0.78175474391E+03  0.78175474391E+03  0.00000000000E+00 0.  1.
         25    1    1    2    0    0 -0.34509115663E+03 -0.34916260509E+03 -0.69260084156E+02  0.51129677335E+03  0.12500000000E+03 0.  0.
         21    1    1    2  503  502  0.36732511064E+03  0.37898513652E+03 -0.31863232651E+03  0.61650955395E+03  0.00000000000E+00 0.  1.
         21    1    1    2  504  501 -0.22233954008E+02 -0.29822531430E+02 -0.94344442661E+01  0.38376305585E+02  0.00000000000E+00 0. -1.
<mgrwt>
<rscale>  4 0.52794945E+03</rscale>
<asrwt>0</asrwt>
<pdfrwt beam="1">  1       21 0.59142752E-01 0.52794945E+03</pdfrwt>
<pdfrwt beam="2">  1       21 0.12026996E+00 0.52794945E+03</pdfrwt>
<totfact> 0.11609807E+03</totfact>
</mgrwt>
</event>
<event>
 5    0  0.1200001E+000  0.2699127E+03  0.7546771E-02  0.1101330E+00
         21   -1    0    0  502  501  0.00000000000E+00  0.00000000000E+00  0.70271253358E+03  0.70271253358E+03  0.00000000000E+00 0. -1.
         21   -1    0    0  503  502 -0.00000000000E+00 -0.00000000000E+00 -0.13118013613E+03  0.13118013613E+03  0.00000000000E+00 0.  1.
         25    1    1    2    0    0 -0.28719513176E+02  0.23064667384E+03  0.26526034934E+03  0.37418010573E+03  0.12500000000E+03 0.  0.
         21    1    1    2  503  504  0.30258919253E+02  0.13551474583E+02  0.18333841522E+03  0.18631215514E+03  0.00000000000E+00 0. -1.
         21    1    1    2  504  501 -0.15394060762E+01 -0.24419814842E+03  0.12293363289E+03  0.27340040885E+03  0.00000000000E+00 0.  1.
<mgrwt>
<rscale>  4 0.26991271E+03</rscale>
<asrwt>0</asrwt>
<pdfrwt beam="1">  1       21 0.10810962E+00 0.26991271E+03</pdfrwt>
<pdfrwt beam="2">  1       21 0.20181560E-01 0.26991271E+03</pdfrwt>
<totfact> 0.14783185E+04</totfact>
</mgrwt>
</event>
<event>
 5    0  0.1200001E+000  0.4348258E+03  0.7546771E-02  0.1032346E+00
         21   -1    0    0  503  501  0.00000000000E+00  0.00000000000E+00  0.20148417812E+03  0.20148417812E+03  0.00000000000E+00 0.  1.
         21   -1    0    0  504  502 -0.00000000000E+00 -0.00000000000E+00 -0.11177658040E+04  0.11177658040E+04  0.00000000000E+00 0.  1.
         25    1    1    2    0    0  0.25245527931E+03  0.34185134356E+03 -0.51201914843E+03  0.67704107520E+03  0.12500000000E+03 0.  0.
         21    1    1    2  503  502 -0.22060507723E+03 -0.34392830114E+03 -0.43576389309E+03  0.59736374760E+03  0.00000000000E+00 0.  1.
         21    1    1    2  504  501 -0.31850202073E+02  0.20769575747E+01  0.31501415658E+02  0.44845159307E+02  0.00000000000E+00 0.  1.
<mgrwt>
<rscale>  4 0.43482584E+03</rscale>
<asrwt>0</asrwt>
<pdfrwt beam="1">  1       21 0.30997566E-01 0.43482584E+03</pdfrwt>
<pdfrwt beam="2">  1       21 0.17196397E+00 0.43482584E+03</pdfrwt>
<totfact> 0.17675160E+03</totfact>
</mgrwt>
</event>
<event>
 5    0  0.1200001E+000  0.2900600E+03  0.7546771E-02  0.1090318E+00
         21   -1    0    0  503  501  0.00000000000E+00  0.00000000000E+00  0.86040646225E+03  0.86040646225E+03  0.00000000000E+00 0.  1.
         21   -1    0    0  504  502 -0.00000000000E+00 -0.00000000000E+00 -0.17032699247E+03  0.17032699247E+03  0.00000000000E+00 0. -1.
         25    1    1    2    0    0  0.23780672356E+03  0.13083979275E+03  0.17362047552E+03  0.34560115547E+03  0.12500000000E+03 0.  0.
         21    1    1    2  503  502 -0.11722792868E+03  0.12067827881E+03  0.23360008515E+03  0.28787954776E+03  0.00000000000E+00 0.  1.
         21    1    1    2  504  501 -0.12057879488E+03 -0.25151807156E+03  0.28285890911E+03  0.39725275148E+03  0.00000000000E+00 0.  1.
<mgrwt>
<rscale>  4 0.29005998E+03</rscale>
<asrwt>0</asrwt>
<pdfrwt beam="1">  1       21 0.13237022E+00 0.29005998E+03</pdfrwt>
<pdfrwt beam="2">  1       21 0.26204153E-01 0.29005998E+03</pdfrwt>
<totfact> 0.53540099E+03</totfact>
</mgrwt>
</event>
<event>
 5    0  0.1200001E+000  0.3263820E+03  0.7546771E-02  0.1072749E+00
         21   -1    0    0  503  501  0.00000000000E+00  0.00000000000E+00  0.20579144882E+03  0.20579144882E+03  0.00000000000E+00 0. -1.
         21   -1    0    0  501  502 -0.00000000000E+00 -0.00000000000E+00 -0.52588318078E+03  0.52588318078E+03  0.00000000000E+00 0. -1.
         25    1    1    2    0    0  0.23819354820E+03 -0.16897878069E+03 -0.10021347588E+03  0.33310319043E+03  0.12500000000E+03 0.  0.
         21    1    1    2  503  504  0.20856909886E+02  0.22157699560E+01 -0.16763574981E+01  0.21041162063E+02  0.00000000000E+00 0. -1.
         21    1    1    2  504  502 -0.25905045809E+03  0.16676301074E+03 -0.21820189858E+03  0.37753027710E+03  0.00000000000E+00 0. -1.
<mgrwt>
<rscale>  4 0.32638197E+03</rscale>
<asrwt>0</asrwt>
<pdfrwt beam="1">  1       21 0.31660223E-01 0.32638197E+03</pdfrwt>
<pdfrwt beam="2">  1       21 0.80905104E-01 0.32638197E+03</pdfrwt>
<totfact> 0.11990194E+04</totfact>
</mgrwt>
</event>
<event>
 5    0  0.1200001E+000  0.2810149E+03  0.7546771E-02  0.1095136E+00
         21   -1    0    0  503  501  0.00000000000E+00  0.00000000000E+00  0.38614901802E+03  0.38614901802E+03  0.00000000000E+00 0. -1.
         21   -1    0    0  501  502 -0.00000000000E+00 -0.00000000000E+00 -0.26310584572E+03  0.26310584572E+03  0.00000000000E+00 0. -1.
         25    1    1    2    0    0 -0.22848024185E+03  0.96070232191E+02 -0.87861712777E+02  0.29116557318E+03  0.12500000000E+03 0.  0.
         21    1    1    2  503  504 -0.17764984318E+02 -0.95812637154E+01  0.43684436852E+02  0.48121983596E+02  0.00000000000E+00 0. -1.
         21    1    1    2  504  502  0.24624522617E+03 -0.86488968475E+02  0.16722044823E+03  0.30996730696E+03  0.00000000000E+00 0. -1.
<mgrwt>
<rscale>  4 0.28101490E+03</rscale>
<asrwt>0</asrwt>
<pdfrwt beam="1">  1       21 0.59407541E-01 0.28101490E+03</pdfrwt>
<pdfrwt beam="2">  1       21 0.40477822E-01 0.28101490E+03</pdfrwt>
<totfact> 0.14836331E+04</totfact>
</mgrwt>
</event>
