<event>
 5    0  0.2159162E+000  0.2494872E+03  0.7546771E-02  0.1113629E+00
         21   -1    0    0  502  501  0.00000000000E+00  0.00000000000E+00  0.13362825405E+03  0.13362825405E+03  0.00000000000E+00 0.  1.
         21   -1    0    0  503  502 -0.00000000000E+00 -0.00000000000E+00 -0.49601160915E+03  0.49601160915E+03  0.00000000000E+00 0.  1.
         25    1    1    2    0    0 -0.40003170597E+02  0.21217587951E+03 -0.85275086762E+02  0.26365829766E+03  0.12500000000E+03 0.  0.
         21    1    1    2  503  504  0.64935778463E+02 -0.91942287083E+02 -0.10061131625E+03  0.15097243601E+03  0.00000000000E+00 0.  1.
         21    1    1    2  504  501 -0.24932607866E+02 -0.12023359242E+03 -0.17649695209E+03  0.21500912953E+03  0.00000000000E+00 0.  1.
<mgrwt>
<rscale>  4 0.24948719E+03</rscale>
<asrwt>0</asrwt>
<pdfrwt beam="1">  1       21 0.20558193E-01 0.24948719E+03</pdfrwt>
<pdfrwt beam="2">  1       21 0.76309477E-01 0.24948719E+03</pdfrwt>
<totfact> 0.32596745E+04</totfact>
</mgrwt>
</event>
<event>
 5    0  0.2159162E+000  0.4157280E+03  0.7546771E-02  0.1038466E+00
         21   -1    0    0  502  501  0.00000000000E+00  0.00000000000E+00  0.23959845355E+03  0.23959845355E+03  0.00000000000E+00 0. -1.
         21   -1    0    0  503  502 -0.00000000000E+00 -0.00000000000E+00 -0.83522169319E+03  0.83522169319E+03  0.00000000000E+00 0. -1.
         25    1    1    2    0    0 -0.35448431892E+03 -0.17761092937E+03 -0.85258613137E+02  0.42438049638E+03  0.12500000000E+03 0.  0.
         21    1    1    2  503  504  0.34522907991E+03  0.15779262888E+03 -0.46645127168E+03  0.60138042884E+03  0.00000000000E+00 0. -1.
         21    1    1    2  504  501  0.92552390162E+01  0.19818300494E+02 -0.43913354826E+02  0.49059221516E+02  0.00000000000E+00 0. -1.
<mgrwt>
<rscale>  4 0.41572801E+03</rscale>
<asrwt>0</asrwt>
<pdfrwt beam="1">  1       21 0.36861301E-01 0.41572801E+03</pdfrwt>
<pdfrwt beam="2">  1       21 0.12849565E+00 0.41572801E+03</pdfrwt>
<totfact> 0.27683436E+03</totfact>
</mgrwt>
</event>
<event>
 5    0  0.2159162E+000  0.2691995E+03  0.7546771E-02  0.1101739E+00
         21   -1    0    0  502  501  0.00000000000E+00  0.00000000000E+00  0.11125474986E+03  0.11125474986E+03  0.00000000000E+00 0. -1.
         21   -1    0    0  503  502 -0.00000000000E+00 -0.00000000000E+00 -0.13668181694E+04  0.13668181694E+04  0.00000000000E+00 0. -1.
         25    1    1    2    0    0  0.18012493071E+03  0.15093335207E+03 -0.10133804597E+03  0.28481619861E+03  0.12500000000E+03 0.  0.
         21    1    1    2  503  504 -0.95052641071E+01  0.42174618037E+02 -0.21622936032E+03  0.22050892208E+03  0.00000000000E+00 0. -1.
         21    1    1    2  504  501 -0.17061966660E+03 -0.19310797010E+03 -0.93799601323E+03  0.97274779855E+03  0.00000000000E+00 0. -1.
<mgrwt>
<rscale>  4 0.26919948E+03</rscale>
<asrwt>0</asrwt>
<pdfrwt beam="1">  1       21 0.17116116E-01 0.26919948E+03</pdfrwt>
<pdfrwt beam="2">  1       21 0.21027972E+00 0.26919948E+03</pdfrwt>
<totfact> 0.33356815E+03</totfact>
</mgrwt>
</event>
<event>
 5    0  0.2159162E+000  0.4243723E+03  0.7546771E-02  0.1035653E+00
         21   -1    0    0  502  501  0.00000000000E+00  0.00000000000E+00  0.96319448199E+03  0.96319448199E+03  0.00000000000E+00 0.  1.
         21   -1    0    0  503  502 -0.00000000000E+00 -0.00000000000E+00 -0.19764946323E+03  0.19764946323E+03  0.00000000000E+00 0.  1.
         25    1    1    2    0    0 -0.32169430899E+03  0.24694045332E+03  0.23270087193E+03  0.48398503254E+03  0.12500000000E+03 0.  0.
         21    1    1    2  503  504  0.90022186567E+02 -0.10708228642E+03  0.24247937395E+03  0.27994080969E+03  0.00000000000E+00 0.  1.
         21    1    1    2  504  501  0.23167212242E+03 -0.13985816690E+03  0.29036477288E+03  0.39691810299E+03  0.00000000000E+00 0.  1.
<mgrwt>
<rscale>  4 0.42437226E+03</rscale>
<asrwt>0</asrwt>
<pdfrwt beam="1">  1       21 0.14818376E+00 0.42437226E+03</pdfrwt>
<pdfrwt beam="2">  1       21 0.30407610E-01 0.42437226E+03</pdfrwt>
<totfact> 0.27883166E+03</totfact>
</mgrwt>
</event>
<event>
 5    0  0.2159162E+000  0.2386345E+03  0.7546771E-02  0.1120706E+00
         21   -1    0    0  502  501  0.00000000000E+00  0.00000000000E+00  0.23472819971E+03  0.23472819971E+03  0.00000000000E+00 0.  1.
         21   -1    0    0  503  502 -0.00000000000E+00 -0.00000000000E+00 -0.21295611216E+03  0.21295611216E+03  0.00000000000E+00 0.  1.
         25    1    1    2    0    0  0.21368081593E+02 -0.20215050227E+03  0.16421824382E+02  0.23919886454E+03  0.12500000000E+03 0.  0.
         21    1    1    2  503  504  0.14461994891E+02  0.52080527921E+02  0.38825716662E+01  0.54190451626E+02  0.00000000000E+00 0.  1.
         21    1    1    2  504  501 -0.35830076484E+02  0.15006997435E+03  0.14676914988E+01  0.15429499571E+03  0.00000000000E+00 0.  1.
<mgrwt>
<rscale>  4 0.23863449E+03</rscale>
<asrwt>0</asrwt>
<pdfrwt beam="1">  1       21 0.36112030E-01 0.23863449E+03</pdfrwt>
<pdfrwt beam="2">  1       21 0.32762479E-01 0.23863449E+03</pdfrwt>
<totfact> 0.65028309E+04</totfact>
</mgrwt>
</event>
<event>
 5    0  0.2159162E+000  0.3281611E+03  0.7546771E-02  0.1071953E+00
         21   -1    0    0  502  501  0.00000000000E+00  0.00000000000E+00  0.11864745999E+03  0.11864745999E+03  0.00000000000E+00 0.  1.
         21   -1    0    0  503  502 -0.00000000000E+00 -0.00000000000E+00 -0.10056617584E+04  0.10056617584E+04  0.00000000000E+00 0. -1.
         25    1    1    2    0    0  0.20570292813E+03 -0.22304932294E+03 -0.24441600258E+03  0.40918073931E+03  0.12500000000E+03 0.  0.
         21    1    1    2  503  504 -0.92691772448E+02  0.15502118563E+03 -0.33905895616E+03  0.38416703193E+03  0.00000000000E+00 0. -1.
         21    1    1    2  504  501 -0.11301115568E+03  0.68028137317E+02 -0.30353933967E+03  0.33096144715E+03  0.00000000000E+00 0. -1.
<mgrwt>
<rscale>  4 0.32816108E+03</rscale>
<asrwt>0</asrwt>
<pdfrwt beam="1">  1       21 0.18253456E-01 0.32816108E+03</pdfrwt>
<pdfrwt beam="2">  1       21 0.15471719E+00 0.32816108E+03</pdfrwt>
<totfact> 0.69240379E+03</totfact>
</mgrwt>
</event>
<event>
 5    0  0.2159162E+000  0.2508097E+03  0.7546771E-02  0.1112794E+00
         21   -1    0    0  502  501  0.00000000000E+00  0.00000000000E+00  0.61372786281E+03  0.61372786281E+03  0.00000000000E+00 0.  1.
         21   -1    0    0  503  502 -0.00000000000E+00 -0.00000000000E+00 -0.12997074354E+03  0.12997074354E+03  0.00000000000E+00 0. -1.
         25    1    1    2    0    0  0.93729953534E+02 -0.19620193341E+03  0.43629188120E+03  0.50324557471E+03  0.12500000000E+03 0.  0.
         21    1    1    2  503  504 -0.69884975663E+02  0.14417402641E+03 -0.84487660277E+01  0.16044139541E+03  0.00000000000E+00 0. -1.
         21    1    1    2  504  501 -0.23844977871E+02  0.52027906998E+02  0.55914004095E+02  0.80011636217E+02  0.00000000000E+00 0. -1.
<mgrwt>
<rscale>  4 0.25080969E+03</rscale>
<asrwt>0</asrwt>
<pdfrwt beam="1">  1       21 0.94419669E-01 0.25080969E+03</pdfrwt>
<pdfrwt beam="2">  1       21 0.19995499E-01 0.25080969E+03</pdfrwt>
<totfact> 0.21012807E+04</totfact>
</mgrwt>
</event>
<event>
 5    0  0.2159162E+000  0.3801169E+03  0.7546771E-02  0.1050891E+00
         21   -1    0    0  502  501  0.00000000000E+00  0.00000000000E+00  0.36884170074E+03  0.36884170074E+03  0.00000000000E+00 0. -1.
         21   -1    0    0  503  502 -0.00000000000E+00 -0.00000000000E+00 -0.58629942254E+03  0.58629942254E+03  0.00000000000E+00 0. -1.
         25    1    1    2    0    0  0.11277364706E+03 -0.41077931629E+03 -0.38573490359E+02  0.44561245082E+03  0.12500000000E+03 0.  0.
         21    1    1    2  503  504 -0.97604717741E+02  0.31573295863E+03 -0.22797771608E+03  0.40148203088E+03  0.00000000000E+00 0. -1.
         21    1    1    2  504  501 -0.15168929318E+02  0.95046357668E+02  0.49093484643E+02  0.10804664158E+03  0.00000000000E+00 0. -1.
<mgrwt>
<rscale>  4 0.38011693E+03</rscale>
<asrwt>0</asrwt>
<pdfrwt beam="1">  1       21 0.56744877E-01 0.38011693E+03</pdfrwt>
<pdfrwt beam="2">  1       21 0.90199911E-01 0.38011693E+03</pdfrwt>
<totfact> 0.27228172E+03</totfact>
</mgrwt>
</event>
<event>
 5    0  0.2159162E+000  0.3282595E+03  0.7546771E-02  0.1071910E+00
         21   -1    0    0  502  501  0.00000000000E+00  0.00000000000E+00  0.88677920613E+02  0.88677920613E+02  0.00000000000E+00 0. -1.
         21   -1    0    0  503  502 -0.00000000000E+00 -0.00000000000E+00 -0.15502422302E+04  0.15502422302E+04  0.00000000000E+00 0. -1.
         25    1    1    2    0    0  0.18909887687E+03 -0.23742559190E+03 -0.33569650046E+03  0.46951723860E+03  0.12500000000E+03 0.  0.
         21    1    1    2  503  504 -0.72996264068E+02  0.51032480750E+02 -0.45087163174E+03  0.45958459174E+03  0.00000000000E+00 0. -1.
         21    1    1    2  504  501 -0.11610261281E+03  0.18639311115E+03 -0.67499617734E+03  0.70981832042E+03  0.00000000000E+00 0. -1.
<mgrwt>
<rscale>  4 0.32825950E+03</rscale>
<asrwt>0</asrwt>
<pdfrwt beam="1">  1       21 0.13642758E-01 0.32825950E+03</pdfrwt>
<pdfrwt beam="2">  1       21 0.23849879E+00 0.32825950E+03</pdfrwt>
<totfact> 0.32483520E+03</totfact>
</mgrwt>
</event>
<event>
 5    0  0.2159162E+000  0.2527600E+03  0.7546771E-02  0.1111573E+00
         21   -1    0    0  502  501  0.00000000000E+00  0.00000000000E+00  0.12646978824E+04  0.12646978824E+04  0.00000000000E+00 0. -1.
         21   -1    0    0  503  502 -0.00000000000E+00 -0.00000000000E+00 -0.21071834836E+03  0.21071834836E+03  0.00000000000E+00 0. -1.
         25    1    1    2    0    0 -0.95342833521E+02  0.20216674184E+03  0.11589505907E+04  0.11869090610E+04  0.12500000000E+03 0.  0.
         21    1    1    2  503  504  0.83154943788E+01 -0.31586930926E+02 -0.90788450726E+02  0.96485358668E+02  0.00000000000E+00 0. -1.
         21    1    1    2  504  501  0.87027339142E+02 -0.17057981092E+03 -0.14182605862E+02  0.19202181116E+03  0.00000000000E+00 0. -1.
<mgrwt>
<rscale>  4 0.25276003E+03</rscale>
<asrwt>0</asrwt>
<pdfrwt beam="1">  1       21 0.19456890E+00 0.25276003E+03</pdfrwt>
<pdfrwt beam="2">  1       21 0.32418208E-01 0.25276003E+03</pdfrwt>
<totfact> 0.12580718E+03</totfact>
</mgrwt>
</event>
<event>
 5    0  0.2159162E+000  0.3900808E+03  0.7546771E-02  0.1047270E+00
         21   -1    0    0  502  501  0.00000000000E+00  0.00000000000E+00  0.12836244877E+04  0.12836244877E+04  0.00000000000E+00 0. -1.
         21   -1    0    0  503  502 -0.00000000000E+00 -0.00000000000E+00 -0.27390195399E+03  0.27390195399E+03  0.00000000000E+00 0. -1.
         25    1    1    2    0    0 -0.82810084310E+02 -0.35371063961E+03  0.10315621454E+04  0.11007788999E+04  0.12500000000E+03 0.  0.
         21    1    1    2  503  504  0.11067189988E+03  0.39278884106E+03 -0.15952417749E+02  0.40839420015E+03  0.00000000000E+00 0. -1.
         21    1    1    2  504  501 -0.27861815568E+02 -0.39078201449E+02 -0.58871939552E+01  0.48353341642E+02  0.00000000000E+00 0. -1.
<mgrwt>
<rscale>  4 0.39008079E+03</rscale>
<asrwt>0</asrwt>
<pdfrwt beam="1">  1       21 0.19748069E+00 0.39008079E+03</pdfrwt>
<pdfrwt beam="2">  1       21 0.42138763E-01 0.39008079E+03</pdfrwt>
<totfact> 0.64482173E+02</totfact>
</mgrwt>
</event>
