<event>
 5    0  0.1943430E+001  0.2471912E+03  0.7546771E-02  0.1115093E+00
         21   -1    0    0  503  501  0.00000000000E+00  0.00000000000E+00  0.83757700805E+03  0.83757700805E+03  0.00000000000E+00 0.  1.
         21   -1    0    0  504  502 -0.00000000000E+00 -0.00000000000E+00 -0.12188338662E+03  0.12188338662E+03  0.00000000000E+00 0.  1.
         25    1    1    2    0    0  0.22727460247E+03  0.22618944583E+02  0.61469158723E+03  0.66755981679E+03  0.12500000000E+03 0.  0.
         21    1    1    2  503  502 -0.48864888237E+02 -0.73513534383E+02  0.35659082465E+02  0.95202873918E+02  0.00000000000E+00 0.  1.
         21    1    1    2  504  501 -0.17840971423E+03  0.50894589800E+02  0.65342951734E+02  0.19669770396E+03  0.00000000000E+00 0.  1.
<mgrwt>
<rscale>  4 0.24719116E+03</rscale>
<asrwt>0</asrwt>
<pdfrwt beam="1">  1       21 0.12885800E+00 0.24719116E+03</pdfrwt>
<pdfrwt beam="2">  1       21 0.18751291E-01 0.24719116E+03</pdfrwt>
<totfact> 0.11100856E+04</totfact>
</mgrwt>
</event>
<event>
 5    0  0.1943430E+001  0.2339309E+03  0.7546771E-02  0.1123903E+00
         21   -1    0    0  504  501  0.00000000000E+00  0.00000000000E+00  0.65314146821E+03  0.65314146821E+03  0.00000000000E+00 0.  1.
         21   -1    0    0  501  502 -0.00000000000E+00 -0.00000000000E+00 -0.15203046436E+03  0.15203046436E+03  0.00000000000E+00 0.  1.
         25    1    1    2    0    0  0.23927263768E+03 -0.13645801859E+03  0.32828192628E+03  0.44639243845E+03  0.12500000000E+03 0.  0.
         21    1    1    2  503  502 -0.11452964456E+03  0.13562134272E+03  0.51665884940E+02  0.18487712609E+03  0.00000000000E+00 0.  1.
         21    1    1    2  504  503 -0.12474299312E+03  0.83667586836E+00  0.12116319263E+03  0.17390236803E+03  0.00000000000E+00 0.  1.
<mgrwt>
<rscale>  4 0.23393090E+03</rscale>
<asrwt>0</asrwt>
<pdfrwt beam="1">  1       21 0.10048330E+00 0.23393090E+03</pdfrwt>
<pdfrwt beam="2">  1       21 0.23389303E-01 0.23393090E+03</pdfrwt>
<totfact> 0.13596557E+04</totfact>
</mgrwt>
</event>
<event>
 5    0  0.1943430E+001  0.2794936E+03  0.7546771E-02  0.1095966E+00
         21   -1    0    0  503  501  0.00000000000E+00  0.00000000000E+00  0.21687826164E+04  0.21687826164E+04  0.00000000000E+00 0.  1.
         21   -1    0    0  504  502 -0.00000000000E+00 -0.00000000000E+00 -0.69096957867E+03  0.69096957867E+03  0.00000000000E+00 0.  1.
         25    1    1    2    0    0 -0.12848239584E+03  0.22668689312E+03  0.19379348290E+04  0.19593649672E+04  0.12500000000E+03 0.  0.
         21    1    1    2  503  502  0.11745060850E+03 -0.16665252741E+03  0.17113521427E+03  0.26618597238E+03  0.00000000000E+00 0.  1.
         21    1    1    2  504  501  0.11031787340E+02 -0.60034365711E+02 -0.63125700551E+03  0.63420125544E+03  0.00000000000E+00 0.  1.
<mgrwt>
<rscale>  4 0.27949361E+03</rscale>
<asrwt>0</asrwt>
<pdfrwt beam="1">  1       21 0.33365886E+00 0.27949361E+03</pdfrwt>
<pdfrwt beam="2">  1       21 0.10630301E+00 0.27949361E+03</pdfrwt>
<totfact> 0.13420502E+01</totfact>
</mgrwt>
</event>
<event>
 5    0  0.1943430E+001  0.2832500E+03  0.7546771E-02  0.1093927E+00
         21   -1    0    0  504  501  0.00000000000E+00  0.00000000000E+00  0.71841151116E+02  0.71841151116E+02  0.00000000000E+00 0.  1.
         21   -1    0    0  503  502 -0.00000000000E+00 -0.00000000000E+00 -0.21010282366E+04  0.21010282366E+04  0.00000000000E+00 0.  1.
         25    1    1    2    0    0 -0.21145829671E+03 -0.13291541738E+03 -0.43614078893E+03  0.51790434174E+03  0.12500000000E+03 0.  0.
         21    1    1    2  503  501  0.20632390578E+03  0.15792070578E+03 -0.51700831983E+03  0.57862432215E+03  0.00000000000E+00 0.  1.
         21    1    1    2  504  502  0.51343909280E+01 -0.25005288400E+02 -0.10760379767E+04  0.10763407238E+04  0.00000000000E+00 0.  1.
<mgrwt>
<rscale>  4 0.28325004E+03</rscale>
<asrwt>0</asrwt>
<pdfrwt beam="1">  1       21 0.11052484E-01 0.28325004E+03</pdfrwt>
<pdfrwt beam="2">  1       21 0.32323514E+00 0.28325004E+03</pdfrwt>
<totfact> 0.15409285E+03</totfact>
</mgrwt>
</event>
<event>
 5    0  0.1943430E+001  0.2608793E+03  0.7546771E-02  0.1106616E+00
         21   -1    0    0  503  501  0.00000000000E+00  0.00000000000E+00  0.77183926680E+03  0.77183926680E+03  0.00000000000E+00 0.  1.
         21   -1    0    0  504  502 -0.00000000000E+00 -0.00000000000E+00 -0.23629308880E+03  0.23629308880E+03  0.00000000000E+00 0.  1.
         25    1    1    2    0    0  0.18364114147E+03 -0.12586128092E+03  0.57791345200E+03  0.63180225456E+03  0.12500000000E+03 0.  0.
         21    1    1    2  503  502 -0.13405736985E+03  0.18825801086E+03 -0.12397284736E+03  0.26226270026E+03  0.00000000000E+00 0.  1.
         21    1    1    2  504  501 -0.49583771616E+02 -0.62396729942E+02  0.81605573363E+02  0.11406740077E+03  0.00000000000E+00 0.  1.
<mgrwt>
<rscale>  4 0.26087925E+03</rscale>
<asrwt>0</asrwt>
<pdfrwt beam="1">  1       21 0.11874450E+00 0.26087925E+03</pdfrwt>
<pdfrwt beam="2">  1       21 0.36352783E-01 0.26087925E+03</pdfrwt>
<totfact> 0.37610275E+03</totfact>
</mgrwt>
</event>
<event>
 5    0  0.1943430E+001  0.2068675E+03  0.7546771E-02  0.1144071E+00
         21   -1    0    0  504  501  0.00000000000E+00  0.00000000000E+00  0.63564514910E+03  0.63564514910E+03  0.00000000000E+00 0. -1.
         21   -1    0    0  501  502 -0.00000000000E+00 -0.00000000000E+00 -0.49641963505E+03  0.49641963505E+03  0.00000000000E+00 0.  1.
         25    1    1    2    0    0 -0.19625177195E+03 -0.55506773745E+02  0.10859924034E+03  0.26270621410E+03  0.12500000000E+03 0.  0.
         21    1    1    2  503  502  0.37327108955E+02  0.58172373095E+02 -0.40229049205E+03  0.40818498018E+03  0.00000000000E+00 0.  1.
         21    1    1    2  504  503  0.15892466299E+03 -0.26655993500E+01  0.43291676575E+03  0.46117358987E+03  0.00000000000E+00 0. -1.
<mgrwt>
<rscale>  4 0.20686749E+03</rscale>
<asrwt>0</asrwt>
<pdfrwt beam="1">  1       21 0.97791561E-01 0.20686749E+03</pdfrwt>
<pdfrwt beam="2">  1       21 0.76372252E-01 0.20686749E+03</pdfrwt>
<totfact> 0.13034968E+03</totfact>
</mgrwt>
</event>
<event>
 5    0  0.1943430E+001  0.2810829E+03  0.7546771E-02  0.1095099E+00
         21   -1    0    0  503  501  0.00000000000E+00  0.00000000000E+00  0.28243356442E+03  0.28243356442E+03  0.00000000000E+00 0.  1.
         21   -1    0    0  504  502 -0.00000000000E+00 -0.00000000000E+00 -0.47100042566E+03  0.47100042566E+03  0.00000000000E+00 0.  1.
         25    1    1    2    0    0 -0.24117316813E+03 -0.44721803325E+02 -0.50020955583E+02  0.27980642008E+03  0.12500000000E+03 0.  0.
         21    1    1    2  503  502  0.23323147627E+03  0.11343120467E+03  0.57576118438E+02  0.26566627398E+03  0.00000000000E+00 0.  1.
         21    1    1    2  504  501  0.79416918614E+01 -0.68709401350E+02 -0.19612202410E+03  0.20796129601E+03  0.00000000000E+00 0.  1.
<mgrwt>
<rscale>  4 0.28108289E+03</rscale>
<asrwt>0</asrwt>
<pdfrwt beam="1">  1       21 0.43451317E-01 0.28108289E+03</pdfrwt>
<pdfrwt beam="2">  1       21 0.72461604E-01 0.28108289E+03</pdfrwt>
<totfact> 0.82833198E+03</totfact>
</mgrwt>
</event>
<event>
 5    0  0.1943430E+001  0.5817877E+03  0.7546771E-02  0.9943928E-01
         21   -1    0    0  504  501  0.00000000000E+00  0.00000000000E+00  0.10640471189E+04  0.10640471189E+04  0.00000000000E+00 0.  1.
         21   -1    0    0  501  502 -0.00000000000E+00 -0.00000000000E+00 -0.56580231207E+03  0.56580231207E+03  0.00000000000E+00 0. -1.
         25    1    1    2    0    0  0.21497772012E+03 -0.59342236618E+03  0.41358432959E+03  0.76488072437E+03  0.12500000000E+03 0.  0.
         21    1    1    2  503  502  0.11475680926E+03  0.18494400273E+03 -0.17502072551E+03  0.27929494048E+03  0.00000000000E+00 0. -1.
         21    1    1    2  504  503 -0.32973452938E+03  0.40847836345E+03  0.25968120276E+03  0.58567376614E+03  0.00000000000E+00 0. -1.
<mgrwt>
<rscale>  4 0.58178775E+03</rscale>
<asrwt>0</asrwt>
<pdfrwt beam="1">  1       21 0.16369956E+00 0.58178775E+03</pdfrwt>
<pdfrwt beam="2">  1       21 0.87046510E-01 0.58178775E+03</pdfrwt>
<totfact> 0.20659756E+02</totfact>
</mgrwt>
</event>
<event>
 5    0  0.1943430E+001  0.2402729E+03  0.7546771E-02  0.1119611E+00
         21   -1    0    0  503  501  0.00000000000E+00  0.00000000000E+00  0.66168646530E+02  0.66168646530E+02  0.00000000000E+00 0.  1.
         21   -1    0    0  504  502 -0.00000000000E+00 -0.00000000000E+00 -0.12186684994E+04  0.12186684994E+04  0.00000000000E+00 0.  1.
         25    1    1    2    0    0  0.15939177346E+03 -0.12797798329E+03 -0.67259013989E+03  0.71399341588E+03  0.12500000000E+03 0.  0.
         21    1    1    2  503  502 -0.14227040533E+03  0.14886387867E+03 -0.19158874099E+03  0.28126067674E+03  0.00000000000E+00 0.  1.
         21    1    1    2  504  501 -0.17121368137E+02 -0.20885895386E+02 -0.28832097197E+03  0.28958305329E+03  0.00000000000E+00 0.  1.
<mgrwt>
<rscale>  4 0.24027288E+03</rscale>
<asrwt>0</asrwt>
<pdfrwt beam="1">  1       21 0.10179792E-01 0.24027288E+03</pdfrwt>
<pdfrwt beam="2">  1       21 0.18748745E+00 0.24027288E+03</pdfrwt>
<totfact> 0.12305929E+04</totfact>
</mgrwt>
</event>
