<event>
 5    0  0.1911311E+001  0.2794176E+03  0.7546771E-02  0.1096007E+00
         21   -1    0    0  502  501  0.00000000000E+00  0.00000000000E+00  0.52560765868E+03  0.52560765868E+03  0.00000000000E+00 0.  1.
         21   -1    0    0  504  502 -0.00000000000E+00 -0.00000000000E+00 -0.44588188238E+03  0.44588188238E+03  0.00000000000E+00 0.  1.
         25    1    1    2    0    0  0.59168622422E+01 -0.24368366929E+03  0.40532502512E+03  0.48921377324E+03  0.12500000000E+03 0.  0.
         21    1    1    2  503  501  0.43890184534E+02 -0.20803497894E+01  0.25515439003E+02  0.50810567614E+02  0.00000000000E+00 0.  1.
         21    1    1    2  504  503 -0.49807046776E+02  0.24576401908E+03 -0.35111468782E+03  0.43146520021E+03  0.00000000000E+00 0.  1.
<mgrwt>
<rscale>  4 0.27941758E+03</rscale>
<asrwt>0</asrwt>
<pdfrwt beam="1">  1       21 0.80862717E-01 0.27941758E+03</pdfrwt>
<pdfrwt beam="2">  1       21 0.68597212E-01 0.27941758E+03</pdfrwt>
<totfact> 0.24389968E+03</totfact>
</mgrwt>
</event>
<event>
 5    0  0.1911311E+001  0.2716491E+03  0.7546771E-02  0.1100339E+00
         21   -1    0    0  502  501  0.00000000000E+00  0.00000000000E+00  0.62037584062E+03  0.62037584062E+03  0.00000000000E+00 0. -1.
         21   -1    0    0  504  502 -0.00000000000E+00 -0.00000000000E+00 -0.16928527663E+03  0.16928527663E+03  0.00000000000E+00 0.  1.
         25    1    1    2    0    0 -0.11249157172E+03  0.21558400912E+03  0.39975141721E+03  0.48431086531E+03  0.12500000000E+03 0.  0.
         21    1    1    2  503  501 -0.35704023027E+02 -0.24924076933E+02  0.46663653680E+02  0.63823847001E+02  0.00000000000E+00 0.  1.
         21    1    1    2  504  503  0.14819559474E+03 -0.19065993219E+03  0.46754930983E+01  0.24152640493E+03  0.00000000000E+00 0.  1.
<mgrwt>
<rscale>  4 0.27164908E+03</rscale>
<asrwt>0</asrwt>
<pdfrwt beam="1">  1       21 0.95442436E-01 0.27164908E+03</pdfrwt>
<pdfrwt beam="2">  1       21 0.26043889E-01 0.27164908E+03</pdfrwt>
<totfact> 0.12253773E+04</totfact>
</mgrwt>
</event>
<event>
 5    0  0.1911311E+001  0.2346674E+03  0.7546771E-02  0.1123397E+00
         21   -1    0    0  504  501  0.00000000000E+00  0.00000000000E+00  0.59328060732E+03  0.59328060732E+03  0.00000000000E+00 0. -1.
         21   -1    0    0  503  502 -0.00000000000E+00 -0.00000000000E+00 -0.19565257058E+03  0.19565257058E+03  0.00000000000E+00 0. -1.
         25    1    1    2    0    0  0.24118564007E+02 -0.23903425962E+03  0.31477195456E+03  0.41524145480E+03  0.12500000000E+03 0.  0.
         21    1    1    2  503  501  0.56918166369E+01  0.19137939112E+03 -0.75379902927E+02  0.20576831119E+03  0.00000000000E+00 0. -1.
         21    1    1    2  504  502 -0.29810380644E+02  0.47654868500E+02  0.15823598511E+03  0.16792341192E+03  0.00000000000E+00 0. -1.
<mgrwt>
<rscale>  4 0.23466744E+03</rscale>
<asrwt>0</asrwt>
<pdfrwt beam="1">  1       21 0.91273939E-01 0.23466744E+03</pdfrwt>
<pdfrwt beam="2">  1       21 0.30100396E-01 0.23466744E+03</pdfrwt>
<totfact> 0.10475605E+04</totfact>
</mgrwt>
</event>
<event>
 5    0  0.1911311E+001  0.2930669E+03  0.7546771E-02  0.1088759E+00
         21   -1    0    0  504  501  0.00000000000E+00  0.00000000000E+00  0.89038842263E+02  0.89038842263E+02  0.00000000000E+00 0. -1.
         21   -1    0    0  501  502 -0.00000000000E+00 -0.00000000000E+00 -0.12369698404E+04  0.12369698404E+04  0.00000000000E+00 0. -1.
         25    1    1    2    0    0 -0.17074059099E+03 -0.20275818523E+03 -0.24468365791E+03  0.38178308441E+03  0.12500000000E+03 0.  0.
         21    1    1    2  503  502  0.19337052142E+02  0.68757560695E+02 -0.19435306316E+03  0.20706191562E+03  0.00000000000E+00 0. -1.
         21    1    1    2  504  503  0.15140353885E+03  0.13400062453E+03 -0.70889427701E+03  0.73716368259E+03  0.00000000000E+00 0. -1.
<mgrwt>
<rscale>  4 0.29306694E+03</rscale>
<asrwt>0</asrwt>
<pdfrwt beam="1">  1       21 0.13698284E-01 0.29306694E+03</pdfrwt>
<pdfrwt beam="2">  1       21 0.19030305E+00 0.29306694E+03</pdfrwt>
<totfact> 0.66829427E+03</totfact>
</mgrwt>
</event>
<event>
 5    0  0.1911311E+001  0.1829539E+03  0.7546771E-02  0.1164974E+00
         21   -1    0    0  502  501  0.00000000000E+00  0.00000000000E+00  0.31818604503E+03  0.31818604503E+03  0.00000000000E+00 0.  1.
         21   -1    0    0  504  502 -0.00000000000E+00 -0.00000000000E+00 -0.66789368547E+03  0.66789368547E+03  0.00000000000E+00 0.  1.
         25    1    1    2    0    0  0.22715940167E+03 -0.10289658449E+03 -0.74531439388E+01  0.27905133976E+03  0.12500000000E+03 0.  0.
         21    1    1    2  503  501 -0.10798771011E+03  0.59537504885E+02  0.15259270772E+03  0.19619019974E+03  0.00000000000E+00 0.  1.
         21    1    1    2  504  503 -0.11917169156E+03  0.43359079601E+02 -0.49484720423E+03  0.51083819100E+03  0.00000000000E+00 0.  1.
<mgrwt>
<rscale>  4 0.18295390E+03</rscale>
<asrwt>0</asrwt>
<pdfrwt beam="1">  1       21 0.48951700E-01 0.18295390E+03</pdfrwt>
<pdfrwt beam="2">  1       21 0.10275287E+00 0.18295390E+03</pdfrwt>
<totfact> 0.30902613E+03</totfact>
</mgrwt>
</event>
<event>
 5    0  0.2731594E+001  0.2839548E+03  0.7546771E-02  0.1093548E+00
         21   -1    0    0  502  501  0.00000000000E+00  0.00000000000E+00  0.22657860127E+03  0.22657860127E+03  0.00000000000E+00 0. -1.
         21   -1    0    0  504  502 -0.00000000000E+00 -0.00000000000E+00 -0.52447087131E+03  0.52447087131E+03  0.00000000000E+00 0. -1.
         25    1    1    2    0    0  0.10858349844E+03  0.22952261180E+03  0.50709814164E+02  0.28751954840E+03  0.12500000000E+03 0.  0.
         21    1    1    2  503  501 -0.21652847964E+02  0.10669001110E+02  0.75082679050E+01  0.25279388770E+02  0.00000000000E+00 0. -1.
         21    1    1    2  504  503 -0.86930650477E+02 -0.24019161291E+03 -0.35611035211E+03  0.43825053541E+03  0.00000000000E+00 0. -1.
<mgrwt>
<rscale>  4 0.28395481E+03</rscale>
<asrwt>0</asrwt>
<pdfrwt beam="1">  1       21 0.34858247E-01 0.28395481E+03</pdfrwt>
<pdfrwt beam="2">  1       21 0.80687826E-01 0.28395481E+03</pdfrwt>
<totfact> 0.10145826E+04</totfact>
</mgrwt>
</event>
