<LesHouchesEvents version="3.0">
  <!--
  <scalesfunctionalform>
    muR  H_T/2 := sum_i mT(i)/2, i=final state
    muF1 H_T/2 := sum_i mT(i)/2, i=final state
    muF2 H_T/2 := sum_i mT(i)/2, i=final state
    QES  H_T/2 := sum_i mT(i)/2, i=final state
  </scalesfunctionalform>
HERWIG6   
  -->
  <header>
       34
  </header>
  <init>
   2212   2212 0.65000000D+04 0.65000000D+04 -1 -1   244800   244800 -4   1
 0.37022463D-04 0.18454999D-05 0.21964403D-05     66
  </init>
  <event>
  6     66 0.21964403E-05 0.12613171E+03 0.75467711E-02 0.94109742E-01
        2 -1    0    0  502    0 0.00000000E+00 0.00000000E+00 0.33413995E+04 0.33413995E+04 0.32000000E+00 0.0000E+00 0.9000E+01
       -3 -1    0    0    0  503 0.00000000E+00 0.00000000E+00 -.38631710E+03 0.38631743E+03 0.50000000E+00 0.0000E+00 0.9000E+01
       25  1    1    2    0    0 -.68275750E+02 0.44526043E+03 0.80335038E+03 0.92947042E+03 0.12500000E+03 0.0000E+00 0.9000E+01
        2  1    1    2  502    0 -.48868720E+02 0.21830173E+02 0.21054236E+04 0.21061038E+04 0.32000000E+00 0.0000E+00 0.9000E+01
       -3  1    1    2    0  501 -.31811589E+01 -.37276911E+03 0.24152111E+03 0.44418422E+03 0.50000000E+00 0.0000E+00 0.9000E+01
       21  1    1    2  501  503 0.12032563E+03 -.94321491E+02 -.19521274E+03 0.24795842E+03 0.75000000E+00 0.0000E+00 0.9000E+01
#aMCatNLO 2  0  0  2  1 0.57605827D+01 0.00000000D+00  -5  6  0 0.00000000D+00 0.00000000D+00 0.00000000D+00 0.00000000D+00 0.00000000D+00
  <mgrwgt>
 0.7085005735D-02    1    2    0
 0.735014477155673D+03 0.000000000000000D+00 0.000000000000000D+00 0.735014477155673D+03
 0.735014477155673D+03 0.000000000000000D+00 0.000000000000000D+00 -.735014477155673D+03
 0.444485165411010D+03 -.307140191359723D+02 0.415879287542478D+03 -.896834962082141D+02
 0.467990266601707D+03 -.105396851217807D+02 -.821231851879889D+01 0.467799489627785D+03
 0.557553522298630D+03 0.412537042577530D+02 -.407666969023679D+03 -.378115993419571D+03
 0.000000000000000D+00 0.000000000000000D+00 -.000000000000000D+00 -.000000000000000D+00
 0.744857853008597D+03 0.000000000000000D+00 0.000000000000000D+00 0.744857853008597D+03
 0.173300167615140D+04 0.000000000000000D+00 0.000000000000000D+00 -.173300167615140D+04
 0.476080728726180D+03 -.682880215065622D+02 0.445332995511270D+03 -.896834962082141D+02
 0.470850294996006D+03 -.488595899887117D+02 0.218260914490969D+02 0.467799489627785D+03
 0.531027002419517D+03 -.317801700938532D+01 -.372837596048034D+03 -.378115993419571D+03
 0.999901503018291D+03 0.120325628504659D+03 -.943214909123328D+02 -.988143823142801D+03
0.241822046465D-01 0.000000000000D+00 0.000000000000D+00 0.129153257202D-04 0.287596295196D-08  6 2 -3 25 2 -3 21 2 0.51406139D+00 0.59433415D-01 0.27395253D+06 0.27395253D+06 0.27395253D+06 0.10874824D+01  1  2  1  2  6  2       -3 0.708500573495D-02 0.100000000000D+01
  </mgrwgt>
  </event>
  <event>
  5     66 0.21964403E-05 0.11382007E+03 0.75467711E-02 0.91948880E-01
        2 -1    0    0  502    0 0.00000000E+00 0.00000000E+00 0.13485511E+04 0.13485511E+04 0.32000000E+00 0.0000E+00 0.9000E+01
       -3 -1    0    0    0  501 0.00000000E+00 0.00000000E+00 -.41697066E+03 0.41697096E+03 0.50000000E+00 0.0000E+00 0.9000E+01
       25  1    1    2    0    0 -.66455911E+02 -.61486176E+03 0.80394777E+03 0.10219728E+04 0.12500000E+03 0.0000E+00 0.9000E+01
        2  1    1    2  502    0 0.79176876E+02 0.82061154E+02 0.17459205E+03 0.20853176E+03 0.32000000E+00 0.0000E+00 0.9000E+01
       -3  1    1    2    0  501 -.12720965E+02 0.53280061E+03 -.46959402E+02 0.53501752E+03 0.50000000E+00 0.0000E+00 0.9000E+01
#aMCatNLO 1  0  0  4  1 0.15445257D+02 0.00000000D+00  -5  6  0 0.00000000D+00 0.00000000D+00 0.00000000D+00 0.00000000D+00 0.00000000D+00
  <mgrwgt>
 0.9251694376D-04    7    2    0
 0.749871012582930D+03 0.000000000000000D+00 0.000000000000000D+00 0.749871012582930D+03
 0.749871012582930D+03 -.000000000000000D+00 -.000000000000000D+00 -.749871012582930D+03
 0.703788712907464D+03 -.663412679908895D+02 -.614857879971212D+03 0.311836777841570D+03
 0.136783945453434D+03 0.790305928232937D+02 0.819095423938116D+02 0.758606617203094D+02
 0.659169366804962D+03 -.126893248324042D+02 0.532948337577400D+03 -.387697439561879D+03
 0.000000000000000D+00 0.000000000000000D+00 0.000000000000000D+00 0.000000000000000D+00
 0.749871012582930D+03 0.000000000000000D+00 0.000000000000000D+00 0.749871012582930D+03
 0.749871012582930D+03 -.000000000000000D+00 -.000000000000000D+00 -.749871012582930D+03
 0.703140339614433D+03 -.652082825057364D+02 -.613683621759139D+03 0.312924319077853D+03
 0.424944990698988D+02 0.207235462158138D+02 0.144815030010113D+02 0.341555728143206D+02
 0.659441743211147D+03 -.116274608773370D+02 0.534048883423469D+03 -.386678167158489D+03
 0.946654432703808D+02 0.561121971672594D+02 0.651532353346585D+02 0.395982752663155D+02
0.113031914580D-04 0.000000000000D+00 0.000000000000D+00 0.103424787767D-07 0.000000000000D+00  6 2 -3 25 2 -3 21 0 0.20746942D+00 0.64149359D-01 0.40822668D+06 0.40822668D+06 0.40822668D+06 0.10747908D+01  1  2  2  3  6  4        2 0.338999031474D-04 0.100000000000D+01
0.112303147921D-05 0.000000000000D+00 -.434072313972D-07 0.103424787767D-07 0.000000000000D+00  6 2 -3 25 2 -3 21 2 0.20746942D+00 0.64149359D-01 0.40822668D+06 0.40822668D+06 0.40822668D+06 0.10747908D+01  1  2  3  3  6  4        2 0.389078481395D-05 0.100000000000D+01
-.677908826239D-05 0.000000000000D+00 0.000000000000D+00 0.103424787767D-07 0.000000000000D+00  6 2 -3 25 2 -3 21 2 0.20746942D+00 0.64149359D-01 0.40822668D+06 0.40822668D+06 0.40822668D+06 0.10747908D+01  1  2 15  3  6  4        2 -.234864063493D-04 0.100000000000D+01
0.183110098082D-04 0.000000000000D+00 0.000000000000D+00 0.103424787767D-07 0.000000000000D+00  6 2 -3 25 2 -3 21 2 0.20746942D+00 0.64149359D-01 0.40647852D+06 0.40647852D+06 0.40647852D+06 0.10749250D+01  1  2 12  3  6  4        2 0.634649810723D-04 0.100000000000D+01
-.334163603397D-04 0.000000000000D+00 0.000000000000D+00 0.103424787767D-07 0.000000000000D+00  6 2 -3 25 2 -3 21 2 0.20746942D+00 0.64149359D-01 0.40822668D+06 0.40822668D+06 0.40822668D+06 0.10747908D+01  1  2  4  3  6  4        2 -.115772237693D-03 0.100000000000D+01
-.179255880938D-04 0.000000000000D+00 0.000000000000D+00 0.103424787767D-07 0.000000000000D+00  6 2 -3 25 2 -3 21 2 0.20746942D+00 0.64149359D-01 0.40822668D+06 0.40822668D+06 0.40822668D+06 0.10747908D+01  1  2  5  3  6  4        2 -.621038744042D-04 0.100000000000D+01
0.555987014761D-04 0.000000000000D+00 -.000000000000D+00 0.103424787767D-07 0.000000000000D+00  6 2 -3 25 2 -3 21 2 0.20746942D+00 0.64149359D-01 0.40822668D+06 0.40822668D+06 0.40822668D+06 0.10747908D+01  1  2  6  3  6  4        2 0.192623793174D-03 0.100000000000D+01
  </mgrwgt>
  </event>
  <event>
  5     66 -.21964403E-05 0.21888545E+03 0.75467711E-02 0.93430827E-01
        2 -1    0    0  502    0 0.00000000E+00 0.00000000E+00 0.25880300E+04 0.25880301E+04 0.32000000E+00 0.0000E+00 0.9000E+01
       -3 -1    0    0    0  501 0.00000000E+00 0.00000000E+00 -.53740523E+03 0.53740546E+03 0.50000000E+00 0.0000E+00 0.9000E+01
       25  1    1    2    0    0 -.23391291E+03 0.47038652E+03 0.82361390E+03 0.98485714E+03 0.12500000E+03 0.0000E+00 0.9000E+01
        2  1    1    2  502    0 -.14555882E+02 -.21842966E+03 0.16067070E+04 0.16215520E+04 0.32000000E+00 0.0000E+00 0.9000E+01
       -3  1    1    2    0  501 0.24846879E+03 -.25195687E+03 -.37969610E+03 0.51902638E+03 0.50000000E+00 0.0000E+00 0.9000E+01
#aMCatNLO 1  0  0  5  2 0.17079402D+02 0.00000000D+00  -5  6  0 0.00000000D+00 0.00000000D+00 0.00000000D+00 0.00000000D+00 0.00000000D+00
  <mgrwgt>
 -.1430103808D-02    7    2    0
 0.117933085528544D+04 0.000000000000000D+00 0.000000000000000D+00 0.117933085528544D+04
 0.117933085528544D+04 -.000000000000000D+00 -.000000000000000D+00 -.117933085528544D+04
 0.589033933347862D+03 -.233943646477569D+03 0.470391302793834D+03 0.235241083070009D+03
 0.751727408593791D+03 -.145539765995896D+02 -.218401060225332D+03 0.719154542145654D+03
 0.101790036862923D+04 0.248497623077159D+03 -.251990242568502D+03 -.954395625215663D+03
 0.000000000000000D+00 0.000000000000000D+00 0.000000000000000D+00 -.000000000000000D+00
 0.117933085528544D+04 0.000000000000000D+00 0.000000000000000D+00 0.117933085528544D+04
 0.117933085528544D+04 -.000000000000000D+00 -.000000000000000D+00 -.117933085528544D+04
 0.588863182638844D+03 -.233881335889932D+03 0.470328116434549D+03 0.235001769101893D+03
 0.751457148898866D+03 -.144744583531878D+02 -.218481696096015D+03 0.718849139359297D+03
 0.846244319583411D+03 0.218844333454876D+03 -.219727250210915D+03 -.787373190841948D+03
 0.172097059449763D+03 0.295114607882437D+02 -.321191701276188D+02 -.166477717619243D+03
0.151610646886D-04 0.000000000000D+00 0.000000000000D+00 0.331167144204D-05 0.000000000000D+00  6 2 -3 25 2 -3 21 0 0.39815849D+00 0.82677747D-01 0.30958840D+06 0.30958840D+06 0.30958840D+06 0.10835424D+01  1  2  2  4  6  5       -3 0.520109690323D-05 0.100000000000D+01
0.149310839010D-05 0.000000000000D+00 -.582224804043D-07 0.331167144204D-05 0.000000000000D+00  6 2 -3 25 2 -3 21 2 0.39815849D+00 0.82677747D-01 0.30958840D+06 0.30958840D+06 0.30958840D+06 0.10835424D+01  1  2  3  4  6  5       -3 0.601379232699D-06 0.100000000000D+01
-.104073264937D-04 0.000000000000D+00 0.000000000000D+00 0.331167144204D-05 0.000000000000D+00  6 2 -3 25 2 -3 21 2 0.39815849D+00 0.82677747D-01 0.30958840D+06 0.30958840D+06 0.30958840D+06 0.10835424D+01  1  2 15  4  6  5       -3 -.419175865779D-05 0.100000000000D+01
0.269951190353D-02 0.000000000000D+00 0.000000000000D+00 0.331167144204D-05 0.000000000000D+00  6 2 -3 25 2 -3 21 2 0.39815849D+00 0.82677747D-01 0.30948946D+06 0.30948946D+06 0.30948946D+06 0.10835527D+01  1  2 12  4  6  5       -3 0.108732666331D-02 0.100000000000D+01
-.676975871326D-02 0.000000000000D+00 0.000000000000D+00 0.331167144204D-05 0.000000000000D+00  6 2 -3 25 2 -3 21 2 0.39815849D+00 0.82677747D-01 0.30958840D+06 0.30958840D+06 0.30958840D+06 0.10835424D+01  1  2  4  4  6  5       -3 -.272665556468D-02 0.100000000000D+01
-.281488885989D-02 0.000000000000D+00 0.000000000000D+00 0.331167144204D-05 0.000000000000D+00  6 2 -3 25 2 -3 21 2 0.39815849D+00 0.82677747D-01 0.30958840D+06 0.30958840D+06 0.30958840D+06 0.10835424D+01  1  2  5  4  6  5       -3 -.113375272279D-02 0.100000000000D+01
0.333035522484D-02 0.000000000000D+00 -.000000000000D+00 0.331167144204D-05 0.000000000000D+00  6 2 -3 25 2 -3 21 2 0.39815849D+00 0.82677747D-01 0.30958840D+06 0.30958840D+06 0.30958840D+06 0.10835424D+01  1  2  6  4  6  5       -3 0.134136709901D-02 0.100000000000D+01
  </mgrwgt>
  </event>
  <event>
  5     66 0.21964403E-05 0.22738847E+03 0.75467711E-02 0.92037117E-01
        2 -1    0    0  502    0 0.00000000E+00 0.00000000E+00 0.24062899E+04 0.24062899E+04 0.32000000E+00 0.0000E+00 0.9000E+01
       -3 -1    0    0    0  501 0.00000000E+00 0.00000000E+00 -.90463634E+03 0.90463648E+03 0.50000000E+00 0.0000E+00 0.9000E+01
       25  1    1    2    0    0 0.33895062E+03 0.40852465E+03 0.10810604E+03 0.55596028E+03 0.12500000E+03 0.0000E+00 0.9000E+01
        2  1    1    2  502    0 -.18499986E+03 -.13222284E+03 0.20308230E+04 0.20435141E+04 0.32000000E+00 0.0000E+00 0.9000E+01
       -3  1    1    2    0  501 -.15395076E+03 -.27630181E+03 -.63727553E+03 0.71145195E+03 0.50000000E+00 0.0000E+00 0.9000E+01
#aMCatNLO 1  0  0  4  1 0.22075778D+03 0.00000000D+00  -5  6  0 0.00000000D+00 0.00000000D+00 0.00000000D+00 0.00000000D+00 0.00000000D+00
  <mgrwgt>
 0.3148088775D-03    6    2    0
 0.147540418670958D+04 0.000000000000000D+00 0.000000000000000D+00 0.147540418670958D+04
 0.147540418670958D+04 -.000000000000000D+00 -.000000000000000D+00 -.147540418670958D+04
 0.568798632753841D+03 0.338958483013438D+03 0.408541431094125D+03 -.161579486617058D+03
 0.125940031942775D+04 -.184995721328406D+03 -.132219883466668D+03 0.123870240577830D+04
 0.112260942123757D+04 -.153962761685032D+03 -.276321547627456D+03 -.107712291916124D+04
 0.000000000000000D+00 -.000000000000000D+00 0.000000000000000D+00 0.000000000000000D+00
 0.147540418670958D+04 0.000000000000000D+00 0.000000000000000D+00 0.147540418670958D+04
 0.147540418670958D+04 -.000000000000000D+00 -.000000000000000D+00 -.147540418670958D+04
 0.559854829578395D+03 0.335883935825858D+03 0.406343995024061D+03 -.140992799689456D+03
 0.966499668226817D+03 0.793651029635386D+02 -.120753758917512D+03 0.955636603956454D+03
 0.108599023199146D+04 -.159979173346316D+03 -.280621588963712D+03 -.103683796799875D+04
 0.338463643622487D+03 -.255269865443080D+03 -.496864714283724D+01 0.222194163731750D+03
0.290640522681D-02 0.000000000000D+00 0.000000000000D+00 0.182214000995D-04 0.000000000000D+00  6 2 -3 25 2 -3 21 0 0.37019845D+00 0.13917483D+00 0.29652056D+06 0.29652056D+06 0.29652056D+06 0.10849269D+01  1  2  2  3  6  4        2 0.308872587898D-03 0.100000000000D+01
0.378076807428D-03 0.000000000000D+00 -.111613613450D-04 0.182214000995D-04 0.000000000000D+00  6 2 -3 25 2 -3 21 2 0.37019845D+00 0.13917483D+00 0.29652056D+06 0.29652056D+06 0.29652056D+06 0.10849269D+01  1  2  3  3  6  4        2 0.472937983439D-04 0.100000000000D+01
-.189396111399D-02 0.000000000000D+00 0.000000000000D+00 0.182214000995D-04 0.000000000000D+00  6 2 -3 25 2 -3 21 2 0.37019845D+00 0.13917483D+00 0.29652056D+06 0.29652056D+06 0.29652056D+06 0.10849269D+01  1  2 15  3  6  4        2 -.236916449876D-03 0.100000000000D+01
-.157106188544D-03 0.000000000000D+00 0.000000000000D+00 0.182214000995D-04 0.000000000000D+00  6 2 -3 25 2 -3 21 2 0.37019845D+00 0.13917483D+00 0.29652056D+06 0.29652056D+06 0.29652056D+06 0.10849269D+01  1  2  4  3  6  4        2 -.196524839757D-04 0.100000000000D+01
-.567497806410D-02 0.000000000000D+00 0.000000000000D+00 0.182214000995D-04 0.000000000000D+00  6 2 -3 25 2 -3 21 2 0.37019845D+00 0.13917483D+00 0.29652056D+06 0.29652056D+06 0.29652056D+06 0.10849269D+01  1  2  5  3  6  4        2 -.709885565305D-03 0.100000000000D+01
0.739542453666D-02 0.000000000000D+00 -.000000000000D+00 0.182214000995D-04 0.000000000000D+00  6 2 -3 25 2 -3 21 2 0.37019845D+00 0.13917483D+00 0.29652056D+06 0.29652056D+06 0.29652056D+06 0.10849269D+01  1  2  6  3  6  4        2 0.925096990433D-03 0.100000000000D+01
  </mgrwgt>
  </event>
  <event>
  5     66 -.21964403E-05 0.33334761E+02 0.75467711E-02 0.95119292E-01
        2 -1    0    0  502    0 0.00000000E+00 0.00000000E+00 0.70833085E+03 0.70833093E+03 0.32000000E+00 0.0000E+00 0.9000E+01
       -3 -1    0    0    0  501 0.00000000E+00 0.00000000E+00 -.50006704E+03 0.50006729E+03 0.50000000E+00 0.0000E+00 0.9000E+01
       25  1    1    2    0    0 -.16544577E+03 -.42605968E+03 0.83385309E+02 0.48112084E+03 0.12500000E+03 0.0000E+00 0.9000E+01
        2  1    1    2  502    0 0.19285316E+03 0.40708663E+03 0.30506208E+03 0.54403570E+03 0.32000000E+00 0.0000E+00 0.9000E+01
       -3  1    1    2    0  501 -.27407391E+02 0.18973055E+02 -.18018358E+03 0.18324168E+03 0.50000000E+00 0.0000E+00 0.9000E+01
#aMCatNLO 1  0  0  2  5 0.18401195D+03 0.00000000D+00  -5  6  0 0.00000000D+00 0.00000000D+00 0.00000000D+00 0.00000000D+00 0.00000000D+00
  <mgrwgt>
 -.1714395621D-03    1    2    0
 0.595158055680656D+03 0.000000000000000D+00 0.000000000000000D+00 0.595158055680656D+03
 0.595158055680656D+03 0.000000000000000D+00 0.000000000000000D+00 -.595158055680656D+03
 0.473837264667615D+03 -.165443726558052D+03 -.426057384067342D+03 0.481883767469469D+00
 0.498920732307125D+03 0.192851575459438D+03 0.407083293047481D+03 0.214507248106700D+03
 0.217558114386571D+03 -.274078489013865D+02 0.189740910198612D+02 -.214989131874170D+03
 0.000000000000000D+00 -.000000000000000D+00 0.000000000000000D+00 0.000000000000000D+00
 0.190746256466160D+04 0.000000000000000D+00 0.000000000000000D+00 0.190746256466160D+04
 0.103227563125998D+04 0.000000000000000D+00 0.000000000000000D+00 -.103227563125998D+04
 0.705405632969409D+03 0.208940280073032D+03 -.662054253196829D+03 0.481883767469469D+00
 0.615378385335994D+03 0.546617342533086D+03 0.184083346586520D+03 0.214507248106700D+03
 0.259792263967311D+03 0.124140528089559D+03 -.765560113831528D+02 -.214989131874170D+03
 0.135916191364887D+04 -.879698150695677D+03 0.554526917993461D+03 0.875186933401623D+03
-.282691008210D-04 0.000000000000D+00 0.000000000000D+00 0.104812764863D-05 0.000000000000D+00  6 2 -3 25 2 -3 21 2 0.10897400D+00 0.76933416D-01 0.22926164D+06 0.22926164D+06 0.22926164D+06 0.10932997D+01  1  2 14  2  6  2       -3 -.171439562121D-03 0.100000000000D+01
  </mgrwgt>
  </event>
  <event>
  5     66 -.21964403E-05 0.32608937E+02 0.75467711E-02 0.93877835E-01
        2 -1    0    0  502    0 0.00000000E+00 0.00000000E+00 0.21155600E+04 0.21155600E+04 0.32000000E+00 0.0000E+00 0.9000E+01
       -3 -1    0    0    0  501 0.00000000E+00 0.00000000E+00 -.21711602E+03 0.21711660E+03 0.50000000E+00 0.0000E+00 0.9000E+01
       25  1    1    2    0    0 -.15246413E+03 0.47143546E+03 0.55840056E+03 0.75692331E+03 0.12500000E+03 0.0000E+00 0.9000E+01
        2  1    1    2  502    0 -.20068732E+02 0.25726772E+02 0.86860565E+03 0.86921833E+03 0.32000000E+00 0.0000E+00 0.9000E+01
       -3  1    1    2    0  501 0.17253287E+03 -.49716223E+03 0.47143776E+03 0.70653498E+03 0.50000000E+00 0.0000E+00 0.9000E+01
#aMCatNLO 1  0  0  5  2 0.22147478D+02 0.00000000D+00  -5  6  0 0.00000000D+00 0.00000000D+00 0.00000000D+00 0.00000000D+00 0.00000000D+00
  <mgrwgt>
 -.1596423964D-02    7    2    0
 0.677733483199120D+03 0.000000000000000D+00 0.000000000000000D+00 0.677733483199120D+03
 0.677733483199120D+03 -.000000000000000D+00 -.000000000000000D+00 -.677733483199120D+03
 0.520633996125086D+03 -.152505937282366D+03 0.471548951255505D+03 -.990872523821113D+02
 0.279149953039305D+03 -.200566824296738D+02 0.257113258488132D+02 0.277238802289394D+03
 0.555683017233848D+03 0.172562619712040D+03 -.497260277104319D+03 -.178151549907282D+03
 0.000000000000000D+00 0.000000000000000D+00 0.000000000000000D+00 -.000000000000000D+00
 0.677733483199120D+03 0.000000000000000D+00 0.000000000000000D+00 0.677733483199120D+03
 0.677733483199120D+03 -.000000000000000D+00 -.000000000000000D+00 -.677733483199120D+03
 0.520023353868163D+03 -.152280251852819D+03 0.470898611109868D+03 -.993202472748200D+02
 0.278985247146948D+03 -.199356406838962D+02 0.253625292661754D+02 0.277113840263146D+03
 0.349758667584815D+03 0.976692277905904D+02 -.322084534791324D+03 -.951493559712886D+02
 0.206699697798314D+03 0.745466647461249D+02 -.174176605584719D+03 -.826442370170376D+02
0.309314994032D-04 0.000000000000D+00 0.000000000000D+00 0.884132749371D-06 0.000000000000D+00  6 2 -3 25 2 -3 21 0 0.32547081D+00 0.33402511D-01 0.28626676D+06 0.28626676D+06 0.28626676D+06 0.10860607D+01  1  2  2  4  6  5       -3 0.137945984691D-03 0.100000000000D+01
0.134735644133D-04 0.000000000000D+00 -.118785102159D-06 0.884132749371D-06 0.000000000000D+00  6 2 -3 25 2 -3 21 2 0.32547081D+00 0.33402511D-01 0.28626676D+06 0.28626676D+06 0.28626676D+06 0.10860607D+01  1  2  3  4  6  5       -3 0.708759320928D-04 0.100000000000D+01
-.186256694156D-04 0.000000000000D+00 0.000000000000D+00 0.884132749371D-06 0.000000000000D+00  6 2 -3 25 2 -3 21 2 0.32547081D+00 0.33402511D-01 0.28626676D+06 0.28626676D+06 0.28626676D+06 0.10860607D+01  1  2 15  4  6  5       -3 -.979779099423D-04 0.100000000000D+01
0.105963928289D-02 0.000000000000D+00 0.000000000000D+00 0.884132749371D-06 0.000000000000D+00  6 2 -3 25 2 -3 21 2 0.32547081D+00 0.33402511D-01 0.28554957D+06 0.28554957D+06 0.28554957D+06 0.10861416D+01  1  2 12  4  6  5       -3 0.557548909049D-02 0.100000000000D+01
-.184389767834D-02 0.000000000000D+00 0.000000000000D+00 0.884132749371D-06 0.000000000000D+00  6 2 -3 25 2 -3 21 2 0.32547081D+00 0.33402511D-01 0.28626676D+06 0.28626676D+06 0.28626676D+06 0.10860607D+01  1  2  4  4  6  5       -3 -.969958376472D-02 0.100000000000D+01
-.105790756848D-02 0.000000000000D+00 0.000000000000D+00 0.884132749371D-06 0.000000000000D+00  6 2 -3 25 2 -3 21 2 0.32547081D+00 0.33402511D-01 0.28626676D+06 0.28626676D+06 0.28626676D+06 0.10860607D+01  1  2  5  4  6  5       -3 -.556498508371D-02 0.100000000000D+01
0.151734802034D-02 0.000000000000D+00 -.000000000000D+00 0.884132749371D-06 0.000000000000D+00  6 2 -3 25 2 -3 21 2 0.32547081D+00 0.33402511D-01 0.28626676D+06 0.28626676D+06 0.28626676D+06 0.10860607D+01  1  2  6  4  6  5       -3 0.798181178732D-02 0.100000000000D+01
  </mgrwgt>
  </event>
  <event>
  5     66 0.21964403E-05 0.18491975E+03 0.75467711E-02 0.91602192E-01
        2 -1    0    0  502    0 0.00000000E+00 0.00000000E+00 0.37992782E+04 0.37992782E+04 0.32000000E+00 0.0000E+00 0.9000E+01
       -3 -1    0    0    0  501 0.00000000E+00 0.00000000E+00 -.35166650E+03 0.35166685E+03 0.50000000E+00 0.0000E+00 0.9000E+01
       25  1    1    2    0    0 -.49654365E+03 0.26163655E+03 0.22767599E+04 0.23482482E+04 0.12500000E+03 0.0000E+00 0.9000E+01
        2  1    1    2  502    0 -.16424518E+02 -.18427850E+03 0.12624235E+04 0.12759082E+04 0.32000000E+00 0.0000E+00 0.9000E+01
       -3  1    1    2    0  501 0.51296817E+03 -.77358051E+02 -.91571759E+02 0.52678862E+03 0.50000000E+00 0.0000E+00 0.9000E+01
#aMCatNLO 1  0  0  1  5 0.45219073D+02 0.00000000D+00  -5  6  0 0.00000000D+00 0.00000000D+00 0.00000000D+00 0.00000000D+00 0.00000000D+00
  <mgrwgt>
 0.7887463707D-03    7    2    0
 0.115588909854998D+04 0.000000000000000D+00 0.000000000000000D+00 0.115588909854998D+04
 0.115588909854998D+04 0.000000000000000D+00 0.000000000000000D+00 -.115588909854998D+04
 0.821196980204331D+03 -.496618970849303D+03 0.261567690970589D+03 0.586252011620947D+03
 0.408094011689139D+03 -.164165934809336D+02 -.184189596806951D+03 0.363793087156848D+03
 0.108248720520649D+04 0.513035564330236D+03 -.773780941636380D+02 -.950045098777795D+03
 0.000000000000000D+00 0.000000000000000D+00 -.000000000000000D+00 0.000000000000000D+00
 0.118007634520911D+04 0.000000000000000D+00 0.000000000000000D+00 0.118007634520911D+04
 0.117743992308311D+04 0.000000000000000D+00 0.000000000000000D+00 -.117743992308311D+04
 0.831868312270656D+03 -.508147830199034D+03 0.272899707758064D+03 0.586252011620947D+03
 0.405875544277968D+03 -.220934052611010D+02 -.178609710328962D+03 0.363793087156848D+03
 0.107447654756021D+04 0.497992400674623D+03 -.625917759416081D+02 -.950045098777795D+03
 0.452958641833879D+02 0.322488347855117D+02 -.316982214874936D+02 0.263642212600587D+01
0.897154937311D-03 0.000000000000D+00 0.000000000000D+00 0.258463460323D-06 0.000000000000D+00  6 2 -3 25 2 -3 21 0 0.58450436D+00 0.54102567D-01 0.40883206D+06 0.40883206D+06 0.40883206D+06 0.10747445D+01  1  2  2  1  6  1        2 0.122733791533D-03 0.100000000000D+01
0.530756403052D-04 0.000000000000D+00 -.344531118559D-05 0.258463460323D-06 0.000000000000D+00  6 2 -3 25 2 -3 21 2 0.58450436D+00 0.54102567D-01 0.40883206D+06 0.40883206D+06 0.40883206D+06 0.10747445D+01  1  2  3  1  6  1        2 0.838691859129D-05 0.100000000000D+01
-.564133946601D-03 0.000000000000D+00 0.000000000000D+00 0.258463460323D-06 0.000000000000D+00  6 2 -3 25 2 -3 21 2 0.58450436D+00 0.54102567D-01 0.40883206D+06 0.40883206D+06 0.40883206D+06 0.10747445D+01  1  2 15  1  6  1        2 -.891434461745D-04 0.100000000000D+01
-.361690306775D-04 0.000000000000D+00 0.000000000000D+00 0.258463460323D-06 0.000000000000D+00  6 2 -3 25 2 -3 21 2 0.58450436D+00 0.54102567D-01 0.40883206D+06 0.40883206D+06 0.40883206D+06 0.10747445D+01  1  2  4  1  6  1        2 -.571536610908D-05 0.100000000000D+01
-.286200538708D-01 0.000000000000D+00 -.437735623109D-02 0.258463460323D-06 0.000000000000D+00  6 2 -3 25 2 -3 21 2 0.59946985D+00 0.54102567D-01 0.40883206D+06 0.40883206D+06 0.40883206D+06 0.10747445D+01  1  2  5  1  6  1        2 -.379170472209D-02 0.100000000000D+01
0.287596719747D-01 0.000000000000D+00 0.442463440259D-02 0.258463460323D-06 0.000000000000D+00  6 2 -3 25 2 -3 21 2 0.58450436D+00 0.54102567D-01 0.40883206D+06 0.40883206D+06 0.40883206D+06 0.10747445D+01  1  2  6  1  6  1        2 0.454455238179D-02 0.100000000000D+01
-.129649373228D-03 0.000000000000D+00 -.199849483842D-04 0.258463460323D-06 0.000000000000D+00  6 21 -3 25 2 -3 -2 2 0.59946985D+00 0.54102567D-01 0.40883206D+06 0.40883206D+06 0.40883206D+06 0.10747445D+01  1  2  5  5  6  1        2 -.363186870316D-06 0.100000000000D+01
  </mgrwgt>
  </event>
  <event>
  5     66 0.21964403E-05 0.90813607E+02 0.75467711E-02 0.93130947E-01
        2 -1    0    0  502    0 0.00000000E+00 0.00000000E+00 0.54936038E+03 0.54936047E+03 0.32000000E+00 0.0000E+00 0.9000E+01
       -3 -1    0    0    0  501 -.00000000E+00 -.00000000E+00 -.10967639E+04 0.10967641E+04 0.50000000E+00 0.0000E+00 0.9000E+01
       25  1    1    2    0    0 0.39816617E+03 0.28441687E+03 -.52482874E+03 0.72835394E+03 0.12500000E+03 0.0000E+00 0.9000E+01
        2  1    1    2  502    0 0.85586744E+02 0.30464420E+02 0.25977792E+03 0.27520509E+03 0.32000000E+00 0.0000E+00 0.9000E+01
       -3  1    1    2    0  501 -.48375292E+03 -.31488129E+03 -.28235274E+03 0.64256551E+03 0.50000000E+00 0.0000E+00 0.9000E+01
#aMCatNLO 1  0  0  5  2 0.14718917D+03 0.00000000D+00  -5  6  0 0.00000000D+00 0.00000000D+00 0.00000000D+00 0.00000000D+00 0.00000000D+00
  <mgrwgt>
 0.5820808132D-03    6    2    0
 0.776220863737463D+03 0.000000000000000D+00 0.000000000000000D+00 0.776220863737463D+03
 0.776220863737463D+03 -.000000000000000D+00 -.000000000000000D+00 -.776220863737463D+03
 0.587329232271575D+03 0.398256801029820D+03 0.284475411166797D+03 -.299659620162098D+03
 0.383271334299152D+03 0.855553148061604D+02 0.304532324792517D+02 0.372357092634793D+03
 0.581841160904200D+03 -.483812115835981D+03 -.314928643646049D+03 -.726974724726942D+02
 0.000000000000000D+00 0.000000000000000D+00 -.000000000000000D+00 0.000000000000000D+00
 0.776220863737463D+03 0.000000000000000D+00 0.000000000000000D+00 0.776220863737463D+03
 0.776220863737463D+03 -.000000000000000D+00 -.000000000000000D+00 -.776220863737463D+03
 0.564230299914914D+03 0.372675402449179D+03 0.267823667868369D+03 -.303503473919080D+03
 0.376646017769488D+03 0.686740784234413D+02 0.194647005614599D+02 0.369820522803098D+03
 0.240225126069100D+03 -.224924537887628D+03 0.139905746055122D+02 -.831945146819159D+02
 0.371340283721425D+03 -.216424942984992D+03 -.301278943035341D+03 0.168774657978974D+02
0.127011443542D-02 0.000000000000D+00 0.000000000000D+00 0.113607931702D-06 0.000000000000D+00  6 2 -3 25 2 -3 21 0 0.84516998D-01 0.16873293D+00 0.34411642D+06 0.34411642D+06 0.34411642D+06 0.10801709D+01  1  2  2  4  6  5       -3 0.911158693906D-03 0.100000000000D+01
0.233532802788D-03 0.000000000000D+00 -.487757386084D-05 0.113607931702D-06 0.000000000000D+00  6 2 -3 25 2 -3 21 2 0.84516998D-01 0.16873293D+00 0.34411642D+06 0.34411642D+06 0.34411642D+06 0.10801709D+01  1  2  3  4  6  5       -3 0.195471755833D-03 0.100000000000D+01
-.789921330866D-03 0.000000000000D+00 0.000000000000D+00 0.113607931702D-06 0.000000000000D+00  6 2 -3 25 2 -3 21 2 0.84516998D-01 0.16873293D+00 0.34411642D+06 0.34411642D+06 0.34411642D+06 0.10801709D+01  1  2 15  4  6  5       -3 -.661180389524D-03 0.100000000000D+01
-.280230737566D-03 0.000000000000D+00 0.000000000000D+00 0.113607931702D-06 0.000000000000D+00  6 2 -3 25 2 -3 21 2 0.84516998D-01 0.16873293D+00 0.34411642D+06 0.34411642D+06 0.34411642D+06 0.10801709D+01  1  2  4  4  6  5       -3 -.234558887044D-03 0.100000000000D+01
-.577036566847D-03 0.000000000000D+00 0.000000000000D+00 0.113607931702D-06 0.000000000000D+00  6 2 -3 25 2 -3 21 2 0.84516998D-01 0.16873293D+00 0.34411642D+06 0.34411642D+06 0.34411642D+06 0.10801709D+01  1  2  5  4  6  5       -3 -.482991466529D-03 0.100000000000D+01
0.102050194947D-02 0.000000000000D+00 -.000000000000D+00 0.113607931702D-06 0.000000000000D+00  6 2 -3 25 2 -3 21 2 0.84516998D-01 0.16873293D+00 0.34411642D+06 0.34411642D+06 0.34411642D+06 0.10801709D+01  1  2  6  4  6  5       -3 0.854181106514D-03 0.100000000000D+01
  </mgrwgt>
  </event>
  <event>
  5     66 0.21964403E-05 0.16821904E+02 0.75467711E-02 0.95467611E-01
        2 -1    0    0  502    0 0.00000000E+00 0.00000000E+00 0.17737407E+04 0.17737407E+04 0.32000000E+00 0.0000E+00 0.9000E+01
       -3 -1    0    0    0  501 0.00000000E+00 0.00000000E+00 -.47948928E+03 0.47948954E+03 0.50000000E+00 0.0000E+00 0.9000E+01
       25  1    1    2    0    0 0.30985088E+02 0.45483681E+03 0.68965249E+03 0.83611133E+03 0.12500000E+03 0.0000E+00 0.9000E+01
        2  1    1    2  502    0 -.30975128E+02 -.43801737E+03 0.96296534E+03 0.10583577E+04 0.32000000E+00 0.0000E+00 0.9000E+01
       -3  1    1    2    0  501 -.99595853E-02 -.16819442E+02 -.35836641E+03 0.35876124E+03 0.50000000E+00 0.0000E+00 0.9000E+01
#aMCatNLO 1  0  0  1  2 0.91876519D+00 0.00000000D+00  -5  6  0 0.00000000D+00 0.00000000D+00 0.00000000D+00 0.00000000D+00 0.00000000D+00
  <mgrwgt>
 0.1726240904D-02   10    2    0
 0.922220135126066D+03 0.000000000000000D+00 0.000000000000000D+00 0.922220135126066D+03
 0.922220135126066D+03 0.000000000000000D+00 0.000000000000000D+00 -.922220135126066D+03
 0.537502688245339D+03 0.309809836505858D+02 0.454781089126879D+03 0.255926707272956D+03
 0.617126506712670D+03 -.309710135653036D+02 -.437959188254870D+03 0.433679225959991D+03
 0.689811075294123D+03 -.997008528216625D-02 -.168219008720093D+02 -.689605933232947D+03
 0.000000000000000D+00 0.000000000000000D+00 -.000000000000000D+00 0.000000000000000D+00
 0.923709525293797D+03 0.000000000000000D+00 0.000000000000000D+00 0.923709525293797D+03
 0.922361950882141D+03 0.000000000000000D+00 0.000000000000000D+00 -.922361950882141D+03
 0.537728248800025D+03 0.309676955878852D+02 0.455048559927333D+03 0.255926707272956D+03
 0.616909458279331D+03 -.309862641935293D+02 -.437652213654369D+03 0.433679225959991D+03
 0.689802792003562D+03 -.270198138006706D-01 -.164787128063666D+02 -.689605933232947D+03
 0.163097709302045D+01 0.455884194448470D-01 -.917633466597804D+00 0.134757441165586D+01
0.130918060274D-03 0.000000000000D+00 0.000000000000D+00 0.202582612206D-04 0.000000000000D+00  6 2 -3 25 2 -3 21 0 0.27288321D+00 0.73767604D-01 0.21554579D+06 0.21554579D+06 0.21554579D+06 0.10953373D+01  1  2  2  1  6  1        2 0.171317668463D-03 0.100000000000D+01
0.114706257355D-03 0.000000000000D+00 -.502759822969D-06 0.202582612206D-04 0.000000000000D+00  6 2 -3 25 2 -3 21 2 0.27288321D+00 0.73767604D-01 0.21554579D+06 0.21554579D+06 0.21554579D+06 0.10953373D+01  1  2  3  1  6  1        2 0.180088270031D-03 0.100000000000D+01
-.841310928392D-04 0.000000000000D+00 0.000000000000D+00 0.202582612206D-04 0.000000000000D+00  6 2 -3 25 2 -3 21 2 0.27288321D+00 0.73767604D-01 0.21554579D+06 0.21554579D+06 0.21554579D+06 0.10953373D+01  1  2 15  1  6  1        2 -.132085409415D-03 0.100000000000D+01
-.306701504844D-01 0.000000000000D+00 0.000000000000D+00 0.202582612206D-04 0.000000000000D+00  6 2 -3 25 2 -3 21 2 0.27288321D+00 0.73767604D-01 0.21554579D+06 0.21554579D+06 0.21554579D+06 0.10953373D+01  1  2  4  1  6  1        2 -.481519881276D-01 0.100000000000D+01
-.274647166356D+00 0.000000000000D+00 -.166790569677D-01 0.202582612206D-04 0.000000000000D+00  6 2 -3 25 2 -3 21 2 0.27334040D+00 0.73767604D-01 0.21554579D+06 0.21554579D+06 0.21554579D+06 0.10953373D+01  1  2  5  1  6  1        2 -.429600884216D+00 0.100000000000D+01
0.274674725840D+00 0.000000000000D+00 0.166790335977D-01 0.202582612206D-04 0.000000000000D+00  6 2 -3 25 2 -3 21 2 0.27288321D+00 0.73767604D-01 0.21554579D+06 0.21554579D+06 0.21554579D+06 0.10953373D+01  1  2  6  1  6  1        2 0.431237992925D+00 0.100000000000D+01
0.307253697583D-01 0.000000000000D+00 0.000000000000D+00 0.202582612206D-04 0.194973293396D-02  6 2 -3 25 2 -3 21 2 0.27332391D+00 0.73778948D-01 0.21579050D+06 0.21579050D+06 0.21579050D+06 0.10952997D+01  1  2 11  1  6  1        2 0.480436529907D-01 0.100000000000D+01
0.142955928783D-09 0.000000000000D+00 0.000000000000D+00 0.202582612206D-04 0.000000000000D+00  6 21 -3 25 2 -3 -2 2 0.27353484D+00 0.73767604D-01 0.21579050D+06 0.21579050D+06 0.21579050D+06 0.10952997D+01  1  2 12  5  6  1        2 0.574322664141D-10 0.100000000000D+01
-.859720562159D-04 0.000000000000D+00 -.522206208714D-05 0.202582612206D-04 0.000000000000D+00  6 21 -3 25 2 -3 -2 2 0.27334040D+00 0.73767604D-01 0.21554579D+06 0.21554579D+06 0.21554579D+06 0.10953373D+01  1  2  5  5  6  1        2 -.346487583391D-04 0.100000000000D+01
0.317578164426D-04 0.000000000000D+00 0.000000000000D+00 0.202582612206D-04 0.464487791038D-07  6 21 -3 25 2 -3 -2 2 0.27332391D+00 0.73778948D-01 0.21579050D+06 0.21579050D+06 0.21579050D+06 0.10952997D+01  1  2 11  5  6  1        2 0.127955031050D-04 0.100000000000D+01
  </mgrwgt>
  </event>
  <event>
  5     66 0.21964403E-05 0.50398399E+02 0.75467711E-02 0.92831723E-01
        2 -1    0    0  502    0 0.00000000E+00 0.00000000E+00 0.23166745E+04 0.23166746E+04 0.32000000E+00 0.0000E+00 0.9000E+01
       -3 -1    0    0    0  501 0.00000000E+00 0.00000000E+00 -.55242297E+03 0.55242320E+03 0.50000000E+00 0.0000E+00 0.9000E+01
       25  1    1    2    0    0 -.52776107E+03 0.20717711E+03 0.31539275E+03 0.66072058E+03 0.12500000E+03 0.0000E+00 0.9000E+01
        2  1    1    2  502    0 0.51855700E+03 -.15762983E+03 0.17865470E+04 0.18669490E+04 0.32000000E+00 0.0000E+00 0.9000E+01
       -3  1    1    2    0  501 0.92040639E+01 -.49547279E+02 -.33768815E+03 0.34142815E+03 0.50000000E+00 0.0000E+00 0.9000E+01
#aMCatNLO 1  0  0  1  4 0.21491258D+01 0.00000000D+00  -5  6  0 0.00000000D+00 0.00000000D+00 0.00000000D+00 0.00000000D+00 0.00000000D+00
  <mgrwgt>
 0.1629679842D-02   11    2    0
 0.113127565258149D+04 0.000000000000000D+00 0.000000000000000D+00 0.113127565258149D+04
 0.113127565258149D+04 0.000000000000000D+00 0.000000000000000D+00 -.113127565258149D+04
 0.591896658543984D+03 -.527751588468300D+03 0.207177301096565D+03 -.115206254930290D+03
 0.974341021403607D+03 0.518546569073865D+03 -.157626657946996D+03 0.809693595377911D+03
 0.696313625215389D+03 0.920501939443466D+01 -.495506431495693D+02 -.694487340447621D+03
 0.000000000000000D+00 -.000000000000000D+00 -.000000000000000D+00 0.000000000000000D+00
 0.136197383918467D+04 0.000000000000000D+00 0.000000000000000D+00 0.136197383918467D+04
 0.113128116811670D+04 0.000000000000000D+00 0.000000000000000D+00 -.113128116811670D+04
 0.591629466792290D+03 -.527313456482556D+03 0.207529427827201D+03 -.115206254930290D+03
 0.974631589431516D+03 0.519268063278231D+03 -.157046792966527D+03 0.809693595377911D+03
 0.696291269632178D+03 0.972055068256980D+01 -.491363105901161D+02 -.694487340447621D+03
 0.230702681445392D+03 -.167515747824479D+01 -.134632427055773D+01 0.230692671067972D+03
0.106519427509D-04 0.000000000000D+00 0.000000000000D+00 0.211000221261D-04 0.000000000000D+00  6 2 -3 25 2 -3 21 0 0.35641149D+00 0.84988169D-01 0.34395281D+06 0.34395281D+06 0.34395281D+06 0.10801860D+01  1  2  2  1  6  1        2 0.486378396850D-05 0.100000000000D+01
0.474439582561D-05 0.000000000000D+00 -.409062648842D-07 0.211000221261D-04 0.000000000000D+00  6 2 -3 25 2 -3 21 2 0.35641149D+00 0.84988169D-01 0.34395281D+06 0.34395281D+06 0.34395281D+06 0.10801860D+01  1  2  3  1  6  1        2 0.252768793051D-05 0.100000000000D+01
-.709699560547D-05 0.000000000000D+00 0.000000000000D+00 0.211000221261D-04 0.000000000000D+00  6 2 -3 25 2 -3 21 2 0.35641149D+00 0.84988169D-01 0.34395281D+06 0.34395281D+06 0.34395281D+06 0.10801860D+01  1  2 15  1  6  1        2 -.378109053170D-05 0.100000000000D+01
0.448821928751D-03 0.000000000000D+00 0.000000000000D+00 0.211000221261D-04 0.000000000000D+00  6 2 -3 25 2 -3 21 2 0.42910643D+00 0.84988169D-01 0.34517911D+06 0.34517911D+06 0.34517911D+06 0.10800731D+01  1  2 12  1  6  1        2 0.126356956549D-03 0.100000000000D+01
-.222770320784D+00 0.000000000000D+00 0.000000000000D+00 0.211000221261D-04 0.000000000000D+00  6 2 -3 25 2 -3 21 2 0.35641149D+00 0.84988169D-01 0.34395281D+06 0.34395281D+06 0.34395281D+06 0.10801860D+01  1  2  4  1  6  1        2 -.118686102893D+00 0.100000000000D+01
-.230990960221D+00 0.000000000000D+00 -.120658701449D-04 0.211000221261D-04 0.000000000000D+00  6 2 -3 25 2 -3 21 2 0.42909412D+00 0.84988169D-01 0.34395281D+06 0.34395281D+06 0.34395281D+06 0.10801860D+01  1  2  5  1  6  1        2 -.650688569596D-01 0.100000000000D+01
0.227071564670D+00 0.000000000000D+00 0.118610140415D-04 0.211000221261D-04 0.000000000000D+00  6 2 -3 25 2 -3 21 2 0.35641149D+00 0.84988169D-01 0.34395281D+06 0.34395281D+06 0.34395281D+06 0.10801860D+01  1  2  6  1  6  1        2 0.120977691254D+00 0.100000000000D+01
0.228285028959D+00 0.000000000000D+00 0.000000000000D+00 0.211000221261D-04 0.286319128507D-04  6 2 -3 25 2 -3 21 2 0.42909358D+00 0.84988583D-01 0.34517911D+06 0.34517911D+06 0.34517911D+06 0.10800731D+01  1  2 11  1  6  1        2 0.642759008278D-01 0.100000000000D+01
0.121232171738D-04 0.000000000000D+00 0.000000000000D+00 0.211000221261D-04 0.000000000000D+00  6 21 -3 25 2 -3 -2 2 0.42910643D+00 0.84988169D-01 0.34517911D+06 0.34517911D+06 0.34517911D+06 0.10800731D+01  1  2 12  5  6  1        2 0.288836534858D-06 0.100000000000D+01
-.623912558591D-02 0.000000000000D+00 -.325908650771D-06 0.211000221261D-04 0.000000000000D+00  6 21 -3 25 2 -3 -2 2 0.42909412D+00 0.84988169D-01 0.34395281D+06 0.34395281D+06 0.34395281D+06 0.10801860D+01  1  2  5  5  6  1        2 -.148776360392D-03 0.100000000000D+01
0.627650253234D-02 0.000000000000D+00 0.000000000000D+00 0.211000221261D-04 0.787204932027D-06  6 21 -3 25 2 -3 -2 2 0.42909358D+00 0.84988583D-01 0.34517911D+06 0.34517911D+06 0.34517911D+06 0.10800731D+01  1  2 11  5  6  1        2 0.149567797801D-03 0.100000000000D+01
  </mgrwgt>
  </event>
  <event>
  5     66 0.21964403E-05 0.22710082E+03 0.75467711E-02 0.93263903E-01
        2 -1    0    0  502    0 0.00000000E+00 0.00000000E+00 0.28080726E+04 0.28080726E+04 0.32000000E+00 0.0000E+00 0.9000E+01
       -3 -1    0    0    0  501 0.00000000E+00 0.00000000E+00 -.74029696E+03 0.74029713E+03 0.50000000E+00 0.0000E+00 0.9000E+01
       25  1    1    2    0    0 0.38681764E+03 0.31296264E+03 0.96692662E+03 0.10945984E+04 0.12500000E+03 0.0000E+00 0.9000E+01
        2  1    1    2  502    0 -.37992002E+03 -.85989096E+02 0.17360432E+04 0.17792075E+04 0.32000000E+00 0.0000E+00 0.9000E+01
       -3  1    1    2    0  501 -.68976165E+01 -.22697355E+03 -.63519414E+03 0.67456387E+03 0.50000000E+00 0.0000E+00 0.9000E+01
#aMCatNLO 1  0  0  1  4 0.10281931D+02 0.00000000D+00  -5  6  0 0.00000000D+00 0.00000000D+00 0.00000000D+00 0.00000000D+00 0.00000000D+00
  <mgrwgt>
 0.6664210414D-03    7    2    0
 0.144180717991465D+04 0.000000000000000D+00 0.000000000000000D+00 0.144180717991465D+04
 0.144180717991465D+04 0.000000000000000D+00 0.000000000000000D+00 -.144180717991465D+04
 0.653632447136401D+03 0.386781253856367D+03 0.312976361483747D+03 0.405038806495392D+03
 0.944391941656274D+03 -.379881525496285D+03 -.859803820934777D+02 0.860333388836550D+03
 0.128558997103663D+04 -.689972836008201D+01 -.226995979390269D+03 -.126537219533194D+04
 0.000000000000000D+00 0.000000000000000D+00 0.000000000000000D+00 0.000000000000000D+00
 0.185552309222244D+04 0.000000000000000D+00 0.000000000000000D+00 0.185552309222244D+04
 0.167611406556436D+04 0.000000000000000D+00 0.000000000000000D+00 -.167611406556436D+04
 0.577850565117906D+03 0.334792865188509D+03 0.205289011539198D+03 0.405038806495392D+03
 0.100993036743870D+04 -.462385357685984D+03 -.256876600969203D+03 0.860333388836550D+03
 0.135072948970812D+04 -.118194808693299D+03 -.457529615266538D+03 -.126537219533194D+04
 0.593126735522067D+03 0.245787301190774D+03 0.509117204696543D+03 0.179409026658075D+03
0.474125953102D-02 0.000000000000D+00 0.000000000000D+00 0.512560982259D-05 0.000000000000D+00  6 2 -3 25 2 -3 21 0 0.43201119D+00 0.11389185D+00 0.31899943D+06 0.31899943D+06 0.31899943D+06 0.10825843D+01  1  2  2  1  6  1        2 0.523539615883D-03 0.100000000000D+01
0.517664112481D-03 0.000000000000D+00 -.182076850014D-04 0.512560982259D-05 0.000000000000D+00  6 2 -3 25 2 -3 21 2 0.43201119D+00 0.11389185D+00 0.31899943D+06 0.31899943D+06 0.31899943D+06 0.10825843D+01  1  2  3  1  6  1        2 0.669926764507D-04 0.100000000000D+01
-.317990113843D-02 0.000000000000D+00 0.000000000000D+00 0.512560982259D-05 0.000000000000D+00  6 2 -3 25 2 -3 21 2 0.43201119D+00 0.11389185D+00 0.31899943D+06 0.31899943D+06 0.31899943D+06 0.10825843D+01  1  2 15  1  6  1        2 -.411521840081D-03 0.100000000000D+01
-.127890025224D-03 0.000000000000D+00 0.000000000000D+00 0.512560982259D-05 0.000000000000D+00  6 2 -3 25 2 -3 21 2 0.43201119D+00 0.11389185D+00 0.31899943D+06 0.31899943D+06 0.31899943D+06 0.10825843D+01  1  2  4  1  6  1        2 -.165506838789D-04 0.100000000000D+01
-.390698451266D-02 0.000000000000D+00 -.326077778565D-02 0.512560982259D-05 0.000000000000D+00  6 2 -3 25 2 -3 21 2 0.57781758D+00 0.11389185D+00 0.31899943D+06 0.31899943D+06 0.31899943D+06 0.10825843D+01  1  2  5  1  6  1        2 -.115182365451D-03 0.100000000000D+01
0.478467692471D-02 0.000000000000D+00 0.312759505931D-02 0.512560982259D-05 0.000000000000D+00  6 2 -3 25 2 -3 21 2 0.43201119D+00 0.11389185D+00 0.31899943D+06 0.31899943D+06 0.31899943D+06 0.10825843D+01  1  2  6  1  6  1        2 0.619201341971D-03 0.100000000000D+01
-.780153345898D-04 0.000000000000D+00 -.123240110450D-03 0.512560982259D-05 0.000000000000D+00  6 21 -3 25 2 -3 -2 2 0.57781758D+00 0.11389185D+00 0.31899943D+06 0.31899943D+06 0.31899943D+06 0.10825843D+01  1  2  5  5  6  1        2 -.577035121025D-07 0.100000000000D+01
  </mgrwgt>
  </event>
  <event>
  5     66 0.21964403E-05 0.34158176E+02 0.75467711E-02 0.91645019E-01
        2 -1    0    0  502    0 0.00000000E+00 0.00000000E+00 0.27576191E+04 0.27576191E+04 0.32000000E+00 0.0000E+00 0.9000E+01
       -3 -1    0    0    0  501 0.00000000E+00 0.00000000E+00 -.11620919E+04 0.11620920E+04 0.50000000E+00 0.0000E+00 0.9000E+01
       25  1    1    2    0    0 -.28207320E+03 -.38939137E+03 0.84912009E+03 0.98377887E+03 0.12500000E+03 0.0000E+00 0.9000E+01
        2  1    1    2  502    0 0.27821176E+03 0.35545491E+03 0.18132264E+04 0.18685663E+04 0.32000000E+00 0.0000E+00 0.9000E+01
       -3  1    1    2    0  501 0.38614394E+01 0.33936461E+02 -.10668192E+04 0.10673659E+04 0.50000000E+00 0.0000E+00 0.9000E+01
#aMCatNLO 1  0  0  1  5 0.16266840D+03 0.00000000D+00  -5  6  0 0.00000000D+00 0.00000000D+00 0.00000000D+00 0.00000000D+00 0.00000000D+00
  <mgrwgt>
 0.5232944172D-02    7    2    0
 0.179014160457162D+04 0.000000000000000D+00 0.000000000000000D+00 0.179014160457162D+04
 0.179014160457162D+04 0.000000000000000D+00 0.000000000000000D+00 -.179014160457162D+04
 0.698698705821295D+03 -.282054117973386D+03 -.389369283101562D+03 0.491316514507280D+03
 0.123757766495233D+04 0.278192344140082D+03 0.355430107001395D+03 0.115233542663918D+04
 0.164400683836960D+04 0.386177383330408D+01 0.339391761001674D+02 -.164365194114646D+04
 0.000000000000000D+00 0.000000000000000D+00 0.000000000000000D+00 0.000000000000000D+00
 0.220467322732864D+04 0.000000000000000D+00 0.000000000000000D+00 0.220467322732864D+04
 0.184883008569809D+04 0.000000000000000D+00 0.000000000000000D+00 -.184883008569809D+04
 0.734748262240095D+03 -.286886385498349D+03 -.447810555093276D+03 0.491316514507280D+03
 0.121081793405622D+04 0.269938601375288D+03 0.255609634857602D+03 0.115233542663918D+04
 0.164672057097419D+04 -.723153868399450D+01 -.100222951878755D+03 -.164365194114646D+04
 0.461216545756228D+03 0.241793228070560D+02 0.292423872114429D+03 0.355843141630555D+03
0.599951742231D-01 0.000000000000D+00 0.000000000000D+00 0.416676041971D-03 0.000000000000D+00  6 2 -3 25 2 -3 21 0 0.42424911D+00 0.17878337D+00 0.24122389D+06 0.24122389D+06 0.24122389D+06 0.10916286D+01  1  2  2  1  6  1        2 0.168387031990D-02 0.100000000000D+01
0.395264795733D-01 0.000000000000D+00 -.230397266109D-03 0.416676041971D-03 0.000000000000D+00  6 2 -3 25 2 -3 21 2 0.42424911D+00 0.17878337D+00 0.24122389D+06 0.24122389D+06 0.24122389D+06 0.10916286D+01  1  2  3  1  6  1        2 0.132199632248D-02 0.100000000000D+01
-.430535268394D-01 0.000000000000D+00 0.000000000000D+00 0.416676041971D-03 0.000000000000D+00  6 2 -3 25 2 -3 21 2 0.42424911D+00 0.17878337D+00 0.24122389D+06 0.24122389D+06 0.24122389D+06 0.10916286D+01  1  2 15  1  6  1        2 -.143996138199D-02 0.100000000000D+01
-.159210213090D-01 0.000000000000D+00 0.000000000000D+00 0.416676041971D-03 0.000000000000D+00  6 2 -3 25 2 -3 21 2 0.42424911D+00 0.17878337D+00 0.24122389D+06 0.24122389D+06 0.24122389D+06 0.10916286D+01  1  2  4  1  6  1        2 -.532491935731D-03 0.100000000000D+01
-.187405616101D+00 0.000000000000D+00 -.533700741483D-01 0.416676041971D-03 0.000000000000D+00  6 2 -3 25 2 -3 21 2 0.52643665D+00 0.17878337D+00 0.24122389D+06 0.24122389D+06 0.24122389D+06 0.10916286D+01  1  2  5  1  6  1        2 -.233902875197D-02 0.100000000000D+01
0.195570622126D+00 0.000000000000D+00 0.521509139508D-01 0.416676041971D-03 0.000000000000D+00  6 2 -3 25 2 -3 21 2 0.42424911D+00 0.17878337D+00 0.24122389D+06 0.24122389D+06 0.24122389D+06 0.10916286D+01  1  2  6  1  6  1        2 0.654102379030D-02 0.100000000000D+01
-.498295300508D-02 0.000000000000D+00 -.161838718032D-02 0.416676041971D-03 0.000000000000D+00  6 21 -3 25 2 -3 -2 2 0.52643665D+00 0.17878337D+00 0.24122389D+06 0.24122389D+06 0.24122389D+06 0.10916286D+01  1  2  5  5  6  1        2 -.246419075674D-05 0.100000000000D+01
  </mgrwgt>
  </event>
  <event>
  6     66 0.21964403E-05 0.22662388E+02 0.75467711E-02 0.88863297E-01
        2 -1    0    0  502    0 0.00000000E+00 0.00000000E+00 0.29829329E+04 0.29829329E+04 0.32000000E+00 0.0000E+00 0.9000E+01
       -3 -1    0    0    0  501 0.00000000E+00 0.00000000E+00 -.26892045E+03 0.26892092E+03 0.50000000E+00 0.0000E+00 0.9000E+01
       25  1    1    2    0    0 -.79995030E+03 -.28689800E+03 0.16906690E+04 0.18963696E+04 0.12500000E+03 0.0000E+00 0.9000E+01
        2  1    1    2  503    0 0.41133582E+01 0.10949245E+02 0.10096989E+03 0.10164560E+03 0.32000000E+00 0.0000E+00 0.9000E+01
       -3  1    1    2    0  501 0.75988108E+03 0.23919084E+03 0.84891291E+03 0.11641670E+04 0.50000000E+00 0.0000E+00 0.9000E+01
       21  1    1    2  502  503 0.35955862E+02 0.36757907E+02 0.73460620E+02 0.89671584E+02 0.75000000E+00 0.0000E+00 0.9000E+01
#aMCatNLO 2  0  0  4  1 0.22383095D+02 0.00000000D+00  -5  6  0 0.00000000D+00 0.00000000D+00 0.00000000D+00 0.00000000D+00 0.00000000D+00
  <mgrwgt>
 0.4851730878D-03    3    2    0
 0.895640802073751D+03 0.000000000000000D+00 0.000000000000000D+00 0.895640802073751D+03
 0.895640802073751D+03 -.000000000000000D+00 -.000000000000000D+00 -.895640802073751D+03
 0.886330743931150D+03 -.804500231864158D+03 -.291914609075746D+03 0.193707061245106D+03
 0.814200365002483D+02 0.481065867716682D+02 0.572765880708986D+02 0.321616403785367D+02
 0.823530823716104D+03 0.756393645092490D+03 0.234638021004848D+03 -.225868701623643D+03
 0.000000000000000D+00 0.000000000000000D+00 0.000000000000000D+00 0.000000000000000D+00
 0.895640802073751D+03 0.000000000000000D+00 0.000000000000000D+00 0.895640802073751D+03
 0.895640802073751D+03 -.000000000000000D+00 -.000000000000000D+00 -.895640802073751D+03
 0.881321525851733D+03 -.800144034637275D+03 -.286728040440062D+03 0.196619395252380D+03
 0.305418363458028D+02 0.375930516553376D+01 0.103943876156888D+02 0.284715313627667D+02
 0.827920322354780D+03 0.760463476600545D+03 0.239483637342403D+03 -.223147817309307D+03
 0.514979195951872D+02 0.359212528711969D+02 0.368500154819703D+02 -.194310930583983D+01
-.530347883123D-05 0.000000000000D+00 0.000000000000D+00 0.118545470647D-08 0.000000000000D+00  6 2 -3 25 2 -3 21 2 0.45891279D+00 0.41372414D-01 0.73865837D+06 0.73865837D+06 0.73865837D+06 0.10567351D+01  1  2 13  3  6  4        2 -.506652939420D-05 0.100000000000D+01
-.359913970836D-04 0.000000000000D+00 0.000000000000D+00 0.118545470647D-08 0.000000000000D+00  6 2 -3 25 2 -3 21 2 0.45891279D+00 0.41372414D-01 0.74965656D+06 0.74965656D+06 0.74965656D+06 0.10562969D+01  1  2  8  3  6  4        2 -.343238624095D-04 0.100000000000D+01
0.549096056353D-03 0.000000000000D+00 0.000000000000D+00 0.118545470647D-08 0.234811906960D-09  6 2 -3 25 2 -3 21 2 0.45891279D+00 0.41372414D-01 0.73865837D+06 0.73865837D+06 0.73865837D+06 0.10567351D+01  1  2  1  3  6  4        2 0.524563479612D-03 0.100000000000D+01
  </mgrwgt>
  </event>
  <event>
  5     66 0.21964403E-05 0.78012874E+02 0.75467711E-02 0.92704588E-01
        2 -1    0    0  502    0 0.00000000E+00 0.00000000E+00 0.17428466E+04 0.17428466E+04 0.32000000E+00 0.0000E+00 0.9000E+01
       -3 -1    0    0    0  501 0.00000000E+00 0.00000000E+00 -.40391951E+03 0.40391982E+03 0.50000000E+00 0.0000E+00 0.9000E+01
       25  1    1    2    0    0 -.85030017E+02 0.54975656E+03 0.10204614E+03 0.57922430E+03 0.12500000E+03 0.0000E+00 0.9000E+01
        2  1    1    2  502    0 0.82450953E+02 -.47178477E+03 0.13486909E+04 0.14312045E+04 0.32000000E+00 0.0000E+00 0.9000E+01
       -3  1    1    2    0  501 0.25790635E+01 -.77971786E+02 -.11180993E+03 0.13633768E+03 0.50000000E+00 0.0000E+00 0.9000E+01
#aMCatNLO 1  0  0  5  5 0.62108586D+02 0.00000000D+00  -5  6  0 0.00000000D+00 0.00000000D+00 0.00000000D+00 0.00000000D+00 0.00000000D+00
  <mgrwgt>
 0.1766522007D-02    6    2    0
 0.839029267475629D+03 0.000000000000000D+00 0.000000000000000D+00 0.839029267475629D+03
 0.839029267475629D+03 -.000000000000000D+00 -.000000000000000D+00 -.839029267475629D+03
 0.659594056472851D+03 -.850303331766274D+02 0.549757064787231D+03 -.331626795495646D+03
 0.754841611124213D+03 0.824513136762245D+02 -.471786832524866D+03 0.583442219430353D+03
 0.263622867354193D+03 0.257901950040281D+01 -.779702322623649D+02 -.251815423934707D+03
 0.000000000000000D+00 0.000000000000000D+00 0.000000000000000D+00 -.000000000000000D+00
 0.839029267475629D+03 0.000000000000000D+00 0.000000000000000D+00 0.839029267475629D+03
 0.839029267475629D+03 -.000000000000000D+00 -.000000000000000D+00 -.839029267475629D+03
 0.662823225095168D+03 -.848997941406806D+02 0.545810542106621D+03 -.344372624936575D+03
 0.746579922489724D+03 0.825995226585779D+02 -.476267562032981D+03 0.568971096696922D+03
 0.997643339272869D+02 0.613932129115705D+02 -.357745428171074D+02 -.700284072257590D+02
 0.168891053439078D+03 -.590929414294678D+02 -.337684372565323D+02 -.154570064534588D+03
0.877290999347D-03 0.000000000000D+00 0.000000000000D+00 0.102974626554D-05 0.000000000000D+00  6 2 -3 25 2 -3 21 0 0.26813027D+00 0.62141489D-01 0.31759714D+06 0.31759714D+06 0.31759714D+06 0.10827251D+01  1  2  2  4  6  5       -3 0.172908683449D-02 0.100000000000D+01
0.151950998542D-03 0.000000000000D+00 -.336902843352D-05 0.102974626554D-05 0.000000000000D+00  6 2 -3 25 2 -3 21 2 0.26813027D+00 0.62141489D-01 0.31759714D+06 0.31759714D+06 0.31759714D+06 0.10827251D+01  1  2  3  4  6  5       -3 0.351085663540D-03 0.100000000000D+01
-.559268648049D-03 0.000000000000D+00 0.000000000000D+00 0.102974626554D-05 0.000000000000D+00  6 2 -3 25 2 -3 21 2 0.26813027D+00 0.62141489D-01 0.31759714D+06 0.31759714D+06 0.31759714D+06 0.10827251D+01  1  2 15  4  6  5       -3 -.129220081659D-02 0.100000000000D+01
-.107766985092D-03 0.000000000000D+00 0.000000000000D+00 0.102974626554D-05 0.000000000000D+00  6 2 -3 25 2 -3 21 2 0.26813027D+00 0.62141489D-01 0.31759714D+06 0.31759714D+06 0.31759714D+06 0.10827251D+01  1  2  4  4  6  5       -3 -.248997662613D-03 0.100000000000D+01
-.409164101483D-03 0.000000000000D+00 0.000000000000D+00 0.102974626554D-05 0.000000000000D+00  6 2 -3 25 2 -3 21 2 0.26813027D+00 0.62141489D-01 0.31759714D+06 0.31759714D+06 0.31759714D+06 0.10827251D+01  1  2  5  4  6  5       -3 -.945381415351D-03 0.100000000000D+01
0.940450798583D-03 0.000000000000D+00 -.000000000000D+00 0.102974626554D-05 0.000000000000D+00  6 2 -3 25 2 -3 21 2 0.26813027D+00 0.62141489D-01 0.31759714D+06 0.31759714D+06 0.31759714D+06 0.10827251D+01  1  2  6  4  6  5       -3 0.217292940366D-02 0.100000000000D+01
  </mgrwgt>
  </event>
  <event>
  5     66 0.21964403E-05 0.17228783E+03 0.75467711E-02 0.90229553E-01
        2 -1    0    0  502    0 0.00000000E+00 0.00000000E+00 0.22117018E+04 0.22117018E+04 0.32000000E+00 0.0000E+00 0.9000E+01
       -3 -1    0    0    0  501 0.00000000E+00 0.00000000E+00 -.55364128E+03 0.55364151E+03 0.50000000E+00 0.0000E+00 0.9000E+01
       25  1    1    2    0    0 0.13780007E+03 0.50686115E+03 -.20084332E+03 0.57607302E+03 0.12500000E+03 0.0000E+00 0.9000E+01
        2  1    1    2  502    0 -.29659993E+03 -.57384594E+03 0.19044364E+04 0.20110069E+04 0.32000000E+00 0.0000E+00 0.9000E+01
       -3  1    1    2    0  501 0.15879986E+03 0.66984785E+02 -.45532615E+02 0.17826336E+03 0.50000000E+00 0.0000E+00 0.9000E+01
#aMCatNLO 1  0  0  2  1 0.13634087D+03 0.00000000D+00  -5  6  0 0.00000000D+00 0.00000000D+00 0.00000000D+00 0.00000000D+00 0.00000000D+00
  <mgrwgt>
 0.1596446054D-04    7    4    0
 0.110656665409651D+04 0.000000000000000D+00 0.000000000000000D+00 0.110656665409651D+04
 0.110656665409651D+04 0.000000000000000D+00 0.000000000000000D+00 -.110656665409651D+04
 0.870344560565395D+03 0.137886941703170D+03 0.506840950422962D+03 -.682622953311610D+03
 0.108601883443011D+04 -.296606194760351D+03 -.573858063168533D+03 0.873011224041919D+03
 0.256769913197515D+03 0.158719253057181D+03 0.670171127455711D+02 -.190388270730308D+03
 0.000000000000000D+00 0.000000000000000D+00 0.000000000000000D+00 -.000000000000000D+00
 0.113924101156032D+04 0.000000000000000D+00 0.000000000000000D+00 0.113924101156032D+04
 0.126065070639661D+04 0.000000000000000D+00 0.000000000000000D+00 -.126065070639661D+04
 0.847888312279691D+03 0.935096537253584D+02 0.478091453984278D+03 -.682622953311610D+03
 0.112263511630999D+04 -.353649727080292D+03 -.610813291935601D+03 0.873011224041919D+03
 0.246805566739265D+03 0.145713266240787D+03 0.585912807784067D+02 -.190388270730308D+03
 0.182562722627993D+03 0.114426807114147D+03 0.741305571729163D+02 -.121409694836287D+03
 0.110656665409651D+04 0.000000000000000D+00 0.000000000000000D+00 0.110656665409651D+04
 0.110656665409651D+04 0.000000000000000D+00 0.000000000000000D+00 -.110656665409651D+04
 0.870344560565395D+03 0.137886941703170D+03 0.506840950422962D+03 -.682622953311610D+03
 0.108601883443011D+04 -.296606194760351D+03 -.573858063168533D+03 0.873011224041919D+03
 0.000000000000000D+00 0.000000000000000D+00 0.000000000000000D+00 -.000000000000000D+00
 0.256769913197515D+03 0.158719253057181D+03 0.670171127455711D+02 -.190388270730308D+03
 0.113924101156032D+04 0.000000000000000D+00 0.000000000000000D+00 0.113924101156032D+04
 0.126065070639661D+04 0.000000000000000D+00 0.000000000000000D+00 -.126065070639661D+04
 0.847888312279691D+03 0.935096537253584D+02 0.478091453984278D+03 -.682622953311610D+03
 0.112263511630999D+04 -.353649727080292D+03 -.610813291935601D+03 0.873011224041919D+03
 0.182562722627993D+03 0.114426807114147D+03 0.741305571729163D+02 -.121409694836287D+03
 0.246805566739265D+03 0.145713266240787D+03 0.585912807784067D+02 -.190388270730308D+03
0.227483979912D-04 0.000000000000D+00 0.000000000000D+00 0.299891192208D-07 0.000000000000D+00  6 2 -3 25 2 -3 21 0 0.34026183D+00 0.85175601D-01 0.46117509D+06 0.46117509D+06 0.46117509D+06 0.10710002D+01  1  2  2  2  6  2       -3 0.116237516430D-04 0.100000000000D+01
0.105477587824D-05 0.000000000000D+00 -.873598380769D-07 0.299891192208D-07 0.000000000000D+00  6 2 -3 25 2 -3 21 2 0.34026183D+00 0.85175601D-01 0.46117509D+06 0.46117509D+06 0.46117509D+06 0.10710002D+01  1  2  3  2  6  2       -3 0.618208305756D-06 0.100000000000D+01
-.147646190138D-04 0.000000000000D+00 0.000000000000D+00 0.299891192208D-07 0.000000000000D+00  6 2 -3 25 2 -3 21 2 0.34026183D+00 0.85175601D-01 0.46117509D+06 0.46117509D+06 0.46117509D+06 0.10710002D+01  1  2 15  2  6  2       -3 -.865360148441D-05 0.100000000000D+01
-.181606119099D-05 0.000000000000D+00 0.000000000000D+00 0.299891192208D-07 0.000000000000D+00  6 2 -3 25 2 -3 21 2 0.34026183D+00 0.85175601D-01 0.46117509D+06 0.46117509D+06 0.46117509D+06 0.10710002D+01  1  2  4  2  6  2       -3 -.106440063258D-05 0.100000000000D+01
-.181347528582D-03 0.000000000000D+00 -.372828882754D-04 0.299891192208D-07 0.000000000000D+00  6 2 -3 25 2 -3 21 2 0.34026183D+00 0.98912107D-01 0.46117509D+06 0.46117509D+06 0.46117509D+06 0.10710002D+01  1  2  5  2  6  2       -3 -.727948164359D-04 0.100000000000D+01
0.185260200098D-03 0.000000000000D+00 0.368700014341D-04 0.299891192208D-07 0.000000000000D+00  6 2 -3 25 2 -3 21 2 0.34026183D+00 0.85175601D-01 0.46117509D+06 0.46117509D+06 0.46117509D+06 0.10710002D+01  1  2  6  2  6  2       -3 0.108581734556D-03 0.100000000000D+01
-.386864814876D-05 0.000000000000D+00 -.848238796003D-06 0.299891192208D-07 0.000000000000D+00  6 2 21 25 2 3 -3 2 0.34026183D+00 0.98912107D-01 0.46117509D+06 0.46117509D+06 0.46117509D+06 0.10710002D+01  3  4  5  6  5  2       -3 -.223464154090D-04 0.100000000000D+01
  </mgrwgt>
  </event>
  <event>
  6     66 0.21964403E-05 0.23045484E+02 0.75467711E-02 0.94581346E-01
        2 -1    0    0  502    0 0.00000000E+00 0.00000000E+00 0.13675785E+04 0.13675786E+04 0.32000000E+00 0.0000E+00 0.9000E+01
       -3 -1    0    0    0  503 0.00000000E+00 0.00000000E+00 -.62621345E+03 0.62621365E+03 0.50000000E+00 0.0000E+00 0.9000E+01
       25  1    1    2    0    0 -.47796851E+03 -.90650959E+02 0.51062257E+03 0.71626245E+03 0.12500000E+03 0.0000E+00 0.9000E+01
        2  1    1    2  502    0 0.40008674E+02 0.12549189E+02 0.65154617E+03 0.65289409E+03 0.32000000E+00 0.0000E+00 0.9000E+01
       -3  1    1    2    0  501 0.40918848E+03 0.10252804E+03 -.40093856E+03 0.58197868E+03 0.50000000E+00 0.0000E+00 0.9000E+01
       21  1    1    2  501  503 0.28771357E+02 -.24426272E+02 -.19865100E+02 0.42656986E+02 0.75000000E+00 0.0000E+00 0.9000E+01
#aMCatNLO 2  0  0  2  2 0.37741671D+02 0.00000000D+00  -5  6  0 0.00000000D+00 0.00000000D+00 0.00000000D+00 0.00000000D+00 0.00000000D+00
  <mgrwgt>
 0.3125842292D-02    2    2    0
 0.898058020450361D+03 0.000000000000000D+00 0.000000000000000D+00 0.898058020450361D+03
 0.898058020450361D+03 0.000000000000000D+00 0.000000000000000D+00 -.898058020450361D+03
 0.555359253274294D+03 -.469080428695804D+03 -.982570680544346D+02 0.251213057362250D+03
 0.433427980957465D+03 0.469326739199535D+02 0.665500420838975D+01 0.430828097638227D+03
 0.807328806668962D+03 0.422147754775850D+03 0.916020638460448D+02 -.682041155000477D+03
 0.000000000000000D+00 0.000000000000000D+00 -.000000000000000D+00 -.000000000000000D+00
 0.905801718355240D+03 0.000000000000000D+00 0.000000000000000D+00 0.905801718355240D+03
 0.945451361405785D+03 0.000000000000000D+00 0.000000000000000D+00 -.945451361405785D+03
 0.561659636688921D+03 -.478026009443796D+03 -.906624596593409D+02 0.251213057362250D+03
 0.432862365600460D+03 0.399950381145326D+02 0.125449099187346D+02 0.430828097638227D+03
 0.801990526502784D+03 0.409259614589907D+03 0.102543821615688D+03 -.682041155000477D+03
 0.547405509688596D+02 0.287713567393571D+02 -.244262718750813D+02 -.396496430505443D+02
-.114348431411D-02 0.000000000000D+00 0.000000000000D+00 0.168225857616D-04 0.000000000000D+00  6 2 -3 25 2 -3 21 2 0.20859744D+00 0.91510956D-01 0.23749430D+06 0.23749430D+06 0.23749430D+06 0.10921397D+01  1  2  8  2  6  2       -3 -.178751516716D-02 0.100000000000D+01
0.365809278785D-02 0.000000000000D+00 0.000000000000D+00 0.168225857616D-04 0.639255316017D-07  6 2 -3 25 2 -3 21 2 0.21039612D+00 0.96340277D-01 0.25196221D+06 0.25196221D+06 0.25196221D+06 0.10902038D+01  1  2  1  2  6  2       -3 0.491335745914D-02 0.100000000000D+01
  </mgrwgt>
  </event>
  <event>
  5     66 0.21964403E-05 0.20775620E+03 0.75467711E-02 0.94104475E-01
        2 -1    0    0  502    0 0.00000000E+00 0.00000000E+00 0.18906846E+04 0.18906846E+04 0.32000000E+00 0.0000E+00 0.9000E+01
       -3 -1    0    0    0  501 0.00000000E+00 0.00000000E+00 -.52165483E+03 0.52165507E+03 0.50000000E+00 0.0000E+00 0.9000E+01
       25  1    1    2    0    0 0.10168995E+03 -.46403947E+03 0.51256091E+03 0.70994167E+03 0.12500000E+03 0.0000E+00 0.9000E+01
        2  1    1    2  502    0 -.20332793E+03 0.28287368E+03 0.12281525E+04 0.12766042E+04 0.32000000E+00 0.0000E+00 0.9000E+01
       -3  1    1    2    0  501 0.10163798E+03 0.18116579E+03 -.37168366E+03 0.42579375E+03 0.50000000E+00 0.0000E+00 0.9000E+01
#aMCatNLO 1  0  0  4  4 0.26486454D+03 0.00000000D+00  -5  6  0 0.00000000D+00 0.00000000D+00 0.00000000D+00 0.00000000D+00 0.00000000D+00
  <mgrwgt>
 0.1607499750D-02    3    2    0
 0.993118850372081D+03 0.000000000000000D+00 0.000000000000000D+00 0.993118850372081D+03
 0.993118850372081D+03 -.000000000000000D+00 -.000000000000000D+00 -.993118850372081D+03
 0.508975878498294D+03 0.101659096191898D+03 -.464036648565516D+03 0.133292392290935D+03
 0.703887039266157D+03 -.203307768930102D+03 0.282845630726496D+03 0.611654530203505D+03
 0.773374782979711D+03 0.101648672738204D+03 0.181191017839020D+03 -.744946922494440D+03
 0.000000000000000D+00 0.000000000000000D+00 -.000000000000000D+00 0.000000000000000D+00
 0.993118850372081D+03 0.000000000000000D+00 0.000000000000000D+00 0.993118850372081D+03
 0.993118850372081D+03 -.000000000000000D+00 -.000000000000000D+00 -.993118850372081D+03
 0.499132577219971D+03 0.753133589204956D+02 -.427383958337793D+03 0.212553945542965D+03
 0.264891717262746D+03 -.999922740744167D+02 0.210369454891855D+03 -.126150146445960D+03
 0.675960973197248D+03 0.637719752125569D+02 0.233885799046135D+03 -.630994299077108D+03
 0.546252433064197D+03 -.390930600586359D+02 -.168712956001967D+02 0.544590499980102D+03
0.482553154537D-02 0.000000000000D+00 0.000000000000D+00 0.190550848879D-05 0.000000000000D+00  6 2 -3 25 2 -3 21 0 0.29087457D+00 0.80254610D-01 0.27421000D+06 0.27421000D+06 0.27421000D+06 0.10874519D+01  1  2  2  3  6  4        2 0.441729673818D-02 0.100000000000D+01
0.493027608591D-03 0.000000000000D+00 -.185313117259D-04 0.190550848879D-05 0.000000000000D+00  6 2 -3 25 2 -3 21 2 0.29087457D+00 0.80254610D-01 0.27421000D+06 0.27421000D+06 0.27421000D+06 0.10874519D+01  1  2  3  3  6  4        2 0.533706872697D-03 0.100000000000D+01
-.308866120601D-02 0.000000000000D+00 0.000000000000D+00 0.190550848879D-05 0.000000000000D+00  6 2 -3 25 2 -3 21 2 0.29087457D+00 0.80254610D-01 0.27421000D+06 0.27421000D+06 0.27421000D+06 0.10874519D+01  1  2 15  3  6  4        2 -.334350386136D-02 0.100000000000D+01
  </mgrwgt>
  </event>
  <event>
  6     66 -.21964403E-05 0.49955575E+02 0.75467711E-02 0.94519339E-01
        2 -1    0    0  502    0 0.00000000E+00 0.00000000E+00 0.24384285E+04 0.24384286E+04 0.32000000E+00 0.0000E+00 0.9000E+01
       -3 -1    0    0    0  501 0.00000000E+00 0.00000000E+00 -.12070463E+03 0.12070567E+03 0.50000000E+00 0.0000E+00 0.9000E+01
       25  1    1    2    0    0 -.47693151E+03 0.38546516E+02 0.93347613E+03 0.10563864E+04 0.12500000E+03 0.0000E+00 0.9000E+01
        2  1    1    2  503    0 0.40687080E+03 0.40342986E+02 0.12626264E+04 0.13271763E+04 0.32000000E+00 0.0000E+00 0.9000E+01
       -3  1    1    2    0  501 0.49338568E+02 -.47706736E+02 0.26899772E+02 0.73716177E+02 0.50000000E+00 0.0000E+00 0.9000E+01
       21  1    1    2  502  503 0.20722146E+02 -.31182767E+02 0.94721633E+02 0.10185540E+03 0.75000000E+00 0.0000E+00 0.9000E+01
#aMCatNLO 2  0  0  4  1 0.31672157D+02 0.00000000D+00  -5  6  0 0.00000000D+00 0.00000000D+00 0.00000000D+00 0.00000000D+00 0.00000000D+00
  <mgrwgt>
 -.3286762488D-02    3    2    0
 0.542522788376768D+03 0.000000000000000D+00 0.000000000000000D+00 0.542522788376768D+03
 0.542522788376768D+03 -.000000000000000D+00 -.000000000000000D+00 -.542522788376768D+03
 0.505506792773324D+03 -.484905548745187D+03 0.384105320999917D+02 -.574748411037068D+02
 0.463219899128440D+03 0.437373894656781D+03 0.936975430681243D+01 0.152279213701513D+03
 0.116318884851772D+03 0.475316540884065D+02 -.477802864068041D+02 -.948043725978058D+02
 0.000000000000000D+00 0.000000000000000D+00 0.000000000000000D+00 0.000000000000000D+00
 0.542522788376768D+03 0.000000000000000D+00 0.000000000000000D+00 0.542522788376768D+03
 0.542522788376768D+03 -.000000000000000D+00 -.000000000000000D+00 -.542522788376768D+03
 0.497518395522731D+03 -.476886508010486D+03 0.385823220544869D+02 -.546828747046172D+02
 0.433046739971336D+03 0.406756210021839D+03 0.403748283266681D+02 0.142999083374907D+03
 0.116551446441864D+03 0.493934185728253D+02 -.477404022801810D+02 -.941561674002661D+02
 0.379289948176038D+02 0.207368794158217D+02 -.312167481009740D+02 0.583995872997627D+01
-.355831616240D-03 0.000000000000D+00 0.000000000000D+00 0.456325085538D-07 0.000000000000D+00  6 2 -3 25 2 -3 21 2 0.37514293D+00 0.18570025D-01 0.25473717D+06 0.25473717D+06 0.25473717D+06 0.10898463D+01  1  2 13  3  6  4        2 -.368304617820D-02 0.100000000000D+01
-.813699796794D-05 0.000000000000D+00 0.000000000000D+00 0.456325085538D-07 0.000000000000D+00  6 2 -3 25 2 -3 21 2 0.37514293D+00 0.18570025D-01 0.25356209D+06 0.25356209D+06 0.25356209D+06 0.10899972D+01  1  2  8  3  6  4        2 -.842597364283D-04 0.100000000000D+01
0.464269346285D-04 0.000000000000D+00 0.000000000000D+00 0.456325085538D-07 0.154539720042D-09  6 2 -3 25 2 -3 21 2 0.37514293D+00 0.18570025D-01 0.25473717D+06 0.25473717D+06 0.25473717D+06 0.10898463D+01  1  2  1  3  6  4        2 0.480543426568D-03 0.100000000000D+01
  </mgrwgt>
  </event>
  <event>
  5     66 0.21964403E-05 0.33924685E+02 0.75467711E-02 0.94179505E-01
        2 -1    0    0  502    0 0.00000000E+00 0.00000000E+00 0.27594909E+04 0.27594909E+04 0.32000000E+00 0.0000E+00 0.9000E+01
       -3 -1    0    0    0  501 0.00000000E+00 0.00000000E+00 -.21836534E+03 0.21836591E+03 0.50000000E+00 0.0000E+00 0.9000E+01
       25  1    1    2    0    0 0.45830321E+03 0.15935522E+03 0.10946409E+04 0.12038686E+04 0.12500000E+03 0.0000E+00 0.9000E+01
        2  1    1    2  502    0 -.17068073E+02 0.29335411E+02 0.12579270E+04 0.12583848E+04 0.32000000E+00 0.0000E+00 0.9000E+01
       -3  1    1    2    0  501 -.44123514E+03 -.18869063E+03 0.18855759E+03 0.51560335E+03 0.50000000E+00 0.0000E+00 0.9000E+01
#aMCatNLO 1  0  0  5  5 0.64026563D+00 0.00000000D+00  -5  6  0 0.00000000D+00 0.00000000D+00 0.00000000D+00 0.00000000D+00 0.00000000D+00
  <mgrwgt>
 0.1263803623D-01    4    2    0
 0.776259000415054D+03 0.000000000000000D+00 0.000000000000000D+00 0.776259000415054D+03
 0.776259000415054D+03 -.000000000000000D+00 -.000000000000000D+00 -.776259000415054D+03
 0.517548714981834D+03 0.458381061446812D+03 0.159399121141017D+03 0.129268693293129D+03
 0.354585079753692D+03 -.170606533028277D+02 0.293226595264666D+02 0.352958488396451D+03
 0.680384206094582D+03 -.441320408143984D+03 -.188721780667483D+03 -.482227181689580D+03
 0.000000000000000D+00 0.000000000000000D+00 0.000000000000000D+00 0.000000000000000D+00
 0.776259000415054D+03 0.000000000000000D+00 0.000000000000000D+00 0.776259000415054D+03
 0.776259000415054D+03 -.000000000000000D+00 -.000000000000000D+00 -.776259000415054D+03
 0.490321545020863D+03 0.437022961601888D+03 0.150265760072673D+03 0.105930873186922D+03
 0.339171289299921D+03 -.317622655899682D+02 0.230358112450092D+02 0.336894157518719D+03
 0.654026564038969D+03 -.391943644844434D+03 -.236493144331774D+03 -.467120882019580D+03
 0.689986024703536D+02 -.133170511674857D+02 0.631915730140927D+02 0.242958513139392D+02
0.750723593389D-02 0.000000000000D+00 0.000000000000D+00 0.631422648660D-05 0.000000000000D+00  6 2 -3 25 2 -3 21 0 0.42453710D+00 0.33594713D-01 0.25758082D+06 0.25758082D+06 0.25758082D+06 0.10894845D+01  1  2  2  4  6  5       -3 0.141921304198D-01 0.100000000000D+01
0.333399999010D-02 0.000000000000D+00 -.288297626867D-04 0.631422648660D-05 0.000000000000D+00  6 2 -3 25 2 -3 21 2 0.42453710D+00 0.33594713D-01 0.25758082D+06 0.25758082D+06 0.25758082D+06 0.10894845D+01  1  2  3  4  6  5       -3 0.748126776726D-02 0.100000000000D+01
-.385951761179D-02 0.000000000000D+00 0.000000000000D+00 0.631422648660D-05 0.000000000000D+00  6 2 -3 25 2 -3 21 2 0.42453710D+00 0.33594713D-01 0.25758082D+06 0.25758082D+06 0.25758082D+06 0.10894845D+01  1  2 15  4  6  5       -3 -.866049333893D-02 0.100000000000D+01
-.167058849163D-03 0.000000000000D+00 0.000000000000D+00 0.631422648660D-05 0.000000000000D+00  6 2 -3 25 2 -3 21 2 0.42453710D+00 0.33594713D-01 0.25758082D+06 0.25758082D+06 0.25758082D+06 0.10894845D+01  1  2  4  4  6  5       -3 -.374868622432D-03 0.100000000000D+01
  </mgrwgt>
  </event>
  <event>
  6     66 0.21964403E-05 0.62539258E+02 0.75467711E-02 0.93093689E-01
        2 -1    0    0  502    0 0.00000000E+00 0.00000000E+00 0.29542610E+04 0.29542610E+04 0.32000000E+00 0.0000E+00 0.9000E+01
       21 -1    0    0  503  501 0.00000000E+00 0.00000000E+00 -.70845923E+03 0.70845963E+03 0.75000000E+00 0.0000E+00 0.9000E+01
       25  1    1    2    0    0 0.41299446E+03 0.24058280E+03 0.94458578E+03 0.10659793E+04 0.12500000E+03 0.0000E+00 0.9000E+01
        2  1    1    2  502    0 -.48861959E+03 -.27771089E+03 0.19048259E+04 0.19860097E+04 0.32000000E+00 0.0000E+00 0.9000E+01
        3  1    1    2  503    0 0.60575909E+01 0.18163910E+02 -.84897217E+02 0.87031084E+02 0.50000000E+00 0.0000E+00 0.9000E+01
       -3  1    1    2    0  501 0.69567541E+02 0.18964179E+02 -.51871269E+03 0.52370067E+03 0.50000000E+00 0.0000E+00 0.9000E+01
#aMCatNLO 2  0  0  2  1 0.19147377D+02 0.00000000D+00  -5  6  0 0.00000000D+00 0.00000000D+00 0.00000000D+00 0.00000000D+00 0.00000000D+00
  <mgrwgt>
 0.2923276897D-02    1    2    0
 0.135582369398599D+04 0.000000000000000D+00 0.000000000000000D+00 0.135582369398599D+04
 0.135582369398599D+04 0.000000000000000D+00 0.000000000000000D+00 -.135582369398599D+04
 0.596315051265559D+03 0.414281286635753D+03 0.244546163557021D+03 0.329446247207057D+03
 0.978585619512760D+03 -.486394424296192D+03 -.271125755313498D+03 0.804699387061052D+03
 0.000000000000000D+00 0.000000000000000D+00 0.000000000000000D+00 -.000000000000000D+00
 0.113674671719367D+04 0.721131376604387D+02 0.265795917564773D+02 -.113414563426811D+04
 0.135634700711591D+04 0.000000000000000D+00 0.000000000000000D+00 0.135634700711591D+04
 0.154309570078728D+04 0.000000000000000D+00 0.000000000000000D+00 -.154309570078728D+04
 0.593766360747733D+03 0.412952032593797D+03 0.240560346136776D+03 0.329446247207057D+03
 0.981512709266240D+03 -.488583743951016D+03 -.277690511291849D+03 0.804699387061052D+03
 0.187727719423182D+03 0.605759092371550D+01 0.181639104838979D+02 -.186748693671369D+03
 0.113643591846604D+04 0.695741204335042D+02 0.189662546711752D+02 -.113414563426811D+04
0.169507265542D-02 0.000000000000D+00 0.000000000000D+00 0.205514861244D-04 0.753506463680D-08  6 2 21 25 2 3 -3 2 0.45450162D+00 0.10899373D+00 0.32903526D+06 0.32903526D+06 0.32903526D+06 0.10815959D+01  1  2  1  6  5  2       -3 0.292327689692D-02 0.100000000000D+01
  </mgrwgt>
  </event>
  <event>
  6     66 0.21964403E-05 0.12387358E+03 0.75467711E-02 0.93630988E-01
        2 -1    0    0  502    0 0.00000000E+00 0.00000000E+00 0.17710897E+04 0.17710898E+04 0.32000000E+00 0.0000E+00 0.9000E+01
       -3 -1    0    0    0  501 0.00000000E+00 0.00000000E+00 -.23166923E+03 0.23166977E+03 0.50000000E+00 0.0000E+00 0.9000E+01
       25  1    1    2    0    0 -.10786208E+03 0.48502021E+03 0.95119665E+03 0.10804068E+04 0.12500000E+03 0.0000E+00 0.9000E+01
        2  1    1    2  503    0 0.77658898E+02 -.23349636E+03 0.40545442E+03 0.47428351E+03 0.32000000E+00 0.0000E+00 0.9000E+01
       -3  1    1    2    0  501 0.15320910E+02 0.39866541E+02 -.56435981E+02 0.70776701E+02 0.50000000E+00 0.0000E+00 0.9000E+01
       21  1    1    2  502  503 0.14882269E+02 -.29139039E+03 0.23920541E+03 0.37729250E+03 0.75000000E+00 0.0000E+00 0.9000E+01
#aMCatNLO 2  0  0  4  2 0.79519650D+02 0.00000000D+00  -5  6  0 0.00000000D+00 0.00000000D+00 0.00000000D+00 0.00000000D+00 0.00000000D+00
  <mgrwgt>
 0.1073653047D-02    1    2    0
 0.640552550468660D+03 0.000000000000000D+00 0.000000000000000D+00 0.640552550468660D+03
 0.640552550468660D+03 -.000000000000000D+00 -.000000000000000D+00 -.640552550468660D+03
 0.555304889007187D+03 -.109617315818213D+03 0.494894115507210D+03 0.189215163938916D+03
 0.546560018757325D+03 0.948586637298304D+02 -.538031428340840D+03 -.158704170365277D+02
 0.179240193172808D+03 0.147586520883831D+02 0.431373128336306D+02 -.173344746902389D+03
 0.000000000000000D+00 0.000000000000000D+00 0.000000000000000D+00 -.000000000000000D+00
 0.640552550468660D+03 0.000000000000000D+00 0.000000000000000D+00 0.640552550468660D+03
 0.640552550468660D+03 -.000000000000000D+00 -.000000000000000D+00 -.640552550468660D+03
 0.545962315451648D+03 -.107854967994581D+03 0.484898207073554D+03 0.188920312695765D+03
 0.253855734040634D+03 0.775743878369886D+02 -.233109407460926D+03 0.639136308641696D+02
 0.178627585511765D+03 0.153313446178250D+02 0.398890425386440D+02 -.173440561759130D+03
 0.302659465933273D+03 0.149492355397676D+02 -.291677842151272D+03 -.793933818008042D+02
0.150637717734D-03 0.000000000000D+00 0.000000000000D+00 0.895496715557D-07 0.227455442755D-10  6 2 -3 25 2 -3 21 2 0.27247539D+00 0.35641464D-01 0.29850219D+06 0.29850219D+06 0.29850219D+06 0.10847127D+01  1  2  1  3  6  4        2 0.107365304743D-02 0.100000000000D+01
  </mgrwgt>
  </event>
  <event>
  5     66 -.21964403E-05 0.32102075E+03 0.75467711E-02 0.93349349E-01
        2 -1    0    0  502    0 0.00000000E+00 0.00000000E+00 0.21357450E+04 0.21357451E+04 0.32000000E+00 0.0000E+00 0.9000E+01
       -3 -1    0    0    0  501 0.00000000E+00 0.00000000E+00 -.43642756E+03 0.43642785E+03 0.50000000E+00 0.0000E+00 0.9000E+01
       25  1    1    2    0    0 -.30626392E+03 0.34397626E+03 0.71951907E+03 0.86339443E+03 0.12500000E+03 0.0000E+00 0.9000E+01
        2  1    1    2  502    0 -.13917936E+02 -.32140687E+03 0.12490560E+04 0.12898206E+04 0.32000000E+00 0.0000E+00 0.9000E+01
       -3  1    1    2    0  501 0.32018186E+03 -.22569392E+02 -.26925762E+03 0.41895789E+03 0.50000000E+00 0.0000E+00 0.9000E+01
#aMCatNLO 1  0  0  5  2 0.11395975D+02 0.00000000D+00  -5  6  0 0.00000000D+00 0.00000000D+00 0.00000000D+00 0.00000000D+00 0.00000000D+00
  <mgrwgt>
 -.2020577330D-02    7    2    0
 0.965452434638905D+03 0.000000000000000D+00 0.000000000000000D+00 0.965452434638905D+03
 0.965452434638905D+03 -.000000000000000D+00 -.000000000000000D+00 -.965452434638905D+03
 0.516957780210168D+03 -.306309773896983D+03 0.343939000822667D+03 0.198747660736193D+03
 0.618838853005071D+03 -.139158425717904D+02 -.321358530785101D+03 0.528674351567948D+03
 0.795108236062569D+03 0.320225616468774D+03 -.225804700375660D+02 -.727422012304142D+03
 0.000000000000000D+00 0.000000000000000D+00 0.000000000000000D+00 -.000000000000000D+00
 0.965452434638905D+03 0.000000000000000D+00 0.000000000000000D+00 0.965452434638905D+03
 0.965452434638905D+03 -.000000000000000D+00 -.000000000000000D+00 -.965452434638905D+03
 0.516816363701476D+03 -.306216270126484D+03 0.343932407474167D+03 0.198535258300545D+03
 0.618623251145077D+03 -.138039154421850D+02 -.321366423243001D+03 0.528420098773476D+03
 0.711378913763260D+03 0.294622782037611D+03 -.129872216959265D+02 -.647370610488332D+03
 0.840863406679961D+02 0.253974035310577D+02 -.957876253523917D+01 -.795847465856895D+02
0.136670802550D-04 0.000000000000D+00 0.000000000000D+00 0.378952447856D-06 0.000000000000D+00  6 2 -3 25 2 -3 21 0 0.32857619D+00 0.67142726D-01 0.31354764D+06 0.31354764D+06 0.31354764D+06 0.10831355D+01  1  2  2  4  6  5       -3 0.137995354916D-04 0.100000000000D+01
0.768970442201D-06 0.000000000000D+00 -.524851868040D-07 0.378952447856D-06 0.000000000000D+00  6 2 -3 25 2 -3 21 2 0.32857619D+00 0.67142726D-01 0.31354764D+06 0.31354764D+06 0.31354764D+06 0.10831355D+01  1  2  3  4  6  5       -3 0.910885877794D-06 0.100000000000D+01
-.894165902426D-05 0.000000000000D+00 0.000000000000D+00 0.378952447856D-06 0.000000000000D+00  6 2 -3 25 2 -3 21 2 0.32857619D+00 0.67142726D-01 0.31354764D+06 0.31354764D+06 0.31354764D+06 0.10831355D+01  1  2 15  4  6  5       -3 -.105918647613D-04 0.100000000000D+01
0.249721695163D-02 0.000000000000D+00 0.000000000000D+00 0.378952447856D-06 0.000000000000D+00  6 2 -3 25 2 -3 21 2 0.32857619D+00 0.67142726D-01 0.31409111D+06 0.31409111D+06 0.31409111D+06 0.10830801D+01  1  2 12  4  6  5       -3 0.295750392525D-02 0.100000000000D+01
-.449762434762D-02 0.000000000000D+00 0.000000000000D+00 0.378952447856D-06 0.000000000000D+00  6 2 -3 25 2 -3 21 2 0.32857619D+00 0.67142726D-01 0.31354764D+06 0.31354764D+06 0.31354764D+06 0.10831355D+01  1  2  4  4  6  5       -3 -.532767227066D-02 0.100000000000D+01
-.262009907577D-02 0.000000000000D+00 0.000000000000D+00 0.378952447856D-06 0.000000000000D+00  6 2 -3 25 2 -3 21 2 0.32857619D+00 0.67142726D-01 0.31354764D+06 0.31354764D+06 0.31354764D+06 0.10831355D+01  1  2  5  4  6  5       -3 -.310364497198D-02 0.100000000000D+01
0.291174714710D-02 0.000000000000D+00 -.000000000000D+00 0.378952447856D-06 0.000000000000D+00  6 2 -3 25 2 -3 21 2 0.32857619D+00 0.67142726D-01 0.31354764D+06 0.31354764D+06 0.31354764D+06 0.10831355D+01  1  2  6  4  6  5       -3 0.344911743085D-02 0.100000000000D+01
  </mgrwgt>
  </event>
  <event>
  5     66 0.21964403E-05 0.58909660E+02 0.75467711E-02 0.91577638E-01
        2 -1    0    0  502    0 0.00000000E+00 0.00000000E+00 0.24444264E+04 0.24444264E+04 0.32000000E+00 0.0000E+00 0.9000E+01
       -3 -1    0    0    0  501 0.00000000E+00 0.00000000E+00 -.37527630E+03 0.37527664E+03 0.50000000E+00 0.0000E+00 0.9000E+01
       25  1    1    2    0    0 0.44169932E+03 -.31750909E+03 0.83088085E+03 0.10009487E+04 0.12500000E+03 0.0000E+00 0.9000E+01
        2  1    1    2  502    0 -.46169997E+02 0.36611146E+02 0.13246823E+04 0.13259922E+04 0.32000000E+00 0.0000E+00 0.9000E+01
       -3  1    1    2    0  501 -.39552933E+03 0.28089794E+03 -.86413028E+02 0.49276218E+03 0.50000000E+00 0.0000E+00 0.9000E+01
#aMCatNLO 1  0  0  4  1 0.77655307D+01 0.00000000D+00  -5  6  0 0.00000000D+00 0.00000000D+00 0.00000000D+00 0.00000000D+00 0.00000000D+00
  <mgrwgt>
 0.5129828974D-03    4    2    0
 0.957776494104490D+03 0.000000000000000D+00 0.000000000000000D+00 0.957776494104490D+03
 0.957776494104490D+03 -.000000000000000D+00 -.000000000000000D+00 -.957776494104490D+03
 0.575984787856166D+03 0.441750128706695D+03 -.317544505822485D+03 0.141971076108073D+03
 0.520838496164607D+03 -.461587149221944D+02 0.366021999719763D+02 0.517496271562368D+03
 0.818729704188207D+03 -.395591413784501D+03 0.280942305850509D+03 -.659467347670441D+03
 0.000000000000000D+00 0.000000000000000D+00 -.000000000000000D+00 0.000000000000000D+00
 0.957776494104490D+03 0.000000000000000D+00 0.000000000000000D+00 0.957776494104490D+03
 0.957776494104490D+03 -.000000000000000D+00 -.000000000000000D+00 -.957776494104490D+03
 0.584049025804842D+03 0.437703085124584D+03 -.314335345889471D+03 0.187343439011229D+03
 0.439248486994439D+03 -.581614757825032D+02 0.145326870802149D+03 0.410410254117219D+03
 0.773924952004930D+03 -.401147754236789D+03 0.285348283891489D+03 -.597173900540534D+03
 0.118330523404768D+03 0.216061448947082D+02 -.116339808804167D+03 -.579792587913902D+00
0.924567167634D-03 0.000000000000D+00 0.000000000000D+00 0.983803768632D-05 0.000000000000D+00  6 2 -3 25 2 -3 21 0 0.37606563D+00 0.57734843D-01 0.30378047D+06 0.30378047D+06 0.30378047D+06 0.10841497D+01  1  2  2  3  6  4        2 0.875648792075D-03 0.100000000000D+01
0.314216145467D-03 0.000000000000D+00 -.355058136784D-05 0.983803768632D-05 0.000000000000D+00  6 2 -3 25 2 -3 21 2 0.37606563D+00 0.57734843D-01 0.30378047D+06 0.30378047D+06 0.30378047D+06 0.10841497D+01  1  2  3  3  6  4        2 0.349782848376D-03 0.100000000000D+01
-.555446680616D-03 0.000000000000D+00 0.000000000000D+00 0.983803768632D-05 0.000000000000D+00  6 2 -3 25 2 -3 21 2 0.37606563D+00 0.57734843D-01 0.30378047D+06 0.30378047D+06 0.30378047D+06 0.10841497D+01  1  2 15  3  6  4        2 -.618318711085D-03 0.100000000000D+01
-.845586796323D-04 0.000000000000D+00 0.000000000000D+00 0.983803768632D-05 0.000000000000D+00  6 2 -3 25 2 -3 21 2 0.37606563D+00 0.57734843D-01 0.30378047D+06 0.30378047D+06 0.30378047D+06 0.10841497D+01  1  2  4  3  6  4        2 -.941300319651D-04 0.100000000000D+01
  </mgrwgt>
  </event>
  <event>
  5     66 0.21964403E-05 0.60707468E+02 0.75467711E-02 0.89171248E-01
        2 -1    0    0  502    0 0.00000000E+00 0.00000000E+00 0.96241647E+03 0.96241652E+03 0.32000000E+00 0.0000E+00 0.9000E+01
       -3 -1    0    0    0  501 -.00000000E+00 -.00000000E+00 -.16412822E+04 0.16412823E+04 0.50000000E+00 0.0000E+00 0.9000E+01
       25  1    1    2    0    0 -.24912692E+03 -.77984446E+03 -.10835313E+03 0.83521674E+03 0.12500000E+03 0.0000E+00 0.9000E+01
        2  1    1    2  502    0 -.82327100E+01 0.60161397E+02 0.47195350E+03 0.47584387E+03 0.32000000E+00 0.0000E+00 0.9000E+01
       -3  1    1    2    0  501 0.25735963E+03 0.71968306E+03 -.10424662E+04 0.12926382E+04 0.50000000E+00 0.0000E+00 0.9000E+01
#aMCatNLO 1  0  0  4  1 0.27846327D+02 0.00000000D+00  -5  6  0 0.00000000D+00 0.00000000D+00 0.00000000D+00 0.00000000D+00 0.00000000D+00
  <mgrwgt>
 0.3148562514D-03    6    2    0
 0.125682028332427D+04 0.000000000000000D+00 0.000000000000000D+00 0.125682028332427D+04
 0.125682028332427D+04 -.000000000000000D+00 -.000000000000000D+00 -.125682028332427D+04
 0.835975016709844D+03 -.249158655033447D+03 -.779920822100676D+03 0.113457941276727D+03
 0.620204706335963D+03 -.823072868276129D+01 0.601469183667510D+02 0.617226442302671D+03
 0.105746084360273D+04 0.257389383716209D+03 0.719773903733925D+03 -.730684383579398D+03
 0.000000000000000D+00 0.000000000000000D+00 0.000000000000000D+00 0.000000000000000D+00
 0.125682028332427D+04 0.000000000000000D+00 0.000000000000000D+00 0.125682028332427D+04
 0.125682028332427D+04 -.000000000000000D+00 -.000000000000000D+00 -.125682028332427D+04
 0.836302308412099D+03 -.249241735338941D+03 -.779313704001539D+03 0.119688174754403D+03
 0.304723668540214D+02 -.236478166354426D+02 0.160607313115905D+02 0.105545639322244D+02
 0.105254299228209D+04 0.257284556747234D+03 0.720539937871187D+03 -.722823356978804D+03
 0.594322899100319D+03 0.156049952271489D+02 0.427130348187619D+02 0.592580618292178D+03
0.756579245783D-02 0.000000000000D+00 0.000000000000D+00 0.302260877237D-05 0.000000000000D+00  6 2 -3 25 2 -3 21 0 0.14806408D+00 0.25250497D+00 0.68339835D+06 0.68339835D+06 0.68339835D+06 0.10590497D+01  1  2  2  3  6  4        2 0.287809672960D-03 0.100000000000D+01
0.327439772029D-02 0.000000000000D+00 -.290546351570D-04 0.302260877237D-05 0.000000000000D+00  6 2 -3 25 2 -3 21 2 0.14806408D+00 0.25250497D+00 0.68339835D+06 0.68339835D+06 0.68339835D+06 0.10590497D+01  1  2  3  3  6  4        2 0.139706010660D-03 0.100000000000D+01
-.419400704350D-02 0.000000000000D+00 0.000000000000D+00 0.302260877237D-05 0.000000000000D+00  6 2 -3 25 2 -3 21 2 0.14806408D+00 0.25250497D+00 0.68339835D+06 0.68339835D+06 0.68339835D+06 0.10590497D+01  1  2 15  3  6  4        2 -.178942218624D-03 0.100000000000D+01
-.228683529766D-03 0.000000000000D+00 0.000000000000D+00 0.302260877237D-05 0.000000000000D+00  6 2 -3 25 2 -3 21 2 0.14806408D+00 0.25250497D+00 0.68339835D+06 0.68339835D+06 0.68339835D+06 0.10590497D+01  1  2  4  3  6  4        2 -.975705041855D-05 0.100000000000D+01
-.174440452849D-02 0.000000000000D+00 0.000000000000D+00 0.302260877237D-05 0.000000000000D+00  6 2 -3 25 2 -3 21 2 0.14806408D+00 0.25250497D+00 0.68339835D+06 0.68339835D+06 0.68339835D+06 0.10590497D+01  1  2  5  3  6  4        2 -.744270606295D-04 0.100000000000D+01
0.352660893952D-02 0.000000000000D+00 -.000000000000D+00 0.302260877237D-05 0.000000000000D+00  6 2 -3 25 2 -3 21 2 0.14806408D+00 0.25250497D+00 0.68339835D+06 0.68339835D+06 0.68339835D+06 0.10590497D+01  1  2  6  3  6  4        2 0.150466897484D-03 0.100000000000D+01
  </mgrwgt>
  </event>
  <event>
  5     66 0.21964403E-05 0.18597520E+03 0.75467711E-02 0.94795670E-01
        2 -1    0    0  502    0 0.00000000E+00 0.00000000E+00 0.14871742E+04 0.14871743E+04 0.32000000E+00 0.0000E+00 0.9000E+01
       -3 -1    0    0    0  501 0.00000000E+00 0.00000000E+00 -.87101117E+03 0.87101131E+03 0.50000000E+00 0.0000E+00 0.9000E+01
       25  1    1    2    0    0 -.11596291E+03 0.47026711E+03 0.75585636E+03 0.90638976E+03 0.12500000E+03 0.0000E+00 0.9000E+01
        2  1    1    2  502    0 0.55922330E+02 -.17743370E+03 0.61369368E+03 0.64127222E+03 0.32000000E+00 0.0000E+00 0.9000E+01
       -3  1    1    2    0  501 0.60040577E+02 -.29283342E+03 -.75338699E+03 0.81052359E+03 0.50000000E+00 0.0000E+00 0.9000E+01
#aMCatNLO 1  0  0  5  2 0.13685386D+01 0.00000000D+00  -5  6  0 0.00000000D+00 0.00000000D+00 0.00000000D+00 0.00000000D+00 0.00000000D+00
  <mgrwgt>
 0.6416766132D-03    4    2    0
 0.113813248940280D+04 0.000000000000000D+00 0.000000000000000D+00 0.113813248940280D+04
 0.113813248940280D+04 -.000000000000000D+00 -.000000000000000D+00 -.113813248940280D+04
 0.734531120236653D+03 -.115952938244528D+03 0.470249026838171D+03 0.537895654812646D+03
 0.498062533053166D+03 0.559035439611318D+02 -.177374090727342D+03 0.462038431889134D+03
 0.104367132551577D+04 0.600493942833958D+02 -.292874936110829D+03 -.999934086701780D+03
 0.000000000000000D+00 -.000000000000000D+00 0.000000000000000D+00 0.000000000000000D+00
 0.113813248940280D+04 0.000000000000000D+00 0.000000000000000D+00 0.113813248940280D+04
 0.113813248940280D+04 -.000000000000000D+00 -.000000000000000D+00 -.113813248940280D+04
 0.513652209392713D+03 -.100756733556957D+03 0.396133583541686D+03 0.284850586882614D+03
 0.372110405534186D+03 0.664976015602544D+02 -.229043786642250D+03 0.285627671443314D+03
 0.949700372538416D+03 0.372824696295167D+03 -.294828640390925D+03 -.822197431422199D+03
 0.440801991340274D+03 -.338565564298465D+03 0.127738843491490D+03 0.251719173096271D+03
0.435911675131D-02 0.000000000000D+00 0.000000000000D+00 0.396817007867D-05 0.000000000000D+00  6 2 -3 25 2 -3 21 0 0.22879605D+00 0.13400173D+00 0.24262867D+06 0.24262867D+06 0.24262867D+06 0.10914383D+01  1  2  2  4  6  5       -3 0.169461954326D-02 0.100000000000D+01
0.305888488906D-03 0.000000000000D+00 -.167401561068D-04 0.396817007867D-05 0.000000000000D+00  6 2 -3 25 2 -3 21 2 0.22879605D+00 0.13400173D+00 0.24262867D+06 0.24262867D+06 0.24262867D+06 0.10914383D+01  1  2  3  4  6  5       -3 0.141656076629D-03 0.100000000000D+01
-.253696187086D-02 0.000000000000D+00 0.000000000000D+00 0.396817007867D-05 0.000000000000D+00  6 2 -3 25 2 -3 21 2 0.22879605D+00 0.13400173D+00 0.24262867D+06 0.24262867D+06 0.24262867D+06 0.10914383D+01  1  2 15  4  6  5       -3 -.117485972247D-02 0.100000000000D+01
-.426245026258D-04 0.000000000000D+00 0.000000000000D+00 0.396817007867D-05 0.000000000000D+00  6 2 -3 25 2 -3 21 2 0.22879605D+00 0.13400173D+00 0.24262867D+06 0.24262867D+06 0.24262867D+06 0.10914383D+01  1  2  4  4  6  5       -3 -.197392841811D-04 0.100000000000D+01
  </mgrwgt>
  </event>
  <event>
  5     66 0.21964403E-05 0.69759779E+02 0.75467711E-02 0.81381789E-01
        2 -1    0    0  502    0 0.00000000E+00 0.00000000E+00 0.22164574E+04 0.22164574E+04 0.32000000E+00 0.0000E+00 0.9000E+01
       -3 -1    0    0    0  501 0.00000000E+00 0.00000000E+00 -.57944225E+03 0.57944247E+03 0.50000000E+00 0.0000E+00 0.9000E+01
       25  1    1    2    0    0 0.20649366E+03 0.48740047E+03 0.41488369E+03 0.68407041E+03 0.12500000E+03 0.0000E+00 0.9000E+01
        2  1    1    2  502    0 -.27497427E+03 -.50067062E+03 0.16148837E+04 0.17129306E+04 0.32000000E+00 0.0000E+00 0.9000E+01
       -3  1    1    2    0  501 0.68480617E+02 0.13270155E+02 -.39275225E+03 0.39889883E+03 0.50000000E+00 0.0000E+00 0.9000E+01
#aMCatNLO 1  0  0  2  4 0.50496521D+02 0.00000000D+00  -5  6  0 0.00000000D+00 0.00000000D+00 0.00000000D+00 0.00000000D+00 0.00000000D+00
  <mgrwgt>
 0.6031896565D-02    5    4    0
 0.113327375357050D+04 0.000000000000000D+00 0.000000000000000D+00 0.113327375357050D+04
 0.113327375357050D+04 0.000000000000000D+00 0.000000000000000D+00 -.113327375357050D+04
 0.544168082940055D+03 0.206480071919390D+03 0.487384671721520D+03 0.177781934325413D+02
 0.946606383873226D+03 -.274965934657574D+03 -.500655440929412D+03 0.754851979023179D+03
 0.775773040327722D+03 0.684858627381836D+02 0.132707692078918D+02 -.772630172455720D+03
 0.000000000000000D+00 -.000000000000000D+00 -.000000000000000D+00 -.000000000000000D+00
 0.206792852593655D+04 0.000000000000000D+00 0.000000000000000D+00 0.206792852593655D+04
 0.292871749478721D+04 0.000000000000000D+00 0.000000000000000D+00 -.292871749478721D+04
 0.112379095312551D+04 0.272369391012403D+03 0.108294965580333D+04 0.177781934325413D+02
 0.791685506047868D+03 -.206298259651612D+03 0.120022740827625D+03 0.754851979023179D+03
 0.102276964509974D+04 0.139533622509351D+03 0.655462227544734D+03 -.772630172455720D+03
 0.205839991645065D+04 -.205604753870141D+03 -.185843462417569D+04 -.860788968850666D+03
 0.113327375357050D+04 0.000000000000000D+00 0.000000000000000D+00 0.113327375357050D+04
 0.113327375357050D+04 0.000000000000000D+00 0.000000000000000D+00 -.113327375357050D+04
 0.544168082940055D+03 0.206480071919390D+03 0.487384671721520D+03 0.177781934325413D+02
 0.946606383873226D+03 -.274965934657574D+03 -.500655440929412D+03 0.754851979023179D+03
 0.000000000000000D+00 -.000000000000000D+00 -.000000000000000D+00 -.000000000000000D+00
 0.775773040327722D+03 0.684858627381836D+02 0.132707692078918D+02 -.772630172455720D+03
 0.206792852593655D+04 0.000000000000000D+00 0.000000000000000D+00 0.206792852593655D+04
 0.292871749478721D+04 0.000000000000000D+00 0.000000000000000D+00 -.292871749478721D+04
 0.112379095312551D+04 0.272369391012403D+03 0.108294965580333D+04 0.177781934325413D+02
 0.791685506047868D+03 -.206298259651612D+03 0.120022740827625D+03 0.754851979023179D+03
 0.205839991645065D+04 -.205604753870141D+03 -.185843462417569D+04 -.860788968850666D+03
 0.102276964509974D+04 0.139533622509351D+03 0.655462227544734D+03 -.772630172455720D+03
0.187735975469D-01 0.000000000000D+00 0.000000000000D+00 0.108599692352D-04 0.000000000000D+00  6 2 -3 25 2 -3 21 0 0.34099346D+00 0.89144980D-01 0.35095611D+06 0.35095611D+06 0.35095611D+06 0.10795469D+01  1  2  2  2  6  2       -3 0.866382138022D-02 0.100000000000D+01
0.684250457257D-02 0.000000000000D+00 -.720955577817D-04 0.108599692352D-04 0.000000000000D+00  6 2 -3 25 2 -3 21 2 0.34099346D+00 0.89144980D-01 0.35095611D+06 0.35095611D+06 0.35095611D+06 0.10795469D+01  1  2  3  2  6  2       -3 0.368010416765D-02 0.100000000000D+01
-.120602084361D-01 0.000000000000D+00 0.000000000000D+00 0.108599692352D-04 0.000000000000D+00  6 2 -3 25 2 -3 21 2 0.34099346D+00 0.89144980D-01 0.35095611D+06 0.35095611D+06 0.35095611D+06 0.10795469D+01  1  2 15  2  6  2       -3 -.648634178578D-02 0.100000000000D+01
0.275221885136D-01 0.000000000000D+00 -.126464863915D-01 0.108599692352D-04 0.000000000000D+00  6 2 -3 25 2 -3 21 2 0.34099346D+00 0.39475459D+00 0.35095611D+06 0.35095611D+06 0.35095611D+06 0.10795469D+01  1  2  5  2  6  2       -3 0.282955785174D-06 0.100000000000D+01
0.487009469562D-02 0.000000000000D+00 -.227187100895D-02 0.108599692352D-04 0.000000000000D+00  6 2 21 25 2 3 -3 2 0.34099346D+00 0.39475459D+00 0.35095611D+06 0.35095611D+06 0.35095611D+06 0.10795469D+01  3  4  5  6  5  2       -3 0.174029847589D-03 0.100000000000D+01
  </mgrwgt>
  </event>
  <event>
  5     66 0.21964403E-05 0.16796399E+03 0.75467711E-02 0.94342413E-01
        2 -1    0    0  502    0 0.00000000E+00 0.00000000E+00 0.33705938E+04 0.33705938E+04 0.32000000E+00 0.0000E+00 0.9000E+01
       -3 -1    0    0    0  501 0.00000000E+00 0.00000000E+00 -.18043198E+03 0.18043267E+03 0.50000000E+00 0.0000E+00 0.9000E+01
       25  1    1    2    0    0 0.11969018E+03 0.43596743E+03 0.11714984E+04 0.12619139E+04 0.12500000E+03 0.0000E+00 0.9000E+01
        2  1    1    2  502    0 0.40725301E+02 -.38626337E+03 0.20757190E+04 0.21117451E+04 0.32000000E+00 0.0000E+00 0.9000E+01
       -3  1    1    2    0  501 -.16041548E+03 -.49704062E+02 -.57055565E+02 0.17736744E+03 0.50000000E+00 0.0000E+00 0.9000E+01
#aMCatNLO 1  0  0  1  5 0.12649408D+03 0.00000000D+00  -5  6  0 0.00000000D+00 0.00000000D+00 0.00000000D+00 0.00000000D+00 0.00000000D+00
  <mgrwgt>
 0.2722765464D-03    4    2    0
 0.779848816950577D+03 0.000000000000000D+00 0.000000000000000D+00 0.779848816950577D+03
 0.779848816950577D+03 0.000000000000000D+00 0.000000000000000D+00 -.779848816950577D+03
 0.476898531062694D+03 0.119716660362501D+03 0.435938698465178D+03 0.862124198818899D+02
 0.562219082569250D+03 0.407210558810589D+02 -.386223104290308D+03 0.406526513434609D+03
 0.520580020269210D+03 -.160437716243560D+03 -.497155941748703D+02 -.492738933316499D+03
 0.000000000000000D+00 0.000000000000000D+00 0.000000000000000D+00 -.000000000000000D+00
 0.826168606049720D+03 0.000000000000000D+00 0.000000000000000D+00 0.826168606049720D+03
 0.873822823522645D+03 0.000000000000000D+00 0.000000000000000D+00 -.873822823522645D+03
 0.461504220434011D+03 0.825836855550122D+02 0.427911788826464D+03 0.862124198818899D+02
 0.567455254405783D+03 -.398061259620795D+01 -.395886112854179D+03 0.406526513434609D+03
 0.535859192131879D+03 -.202241441346844D+03 -.587521641158824D+02 -.492738933316499D+03
 0.135172762600693D+03 0.123638368388039D+03 0.267264881435981D+02 -.476542174729249D+02
0.742181262176D-03 0.000000000000D+00 0.000000000000D+00 0.527077285769D-06 0.000000000000D+00  6 2 -3 25 2 -3 21 0 0.51855295D+00 0.27758821D-01 0.26284541D+06 0.26284541D+06 0.26284541D+06 0.10888258D+01  1  2  2  1  6  1        2 0.817219556611D-03 0.100000000000D+01
0.749069138116D-04 0.000000000000D+00 -.285017146757D-05 0.527077285769D-06 0.000000000000D+00  6 2 -3 25 2 -3 21 2 0.51855295D+00 0.27758821D-01 0.26284541D+06 0.26284541D+06 0.26284541D+06 0.10888258D+01  1  2  3  1  6  1        2 0.977839360015D-04 0.100000000000D+01
-.459083155131D-03 0.000000000000D+00 0.000000000000D+00 0.527077285769D-06 0.000000000000D+00  6 2 -3 25 2 -3 21 2 0.51855295D+00 0.27758821D-01 0.26284541D+06 0.26284541D+06 0.26284541D+06 0.10888258D+01  1  2 15  1  6  1        2 -.599289912992D-03 0.100000000000D+01
-.332747303192D-04 0.000000000000D+00 0.000000000000D+00 0.527077285769D-06 0.000000000000D+00  6 2 -3 25 2 -3 21 2 0.51855295D+00 0.27758821D-01 0.26284541D+06 0.26284541D+06 0.26284541D+06 0.10888258D+01  1  2  4  1  6  1        2 -.434370331713D-04 0.100000000000D+01
  </mgrwgt>
  </event>
  <event>
  5     66 0.21964403E-05 0.81184584E+02 0.75467711E-02 0.86260935E-01
        2 -1    0    0  502    0 0.00000000E+00 0.00000000E+00 0.31298250E+04 0.31298250E+04 0.32000000E+00 0.0000E+00 0.9000E+01
       -3 -1    0    0    0  501 0.00000000E+00 0.00000000E+00 -.27767916E+03 0.27767961E+03 0.50000000E+00 0.0000E+00 0.9000E+01
       25  1    1    2    0    0 -.14492941E+03 0.59812409E+03 0.64470742E+03 0.90001646E+03 0.12500000E+03 0.0000E+00 0.9000E+01
        2  1    1    2  502    0 0.64220570E+02 0.49701069E+02 0.16414743E+04 0.16434819E+04 0.32000000E+00 0.0000E+00 0.9000E+01
       -3  1    1    2    0  501 0.80708838E+02 -.64782516E+03 0.56596407E+03 0.86400633E+03 0.50000000E+00 0.0000E+00 0.9000E+01
#aMCatNLO 1  0  0  2  5 0.31906605D+02 0.00000000D+00  -5  6  0 0.00000000D+00 0.00000000D+00 0.00000000D+00 0.00000000D+00 0.00000000D+00
  <mgrwgt>
 0.7116114490D-02    3    2    0
 0.932248887096299D+03 0.000000000000000D+00 0.000000000000000D+00 0.932248887096299D+03
 0.932248887096299D+03 0.000000000000000D+00 0.000000000000000D+00 -.932248887096299D+03
 0.658705931769682D+03 -.144937503716387D+03 0.598226901443373D+03 -.198459565036528D+03
 0.492465580349546D+03 0.642033244123709D+02 0.496877222492573D+02 0.485727713046204D+03
 0.713326262073370D+03 0.807341793040159D+02 -.647914623692631D+03 -.287268148009677D+03
 0.000000000000000D+00 -.000000000000000D+00 -.000000000000000D+00 0.000000000000000D+00
 0.158028637056508D+04 0.000000000000000D+00 0.000000000000000D+00 0.158028637056508D+04
 0.117519552408613D+04 0.000000000000000D+00 0.000000000000000D+00 -.117519552408613D+04
 0.852956104414143D+03 -.802502579699174D+01 0.820035679750473D+03 -.198459565036528D+03
 0.549662897962241D+03 0.158589760573876D+03 0.202601031626874D+03 0.485727713046204D+03
 0.576151725347648D+03 0.197523264598513D+03 -.458707294145742D+03 -.287268148009677D+03
 0.776711166927174D+03 -.348087999375397D+03 -.563929417231605D+03 0.405090846478944D+03
0.154112616886D-01 0.000000000000D+00 0.000000000000D+00 0.457623029591D-06 0.000000000000D+00  6 2 -3 25 2 -3 21 0 0.48151157D+00 0.42719907D-01 0.46390265D+06 0.46390265D+06 0.46390265D+06 0.10708180D+01  1  2  2  2  6  2       -3 0.102221504923D-01 0.100000000000D+01
0.432876170775D-02 0.000000000000D+00 -.591833027627D-04 0.457623029591D-06 0.000000000000D+00  6 2 -3 25 2 -3 21 2 0.48151157D+00 0.42719907D-01 0.46390265D+06 0.46390265D+06 0.46390265D+06 0.10708180D+01  1  2  3  2  6  2       -3 0.329229754785D-02 0.100000000000D+01
-.841262396886D-02 0.000000000000D+00 0.000000000000D+00 0.457623029591D-06 0.000000000000D+00  6 2 -3 25 2 -3 21 2 0.48151157D+00 0.42719907D-01 0.46390265D+06 0.46390265D+06 0.46390265D+06 0.10708180D+01  1  2 15  2  6  2       -3 -.639833354979D-02 0.100000000000D+01
  </mgrwgt>
  </event>
  <event>
  6     66 0.21964403E-05 0.33122444E+02 0.75467711E-02 0.94783656E-01
        2 -1    0    0  502    0 0.00000000E+00 0.00000000E+00 0.64038201E+03 0.64038209E+03 0.32000000E+00 0.0000E+00 0.9000E+01
       21 -1    0    0  503  501 0.00000000E+00 0.00000000E+00 -.10623508E+04 0.10623511E+04 0.75000000E+00 0.0000E+00 0.9000E+01
       25  1    1    2    0    0 0.12780786E+03 -.43423694E+03 -.39134138E+03 0.61128524E+03 0.12500000E+03 0.0000E+00 0.9000E+01
        2  1    1    2  502    0 0.27880810E+02 0.36592136E+02 0.35283871E+03 0.35582521E+03 0.32000000E+00 0.0000E+00 0.9000E+01
        3  1    1    2  503    0 0.24073323E+02 -.90978918E+01 -.27721821E+03 0.27841064E+03 0.50000000E+00 0.0000E+00 0.9000E+01
       -3  1    1    2    0  501 -.17976199E+03 0.40674269E+03 -.10624790E+03 0.45721205E+03 0.50000000E+00 0.0000E+00 0.9000E+01
#aMCatNLO 2  0  0  2  5 0.25735122D+02 0.00000000D+00  -5  6  0 0.00000000D+00 0.00000000D+00 0.00000000D+00 0.00000000D+00 0.00000000D+00
  <mgrwgt>
 0.4010668845D-04    2    2    0
 0.708357179780554D+03 0.000000000000000D+00 0.000000000000000D+00 0.708357179780554D+03
 0.708357179780554D+03 0.000000000000000D+00 0.000000000000000D+00 -.708357179780554D+03
 0.579580117791600D+03 0.137644958900691D+03 -.438019214412433D+03 -.330879352686243D+03
 0.393909705874199D+03 0.345629446123805D+02 0.340529481336715D+02 0.390910035641227D+03
 0.000000000000000D+00 0.000000000000000D+00 -.000000000000000D+00 -.000000000000000D+00
 0.443224535895309D+03 -.172207903513072D+03 0.403966266278761D+03 -.600306829549834D+02
 0.709134017064111D+03 0.000000000000000D+00 0.000000000000000D+00 0.709134017064111D+03
 0.959353431186638D+03 0.000000000000000D+00 0.000000000000000D+00 -.959353431186638D+03
 0.574523939195168D+03 0.127840290906118D+03 -.434313792890929D+03 -.330879352686243D+03
 0.393606067734474D+03 0.278726200667050D+02 0.365813838309445D+02 0.390910035641227D+03
 0.251539364131114D+03 0.240733227656425D+02 -.909789177147892D+01 -.250219414122527D+03
 0.448818077189994D+03 -.179786233738466D+03 0.406830300831464D+03 -.600306829549834D+02
-.500068686398D-04 0.000000000000D+00 0.000000000000D+00 0.614139814728D-06 0.000000000000D+00  6 2 21 25 2 3 -3 2 0.98412375D-01 0.16369260D+00 0.24314149D+06 0.24314149D+06 0.24314149D+06 0.10913691D+01  1  2 13  6  5  2       -3 -.656514130871D-03 0.100000000000D+01
0.528764068551D-04 0.000000000000D+00 0.000000000000D+00 0.614139814728D-06 0.252955350763D-09  6 2 21 25 2 3 -3 2 0.98520301D-01 0.16343855D+00 0.24314149D+06 0.24314149D+06 0.24314149D+06 0.10913691D+01  1  2  1  6  5  2       -3 0.696620819320D-03 0.100000000000D+01
  </mgrwgt>
  </event>
  <event>
  5     66 -.21964403E-05 0.22662065E+03 0.75467711E-02 0.91557325E-01
        4 -1    0    0  502    0 0.00000000E+00 0.00000000E+00 0.58950777E+03 0.58950981E+03 0.15500000E+01 0.0000E+00 0.9000E+01
       -1 -1    0    0    0  501 -.00000000E+00 -.00000000E+00 -.99060458E+03 0.99060463E+03 0.32000000E+00 0.0000E+00 0.9000E+01
       25  1    1    2    0    0 -.15591843E+03 0.58322824E+03 -.29681731E+03 0.68424502E+03 0.12500000E+03 0.0000E+00 0.9000E+01
        4  1    1    2  502    0 -.45464433E+02 -.47988138E+03 0.19555364E+03 0.52018918E+03 0.15500000E+01 0.0000E+00 0.9000E+01
       -1  1    1    2    0  501 0.20138286E+03 -.10334686E+03 -.29983313E+03 0.37568024E+03 0.32000000E+00 0.0000E+00 0.9000E+01
#aMCatNLO 1  0  0  4  1 0.29054857D+02 0.00000000D+00  -5  6  0 0.00000000D+00 0.00000000D+00 0.00000000D+00 0.00000000D+00 0.00000000D+00
  <mgrwgt>
 -.6993704799D-05    7    2    0
 0.764179785948781D+03 0.000000000000000D+00 0.000000000000000D+00 0.764179785948781D+03
 0.764179785948781D+03 -.000000000000000D+00 -.000000000000000D+00 -.764179785948781D+03
 0.629425135776165D+03 -.156131960890763D+03 0.583182058874171D+03 -.126777358161983D+03
 0.588796722456155D+03 -.454392794620266D+02 -.479615882098095D+03 0.338504738366169D+03
 0.310137713665241D+03 0.201571240352789D+03 -.103566176776077D+03 -.211727380204185D+03
 0.000000000000000D+00 0.000000000000000D+00 0.000000000000000D+00 0.000000000000000D+00
 0.764179785948781D+03 0.000000000000000D+00 0.000000000000000D+00 0.764179785948781D+03
 0.764179785948781D+03 -.000000000000000D+00 -.000000000000000D+00 -.764179785948781D+03
 0.628408239509098D+03 -.156224165745469D+03 0.582208827932852D+03 -.126090468303958D+03
 0.264314196833304D+03 -.274148896343226D+02 -.229782876183537D+03 0.127711582430075D+03
 0.310037742530330D+03 0.201525778697093D+03 -.104046028841442D+03 -.211388708771683D+03
 0.325599393024828D+03 -.178867233173010D+02 -.248379922907872D+03 0.209767594645566D+03
0.298134946187D-05 0.000000000000D+00 0.000000000000D+00 0.107676214926D-07 0.000000000000D+00  6 4 -1 25 4 -1 21 0 0.90693664D-01 0.15240086D+00 0.43884633D+06 0.43884633D+06 0.43884633D+06 0.10725378D+01  1  2  2  3  6  4        4 0.483228429900D-06 0.100000000000D+01
0.127221792983D-06 0.000000000000D+00 -.114491669409D-07 0.107676214926D-07 0.000000000000D+00  6 4 -1 25 4 -1 21 2 0.90693664D-01 0.15240086D+00 0.43884633D+06 0.43884633D+06 0.43884633D+06 0.10725378D+01  1  2  3  3  6  4        4 0.237206367322D-07 0.100000000000D+01
-.158462990648D-05 0.000000000000D+00 0.000000000000D+00 0.107676214926D-07 0.000000000000D+00  6 4 -1 25 4 -1 21 2 0.90693664D-01 0.15240086D+00 0.43884633D+06 0.43884633D+06 0.43884633D+06 0.10725378D+01  1  2 15  3  6  4        4 -.295455908028D-06 0.100000000000D+01
0.458980272239D-04 0.000000000000D+00 0.000000000000D+00 0.107676214926D-07 0.000000000000D+00  6 4 -1 25 4 -1 21 2 0.90693664D-01 0.15240086D+00 0.43749216D+06 0.43749216D+06 0.43749216D+06 0.10726338D+01  1  2 12  3  6  4        4 0.856033546838D-05 0.100000000000D+01
-.115120974379D-03 0.000000000000D+00 0.000000000000D+00 0.107676214926D-07 0.000000000000D+00  6 4 -1 25 4 -1 21 2 0.90693664D-01 0.15240086D+00 0.43884633D+06 0.43884633D+06 0.43884633D+06 0.10725378D+01  1  2  4  3  6  4        4 -.214644264122D-04 0.100000000000D+01
-.458301480007D-04 0.000000000000D+00 0.000000000000D+00 0.107676214926D-07 0.000000000000D+00  6 4 -1 25 4 -1 21 2 0.90693664D-01 0.15240086D+00 0.43884633D+06 0.43884633D+06 0.43884633D+06 0.10725378D+01  1  2  5  3  6  4        4 -.854507916151D-05 0.100000000000D+01
0.763952374598D-04 0.000000000000D+00 -.000000000000D+00 0.107676214926D-07 0.000000000000D+00  6 4 -1 25 4 -1 21 2 0.90693664D-01 0.15240086D+00 0.43884633D+06 0.43884633D+06 0.43884633D+06 0.10725378D+01  1  2  6  3  6  4        4 0.142439721479D-04 0.100000000000D+01
  </mgrwgt>
  </event>
  <event>
  5     66 0.21964403E-05 0.28936859E+02 0.75467711E-02 0.88085672E-01
        2 -1    0    0  502    0 0.00000000E+00 0.00000000E+00 0.22986610E+04 0.22986611E+04 0.32000000E+00 0.0000E+00 0.9000E+01
       -3 -1    0    0    0  501 0.00000000E+00 0.00000000E+00 -.57251076E+03 0.57251098E+03 0.50000000E+00 0.0000E+00 0.9000E+01
       25  1    1    2    0    0 -.44144715E+03 -.50764280E+03 0.52309598E+03 0.86129623E+03 0.12500000E+03 0.0000E+00 0.9000E+01
        2  1    1    2  502    0 0.47037595E+03 0.50706148E+03 0.15313553E+04 0.16803018E+04 0.32000000E+00 0.0000E+00 0.9000E+01
       -3  1    1    2    0  501 -.28928798E+02 0.58132011E+00 -.32830103E+03 0.32957401E+03 0.50000000E+00 0.0000E+00 0.9000E+01
#aMCatNLO 1  0  0  2  5 0.32061001D+02 0.00000000D+00  -5  6  0 0.00000000D+00 0.00000000D+00 0.00000000D+00 0.00000000D+00 0.00000000D+00
  <mgrwgt>
 0.2030687603D-02    7    4    0
 0.114717414617690D+04 0.000000000000000D+00 0.000000000000000D+00 0.114717414617690D+04
 0.114717414617690D+04 0.000000000000000D+00 0.000000000000000D+00 -.114717414617690D+04
 0.684261776584937D+03 -.441429436317166D+03 -.507626333205407D+03 0.668860854864727D+01
 0.950602885783910D+03 0.470360450631848D+03 0.507044769388515D+03 0.652159869033545D+03
 0.659483629984947D+03 -.289310143146820D+02 0.581563816892185D+00 -.658848477582192D+03
 0.000000000000000D+00 0.000000000000000D+00 0.000000000000000D+00 -.000000000000000D+00
 0.131541542585671D+04 0.000000000000000D+00 0.000000000000000D+00 0.131541542585671D+04
 0.139594873122141D+04 0.000000000000000D+00 0.000000000000000D+00 -.139594873122141D+04
 0.801730201831053D+03 -.538614365816186D+03 -.580513689743981D+03 0.668860854864727D+01
 0.851381229223706D+03 0.352509411245991D+03 0.418658115506701D+03 0.652159869033545D+03
 0.672109995348877D+03 -.116018181997350D+03 -.647326106496864D+02 -.658848477582192D+03
 0.386142730674483D+03 0.302123136567545D+03 0.226588184886966D+03 -.805333053647053D+02
 0.114717414617690D+04 0.000000000000000D+00 0.000000000000000D+00 0.114717414617690D+04
 0.114717414617690D+04 0.000000000000000D+00 0.000000000000000D+00 -.114717414617690D+04
 0.684261776584937D+03 -.441429436317166D+03 -.507626333205407D+03 0.668860854864727D+01
 0.950602885783910D+03 0.470360450631848D+03 0.507044769388515D+03 0.652159869033545D+03
 0.000000000000000D+00 0.000000000000000D+00 0.000000000000000D+00 -.000000000000000D+00
 0.659483629984947D+03 -.289310143146820D+02 0.581563816892185D+00 -.658848477582192D+03
 0.131541542585671D+04 0.000000000000000D+00 0.000000000000000D+00 0.131541542585671D+04
 0.139594873122141D+04 0.000000000000000D+00 0.000000000000000D+00 -.139594873122141D+04
 0.801730201831053D+03 -.538614365816186D+03 -.580513689743981D+03 0.668860854864727D+01
 0.851381229223706D+03 0.352509411245991D+03 0.418658115506701D+03 0.652159869033545D+03
 0.386142730674483D+03 0.302123136567545D+03 0.226588184886966D+03 -.805333053647053D+02
 0.672109995348877D+03 -.116018181997350D+03 -.647326106496864D+02 -.658848477582192D+03
0.250462430504D-02 0.000000000000D+00 0.000000000000D+00 0.908503575000D-05 0.000000000000D+00  6 2 -3 25 2 -3 21 0 0.35364018D+00 0.88078597D-01 0.49335341D+06 0.49335341D+06 0.49335341D+06 0.10689214D+01  1  2  2  2  6  2       -3 0.104741220272D-02 0.100000000000D+01
0.177950778714D-02 0.000000000000D+00 -.961841681406D-05 0.908503575000D-05 0.000000000000D+00  6 2 -3 25 2 -3 21 2 0.35364018D+00 0.88078597D-01 0.49335341D+06 0.49335341D+06 0.49335341D+06 0.10689214D+01  1  2  3  2  6  2       -3 0.850288815906D-03 0.100000000000D+01
-.165997695785D-02 0.000000000000D+00 0.000000000000D+00 0.908503575000D-05 0.000000000000D+00  6 2 -3 25 2 -3 21 2 0.35364018D+00 0.88078597D-01 0.49335341D+06 0.49335341D+06 0.49335341D+06 0.10689214D+01  1  2 15  2  6  2       -3 -.793174299164D-03 0.100000000000D+01
-.170475525848D-03 0.000000000000D+00 0.000000000000D+00 0.908503575000D-05 0.000000000000D+00  6 2 -3 25 2 -3 21 2 0.35364018D+00 0.88078597D-01 0.49335341D+06 0.49335341D+06 0.49335341D+06 0.10689214D+01  1  2  4  2  6  2       -3 -.814570377615D-04 0.100000000000D+01
-.348113487739D-02 0.000000000000D+00 -.208567055925D-02 0.908503575000D-05 0.000000000000D+00  6 2 -3 25 2 -3 21 2 0.35364018D+00 0.12313680D+00 0.49335341D+06 0.49335341D+06 0.49335341D+06 0.10689214D+01  1  2  5  2  6  2       -3 -.677207316459D-03 0.100000000000D+01
0.406167180167D-02 0.000000000000D+00 0.197382966726D-02 0.908503575000D-05 0.000000000000D+00  6 2 -3 25 2 -3 21 2 0.35364018D+00 0.88078597D-01 0.49335341D+06 0.49335341D+06 0.49335341D+06 0.10689214D+01  1  2  6  2  6  2       -3 0.194075807468D-02 0.100000000000D+01
-.904099129959D-04 0.000000000000D+00 -.873102357717D-04 0.908503575000D-05 0.000000000000D+00  6 2 21 25 2 3 -3 2 0.35364018D+00 0.12313680D+00 0.49335341D+06 0.49335341D+06 0.49335341D+06 0.10689214D+01  3  4  5  6  5  2       -3 -.255932837216D-03 0.100000000000D+01
  </mgrwgt>
  </event>
  <event>
  5     66 0.21964403E-05 0.80834460E+02 0.75467711E-02 0.89532944E-01
        2 -1    0    0  502    0 0.00000000E+00 0.00000000E+00 0.16935932E+04 0.16935932E+04 0.32000000E+00 0.0000E+00 0.9000E+01
       -3 -1    0    0    0  501 0.00000000E+00 0.00000000E+00 -.75576985E+03 0.75577002E+03 0.50000000E+00 0.0000E+00 0.9000E+01
       25  1    1    2    0    0 -.52119073E+03 -.34647068E+03 0.26360702E+03 0.69050371E+03 0.12500000E+03 0.0000E+00 0.9000E+01
        2  1    1    2  502    0 0.48264467E+02 -.64859472E+02 0.10333328E+04 0.10364908E+04 0.32000000E+00 0.0000E+00 0.9000E+01
       -3  1    1    2    0  501 0.47292626E+03 0.41133015E+03 -.35911652E+03 0.72236879E+03 0.50000000E+00 0.0000E+00 0.9000E+01
#aMCatNLO 1  0  0  2  2 0.30903588D+03 0.00000000D+00  -5  6  0 0.00000000D+00 0.00000000D+00 0.00000000D+00 0.00000000D+00 0.00000000D+00
  <mgrwgt>
 0.2048885259D-02    4    2    0
 0.113135623173004D+04 0.000000000000000D+00 0.000000000000000D+00 0.113135623173004D+04
 0.113135623173004D+04 0.000000000000000D+00 0.000000000000000D+00 -.113135623173004D+04
 0.638281174985197D+03 -.521245346306729D+03 -.346526429738852D+03 -.762093502605524D+00
 0.693600442173685D+03 0.482570827002625D+02 -.648495485255123D+02 0.688873982241185D+03
 0.930830846301195D+03 0.472988263606467D+03 0.411375978264364D+03 -.688111888738579D+03
 0.000000000000000D+00 -.000000000000000D+00 -.000000000000000D+00 0.000000000000000D+00
 0.153031682131059D+04 0.000000000000000D+00 0.000000000000000D+00 0.153031682131059D+04
 0.115974209948161D+04 0.000000000000000D+00 0.000000000000000D+00 -.115974209948161D+04
 0.595493429352896D+03 -.468077767351210D+03 -.346251422130614D+03 -.762093502605524D+00
 0.700319297790478D+03 0.108325864770842D+03 -.645388446640327D+02 0.688873982241185D+03
 0.975319509167319D+03 0.555130819604232D+03 0.411800858018216D+03 -.688111888738579D+03
 0.418926684481508D+03 -.195378917023864D+03 -.101059122356890D+01 0.370574721828985D+03
0.658509649140D-02 0.000000000000D+00 0.000000000000D+00 0.381803685578D-05 0.000000000000D+00  6 2 -3 25 2 -3 21 0 0.26055282D+00 0.11627230D+00 0.45290942D+06 0.45290942D+06 0.45290942D+06 0.10715598D+01  1  2  2  2  6  2       -3 0.287815078189D-02 0.100000000000D+01
0.216081856632D-02 0.000000000000D+00 -.252885044227D-04 0.381803685578D-05 0.000000000000D+00  6 2 -3 25 2 -3 21 2 0.26055282D+00 0.11627230D+00 0.45290942D+06 0.45290942D+06 0.45290942D+06 0.10715598D+01  1  2  3  2  6  2       -3 0.108443248412D-02 0.100000000000D+01
-.380023194405D-02 0.000000000000D+00 0.000000000000D+00 0.381803685578D-05 0.000000000000D+00  6 2 -3 25 2 -3 21 2 0.26055282D+00 0.11627230D+00 0.45290942D+06 0.45290942D+06 0.45290942D+06 0.10715598D+01  1  2 15  2  6  2       -3 -.190719157617D-02 0.100000000000D+01
-.129645837599D-04 0.000000000000D+00 0.000000000000D+00 0.381803685578D-05 0.000000000000D+00  6 2 -3 25 2 -3 21 2 0.26055282D+00 0.11627230D+00 0.45290942D+06 0.45290942D+06 0.45290942D+06 0.10715598D+01  1  2  4  2  6  2       -3 -.650643047565D-05 0.100000000000D+01
  </mgrwgt>
  </event>
  <event>
  6     66 -.21964403E-05 0.81825921E+02 0.75467711E-02 0.94995069E-01
        2 -1    0    0  502    0 0.00000000E+00 0.00000000E+00 0.21467657E+04 0.21467657E+04 0.32000000E+00 0.0000E+00 0.9000E+01
       -3 -1    0    0    0  501 0.00000000E+00 0.00000000E+00 -.25380572E+03 0.25380621E+03 0.50000000E+00 0.0000E+00 0.9000E+01
       25  1    1    2    0    0 -.22994863E+03 0.41110008E+03 0.29331307E+03 0.56880331E+03 0.12500000E+03 0.0000E+00 0.9000E+01
        2  1    1    2  503    0 0.20126213E+02 -.69423813E+01 0.57432284E+03 0.57471739E+03 0.32000000E+00 0.0000E+00 0.9000E+01
       -3  1    1    2    0  501 0.14822960E+03 -.33523101E+03 0.18302587E+03 0.40969570E+03 0.50000000E+00 0.0000E+00 0.9000E+01
       21  1    1    2  502  503 0.61592810E+02 -.68926685E+02 0.84229823E+03 0.84735555E+03 0.75000000E+00 0.0000E+00 0.9000E+01
#aMCatNLO 2  0  0  4  1 0.26958992D+02 0.00000000D+00  -5  6  0 0.00000000D+00 0.00000000D+00 0.00000000D+00 0.00000000D+00 0.00000000D+00
  <mgrwgt>
 -.2034803118D-02    2    2    0
 0.738147705670082D+03 0.000000000000000D+00 0.000000000000000D+00 0.738147705670082D+03
 0.738147705670082D+03 -.000000000000000D+00 -.000000000000000D+00 -.738147705670082D+03
 0.549611430261369D+03 -.230230617137653D+03 0.411497310134706D+03 -.253202588766910D+03
 0.494609197115269D+03 0.820053616555408D+02 -.761349069519670D+02 0.481785070829484D+03
 0.432074783963525D+03 0.148225255482112D+03 -.335362403182739D+03 -.228582482062574D+03
 0.000000000000000D+00 0.000000000000000D+00 -.000000000000000D+00 0.000000000000000D+00
 0.738147705670082D+03 0.000000000000000D+00 0.000000000000000D+00 0.738147705670082D+03
 0.738147705670082D+03 -.000000000000000D+00 -.000000000000000D+00 -.738147705670082D+03
 0.548888032966277D+03 -.230041089421511D+03 0.411321349993296D+03 -.252089105181175D+03
 0.197625609977659D+03 0.200646544590945D+02 -.690393806497784D+01 0.196483146859148D+03
 0.431770904280010D+03 0.148374297612648D+03 -.335500775948997D+03 -.227706853055308D+03
 0.298010864116218D+03 0.616021373497680D+02 -.689166359793206D+02 0.283312811377334D+03
-.104762615713D-02 0.000000000000D+00 0.000000000000D+00 0.728749279993D-06 0.000000000000D+00  6 2 -3 25 2 -3 21 2 0.33027169D+00 0.39047073D-01 0.23429236D+06 0.23429236D+06 0.23429236D+06 0.10925856D+01  1  2 13  3  6  4        2 -.397867183594D-02 0.100000000000D+01
0.511841086459D-03 0.000000000000D+00 0.000000000000D+00 0.728749279993D-06 0.654490778506D-09  6 2 -3 25 2 -3 21 2 0.33027169D+00 0.39047073D-01 0.23429236D+06 0.23429236D+06 0.23429236D+06 0.10925856D+01  1  2  1  3  6  4        2 0.194386871816D-02 0.100000000000D+01
  </mgrwgt>
  </event>
  <event>
  5     66 0.21964403E-05 0.47237142E+02 0.75467711E-02 0.93274704E-01
        2 -1    0    0  502    0 0.00000000E+00 0.00000000E+00 0.95151837E+03 0.95151843E+03 0.32000000E+00 0.0000E+00 0.9000E+01
       -3 -1    0    0    0  501 0.00000000E+00 0.00000000E+00 -.74215035E+03 0.74215052E+03 0.50000000E+00 0.0000E+00 0.9000E+01
       25  1    1    2    0    0 0.30673832E+03 -.41049154E+03 -.13128672E+03 0.54355579E+03 0.12500000E+03 0.0000E+00 0.9000E+01
        2  1    1    2  502    0 -.31213914E+03 0.45742338E+03 0.64042257E+03 0.84664524E+03 0.32000000E+00 0.0000E+00 0.9000E+01
       -3  1    1    2    0  501 0.54008224E+01 -.46931837E+02 -.29976784E+03 0.30346791E+03 0.50000000E+00 0.0000E+00 0.9000E+01
#aMCatNLO 1  0  0  5  4 0.11176399D+00 0.00000000D+00  -5  6  0 0.00000000D+00 0.00000000D+00 0.00000000D+00 0.00000000D+00 0.00000000D+00
  <mgrwgt>
 0.2527711886D-03    7    2    0
 0.840339147148760D+03 0.000000000000000D+00 0.000000000000000D+00 0.840339147148760D+03
 0.840339147148760D+03 -.000000000000000D+00 -.000000000000000D+00 -.840339147148760D+03
 0.564137794620703D+03 0.306743228132261D+03 -.410502245248672D+03 -.200057366673435D+03
 0.773420223690938D+03 -.312143450722933D+03 0.457429691328142D+03 0.539910535252242D+03
 0.343120275985878D+03 0.540022259067186D+01 -.469274460794699D+02 -.339853168578807D+03
 0.000000000000000D+00 0.000000000000000D+00 0.000000000000000D+00 0.000000000000000D+00
 0.840339147148760D+03 0.000000000000000D+00 0.000000000000000D+00 0.840339147148760D+03
 0.840339147148760D+03 -.000000000000000D+00 -.000000000000000D+00 -.840339147148760D+03
 0.564139759348484D+03 0.306743295452196D+03 -.410502830252820D+03 -.200061603330867D+03
 0.773415657411702D+03 -.312143358429250D+03 0.457428889304382D+03 0.539904726917485D+03
 0.342625697555457D+03 0.535956162399392D+01 -.467540586723678D+02 -.339378404914371D+03
 0.497179981875955D+00 0.405013530602030D-01 -.172000379194588D+00 -.464718672247399D+00
0.173619177023D-04 0.000000000000D+00 0.000000000000D+00 0.312257717665D-05 0.000000000000D+00  6 2 -3 25 2 -3 21 0 0.14638746D+00 0.11417699D+00 0.31837451D+06 0.31837451D+06 0.31837451D+06 0.10826470D+01  1  2  2  4  6  5       -3 0.217108821293D-04 0.100000000000D+01
0.590209562484D-05 0.000000000000D+00 -.666743354748D-07 0.312257717665D-05 0.000000000000D+00  6 2 -3 25 2 -3 21 2 0.14638746D+00 0.11417699D+00 0.31837451D+06 0.31837451D+06 0.31837451D+06 0.10826470D+01  1  2  3  4  6  5       -3 0.865086910343D-05 0.100000000000D+01
-.107141105394D-04 0.000000000000D+00 0.000000000000D+00 0.312257717665D-05 0.000000000000D+00  6 2 -3 25 2 -3 21 2 0.14638746D+00 0.11417699D+00 0.31837451D+06 0.31837451D+06 0.31837451D+06 0.10826470D+01  1  2 15  4  6  5       -3 -.157039759651D-04 0.100000000000D+01
-.171778600986D-01 0.000000000000D+00 0.000000000000D+00 0.312257717665D-05 0.000000000000D+00  6 2 -3 25 2 -3 21 2 0.14638746D+00 0.11417699D+00 0.31837451D+06 0.31837451D+06 0.31837451D+06 0.10826470D+01  1  2  4  4  6  5       -3 -.251780771841D-01 0.100000000000D+01
-.123649401508D+00 0.000000000000D+00 0.000000000000D+00 0.312257717665D-05 0.000000000000D+00  6 2 -3 25 2 -3 21 2 0.14638746D+00 0.11417699D+00 0.31837451D+06 0.31837451D+06 0.31837451D+06 0.10826470D+01  1  2  5  4  6  5       -3 -.181236437896D+00 0.100000000000D+01
0.123865046737D+00 0.000000000000D+00 -.000000000000D+00 0.312257717665D-05 0.000000000000D+00  6 2 -3 25 2 -3 21 2 0.14638746D+00 0.11417699D+00 0.31837451D+06 0.31837451D+06 0.31837451D+06 0.10826470D+01  1  2  6  4  6  5       -3 0.181552515229D+00 0.100000000000D+01
0.171246675963D-01 0.000000000000D+00 0.000000000000D+00 0.312257717665D-05 0.226899407360D-03  6 2 -3 25 2 -3 21 2 0.14638746D+00 0.11417699D+00 0.31837428D+06 0.31837428D+06 0.31837428D+06 0.10826470D+01  1  2 11  4  6  5       -3 0.251001132645D-01 0.100000000000D+01
  </mgrwgt>
  </event>
</LesHouchesEvents>
