<event>
 5    0  0.3120399E-003  0.3726177E+03  0.7546771E-02  0.1053697E+00
         21   -1    0    0  504  501  0.00000000000E+00  0.00000000000E+00  0.19651916069E+03  0.19651916069E+03  0.00000000000E+00 0.  1.
         21   -1    0    0  501  502 -0.00000000000E+00 -0.00000000000E+00 -0.76540580278E+03  0.76540580278E+03  0.00000000000E+00 0.  1.
         25    1    1    2    0    0  0.30750188845E+03 -0.23239136832E+02 -0.25090254259E+03  0.41674279209E+03  0.12500000000E+03 0.  0.
         21    1    1    2  503  502 -0.32324999807E+03 -0.13777288943E+02 -0.36202602636E+03  0.48553395217E+03  0.00000000000E+00 0.  1.
         21    1    1    2  504  503  0.15748109625E+02  0.37016425775E+02  0.44041926864E+02  0.59648219217E+02  0.00000000000E+00 0.  1.
<mgrwt>
<rscale>  4 0.37261765E+03</rscale>
<asrwt>0</asrwt>
<pdfrwt beam="1">  1       21 0.30233717E-01 0.37261765E+03</pdfrwt>
<pdfrwt beam="2">  1       21 0.11775474E+00 0.37261765E+03</pdfrwt>
<totfact> 0.52399112E+03</totfact>
</mgrwt>
</event>
<event>
 5    0  0.3120399E-003  0.3623971E+03  0.7546771E-02  0.1057639E+00
         21   -1    0    0  504  501  0.00000000000E+00  0.00000000000E+00  0.29564914731E+03  0.29564914731E+03  0.00000000000E+00 0.  1.
         21   -1    0    0  501  502 -0.00000000000E+00 -0.00000000000E+00 -0.46860755384E+03  0.46860755384E+03  0.00000000000E+00 0.  1.
         25    1    1    2    0    0  0.92712784354E+01 -0.29409492699E+03 -0.40276977554E+02  0.32221889703E+03  0.12500000000E+03 0.  0.
         21    1    1    2  503  502 -0.73898510528E+02 -0.23987254686E+01 -0.11671404427E+03  0.13816262835E+03  0.00000000000E+00 0. -1.
         21    1    1    2  504  503  0.64627232093E+02  0.29649365245E+03 -0.15967384698E+02  0.30387517577E+03  0.00000000000E+00 0.  1.
<mgrwt>
<rscale>  4 0.36239712E+03</rscale>
<asrwt>0</asrwt>
<pdfrwt beam="1">  1       21 0.45484484E-01 0.36239712E+03</pdfrwt>
<pdfrwt beam="2">  1       21 0.72093470E-01 0.36239712E+03</pdfrwt>
<totfact> 0.73520605E+03</totfact>
</mgrwt>
</event>
<event>
 5    0  0.3120399E-003  0.5535320E+03  0.7546771E-02  0.1000680E+00
         21   -1    0    0  502  501  0.00000000000E+00  0.00000000000E+00  0.37049761319E+03  0.37049761319E+03  0.00000000000E+00 0.  1.
         21   -1    0    0  503  502 -0.00000000000E+00 -0.00000000000E+00 -0.91111119792E+03  0.91111119792E+03  0.00000000000E+00 0.  1.
         25    1    1    2    0    0 -0.15113226980E+02 -0.32214840164E+03 -0.15516777614E+03  0.37909107225E+03  0.12500000000E+03 0.  0.
         21    1    1    2  503  504  0.18376556242E+03  0.47399126943E+03 -0.43633672605E+03  0.66994570222E+03  0.00000000000E+00 0.  1.
         21    1    1    2  504  501 -0.16865233544E+03 -0.15184286779E+03  0.50890917463E+02  0.23257203664E+03  0.00000000000E+00 0.  1.
<mgrwt>
<rscale>  4 0.55353197E+03</rscale>
<asrwt>0</asrwt>
<pdfrwt beam="1">  1       21 0.56999633E-01 0.55353197E+03</pdfrwt>
<pdfrwt beam="2">  1       21 0.14017095E+00 0.55353197E+03</pdfrwt>
<totfact> 0.83629654E+02</totfact>
</mgrwt>
</event>
<event>
 5    0  0.3120399E-003  0.4842989E+03  0.7546771E-02  0.1017960E+00
         21   -1    0    0  504  501  0.00000000000E+00  0.00000000000E+00  0.88733500830E+03  0.88733500830E+03  0.00000000000E+00 0. -1.
         21   -1    0    0  501  502 -0.00000000000E+00 -0.00000000000E+00 -0.26950645296E+03  0.26950645296E+03  0.00000000000E+00 0. -1.
         25    1    1    2    0    0 -0.42072207266E+03  0.30344691468E+01  0.25371618874E+03  0.50696466825E+03  0.12500000000E+03 0.  0.
         21    1    1    2  503  502  0.43415201665E+01 -0.10718052035E+03  0.52148019552E+02  0.11927249760E+03  0.00000000000E+00 0.  1.
         21    1    1    2  504  503  0.41638055249E+03  0.10414605120E+03  0.31196434705E+03  0.53060429541E+03  0.00000000000E+00 0. -1.
<mgrwt>
<rscale>  4 0.48429887E+03</rscale>
<asrwt>0</asrwt>
<pdfrwt beam="1">  1       21 0.13651308E+00 0.48429887E+03</pdfrwt>
<pdfrwt beam="2">  1       21 0.41462532E-01 0.48429887E+03</pdfrwt>
<totfact> 0.18088524E+03</totfact>
</mgrwt>
</event>
<event>
 5    0  0.3120399E-003  0.3695194E+03  0.7546771E-02  0.1054877E+00
         21   -1    0    0  504  501  0.00000000000E+00  0.00000000000E+00  0.15204740069E+04  0.15204740069E+04  0.00000000000E+00 0. -1.
         21   -1    0    0  501  502 -0.00000000000E+00 -0.00000000000E+00 -0.11750168425E+03  0.11750168425E+03  0.00000000000E+00 0. -1.
         25    1    1    2    0    0 -0.28632130477E+03  0.15864644190E+03  0.32462852817E+03  0.47765810408E+03  0.12500000000E+03 0.  0.
         21    1    1    2  503  502 -0.27643406843E+02 -0.56561008856E+02  0.50355871397E+02  0.80616496133E+02  0.00000000000E+00 0.  1.
         21    1    1    2  504  503  0.31396471162E+03 -0.10208543304E+03  0.10279879231E+04  0.10797010910E+04  0.00000000000E+00 0. -1.
<mgrwt>
<rscale>  4 0.36951943E+03</rscale>
<asrwt>0</asrwt>
<pdfrwt beam="1">  1       21 0.23391906E+00 0.36951943E+03</pdfrwt>
<pdfrwt beam="2">  1       21 0.18077183E-01 0.36951943E+03</pdfrwt>
<totfact> 0.20090069E+03</totfact>
</mgrwt>
</event>
<event>
 5    0  0.3120399E-003  0.1490677E+03  0.7546771E-02  0.1201623E+00
         21   -1    0    0  503  501  0.00000000000E+00  0.00000000000E+00  0.69831526690E+03  0.69831526690E+03  0.00000000000E+00 0.  1.
         21   -1    0    0  501  502 -0.00000000000E+00 -0.00000000000E+00 -0.11316884824E+03  0.11316884824E+03  0.00000000000E+00 0.  1.
         25    1    1    2    0    0 -0.11969769005E+03  0.16234553190E+03  0.93276952742E+02  0.25496901507E+03  0.12500000000E+03 0.  0.
         21    1    1    2  503  504 -0.25839261109E+02 -0.40929776907E+02  0.21896194250E+03  0.22424818019E+03  0.00000000000E+00 0. -1.
         21    1    1    2  504  502  0.14553695116E+03 -0.12141575499E+03  0.27290752341E+03  0.33226691988E+03  0.00000000000E+00 0.  1.
<mgrwt>
<rscale>  4 0.14906770E+03</rscale>
<asrwt>0</asrwt>
<pdfrwt beam="1">  1       21 0.10743311E+00 0.14906770E+03</pdfrwt>
<pdfrwt beam="2">  1       21 0.17410593E-01 0.14906770E+03</pdfrwt>
<totfact> 0.21237511E+04</totfact>
</mgrwt>
</event>
<event>
 5    0  0.3120399E-003  0.5077788E+03  0.7546771E-02  0.1011768E+00
         21   -1    0    0  502  501  0.00000000000E+00  0.00000000000E+00  0.51161328756E+03  0.51161328756E+03  0.00000000000E+00 0.  1.
         21   -1    0    0  503  502 -0.00000000000E+00 -0.00000000000E+00 -0.51594886865E+03  0.51594886865E+03  0.00000000000E+00 0.  1.
         25    1    1    2    0    0  0.24250396853E+03  0.16358463823E+03 -0.18784795387E+03  0.36943194555E+03  0.12500000000E+03 0.  0.
         21    1    1    2  503  504 -0.38389748802E+03 -0.22140187324E+03  0.34140901998E+02  0.44447910184E+03  0.00000000000E+00 0.  1.
         21    1    1    2  504  501  0.14139351949E+03  0.57817235009E+02  0.14937147078E+03  0.21365110882E+03  0.00000000000E+00 0.  1.
<mgrwt>
<rscale>  4 0.50777884E+03</rscale>
<asrwt>0</asrwt>
<pdfrwt beam="1">  1       21 0.78709737E-01 0.50777884E+03</pdfrwt>
<pdfrwt beam="2">  1       21 0.79376748E-01 0.50777884E+03</pdfrwt>
<totfact> 0.16836380E+03</totfact>
</mgrwt>
</event>
<event>
 5    0  0.3120399E-003  0.3904555E+03  0.7546771E-02  0.1047136E+00
         21   -1    0    0  503  501  0.00000000000E+00  0.00000000000E+00  0.52569670490E+03  0.52569670490E+03  0.00000000000E+00 0. -1.
         21   -1    0    0  501  502 -0.00000000000E+00 -0.00000000000E+00 -0.30597443028E+03  0.30597443028E+03  0.00000000000E+00 0. -1.
         25    1    1    2    0    0 -0.29572023107E+03 -0.43799461626E+02  0.25149887786E+03  0.41017744144E+03  0.12500000000E+03 0.  0.
         21    1    1    2  503  504  0.29856730330E+03  0.91261409266E+02  0.60199591234E+02  0.31795450964E+03  0.00000000000E+00 0. -1.
         21    1    1    2  504  502 -0.28470722301E+01 -0.47461947640E+02 -0.91976194471E+02  0.10353918410E+03  0.00000000000E+00 0.  1.
<mgrwt>
<rscale>  4 0.39045554E+03</rscale>
<asrwt>0</asrwt>
<pdfrwt beam="1">  1       21 0.80876416E-01 0.39045554E+03</pdfrwt>
<pdfrwt beam="2">  1       21 0.47072989E-01 0.39045554E+03</pdfrwt>
<totfact> 0.52079959E+03</totfact>
</mgrwt>
</event>
<event>
 5    0  0.3120399E-003  0.8115523E+03  0.7546771E-02  0.9543445E-01
         21   -1    0    0  502  501  0.00000000000E+00  0.00000000000E+00  0.61069193907E+03  0.61069193907E+03  0.00000000000E+00 0. -1.
         21   -1    0    0  504  502 -0.00000000000E+00 -0.00000000000E+00 -0.11001871961E+04  0.11001871961E+04  0.00000000000E+00 0. -1.
         25    1    1    2    0    0 -0.32054070852E+03  0.69093620496E+03 -0.72486181927E+02  0.77525378536E+03  0.12500000000E+03 0.  0.
         21    1    1    2  503  501  0.38036576015E+03 -0.64416541503E+03 -0.32315154206E+03  0.81489515433E+03  0.00000000000E+00 0. -1.
         21    1    1    2  504  503 -0.59825051629E+02 -0.46770789932E+02 -0.93857533014E+02  0.12073019546E+03  0.00000000000E+00 0. -1.
<mgrwt>
<rscale>  4 0.81155233E+03</rscale>
<asrwt>0</asrwt>
<pdfrwt beam="1">  1       21 0.93952607E-01 0.81155233E+03</pdfrwt>
<pdfrwt beam="2">  1       21 0.16925957E+00 0.81155233E+03</pdfrwt>
<totfact> 0.14497130E+02</totfact>
</mgrwt>
</event>
<event>
 5    0  0.3120399E-003  0.2234763E+03  0.7546771E-02  0.1131318E+00
         21   -1    0    0  503  501  0.00000000000E+00  0.00000000000E+00  0.12826191321E+03  0.12826191321E+03  0.00000000000E+00 0.  1.
         21   -1    0    0  501  502 -0.00000000000E+00 -0.00000000000E+00 -0.11603009511E+04  0.11603009511E+04  0.00000000000E+00 0.  1.
         25    1    1    2    0    0 -0.21645798705E+03  0.18835681408E+03 -0.46531750232E+03  0.56078313771E+03  0.12500000000E+03 0.  0.
         21    1    1    2  503  504  0.15644668849E+03 -0.12359743352E+03 -0.52693473784E+02  0.20622437802E+03  0.00000000000E+00 0.  1.
         21    1    1    2  504  502  0.60011298564E+02 -0.64759380564E+02 -0.51402806181E+03  0.52155534860E+03  0.00000000000E+00 0.  1.
<mgrwt>
<rscale>  4 0.22347634E+03</rscale>
<asrwt>0</asrwt>
<pdfrwt beam="1">  1       21 0.19732603E-01 0.22347634E+03</pdfrwt>
<pdfrwt beam="2">  1       21 0.17850783E+00 0.22347634E+03</pdfrwt>
<totfact> 0.42935613E+03</totfact>
</mgrwt>
</event>
<event>
 5    0  0.3120399E-003  0.3181685E+03  0.7546771E-02  0.1076495E+00
         21   -1    0    0  504  501  0.00000000000E+00  0.00000000000E+00  0.46926806785E+03  0.46926806785E+03  0.00000000000E+00 0. -1.
         21   -1    0    0  501  502 -0.00000000000E+00 -0.00000000000E+00 -0.54444955103E+03  0.54444955103E+03  0.00000000000E+00 0. -1.
         25    1    1    2    0    0 -0.10757382154E+03 -0.24157720720E+03  0.34697458343E+03  0.45381497955E+03  0.12500000000E+03 0.  0.
         21    1    1    2  503  502  0.16173811404E+03  0.17950775134E+03 -0.41101076499E+03  0.47677258652E+03  0.00000000000E+00 0. -1.
         21    1    1    2  504  503 -0.54164292495E+02  0.62069455859E+02 -0.11145301632E+02  0.83130052812E+02  0.00000000000E+00 0.  1.
<mgrwt>
<rscale>  4 0.31816853E+03</rscale>
<asrwt>0</asrwt>
<pdfrwt beam="1">  1       21 0.72195087E-01 0.31816853E+03</pdfrwt>
<pdfrwt beam="2">  1       21 0.83761470E-01 0.31816853E+03</pdfrwt>
<totfact> 0.19623519E+03</totfact>
</mgrwt>
</event>
<event>
 5    0  0.3120399E-003  0.3834589E+03  0.7546771E-02  0.1049663E+00
         21   -1    0    0  504  501  0.00000000000E+00  0.00000000000E+00  0.14276294811E+03  0.14276294811E+03  0.00000000000E+00 0.  1.
         21   -1    0    0  501  502 -0.00000000000E+00 -0.00000000000E+00 -0.27952151916E+04  0.27952151916E+04  0.00000000000E+00 0.  1.
         25    1    1    2    0    0 -0.16913268965E+03 -0.28587034587E+03 -0.18570739690E+04  0.18906814770E+04  0.12500000000E+03 0.  0.
         21    1    1    2  503  502  0.21261519850E+03  0.36306720166E+02 -0.76181322244E+03  0.79175929830E+03  0.00000000000E+00 0. -1.
         21    1    1    2  504  503 -0.43482508846E+02  0.24956362571E+03 -0.33565052037E+02  0.25553736433E+03  0.00000000000E+00 0.  1.
<mgrwt>
<rscale>  4 0.38345889E+03</rscale>
<asrwt>0</asrwt>
<pdfrwt beam="1">  1       21 0.21963533E-01 0.38345889E+03</pdfrwt>
<pdfrwt beam="2">  1       21 0.43003305E+00 0.38345889E+03</pdfrwt>
<totfact> 0.85716824E+01</totfact>
</mgrwt>
</event>
<event>
 5    0  0.3120399E-003  0.2867174E+03  0.7546771E-02  0.1092076E+00
         21   -1    0    0  503  501  0.00000000000E+00  0.00000000000E+00  0.26800831182E+03  0.26800831182E+03  0.00000000000E+00 0. -1.
         21   -1    0    0  501  502 -0.00000000000E+00 -0.00000000000E+00 -0.32028131421E+03  0.32028131421E+03  0.00000000000E+00 0. -1.
         25    1    1    2    0    0  0.17992367501E+03 -0.17388175325E+03 -0.94458958425E+02  0.29522006668E+03  0.12500000000E+03 0.  0.
         21    1    1    2  503  504 -0.15364406984E+03  0.19886339392E+03  0.23832949882E+02  0.25243050358E+03  0.00000000000E+00 0. -1.
         21    1    1    2  504  502 -0.26279605169E+02 -0.24981640672E+02  0.18353006152E+02  0.40639055764E+02  0.00000000000E+00 0.  1.
<mgrwt>
<rscale>  4 0.28671741E+03</rscale>
<asrwt>0</asrwt>
<pdfrwt beam="1">  1       21 0.41232048E-01 0.28671741E+03</pdfrwt>
<pdfrwt beam="2">  1       21 0.49274048E-01 0.28671741E+03</pdfrwt>
<totfact> 0.21231256E+04</totfact>
</mgrwt>
</event>
<event>
 5    0  0.3120399E-003  0.3716049E+03  0.7546771E-02  0.1054081E+00
         21   -1    0    0  504  501  0.00000000000E+00  0.00000000000E+00  0.92146993043E+03  0.92146993043E+03  0.00000000000E+00 0.  1.
         21   -1    0    0  501  502 -0.00000000000E+00 -0.00000000000E+00 -0.16895037020E+03  0.16895037020E+03  0.00000000000E+00 0.  1.
         25    1    1    2    0    0 -0.23347748678E+03 -0.22406562676E+03  0.45134787214E+03  0.56926008433E+03  0.12500000000E+03 0.  0.
         21    1    1    2  503  502  0.27218327419E+03  0.10378138234E+03  0.16251554581E+03  0.33356500521E+03  0.00000000000E+00 0.  1.
         21    1    1    2  504  503 -0.38705787409E+02  0.12028424442E+03  0.13865614227E+03  0.18759521109E+03  0.00000000000E+00 0.  1.
<mgrwt>
<rscale>  4 0.37160489E+03</rscale>
<asrwt>0</asrwt>
<pdfrwt beam="1">  1       21 0.14176460E+00 0.37160489E+03</pdfrwt>
<pdfrwt beam="2">  1       21 0.25992365E-01 0.37160489E+03</pdfrwt>
<totfact> 0.43702503E+03</totfact>
</mgrwt>
</event>
<event>
 5    0  0.3120399E-003  0.2503270E+03  0.7546771E-02  0.1113098E+00
         21   -1    0    0  502  501  0.00000000000E+00  0.00000000000E+00  0.10150478169E+04  0.10150478169E+04  0.00000000000E+00 0. -1.
         21   -1    0    0  504  502 -0.00000000000E+00 -0.00000000000E+00 -0.32264711148E+03  0.32264711148E+03  0.00000000000E+00 0. -1.
         25    1    1    2    0    0  0.21591929030E+03  0.40501600510E+02 -0.29684953416E+02  0.25449502161E+03  0.12500000000E+03 0.  0.
         21    1    1    2  503  501 -0.11201984086E+03 -0.10343479638E+03  0.87484410358E+03  0.88803119732E+03  0.00000000000E+00 0. -1.
         21    1    1    2  504  503 -0.10389944944E+03  0.62933195866E+02 -0.15275844470E+03  0.19516870949E+03  0.00000000000E+00 0. -1.
<mgrwt>
<rscale>  4 0.25032701E+03</rscale>
<asrwt>0</asrwt>
<pdfrwt beam="1">  1       21 0.15616120E+00 0.25032701E+03</pdfrwt>
<pdfrwt beam="2">  1       21 0.49638018E-01 0.25032701E+03</pdfrwt>
<totfact> 0.98444454E+02</totfact>
</mgrwt>
</event>
<event>
 5    0  0.3120399E-003  0.2656230E+03  0.7546771E-02  0.1103811E+00
         21   -1    0    0  504  501  0.00000000000E+00  0.00000000000E+00  0.39536023385E+02  0.39536023385E+02  0.00000000000E+00 0.  1.
         21   -1    0    0  501  502 -0.00000000000E+00 -0.00000000000E+00 -0.18316340275E+04  0.18316340275E+04  0.00000000000E+00 0.  1.
         25    1    1    2    0    0  0.22868373477E+03  0.85838378637E+02 -0.95970342882E+03  0.99815837875E+03  0.12500000000E+03 0.  0.
         21    1    1    2  503  502 -0.22240389784E+03 -0.51853330548E+02 -0.70924348601E+03  0.74510306945E+03  0.00000000000E+00 0.  1.
         21    1    1    2  504  503 -0.62798369364E+01 -0.33985048088E+02 -0.12315108927E+03  0.12790860266E+03  0.00000000000E+00 0.  1.
<mgrwt>
<rscale>  4 0.26562296E+03</rscale>
<asrwt>0</asrwt>
<pdfrwt beam="1">  1       21 0.60824657E-02 0.26562296E+03</pdfrwt>
<pdfrwt beam="2">  1       21 0.28178983E+00 0.26562296E+03</pdfrwt>
<totfact> 0.78336188E+03</totfact>
</mgrwt>
</event>
<event>
 5    0  0.3120399E-003  0.2506072E+03  0.7546771E-02  0.1112922E+00
         21   -1    0    0  503  501  0.00000000000E+00  0.00000000000E+00  0.20435406987E+03  0.20435406987E+03  0.00000000000E+00 0.  1.
         21   -1    0    0  501  502 -0.00000000000E+00 -0.00000000000E+00 -0.67484690051E+03  0.67484690051E+03  0.00000000000E+00 0.  1.
         25    1    1    2    0    0  0.20978502524E+03  0.13033367559E+03 -0.93829619156E+02  0.29227661768E+03  0.12500000000E+03 0.  0.
         21    1    1    2  503  504 -0.57427526662E+02 -0.10210406617E+03  0.54177229168E+02  0.12906716588E+03  0.00000000000E+00 0.  1.
         21    1    1    2  504  502 -0.15235749858E+03 -0.28229609417E+02 -0.43084044065E+03  0.45785718682E+03  0.00000000000E+00 0.  1.
<mgrwt>
<rscale>  4 0.25060721E+03</rscale>
<asrwt>0</asrwt>
<pdfrwt beam="1">  1       21 0.31439088E-01 0.25060721E+03</pdfrwt>
<pdfrwt beam="2">  1       21 0.10382260E+00 0.25060721E+03</pdfrwt>
<totfact> 0.70179285E+03</totfact>
</mgrwt>
</event>
<event>
 5    0  0.3120399E-003  0.2090931E+03  0.7546771E-02  0.1142286E+00
         21   -1    0    0  502  501  0.00000000000E+00  0.00000000000E+00  0.17347541922E+04  0.17347541922E+04  0.00000000000E+00 0. -1.
         21   -1    0    0  504  502 -0.00000000000E+00 -0.00000000000E+00 -0.52929439872E+02  0.52929439872E+02  0.00000000000E+00 0. -1.
         25    1    1    2    0    0 -0.11542334327E+03  0.20791363885E+03  0.10819869442E+04  0.11148414133E+04  0.12500000000E+03 0.  0.
         21    1    1    2  503  501  0.70297371192E+02 -0.10748644339E+03  0.52310617189E+03  0.53864192464E+03  0.00000000000E+00 0. -1.
         21    1    1    2  504  503  0.45125972074E+02 -0.10042719546E+03  0.76731636222E+02  0.13420029412E+03  0.00000000000E+00 0. -1.
<mgrwt>
<rscale>  4 0.20909311E+03</rscale>
<asrwt>0</asrwt>
<pdfrwt beam="1">  1       21 0.26688522E+00 0.20909311E+03</pdfrwt>
<pdfrwt beam="2">  1       21 0.81429921E-02 0.20909311E+03</pdfrwt>
<totfact> 0.60631210E+03</totfact>
</mgrwt>
</event>
<event>
 5    0  0.3120399E-003  0.2680045E+03  0.7546771E-02  0.1102427E+00
         21   -1    0    0  502  501  0.00000000000E+00  0.00000000000E+00  0.18730192595E+03  0.18730192595E+03  0.00000000000E+00 0.  1.
         21   -1    0    0  504  502 -0.00000000000E+00 -0.00000000000E+00 -0.49278060920E+03  0.49278060920E+03  0.00000000000E+00 0.  1.
         25    1    1    2    0    0  0.10527815395E+03  0.18792656007E+03 -0.14649387177E+02  0.24947842837E+03  0.12500000000E+03 0.  0.
         21    1    1    2  503  501  0.61981563663E+02 -0.11537159194E+03 -0.87509747616E+02  0.15751277532E+03  0.00000000000E+00 0.  1.
         21    1    1    2  504  503 -0.16725971761E+03 -0.72554968130E+02 -0.20331954845E+03  0.27309133146E+03  0.00000000000E+00 0.  1.
<mgrwt>
<rscale>  4 0.26800448E+03</rscale>
<asrwt>0</asrwt>
<pdfrwt beam="1">  1       21 0.28815681E-01 0.26800448E+03</pdfrwt>
<pdfrwt beam="2">  1       21 0.75812401E-01 0.26800448E+03</pdfrwt>
<totfact> 0.17165505E+04</totfact>
</mgrwt>
</event>
<event>
 5    0  0.3120399E-003  0.6924489E+03  0.7546771E-02  0.9730233E-01
         21   -1    0    0  502  501  0.00000000000E+00  0.00000000000E+00  0.19505447487E+04  0.19505447487E+04  0.00000000000E+00 0.  1.
         21   -1    0    0  503  502 -0.00000000000E+00 -0.00000000000E+00 -0.26088188462E+03  0.26088188462E+03  0.00000000000E+00 0.  1.
         25    1    1    2    0    0 -0.21900899325E+03  0.46815522400E+03  0.48364972966E+03  0.71880199908E+03  0.12500000000E+03 0.  0.
         21    1    1    2  503  504 -0.15652239050E+03  0.88710858064E+02  0.12193523521E+03  0.21734092263E+03  0.00000000000E+00 0.  1.
         21    1    1    2  504  501  0.37553138375E+03 -0.55686608206E+03  0.10840778992E+04  0.12752837116E+04  0.00000000000E+00 0.  1.
<mgrwt>
<rscale>  4 0.69244891E+03</rscale>
<asrwt>0</asrwt>
<pdfrwt beam="1">  1       21 0.30008380E+00 0.69244891E+03</pdfrwt>
<pdfrwt beam="2">  1       21 0.40135676E-01 0.69244891E+03</pdfrwt>
<totfact> 0.14132492E+02</totfact>
</mgrwt>
</event>
<event>
 5    0  0.3120399E-003  0.2370440E+03  0.7546771E-02  0.1121778E+00
         21   -1    0    0  503  501  0.00000000000E+00  0.00000000000E+00  0.75326765530E+03  0.75326765530E+03  0.00000000000E+00 0.  1.
         21   -1    0    0  501  502 -0.00000000000E+00 -0.00000000000E+00 -0.11680562330E+03  0.11680562330E+03  0.00000000000E+00 0.  1.
         25    1    1    2    0    0  0.62790109169E+02 -0.23892742560E+03  0.44899974624E+03  0.52749851624E+03  0.12500000000E+03 0.  0.
         21    1    1    2  503  504 -0.47230905442E+02  0.11010009429E+03  0.17518416454E+03  0.21223166752E+03  0.00000000000E+00 0.  1.
         21    1    1    2  504  502 -0.15559203728E+02  0.12882733131E+03  0.12278121212E+02  0.13034309484E+03  0.00000000000E+00 0.  1.
<mgrwt>
<rscale>  4 0.23704404E+03</rscale>
<asrwt>0</asrwt>
<pdfrwt beam="1">  1       21 0.11588733E+00 0.23704404E+03</pdfrwt>
<pdfrwt beam="2">  1       21 0.17970096E-01 0.23704404E+03</pdfrwt>
<totfact> 0.15764445E+04</totfact>
</mgrwt>
</event>
<event>
 5    0  0.3120399E-003  0.3695827E+03  0.7546771E-02  0.1054853E+00
         21   -1    0    0  502  501  0.00000000000E+00  0.00000000000E+00  0.19883477970E+03  0.19883477970E+03  0.00000000000E+00 0. -1.
         21   -1    0    0  504  502 -0.00000000000E+00 -0.00000000000E+00 -0.80193160534E+03  0.80193160534E+03  0.00000000000E+00 0. -1.
         25    1    1    2    0    0  0.29471748448E+03  0.51869728438E+02 -0.97394242919E+02  0.33861409147E+03  0.12500000000E+03 0.  0.
         21    1    1    2  503  501 -0.20590418654E+03 -0.14011736391E+03 -0.16392047779E+03  0.29815991136E+03  0.00000000000E+00 0. -1.
         21    1    1    2  504  503 -0.88813297943E+02  0.88247635473E+02 -0.34178210493E+03  0.36399238221E+03  0.00000000000E+00 0. -1.
<mgrwt>
<rscale>  4 0.36958271E+03</rscale>
<asrwt>0</asrwt>
<pdfrwt beam="1">  1       21 0.30589966E-01 0.36958271E+03</pdfrwt>
<pdfrwt beam="2">  1       21 0.12337409E+00 0.36958271E+03</pdfrwt>
<totfact> 0.45552767E+03</totfact>
</mgrwt>
</event>
<event>
 5    0  0.3120399E-003  0.7225884E+03  0.7546771E-02  0.9679364E-01
         21   -1    0    0  504  501  0.00000000000E+00  0.00000000000E+00  0.13036688827E+04  0.13036688827E+04  0.00000000000E+00 0. -1.
         21   -1    0    0  501  502 -0.00000000000E+00 -0.00000000000E+00 -0.50488577872E+03  0.50488577872E+03  0.00000000000E+00 0. -1.
         25    1    1    2    0    0 -0.58801697009E+03 -0.48024011020E+02  0.71071710837E+03  0.93210196377E+03  0.12500000000E+03 0.  0.
         21    1    1    2  503  502  0.67005795288E+03 -0.91550319512E+02 -0.28613911853E+02  0.67688837866E+03  0.00000000000E+00 0. -1.
         21    1    1    2  504  503 -0.82040982789E+02  0.13957433053E+03  0.11667990744E+03  0.19956431896E+03  0.00000000000E+00 0. -1.
<mgrwt>
<rscale>  4 0.72258838E+03</rscale>
<asrwt>0</asrwt>
<pdfrwt beam="1">  1       21 0.20056444E+00 0.72258838E+03</pdfrwt>
<pdfrwt beam="2">  1       21 0.77674736E-01 0.72258838E+03</pdfrwt>
<totfact> 0.14023543E+02</totfact>
</mgrwt>
</event>
<event>
 5    0  0.3120399E-003  0.5470839E+03  0.7546771E-02  0.1002171E+00
         21   -1    0    0  503  501  0.00000000000E+00  0.00000000000E+00  0.59036407442E+03  0.59036407442E+03  0.00000000000E+00 0. -1.
         21   -1    0    0  501  502 -0.00000000000E+00 -0.00000000000E+00 -0.52986704822E+03  0.52986704822E+03  0.00000000000E+00 0. -1.
         25    1    1    2    0    0  0.87704823583E+02 -0.18630365797E+03 -0.15493961628E+03  0.28641311727E+03  0.12500000000E+03 0.  0.
         21    1    1    2  503  504  0.26239570746E+03 -0.10582260290E+03  0.24861615999E+03  0.37664296832E+03  0.00000000000E+00 0. -1.
         21    1    1    2  504  502 -0.35010053104E+03  0.29212626086E+03 -0.33179517504E+02  0.45717503705E+03  0.00000000000E+00 0. -1.
<mgrwt>
<rscale>  4 0.54708392E+03</rscale>
<asrwt>0</asrwt>
<pdfrwt beam="1">  1       21 0.90825242E-01 0.54708392E+03</pdfrwt>
<pdfrwt beam="2">  1       21 0.81518007E-01 0.54708392E+03</pdfrwt>
<totfact> 0.11165171E+03</totfact>
</mgrwt>
</event>
<event>
 5    0  0.3120399E-003  0.2925146E+03  0.7546771E-02  0.1089044E+00
         21   -1    0    0  504  501  0.00000000000E+00  0.00000000000E+00  0.21805178501E+04  0.21805178501E+04  0.00000000000E+00 0. -1.
         21   -1    0    0  501  502 -0.00000000000E+00 -0.00000000000E+00 -0.73040648518E+02  0.73040648518E+02  0.00000000000E+00 0. -1.
         25    1    1    2    0    0  0.15966552328E+03  0.13568307825E+03  0.17109212545E+04  0.17282301687E+04  0.12500000000E+03 0.  0.
         21    1    1    2  503  502 -0.11185856951E+03  0.56371356172E+02  0.24808346421E+03  0.27791271037E+03  0.00000000000E+00 0. -1.
         21    1    1    2  504  503 -0.47806953769E+02 -0.19205443442E+03  0.14847248289E+03  0.24741561953E+03  0.00000000000E+00 0. -1.
<mgrwt>
<rscale>  4 0.29251459E+03</rscale>
<asrwt>0</asrwt>
<pdfrwt beam="1">  1       21 0.33546423E+00 0.29251459E+03</pdfrwt>
<pdfrwt beam="2">  1       21 0.11237025E-01 0.29251459E+03</pdfrwt>
<totfact> 0.12552275E+03</totfact>
</mgrwt>
</event>
<event>
 5    0  0.3120399E-003  0.3063451E+03  0.7546771E-02  0.1082111E+00
         21   -1    0    0  504  501  0.00000000000E+00  0.00000000000E+00  0.22456086890E+03  0.22456086890E+03  0.00000000000E+00 0.  1.
         21   -1    0    0  501  502 -0.00000000000E+00 -0.00000000000E+00 -0.42865629320E+03  0.42865629320E+03  0.00000000000E+00 0.  1.
         25    1    1    2    0    0  0.17099840541E+03  0.22610382562E+03 -0.10835939013E+03  0.32822271714E+03  0.12500000000E+03 0.  0.
         21    1    1    2  503  502  0.15870445126E+02 -0.42141839623E+02  0.21817209298E+01  0.45083983647E+02  0.00000000000E+00 0. -1.
         21    1    1    2  504  503 -0.18686885054E+03 -0.18396198600E+03 -0.97917755095E+02  0.27991046132E+03  0.00000000000E+00 0. -1.
<mgrwt>
<rscale>  4 0.30634513E+03</rscale>
<asrwt>0</asrwt>
<pdfrwt beam="1">  1       21 0.34547826E-01 0.30634513E+03</pdfrwt>
<pdfrwt beam="2">  1       21 0.65947121E-01 0.30634513E+03</pdfrwt>
<totfact> 0.16092192E+04</totfact>
</mgrwt>
</event>
<event>
 5    0  0.3120399E-003  0.6181203E+03  0.7546771E-02  0.9868509E-01
         21   -1    0    0  502  501  0.00000000000E+00  0.00000000000E+00  0.73075905712E+03  0.73075905712E+03  0.00000000000E+00 0.  1.
         21   -1    0    0  503  502 -0.00000000000E+00 -0.00000000000E+00 -0.52925008937E+03  0.52925008937E+03  0.00000000000E+00 0.  1.
         25    1    1    2    0    0 -0.52070825707E+02 -0.54885195035E+03 -0.39216468963E+02  0.56666812662E+03  0.12500000000E+03 0.  0.
         21    1    1    2  503  504  0.24463353927E+02  0.56649875678E+03  0.13530577155E+03  0.58294678053E+03  0.00000000000E+00 0.  1.
         21    1    1    2  504  501  0.27607471780E+02 -0.17646806428E+02  0.10541966516E+03  0.11039423933E+03  0.00000000000E+00 0.  1.
<mgrwt>
<rscale>  4 0.61812034E+03</rscale>
<asrwt>0</asrwt>
<pdfrwt beam="1">  1       21 0.11242447E+00 0.61812034E+03</pdfrwt>
<pdfrwt beam="2">  1       21 0.81423091E-01 0.61812034E+03</pdfrwt>
<totfact> 0.64869711E+02</totfact>
</mgrwt>
</event>
<event>
 5    0  0.3120399E-003  0.2900253E+03  0.7546771E-02  0.1090336E+00
         21   -1    0    0  504  501  0.00000000000E+00  0.00000000000E+00  0.29317954216E+03  0.29317954216E+03  0.00000000000E+00 0. -1.
         21   -1    0    0  501  502 -0.00000000000E+00 -0.00000000000E+00 -0.59388576221E+03  0.59388576221E+03  0.00000000000E+00 0. -1.
         25    1    1    2    0    0 -0.64301208888E+02 -0.26877380251E+03 -0.29260223412E+03  0.42144402925E+03  0.12500000000E+03 0.  0.
         21    1    1    2  503  502 -0.16439080178E+02  0.71309820671E+02 -0.17828817597E+03  0.19272261821E+03  0.00000000000E+00 0. -1.
         21    1    1    2  504  503  0.80740289066E+02  0.19746398184E+03  0.17018419004E+03  0.27289865690E+03  0.00000000000E+00 0. -1.
<mgrwt>
<rscale>  4 0.29002526E+03</rscale>
<asrwt>0</asrwt>
<pdfrwt beam="1">  1       21 0.45104545E-01 0.29002526E+03</pdfrwt>
<pdfrwt beam="2">  1       21 0.91367041E-01 0.29002526E+03</pdfrwt>
<totfact> 0.44853742E+03</totfact>
</mgrwt>
</event>
<event>
 5    0  0.3120399E-003  0.4400670E+03  0.7546771E-02  0.1030726E+00
         21   -1    0    0  503  501  0.00000000000E+00  0.00000000000E+00  0.12102801986E+04  0.12102801986E+04  0.00000000000E+00 0.  1.
         21   -1    0    0  501  502 -0.00000000000E+00 -0.00000000000E+00 -0.23648862826E+03  0.23648862826E+03  0.00000000000E+00 0.  1.
         25    1    1    2    0    0 -0.28724073094E+03  0.20678627875E+03  0.70623611127E+02  0.38194305471E+03  0.12500000000E+03 0.  0.
         21    1    1    2  503  504  0.23273215832E+03 -0.31241142680E+03  0.84918511026E+03  0.93428074399E+03  0.00000000000E+00 0.  1.
         21    1    1    2  504  502  0.54508572622E+02  0.10562514805E+03  0.53982848917E+02  0.13054502812E+03  0.00000000000E+00 0. -1.
<mgrwt>
<rscale>  4 0.44006699E+03</rscale>
<asrwt>0</asrwt>
<pdfrwt beam="1">  1       21 0.18619695E+00 0.44006699E+03</pdfrwt>
<pdfrwt beam="2">  1       21 0.36382867E-01 0.44006699E+03</pdfrwt>
<totfact> 0.10134371E+03</totfact>
</mgrwt>
</event>
<event>
 5    0  0.3120399E-003  0.4176507E+03  0.7546771E-02  0.1037834E+00
         21   -1    0    0  504  501  0.00000000000E+00  0.00000000000E+00  0.28043453056E+03  0.28043453056E+03  0.00000000000E+00 0.  1.
         21   -1    0    0  501  502 -0.00000000000E+00 -0.00000000000E+00 -0.94866359009E+03  0.94866359009E+03  0.00000000000E+00 0.  1.
         25    1    1    2    0    0  0.30391312290E+03  0.56607983853E+02  0.87352590217E+02  0.34470730356E+03  0.12500000000E+03 0.  0.
         21    1    1    2  503  502 -0.32409127694E+03 -0.15061346384E+03 -0.64868937159E+03  0.74061965413E+03  0.00000000000E+00 0.  1.
         21    1    1    2  504  503  0.20178154035E+02  0.94005479989E+02 -0.10689227816E+03  0.14377116296E+03  0.00000000000E+00 0. -1.
<mgrwt>
<rscale>  4 0.41765069E+03</rscale>
<asrwt>0</asrwt>
<pdfrwt beam="1">  1       21 0.43143774E-01 0.41765069E+03</pdfrwt>
<pdfrwt beam="2">  1       21 0.14594824E+00 0.41765069E+03</pdfrwt>
<totfact> 0.14314290E+03</totfact>
</mgrwt>
</event>
<event>
 5    0  0.3120399E-003  0.3100845E+03  0.7546771E-02  0.1080305E+00
         21   -1    0    0  503  501  0.00000000000E+00  0.00000000000E+00  0.60302385095E+03  0.60302385095E+03  0.00000000000E+00 0. -1.
         21   -1    0    0  501  502 -0.00000000000E+00 -0.00000000000E+00 -0.24288422098E+03  0.24288422098E+03  0.00000000000E+00 0. -1.
         25    1    1    2    0    0  0.30189831551E+03 -0.72331227733E+02 -0.35361689506E+02  0.33652614831E+03  0.12500000000E+03 0.  0.
         21    1    1    2  503  504 -0.13487166602E+03  0.68044747556E+02  0.22188610586E+03  0.26842857139E+03  0.00000000000E+00 0.  1.
         21    1    1    2  504  502 -0.16702664948E+03  0.42864801770E+01  0.17361521362E+03  0.24095335223E+03  0.00000000000E+00 0. -1.
<mgrwt>
<rscale>  4 0.31008447E+03</rscale>
<asrwt>0</asrwt>
<pdfrwt beam="1">  1       21 0.92772900E-01 0.31008447E+03</pdfrwt>
<pdfrwt beam="2">  1       21 0.37366803E-01 0.31008447E+03</pdfrwt>
<totfact> 0.62989498E+03</totfact>
</mgrwt>
</event>
<event>
 5    0  0.3120399E-003  0.4122362E+03  0.7546771E-02  0.1039623E+00
         21   -1    0    0  502  501  0.00000000000E+00  0.00000000000E+00  0.26029503767E+03  0.26029503767E+03  0.00000000000E+00 0. -1.
         21   -1    0    0  503  502 -0.00000000000E+00 -0.00000000000E+00 -0.73241489863E+03  0.73241489863E+03  0.00000000000E+00 0. -1.
         25    1    1    2    0    0 -0.21406361254E+03 -0.12511019816E+03 -0.13492748048E+03  0.30871704988E+03  0.12500000000E+03 0.  0.
         21    1    1    2  503  504  0.34189723976E+03  0.17405102490E+03 -0.38058253205E+03  0.54039850622E+03  0.00000000000E+00 0.  1.
         21    1    1    2  504  501 -0.12783362722E+03 -0.48940826740E+02  0.43390151574E+02  0.14359438020E+03  0.00000000000E+00 0. -1.
<mgrwt>
<rscale>  4 0.41223617E+03</rscale>
<asrwt>0</asrwt>
<pdfrwt beam="1">  1       21 0.40045391E-01 0.41223617E+03</pdfrwt>
<pdfrwt beam="2">  1       21 0.11267921E+00 0.41223617E+03</pdfrwt>
<totfact> 0.32647263E+03</totfact>
</mgrwt>
</event>
<event>
 5    0  0.3120399E-003  0.2852775E+03  0.7546771E-02  0.1092841E+00
         21   -1    0    0  502  501  0.00000000000E+00  0.00000000000E+00  0.93148229401E+03  0.93148229401E+03  0.00000000000E+00 0.  1.
         21   -1    0    0  504  502 -0.00000000000E+00 -0.00000000000E+00 -0.14541438272E+03  0.14541438272E+03  0.00000000000E+00 0.  1.
         25    1    1    2    0    0  0.26021387140E+03 -0.45504801760E+02  0.66400361716E+03  0.72547070889E+03  0.12500000000E+03 0.  0.
         21    1    1    2  503  501 -0.14611052358E+03  0.10665302250E+03  0.11634923347E+02  0.18126920243E+03  0.00000000000E+00 0.  1.
         21    1    1    2  504  503 -0.11410334782E+03 -0.61148220738E+02  0.11042937078E+03  0.17015676541E+03  0.00000000000E+00 0. -1.
<mgrwt>
<rscale>  4 0.28527752E+03</rscale>
<asrwt>0</asrwt>
<pdfrwt beam="1">  1       21 0.14330496E+00 0.28527752E+03</pdfrwt>
<pdfrwt beam="2">  1       21 0.22371444E-01 0.28527752E+03</pdfrwt>
<totfact> 0.59151830E+03</totfact>
</mgrwt>
</event>
<event>
 5    0  0.3120399E-003  0.2988840E+03  0.7546771E-02  0.1085800E+00
         21   -1    0    0  502  501  0.00000000000E+00  0.00000000000E+00  0.24630438380E+03  0.24630438380E+03  0.00000000000E+00 0. -1.
         21   -1    0    0  503  502 -0.00000000000E+00 -0.00000000000E+00 -0.47514757675E+03  0.47514757675E+03  0.00000000000E+00 0. -1.
         25    1    1    2    0    0 -0.67732049479E+02  0.20501585459E+03 -0.24082607794E+03  0.34675831782E+03  0.12500000000E+03 0.  0.
         21    1    1    2  503  504  0.17439697108E+03 -0.44120339548E+02 -0.11342868697E+02  0.18024862982E+03  0.00000000000E+00 0. -1.
         21    1    1    2  504  501 -0.10666492160E+03 -0.16089551504E+03  0.23325753684E+02  0.19444501291E+03  0.00000000000E+00 0.  1.
<mgrwt>
<rscale>  4 0.29888402E+03</rscale>
<asrwt>0</asrwt>
<pdfrwt beam="1">  1       21 0.37892982E-01 0.29888402E+03</pdfrwt>
<pdfrwt beam="2">  1       21 0.73099627E-01 0.29888402E+03</pdfrwt>
<totfact> 0.10654419E+04</totfact>
</mgrwt>
</event>
<event>
 5    0  0.3120399E-003  0.2817734E+03  0.7546771E-02  0.1094724E+00
         21   -1    0    0  504  501  0.00000000000E+00  0.00000000000E+00  0.32031125814E+03  0.32031125814E+03  0.00000000000E+00 0. -1.
         21   -1    0    0  501  502 -0.00000000000E+00 -0.00000000000E+00 -0.28393983493E+03  0.28393983493E+03  0.00000000000E+00 0. -1.
         25    1    1    2    0    0 -0.23133147204E+03 -0.13898697007E+03  0.71640919063E+02  0.30592327321E+03  0.12500000000E+03 0.  0.
         21    1    1    2  503  502  0.51949313737E+02  0.63178338764E+02 -0.60803097160E+02  0.10191786061E+03  0.00000000000E+00 0. -1.
         21    1    1    2  504  503  0.17938215830E+03  0.75808631303E+02  0.25533601313E+02  0.19640995925E+03  0.00000000000E+00 0. -1.
<mgrwt>
<rscale>  4 0.28177337E+03</rscale>
<asrwt>0</asrwt>
<pdfrwt beam="1">  1       21 0.49278655E-01 0.28177337E+03</pdfrwt>
<pdfrwt beam="2">  1       21 0.43683052E-01 0.28177337E+03</pdfrwt>
<totfact> 0.18889383E+04</totfact>
</mgrwt>
</event>
<event>
 5    0  0.3120399E-003  0.5635146E+03  0.7546771E-02  0.9984133E-01
         21   -1    0    0  502  501  0.00000000000E+00  0.00000000000E+00  0.27163939915E+03  0.27163939915E+03  0.00000000000E+00 0. -1.
         21   -1    0    0  503  502 -0.00000000000E+00 -0.00000000000E+00 -0.12495586653E+04  0.12495586653E+04  0.00000000000E+00 0. -1.
         25    1    1    2    0    0  0.24744726310E+03 -0.18238151516E+03 -0.32886309805E+03  0.46719278927E+03  0.12500000000E+03 0.  0.
         21    1    1    2  503  504 -0.49523430626E+03  0.14361263673E+01 -0.26257188747E+03  0.56053820266E+03  0.00000000000E+00 0. -1.
         21    1    1    2  504  501  0.24778704316E+03  0.18094538879E+03 -0.38648428063E+03  0.49346707251E+03  0.00000000000E+00 0. -1.
<mgrwt>
<rscale>  4 0.56351458E+03</rscale>
<asrwt>0</asrwt>
<pdfrwt beam="1">  1       21 0.41790677E-01 0.56351458E+03</pdfrwt>
<pdfrwt beam="2">  1       21 0.19223979E+00 0.56351458E+03</pdfrwt>
<totfact> 0.65811166E+02</totfact>
</mgrwt>
</event>
<event>
 5    0  0.3120399E-003  0.2646372E+03  0.7546771E-02  0.1104389E+00
         21   -1    0    0  503  501  0.00000000000E+00  0.00000000000E+00  0.25073824934E+03  0.25073824934E+03  0.00000000000E+00 0. -1.
         21   -1    0    0  501  502 -0.00000000000E+00 -0.00000000000E+00 -0.41188790986E+03  0.41188790986E+03  0.00000000000E+00 0. -1.
         25    1    1    2    0    0 -0.62766610902E+02 -0.24958683988E+03 -0.25617786670E+03  0.38403819794E+03  0.12500000000E+03 0.  0.
         21    1    1    2  503  504  0.52862156491E+02  0.17028625586E+03  0.86622649530E+02  0.19823042131E+03  0.00000000000E+00 0. -1.
         21    1    1    2  504  502  0.99044544106E+01  0.79300584026E+02  0.84055566547E+01  0.80357539949E+02  0.00000000000E+00 0.  1.
<mgrwt>
<rscale>  4 0.26463715E+03</rscale>
<asrwt>0</asrwt>
<pdfrwt beam="1">  1       21 0.38575116E-01 0.26463715E+03</pdfrwt>
<pdfrwt beam="2">  1       21 0.63367370E-01 0.26463715E+03</pdfrwt>
<totfact> 0.14330384E+04</totfact>
</mgrwt>
</event>
<event>
 5    0  0.3120399E-003  0.4579324E+03  0.7546771E-02  0.1025383E+00
         21   -1    0    0  504  501  0.00000000000E+00  0.00000000000E+00  0.12123015121E+04  0.12123015121E+04  0.00000000000E+00 0.  1.
         21   -1    0    0  501  502 -0.00000000000E+00 -0.00000000000E+00 -0.17402950393E+03  0.17402950393E+03  0.00000000000E+00 0.  1.
         25    1    1    2    0    0  0.14378687525E+03  0.20096086077E+03  0.44090539494E+03  0.52065583675E+03  0.12500000000E+03 0.  0.
         21    1    1    2  503  502  0.92290679011E+02  0.16462020160E+03  0.14526760260E+03  0.23815972912E+03  0.00000000000E+00 0. -1.
         21    1    1    2  504  503 -0.23607755426E+03 -0.36558106237E+03  0.45209901063E+03  0.62751545017E+03  0.00000000000E+00 0.  1.
<mgrwt>
<rscale>  4 0.45793239E+03</rscale>
<asrwt>0</asrwt>
<pdfrwt beam="1">  1       21 0.18650792E+00 0.45793239E+03</pdfrwt>
<pdfrwt beam="2">  1       21 0.26773771E-01 0.45793239E+03</pdfrwt>
<totfact> 0.18456757E+03</totfact>
</mgrwt>
</event>
<event>
 5    0  0.3120399E-003  0.5949534E+03  0.7546771E-02  0.9915932E-01
         21   -1    0    0  503  501  0.00000000000E+00  0.00000000000E+00  0.64075773350E+03  0.64075773350E+03  0.00000000000E+00 0.  1.
         21   -1    0    0  501  502 -0.00000000000E+00 -0.00000000000E+00 -0.57155635152E+03  0.57155635152E+03  0.00000000000E+00 0.  1.
         25    1    1    2    0    0 -0.11235399359E+02  0.29223688549E+03 -0.18446017047E+03  0.36766722172E+03  0.12500000000E+03 0.  0.
         21    1    1    2  503  504 -0.22249308446E+03 -0.44298512727E+03  0.46598326843E+02  0.49790601491E+03  0.00000000000E+00 0.  1.
         21    1    1    2  504  502  0.23372848382E+03  0.15074824179E+03  0.20706322560E+03  0.34674084839E+03  0.00000000000E+00 0. -1.
<mgrwt>
<rscale>  4 0.59495341E+03</rscale>
<asrwt>0</asrwt>
<pdfrwt beam="1">  1       21 0.98578113E-01 0.59495341E+03</pdfrwt>
<pdfrwt beam="2">  1       21 0.87931747E-01 0.59495341E+03</pdfrwt>
<totfact> 0.75519903E+02</totfact>
</mgrwt>
</event>
<event>
 5    0  0.3120399E-003  0.2523381E+03  0.7546771E-02  0.1111836E+00
         21   -1    0    0  503  501  0.00000000000E+00  0.00000000000E+00  0.29734321244E+03  0.29734321244E+03  0.00000000000E+00 0.  1.
         21   -1    0    0  501  502 -0.00000000000E+00 -0.00000000000E+00 -0.34375186317E+03  0.34375186317E+03  0.00000000000E+00 0.  1.
         25    1    1    2    0    0 -0.25636995120E+03 -0.75494079188E+02  0.68383293692E+02  0.30286330700E+03  0.12500000000E+03 0.  0.
         21    1    1    2  503  504  0.10503866612E+03  0.34838964437E+02  0.40286232303E+02  0.11777034999E+03  0.00000000000E+00 0.  1.
         21    1    1    2  504  502  0.15133128508E+03  0.40655114752E+02 -0.15507817672E+03  0.22046141861E+03  0.00000000000E+00 0.  1.
<mgrwt>
<rscale>  4 0.25233811E+03</rscale>
<asrwt>0</asrwt>
<pdfrwt beam="1">  1       21 0.45745109E-01 0.25233811E+03</pdfrwt>
<pdfrwt beam="2">  1       21 0.52884902E-01 0.25233811E+03</pdfrwt>
<totfact> 0.14999374E+04</totfact>
</mgrwt>
</event>
<event>
 5    0  0.3120399E-003  0.4509891E+03  0.7546771E-02  0.1027427E+00
         21   -1    0    0  502  501  0.00000000000E+00  0.00000000000E+00  0.92637955453E+03  0.92637955453E+03  0.00000000000E+00 0.  1.
         21   -1    0    0  504  502 -0.00000000000E+00 -0.00000000000E+00 -0.33158368287E+03  0.33158368287E+03  0.00000000000E+00 0.  1.
         25    1    1    2    0    0  0.30559191039E+03  0.17479529268E+03  0.59426568769E+03  0.70193768783E+03  0.12500000000E+03 0.  0.
         21    1    1    2  503  501  0.39712763072E+02  0.81754515271E+02  0.76978396506E+02  0.11910742146E+03  0.00000000000E+00 0.  1.
         21    1    1    2  504  503 -0.34530467346E+03 -0.25654980795E+03 -0.76448212539E+02  0.43691812811E+03  0.00000000000E+00 0. -1.
<mgrwt>
<rscale>  4 0.45098910E+03</rscale>
<asrwt>0</asrwt>
<pdfrwt beam="1">  1       21 0.14251993E+00 0.45098910E+03</pdfrwt>
<pdfrwt beam="2">  1       21 0.51012875E-01 0.45098910E+03</pdfrwt>
<totfact> 0.10567732E+03</totfact>
</mgrwt>
</event>
<event>
 5    0  0.3120399E-003  0.2854765E+03  0.7546771E-02  0.1092735E+00
         21   -1    0    0  504  501  0.00000000000E+00  0.00000000000E+00  0.22081197951E+03  0.22081197951E+03  0.00000000000E+00 0. -1.
         21   -1    0    0  501  502 -0.00000000000E+00 -0.00000000000E+00 -0.48148346148E+03  0.48148346148E+03  0.00000000000E+00 0. -1.
         25    1    1    2    0    0  0.20619100711E+03  0.14461199979E+03 -0.24526866169E+03  0.37310732813E+03  0.12500000000E+03 0.  0.
         21    1    1    2  503  502 -0.55535788725E+02 -0.62900985928E+02  0.93887943975E+02  0.12591943410E+03  0.00000000000E+00 0. -1.
         21    1    1    2  504  503 -0.15065521838E+03 -0.81711013863E+02 -0.10929076426E+03  0.20326867876E+03  0.00000000000E+00 0. -1.
<mgrwt>
<rscale>  4 0.28547647E+03</rscale>
<asrwt>0</asrwt>
<pdfrwt beam="1">  1       21 0.33971074E-01 0.28547647E+03</pdfrwt>
<pdfrwt beam="2">  1       21 0.74074378E-01 0.28547647E+03</pdfrwt>
<totfact> 0.12960833E+04</totfact>
</mgrwt>
</event>
<event>
 5    0  0.3120399E-003  0.3599130E+03  0.7546771E-02  0.1058618E+00
         21   -1    0    0  504  501  0.00000000000E+00  0.00000000000E+00  0.77391243666E+03  0.77391243666E+03  0.00000000000E+00 0. -1.
         21   -1    0    0  501  502 -0.00000000000E+00 -0.00000000000E+00 -0.33476319524E+03  0.33476319524E+03  0.00000000000E+00 0. -1.
         25    1    1    2    0    0  0.13409868036E+02  0.21997202331E+03  0.48309960554E+03  0.54550686932E+03  0.12500000000E+03 0.  0.
         21    1    1    2  503  502 -0.17350628413E+03 -0.24257985143E+03 -0.18300332191E+03  0.34991374763E+03  0.00000000000E+00 0. -1.
         21    1    1    2  504  503  0.16009641609E+03  0.22607828114E+02  0.13905295778E+03  0.21325501495E+03  0.00000000000E+00 0.  1.
<mgrwt>
<rscale>  4 0.35991301E+03</rscale>
<asrwt>0</asrwt>
<pdfrwt beam="1">  1       21 0.11906345E+00 0.35991301E+03</pdfrwt>
<pdfrwt beam="2">  1       21 0.51502030E-01 0.35991301E+03</pdfrwt>
<totfact> 0.17207836E+03</totfact>
</mgrwt>
</event>
<event>
 5    0  0.3120399E-003  0.3660496E+03  0.7546771E-02  0.1056214E+00
         21   -1    0    0  504  501  0.00000000000E+00  0.00000000000E+00  0.50673885641E+02  0.50673885641E+02  0.00000000000E+00 0.  1.
         21   -1    0    0  501  502 -0.00000000000E+00 -0.00000000000E+00 -0.29055935181E+04  0.29055935181E+04  0.00000000000E+00 0.  1.
         25    1    1    2    0    0 -0.97764354311E+02 -0.19367023921E+03 -0.73922665622E+03  0.78047875038E+03  0.12500000000E+03 0.  0.
         21    1    1    2  503  502 -0.14733919238E+03 -0.32250838535E+02 -0.38905835149E+03  0.41727132068E+03  0.00000000000E+00 0.  1.
         21    1    1    2  504  503  0.24510354669E+03  0.22592107774E+03 -0.17266346247E+04  0.17585173327E+04  0.00000000000E+00 0.  1.
<mgrwt>
<rscale>  4 0.36604957E+03</rscale>
<asrwt>0</asrwt>
<pdfrwt beam="1">  1       21 0.77959777E-02 0.36604957E+03</pdfrwt>
<pdfrwt beam="2">  1       21 0.44701466E+00 0.36604957E+03</pdfrwt>
<totfact> 0.44690441E+02</totfact>
</mgrwt>
</event>
<event>
 5    0  0.3120399E-003  0.3030384E+03  0.7546771E-02  0.1083732E+00
         21   -1    0    0  504  501  0.00000000000E+00  0.00000000000E+00  0.23528957442E+03  0.23528957442E+03  0.00000000000E+00 0. -1.
         21   -1    0    0  501  502 -0.00000000000E+00 -0.00000000000E+00 -0.59749429493E+03  0.59749429493E+03  0.00000000000E+00 0. -1.
         25    1    1    2    0    0 -0.21454206756E+03  0.22776818082E+03 -0.57819562474E+02  0.34186948497E+03  0.12500000000E+03 0.  0.
         21    1    1    2  503  502  0.16501036811E+03 -0.10326456597E+03 -0.29903788054E+03  0.35681318104E+03  0.00000000000E+00 0. -1.
         21    1    1    2  504  503  0.49531699443E+02 -0.12450361485E+03 -0.53472774933E+01  0.13410120334E+03  0.00000000000E+00 0. -1.
<mgrwt>
<rscale>  4 0.30303841E+03</rscale>
<asrwt>0</asrwt>
<pdfrwt beam="1">  1       21 0.36198396E-01 0.30303841E+03</pdfrwt>
<pdfrwt beam="2">  1       21 0.91922199E-01 0.30303841E+03</pdfrwt>
<totfact> 0.68869567E+03</totfact>
</mgrwt>
</event>
<event>
 5    0  0.3120399E-003  0.2408169E+03  0.7546771E-02  0.1119250E+00
         21   -1    0    0  504  501  0.00000000000E+00  0.00000000000E+00  0.10339694056E+03  0.10339694056E+03  0.00000000000E+00 0.  1.
         21   -1    0    0  501  502 -0.00000000000E+00 -0.00000000000E+00 -0.80403658802E+03  0.80403658802E+03  0.00000000000E+00 0.  1.
         25    1    1    2    0    0 -0.38147452657E+02 -0.20081520931E+03 -0.45769856502E+03  0.51661876936E+03  0.12500000000E+03 0.  0.
         21    1    1    2  503  502 -0.55352019812E+02  0.12099388941E+03 -0.23192997893E+03  0.26738526978E+03  0.00000000000E+00 0.  1.
         21    1    1    2  504  503  0.93499472468E+02  0.79821319898E+02 -0.11011103513E+02  0.12342948944E+03  0.00000000000E+00 0.  1.
<mgrwt>
<rscale>  4 0.24081689E+03</rscale>
<asrwt>0</asrwt>
<pdfrwt beam="1">  1       21 0.15907221E-01 0.24081689E+03</pdfrwt>
<pdfrwt beam="2">  1       21 0.12369794E+00 0.24081689E+03</pdfrwt>
<totfact> 0.16754102E+04</totfact>
</mgrwt>
</event>
<event>
 5    0  0.3120399E-003  0.3818825E+03  0.7546771E-02  0.1050240E+00
         21   -1    0    0  503  501  0.00000000000E+00  0.00000000000E+00  0.11720544359E+03  0.11720544359E+03  0.00000000000E+00 0. -1.
         21   -1    0    0  501  502 -0.00000000000E+00 -0.00000000000E+00 -0.14166955011E+04  0.14166955011E+04  0.00000000000E+00 0. -1.
         25    1    1    2    0    0 -0.12806951197E+03  0.33642209291E+03 -0.94914454818E+03  0.10227815005E+04  0.12500000000E+03 0.  0.
         21    1    1    2  503  504 -0.11734328122E+02 -0.56712046184E+02 -0.38804093739E+02  0.69711608285E+02  0.00000000000E+00 0.  1.
         21    1    1    2  504  502  0.13980384009E+03 -0.27971004672E+03 -0.31154141556E+03  0.44140783585E+03  0.00000000000E+00 0. -1.
<mgrwt>
<rscale>  4 0.38188254E+03</rscale>
<asrwt>0</asrwt>
<pdfrwt beam="1">  1       21 0.18031606E-01 0.38188254E+03</pdfrwt>
<pdfrwt beam="2">  1       21 0.21795316E+00 0.38188254E+03</pdfrwt>
<totfact> 0.25259689E+03</totfact>
</mgrwt>
</event>
<event>
 5    0  0.3120399E-003  0.2665290E+03  0.7546771E-02  0.1103283E+00
         21   -1    0    0  502  501  0.00000000000E+00  0.00000000000E+00  0.53637915642E+03  0.53637915642E+03  0.00000000000E+00 0. -1.
         21   -1    0    0  504  502 -0.00000000000E+00 -0.00000000000E+00 -0.15806705422E+03  0.15806705422E+03  0.00000000000E+00 0. -1.
         25    1    1    2    0    0 -0.45145580125E+02  0.21880795540E+03  0.14827936271E+03  0.29584930989E+03  0.12500000000E+03 0.  0.
         21    1    1    2  503  501 -0.56427103564E+02 -0.18288923864E+03  0.21814518836E+03  0.29020650377E+03  0.00000000000E+00 0. -1.
         21    1    1    2  504  503  0.10157268369E+03 -0.35918716762E+02  0.11887551121E+02  0.10839039698E+03  0.00000000000E+00 0.  1.
<mgrwt>
<rscale>  4 0.26652901E+03</rscale>
<asrwt>0</asrwt>
<pdfrwt beam="1">  1       21 0.82519869E-01 0.26652901E+03</pdfrwt>
<pdfrwt beam="2">  1       21 0.24318009E-01 0.26652901E+03</pdfrwt>
<totfact> 0.19673733E+04</totfact>
</mgrwt>
</event>
<event>
 5    0  0.3120399E-003  0.3593764E+03  0.7546771E-02  0.1058831E+00
         21   -1    0    0  502  501  0.00000000000E+00  0.00000000000E+00  0.36072086804E+03  0.36072086804E+03  0.00000000000E+00 0. -1.
         21   -1    0    0  503  502 -0.00000000000E+00 -0.00000000000E+00 -0.38263833184E+03  0.38263833184E+03  0.00000000000E+00 0. -1.
         25    1    1    2    0    0 -0.26206416367E+03 -0.12528983436E+03 -0.99282112286E+02  0.33144698866E+03  0.12500000000E+03 0.  0.
         21    1    1    2  503  504  0.27650133322E+03  0.21337903801E+02 -0.67632954541E+01  0.27740590400E+03  0.00000000000E+00 0. -1.
         21    1    1    2  504  501 -0.14437169553E+02  0.10395193055E+03  0.84127943935E+02  0.13450630722E+03  0.00000000000E+00 0. -1.
<mgrwt>
<rscale>  4 0.35937642E+03</rscale>
<asrwt>0</asrwt>
<pdfrwt beam="1">  1       21 0.55495518E-01 0.35937642E+03</pdfrwt>
<pdfrwt beam="2">  1       21 0.58867436E-01 0.35937642E+03</pdfrwt>
<totfact> 0.75612485E+03</totfact>
</mgrwt>
</event>
<event>
 5    0  0.3120399E-003  0.2217325E+03  0.7546771E-02  0.1132598E+00
         21   -1    0    0  504  501  0.00000000000E+00  0.00000000000E+00  0.53286281848E+03  0.53286281848E+03  0.00000000000E+00 0.  1.
         21   -1    0    0  501  502 -0.00000000000E+00 -0.00000000000E+00 -0.23202814046E+03  0.23202814046E+03  0.00000000000E+00 0.  1.
         25    1    1    2    0    0  0.20646776260E+03  0.21208356632E+02  0.33763193116E+03  0.41557075489E+03  0.12500000000E+03 0.  0.
         21    1    1    2  503  502 -0.87908864030E+02  0.79397218913E+02 -0.12363484662E+03  0.17122342727E+03  0.00000000000E+00 0.  1.
         21    1    1    2  504  503 -0.11855889857E+03 -0.10060557554E+03  0.86837593484E+02  0.17809677679E+03  0.00000000000E+00 0.  1.
<mgrwt>
<rscale>  4 0.22173252E+03</rscale>
<asrwt>0</asrwt>
<pdfrwt beam="1">  1       21 0.81978895E-01 0.22173252E+03</pdfrwt>
<pdfrwt beam="2">  1       21 0.35696637E-01 0.22173252E+03</pdfrwt>
<totfact> 0.96558823E+03</totfact>
</mgrwt>
</event>
<event>
 5    0  0.3120399E-003  0.1195482E+03  0.7546771E-02  0.1243844E+00
         21   -1    0    0  502  501  0.00000000000E+00  0.00000000000E+00  0.10191788031E+03  0.10191788031E+03  0.00000000000E+00 0. -1.
         21   -1    0    0  504  502 -0.00000000000E+00 -0.00000000000E+00 -0.62825310853E+03  0.62825310853E+03  0.00000000000E+00 0. -1.
         25    1    1    2    0    0  0.17019229374E+03  0.10898316572E+03 -0.33165043711E+03  0.40799480352E+03  0.12500000000E+03 0.  0.
         21    1    1    2  503  501 -0.22096126817E+02  0.21950816905E+02 -0.96611176722E+02  0.10150761868E+03  0.00000000000E+00 0. -1.
         21    1    1    2  504  503 -0.14809616692E+03 -0.13093398263E+03 -0.98073614390E+02  0.22066856664E+03  0.00000000000E+00 0.  1.
<mgrwt>
<rscale>  4 0.11954816E+03</rscale>
<asrwt>0</asrwt>
<pdfrwt beam="1">  1       21 0.15679674E-01 0.11954816E+03</pdfrwt>
<pdfrwt beam="2">  1       21 0.96654326E-01 0.11954816E+03</pdfrwt>
<totfact> 0.33643339E+04</totfact>
</mgrwt>
</event>
<event>
 5    0  0.3120399E-003  0.2539965E+03  0.7546771E-02  0.1110805E+00
         21   -1    0    0  503  501  0.00000000000E+00  0.00000000000E+00  0.12474683918E+03  0.12474683918E+03  0.00000000000E+00 0.  1.
         21   -1    0    0  501  502 -0.00000000000E+00 -0.00000000000E+00 -0.18991186587E+04  0.18991186587E+04  0.00000000000E+00 0.  1.
         25    1    1    2    0    0  0.14923808082E+03  0.15086091129E+03 -0.22064444704E+02  0.24727082125E+03  0.12500000000E+03 0.  0.
         21    1    1    2  503  504  0.23815218933E+02 -0.27856662891E+02 -0.55202460150E+02  0.66260621238E+02  0.00000000000E+00 0.  1.
         21    1    1    2  504  502 -0.17305329975E+03 -0.12300424840E+03 -0.16971049146E+04  0.17103340554E+04  0.00000000000E+00 0. -1.
<mgrwt>
<rscale>  4 0.25399651E+03</rscale>
<asrwt>0</asrwt>
<pdfrwt beam="1">  1       21 0.19191822E-01 0.25399651E+03</pdfrwt>
<pdfrwt beam="2">  1       21 0.29217209E+00 0.25399651E+03</pdfrwt>
<totfact> 0.87827606E+02</totfact>
</mgrwt>
</event>
<event>
 5    0  0.3120399E-003  0.3471283E+03  0.7546771E-02  0.1063800E+00
         21   -1    0    0  504  501  0.00000000000E+00  0.00000000000E+00  0.14061666835E+04  0.14061666835E+04  0.00000000000E+00 0. -1.
         21   -1    0    0  501  502 -0.00000000000E+00 -0.00000000000E+00 -0.10024784586E+03  0.10024784586E+03  0.00000000000E+00 0. -1.
         25    1    1    2    0    0 -0.18175747191E+03  0.18036643814E+03  0.60280776741E+03  0.66676085297E+03  0.12500000000E+03 0.  0.
         21    1    1    2  503  502 -0.64097410857E+02 -0.10353285028E+03  0.39836014553E+02  0.12811884022E+03  0.00000000000E+00 0.  1.
         21    1    1    2  504  503  0.24585488277E+03 -0.76833587863E+02  0.66327505564E+03  0.71153483614E+03  0.00000000000E+00 0. -1.
<mgrwt>
<rscale>  4 0.34712829E+03</rscale>
<asrwt>0</asrwt>
<pdfrwt beam="1">  1       21 0.21633332E+00 0.34712829E+03</pdfrwt>
<pdfrwt beam="2">  1       21 0.15422747E-01 0.34712829E+03</pdfrwt>
<totfact> 0.35252673E+03</totfact>
</mgrwt>
</event>
<event>
 5    0  0.3120399E-003  0.3956232E+03  0.7546771E-02  0.1045306E+00
         21   -1    0    0  502  501  0.00000000000E+00  0.00000000000E+00  0.10079525354E+04  0.10079525354E+04  0.00000000000E+00 0. -1.
         21   -1    0    0  503  502 -0.00000000000E+00 -0.00000000000E+00 -0.15846362935E+03  0.15846362935E+03  0.00000000000E+00 0. -1.
         25    1    1    2    0    0 -0.32728959332E+03 -0.78317345595E+02  0.30613527337E+03  0.47180068898E+03  0.12500000000E+03 0.  0.
         21    1    1    2  503  504 -0.19934594845E+02  0.79763846162E+02  0.14034630481E+03  0.16265529349E+03  0.00000000000E+00 0.  1.
         21    1    1    2  504  501  0.34722418817E+03 -0.14465005673E+01  0.40300732784E+03  0.53196018226E+03  0.00000000000E+00 0. -1.
<mgrwt>
<rscale>  4 0.39562315E+03</rscale>
<asrwt>0</asrwt>
<pdfrwt beam="1">  1       21 0.15506962E+00 0.39562315E+03</pdfrwt>
<pdfrwt beam="2">  1       21 0.24379021E-01 0.39562315E+03</pdfrwt>
<totfact> 0.38471803E+03</totfact>
</mgrwt>
</event>
<event>
 5    0  0.3120399E-003  0.3329312E+03  0.7546771E-02  0.1069847E+00
         21   -1    0    0  504  501  0.00000000000E+00  0.00000000000E+00  0.64447562004E+03  0.64447562004E+03  0.00000000000E+00 0. -1.
         21   -1    0    0  501  502 -0.00000000000E+00 -0.00000000000E+00 -0.18982808952E+03  0.18982808952E+03  0.00000000000E+00 0. -1.
         25    1    1    2    0    0 -0.22110900980E+03  0.90333902581E+02  0.72045668411E+02  0.27904298326E+03  0.12500000000E+03 0.  0.
         21    1    1    2  503  502  0.61985431900E+02  0.12179091122E+03  0.11624103720E+03  0.17940791107E+03  0.00000000000E+00 0. -1.
         21    1    1    2  504  503  0.15912357790E+03 -0.21212481380E+03  0.26636082491E+03  0.37585281523E+03  0.00000000000E+00 0. -1.
<mgrwt>
<rscale>  4 0.33293116E+03</rscale>
<asrwt>0</asrwt>
<pdfrwt beam="1">  1       21 0.99150094E-01 0.33293116E+03</pdfrwt>
<pdfrwt beam="2">  1       21 0.29204322E-01 0.33293116E+03</pdfrwt>
<totfact> 0.87020188E+03</totfact>
</mgrwt>
</event>
<event>
 5    0  0.3120399E-003  0.3043995E+03  0.7546771E-02  0.1083062E+00
         21   -1    0    0  503  501  0.00000000000E+00  0.00000000000E+00  0.26005635183E+03  0.26005635183E+03  0.00000000000E+00 0.  1.
         21   -1    0    0  501  502 -0.00000000000E+00 -0.00000000000E+00 -0.36348999036E+03  0.36348999036E+03  0.00000000000E+00 0.  1.
         25    1    1    2    0    0 -0.27068619121E+03  0.10534655928E+03 -0.48602018996E+02  0.31993134876E+03  0.12500000000E+03 0.  0.
         21    1    1    2  503  504  0.25092946318E+03 -0.99900994889E+02 -0.68927897023E+02  0.27874156357E+03  0.00000000000E+00 0.  1.
         21    1    1    2  504  502  0.19756728033E+02 -0.54455643918E+01  0.14096277489E+02  0.24873429864E+02  0.00000000000E+00 0.  1.
<mgrwt>
<rscale>  4 0.30439948E+03</rscale>
<asrwt>0</asrwt>
<pdfrwt beam="1">  1       21 0.40008669E-01 0.30439948E+03</pdfrwt>
<pdfrwt beam="2">  1       21 0.55921537E-01 0.30439948E+03</pdfrwt>
<totfact> 0.17137678E+04</totfact>
</mgrwt>
</event>
<event>
 5    0  0.3120399E-003  0.3491747E+03  0.7546771E-02  0.1062954E+00
         21   -1    0    0  503  501  0.00000000000E+00  0.00000000000E+00  0.11385631140E+03  0.11385631140E+03  0.00000000000E+00 0. -1.
         21   -1    0    0  501  502 -0.00000000000E+00 -0.00000000000E+00 -0.13325637485E+04  0.13325637485E+04  0.00000000000E+00 0. -1.
         25    1    1    2    0    0  0.42898252058E+02 -0.23539224004E+03 -0.69851585712E+03  0.74886525447E+03  0.12500000000E+03 0.  0.
         21    1    1    2  503  504 -0.20600026684E+03  0.17628479717E+03 -0.21311739253E+03  0.34486441198E+03  0.00000000000E+00 0. -1.
         21    1    1    2  504  502  0.16310201478E+03  0.59107442870E+02 -0.30707418741E+03  0.35269039340E+03  0.00000000000E+00 0. -1.
<mgrwt>
<rscale>  4 0.34917468E+03</rscale>
<asrwt>0</asrwt>
<pdfrwt beam="1">  1       21 0.17516354E-01 0.34917468E+03</pdfrwt>
<pdfrwt beam="2">  1       21 0.20500982E+00 0.34917468E+03</pdfrwt>
<totfact> 0.32873526E+03</totfact>
</mgrwt>
</event>
<event>
 5    0  0.3120399E-003  0.3947284E+03  0.7546771E-02  0.1045620E+00
         21   -1    0    0  504  501  0.00000000000E+00  0.00000000000E+00  0.13289063842E+04  0.13289063842E+04  0.00000000000E+00 0.  1.
         21   -1    0    0  501  502 -0.00000000000E+00 -0.00000000000E+00 -0.12316536868E+03  0.12316536868E+03  0.00000000000E+00 0.  1.
         25    1    1    2    0    0 -0.18508543320E+03  0.17464376980E+03  0.70884884406E+03  0.76344531411E+03  0.12500000000E+03 0.  0.
         21    1    1    2  503  502 -0.11364899504E+03 -0.68400408948E+02  0.52359402937E+02  0.14260510893E+03  0.00000000000E+00 0. -1.
         21    1    1    2  504  503  0.29873442824E+03 -0.10624336085E+03  0.44453276851E+03  0.54602132982E+03  0.00000000000E+00 0.  1.
<mgrwt>
<rscale>  4 0.39472836E+03</rscale>
<asrwt>0</asrwt>
<pdfrwt beam="1">  1       21 0.20444713E+00 0.39472836E+03</pdfrwt>
<pdfrwt beam="2">  1       21 0.18948519E-01 0.39472836E+03</pdfrwt>
<totfact> 0.27949758E+03</totfact>
</mgrwt>
</event>
<event>
 5    0  0.3120399E-003  0.5106895E+03  0.7546771E-02  0.1011026E+00
         21   -1    0    0  502  501  0.00000000000E+00  0.00000000000E+00  0.42047150205E+03  0.42047150205E+03  0.00000000000E+00 0. -1.
         21   -1    0    0  504  502 -0.00000000000E+00 -0.00000000000E+00 -0.15483110403E+04  0.15483110403E+04  0.00000000000E+00 0. -1.
         25    1    1    2    0    0 -0.38690633156E+02 -0.32107415649E+03  0.24157822210E+03  0.42257616645E+03  0.12500000000E+03 0.  0.
         21    1    1    2  503  501  0.10331668258E+03 -0.12397916967E+03 -0.79030674821E+02  0.17969701994E+03  0.00000000000E+00 0.  1.
         21    1    1    2  504  503 -0.64626049426E+02  0.44505332616E+03 -0.12903870855E+04  0.13665093559E+04  0.00000000000E+00 0. -1.
<mgrwt>
<rscale>  4 0.51068953E+03</rscale>
<asrwt>0</asrwt>
<pdfrwt beam="1">  1       21 0.64687924E-01 0.51068953E+03</pdfrwt>
<pdfrwt beam="2">  1       21 0.23820170E+00 0.51068953E+03</pdfrwt>
<totfact> 0.13196100E+02</totfact>
</mgrwt>
</event>
<event>
 5    0  0.3120399E-003  0.6216560E+03  0.7546771E-02  0.9861468E-01
         21   -1    0    0  502  501  0.00000000000E+00  0.00000000000E+00  0.11559815867E+04  0.11559815867E+04  0.00000000000E+00 0. -1.
         21   -1    0    0  503  502 -0.00000000000E+00 -0.00000000000E+00 -0.33637432357E+03  0.33637432357E+03  0.00000000000E+00 0. -1.
         25    1    1    2    0    0  0.10708323629E+03  0.25497670344E+03  0.16425969630E+03  0.34508866487E+03  0.12500000000E+03 0.  0.
         21    1    1    2  503  504  0.81528812739E+02 -0.56891542650E+03  0.37857533276E+03  0.68820853845E+03  0.00000000000E+00 0. -1.
         21    1    1    2  504  501 -0.18861204903E+03  0.31393872306E+03  0.27677223409E+03  0.45905870697E+03  0.00000000000E+00 0. -1.
<mgrwt>
<rscale>  4 0.62165602E+03</rscale>
<asrwt>0</asrwt>
<pdfrwt beam="1">  1       21 0.17784332E+00 0.62165602E+03</pdfrwt>
<pdfrwt beam="2">  1       21 0.51749897E-01 0.62165602E+03</pdfrwt>
<totfact> 0.51741568E+02</totfact>
</mgrwt>
</event>
<event>
 5    0  0.3120399E-003  0.2277471E+03  0.7546771E-02  0.1128236E+00
         21   -1    0    0  503  501  0.00000000000E+00  0.00000000000E+00  0.23215420200E+04  0.23215420200E+04  0.00000000000E+00 0.  1.
         21   -1    0    0  501  502 -0.00000000000E+00 -0.00000000000E+00 -0.29029716447E+02  0.29029716447E+02  0.00000000000E+00 0.  1.
         25    1    1    2    0    0 -0.20409046657E+03 -0.83845619889E+02  0.81058952772E+03  0.84933114211E+03  0.12500000000E+03 0.  0.
         21    1    1    2  503  504  0.10375859893E+03  0.91759891641E+02  0.79318845121E+03  0.80519168134E+03  0.00000000000E+00 0.  1.
         21    1    1    2  504  502  0.10033186764E+03 -0.79142717519E+01  0.68873432462E+03  0.69604891299E+03  0.00000000000E+00 0. -1.
<mgrwt>
<rscale>  4 0.22774710E+03</rscale>
<asrwt>0</asrwt>
<pdfrwt beam="1">  1       21 0.35716016E+00 0.22774710E+03</pdfrwt>
<pdfrwt beam="2">  1       21 0.44661120E-02 0.22774710E+03</pdfrwt>
<totfact> 0.49514842E+03</totfact>
</mgrwt>
</event>
<event>
 5    0  0.3120399E-003  0.2103769E+03  0.7546771E-02  0.1141268E+00
         21   -1    0    0  503  501  0.00000000000E+00  0.00000000000E+00  0.84431521372E+02  0.84431521372E+02  0.00000000000E+00 0. -1.
         21   -1    0    0  501  502 -0.00000000000E+00 -0.00000000000E+00 -0.82759904035E+03  0.82759904035E+03  0.00000000000E+00 0. -1.
         25    1    1    2    0    0  0.15145075873E+03  0.13416407972E+03 -0.15939984119E+03  0.28630515535E+03  0.12500000000E+03 0.  0.
         21    1    1    2  503  504 -0.31910597634E+02 -0.72665529817E+02 -0.12857032547E+03  0.15109233620E+03  0.00000000000E+00 0.  1.
         21    1    1    2  504  502 -0.11954016109E+03 -0.61498549906E+02 -0.45519735231E+03  0.47463307017E+03  0.00000000000E+00 0. -1.
<mgrwt>
<rscale>  4 0.21037694E+03</rscale>
<asrwt>0</asrwt>
<pdfrwt beam="1">  1       21 0.12989465E-01 0.21037694E+03</pdfrwt>
<pdfrwt beam="2">  1       21 0.12732293E+00 0.21037694E+03</pdfrwt>
<totfact> 0.22933095E+04</totfact>
</mgrwt>
</event>
<event>
 5    0  0.3120399E-003  0.3946761E+03  0.7546771E-02  0.1045639E+00
         21   -1    0    0  504  501  0.00000000000E+00  0.00000000000E+00  0.22607838245E+03  0.22607838245E+03  0.00000000000E+00 0.  1.
         21   -1    0    0  501  502 -0.00000000000E+00 -0.00000000000E+00 -0.69164903868E+03  0.69164903868E+03  0.00000000000E+00 0.  1.
         25    1    1    2    0    0 -0.16114948111E+03 -0.19417582394E+03 -0.20884622368E+03  0.35059257124E+03  0.12500000000E+03 0.  0.
         21    1    1    2  503  502 -0.22009884093E+02 -0.12986510451E+03 -0.46722067544E+02  0.13975811949E+03  0.00000000000E+00 0.  1.
         21    1    1    2  504  503  0.18315936520E+03  0.32404092845E+03 -0.21000236500E+03  0.42737673039E+03  0.00000000000E+00 0.  1.
<mgrwt>
<rscale>  4 0.39467611E+03</rscale>
<asrwt>0</asrwt>
<pdfrwt beam="1">  1       21 0.34781290E-01 0.39467611E+03</pdfrwt>
<pdfrwt beam="2">  1       21 0.10640754E+00 0.39467611E+03</pdfrwt>
<totfact> 0.50457423E+03</totfact>
</mgrwt>
</event>
<event>
 5    0  0.3120399E-003  0.3242531E+03  0.7546771E-02  0.1073708E+00
         21   -1    0    0  502  501  0.00000000000E+00  0.00000000000E+00  0.55501639271E+03  0.55501639271E+03  0.00000000000E+00 0.  1.
         21   -1    0    0  504  502 -0.00000000000E+00 -0.00000000000E+00 -0.19548149466E+03  0.19548149466E+03  0.00000000000E+00 0.  1.
         25    1    1    2    0    0 -0.22207075486E+03 -0.12684404711E+03  0.82504528355E+02  0.29637278831E+03  0.12500000000E+03 0.  0.
         21    1    1    2  503  501 -0.48057405288E+02 -0.20286912320E+02  0.43503071045E+02  0.67923414260E+02  0.00000000000E+00 0.  1.
         21    1    1    2  504  503  0.27012816015E+03  0.14713095943E+03  0.23352729866E+03  0.38620168480E+03  0.00000000000E+00 0. -1.
<mgrwt>
<rscale>  4 0.32425310E+03</rscale>
<asrwt>0</asrwt>
<pdfrwt beam="1">  1       21 0.85387137E-01 0.32425310E+03</pdfrwt>
<pdfrwt beam="2">  1       21 0.30074076E-01 0.32425310E+03</pdfrwt>
<totfact> 0.11730141E+04</totfact>
</mgrwt>
</event>
<event>
 5    0  0.3120399E-003  0.2504002E+03  0.7546771E-02  0.1113052E+00
         21   -1    0    0  504  501  0.00000000000E+00  0.00000000000E+00  0.32716573434E+03  0.32716573434E+03  0.00000000000E+00 0. -1.
         21   -1    0    0  501  502 -0.00000000000E+00 -0.00000000000E+00 -0.36961515182E+03  0.36961515182E+03  0.00000000000E+00 0. -1.
         25    1    1    2    0    0  0.28489111203E+03  0.77766198231E+01  0.41977317674E+02  0.31402311496E+03  0.12500000000E+03 0.  0.
         21    1    1    2  503  502 -0.17044193500E+03 -0.27408948666E+02 -0.16706465472E+03  0.24023384968E+03  0.00000000000E+00 0. -1.
         21    1    1    2  504  503 -0.11444917703E+03  0.19632328843E+02  0.82637919555E+02  0.14252392153E+03  0.00000000000E+00 0. -1.
<mgrwt>
<rscale>  4 0.25040025E+03</rscale>
<asrwt>0</asrwt>
<pdfrwt beam="1">  1       21 0.50333190E-01 0.25040025E+03</pdfrwt>
<pdfrwt beam="2">  1       21 0.56863869E-01 0.25040025E+03</pdfrwt>
<totfact> 0.10540087E+04</totfact>
</mgrwt>
</event>
<event>
 5    0  0.3120399E-003  0.2992318E+03  0.7546771E-02  0.1085625E+00
         21   -1    0    0  502  501  0.00000000000E+00  0.00000000000E+00  0.10621355138E+03  0.10621355138E+03  0.00000000000E+00 0.  1.
         21   -1    0    0  503  502 -0.00000000000E+00 -0.00000000000E+00 -0.19184820138E+04  0.19184820138E+04  0.00000000000E+00 0.  1.
         25    1    1    2    0    0 -0.15323492499E+03  0.25072927966E+03 -0.45189219538E+03  0.55333323609E+03  0.12500000000E+03 0.  0.
         21    1    1    2  503  504  0.12519510953E+03 -0.14025776175E+03 -0.13429706307E+04  0.13560664328E+04  0.00000000000E+00 0.  1.
         21    1    1    2  504  501  0.28039815459E+02 -0.11047151792E+03 -0.17405636295E+02  0.11529589627E+03  0.00000000000E+00 0.  1.
<mgrwt>
<rscale>  4 0.29923178E+03</rscale>
<asrwt>0</asrwt>
<pdfrwt beam="1">  1       21 0.16340547E-01 0.29923178E+03</pdfrwt>
<pdfrwt beam="2">  1       21 0.29515107E+00 0.29923178E+03</pdfrwt>
<totfact> 0.10915994E+03</totfact>
</mgrwt>
</event>
<event>
 5    0  0.3120399E-003  0.3441699E+03  0.7546771E-02  0.1065034E+00
         21   -1    0    0  504  501  0.00000000000E+00  0.00000000000E+00  0.37843403918E+03  0.37843403918E+03  0.00000000000E+00 0.  1.
         21   -1    0    0  501  502 -0.00000000000E+00 -0.00000000000E+00 -0.31772751518E+03  0.31772751518E+03  0.00000000000E+00 0.  1.
         25    1    1    2    0    0  0.23109378738E+03 -0.14743106068E+03  0.85540571230E+01  0.30139414081E+03  0.12500000000E+03 0.  0.
         21    1    1    2  503  502 -0.29143387592E+03  0.89044616325E+02  0.21898993302E+02  0.30551957979E+03  0.00000000000E+00 0.  1.
         21    1    1    2  504  503  0.60340088537E+02  0.58386444359E+02  0.30253473576E+02  0.89247833772E+02  0.00000000000E+00 0.  1.
<mgrwt>
<rscale>  4 0.34416990E+03</rscale>
<asrwt>0</asrwt>
<pdfrwt beam="1">  1       21 0.58220621E-01 0.34416990E+03</pdfrwt>
<pdfrwt beam="2">  1       21 0.48881156E-01 0.34416990E+03</pdfrwt>
<totfact> 0.10207012E+04</totfact>
</mgrwt>
</event>
<event>
 5    0  0.3120399E-003  0.5973163E+03  0.7546771E-02  0.9910990E-01
         21   -1    0    0  502  501  0.00000000000E+00  0.00000000000E+00  0.20325390423E+03  0.20325390423E+03  0.00000000000E+00 0.  1.
         21   -1    0    0  503  502 -0.00000000000E+00 -0.00000000000E+00 -0.18494801830E+04  0.18494801830E+04  0.00000000000E+00 0.  1.
         25    1    1    2    0    0  0.16743303290E+03 -0.33742936876E+03 -0.33280801146E+03  0.51795614862E+03  0.12500000000E+03 0.  0.
         21    1    1    2  503  504 -0.14593806855E+03 -0.20332449781E+03 -0.35952491665E+03  0.43806042614E+03  0.00000000000E+00 0.  1.
         21    1    1    2  504  501 -0.21494964342E+02  0.54075386656E+03 -0.95389335067E+03  0.10967175125E+04  0.00000000000E+00 0.  1.
<mgrwt>
<rscale>  4 0.59731629E+03</rscale>
<asrwt>0</asrwt>
<pdfrwt beam="1">  1       21 0.31269831E-01 0.59731629E+03</pdfrwt>
<pdfrwt beam="2">  1       21 0.28453542E+00 0.59731629E+03</pdfrwt>
<totfact> 0.30428955E+02</totfact>
</mgrwt>
</event>
<event>
 5    0  0.3120399E-003  0.4257527E+03  0.7546771E-02  0.1035210E+00
         21   -1    0    0  502  501  0.00000000000E+00  0.00000000000E+00  0.50955571491E+03  0.50955571491E+03  0.00000000000E+00 0.  1.
         21   -1    0    0  503  502 -0.00000000000E+00 -0.00000000000E+00 -0.42393249593E+03  0.42393249593E+03  0.00000000000E+00 0.  1.
         25    1    1    2    0    0 -0.16586565970E+03  0.13889899356E+03 -0.10662720166E+03  0.27165917547E+03  0.12500000000E+03 0.  0.
         21    1    1    2  503  504  0.16681551535E+03  0.20609577901E+03 -0.34946680672E+01  0.26516994361E+03  0.00000000000E+00 0.  1.
         21    1    1    2  504  501 -0.94985565092E+00 -0.34499477257E+03  0.19574508870E+03  0.39665909176E+03  0.00000000000E+00 0.  1.
<mgrwt>
<rscale>  4 0.42575272E+03</rscale>
<asrwt>0</asrwt>
<pdfrwt beam="1">  1       21 0.78393187E-01 0.42575272E+03</pdfrwt>
<pdfrwt beam="2">  1       21 0.65220384E-01 0.42575272E+03</pdfrwt>
<totfact> 0.27310056E+03</totfact>
</mgrwt>
</event>
<event>
 5    0  0.3120399E-003  0.3292208E+03  0.7546771E-02  0.1071482E+00
         21   -1    0    0  504  501  0.00000000000E+00  0.00000000000E+00  0.99148649393E+03  0.99148649393E+03  0.00000000000E+00 0.  1.
         21   -1    0    0  501  502 -0.00000000000E+00 -0.00000000000E+00 -0.12902626145E+03  0.12902626145E+03  0.00000000000E+00 0.  1.
         25    1    1    2    0    0  0.15999180067E+03  0.16436079276E+03  0.17379473055E+03  0.31375381248E+03  0.12500000000E+03 0.  0.
         21    1    1    2  503  502 -0.24843361816E+03 -0.26776724892E+02  0.48467834158E+03  0.54529748800E+03  0.00000000000E+00 0.  1.
         21    1    1    2  504  503  0.88441817484E+02 -0.13758406787E+03  0.20398716034E+03  0.26146145490E+03  0.00000000000E+00 0.  1.
<mgrwt>
<rscale>  4 0.32922079E+03</rscale>
<asrwt>0</asrwt>
<pdfrwt beam="1">  1       21 0.15253638E+00 0.32922079E+03</pdfrwt>
<pdfrwt beam="2">  1       21 0.19850195E-01 0.32922079E+03</pdfrwt>
<totfact> 0.61414636E+03</totfact>
</mgrwt>
</event>
<event>
 5    0  0.3120399E-003  0.3398205E+03  0.7546771E-02  0.1066872E+00
         21   -1    0    0  504  501  0.00000000000E+00  0.00000000000E+00  0.58626047119E+03  0.58626047119E+03  0.00000000000E+00 0. -1.
         21   -1    0    0  501  502 -0.00000000000E+00 -0.00000000000E+00 -0.35034747782E+03  0.35034747782E+03  0.00000000000E+00 0. -1.
         25    1    1    2    0    0  0.18603655759E+03  0.25988179245E+03  0.43586407972E+03  0.55475277629E+03  0.12500000000E+03 0.  0.
         21    1    1    2  503  502 -0.28218912949E+02 -0.21484069685E+02 -0.50120592779E+01  0.35818892172E+02  0.00000000000E+00 0.  1.
         21    1    1    2  504  503 -0.15781764464E+03 -0.23839772277E+03 -0.19493902707E+03  0.34603628055E+03  0.00000000000E+00 0. -1.
<mgrwt>
<rscale>  4 0.33982050E+03</rscale>
<asrwt>0</asrwt>
<pdfrwt beam="1">  1       21 0.90193918E-01 0.33982050E+03</pdfrwt>
<pdfrwt beam="2">  1       21 0.53899612E-01 0.33982050E+03</pdfrwt>
<totfact> 0.30977275E+03</totfact>
</mgrwt>
</event>
<event>
 5    0  0.3120399E-003  0.2781949E+03  0.7546771E-02  0.1096679E+00
         21   -1    0    0  502  501  0.00000000000E+00  0.00000000000E+00  0.55243470180E+02  0.55243470180E+02  0.00000000000E+00 0. -1.
         21   -1    0    0  503  502 -0.00000000000E+00 -0.00000000000E+00 -0.16343162251E+04  0.16343162251E+04  0.00000000000E+00 0. -1.
         25    1    1    2    0    0  0.14479377646E+03 -0.16811542432E+03 -0.63089418665E+03  0.68035322322E+03  0.12500000000E+03 0.  0.
         21    1    1    2  503  504 -0.35571962990E+01  0.19108330581E+03 -0.41042601565E+03  0.45274164567E+03  0.00000000000E+00 0. -1.
         21    1    1    2  504  501 -0.14123658016E+03 -0.22967881489E+02 -0.53775255259E+03  0.55646482636E+03  0.00000000000E+00 0. -1.
<mgrwt>
<rscale>  4 0.27819489E+03</rscale>
<asrwt>0</asrwt>
<pdfrwt beam="1">  1       21 0.84989940E-02 0.27819489E+03</pdfrwt>
<pdfrwt beam="2">  1       21 0.25143331E+00 0.27819489E+03</pdfrwt>
<totfact> 0.65506530E+03</totfact>
</mgrwt>
</event>
<event>
 5    0  0.3120399E-003  0.5310820E+03  0.7546771E-02  0.1005970E+00
         21   -1    0    0  502  501  0.00000000000E+00  0.00000000000E+00  0.79063341577E+03  0.79063341577E+03  0.00000000000E+00 0. -1.
         21   -1    0    0  503  502 -0.00000000000E+00 -0.00000000000E+00 -0.36577708023E+03  0.36577708023E+03  0.00000000000E+00 0. -1.
         25    1    1    2    0    0 -0.23215359090E+03 -0.31920641322E+02  0.44761575024E+02  0.26933773540E+03  0.12500000000E+03 0.  0.
         21    1    1    2  503  504  0.47399321458E+03 -0.14717671207E+03  0.28043015878E+03  0.57006282635E+03  0.00000000000E+00 0. -1.
         21    1    1    2  504  501 -0.24183962368E+03  0.17909735339E+03  0.99664601740E+02  0.31700993425E+03  0.00000000000E+00 0. -1.
<mgrwt>
<rscale>  4 0.53108202E+03</rscale>
<asrwt>0</asrwt>
<pdfrwt beam="1">  1       21 0.12163591E+00 0.53108202E+03</pdfrwt>
<pdfrwt beam="2">  1       21 0.56273397E-01 0.53108202E+03</pdfrwt>
<totfact> 0.12559412E+03</totfact>
</mgrwt>
</event>
<event>
 5    0  0.3120399E-003  0.2571353E+03  0.7546771E-02  0.1108877E+00
         21   -1    0    0  503  501  0.00000000000E+00  0.00000000000E+00  0.69714420364E+03  0.69714420364E+03  0.00000000000E+00 0.  1.
         21   -1    0    0  501  502 -0.00000000000E+00 -0.00000000000E+00 -0.18023582837E+03  0.18023582837E+03  0.00000000000E+00 0.  1.
         25    1    1    2    0    0  0.40275183193E+02  0.24708959269E+03  0.50562673254E+03  0.57789164196E+03  0.12500000000E+03 0.  0.
         21    1    1    2  503  504  0.68775678769E+01 -0.59893241938E+02  0.74976570720E+02  0.96208042941E+02  0.00000000000E+00 0. -1.
         21    1    1    2  504  502 -0.47152751070E+02 -0.18719635075E+03 -0.63694927979E+02  0.20328034710E+03  0.00000000000E+00 0.  1.
<mgrwt>
<rscale>  4 0.25713530E+03</rscale>
<asrwt>0</asrwt>
<pdfrwt beam="1">  1       21 0.10725295E+00 0.25713530E+03</pdfrwt>
<pdfrwt beam="2">  1       21 0.27728589E-01 0.25713530E+03</pdfrwt>
<totfact> 0.82635789E+03</totfact>
</mgrwt>
</event>
<event>
 5    0  0.3120399E-003  0.4222318E+03  0.7546771E-02  0.1036342E+00
         21   -1    0    0  502  501  0.00000000000E+00  0.00000000000E+00  0.55077499397E+03  0.55077499397E+03  0.00000000000E+00 0.  1.
         21   -1    0    0  503  502 -0.00000000000E+00 -0.00000000000E+00 -0.35470490619E+03  0.35470490619E+03  0.00000000000E+00 0.  1.
         25    1    1    2    0    0  0.30230564870E+03  0.89562455193E+02 -0.44589850870E+02  0.34208682146E+03  0.12500000000E+03 0.  0.
         21    1    1    2  503  504  0.59164968557E+02 -0.12970286312E+03  0.40224198982E+02  0.14812600173E+03  0.00000000000E+00 0.  1.
         21    1    1    2  504  501 -0.36147061725E+03  0.40140407923E+02  0.20043573966E+03  0.41526707698E+03  0.00000000000E+00 0.  1.
<mgrwt>
<rscale>  4 0.42223178E+03</rscale>
<asrwt>0</asrwt>
<pdfrwt beam="1">  1       21 0.84734615E-01 0.42223178E+03</pdfrwt>
<pdfrwt beam="2">  1       21 0.54569985E-01 0.42223178E+03</pdfrwt>
<totfact> 0.33726167E+03</totfact>
</mgrwt>
</event>
<event>
 5    0  0.3120399E-003  0.4014776E+03  0.7546771E-02  0.1043269E+00
         21   -1    0    0  504  501  0.00000000000E+00  0.00000000000E+00  0.27005573292E+03  0.27005573292E+03  0.00000000000E+00 0. -1.
         21   -1    0    0  501  502 -0.00000000000E+00 -0.00000000000E+00 -0.82091393845E+03  0.82091393845E+03  0.00000000000E+00 0. -1.
         25    1    1    2    0    0 -0.19769650547E+03  0.22541344403E+03 -0.26400253920E+03  0.41858985861E+03  0.12500000000E+03 0.  0.
         21    1    1    2  503  502 -0.14044534075E+03 -0.18531220991E+03 -0.23018291670E+03  0.32718448010E+03  0.00000000000E+00 0. -1.
         21    1    1    2  504  503  0.33814184622E+03 -0.40101234121E+02 -0.56672749633E+02  0.34519533266E+03  0.00000000000E+00 0. -1.
<mgrwt>
<rscale>  4 0.40147765E+03</rscale>
<asrwt>0</asrwt>
<pdfrwt beam="1">  1       21 0.41547036E-01 0.40147765E+03</pdfrwt>
<pdfrwt beam="2">  1       21 0.12629445E+00 0.40147765E+03</pdfrwt>
<totfact> 0.22783155E+03</totfact>
</mgrwt>
</event>
<event>
 5    0  0.3120399E-003  0.4975649E+03  0.7546771E-02  0.1014416E+00
         21   -1    0    0  502  501  0.00000000000E+00  0.00000000000E+00  0.24492706189E+03  0.24492706189E+03  0.00000000000E+00 0.  1.
         21   -1    0    0  504  502 -0.00000000000E+00 -0.00000000000E+00 -0.10216241531E+04  0.10216241531E+04  0.00000000000E+00 0.  1.
         25    1    1    2    0    0  0.28989452793E+03  0.67979598624E+02 -0.28829750156E+03  0.43289780845E+03  0.12500000000E+03 0.  0.
         21    1    1    2  503  501 -0.44738485472E+03  0.85551333807E+02 -0.32050248434E+03  0.55695069927E+03  0.00000000000E+00 0. -1.
         21    1    1    2  504  503  0.15749032678E+03 -0.15353093243E+03 -0.16789710531E+03  0.27670270728E+03  0.00000000000E+00 0.  1.
<mgrwt>
<rscale>  4 0.49756491E+03</rscale>
<asrwt>0</asrwt>
<pdfrwt beam="1">  1       21 0.37681086E-01 0.49756491E+03</pdfrwt>
<pdfrwt beam="2">  1       21 0.15717295E+00 0.49756491E+03</pdfrwt>
<totfact> 0.14969563E+03</totfact>
</mgrwt>
</event>
<event>
 5    0  0.3120399E-003  0.5405674E+03  0.7546771E-02  0.1003701E+00
         21   -1    0    0  504  501  0.00000000000E+00  0.00000000000E+00  0.10092160142E+04  0.10092160142E+04  0.00000000000E+00 0. -1.
         21   -1    0    0  501  502 -0.00000000000E+00 -0.00000000000E+00 -0.58786081119E+03  0.58786081119E+03  0.00000000000E+00 0. -1.
         25    1    1    2    0    0  0.19252975453E+03 -0.60461617362E+02  0.10822374965E+03  0.26088444481E+03  0.12500000000E+03 0.  0.
         21    1    1    2  503  502 -0.47600443803E+03  0.11137018457E+02 -0.36473929163E+03  0.59978246812E+03  0.00000000000E+00 0. -1.
         21    1    1    2  504  503  0.28347468350E+03  0.49324598905E+02  0.67787074495E+03  0.73640991242E+03  0.00000000000E+00 0. -1.
<mgrwt>
<rscale>  4 0.54056739E+03</rscale>
<asrwt>0</asrwt>
<pdfrwt beam="1">  1       21 0.15526400E+00 0.54056739E+03</pdfrwt>
<pdfrwt beam="2">  1       21 0.90440125E-01 0.54056739E+03</pdfrwt>
<totfact> 0.22252781E+02</totfact>
</mgrwt>
</event>
<event>
 5    0  0.3120399E-003  0.2635262E+03  0.7546771E-02  0.1105043E+00
         21   -1    0    0  502  501  0.00000000000E+00  0.00000000000E+00  0.13318007878E+03  0.13318007878E+03  0.00000000000E+00 0. -1.
         21   -1    0    0  503  502 -0.00000000000E+00 -0.00000000000E+00 -0.66288144693E+03  0.66288144693E+03  0.00000000000E+00 0. -1.
         25    1    1    2    0    0 -0.18584521996E+03  0.74320806618E+02 -0.53529661160E+02  0.24197614077E+03  0.12500000000E+03 0.  0.
         21    1    1    2  503  504  0.22867391997E+03 -0.64239279774E+02 -0.42243315485E+03  0.48463204295E+03  0.00000000000E+00 0. -1.
         21    1    1    2  504  501 -0.42828700002E+02 -0.10081526845E+02 -0.53738552140E+02  0.69453341989E+02  0.00000000000E+00 0.  1.
<mgrwt>
<rscale>  4 0.26352618E+03</rscale>
<asrwt>0</asrwt>
<pdfrwt beam="1">  1       21 0.20489243E-01 0.26352618E+03</pdfrwt>
<pdfrwt beam="2">  1       21 0.10198176E+00 0.26352618E+03</pdfrwt>
<totfact> 0.16603046E+04</totfact>
</mgrwt>
</event>
<event>
 5    0  0.3120399E-003  0.3868540E+03  0.7546771E-02  0.1048429E+00
         21   -1    0    0  502  501  0.00000000000E+00  0.00000000000E+00  0.44236608806E+03  0.44236608806E+03  0.00000000000E+00 0.  1.
         21   -1    0    0  503  502 -0.00000000000E+00 -0.00000000000E+00 -0.64433222781E+03  0.64433222781E+03  0.00000000000E+00 0.  1.
         25    1    1    2    0    0  0.21328244250E+03 -0.21526468994E+03  0.14741691111E+03  0.35942319443E+03  0.12500000000E+03 0.  0.
         21    1    1    2  503  504 -0.30118089273E+03  0.13296031303E+03 -0.45871414077E+03  0.56463000091E+03  0.00000000000E+00 0.  1.
         21    1    1    2  504  501  0.87898450225E+02  0.82304376910E+02  0.10933108992E+03  0.16264512053E+03  0.00000000000E+00 0. -1.
<mgrwt>
<rscale>  4 0.38685397E+03</rscale>
<asrwt>0</asrwt>
<pdfrwt beam="1">  1       21 0.68056321E-01 0.38685397E+03</pdfrwt>
<pdfrwt beam="2">  1       21 0.99128035E-01 0.38685397E+03</pdfrwt>
<totfact> 0.14538198E+03</totfact>
</mgrwt>
</event>
<event>
 5    0  0.3120399E-003  0.4705829E+03  0.7546771E-02  0.1021756E+00
         21   -1    0    0  504  501  0.00000000000E+00  0.00000000000E+00  0.47699724959E+03  0.47699724959E+03  0.00000000000E+00 0.  1.
         21   -1    0    0  501  502 -0.00000000000E+00 -0.00000000000E+00 -0.60361563886E+03  0.60361563886E+03  0.00000000000E+00 0.  1.
         25    1    1    2    0    0  0.21945128862E+03  0.63000087962E+02  0.81116262282E+02  0.27264028896E+03  0.12500000000E+03 0.  0.
         21    1    1    2  503  502 -0.22952099566E+03 -0.34107280272E+03 -0.30641421967E+03  0.51273796253E+03  0.00000000000E+00 0.  1.
         21    1    1    2  504  503  0.10069707039E+02  0.27807271476E+03  0.98679568119E+02  0.29523463696E+03  0.00000000000E+00 0.  1.
<mgrwt>
<rscale>  4 0.47058287E+03</rscale>
<asrwt>0</asrwt>
<pdfrwt beam="1">  1       21 0.73384193E-01 0.47058287E+03</pdfrwt>
<pdfrwt beam="2">  1       21 0.92863944E-01 0.47058287E+03</pdfrwt>
<totfact> 0.13854294E+03</totfact>
</mgrwt>
</event>
<event>
 5    0  0.3120399E-003  0.2867225E+03  0.7546771E-02  0.1092073E+00
         21   -1    0    0  502  501  0.00000000000E+00  0.00000000000E+00  0.48183002288E+03  0.48183002288E+03  0.00000000000E+00 0.  1.
         21   -1    0    0  503  502 -0.00000000000E+00 -0.00000000000E+00 -0.20245178646E+03  0.20245178646E+03  0.00000000000E+00 0.  1.
         25    1    1    2    0    0 -0.23682903952E+03 -0.53445080983E+02  0.32584899398E+02  0.27501117488E+03  0.12500000000E+03 0.  0.
         21    1    1    2  503  504  0.25468264743E+02  0.10032154460E+03  0.43452130742E+02  0.11225476598E+03  0.00000000000E+00 0. -1.
         21    1    1    2  504  501  0.21136077478E+03 -0.46876463613E+02  0.20334120628E+03  0.29701586848E+03  0.00000000000E+00 0.  1.
<mgrwt>
<rscale>  4 0.28672252E+03</rscale>
<asrwt>0</asrwt>
<pdfrwt beam="1">  1       21 0.74127695E-01 0.28672252E+03</pdfrwt>
<pdfrwt beam="2">  1       21 0.31146429E-01 0.28672252E+03</pdfrwt>
<totfact> 0.15366116E+04</totfact>
</mgrwt>
</event>
<event>
 5    0  0.3120399E-003  0.4184679E+03  0.7546771E-02  0.1037566E+00
         21   -1    0    0  504  501  0.00000000000E+00  0.00000000000E+00  0.27656228116E+03  0.27656228116E+03  0.00000000000E+00 0. -1.
         21   -1    0    0  501  502 -0.00000000000E+00 -0.00000000000E+00 -0.84339035311E+03  0.84339035311E+03  0.00000000000E+00 0. -1.
         25    1    1    2    0    0 -0.20651081304E+03  0.10611359952E+03 -0.26283001815E+02  0.26499548692E+03  0.12500000000E+03 0.  0.
         21    1    1    2  503  502  0.35559168729E+03  0.58659977211E+02 -0.51879145312E+03  0.63168901592E+03  0.00000000000E+00 0. -1.
         21    1    1    2  504  503 -0.14908087426E+03 -0.16477357674E+03 -0.21753617012E+02  0.22326813143E+03  0.00000000000E+00 0.  1.
<mgrwt>
<rscale>  4 0.41846787E+03</rscale>
<asrwt>0</asrwt>
<pdfrwt beam="1">  1       21 0.42548044E-01 0.41846787E+03</pdfrwt>
<pdfrwt beam="2">  1       21 0.12975236E+00 0.41846787E+03</pdfrwt>
<totfact> 0.20083051E+03</totfact>
</mgrwt>
</event>
<event>
 5    0  0.3120399E-003  0.2901887E+03  0.7546771E-02  0.1090251E+00
         21   -1    0    0  503  501  0.00000000000E+00  0.00000000000E+00  0.23318973718E+03  0.23318973718E+03  0.00000000000E+00 0. -1.
         21   -1    0    0  501  502 -0.00000000000E+00 -0.00000000000E+00 -0.53315624990E+03  0.53315624990E+03  0.00000000000E+00 0. -1.
         25    1    1    2    0    0 -0.24671063090E+03 -0.11783247004E+03 -0.22618560827E+03  0.37621211542E+03  0.12500000000E+03 0.  0.
         21    1    1    2  503  504  0.20096396792E+03  0.94479651124E+02  0.73691502276E+02  0.23397298645E+03  0.00000000000E+00 0. -1.
         21    1    1    2  504  502  0.45746662980E+02  0.23352818914E+02 -0.14747240672E+03  0.15616088521E+03  0.00000000000E+00 0.  1.
<mgrwt>
<rscale>  4 0.29018866E+03</rscale>
<asrwt>0</asrwt>
<pdfrwt beam="1">  1       21 0.35875344E-01 0.29018866E+03</pdfrwt>
<pdfrwt beam="2">  1       21 0.82024039E-01 0.29018866E+03</pdfrwt>
<totfact> 0.91957661E+03</totfact>
</mgrwt>
</event>
<event>
 5    0  0.3120399E-003  0.3711782E+03  0.7546771E-02  0.1054243E+00
         21   -1    0    0  502  501  0.00000000000E+00  0.00000000000E+00  0.95624893933E+03  0.95624893933E+03  0.00000000000E+00 0. -1.
         21   -1    0    0  503  502 -0.00000000000E+00 -0.00000000000E+00 -0.16779691329E+03  0.16779691329E+03  0.00000000000E+00 0. -1.
         25    1    1    2    0    0  0.18089495263E+03 -0.10017749182E+03  0.21963815606E+03  0.32653396968E+03  0.12500000000E+03 0.  0.
         21    1    1    2  503  504  0.96017733273E+02  0.19636875438E+03  0.90639561879E+02  0.23663394299E+03  0.00000000000E+00 0. -1.
         21    1    1    2  504  501 -0.27691268590E+03 -0.96191262557E+02  0.47817430810E+03  0.56087793996E+03  0.00000000000E+00 0. -1.
<mgrwt>
<rscale>  4 0.37117820E+03</rscale>
<asrwt>0</asrwt>
<pdfrwt beam="1">  1       21 0.14711522E+00 0.37117820E+03</pdfrwt>
<pdfrwt beam="2">  1       21 0.25814910E-01 0.37117820E+03</pdfrwt>
<totfact> 0.40127418E+03</totfact>
</mgrwt>
</event>
<event>
 5    0  0.3120399E-003  0.5310818E+03  0.7546771E-02  0.1005970E+00
         21   -1    0    0  502  501  0.00000000000E+00  0.00000000000E+00  0.24809045804E+03  0.24809045804E+03  0.00000000000E+00 0. -1.
         21   -1    0    0  503  502 -0.00000000000E+00 -0.00000000000E+00 -0.11413085809E+04  0.11413085809E+04  0.00000000000E+00 0. -1.
         25    1    1    2    0    0  0.26978803258E+03 -0.17004897448E+03 -0.19736465808E+03  0.39532270932E+03  0.12500000000E+03 0.  0.
         21    1    1    2  503  504  0.12861157445E+03 -0.13811555156E+03 -0.29571319878E+03  0.35080356127E+03  0.00000000000E+00 0.  1.
         21    1    1    2  504  501 -0.39839960703E+03  0.30816452604E+03 -0.40014026596E+03  0.64327276830E+03  0.00000000000E+00 0. -1.
<mgrwt>
<rscale>  4 0.53108182E+03</rscale>
<asrwt>0</asrwt>
<pdfrwt beam="1">  1       21 0.38167762E-01 0.53108182E+03</pdfrwt>
<pdfrwt beam="2">  1       21 0.17558594E+00 0.53108182E+03</pdfrwt>
<totfact> 0.10516403E+03</totfact>
</mgrwt>
</event>
<event>
 5    0  0.3120399E-003  0.2942870E+03  0.7546771E-02  0.1088132E+00
         21   -1    0    0  504  501  0.00000000000E+00  0.00000000000E+00  0.77014983366E+03  0.77014983366E+03  0.00000000000E+00 0. -1.
         21   -1    0    0  501  502 -0.00000000000E+00 -0.00000000000E+00 -0.17257690612E+03  0.17257690612E+03  0.00000000000E+00 0. -1.
         25    1    1    2    0    0 -0.82137719702E+02  0.20005315463E+03  0.62774065538E+03  0.67561172288E+03  0.12500000000E+03 0.  0.
         21    1    1    2  503  502  0.35826112117E+02  0.16797367896E+02 -0.21890173492E+02  0.45219924515E+02  0.00000000000E+00 0.  1.
         21    1    1    2  504  503  0.46311607585E+02 -0.21685052252E+03 -0.82775543490E+01  0.22189509238E+03  0.00000000000E+00 0. -1.
<mgrwt>
<rscale>  4 0.29428698E+03</rscale>
<asrwt>0</asrwt>
<pdfrwt beam="1">  1       21 0.11848459E+00 0.29428698E+03</pdfrwt>
<pdfrwt beam="2">  1       21 0.26550294E-01 0.29428698E+03</pdfrwt>
<totfact> 0.68997839E+03</totfact>
</mgrwt>
</event>
<event>
 5    0  0.3120399E-003  0.4241471E+03  0.7546771E-02  0.1035725E+00
         21   -1    0    0  503  501  0.00000000000E+00  0.00000000000E+00  0.71272695736E+03  0.71272695736E+03  0.00000000000E+00 0. -1.
         21   -1    0    0  501  502 -0.00000000000E+00 -0.00000000000E+00 -0.40115204373E+03  0.40115204373E+03  0.00000000000E+00 0. -1.
         25    1    1    2    0    0  0.29435013956E+03  0.13486493176E+03  0.32611242072E+03  0.47624034418E+03  0.12500000000E+03 0.  0.
         21    1    1    2  503  504  0.86360555571E+02 -0.73164575319E+02  0.17460180764E+03  0.20807929227E+03  0.00000000000E+00 0. -1.
         21    1    1    2  504  502 -0.38071069513E+03 -0.61700356442E+02 -0.18913931474E+03  0.42955936464E+03  0.00000000000E+00 0. -1.
<mgrwt>
<rscale>  4 0.42414712E+03</rscale>
<asrwt>0</asrwt>
<pdfrwt beam="1">  1       21 0.10965030E+00 0.42414712E+03</pdfrwt>
<pdfrwt beam="2">  1       21 0.61715699E-01 0.42414712E+03</pdfrwt>
<totfact> 0.13871149E+03</totfact>
</mgrwt>
</event>
<event>
 5    0  0.3120399E-003  0.2623614E+03  0.7546771E-02  0.1105733E+00
         21   -1    0    0  502  501  0.00000000000E+00  0.00000000000E+00  0.10182740407E+03  0.10182740407E+03  0.00000000000E+00 0.  1.
         21   -1    0    0  504  502 -0.00000000000E+00 -0.00000000000E+00 -0.78688982202E+03  0.78688982202E+03  0.00000000000E+00 0.  1.
         25    1    1    2    0    0 -0.10055984634E+03 -0.17807663422E+03 -0.33451024897E+03  0.41151631440E+03  0.12500000000E+03 0.  0.
         21    1    1    2  503  501 -0.68139639820E+02  0.12229368905E+03 -0.10946775087E+03  0.17771309849E+03  0.00000000000E+00 0.  1.
         21    1    1    2  504  503  0.16869948616E+03  0.55782945172E+02 -0.24108441811E+03  0.29948781320E+03  0.00000000000E+00 0.  1.
<mgrwt>
<rscale>  4 0.26236139E+03</rscale>
<asrwt>0</asrwt>
<pdfrwt beam="1">  1       21 0.15665754E-01 0.26236139E+03</pdfrwt>
<pdfrwt beam="2">  1       21 0.12105998E+00 0.26236139E+03</pdfrwt>
<totfact> 0.17988459E+04</totfact>
</mgrwt>
</event>
<event>
 5    0  0.3120399E-003  0.3058427E+03  0.7546771E-02  0.1082356E+00
         21   -1    0    0  502  501  0.00000000000E+00  0.00000000000E+00  0.84388430165E+02  0.84388430165E+02  0.00000000000E+00 0. -1.
         21   -1    0    0  503  502 -0.00000000000E+00 -0.00000000000E+00 -0.17539138477E+04  0.17539138477E+04  0.00000000000E+00 0. -1.
         25    1    1    2    0    0 -0.71390312063E+02  0.20084110407E+03 -0.13440453871E+03  0.28128865204E+03  0.12500000000E+03 0.  0.
         21    1    1    2  503  504  0.35702775251E+02  0.74905423339E+01 -0.45148386098E+03  0.45295526612E+03  0.00000000000E+00 0.  1.
         21    1    1    2  504  501  0.35687536811E+02 -0.20833164640E+03 -0.10836370178E+04  0.11040583597E+04  0.00000000000E+00 0. -1.
<mgrwt>
<rscale>  4 0.30584267E+03</rscale>
<asrwt>0</asrwt>
<pdfrwt beam="1">  1       21 0.12982836E-01 0.30584267E+03</pdfrwt>
<pdfrwt beam="2">  1       21 0.26983290E+00 0.30584267E+03</pdfrwt>
<totfact> 0.23379961E+03</totfact>
</mgrwt>
</event>
<event>
 5    0  0.3120399E-003  0.3036126E+03  0.7546771E-02  0.1083449E+00
         21   -1    0    0  504  501  0.00000000000E+00  0.00000000000E+00  0.11676210004E+03  0.11676210004E+03  0.00000000000E+00 0.  1.
         21   -1    0    0  501  502 -0.00000000000E+00 -0.00000000000E+00 -0.24089478864E+04  0.24089478864E+04  0.00000000000E+00 0.  1.
         25    1    1    2    0    0  0.22076910791E+03  0.17940397547E+03 -0.14988739574E+03  0.34498698065E+03  0.12500000000E+03 0.  0.
         21    1    1    2  503  502 -0.20102108979E+03 -0.96605033143E+02 -0.20167152451E+04  0.20290101998E+04  0.00000000000E+00 0.  1.
         21    1    1    2  504  503 -0.19748018120E+02 -0.82798942324E+02 -0.12558314556E+03  0.15171280605E+03  0.00000000000E+00 0. -1.
<mgrwt>
<rscale>  4 0.30361257E+03</rscale>
<asrwt>0</asrwt>
<pdfrwt beam="1">  1       21 0.17963402E-01 0.30361257E+03</pdfrwt>
<pdfrwt beam="2">  1       21 0.37060733E+00 0.30361257E+03</pdfrwt>
<totfact> 0.32253294E+02</totfact>
</mgrwt>
</event>
<event>
 5    0  0.3120399E-003  0.5405129E+03  0.7546771E-02  0.1003714E+00
         21   -1    0    0  502  501  0.00000000000E+00  0.00000000000E+00  0.93969896688E+03  0.93969896688E+03  0.00000000000E+00 0. -1.
         21   -1    0    0  504  502 -0.00000000000E+00 -0.00000000000E+00 -0.86749248139E+03  0.86749248139E+03  0.00000000000E+00 0. -1.
         25    1    1    2    0    0 -0.35085861030E+03  0.28159193339E+03  0.78716417603E+03  0.91523123930E+03  0.12500000000E+03 0.  0.
         21    1    1    2  503  501  0.13026574758E+03  0.16137593923E+02 -0.71591874366E+02  0.14951582995E+03  0.00000000000E+00 0.  1.
         21    1    1    2  504  503  0.22059286272E+03 -0.29772952732E+03 -0.64336581617E+03  0.74244437902E+03  0.00000000000E+00 0. -1.
<mgrwt>
<rscale>  4 0.54051289E+03</rscale>
<asrwt>0</asrwt>
<pdfrwt beam="1">  1       21 0.14456907E+00 0.54051289E+03</pdfrwt>
<pdfrwt beam="2">  1       21 0.13346038E+00 0.54051289E+03</pdfrwt>
<totfact> 0.10226802E+02</totfact>
</mgrwt>
</event>
<event>
 5    0  0.3120399E-003  0.4114105E+03  0.7546771E-02  0.1039899E+00
         21   -1    0    0  504  501  0.00000000000E+00  0.00000000000E+00  0.23619410490E+03  0.23619410490E+03  0.00000000000E+00 0.  1.
         21   -1    0    0  501  502 -0.00000000000E+00 -0.00000000000E+00 -0.74369773688E+03  0.74369773688E+03  0.00000000000E+00 0.  1.
         25    1    1    2    0    0 -0.31622104313E+03 -0.48059641129E+02 -0.12942438537E+03  0.36698930332E+03  0.12500000000E+03 0.  0.
         21    1    1    2  503  502  0.32889080977E+03 -0.82761900719E+02 -0.20759491819E+03  0.39763594785E+03  0.00000000000E+00 0.  1.
         21    1    1    2  504  503 -0.12669766636E+02  0.13082154185E+03 -0.17048432842E+03  0.21526659061E+03  0.00000000000E+00 0.  1.
<mgrwt>
<rscale>  4 0.41141051E+03</rscale>
<asrwt>0</asrwt>
<pdfrwt beam="1">  1       21 0.36337556E-01 0.41141051E+03</pdfrwt>
<pdfrwt beam="2">  1       21 0.11441503E+00 0.41141051E+03</pdfrwt>
<totfact> 0.38339377E+03</totfact>
</mgrwt>
</event>
<event>
 5    0  0.3120399E-003  0.2124788E+03  0.7546771E-02  0.1139618E+00
         21   -1    0    0  503  501  0.00000000000E+00  0.00000000000E+00  0.82962580360E+03  0.82962580360E+03  0.00000000000E+00 0.  1.
         21   -1    0    0  501  502 -0.00000000000E+00 -0.00000000000E+00 -0.23083610450E+03  0.23083610450E+03  0.00000000000E+00 0.  1.
         25    1    1    2    0    0 -0.58274326756E+02 -0.27980105973E+03  0.41393159060E+03  0.51831350733E+03  0.12500000000E+03 0.  0.
         21    1    1    2  503  504  0.96409307996E+02  0.20517718129E+03  0.31455435943E+03  0.38773299502E+03  0.00000000000E+00 0.  1.
         21    1    1    2  504  502 -0.38134981240E+02  0.74623878431E+02 -0.12969625093E+03  0.15441540575E+03  0.00000000000E+00 0.  1.
<mgrwt>
<rscale>  4 0.21247883E+03</rscale>
<asrwt>0</asrwt>
<pdfrwt beam="1">  1       21 0.12763474E+00 0.21247883E+03</pdfrwt>
<pdfrwt beam="2">  1       21 0.35513247E-01 0.21247883E+03</pdfrwt>
<totfact> 0.34035784E+03</totfact>
</mgrwt>
</event>
<event>
 5    0  0.3120399E-003  0.3707987E+03  0.7546771E-02  0.1054388E+00
         21   -1    0    0  502  501  0.00000000000E+00  0.00000000000E+00  0.22666041877E+03  0.22666041877E+03  0.00000000000E+00 0.  1.
         21   -1    0    0  504  502 -0.00000000000E+00 -0.00000000000E+00 -0.65189089956E+03  0.65189089956E+03  0.00000000000E+00 0.  1.
         25    1    1    2    0    0 -0.22914223060E+03 -0.92608432459E+02 -0.61541974020E+02  0.28371622825E+03  0.12500000000E+03 0.  0.
         21    1    1    2  503  501  0.21538356535E+03  0.20207850907E+03 -0.10474212923E+03  0.31336355513E+03  0.00000000000E+00 0.  1.
         21    1    1    2  504  503  0.13758665251E+02 -0.10947007661E+03 -0.25894637754E+03  0.28147153495E+03  0.00000000000E+00 0.  1.
<mgrwt>
<rscale>  4 0.37079871E+03</rscale>
<asrwt>0</asrwt>
<pdfrwt beam="1">  1       21 0.34870834E-01 0.37079871E+03</pdfrwt>
<pdfrwt beam="2">  1       21 0.10029091E+00 0.37079871E+03</pdfrwt>
<totfact> 0.58554674E+03</totfact>
</mgrwt>
</event>
<event>
 5    0  0.3120399E-003  0.3165667E+03  0.7546771E-02  0.1077240E+00
         21   -1    0    0  502  501  0.00000000000E+00  0.00000000000E+00  0.10276288539E+03  0.10276288539E+03  0.00000000000E+00 0.  1.
         21   -1    0    0  503  502 -0.00000000000E+00 -0.00000000000E+00 -0.10357494749E+04  0.10357494749E+04  0.00000000000E+00 0.  1.
         25    1    1    2    0    0 -0.15625021238E+03 -0.19396838480E+03 -0.63334424524E+03  0.69194493723E+03  0.12500000000E+03 0.  0.
         21    1    1    2  503  504  0.19015751725E+03  0.16528624447E+03 -0.31146255206E+03  0.40060996657E+03  0.00000000000E+00 0.  1.
         21    1    1    2  504  501 -0.33907304872E+02  0.28682140329E+02  0.11820207768E+02  0.45957456514E+02  0.00000000000E+00 0. -1.
<mgrwt>
<rscale>  4 0.31656670E+03</rscale>
<asrwt>0</asrwt>
<pdfrwt beam="1">  1       21 0.15809675E-01 0.31656670E+03</pdfrwt>
<pdfrwt beam="2">  1       21 0.15934607E+00 0.31656670E+03</pdfrwt>
<totfact> 0.83945669E+03</totfact>
</mgrwt>
</event>
<event>
 5    0  0.3120399E-003  0.4268157E+03  0.7546771E-02  0.1034871E+00
         21   -1    0    0  502  501  0.00000000000E+00  0.00000000000E+00  0.33536036970E+03  0.33536036970E+03  0.00000000000E+00 0. -1.
         21   -1    0    0  503  502 -0.00000000000E+00 -0.00000000000E+00 -0.60297862918E+03  0.60297862918E+03  0.00000000000E+00 0. -1.
         25    1    1    2    0    0 -0.35051360606E+03 -0.15672041231E+03 -0.32911196537E+03  0.52092298991E+03  0.12500000000E+03 0.  0.
         21    1    1    2  503  504  0.32678217754E+03  0.12614746587E+03  0.67214844452E+01  0.35034975818E+03  0.00000000000E+00 0. -1.
         21    1    1    2  504  501  0.23731428517E+02  0.30572946440E+02  0.54772221439E+02  0.67066250789E+02  0.00000000000E+00 0.  1.
<mgrwt>
<rscale>  4 0.42681565E+03</rscale>
<asrwt>0</asrwt>
<pdfrwt beam="1">  1       21 0.51593903E-01 0.42681565E+03</pdfrwt>
<pdfrwt beam="2">  1       21 0.92765942E-01 0.42681565E+03</pdfrwt>
<totfact> 0.30670727E+03</totfact>
</mgrwt>
</event>
<event>
 5    0  0.3120399E-003  0.4107356E+03  0.7546771E-02  0.1040124E+00
         21   -1    0    0  504  501  0.00000000000E+00  0.00000000000E+00  0.41731223307E+03  0.41731223307E+03  0.00000000000E+00 0. -1.
         21   -1    0    0  501  502 -0.00000000000E+00 -0.00000000000E+00 -0.42462055487E+03  0.42462055487E+03  0.00000000000E+00 0. -1.
         25    1    1    2    0    0 -0.24300788237E+03  0.95757157330E+02  0.76169042172E+02  0.29941440690E+03  0.12500000000E+03 0.  0.
         21    1    1    2  503  502 -0.31892951733E+01  0.14297438769E+03 -0.13388006411E+03  0.19589721464E+03  0.00000000000E+00 0. -1.
         21    1    1    2  504  503  0.24619717754E+03 -0.23873154502E+03  0.50402700149E+02  0.34662116640E+03  0.00000000000E+00 0. -1.
<mgrwt>
<rscale>  4 0.41073564E+03</rscale>
<asrwt>0</asrwt>
<pdfrwt beam="1">  1       21 0.64201882E-01 0.41073564E+03</pdfrwt>
<pdfrwt beam="2">  1       21 0.65326239E-01 0.41073564E+03</pdfrwt>
<totfact> 0.42923245E+03</totfact>
</mgrwt>
</event>
<event>
 5    0  0.3120399E-003  0.4487421E+03  0.7546771E-02  0.1028098E+00
         21   -1    0    0  503  501  0.00000000000E+00  0.00000000000E+00  0.10804494419E+04  0.10804494419E+04  0.00000000000E+00 0. -1.
         21   -1    0    0  501  502 -0.00000000000E+00 -0.00000000000E+00 -0.22654853996E+03  0.22654853996E+03  0.00000000000E+00 0. -1.
         25    1    1    2    0    0  0.10701514379E+03 -0.29854000527E+03  0.58506531120E+03  0.67712982073E+03  0.12500000000E+03 0.  0.
         21    1    1    2  503  504  0.44682281505E+02  0.29096500597E+03  0.35025752368E+03  0.45753412318E+03  0.00000000000E+00 0. -1.
         21    1    1    2  504  502 -0.15169742529E+03  0.75749992987E+01 -0.81421932980E+02  0.17233403792E+03  0.00000000000E+00 0.  1.
<mgrwt>
<rscale>  4 0.44874210E+03</rscale>
<asrwt>0</asrwt>
<pdfrwt beam="1">  1       21 0.16622299E+00 0.44874210E+03</pdfrwt>
<pdfrwt beam="2">  1       21 0.34853622E-01 0.44874210E+03</pdfrwt>
<totfact> 0.15291151E+03</totfact>
</mgrwt>
</event>
<event>
 5    0  0.3120399E-003  0.3079444E+03  0.7546771E-02  0.1081335E+00
         21   -1    0    0  502  501  0.00000000000E+00  0.00000000000E+00  0.77729876663E+03  0.77729876663E+03  0.00000000000E+00 0.  1.
         21   -1    0    0  504  502 -0.00000000000E+00 -0.00000000000E+00 -0.16194053605E+03  0.16194053605E+03  0.00000000000E+00 0.  1.
         25    1    1    2    0    0  0.15418136412E+03  0.13150208134E+03  0.43619510373E+03  0.49694653531E+03  0.12500000000E+03 0.  0.
         21    1    1    2  503  501  0.88945804521E+02  0.19029872502E+02  0.11950016026E+03  0.15017916131E+03  0.00000000000E+00 0. -1.
         21    1    1    2  504  503 -0.24312716865E+03 -0.15053195384E+03  0.59662966592E+02  0.29211360606E+03  0.00000000000E+00 0.  1.
<mgrwt>
<rscale>  4 0.30794443E+03</rscale>
<asrwt>0</asrwt>
<pdfrwt beam="1">  1       21 0.11958442E+00 0.30794443E+03</pdfrwt>
<pdfrwt beam="2">  1       21 0.24913929E-01 0.30794443E+03</pdfrwt>
<totfact> 0.75732512E+03</totfact>
</mgrwt>
</event>
<event>
 5    0  0.3120399E-003  0.4162534E+03  0.7546771E-02  0.1038293E+00
         21   -1    0    0  502  501  0.00000000000E+00  0.00000000000E+00  0.71274102536E+03  0.71274102536E+03  0.00000000000E+00 0. -1.
         21   -1    0    0  503  502 -0.00000000000E+00 -0.00000000000E+00 -0.38061010936E+03  0.38061010936E+03  0.00000000000E+00 0. -1.
         25    1    1    2    0    0 -0.29563309507E+03 -0.16967982708E+03  0.47902599915E+03  0.60106661734E+03  0.12500000000E+03 0.  0.
         21    1    1    2  503  504  0.23579465791E+03 -0.34018953595E+02 -0.14707659408E+03  0.27997845350E+03  0.00000000000E+00 0.  1.
         21    1    1    2  504  501  0.59838437165E+02  0.20369878067E+03  0.18151092391E+00  0.21230606387E+03  0.00000000000E+00 0. -1.
<mgrwt>
<rscale>  4 0.41625343E+03</rscale>
<asrwt>0</asrwt>
<pdfrwt beam="1">  1       21 0.10965246E+00 0.41625343E+03</pdfrwt>
<pdfrwt beam="2">  1       21 0.58555402E-01 0.41625343E+03</pdfrwt>
<totfact> 0.15613971E+03</totfact>
</mgrwt>
</event>
<event>
 5    0  0.3120399E-003  0.2323754E+03  0.7546771E-02  0.1124979E+00
         21   -1    0    0  503  501  0.00000000000E+00  0.00000000000E+00  0.36305036502E+03  0.36305036502E+03  0.00000000000E+00 0.  1.
         21   -1    0    0  501  502 -0.00000000000E+00 -0.00000000000E+00 -0.28823961220E+03  0.28823961220E+03  0.00000000000E+00 0.  1.
         25    1    1    2    0    0 -0.13233732205E+03  0.17738754724E+03  0.15758527408E+02  0.25466220746E+03  0.12500000000E+03 0.  0.
         21    1    1    2  503  504  0.67185695807E+02 -0.11787612234E+03  0.19318648003E+03  0.23607141717E+03  0.00000000000E+00 0.  1.
         21    1    1    2  504  502  0.65151626240E+02 -0.59511424902E+02 -0.13413425462E+03  0.16055635259E+03  0.00000000000E+00 0.  1.
<mgrwt>
<rscale>  4 0.23237543E+03</rscale>
<asrwt>0</asrwt>
<pdfrwt beam="1">  1       21 0.55853903E-01 0.23237543E+03</pdfrwt>
<pdfrwt beam="2">  1       21 0.44344555E-01 0.23237543E+03</pdfrwt>
<totfact> 0.14392614E+04</totfact>
</mgrwt>
</event>
<event>
 5    0  0.3120399E-003  0.5659873E+03  0.7546771E-02  0.9978598E-01
         21   -1    0    0  504  501  0.00000000000E+00  0.00000000000E+00  0.62452443693E+03  0.62452443693E+03  0.00000000000E+00 0. -1.
         21   -1    0    0  501  502 -0.00000000000E+00 -0.00000000000E+00 -0.52519832048E+03  0.52519832048E+03  0.00000000000E+00 0. -1.
         25    1    1    2    0    0 -0.39776609168E+03 -0.31104516185E+03  0.10195265547E+03  0.53008140917E+03  0.12500000000E+03 0.  0.
         21    1    1    2  503  502  0.70494829955E+02 -0.56196778628E+02 -0.81402498793E+02  0.12146590381E+03  0.00000000000E+00 0. -1.
         21    1    1    2  504  503  0.32727126172E+03  0.36724194047E+03  0.78775959775E+02  0.49817544443E+03  0.00000000000E+00 0. -1.
<mgrwt>
<rscale>  4 0.56598731E+03</rscale>
<asrwt>0</asrwt>
<pdfrwt beam="1">  1       21 0.96080683E-01 0.56598731E+03</pdfrwt>
<pdfrwt beam="2">  1       21 0.80799742E-01 0.56598731E+03</pdfrwt>
<totfact> 0.98965753E+02</totfact>
</mgrwt>
</event>
<event>
 5    0  0.3120399E-003  0.3489638E+03  0.7546771E-02  0.1063041E+00
         21   -1    0    0  503  501  0.00000000000E+00  0.00000000000E+00  0.70269060909E+03  0.70269060909E+03  0.00000000000E+00 0. -1.
         21   -1    0    0  501  502 -0.00000000000E+00 -0.00000000000E+00 -0.32871589921E+03  0.32871589921E+03  0.00000000000E+00 0. -1.
         25    1    1    2    0    0 -0.12634206604E+03  0.19252615135E+03  0.49324469918E+02  0.26662059174E+03  0.12500000000E+03 0.  0.
         21    1    1    2  503  504  0.22998332982E+03 -0.13485937583E+03  0.49204538666E+03  0.55963206285E+03  0.00000000000E+00 0. -1.
         21    1    1    2  504  502 -0.10364126378E+03 -0.57666775521E+02 -0.16739514669E+03  0.20515385371E+03  0.00000000000E+00 0.  1.
<mgrwt>
<rscale>  4 0.34896376E+03</rscale>
<asrwt>0</asrwt>
<pdfrwt beam="1">  1       21 0.10810625E+00 0.34896376E+03</pdfrwt>
<pdfrwt beam="2">  1       21 0.50571677E-01 0.34896376E+03</pdfrwt>
<totfact> 0.22847419E+03</totfact>
</mgrwt>
</event>
<event>
 5    0  0.3120399E-003  0.3261541E+03  0.7546771E-02  0.1072851E+00
         21   -1    0    0  503  501  0.00000000000E+00  0.00000000000E+00  0.11373146874E+04  0.11373146874E+04  0.00000000000E+00 0.  1.
         21   -1    0    0  501  502 -0.00000000000E+00 -0.00000000000E+00 -0.10497801656E+03  0.10497801656E+03  0.00000000000E+00 0.  1.
         25    1    1    2    0    0 -0.22744625584E+03 -0.58266817365E+02  0.23770900935E+03  0.35673154392E+03  0.12500000000E+03 0.  0.
         21    1    1    2  503  504  0.41794829253E+01  0.12221225203E+03  0.47487318603E+03  0.49036501245E+03  0.00000000000E+00 0. -1.
         21    1    1    2  504  502  0.22326677292E+03 -0.63945434669E+02  0.31975447549E+03  0.39519614763E+03  0.00000000000E+00 0.  1.
<mgrwt>
<rscale>  4 0.32615406E+03</rscale>
<asrwt>0</asrwt>
<pdfrwt beam="1">  1       21 0.17497148E+00 0.32615406E+03</pdfrwt>
<pdfrwt beam="2">  1       21 0.16150465E-01 0.32615406E+03</pdfrwt>
<totfact> 0.61836106E+03</totfact>
</mgrwt>
</event>
<event>
 5    0  0.3120399E-003  0.3501500E+03  0.7546771E-02  0.1062554E+00
         21   -1    0    0  504  501  0.00000000000E+00  0.00000000000E+00  0.74372070629E+03  0.74372070629E+03  0.00000000000E+00 0. -1.
         21   -1    0    0  501  502 -0.00000000000E+00 -0.00000000000E+00 -0.18680218278E+03  0.18680218278E+03  0.00000000000E+00 0. -1.
         25    1    1    2    0    0 -0.17965438087E+03  0.11010062732E+03  0.39582189933E+03  0.46550813171E+03  0.12500000000E+03 0.  0.
         21    1    1    2  503  502  0.85769831644E+02  0.14266708345E+03  0.56335991530E+02  0.17573873978E+03  0.00000000000E+00 0.  1.
         21    1    1    2  504  503  0.93884549224E+02 -0.25276771077E+03  0.10476063265E+03  0.28927601757E+03  0.00000000000E+00 0. -1.
<mgrwt>
<rscale>  4 0.35014997E+03</rscale>
<asrwt>0</asrwt>
<pdfrwt beam="1">  1       21 0.11441857E+00 0.35014997E+03</pdfrwt>
<pdfrwt beam="2">  1       21 0.28738798E-01 0.35014997E+03</pdfrwt>
<totfact> 0.62798399E+03</totfact>
</mgrwt>
</event>
<event>
 5    0  0.3120399E-003  0.7495029E+03  0.7546771E-02  0.9636130E-01
         21   -1    0    0  502  501  0.00000000000E+00  0.00000000000E+00  0.11528004304E+04  0.11528004304E+04  0.00000000000E+00 0. -1.
         21   -1    0    0  503  502 -0.00000000000E+00 -0.00000000000E+00 -0.52347872324E+03  0.52347872324E+03  0.00000000000E+00 0. -1.
         25    1    1    2    0    0  0.82808530941E+02 -0.60661048599E+03  0.51014161290E+03  0.80666163893E+03  0.12500000000E+03 0.  0.
         21    1    1    2  503  504 -0.21614107382E+03  0.67634393639E+03  0.83117165401E+02  0.71488918530E+03  0.00000000000E+00 0. -1.
         21    1    1    2  504  501  0.13333254287E+03 -0.69733450392E+02  0.36062928895E+02  0.15472832945E+03  0.00000000000E+00 0.  1.
<mgrwt>
<rscale>  4 0.74950295E+03</rscale>
<asrwt>0</asrwt>
<pdfrwt beam="1">  1       21 0.17735391E+00 0.74950295E+03</pdfrwt>
<pdfrwt beam="2">  1       21 0.80535189E-01 0.74950295E+03</pdfrwt>
<totfact> 0.18583295E+02</totfact>
</mgrwt>
</event>
<event>
 5    0  0.3120399E-003  0.6786486E+03  0.7546771E-02  0.9754459E-01
         21   -1    0    0  503  501  0.00000000000E+00  0.00000000000E+00  0.27473255501E+04  0.27473255501E+04  0.00000000000E+00 0.  1.
         21   -1    0    0  501  502 -0.00000000000E+00 -0.00000000000E+00 -0.18459177074E+03  0.18459177074E+03  0.00000000000E+00 0.  1.
         25    1    1    2    0    0 -0.31536493630E+03  0.36367771692E+03  0.49267878981E+03  0.70005279427E+03  0.12500000000E+03 0.  0.
         21    1    1    2  503  504  0.27681937268E+03 -0.56419157859E+03  0.16214523595E+04  0.17389792571E+04  0.00000000000E+00 0.  1.
         21    1    1    2  504  502  0.38545563616E+02  0.20051386167E+03  0.44860262999E+03  0.49288526944E+03  0.00000000000E+00 0.  1.
<mgrwt>
<rscale>  4 0.67864859E+03</rscale>
<asrwt>0</asrwt>
<pdfrwt beam="1">  1       21 0.42266544E+00 0.67864859E+03</pdfrwt>
<pdfrwt beam="2">  1       21 0.28398736E-01 0.67864859E+03</pdfrwt>
<totfact> 0.48293081E+01</totfact>
</mgrwt>
</event>
<event>
 5    0  0.3120399E-003  0.2727245E+03  0.7546771E-02  0.1099730E+00
         21   -1    0    0  504  501  0.00000000000E+00  0.00000000000E+00  0.46509562527E+02  0.46509562527E+02  0.00000000000E+00 0.  1.
         21   -1    0    0  501  502 -0.00000000000E+00 -0.00000000000E+00 -0.17801764289E+04  0.17801764289E+04  0.00000000000E+00 0.  1.
         25    1    1    2    0    0 -0.20724339168E+03 -0.14766375939E+03 -0.80252862366E+03  0.85113547748E+03  0.12500000000E+03 0.  0.
         21    1    1    2  503  502  0.24640290481E+02  0.60180869260E+02 -0.43265054747E+03  0.43751043092E+03  0.00000000000E+00 0. -1.
         21    1    1    2  504  503  0.18260310119E+03  0.87482890134E+02 -0.49848769525E+03  0.53804008303E+03  0.00000000000E+00 0. -1.
<mgrwt>
<rscale>  4 0.27272450E+03</rscale>
<asrwt>0</asrwt>
<pdfrwt beam="1">  1       21 0.71553176E-02 0.27272450E+03</pdfrwt>
<pdfrwt beam="2">  1       21 0.27387328E+00 0.27272450E+03</pdfrwt>
<totfact> 0.65430092E+03</totfact>
</mgrwt>
</event>
<event>
 5    0  0.3120399E-003  0.2645251E+03  0.7546771E-02  0.1104455E+00
         21   -1    0    0  502  501  0.00000000000E+00  0.00000000000E+00  0.24017896589E+03  0.24017896589E+03  0.00000000000E+00 0. -1.
         21   -1    0    0  504  502 -0.00000000000E+00 -0.00000000000E+00 -0.37378495867E+03  0.37378495867E+03  0.00000000000E+00 0. -1.
         25    1    1    2    0    0 -0.12858633759E+03  0.19903592999E+03 -0.47686000782E+02  0.27211891209E+03  0.12500000000E+03 0.  0.
         21    1    1    2  503  501  0.70586569101E+02 -0.19406526089E+02  0.66752271482E+02  0.99070392854E+02  0.00000000000E+00 0. -1.
         21    1    1    2  504  503  0.57999768492E+02 -0.17962940390E+03 -0.15267226348E+03  0.24277461961E+03  0.00000000000E+00 0. -1.
<mgrwt>
<rscale>  4 0.26452515E+03</rscale>
<asrwt>0</asrwt>
<pdfrwt beam="1">  1       21 0.36950610E-01 0.26452515E+03</pdfrwt>
<pdfrwt beam="2">  1       21 0.57505378E-01 0.26452515E+03</pdfrwt>
<totfact> 0.19291169E+04</totfact>
</mgrwt>
</event>
<event>
 5    0  0.3120399E-003  0.5303643E+03  0.7546771E-02  0.1006144E+00
         21   -1    0    0  504  501  0.00000000000E+00  0.00000000000E+00  0.55694851818E+03  0.55694851818E+03  0.00000000000E+00 0. -1.
         21   -1    0    0  501  502 -0.00000000000E+00 -0.00000000000E+00 -0.76894486916E+03  0.76894486916E+03  0.00000000000E+00 0. -1.
         25    1    1    2    0    0  0.60837739997E+02  0.26030751734E+03 -0.23299325810E+03  0.37599480384E+03  0.12500000000E+03 0.  0.
         21    1    1    2  503  502 -0.33784560383E+03  0.78987625352E+02 -0.25641769664E+03  0.43142639249E+03  0.00000000000E+00 0. -1.
         21    1    1    2  504  503  0.27700786383E+03 -0.33929514269E+03  0.27741460375E+03  0.51847219101E+03  0.00000000000E+00 0. -1.
<mgrwt>
<rscale>  4 0.53036425E+03</rscale>
<asrwt>0</asrwt>
<pdfrwt beam="1">  1       21 0.85684387E-01 0.53036425E+03</pdfrwt>
<pdfrwt beam="2">  1       21 0.11829921E+00 0.53036425E+03</pdfrwt>
<totfact> 0.52167659E+02</totfact>
</mgrwt>
</event>
<event>
 5    0  0.3120399E-003  0.5439495E+03  0.7546771E-02  0.1002904E+00
         21   -1    0    0  504  501  0.00000000000E+00  0.00000000000E+00  0.25947807336E+04  0.25947807336E+04  0.00000000000E+00 0.  1.
         21   -1    0    0  501  502 -0.00000000000E+00 -0.00000000000E+00 -0.13410555304E+03  0.13410555304E+03  0.00000000000E+00 0.  1.
         25    1    1    2    0    0  0.16827894636E+03  0.35480401081E+03  0.46510796007E+03  0.62141299021E+03  0.12500000000E+03 0.  0.
         21    1    1    2  503  502  0.17306854420E+03 -0.16488099981E+00  0.35995463447E+03  0.39939965830E+03  0.00000000000E+00 0. -1.
         21    1    1    2  504  503 -0.34134749056E+03 -0.35463912981E+03  0.16356125860E+04  0.17080736381E+04  0.00000000000E+00 0.  1.
<mgrwt>
<rscale>  4 0.54394952E+03</rscale>
<asrwt>0</asrwt>
<pdfrwt beam="1">  1       21 0.39919700E+00 0.54394952E+03</pdfrwt>
<pdfrwt beam="2">  1       21 0.20631625E-01 0.54394952E+03</pdfrwt>
<totfact> 0.13740377E+02</totfact>
</mgrwt>
</event>
<event>
 5    0  0.3120399E-003  0.2955219E+03  0.7546771E-02  0.1087501E+00
         21   -1    0    0  502  501  0.00000000000E+00  0.00000000000E+00  0.15577409378E+03  0.15577409378E+03  0.00000000000E+00 0. -1.
         21   -1    0    0  503  502 -0.00000000000E+00 -0.00000000000E+00 -0.78912321688E+03  0.78912321688E+03  0.00000000000E+00 0. -1.
         25    1    1    2    0    0  0.11041854082E+03  0.25957617855E+03 -0.12052078405E+03  0.33124357505E+03  0.12500000000E+03 0.  0.
         21    1    1    2  503  504 -0.11709012970E+02 -0.20405365773E+03 -0.42047290114E+03  0.46751733317E+03  0.00000000000E+00 0. -1.
         21    1    1    2  504  501 -0.98709527847E+02 -0.55522520816E+02 -0.92355437906E+02  0.14613640243E+03  0.00000000000E+00 0. -1.
<mgrwt>
<rscale>  4 0.29552188E+03</rscale>
<asrwt>0</asrwt>
<pdfrwt beam="1">  1       21 0.23965245E-01 0.29552188E+03</pdfrwt>
<pdfrwt beam="2">  1       21 0.12140357E+00 0.29552188E+03</pdfrwt>
<totfact> 0.79040423E+03</totfact>
</mgrwt>
</event>
<event>
 5    0  0.3120399E-003  0.3800685E+03  0.7546771E-02  0.1050908E+00
         21   -1    0    0  503  501  0.00000000000E+00  0.00000000000E+00  0.74943258593E+03  0.74943258593E+03  0.00000000000E+00 0.  1.
         21   -1    0    0  501  502 -0.00000000000E+00 -0.00000000000E+00 -0.26890273760E+03  0.26890273760E+03  0.00000000000E+00 0.  1.
         25    1    1    2    0    0 -0.11936289704E+03  0.16510636808E+03 -0.64159789564E+02  0.24748554012E+03  0.12500000000E+03 0.  0.
         21    1    1    2  503  504  0.10049153354E+03 -0.32823381226E+03  0.48897921489E+03  0.59744175985E+03  0.00000000000E+00 0.  1.
         21    1    1    2  504  502  0.18871363495E+02  0.16312744418E+03  0.55710423006E+02  0.17340802356E+03  0.00000000000E+00 0.  1.
<mgrwt>
<rscale>  4 0.38006849E+03</rscale>
<asrwt>0</asrwt>
<pdfrwt beam="1">  1       21 0.11529732E+00 0.38006849E+03</pdfrwt>
<pdfrwt beam="2">  1       21 0.41369652E-01 0.38006849E+03</pdfrwt>
<totfact> 0.29224586E+03</totfact>
</mgrwt>
</event>
<event>
 5    0  0.3120399E-003  0.3434363E+03  0.7546771E-02  0.1065342E+00
         21   -1    0    0  504  501  0.00000000000E+00  0.00000000000E+00  0.27535564047E+03  0.27535564047E+03  0.00000000000E+00 0. -1.
         21   -1    0    0  501  502 -0.00000000000E+00 -0.00000000000E+00 -0.49014137742E+03  0.49014137742E+03  0.00000000000E+00 0. -1.
         25    1    1    2    0    0  0.76371554213E+02 -0.21446260216E+03 -0.70867357710E+00  0.25971585287E+03  0.12500000000E+03 0.  0.
         21    1    1    2  503  502  0.46377793854E+02 -0.24477663972E+02 -0.23075428549E+03  0.23663811204E+03  0.00000000000E+00 0. -1.
         21    1    1    2  504  503 -0.12274934807E+03  0.23894026613E+03  0.16677222114E+02  0.26914305298E+03  0.00000000000E+00 0. -1.
<mgrwt>
<rscale>  4 0.34343634E+03</rscale>
<asrwt>0</asrwt>
<pdfrwt beam="1">  1       21 0.42362407E-01 0.34343634E+03</pdfrwt>
<pdfrwt beam="2">  1       21 0.75406365E-01 0.34343634E+03</pdfrwt>
<totfact> 0.77569677E+03</totfact>
</mgrwt>
</event>
<event>
 5    0  0.3120399E-003  0.3747532E+03  0.7546771E-02  0.1052890E+00
         21   -1    0    0  502  501  0.00000000000E+00  0.00000000000E+00  0.18793694953E+04  0.18793694953E+04  0.00000000000E+00 0. -1.
         21   -1    0    0  503  502 -0.00000000000E+00 -0.00000000000E+00 -0.13359836724E+03  0.13359836724E+03  0.00000000000E+00 0. -1.
         25    1    1    2    0    0 -0.25549578513E+03  0.76494715176E+02  0.63516744697E+03  0.70013728894E+03  0.12500000000E+03 0.  0.
         21    1    1    2  503  504  0.19440706825E+03 -0.20254976614E+03  0.10850369117E+03  0.30098765248E+03  0.00000000000E+00 0. -1.
         21    1    1    2  504  501  0.61088716880E+02  0.12605505096E+03  0.10020999899E+04  0.10118429211E+04  0.00000000000E+00 0. -1.
<mgrwt>
<rscale>  4 0.37475320E+03</rscale>
<asrwt>0</asrwt>
<pdfrwt beam="1">  1       21 0.28913375E+00 0.37475320E+03</pdfrwt>
<pdfrwt beam="2">  1       21 0.20553596E-01 0.37475320E+03</pdfrwt>
<totfact> 0.72846073E+02</totfact>
</mgrwt>
</event>
<event>
 5    0  0.3120399E-003  0.2714057E+03  0.7546771E-02  0.1100478E+00
         21   -1    0    0  504  501  0.00000000000E+00  0.00000000000E+00  0.13635339633E+04  0.13635339633E+04  0.00000000000E+00 0. -1.
         21   -1    0    0  501  502 -0.00000000000E+00 -0.00000000000E+00 -0.57088730655E+02  0.57088730655E+02  0.00000000000E+00 0. -1.
         25    1    1    2    0    0 -0.20608327052E+03  0.45129837133E+02  0.37340024414E+03  0.44672111984E+03  0.12500000000E+03 0.  0.
         21    1    1    2  503  502  0.20692676870E+03 -0.77913404164E+02  0.60351471527E+03  0.64274349293E+03  0.00000000000E+00 0. -1.
         21    1    1    2  504  503 -0.84349818145E+00  0.32783567031E+02  0.32953027324E+03  0.33115808119E+03  0.00000000000E+00 0. -1.
<mgrwt>
<rscale>  4 0.27140573E+03</rscale>
<asrwt>0</asrwt>
<pdfrwt beam="1">  1       21 0.20977443E+00 0.27140573E+03</pdfrwt>
<pdfrwt beam="2">  1       21 0.87828827E-02 0.27140573E+03</pdfrwt>
<totfact> 0.11207500E+04</totfact>
</mgrwt>
</event>
<event>
 5    0  0.3120399E-003  0.5101268E+03  0.7546771E-02  0.1011169E+00
         21   -1    0    0  504  501  0.00000000000E+00  0.00000000000E+00  0.73300882875E+03  0.73300882875E+03  0.00000000000E+00 0. -1.
         21   -1    0    0  501  502 -0.00000000000E+00 -0.00000000000E+00 -0.44960167474E+03  0.44960167474E+03  0.00000000000E+00 0. -1.
         25    1    1    2    0    0 -0.10563418788E+03 -0.20108515507E+03  0.18165254357E+03  0.31656984667E+03  0.12500000000E+03 0.  0.
         21    1    1    2  503  502 -0.24880344123E+03  0.32532661949E+03 -0.12388873067E+03  0.42788898011E+03  0.00000000000E+00 0. -1.
         21    1    1    2  504  503  0.35443762911E+03 -0.12424146442E+03  0.22564334111E+03  0.43815167671E+03  0.00000000000E+00 0. -1.
<mgrwt>
<rscale>  4 0.51012681E+03</rscale>
<asrwt>0</asrwt>
<pdfrwt beam="1">  1       21 0.11277059E+00 0.51012681E+03</pdfrwt>
<pdfrwt beam="2">  1       21 0.69169489E-01 0.51012681E+03</pdfrwt>
<totfact> 0.97024811E+02</totfact>
</mgrwt>
</event>
<event>
 5    0  0.3120399E-003  0.3030348E+03  0.7546771E-02  0.1083733E+00
         21   -1    0    0  503  501  0.00000000000E+00  0.00000000000E+00  0.74598752713E+03  0.74598752713E+03  0.00000000000E+00 0.  1.
         21   -1    0    0  501  502 -0.00000000000E+00 -0.00000000000E+00 -0.17649222651E+03  0.17649222651E+03  0.00000000000E+00 0.  1.
         25    1    1    2    0    0  0.24193249920E+03 -0.11656786199E+03  0.77808977735E+02  0.30626563247E+03  0.12500000000E+03 0.  0.
         21    1    1    2  503  504 -0.23700094423E+03  0.28175611420E+02  0.46676259997E+03  0.52424291829E+03  0.00000000000E+00 0.  1.
         21    1    1    2  504  502 -0.49315549712E+01  0.88392250569E+02  0.24923722925E+02  0.91971202882E+02  0.00000000000E+00 0.  1.
<mgrwt>
<rscale>  4 0.30303482E+03</rscale>
<asrwt>0</asrwt>
<pdfrwt beam="1">  1       21 0.11476731E+00 0.30303482E+03</pdfrwt>
<pdfrwt beam="2">  1       21 0.27152651E-01 0.30303482E+03</pdfrwt>
<totfact> 0.71174127E+03</totfact>
</mgrwt>
</event>
<event>
 5    0  0.3120399E-003  0.2701930E+03  0.7546771E-02  0.1101169E+00
         21   -1    0    0  502  501  0.00000000000E+00  0.00000000000E+00  0.57486605467E+03  0.57486605467E+03  0.00000000000E+00 0. -1.
         21   -1    0    0  503  502 -0.00000000000E+00 -0.00000000000E+00 -0.20066970740E+03  0.20066970740E+03  0.00000000000E+00 0. -1.
         25    1    1    2    0    0 -0.14205192691E+03  0.19805760392E+03  0.18671377759E+03  0.33150052662E+03  0.12500000000E+03 0.  0.
         21    1    1    2  503  504  0.11512581581E+02 -0.24247675319E+03  0.47134277486E+02  0.24728355280E+03  0.00000000000E+00 0. -1.
         21    1    1    2  504  501  0.13053934533E+03  0.44419149271E+02  0.14034829219E+03  0.19675168264E+03  0.00000000000E+00 0. -1.
<mgrwt>
<rscale>  4 0.27019302E+03</rscale>
<asrwt>0</asrwt>
<pdfrwt beam="1">  1       21 0.88440931E-01 0.27019302E+03</pdfrwt>
<pdfrwt beam="2">  1       21 0.30872263E-01 0.27019302E+03</pdfrwt>
<totfact> 0.10521268E+04</totfact>
</mgrwt>
</event>
<event>
 5    0  0.3120399E-003  0.3825016E+03  0.7546771E-02  0.1050013E+00
         21   -1    0    0  502  501  0.00000000000E+00  0.00000000000E+00  0.40773445999E+03  0.40773445999E+03  0.00000000000E+00 0.  1.
         21   -1    0    0  504  502 -0.00000000000E+00 -0.00000000000E+00 -0.37136415651E+03  0.37136415651E+03  0.00000000000E+00 0.  1.
         25    1    1    2    0    0  0.28900913162E+03 -0.17558235920E+02  0.56612991278E+02  0.32041317168E+03  0.12500000000E+03 0.  0.
         21    1    1    2  503  501 -0.28000350338E+03  0.15501991872E+03 -0.50262976347E+01  0.32009123820E+03  0.00000000000E+00 0.  1.
         21    1    1    2  504  503 -0.90056282336E+01 -0.13746168280E+03 -0.15216390161E+02  0.13859420661E+03  0.00000000000E+00 0. -1.
<mgrwt>
<rscale>  4 0.38250158E+03</rscale>
<asrwt>0</asrwt>
<pdfrwt beam="1">  1       21 0.62728379E-01 0.38250158E+03</pdfrwt>
<pdfrwt beam="2">  1       21 0.57132947E-01 0.38250158E+03</pdfrwt>
<totfact> 0.61257524E+03</totfact>
</mgrwt>
</event>
<event>
 5    0  0.3120399E-003  0.2327631E+03  0.7546771E-02  0.1124710E+00
         21   -1    0    0  503  501  0.00000000000E+00  0.00000000000E+00  0.30223573943E+03  0.30223573943E+03  0.00000000000E+00 0.  1.
         21   -1    0    0  501  502 -0.00000000000E+00 -0.00000000000E+00 -0.22913363594E+03  0.22913363594E+03  0.00000000000E+00 0.  1.
         25    1    1    2    0    0  0.96633005593E+02  0.19247164669E+03 -0.78291028801E+02  0.26103210098E+03  0.12500000000E+03 0.  0.
         21    1    1    2  503  504 -0.52048906265E+02 -0.16075800716E+03  0.12010434163E+03  0.20730961962E+03  0.00000000000E+00 0.  1.
         21    1    1    2  504  502 -0.44584099328E+02 -0.31713639528E+02  0.31288790662E+02  0.63027654772E+02  0.00000000000E+00 0. -1.
<mgrwt>
<rscale>  4 0.23276308E+03</rscale>
<asrwt>0</asrwt>
<pdfrwt beam="1">  1       21 0.46497806E-01 0.23276308E+03</pdfrwt>
<pdfrwt beam="2">  1       21 0.35251329E-01 0.23276308E+03</pdfrwt>
<totfact> 0.33676988E+04</totfact>
</mgrwt>
</event>
<event>
 5    0  0.3120399E-003  0.4116887E+03  0.7546771E-02  0.1039806E+00
         21   -1    0    0  504  501  0.00000000000E+00  0.00000000000E+00  0.67947956510E+03  0.67947956510E+03  0.00000000000E+00 0. -1.
         21   -1    0    0  501  502 -0.00000000000E+00 -0.00000000000E+00 -0.25986217047E+03  0.25986217047E+03  0.00000000000E+00 0. -1.
         25    1    1    2    0    0  0.99094827155E+02  0.24680942368E+03  0.15189103196E+03  0.33080290503E+03  0.12500000000E+03 0.  0.
         21    1    1    2  503  502 -0.28318413612E+03 -0.20413510764E+03  0.12161011851E+03  0.36966663096E+03  0.00000000000E+00 0. -1.
         21    1    1    2  504  503  0.18408930896E+03 -0.42674316041E+02  0.14611624416E+03  0.23887219958E+03  0.00000000000E+00 0. -1.
<mgrwt>
<rscale>  4 0.41168871E+03</rscale>
<asrwt>0</asrwt>
<pdfrwt beam="1">  1       21 0.10453532E+00 0.41168871E+03</pdfrwt>
<pdfrwt beam="2">  1       21 0.39978796E-01 0.41168871E+03</pdfrwt>
<totfact> 0.39435540E+03</totfact>
</mgrwt>
</event>
<event>
 5    0  0.3120399E-003  0.4813320E+03  0.7546771E-02  0.1018770E+00
         21   -1    0    0  502  501  0.00000000000E+00  0.00000000000E+00  0.49515994970E+03  0.49515994970E+03  0.00000000000E+00 0.  1.
         21   -1    0    0  504  502 -0.00000000000E+00 -0.00000000000E+00 -0.46944252563E+03  0.46944252563E+03  0.00000000000E+00 0.  1.
         25    1    1    2    0    0 -0.22657477627E+03 -0.27734442042E+03  0.31162748217E+02  0.38059450030E+03  0.12500000000E+03 0.  0.
         21    1    1    2  503  501  0.31290853163E+03  0.34496362036E+03  0.35174713938E+02  0.46706413804E+03  0.00000000000E+00 0.  1.
         21    1    1    2  504  503 -0.86333755360E+02 -0.67619199944E+02 -0.40620038090E+02  0.11694383699E+03  0.00000000000E+00 0.  1.
<mgrwt>
<rscale>  4 0.48133203E+03</rscale>
<asrwt>0</asrwt>
<pdfrwt beam="1">  1       21 0.76178454E-01 0.48133203E+03</pdfrwt>
<pdfrwt beam="2">  1       21 0.72221927E-01 0.48133203E+03</pdfrwt>
<totfact> 0.22739128E+03</totfact>
</mgrwt>
</event>
<event>
 5    0  0.3120399E-003  0.3015963E+03  0.7546771E-02  0.1084445E+00
         21   -1    0    0  503  501  0.00000000000E+00  0.00000000000E+00  0.11969538798E+03  0.11969538798E+03  0.00000000000E+00 0. -1.
         21   -1    0    0  501  502 -0.00000000000E+00 -0.00000000000E+00 -0.76679211196E+03  0.76679211196E+03  0.00000000000E+00 0. -1.
         25    1    1    2    0    0 -0.19284912250E+03  0.14742957459E+03 -0.30669367837E+03  0.41062425144E+03  0.12500000000E+03 0.  0.
         21    1    1    2  503  504  0.21315522092E+03 -0.18836107168E+03 -0.27177923059E+03  0.39341961277E+03  0.00000000000E+00 0. -1.
         21    1    1    2  504  502 -0.20306098415E+02  0.40931497091E+02 -0.68623815006E+02  0.82443635734E+02  0.00000000000E+00 0.  1.
<mgrwt>
<rscale>  4 0.30159632E+03</rscale>
<asrwt>0</asrwt>
<pdfrwt beam="1">  1       21 0.18414675E-01 0.30159632E+03</pdfrwt>
<pdfrwt beam="2">  1       21 0.11796802E+00 0.30159632E+03</pdfrwt>
<totfact> 0.13958718E+04</totfact>
</mgrwt>
</event>
<event>
 5    0  0.3120399E-003  0.3611904E+03  0.7546771E-02  0.1058114E+00
         21   -1    0    0  502  501  0.00000000000E+00  0.00000000000E+00  0.76422386452E+03  0.76422386452E+03  0.00000000000E+00 0. -1.
         21   -1    0    0  503  502 -0.00000000000E+00 -0.00000000000E+00 -0.18965189403E+03  0.18965189403E+03  0.00000000000E+00 0. -1.
         25    1    1    2    0    0 -0.20206591685E+03  0.10773869360E+03  0.19311497278E+03  0.32458689678E+03  0.12500000000E+03 0.  0.
         21    1    1    2  503  504  0.86450626393E+02 -0.26632710294E+03  0.12574770338E+03  0.30694677303E+03  0.00000000000E+00 0. -1.
         21    1    1    2  504  501  0.11561529045E+03  0.15858840935E+03  0.25570929433E+03  0.32234208874E+03  0.00000000000E+00 0. -1.
<mgrwt>
<rscale>  4 0.36119042E+03</rscale>
<asrwt>0</asrwt>
<pdfrwt beam="1">  1       21 0.11757290E+00 0.36119042E+03</pdfrwt>
<pdfrwt beam="2">  1       21 0.29177215E-01 0.36119042E+03</pdfrwt>
<totfact> 0.56701000E+03</totfact>
</mgrwt>
</event>
<event>
 5    0  0.3120399E-003  0.2194739E+03  0.7546771E-02  0.1134276E+00
         21   -1    0    0  503  501  0.00000000000E+00  0.00000000000E+00  0.67879527420E+02  0.67879527420E+02  0.00000000000E+00 0.  1.
         21   -1    0    0  501  502 -0.00000000000E+00 -0.00000000000E+00 -0.11774285374E+04  0.11774285374E+04  0.00000000000E+00 0.  1.
         25    1    1    2    0    0 -0.18742226954E+03 -0.15719910329E+03 -0.48259105571E+03  0.55529973190E+03  0.12500000000E+03 0.  0.
         21    1    1    2  503  504  0.12247864315E+03  0.61195474805E+02 -0.16843599005E+03  0.21706355500E+03  0.00000000000E+00 0.  1.
         21    1    1    2  504  502  0.64943626396E+02  0.96003628489E+02 -0.45852196418E+03  0.47294477788E+03  0.00000000000E+00 0.  1.
<mgrwt>
<rscale>  4 0.21947395E+03</rscale>
<asrwt>0</asrwt>
<pdfrwt beam="1">  1       21 0.10443005E-01 0.21947395E+03</pdfrwt>
<pdfrwt beam="2">  1       21 0.18114283E+00 0.21947395E+03</pdfrwt>
<totfact> 0.13166485E+04</totfact>
</mgrwt>
</event>
<event>
 5    0  0.3120399E-003  0.3462117E+03  0.7546771E-02  0.1064181E+00
         21   -1    0    0  503  501  0.00000000000E+00  0.00000000000E+00  0.73459343806E+03  0.73459343806E+03  0.00000000000E+00 0. -1.
         21   -1    0    0  501  502 -0.00000000000E+00 -0.00000000000E+00 -0.17797664797E+03  0.17797664797E+03  0.00000000000E+00 0. -1.
         25    1    1    2    0    0  0.59477615194E+02 -0.19756352540E+03  0.36364569028E+03  0.43638529001E+03  0.12500000000E+03 0.  0.
         21    1    1    2  503  504 -0.23362490743E+02  0.26398635828E+03  0.26282783529E+03  0.37324666687E+03  0.00000000000E+00 0. -1.
         21    1    1    2  504  502 -0.36115124451E+02 -0.66422832882E+02 -0.69856735475E+02  0.10293812915E+03  0.00000000000E+00 0. -1.
<mgrwt>
<rscale>  4 0.34621174E+03</rscale>
<asrwt>0</asrwt>
<pdfrwt beam="1">  1       21 0.11301437E+00 0.34621174E+03</pdfrwt>
<pdfrwt beam="2">  1       21 0.27381023E-01 0.34621174E+03</pdfrwt>
<totfact> 0.71314564E+03</totfact>
</mgrwt>
</event>
<event>
 5    0  0.3120399E-003  0.4549572E+03  0.7546771E-02  0.1026254E+00
         21   -1    0    0  503  501  0.00000000000E+00  0.00000000000E+00  0.12623952710E+04  0.12623952710E+04  0.00000000000E+00 0.  1.
         21   -1    0    0  501  502 -0.00000000000E+00 -0.00000000000E+00 -0.20473220692E+03  0.20473220692E+03  0.00000000000E+00 0.  1.
         25    1    1    2    0    0 -0.16889971580E+03 -0.22555853596E+03  0.36156444186E+03  0.47513957187E+03  0.12500000000E+03 0.  0.
         21    1    1    2  503  504 -0.10309424750E+03  0.31132632677E+03  0.61253213755E+03  0.69480078090E+03  0.00000000000E+00 0.  1.
         21    1    1    2  504  502  0.27199396329E+03 -0.85767790801E+02  0.83566484711E+02  0.29718712518E+03  0.00000000000E+00 0.  1.
<mgrwt>
<rscale>  4 0.45495717E+03</rscale>
<asrwt>0</asrwt>
<pdfrwt beam="1">  1       21 0.19421465E+00 0.45495717E+03</pdfrwt>
<pdfrwt beam="2">  1       21 0.31497263E-01 0.45495717E+03</pdfrwt>
<totfact> 0.11865431E+03</totfact>
</mgrwt>
</event>
<event>
 5    0  0.3120399E-003  0.5391665E+03  0.7546771E-02  0.1004033E+00
         21   -1    0    0  502  501  0.00000000000E+00  0.00000000000E+00  0.60808259478E+03  0.60808259478E+03  0.00000000000E+00 0. -1.
         21   -1    0    0  504  502 -0.00000000000E+00 -0.00000000000E+00 -0.48713465967E+03  0.48713465967E+03  0.00000000000E+00 0. -1.
         25    1    1    2    0    0 -0.83312728666E+02 -0.36653321790E+03 -0.57128682541E+02  0.40022031052E+03  0.12500000000E+03 0.  0.
         21    1    1    2  503  501  0.26717988169E+03  0.38674896326E+03  0.56040798641E+02  0.47339245967E+03  0.00000000000E+00 0. -1.
         21    1    1    2  504  503 -0.18386715302E+03 -0.20215745366E+02  0.12203581901E+03  0.22160448426E+03  0.00000000000E+00 0.  1.
<mgrwt>
<rscale>  4 0.53916650E+03</rscale>
<asrwt>0</asrwt>
<pdfrwt beam="1">  1       21 0.93551168E-01 0.53916650E+03</pdfrwt>
<pdfrwt beam="2">  1       21 0.74943794E-01 0.53916650E+03</pdfrwt>
<totfact> 0.12665509E+03</totfact>
</mgrwt>
</event>
<event>
 5    0  0.3120399E-003  0.3275738E+03  0.7546771E-02  0.1072215E+00
         21   -1    0    0  502  501  0.00000000000E+00  0.00000000000E+00  0.10300813653E+04  0.10300813653E+04  0.00000000000E+00 0.  1.
         21   -1    0    0  503  502 -0.00000000000E+00 -0.00000000000E+00 -0.18601700827E+03  0.18601700827E+03  0.00000000000E+00 0.  1.
         25    1    1    2    0    0 -0.30247102970E+02 -0.26695872777E+03  0.50045466324E+03  0.58160271623E+03  0.12500000000E+03 0.  0.
         21    1    1    2  503  504 -0.12855685858E+03  0.18472070590E+03 -0.23367979852E+02  0.22626238653E+03  0.00000000000E+00 0.  1.
         21    1    1    2  504  501  0.15880396155E+03  0.82238021872E+02  0.36697767363E+03  0.40823327080E+03  0.00000000000E+00 0.  1.
<mgrwt>
<rscale>  4 0.32757378E+03</rscale>
<asrwt>0</asrwt>
<pdfrwt beam="1">  1       21 0.15847405E+00 0.32757378E+03</pdfrwt>
<pdfrwt beam="2">  1       21 0.28618002E-01 0.32757378E+03</pdfrwt>
<totfact> 0.27401229E+03</totfact>
</mgrwt>
</event>
<event>
 5    0  0.3120399E-003  0.2516032E+03  0.7546771E-02  0.1112296E+00
         21   -1    0    0  503  501  0.00000000000E+00  0.00000000000E+00  0.47775290164E+02  0.47775290164E+02  0.00000000000E+00 0. -1.
         21   -1    0    0  501  502 -0.00000000000E+00 -0.00000000000E+00 -0.15527391837E+04  0.15527391837E+04  0.00000000000E+00 0. -1.
         25    1    1    2    0    0  0.23737708311E+03  0.67529512246E+01 -0.72207434701E+03  0.77033099674E+03  0.12500000000E+03 0.  0.
         21    1    1    2  503  504 -0.18026994701E+03  0.82982213426E+01 -0.35497361108E+03  0.39821147502E+03  0.00000000000E+00 0. -1.
         21    1    1    2  504  502 -0.57107136099E+02 -0.15051172567E+02 -0.42791593541E+03  0.43197200206E+03  0.00000000000E+00 0. -1.
<mgrwt>
<rscale>  4 0.25160321E+03</rscale>
<asrwt>0</asrwt>
<pdfrwt beam="1">  1       21 0.73500442E-02 0.25160321E+03</pdfrwt>
<pdfrwt beam="2">  1       21 0.23888296E+00 0.25160321E+03</pdfrwt>
<totfact> 0.10245719E+04</totfact>
</mgrwt>
</event>
<event>
 5    0  0.3120399E-003  0.7023227E+03  0.7546771E-02  0.9713268E-01
         21   -1    0    0  504  501  0.00000000000E+00  0.00000000000E+00  0.15226643422E+04  0.15226643422E+04  0.00000000000E+00 0.  1.
         21   -1    0    0  501  502 -0.00000000000E+00 -0.00000000000E+00 -0.37508115637E+03  0.37508115637E+03  0.00000000000E+00 0.  1.
         25    1    1    2    0    0 -0.17214234779E+03 -0.15358740417E+03  0.18352863266E+03  0.32020280703E+03  0.12500000000E+03 0.  0.
         21    1    1    2  503  502  0.15247566603E+03  0.62496739890E+03  0.18952729157E+03  0.67063676656E+03  0.00000000000E+00 0.  1.
         21    1    1    2  504  503  0.19666681760E+02 -0.47137999472E+03  0.77452726162E+03  0.90690592499E+03  0.00000000000E+00 0.  1.
<mgrwt>
<rscale>  4 0.70232275E+03</rscale>
<asrwt>0</asrwt>
<pdfrwt beam="1">  1       21 0.23425605E+00 0.70232275E+03</pdfrwt>
<pdfrwt beam="2">  1       21 0.57704794E-01 0.70232275E+03</pdfrwt>
<totfact> 0.16605617E+02</totfact>
</mgrwt>
</event>
<event>
 5    0  0.3120399E-003  0.1847311E+03  0.7546771E-02  0.1163301E+00
         21   -1    0    0  502  501  0.00000000000E+00  0.00000000000E+00  0.11792860726E+03  0.11792860726E+03  0.00000000000E+00 0.  1.
         21   -1    0    0  504  502 -0.00000000000E+00 -0.00000000000E+00 -0.91075726929E+03  0.91075726929E+03  0.00000000000E+00 0.  1.
         25    1    1    2    0    0 -0.19036433118E+03  0.10689126904E+03 -0.10683780305E+03  0.27331966293E+03  0.12500000000E+03 0.  0.
         21    1    1    2  503  501  0.75143449188E+02  0.19331613585E+02 -0.48663303166E+03  0.49277982583E+03  0.00000000000E+00 0.  1.
         21    1    1    2  504  503  0.11522088199E+03 -0.12622288262E+03 -0.19935782731E+03  0.26258638779E+03  0.00000000000E+00 0.  1.
<mgrwt>
<rscale>  4 0.18473106E+03</rscale>
<asrwt>0</asrwt>
<pdfrwt beam="1">  1       21 0.18142863E-01 0.18473106E+03</pdfrwt>
<pdfrwt beam="2">  1       21 0.14011650E+00 0.18473106E+03</pdfrwt>
<totfact> 0.99379573E+03</totfact>
</mgrwt>
</event>
<event>
 5    0  0.3120399E-003  0.2391995E+03  0.7546771E-02  0.1120327E+00
         21   -1    0    0  504  501  0.00000000000E+00  0.00000000000E+00  0.15552398534E+04  0.15552398534E+04  0.00000000000E+00 0.  1.
         21   -1    0    0  501  502 -0.00000000000E+00 -0.00000000000E+00 -0.65090587625E+02  0.65090587625E+02  0.00000000000E+00 0.  1.
         25    1    1    2    0    0 -0.18447171650E+03 -0.95809511892E+02  0.46329538331E+03  0.52295017827E+03  0.12500000000E+03 0.  0.
         21    1    1    2  503  502 -0.57191234874E+02  0.10335622912E+03  0.55221593259E+03  0.56470858295E+03  0.00000000000E+00 0.  1.
         21    1    1    2  504  503  0.24166295138E+03 -0.75467172314E+01  0.47463794987E+03  0.53267167981E+03  0.00000000000E+00 0.  1.
<mgrwt>
<rscale>  4 0.23919946E+03</rscale>
<asrwt>0</asrwt>
<pdfrwt beam="1">  1       21 0.23926764E+00 0.23919946E+03</pdfrwt>
<pdfrwt beam="2">  1       21 0.10013938E-01 0.23919946E+03</pdfrwt>
<totfact> 0.59720162E+03</totfact>
</mgrwt>
</event>
<event>
 5    0  0.3120399E-003  0.2884745E+03  0.7546771E-02  0.1091148E+00
         21   -1    0    0  504  501  0.00000000000E+00  0.00000000000E+00  0.14464815580E+04  0.14464815580E+04  0.00000000000E+00 0. -1.
         21   -1    0    0  501  502 -0.00000000000E+00 -0.00000000000E+00 -0.63158884239E+02  0.63158884239E+02  0.00000000000E+00 0. -1.
         25    1    1    2    0    0  0.14424982830E+03 -0.17579900497E+03  0.81184426767E+03  0.85230828815E+03  0.12500000000E+03 0.  0.
         21    1    1    2  503  502 -0.19805043877E+03  0.84805691066E+02  0.42745030450E+03  0.47867498822E+03  0.00000000000E+00 0. -1.
         21    1    1    2  504  503  0.53800610472E+02  0.90993313901E+02  0.14402810156E+03  0.17865716582E+03  0.00000000000E+00 0. -1.
<mgrwt>
<rscale>  4 0.28847453E+03</rscale>
<asrwt>0</asrwt>
<pdfrwt beam="1">  1       21 0.22253560E+00 0.28847453E+03</pdfrwt>
<pdfrwt beam="2">  1       21 0.97167525E-02 0.28847453E+03</pdfrwt>
<totfact> 0.77035998E+03</totfact>
</mgrwt>
</event>
<event>
 5    0  0.3120399E-003  0.3076888E+03  0.7546771E-02  0.1081459E+00
         21   -1    0    0  502  501  0.00000000000E+00  0.00000000000E+00  0.98828504090E+03  0.98828504090E+03  0.00000000000E+00 0. -1.
         21   -1    0    0  504  502 -0.00000000000E+00 -0.00000000000E+00 -0.10671912016E+03  0.10671912016E+03  0.00000000000E+00 0. -1.
         25    1    1    2    0    0  0.13706887058E+03  0.22685694950E+03  0.29856641978E+03  0.41835255209E+03  0.12500000000E+03 0.  0.
         21    1    1    2  503  501 -0.19067656363E+03 -0.16741810664E+03  0.50356850830E+03  0.56388617371E+03  0.00000000000E+00 0. -1.
         21    1    1    2  504  503  0.53607693047E+02 -0.59438842856E+02  0.79430992663E+02  0.11276543526E+03  0.00000000000E+00 0. -1.
<mgrwt>
<rscale>  4 0.30768876E+03</rscale>
<asrwt>0</asrwt>
<pdfrwt beam="1">  1       21 0.15204385E+00 0.30768876E+03</pdfrwt>
<pdfrwt beam="2">  1       21 0.16418327E-01 0.30768876E+03</pdfrwt>
<totfact> 0.89310038E+03</totfact>
</mgrwt>
</event>
<event>
 5    0  0.3120399E-003  0.2589201E+03  0.7546771E-02  0.1107794E+00
         21   -1    0    0  503  501  0.00000000000E+00  0.00000000000E+00  0.43345264427E+02  0.43345264427E+02  0.00000000000E+00 0. -1.
         21   -1    0    0  501  502 -0.00000000000E+00 -0.00000000000E+00 -0.18072146736E+04  0.18072146736E+04  0.00000000000E+00 0. -1.
         25    1    1    2    0    0 -0.20402539689E+03 -0.71318950492E+02 -0.78438561899E+03  0.82316374711E+03  0.12500000000E+03 0.  0.
         21    1    1    2  503  504  0.32770063781E+02  0.11962446618E+03 -0.29183620130E+03  0.31709976093E+03  0.00000000000E+00 0. -1.
         21    1    1    2  504  502  0.17125533311E+03 -0.48305515684E+02 -0.68764758884E+03  0.71029642995E+03  0.00000000000E+00 0. -1.
<mgrwt>
<rscale>  4 0.25892015E+03</rscale>
<asrwt>0</asrwt>
<pdfrwt beam="1">  1       21 0.66685039E-02 0.25892015E+03</pdfrwt>
<pdfrwt beam="2">  1       21 0.27803296E+00 0.25892015E+03</pdfrwt>
<totfact> 0.70664334E+03</totfact>
</mgrwt>
</event>
<event>
 5    0  0.3120399E-003  0.2158324E+03  0.7546771E-02  0.1137029E+00
         21   -1    0    0  503  501  0.00000000000E+00  0.00000000000E+00  0.21018209408E+03  0.21018209408E+03  0.00000000000E+00 0. -1.
         21   -1    0    0  501  502 -0.00000000000E+00 -0.00000000000E+00 -0.40066421644E+03  0.40066421644E+03  0.00000000000E+00 0. -1.
         25    1    1    2    0    0  0.11908939748E+03 -0.16237192995E+03 -0.40530247274E+02  0.24044672835E+03  0.12500000000E+03 0.  0.
         21    1    1    2  503  504 -0.10345283149E+03 -0.30821101742E+02 -0.13937146429E+03  0.17628622667E+03  0.00000000000E+00 0. -1.
         21    1    1    2  504  502 -0.15636565998E+02  0.19319303170E+03 -0.10580410799E+02  0.19411335550E+03  0.00000000000E+00 0. -1.
<mgrwt>
<rscale>  4 0.21583239E+03</rscale>
<asrwt>0</asrwt>
<pdfrwt beam="1">  1       21 0.32335707E-01 0.21583239E+03</pdfrwt>
<pdfrwt beam="2">  1       21 0.61640649E-01 0.21583239E+03</pdfrwt>
<totfact> 0.22199648E+04</totfact>
</mgrwt>
</event>
<event>
 5    0  0.3120399E-003  0.2280648E+03  0.7546771E-02  0.1128009E+00
         21   -1    0    0  502  501  0.00000000000E+00  0.00000000000E+00  0.28185848743E+04  0.28185848743E+04  0.00000000000E+00 0.  1.
         21   -1    0    0  503  502 -0.00000000000E+00 -0.00000000000E+00 -0.89621407001E+02  0.89621407001E+02  0.00000000000E+00 0.  1.
         25    1    1    2    0    0  0.40907186812E+02 -0.23653341934E+03  0.12968805042E+04  0.13248190438E+04  0.12500000000E+03 0.  0.
         21    1    1    2  503  504 -0.31159398036E+02  0.11804515403E+03 -0.22338118774E+02  0.12411509992E+03  0.00000000000E+00 0.  1.
         21    1    1    2  504  501 -0.97477887753E+01  0.11848826531E+03  0.14544210818E+04  0.14592721376E+04  0.00000000000E+00 0.  1.
<mgrwt>
<rscale>  4 0.22806479E+03</rscale>
<asrwt>0</asrwt>
<pdfrwt beam="1">  1       21 0.43362837E+00 0.22806479E+03</pdfrwt>
<pdfrwt beam="2">  1       21 0.13787911E-01 0.22806479E+03</pdfrwt>
<totfact> 0.22992235E+02</totfact>
</mgrwt>
</event>
<event>
 5    0  0.3120399E-003  0.4935316E+03  0.7546771E-02  0.1015481E+00
         21   -1    0    0  503  501  0.00000000000E+00  0.00000000000E+00  0.13450653802E+04  0.13450653802E+04  0.00000000000E+00 0. -1.
         21   -1    0    0  501  502 -0.00000000000E+00 -0.00000000000E+00 -0.18960310709E+03  0.18960310709E+03  0.00000000000E+00 0. -1.
         25    1    1    2    0    0  0.29364328905E+03  0.24920490875E+03  0.74832629550E+03  0.85085058165E+03  0.12500000000E+03 0.  0.
         21    1    1    2  503  504 -0.38036035094E+03 -0.24833089214E+03  0.38201887723E+03  0.59353235053E+03  0.00000000000E+00 0. -1.
         21    1    1    2  504  502  0.86717061885E+02 -0.87401661246E+00  0.25117100334E+02  0.90285555081E+02  0.00000000000E+00 0.  1.
<mgrwt>
<rscale>  4 0.49353164E+03</rscale>
<asrwt>0</asrwt>
<pdfrwt beam="1">  1       21 0.20693313E+00 0.49353164E+03</pdfrwt>
<pdfrwt beam="2">  1       21 0.29169710E-01 0.49353164E+03</pdfrwt>
<totfact> 0.11181509E+03</totfact>
</mgrwt>
</event>
<event>
 5    0  0.3120399E-003  0.6101365E+03  0.7546771E-02  0.9884596E-01
         21   -1    0    0  504  501  0.00000000000E+00  0.00000000000E+00  0.29059985038E+04  0.29059985038E+04  0.00000000000E+00 0. -1.
         21   -1    0    0  501  502 -0.00000000000E+00 -0.00000000000E+00 -0.13809005759E+03  0.13809005759E+03  0.00000000000E+00 0. -1.
         25    1    1    2    0    0 -0.15722470031E+03 -0.40703648105E+03  0.96310021700E+03  0.10646996437E+04  0.12500000000E+03 0.  0.
         21    1    1    2  503  502 -0.17144449895E+03 -0.44686190203E+02  0.14773883151E+03  0.23068774166E+03  0.00000000000E+00 0. -1.
         21    1    1    2  504  503  0.32866919927E+03  0.45172267126E+03  0.16570693977E+04  0.17487011760E+04  0.00000000000E+00 0. -1.
<mgrwt>
<rscale>  4 0.61013654E+03</rscale>
<asrwt>0</asrwt>
<pdfrwt beam="1">  1       21 0.44707665E+00 0.61013654E+03</pdfrwt>
<pdfrwt beam="2">  1       21 0.21244626E-01 0.61013654E+03</pdfrwt>
<totfact> 0.60420809E+01</totfact>
</mgrwt>
</event>
<event>
 5    0  0.3120399E-003  0.4233333E+03  0.7546771E-02  0.1035987E+00
         21   -1    0    0  504  501  0.00000000000E+00  0.00000000000E+00  0.11380868858E+04  0.11380868858E+04  0.00000000000E+00 0.  1.
         21   -1    0    0  501  502 -0.00000000000E+00 -0.00000000000E+00 -0.18034171185E+03  0.18034171185E+03  0.00000000000E+00 0.  1.
         25    1    1    2    0    0  0.33623429655E+03 -0.18932759304E+03  0.38386840899E+03  0.55846073728E+03  0.12500000000E+03 0.  0.
         21    1    1    2  503  502 -0.42082356113E+02 -0.92961218240E+01 -0.34781740312E+02  0.55381513487E+02  0.00000000000E+00 0.  1.
         21    1    1    2  504  503 -0.29415194043E+03  0.19862371487E+03  0.60865850531E+03  0.70458634691E+03  0.00000000000E+00 0.  1.
<mgrwt>
<rscale>  4 0.42333330E+03</rscale>
<asrwt>0</asrwt>
<pdfrwt beam="1">  1       21 0.17509029E+00 0.42333330E+03</pdfrwt>
<pdfrwt beam="2">  1       21 0.27744880E-01 0.42333330E+03</pdfrwt>
<totfact> 0.21007680E+03</totfact>
</mgrwt>
</event>
<event>
 5    0  0.3120399E-003  0.6374034E+03  0.7546771E-02  0.9830707E-01
         21   -1    0    0  502  501  0.00000000000E+00  0.00000000000E+00  0.46046631308E+03  0.46046631308E+03  0.00000000000E+00 0.  1.
         21   -1    0    0  503  502 -0.00000000000E+00 -0.00000000000E+00 -0.92298056082E+03  0.92298056082E+03  0.00000000000E+00 0.  1.
         25    1    1    2    0    0 -0.35996079385E+03  0.40537292523E+03 -0.26814199776E+03  0.61759542792E+03  0.12500000000E+03 0.  0.
         21    1    1    2  503  504 -0.11743386409E+03 -0.16917615975E+03 -0.80952810359E+02  0.22127955841E+03  0.00000000000E+00 0.  1.
         21    1    1    2  504  501  0.47739465794E+03 -0.23619676548E+03 -0.11341943962E+03  0.54457188757E+03  0.00000000000E+00 0.  1.
<mgrwt>
<rscale>  4 0.63740345E+03</rscale>
<asrwt>0</asrwt>
<pdfrwt beam="1">  1       21 0.70840972E-01 0.63740345E+03</pdfrwt>
<pdfrwt beam="2">  1       21 0.14199701E+00 0.63740345E+03</pdfrwt>
<totfact> 0.48403040E+02</totfact>
</mgrwt>
</event>
<event>
 5    0  0.3120399E-003  0.4022376E+03  0.7546771E-02  0.1043008E+00
         21   -1    0    0  503  501  0.00000000000E+00  0.00000000000E+00  0.27907133611E+03  0.27907133611E+03  0.00000000000E+00 0. -1.
         21   -1    0    0  501  502 -0.00000000000E+00 -0.00000000000E+00 -0.74169077814E+03  0.74169077814E+03  0.00000000000E+00 0. -1.
         25    1    1    2    0    0  0.13891754887E+03  0.24111112003E+03 -0.13117162970E+03  0.33205971455E+03  0.12500000000E+03 0.  0.
         21    1    1    2  503  504  0.14624263656E+03 -0.18630778860E+03  0.14193415290E+02  0.23727400591E+03  0.00000000000E+00 0. -1.
         21    1    1    2  504  502 -0.28516018544E+03 -0.54803331429E+02 -0.34564122763E+03  0.45142839380E+03  0.00000000000E+00 0. -1.
<mgrwt>
<rscale>  4 0.40223760E+03</rscale>
<asrwt>0</asrwt>
<pdfrwt beam="1">  1       21 0.42934052E-01 0.40223760E+03</pdfrwt>
<pdfrwt beam="2">  1       21 0.11410627E+00 0.40223760E+03</pdfrwt>
<totfact> 0.27510562E+03</totfact>
</mgrwt>
</event>
<event>
 5    0  0.3120399E-003  0.4412088E+03  0.7546771E-02  0.1030377E+00
         21   -1    0    0  502  501  0.00000000000E+00  0.00000000000E+00  0.73497528391E+03  0.73497528391E+03  0.00000000000E+00 0. -1.
         21   -1    0    0  503  502 -0.00000000000E+00 -0.00000000000E+00 -0.27266952201E+03  0.27266952201E+03  0.00000000000E+00 0. -1.
         25    1    1    2    0    0 -0.30326022453E+03 -0.10498055097E+03  0.27959534428E+03  0.44360594721E+03  0.12500000000E+03 0.  0.
         21    1    1    2  503  504 -0.73681808551E+02  0.84883736804E+02 -0.47361643218E+02  0.12197287786E+03  0.00000000000E+00 0. -1.
         21    1    1    2  504  501  0.37694203308E+03  0.20096814166E+02  0.23007206084E+03  0.44206598084E+03  0.00000000000E+00 0. -1.
<mgrwt>
<rscale>  4 0.44120884E+03</rscale>
<asrwt>0</asrwt>
<pdfrwt beam="1">  1       21 0.11307312E+00 0.44120884E+03</pdfrwt>
<pdfrwt beam="2">  1       21 0.41949157E-01 0.44120884E+03</pdfrwt>
<totfact> 0.29083619E+03</totfact>
</mgrwt>
</event>
<event>
 5    0  0.3120399E-003  0.3361604E+03  0.7546771E-02  0.1068443E+00
         21   -1    0    0  504  501  0.00000000000E+00  0.00000000000E+00  0.14892399604E+03  0.14892399604E+03  0.00000000000E+00 0. -1.
         21   -1    0    0  501  502 -0.00000000000E+00 -0.00000000000E+00 -0.12021379301E+04  0.12021379301E+04  0.00000000000E+00 0. -1.
         25    1    1    2    0    0  0.22203274700E+03 -0.29668086634E+02 -0.90361440584E+03  0.93932035566E+03  0.12500000000E+03 0.  0.
         21    1    1    2  503  502  0.76194018942E+02 -0.62351067958E+00 -0.65307911121E+02  0.10035457410E+03  0.00000000000E+00 0.  1.
         21    1    1    2  504  503 -0.29822676595E+03  0.30291597313E+02 -0.84291617077E+02  0.31138699636E+03  0.00000000000E+00 0. -1.
<mgrwt>
<rscale>  4 0.33616040E+03</rscale>
<asrwt>0</asrwt>
<pdfrwt beam="1">  1       21 0.22911384E-01 0.33616040E+03</pdfrwt>
<pdfrwt beam="2">  1       21 0.18494430E+00 0.33616040E+03</pdfrwt>
<totfact> 0.27116895E+03</totfact>
</mgrwt>
</event>
<event>
 5    0  0.3120399E-003  0.3289621E+03  0.7546771E-02  0.1071597E+00
         21   -1    0    0  502  501  0.00000000000E+00  0.00000000000E+00  0.93626617517E+02  0.93626617517E+02  0.00000000000E+00 0.  1.
         21   -1    0    0  504  502 -0.00000000000E+00 -0.00000000000E+00 -0.12958408525E+04  0.12958408525E+04  0.00000000000E+00 0.  1.
         25    1    1    2    0    0 -0.21097485912E+03 -0.10716526528E+02 -0.71126973845E+03  0.75243263882E+03  0.12500000000E+03 0.  0.
         21    1    1    2  503  501 -0.73310375548E+02  0.82491402621E+02 -0.16626122610E+03  0.19955459898E+03  0.00000000000E+00 0.  1.
         21    1    1    2  504  503  0.28428523467E+03 -0.71774876093E+02 -0.32468327043E+03  0.43748023222E+03  0.00000000000E+00 0.  1.
<mgrwt>
<rscale>  4 0.32896212E+03</rscale>
<asrwt>0</asrwt>
<pdfrwt beam="1">  1       21 0.14404096E-01 0.32896212E+03</pdfrwt>
<pdfrwt beam="2">  1       21 0.19936012E+00 0.32896212E+03</pdfrwt>
<totfact> 0.52002844E+03</totfact>
</mgrwt>
</event>
<event>
 5    0  0.3120399E-003  0.3220816E+03  0.7546771E-02  0.1074695E+00
         21   -1    0    0  502  501  0.00000000000E+00  0.00000000000E+00  0.54398350234E+03  0.54398350234E+03  0.00000000000E+00 0.  1.
         21   -1    0    0  503  502 -0.00000000000E+00 -0.00000000000E+00 -0.23994446889E+03  0.23994446889E+03  0.00000000000E+00 0.  1.
         25    1    1    2    0    0 -0.26037766150E+02 -0.23223901982E+03  0.18931375552E+03  0.32569560271E+03  0.12500000000E+03 0.  0.
         21    1    1    2  503  504  0.73088232885E+02  0.91158104011E+01 -0.11369839695E+03  0.13547070995E+03  0.00000000000E+00 0.  1.
         21    1    1    2  504  501 -0.47050466735E+02  0.22312320942E+03  0.22842367488E+03  0.32276165858E+03  0.00000000000E+00 0.  1.
<mgrwt>
<rscale>  4 0.32208161E+03</rscale>
<asrwt>0</asrwt>
<pdfrwt beam="1">  1       21 0.83689770E-01 0.32208161E+03</pdfrwt>
<pdfrwt beam="2">  1       21 0.36914534E-01 0.32208161E+03</pdfrwt>
<totfact> 0.81682944E+03</totfact>
</mgrwt>
</event>
<event>
 5    0  0.3120399E-003  0.4093620E+03  0.7546771E-02  0.1040585E+00
         21   -1    0    0  503  501  0.00000000000E+00  0.00000000000E+00  0.34135488953E+03  0.34135488953E+03  0.00000000000E+00 0.  1.
         21   -1    0    0  501  502 -0.00000000000E+00 -0.00000000000E+00 -0.54446894019E+03  0.54446894019E+03  0.00000000000E+00 0.  1.
         25    1    1    2    0    0  0.55398153458E+02 -0.33904035806E+03 -0.43131082792E+02  0.36810679171E+03  0.12500000000E+03 0.  0.
         21    1    1    2  503  504 -0.11568968484E+03  0.25672425807E+01  0.39090251118E+02  0.12214230080E+03  0.00000000000E+00 0.  1.
         21    1    1    2  504  502  0.60291531383E+02  0.33647311548E+03 -0.19907321899E+03  0.39557473721E+03  0.00000000000E+00 0.  1.
<mgrwt>
<rscale>  4 0.40936196E+03</rscale>
<asrwt>0</asrwt>
<pdfrwt beam="1">  1       21 0.52516138E-01 0.40936196E+03</pdfrwt>
<pdfrwt beam="2">  1       21 0.83764451E-01 0.40936196E+03</pdfrwt>
<totfact> 0.37797393E+03</totfact>
</mgrwt>
</event>
<event>
 5    0  0.3120399E-003  0.5284666E+03  0.7546771E-02  0.1006605E+00
         21   -1    0    0  502  501  0.00000000000E+00  0.00000000000E+00  0.87189073142E+03  0.87189073142E+03  0.00000000000E+00 0.  1.
         21   -1    0    0  503  502 -0.00000000000E+00 -0.00000000000E+00 -0.10901142293E+04  0.10901142293E+04  0.00000000000E+00 0.  1.
         25    1    1    2    0    0  0.12662354665E+03  0.48101795245E+03  0.60045776834E+03  0.78967482213E+03  0.12500000000E+03 0.  0.
         21    1    1    2  503  504 -0.16317316254E+03 -0.46838405466E+03 -0.93026752783E+03  0.10542327907E+04  0.00000000000E+00 0.  1.
         21    1    1    2  504  501  0.36549615882E+02 -0.12633897789E+02  0.11158626162E+03  0.11809734789E+03  0.00000000000E+00 0.  1.
<mgrwt>
<rscale>  4 0.52846660E+03</rscale>
<asrwt>0</asrwt>
<pdfrwt beam="1">  1       21 0.13413704E+00 0.52846660E+03</pdfrwt>
<pdfrwt beam="2">  1       21 0.16770988E+00 0.52846660E+03</pdfrwt>
<totfact> 0.67241794E+01</totfact>
</mgrwt>
</event>
<event>
 5    0  0.3120399E-003  0.4372192E+03  0.7546771E-02  0.1031603E+00
         21   -1    0    0  502  501  0.00000000000E+00  0.00000000000E+00  0.22197400822E+03  0.22197400822E+03  0.00000000000E+00 0. -1.
         21   -1    0    0  504  502 -0.00000000000E+00 -0.00000000000E+00 -0.89220972626E+03  0.89220972626E+03  0.00000000000E+00 0. -1.
         25    1    1    2    0    0 -0.36335595429E+03 -0.13418015962E+02 -0.14070566536E+03  0.40942725475E+03  0.12500000000E+03 0.  0.
         21    1    1    2  503  501  0.36015804805E+03  0.61007089961E+02 -0.30697275920E+03  0.47714563761E+03  0.00000000000E+00 0. -1.
         21    1    1    2  504  503  0.31979062420E+01 -0.47589073999E+02 -0.22255729348E+03  0.22761084212E+03  0.00000000000E+00 0.  1.
<mgrwt>
<rscale>  4 0.43721915E+03</rscale>
<asrwt>0</asrwt>
<pdfrwt beam="1">  1       21 0.34149847E-01 0.43721915E+03</pdfrwt>
<pdfrwt beam="2">  1       21 0.13726304E+00 0.43721915E+03</pdfrwt>
<totfact> 0.26982976E+03</totfact>
</mgrwt>
</event>
<event>
 5    0  0.3120399E-003  0.6595156E+03  0.7546771E-02  0.9789086E-01
         21   -1    0    0  504  501  0.00000000000E+00  0.00000000000E+00  0.86489815393E+03  0.86489815393E+03  0.00000000000E+00 0.  1.
         21   -1    0    0  501  502 -0.00000000000E+00 -0.00000000000E+00 -0.53883547904E+03  0.53883547904E+03  0.00000000000E+00 0.  1.
         25    1    1    2    0    0  0.19894193262E+03 -0.35128550570E+03  0.34120349608E+03  0.54316132484E+03  0.12500000000E+03 0.  0.
         21    1    1    2  503  502  0.76135010497E+00 -0.23792238545E+03  0.73127960796E+01  0.23803595976E+03  0.00000000000E+00 0. -1.
         21    1    1    2  504  503 -0.19970328272E+03  0.58920789115E+03 -0.22453617270E+02  0.62253634838E+03  0.00000000000E+00 0.  1.
<mgrwt>
<rscale>  4 0.65951559E+03</rscale>
<asrwt>0</asrwt>
<pdfrwt beam="1">  1       21 0.13306126E+00 0.65951559E+03</pdfrwt>
<pdfrwt beam="2">  1       21 0.82897766E-01 0.65951559E+03</pdfrwt>
<totfact> 0.39772013E+02</totfact>
</mgrwt>
</event>
<event>
 5    0  0.3120399E-003  0.4098567E+03  0.7546771E-02  0.1040419E+00
         21   -1    0    0  504  501  0.00000000000E+00  0.00000000000E+00  0.62637042563E+03  0.62637042563E+03  0.00000000000E+00 0. -1.
         21   -1    0    0  501  502 -0.00000000000E+00 -0.00000000000E+00 -0.31107324575E+03  0.31107324575E+03  0.00000000000E+00 0. -1.
         25    1    1    2    0    0 -0.27620018313E+03 -0.16428478827E+03  0.71205360592E+02  0.35209549301E+03  0.12500000000E+03 0.  0.
         21    1    1    2  503  502  0.41884777795E+02 -0.10147570902E+03 -0.53983380475E+02  0.12233502973E+03  0.00000000000E+00 0. -1.
         21    1    1    2  504  503  0.23431540534E+03  0.26576049730E+03  0.29807519976E+03  0.46301314864E+03  0.00000000000E+00 0. -1.
<mgrwt>
<rscale>  4 0.40985672E+03</rscale>
<asrwt>0</asrwt>
<pdfrwt beam="1">  1       21 0.96364681E-01 0.40985672E+03</pdfrwt>
<pdfrwt beam="2">  1       21 0.47857422E-01 0.40985672E+03</pdfrwt>
<totfact> 0.33059140E+03</totfact>
</mgrwt>
</event>
<event>
 5    0  0.3120399E-003  0.3252281E+03  0.7546771E-02  0.1073268E+00
         21   -1    0    0  503  501  0.00000000000E+00  0.00000000000E+00  0.50609218926E+03  0.50609218926E+03  0.00000000000E+00 0.  1.
         21   -1    0    0  501  502 -0.00000000000E+00 -0.00000000000E+00 -0.22926422948E+03  0.22926422948E+03  0.00000000000E+00 0.  1.
         25    1    1    2    0    0  0.64326825625E+02  0.19656585946E+03  0.87706679529E+02  0.25708663760E+03  0.12500000000E+03 0.  0.
         21    1    1    2  503  504  0.13225186799E+03 -0.13371491953E+02  0.15996472766E+03  0.20798573864E+03  0.00000000000E+00 0. -1.
         21    1    1    2  504  502 -0.19657869362E+03 -0.18319436751E+03  0.29156552593E+02  0.27028404250E+03  0.00000000000E+00 0.  1.
<mgrwt>
<rscale>  4 0.32522811E+03</rscale>
<asrwt>0</asrwt>
<pdfrwt beam="1">  1       21 0.77860337E-01 0.32522811E+03</pdfrwt>
<pdfrwt beam="2">  1       21 0.35271420E-01 0.32522811E+03</pdfrwt>
<totfact> 0.10553921E+04</totfact>
</mgrwt>
</event>
<event>
 5    0  0.3120399E-003  0.3607667E+03  0.7546771E-02  0.1058281E+00
         21   -1    0    0  503  501  0.00000000000E+00  0.00000000000E+00  0.39836487397E+03  0.39836487397E+03  0.00000000000E+00 0.  1.
         21   -1    0    0  501  502 -0.00000000000E+00 -0.00000000000E+00 -0.41644858247E+03  0.41644858247E+03  0.00000000000E+00 0.  1.
         25    1    1    2    0    0 -0.13879368603E+03 -0.15326740433E+03 -0.13435421925E+03  0.27646092083E+03  0.12500000000E+03 0.  0.
         21    1    1    2  503  504  0.29885026149E+03  0.75749059490E+02  0.17065657325E+03  0.35238198706E+03  0.00000000000E+00 0.  1.
         21    1    1    2  504  502 -0.16005657546E+03  0.77518344841E+02 -0.54386062499E+02  0.18597054856E+03  0.00000000000E+00 0.  1.
<mgrwt>
<rscale>  4 0.36076669E+03</rscale>
<asrwt>0</asrwt>
<pdfrwt beam="1">  1       21 0.61286904E-01 0.36076669E+03</pdfrwt>
<pdfrwt beam="2">  1       21 0.64069013E-01 0.36076669E+03</pdfrwt>
<totfact> 0.50617644E+03</totfact>
</mgrwt>
</event>
<event>
 5    0  0.3120399E-003  0.4338168E+03  0.7546771E-02  0.1032661E+00
         21   -1    0    0  504  501  0.00000000000E+00  0.00000000000E+00  0.87028293949E+03  0.87028293949E+03  0.00000000000E+00 0. -1.
         21   -1    0    0  501  502 -0.00000000000E+00 -0.00000000000E+00 -0.25669186046E+03  0.25669186046E+03  0.00000000000E+00 0. -1.
         25    1    1    2    0    0 -0.38576161655E+03  0.40445640249E+02  0.33711581391E+02  0.40891239323E+03  0.12500000000E+03 0.  0.
         21    1    1    2  503  502  0.22870380311E+02 -0.50656626076E+02  0.11927641501E+03  0.13159031590E+03  0.00000000000E+00 0.  1.
         21    1    1    2  504  503  0.36289123624E+03  0.10210985827E+02  0.46060308263E+03  0.58647209081E+03  0.00000000000E+00 0. -1.
<mgrwt>
<rscale>  4 0.43381681E+03</rscale>
<asrwt>0</asrwt>
<pdfrwt beam="1">  1       21 0.13388968E+00 0.43381681E+03</pdfrwt>
<pdfrwt beam="2">  1       21 0.39491056E-01 0.43381681E+03</pdfrwt>
<totfact> 0.21457488E+03</totfact>
</mgrwt>
</event>
<event>
 5    0  0.3120399E-003  0.5754985E+03  0.7546771E-02  0.9957585E-01
         21   -1    0    0  502  501  0.00000000000E+00  0.00000000000E+00  0.44179644078E+03  0.44179644078E+03  0.00000000000E+00 0. -1.
         21   -1    0    0  504  502 -0.00000000000E+00 -0.00000000000E+00 -0.85421255107E+03  0.85421255107E+03  0.00000000000E+00 0. -1.
         25    1    1    2    0    0 -0.37902554158E+03 -0.28154004649E+02 -0.54908124471E+02  0.40384763375E+03  0.12500000000E+03 0.  0.
         21    1    1    2  503  501  0.49116836365E+03  0.27830520133E+02  0.25951315555E+02  0.49264020348E+03  0.00000000000E+00 0. -1.
         21    1    1    2  504  503 -0.11214282207E+03  0.32348451583E+00 -0.38345930137E+03  0.39952115463E+03  0.00000000000E+00 0. -1.
<mgrwt>
<rscale>  4 0.57549847E+03</rscale>
<asrwt>0</asrwt>
<pdfrwt beam="1">  1       21 0.67968684E-01 0.57549847E+03</pdfrwt>
<pdfrwt beam="2">  1       21 0.13141731E+00 0.57549847E+03</pdfrwt>
<totfact> 0.66643013E+02</totfact>
</mgrwt>
</event>
<event>
 5    0  0.3120399E-003  0.6716224E+03  0.7546771E-02  0.9767031E-01
         21   -1    0    0  503  501  0.00000000000E+00  0.00000000000E+00  0.52435068496E+03  0.52435068496E+03  0.00000000000E+00 0.  1.
         21   -1    0    0  501  502 -0.00000000000E+00 -0.00000000000E+00 -0.92475399904E+03  0.92475399904E+03  0.00000000000E+00 0.  1.
         25    1    1    2    0    0  0.62777925923E+02  0.21393173405E+03 -0.14343779333E+03  0.29309939504E+03  0.12500000000E+03 0.  0.
         21    1    1    2  503  504  0.44972973319E+03  0.87926516548E+02  0.90585210718E+02  0.46711196263E+03  0.00000000000E+00 0.  1.
         21    1    1    2  504  502 -0.51250765912E+03 -0.30185825060E+03 -0.34755073147E+03  0.68889332633E+03  0.00000000000E+00 0.  1.
<mgrwt>
<rscale>  4 0.67162244E+03</rscale>
<asrwt>0</asrwt>
<pdfrwt beam="1">  1       21 0.80669337E-01 0.67162244E+03</pdfrwt>
<pdfrwt beam="2">  1       21 0.14226984E+00 0.67162244E+03</pdfrwt>
<totfact> 0.35313798E+02</totfact>
</mgrwt>
</event>
<event>
 5    0  0.3120399E-003  0.4899336E+03  0.7546771E-02  0.1016440E+00
         21   -1    0    0  502  501  0.00000000000E+00  0.00000000000E+00  0.12916869590E+04  0.12916869590E+04  0.00000000000E+00 0.  1.
         21   -1    0    0  504  502 -0.00000000000E+00 -0.00000000000E+00 -0.21738877396E+03  0.21738877396E+03  0.00000000000E+00 0.  1.
         25    1    1    2    0    0  0.37351443372E+03  0.80161789464E+02  0.69742445744E+03  0.80496261934E+03  0.12500000000E+03 0.  0.
         21    1    1    2  503  501  0.94336653211E+02 -0.53249096129E+02  0.14573578442E+03  0.18158686416E+03  0.00000000000E+00 0. -1.
         21    1    1    2  504  503 -0.46785108693E+03 -0.26912693335E+02  0.23113794319E+03  0.52252624947E+03  0.00000000000E+00 0.  1.
<mgrwt>
<rscale>  4 0.48993356E+03</rscale>
<asrwt>0</asrwt>
<pdfrwt beam="1">  1       21 0.19872107E+00 0.48993356E+03</pdfrwt>
<pdfrwt beam="2">  1       21 0.33444428E-01 0.48993356E+03</pdfrwt>
<totfact> 0.96599909E+02</totfact>
</mgrwt>
</event>
<event>
 5    0  0.3120399E-003  0.3448080E+03  0.7546771E-02  0.1064766E+00
         21   -1    0    0  502  501  0.00000000000E+00  0.00000000000E+00  0.17909399828E+04  0.17909399828E+04  0.00000000000E+00 0.  1.
         21   -1    0    0  503  502 -0.00000000000E+00 -0.00000000000E+00 -0.92692392053E+02  0.92692392053E+02  0.00000000000E+00 0.  1.
         25    1    1    2    0    0 -0.19101978515E+03  0.73976218841E+02  0.77222654537E+03  0.80865312504E+03  0.12500000000E+03 0.  0.
         21    1    1    2  503  504  0.97193103168E+02 -0.25151292413E+03  0.24275091602E+03  0.36281297874E+03  0.00000000000E+00 0.  1.
         21    1    1    2  504  501  0.93826681984E+02  0.17753670529E+03  0.68327012934E+03  0.71216627105E+03  0.00000000000E+00 0.  1.
<mgrwt>
<rscale>  4 0.34480795E+03</rscale>
<asrwt>0</asrwt>
<pdfrwt beam="1">  1       21 0.27552920E+00 0.34480795E+03</pdfrwt>
<pdfrwt beam="2">  1       21 0.14260369E-01 0.34480795E+03</pdfrwt>
<totfact> 0.17724862E+03</totfact>
</mgrwt>
</event>
<event>
 5    0  0.3120399E-003  0.1573626E+03  0.7546771E-02  0.1191707E+00
         21   -1    0    0  502  501  0.00000000000E+00  0.00000000000E+00  0.15136404761E+04  0.15136404761E+04  0.00000000000E+00 0. -1.
         21   -1    0    0  503  502 -0.00000000000E+00 -0.00000000000E+00 -0.21074927524E+03  0.21074927524E+03  0.00000000000E+00 0. -1.
         25    1    1    2    0    0 -0.24102454500E+03 -0.11141017053E+03  0.76863485188E+03  0.82275731107E+03  0.12500000000E+03 0.  0.
         21    1    1    2  503  504  0.16034705073E+02  0.43957409530E+02 -0.16105774825E+03  0.16771691594E+03  0.00000000000E+00 0.  1.
         21    1    1    2  504  501  0.22498983993E+03  0.67452760997E+02  0.69531409728E+03  0.73391552437E+03  0.00000000000E+00 0. -1.
<mgrwt>
<rscale>  4 0.15736262E+03</rscale>
<asrwt>0</asrwt>
<pdfrwt beam="1">  1       21 0.23286776E+00 0.15736262E+03</pdfrwt>
<pdfrwt beam="2">  1       21 0.32422966E-01 0.15736262E+03</pdfrwt>
<totfact> 0.80650290E+02</totfact>
</mgrwt>
</event>
<event>
 5    0  0.4177868E-003  0.3520225E+03  0.7546771E-02  0.1061788E+00
         21   -1    0    0  502  501  0.00000000000E+00  0.00000000000E+00  0.11636548934E+04  0.11636548934E+04  0.00000000000E+00 0. -1.
         21   -1    0    0  504  502 -0.00000000000E+00 -0.00000000000E+00 -0.12405987959E+03  0.12405987959E+03  0.00000000000E+00 0. -1.
         25    1    1    2    0    0  0.19682952051E+03 -0.18652123663E+03  0.48391941576E+03  0.56862556468E+03  0.12500000000E+03 0.  0.
         21    1    1    2  503  501  0.76445593573E+02  0.91917689124E+02  0.33388712261E+03  0.35464545816E+03  0.00000000000E+00 0.  1.
         21    1    1    2  504  503 -0.27327511409E+03  0.94603547509E+02  0.22178847544E+03  0.36444375014E+03  0.00000000000E+00 0.  1.
<mgrwt>
<rscale>  4 0.35202254E+03</rscale>
<asrwt>0</asrwt>
<pdfrwt beam="1">  1       21 0.17902382E+00 0.35202254E+03</pdfrwt>
<pdfrwt beam="2">  1       21 0.19086136E-01 0.35202254E+03</pdfrwt>
<totfact> 0.41832351E+03</totfact>
</mgrwt>
</event>
<event>
 5    0  0.3120399E-003  0.3336082E+03  0.7546771E-02  0.1069551E+00
         21   -1    0    0  502  501  0.00000000000E+00  0.00000000000E+00  0.14889365300E+03  0.14889365300E+03  0.00000000000E+00 0.  1.
         21   -1    0    0  504  502 -0.00000000000E+00 -0.00000000000E+00 -0.80667832984E+03  0.80667832984E+03  0.00000000000E+00 0.  1.
         25    1    1    2    0    0 -0.87343567444E+01 -0.21020244590E+03 -0.15532132724E+03  0.28984663521E+03  0.12500000000E+03 0.  0.
         21    1    1    2  503  501  0.18574352308E+03  0.17239360234E+03 -0.25904966583E+03  0.36239059019E+03  0.00000000000E+00 0.  1.
         21    1    1    2  504  503 -0.17700916634E+03  0.37808843557E+02 -0.24341368377E+03  0.30333475743E+03  0.00000000000E+00 0.  1.
<mgrwt>
<rscale>  4 0.33360816E+03</rscale>
<asrwt>0</asrwt>
<pdfrwt beam="1">  1       21 0.22906716E-01 0.33360816E+03</pdfrwt>
<pdfrwt beam="2">  1       21 0.12410436E+00 0.33360816E+03</pdfrwt>
<totfact> 0.80076424E+03</totfact>
</mgrwt>
</event>
<event>
 5    0  0.3120399E-003  0.3202348E+03  0.7546771E-02  0.1075541E+00
         21   -1    0    0  502  501  0.00000000000E+00  0.00000000000E+00  0.12755745534E+03  0.12755745534E+03  0.00000000000E+00 0. -1.
         21   -1    0    0  504  502 -0.00000000000E+00 -0.00000000000E+00 -0.89788669898E+03  0.89788669898E+03  0.00000000000E+00 0. -1.
         25    1    1    2    0    0 -0.10557168434E+03  0.17807976684E+03 -0.37982083515E+03  0.45027397294E+03  0.12500000000E+03 0.  0.
         21    1    1    2  503  501 -0.12327024996E+03 -0.16785737489E+02 -0.20339991735E+03  0.23842995174E+03  0.00000000000E+00 0. -1.
         21    1    1    2  504  503  0.22884193430E+03 -0.16129402936E+03 -0.18710849115E+03  0.33674022964E+03  0.00000000000E+00 0. -1.
<mgrwt>
<rscale>  4 0.32023482E+03</rscale>
<asrwt>0</asrwt>
<pdfrwt beam="1">  1       21 0.19624223E-01 0.32023482E+03</pdfrwt>
<pdfrwt beam="2">  1       21 0.13813642E+00 0.32023482E+03</pdfrwt>
<totfact> 0.82050903E+03</totfact>
</mgrwt>
</event>
<event>
 5    0  0.3120399E-003  0.3404389E+03  0.7546771E-02  0.1066609E+00
         21   -1    0    0  504  501  0.00000000000E+00  0.00000000000E+00  0.59721742786E+03  0.59721742786E+03  0.00000000000E+00 0. -1.
         21   -1    0    0  501  502 -0.00000000000E+00 -0.00000000000E+00 -0.25082221329E+03  0.25082221329E+03  0.00000000000E+00 0. -1.
         25    1    1    2    0    0 -0.16977255898E+03  0.13957990739E+03  0.17210352381E+03  0.30585927359E+03  0.12500000000E+03 0.  0.
         21    1    1    2  503  502  0.63873924410E+02 -0.26439740916E+03 -0.37424099157E+02  0.27456589626E+03  0.00000000000E+00 0. -1.
         21    1    1    2  504  503  0.10589863457E+03  0.12481750177E+03  0.21171578992E+03  0.26761447131E+03  0.00000000000E+00 0. -1.
<mgrwt>
<rscale>  4 0.34043889E+03</rscale>
<asrwt>0</asrwt>
<pdfrwt beam="1">  1       21 0.91879603E-01 0.34043889E+03</pdfrwt>
<pdfrwt beam="2">  1       21 0.38588033E-01 0.34043889E+03</pdfrwt>
<totfact> 0.59537399E+03</totfact>
</mgrwt>
</event>
<event>
 5    0  0.3120399E-003  0.4153029E+03  0.7546771E-02  0.1038606E+00
         21   -1    0    0  503  501  0.00000000000E+00  0.00000000000E+00  0.18649873776E+04  0.18649873776E+04  0.00000000000E+00 0. -1.
         21   -1    0    0  501  502 -0.00000000000E+00 -0.00000000000E+00 -0.98207482584E+02  0.98207482584E+02  0.00000000000E+00 0. -1.
         25    1    1    2    0    0  0.27579005931E+03  0.14690535229E+02  0.55981684923E+03  0.63662852067E+03  0.12500000000E+03 0.  0.
         21    1    1    2  503  504  0.62782161480E+02  0.14161756590E+03  0.20141221090E+03  0.25409449713E+03  0.00000000000E+00 0.  1.
         21    1    1    2  504  502 -0.33857222079E+03 -0.15630810113E+03  0.10055508349E+04  0.10724718424E+04  0.00000000000E+00 0. -1.
<mgrwt>
<rscale>  4 0.41530286E+03</rscale>
<asrwt>0</asrwt>
<pdfrwt beam="1">  1       21 0.28692111E+00 0.41530286E+03</pdfrwt>
<pdfrwt beam="2">  1       21 0.15108845E-01 0.41530286E+03</pdfrwt>
<totfact> 0.13046235E+03</totfact>
</mgrwt>
</event>
<event>
 5    0  0.3120399E-003  0.2663613E+03  0.7546771E-02  0.1103380E+00
         21   -1    0    0  502  501  0.00000000000E+00  0.00000000000E+00  0.27000847139E+03  0.27000847139E+03  0.00000000000E+00 0.  1.
         21   -1    0    0  503  502 -0.00000000000E+00 -0.00000000000E+00 -0.35244699932E+03  0.35244699932E+03  0.00000000000E+00 0.  1.
         25    1    1    2    0    0 -0.84738594579E+02 -0.19969755899E+03 -0.11679427681E+03  0.27627096766E+03  0.12500000000E+03 0.  0.
         21    1    1    2  503  504  0.15755671841E+03  0.46834730855E+02 -0.26028836632E+02  0.16641848415E+03  0.00000000000E+00 0.  1.
         21    1    1    2  504  501 -0.72818123830E+02  0.15286282814E+03  0.60384585511E+02  0.17976601890E+03  0.00000000000E+00 0.  1.
<mgrwt>
<rscale>  4 0.26636129E+03</rscale>
<asrwt>0</asrwt>
<pdfrwt beam="1">  1       21 0.41539765E-01 0.26636129E+03</pdfrwt>
<pdfrwt beam="2">  1       21 0.54222615E-01 0.26636129E+03</pdfrwt>
<totfact> 0.17232788E+04</totfact>
</mgrwt>
</event>
<event>
 5    0  0.3120399E-003  0.2825802E+03  0.7546771E-02  0.1094288E+00
         21   -1    0    0  502  501  0.00000000000E+00  0.00000000000E+00  0.41146555011E+03  0.41146555011E+03  0.00000000000E+00 0.  1.
         21   -1    0    0  504  502 -0.00000000000E+00 -0.00000000000E+00 -0.27162271355E+03  0.27162271355E+03  0.00000000000E+00 0.  1.
         25    1    1    2    0    0 -0.10615438288E+03 -0.24372293767E+03 -0.10223902592E+03  0.31104250798E+03  0.12500000000E+03 0.  0.
         21    1    1    2  503  501  0.11099514338E+03  0.13993665357E+03  0.15394372828E+03  0.23579834678E+03  0.00000000000E+00 0.  1.
         21    1    1    2  504  503 -0.48407605015E+01  0.10378628410E+03  0.88138134205E+02  0.13624740890E+03  0.00000000000E+00 0. -1.
<mgrwt>
<rscale>  4 0.28258019E+03</rscale>
<asrwt>0</asrwt>
<pdfrwt beam="1">  1       21 0.63302392E-01 0.28258019E+03</pdfrwt>
<pdfrwt beam="2">  1       21 0.41788110E-01 0.28258019E+03</pdfrwt>
<totfact> 0.12097192E+04</totfact>
</mgrwt>
</event>
<event>
 5    0  0.3120399E-003  0.5533319E+03  0.7546771E-02  0.1000726E+00
         21   -1    0    0  503  501  0.00000000000E+00  0.00000000000E+00  0.75515903349E+03  0.75515903349E+03  0.00000000000E+00 0. -1.
         21   -1    0    0  501  502 -0.00000000000E+00 -0.00000000000E+00 -0.47736623340E+03  0.47736623340E+03  0.00000000000E+00 0. -1.
         25    1    1    2    0    0 -0.17235328993E+03 -0.50206616485E+03 -0.10696435456E+03  0.55573596571E+03  0.12500000000E+03 0.  0.
         21    1    1    2  503  504  0.33503138920E+02 -0.17626873373E+01  0.15952818212E+02  0.37149156020E+02  0.00000000000E+00 0.  1.
         21    1    1    2  504  502  0.13885015101E+03  0.50382885219E+03  0.36880433644E+03  0.63964014517E+03  0.00000000000E+00 0. -1.
<mgrwt>
<rscale>  4 0.55333192E+03</rscale>
<asrwt>0</asrwt>
<pdfrwt beam="1">  1       21 0.11617831E+00 0.55333192E+03</pdfrwt>
<pdfrwt beam="2">  1       21 0.73440959E-01 0.55333192E+03</pdfrwt>
<totfact> 0.77410487E+02</totfact>
</mgrwt>
</event>
<event>
 5    0  0.3120399E-003  0.1985021E+03  0.7546771E-02  0.1151009E+00
         21   -1    0    0  503  501  0.00000000000E+00  0.00000000000E+00  0.84984828775E+03  0.84984828775E+03  0.00000000000E+00 0. -1.
         21   -1    0    0  501  502 -0.00000000000E+00 -0.00000000000E+00 -0.75174139990E+02  0.75174139990E+02  0.00000000000E+00 0. -1.
         25    1    1    2    0    0 -0.16430721842E+03  0.11576018819E+03  0.46119592493E+03  0.51838592223E+03  0.12500000000E+03 0.  0.
         21    1    1    2  503  504  0.81739730152E+02 -0.62427162067E+02  0.28694890766E+03  0.30482488359E+03  0.00000000000E+00 0. -1.
         21    1    1    2  504  502  0.82567488265E+02 -0.53333026128E+02  0.26529315171E+02  0.10181162192E+03  0.00000000000E+00 0. -1.
<mgrwt>
<rscale>  4 0.19850206E+03</rscale>
<asrwt>0</asrwt>
<pdfrwt beam="1">  1       21 0.13074588E+00 0.19850206E+03</pdfrwt>
<pdfrwt beam="2">  1       21 0.11565253E-01 0.19850206E+03</pdfrwt>
<totfact> 0.26609332E+04</totfact>
</mgrwt>
</event>
<event>
 5    0  0.3120399E-003  0.5266299E+03  0.7546771E-02  0.1007053E+00
         21   -1    0    0  504  501  0.00000000000E+00  0.00000000000E+00  0.21915923558E+03  0.21915923558E+03  0.00000000000E+00 0.  1.
         21   -1    0    0  501  502 -0.00000000000E+00 -0.00000000000E+00 -0.13984449220E+04  0.13984449220E+04  0.00000000000E+00 0.  1.
         25    1    1    2    0    0  0.83083368006E+02 -0.36569101568E+03 -0.62205817375E+03  0.73703062116E+03  0.12500000000E+03 0.  0.
         21    1    1    2  503  502 -0.16252048171E+03 -0.10001153843E+03 -0.25966308671E+03  0.32224235196E+03  0.00000000000E+00 0. -1.
         21    1    1    2  504  503  0.79437113706E+02  0.46570255411E+03 -0.29756442594E+03  0.55833118445E+03  0.00000000000E+00 0.  1.
<mgrwt>
<rscale>  4 0.52662993E+03</rscale>
<asrwt>0</asrwt>
<pdfrwt beam="1">  1       21 0.33716805E-01 0.52662993E+03</pdfrwt>
<pdfrwt beam="2">  1       21 0.21514537E+00 0.52662993E+03</pdfrwt>
<totfact> 0.72935505E+02</totfact>
</mgrwt>
</event>
<event>
 5    0  0.3120399E-003  0.2851527E+03  0.7546771E-02  0.1092907E+00
         21   -1    0    0  504  501  0.00000000000E+00  0.00000000000E+00  0.26016806039E+03  0.26016806039E+03  0.00000000000E+00 0. -1.
         21   -1    0    0  501  502 -0.00000000000E+00 -0.00000000000E+00 -0.38821214878E+03  0.38821214878E+03  0.00000000000E+00 0. -1.
         25    1    1    2    0    0  0.62134638255E+02  0.27026114862E+03 -0.12445168569E+03  0.32865639169E+03  0.12500000000E+03 0.  0.
         21    1    1    2  503  502 -0.78783953855E+02 -0.73623205280E+02 -0.47060052346E+02  0.11765175845E+03  0.00000000000E+00 0.  1.
         21    1    1    2  504  503  0.16649315599E+02 -0.19663794334E+03  0.43467649644E+02  0.20207205902E+03  0.00000000000E+00 0. -1.
<mgrwt>
<rscale>  4 0.28515270E+03</rscale>
<asrwt>0</asrwt>
<pdfrwt beam="1">  1       21 0.40025856E-01 0.28515270E+03</pdfrwt>
<pdfrwt beam="2">  1       21 0.59724945E-01 0.28515270E+03</pdfrwt>
<totfact> 0.14978625E+04</totfact>
</mgrwt>
</event>
<event>
 5    0  0.3120399E-003  0.7518052E+03  0.7546771E-02  0.9632523E-01
         21   -1    0    0  502  501  0.00000000000E+00  0.00000000000E+00  0.46505249838E+03  0.46505249838E+03  0.00000000000E+00 0. -1.
         21   -1    0    0  504  502 -0.00000000000E+00 -0.00000000000E+00 -0.12271689910E+04  0.12271689910E+04  0.00000000000E+00 0. -1.
         25    1    1    2    0    0 -0.32430064172E+03 -0.40324420686E+03 -0.16118770381E+03  0.55622232285E+03  0.12500000000E+03 0.  0.
         21    1    1    2  503  501 -0.26483783093E+03  0.34542297474E+02 -0.19981946626E+03  0.33355669099E+03  0.00000000000E+00 0. -1.
         21    1    1    2  504  503  0.58913847264E+03  0.36870190938E+03 -0.40110932258E+03  0.80244247557E+03  0.00000000000E+00 0. -1.
<mgrwt>
<rscale>  4 0.75180516E+03</rscale>
<asrwt>0</asrwt>
<pdfrwt beam="1">  1       21 0.71546539E-01 0.75180516E+03</pdfrwt>
<pdfrwt beam="2">  1       21 0.18879523E+00 0.75180516E+03</pdfrwt>
<totfact> 0.20243926E+02</totfact>
</mgrwt>
</event>
<event>
 5    0  0.3120399E-003  0.7602301E+03  0.7546771E-02  0.9619436E-01
         21   -1    0    0  503  501  0.00000000000E+00  0.00000000000E+00  0.62164496629E+03  0.62164496629E+03  0.00000000000E+00 0.  1.
         21   -1    0    0  501  502 -0.00000000000E+00 -0.00000000000E+00 -0.94317165783E+03  0.94317165783E+03  0.00000000000E+00 0.  1.
         25    1    1    2    0    0  0.19678932136E+03  0.50089572008E+03 -0.13110932638E+03  0.56783555265E+03  0.12500000000E+03 0.  0.
         21    1    1    2  503  504  0.24310020799E+03  0.56053130879E+02  0.35915163429E+02  0.25205071627E+03  0.00000000000E+00 0.  1.
         21    1    1    2  504  502 -0.43988952935E+03 -0.55694885095E+03 -0.22633252859E+03  0.74493035520E+03  0.00000000000E+00 0.  1.
<mgrwt>
<rscale>  4 0.76023012E+03</rscale>
<asrwt>0</asrwt>
<pdfrwt beam="1">  1       21 0.95637687E-01 0.76023012E+03</pdfrwt>
<pdfrwt beam="2">  1       21 0.14510333E+00 0.76023012E+03</pdfrwt>
<totfact> 0.21730332E+02</totfact>
</mgrwt>
</event>
<event>
 5    0  0.3120399E-003  0.2110154E+03  0.7546771E-02  0.1140764E+00
         21   -1    0    0  502  501  0.00000000000E+00  0.00000000000E+00  0.82197265085E+03  0.82197265085E+03  0.00000000000E+00 0. -1.
         21   -1    0    0  504  502 -0.00000000000E+00 -0.00000000000E+00 -0.95726405655E+02  0.95726405655E+02  0.00000000000E+00 0. -1.
         25    1    1    2    0    0 -0.18280121780E+03 -0.13348357090E+03  0.36215331376E+03  0.44498783309E+03  0.12500000000E+03 0.  0.
         21    1    1    2  503  501  0.84250385082E+02  0.75752668506E+02  0.33670796969E+03  0.35525885073E+03  0.00000000000E+00 0. -1.
         21    1    1    2  504  503  0.98550832713E+02  0.57730902396E+02  0.27384961748E+02  0.11745237269E+03  0.00000000000E+00 0. -1.
<mgrwt>
<rscale>  4 0.21101539E+03</rscale>
<asrwt>0</asrwt>
<pdfrwt beam="1">  1       21 0.12645733E+00 0.21101539E+03</pdfrwt>
<pdfrwt beam="2">  1       21 0.14727140E-01 0.21101539E+03</pdfrwt>
<totfact> 0.18573382E+04</totfact>
</mgrwt>
</event>
<event>
 5    0  0.3120399E-003  0.5450805E+03  0.7546771E-02  0.1002639E+00
         21   -1    0    0  503  501  0.00000000000E+00  0.00000000000E+00  0.12773489843E+04  0.12773489843E+04  0.00000000000E+00 0. -1.
         21   -1    0    0  501  502 -0.00000000000E+00 -0.00000000000E+00 -0.34913669951E+03  0.34913669951E+03  0.00000000000E+00 0. -1.
         25    1    1    2    0    0 -0.35997361065E+03 -0.36854698587E+03  0.56045459703E+02  0.53307970765E+03  0.12500000000E+03 0.  0.
         21    1    1    2  503  504  0.38561459927E+03  0.30340685295E+03  0.89423485489E+03  0.10200050555E+04  0.00000000000E+00 0. -1.
         21    1    1    2  504  502 -0.25640988621E+02  0.65140132922E+02 -0.22068029786E+02  0.73400920656E+02  0.00000000000E+00 0. -1.
<mgrwt>
<rscale>  4 0.54508055E+03</rscale>
<asrwt>0</asrwt>
<pdfrwt beam="1">  1       21 0.19651523E+00 0.54508055E+03</pdfrwt>
<pdfrwt beam="2">  1       21 0.53713339E-01 0.54508055E+03</pdfrwt>
<totfact> 0.36401389E+02</totfact>
</mgrwt>
</event>
<event>
 5    0  0.3120399E-003  0.2065962E+03  0.7546771E-02  0.1144290E+00
         21   -1    0    0  502  501  0.00000000000E+00  0.00000000000E+00  0.10121398358E+04  0.10121398358E+04  0.00000000000E+00 0. -1.
         21   -1    0    0  504  502 -0.00000000000E+00 -0.00000000000E+00 -0.10345550484E+03  0.10345550484E+03  0.00000000000E+00 0. -1.
         25    1    1    2    0    0  0.36032219367E+02 -0.22965784926E+03  0.44741273408E+03  0.51946530508E+03  0.12500000000E+03 0.  0.
         21    1    1    2  503  501 -0.85815528460E+02  0.28817432553E+01  0.72275998242E+01  0.86167555195E+02  0.00000000000E+00 0. -1.
         21    1    1    2  504  503  0.49783309093E+02  0.22677610601E+03  0.45404399704E+03  0.50996248035E+03  0.00000000000E+00 0. -1.
<mgrwt>
<rscale>  4 0.20659619E+03</rscale>
<asrwt>0</asrwt>
<pdfrwt beam="1">  1       21 0.15571381E+00 0.20659619E+03</pdfrwt>
<pdfrwt beam="2">  1       21 0.15916232E-01 0.20659619E+03</pdfrwt>
<totfact> 0.94299841E+03</totfact>
</mgrwt>
</event>
<event>
 5    0  0.3120399E-003  0.3559083E+03  0.7546771E-02  0.1060216E+00
         21   -1    0    0  504  501  0.00000000000E+00  0.00000000000E+00  0.31397039431E+03  0.31397039431E+03  0.00000000000E+00 0.  1.
         21   -1    0    0  501  502 -0.00000000000E+00 -0.00000000000E+00 -0.51825493983E+03  0.51825493983E+03  0.00000000000E+00 0.  1.
         25    1    1    2    0    0 -0.13755974986E+03 -0.18672263625E+03  0.14294774660E+03  0.29974503487E+03  0.12500000000E+03 0.  0.
         21    1    1    2  503  502 -0.53762759570E+02 -0.66733223774E+02 -0.63903702968E+02  0.10689920825E+03  0.00000000000E+00 0. -1.
         21    1    1    2  504  503  0.19132250943E+03  0.25345586003E+03 -0.28332858915E+03  0.42558109101E+03  0.00000000000E+00 0.  1.
<mgrwt>
<rscale>  4 0.35590833E+03</rscale>
<asrwt>0</asrwt>
<pdfrwt beam="1">  1       21 0.48303138E-01 0.35590833E+03</pdfrwt>
<pdfrwt beam="2">  1       21 0.79731528E-01 0.35590833E+03</pdfrwt>
<totfact> 0.51684695E+03</totfact>
</mgrwt>
</event>
<event>
 5    0  0.3120399E-003  0.2377116E+03  0.7546771E-02  0.1121327E+00
         21   -1    0    0  503  501  0.00000000000E+00  0.00000000000E+00  0.27913541201E+03  0.27913541201E+03  0.00000000000E+00 0. -1.
         21   -1    0    0  501  502 -0.00000000000E+00 -0.00000000000E+00 -0.36424563104E+03  0.36424563104E+03  0.00000000000E+00 0. -1.
         25    1    1    2    0    0 -0.67202718356E+02  0.27785429722E+03 -0.51976188859E+01  0.31204363650E+03  0.12500000000E+03 0.  0.
         21    1    1    2  503  504 -0.42955243016E+01 -0.19133819550E+03  0.36314402121E+01  0.19142085556E+03  0.00000000000E+00 0. -1.
         21    1    1    2  504  502  0.71498242658E+02 -0.86516101720E+02 -0.83544040358E+02  0.13991655098E+03  0.00000000000E+00 0. -1.
<mgrwt>
<rscale>  4 0.23771164E+03</rscale>
<asrwt>0</asrwt>
<pdfrwt beam="1">  1       21 0.42943910E-01 0.23771164E+03</pdfrwt>
<pdfrwt beam="2">  1       21 0.56037789E-01 0.23771164E+03</pdfrwt>
<totfact> 0.15222495E+04</totfact>
</mgrwt>
</event>
<event>
 5    0  0.3120399E-003  0.4492143E+03  0.7546771E-02  0.1027957E+00
         21   -1    0    0  504  501  0.00000000000E+00  0.00000000000E+00  0.16919096197E+03  0.16919096197E+03  0.00000000000E+00 0. -1.
         21   -1    0    0  501  502 -0.00000000000E+00 -0.00000000000E+00 -0.15098436002E+04  0.15098436002E+04  0.00000000000E+00 0. -1.
         25    1    1    2    0    0 -0.70791532900E+02 -0.36810938280E+03 -0.23556849169E+03  0.46003638238E+03  0.12500000000E+03 0.  0.
         21    1    1    2  503  502  0.12757431809E+03 -0.22983296348E+01 -0.17769789483E+03  0.21876249858E+03  0.00000000000E+00 0.  1.
         21    1    1    2  504  503 -0.56782785194E+02  0.37040771243E+03 -0.92738625169E+03  0.10002356812E+04  0.00000000000E+00 0. -1.
<mgrwt>
<rscale>  4 0.44921430E+03</rscale>
<asrwt>0</asrwt>
<pdfrwt beam="1">  1       21 0.26029379E-01 0.44921430E+03</pdfrwt>
<pdfrwt beam="2">  1       21 0.23228363E+00 0.44921430E+03</pdfrwt>
<totfact> 0.98160122E+02</totfact>
</mgrwt>
</event>
<event>
 5    0  0.3120399E-003  0.6468661E+03  0.7546771E-02  0.9812677E-01
         21   -1    0    0  503  501  0.00000000000E+00  0.00000000000E+00  0.97423984166E+03  0.97423984166E+03  0.00000000000E+00 0.  1.
         21   -1    0    0  501  502 -0.00000000000E+00 -0.00000000000E+00 -0.49009715534E+03  0.49009715534E+03  0.00000000000E+00 0.  1.
         25    1    1    2    0    0  0.35877223321E+03 -0.65894390832E+02  0.43575733740E+03  0.58186686034E+03  0.12500000000E+03 0.  0.
         21    1    1    2  503  504 -0.59530430967E+03 -0.69784246603E+02 -0.25603884219E+02  0.59992717980E+03  0.00000000000E+00 0.  1.
         21    1    1    2  504  502  0.23653207646E+03  0.13567863744E+03  0.73989233143E+02  0.28254295686E+03  0.00000000000E+00 0.  1.
<mgrwt>
<rscale>  4 0.64686613E+03</rscale>
<asrwt>0</asrwt>
<pdfrwt beam="1">  1       21 0.14988305E+00 0.64686613E+03</pdfrwt>
<pdfrwt beam="2">  1       21 0.75399563E-01 0.64686613E+03</pdfrwt>
<totfact> 0.36109772E+02</totfact>
</mgrwt>
</event>
<event>
 5    0  0.3120399E-003  0.3232041E+03  0.7546771E-02  0.1074184E+00
         21   -1    0    0  504  501  0.00000000000E+00  0.00000000000E+00  0.43213966919E+03  0.43213966919E+03  0.00000000000E+00 0.  1.
         21   -1    0    0  501  502 -0.00000000000E+00 -0.00000000000E+00 -0.25254164281E+03  0.25254164281E+03  0.00000000000E+00 0.  1.
         25    1    1    2    0    0 -0.11174052592E+03 -0.24945923951E+03  0.15224764032E+03  0.33692759058E+03  0.12500000000E+03 0.  0.
         21    1    1    2  503  502  0.16229254667E+03  0.24725651417E+03  0.18094416061E+02  0.29631412790E+03  0.00000000000E+00 0.  1.
         21    1    1    2  504  503 -0.50552020746E+02  0.22027253463E+01  0.92559699987E+01  0.51439593516E+02  0.00000000000E+00 0. -1.
<mgrwt>
<rscale>  4 0.32320414E+03</rscale>
<asrwt>0</asrwt>
<pdfrwt beam="1">  1       21 0.66483026E-01 0.32320414E+03</pdfrwt>
<pdfrwt beam="2">  1       21 0.38852561E-01 0.32320414E+03</pdfrwt>
<totfact> 0.12384497E+04</totfact>
</mgrwt>
</event>
<event>
 5    0  0.3120399E-003  0.2275643E+03  0.7546771E-02  0.1128366E+00
         21   -1    0    0  503  501  0.00000000000E+00  0.00000000000E+00  0.75446859327E+03  0.75446859327E+03  0.00000000000E+00 0. -1.
         21   -1    0    0  501  502 -0.00000000000E+00 -0.00000000000E+00 -0.10182259887E+03  0.10182259887E+03  0.00000000000E+00 0. -1.
         25    1    1    2    0    0 -0.12251860994E+03  0.19512181292E+03  0.21765470359E+03  0.34070794187E+03  0.12500000000E+03 0.  0.
         21    1    1    2  503  504  0.13454620574E+03 -0.73276444909E+02  0.21835576736E+03  0.26674212265E+03  0.00000000000E+00 0. -1.
         21    1    1    2  504  502 -0.12027595801E+02 -0.12184536801E+03  0.21663552346E+03  0.24884112761E+03  0.00000000000E+00 0.  1.
<mgrwt>
<rscale>  4 0.22756430E+03</rscale>
<asrwt>0</asrwt>
<pdfrwt beam="1">  1       21 0.11607209E+00 0.22756430E+03</pdfrwt>
<pdfrwt beam="2">  1       21 0.15665016E-01 0.22756430E+03</pdfrwt>
<totfact> 0.20339284E+04</totfact>
</mgrwt>
</event>
<event>
 5    0  0.3120399E-003  0.3205068E+03  0.7546771E-02  0.1075416E+00
         21   -1    0    0  502  501  0.00000000000E+00  0.00000000000E+00  0.35325055187E+03  0.35325055187E+03  0.00000000000E+00 0.  1.
         21   -1    0    0  504  502 -0.00000000000E+00 -0.00000000000E+00 -0.47529651471E+03  0.47529651471E+03  0.00000000000E+00 0.  1.
         25    1    1    2    0    0 -0.90306596075E+02  0.23557118957E+03 -0.34864290527E+03  0.44813607536E+03  0.12500000000E+03 0.  0.
         21    1    1    2  503  501  0.44497407436E+02 -0.25274131472E+03  0.19139761643E+03  0.32014252921E+03  0.00000000000E+00 0.  1.
         21    1    1    2  504  503  0.45809188639E+02  0.17170125150E+02  0.35199326000E+02  0.60268462004E+02  0.00000000000E+00 0. -1.
<mgrwt>
<rscale>  4 0.32050680E+03</rscale>
<asrwt>0</asrwt>
<pdfrwt beam="1">  1       21 0.54346239E-01 0.32050680E+03</pdfrwt>
<pdfrwt beam="2">  1       21 0.73122540E-01 0.32050680E+03</pdfrwt>
<totfact> 0.49778819E+03</totfact>
</mgrwt>
</event>
<event>
 5    0  0.3120399E-003  0.5784004E+03  0.7546771E-02  0.9951260E-01
         21   -1    0    0  503  501  0.00000000000E+00  0.00000000000E+00  0.79200275784E+03  0.79200275784E+03  0.00000000000E+00 0.  1.
         21   -1    0    0  501  502 -0.00000000000E+00 -0.00000000000E+00 -0.49319233499E+03  0.49319233499E+03  0.00000000000E+00 0.  1.
         25    1    1    2    0    0  0.14018364084E+02 -0.45021917686E+03 -0.18566237451E+03  0.50298045593E+03  0.12500000000E+03 0.  0.
         21    1    1    2  503  504  0.13185546917E+03 -0.38944478382E+01  0.14947208699E+03  0.19935630480E+03  0.00000000000E+00 0.  1.
         21    1    1    2  504  502 -0.14587383325E+03  0.45411362470E+03  0.33500071037E+03  0.58285833211E+03  0.00000000000E+00 0.  1.
<mgrwt>
<rscale>  4 0.57840042E+03</rscale>
<asrwt>0</asrwt>
<pdfrwt beam="1">  1       21 0.12184658E+00 0.57840042E+03</pdfrwt>
<pdfrwt beam="2">  1       21 0.75875744E-01 0.57840042E+03</pdfrwt>
<totfact> 0.63077732E+02</totfact>
</mgrwt>
</event>
<event>
 5    0  0.3120399E-003  0.3049412E+03  0.7546771E-02  0.1082796E+00
         21   -1    0    0  502  501  0.00000000000E+00  0.00000000000E+00  0.62478184188E+03  0.62478184188E+03  0.00000000000E+00 0.  1.
         21   -1    0    0  503  502 -0.00000000000E+00 -0.00000000000E+00 -0.22016859645E+03  0.22016859645E+03  0.00000000000E+00 0.  1.
         25    1    1    2    0    0  0.17137236449E+03  0.21015797312E+03  0.35125153854E+03  0.46101790020E+03  0.12500000000E+03 0.  0.
         21    1    1    2  503  504 -0.28832543921E+02 -0.20562982321E+03 -0.42698169570E+02  0.21198602187E+03  0.00000000000E+00 0.  1.
         21    1    1    2  504  501 -0.14253982057E+03 -0.45281499099E+01  0.96059876460E+02  0.17194651626E+03  0.00000000000E+00 0.  1.
<mgrwt>
<rscale>  4 0.30494120E+03</rscale>
<asrwt>0</asrwt>
<pdfrwt beam="1">  1       21 0.96120283E-01 0.30494120E+03</pdfrwt>
<pdfrwt beam="2">  1       21 0.33872092E-01 0.30494120E+03</pdfrwt>
<totfact> 0.70732637E+03</totfact>
</mgrwt>
</event>
<event>
 5    0  0.3120399E-003  0.3504185E+03  0.7546771E-02  0.1062443E+00
         21   -1    0    0  503  501  0.00000000000E+00  0.00000000000E+00  0.63323526937E+03  0.63323526937E+03  0.00000000000E+00 0. -1.
         21   -1    0    0  501  502 -0.00000000000E+00 -0.00000000000E+00 -0.19579249789E+03  0.19579249789E+03  0.00000000000E+00 0. -1.
         25    1    1    2    0    0  0.25534607809E+03 -0.66943871335E+02  0.20391414609E+03  0.35621493580E+03  0.12500000000E+03 0.  0.
         21    1    1    2  503  504  0.62873497264E+02 -0.20209808931E+02 -0.41617063082E+01  0.66172749940E+02  0.00000000000E+00 0.  1.
         21    1    1    2  504  502 -0.31821957536E+03  0.87153680267E+02  0.23769033169E+03  0.40664008153E+03  0.00000000000E+00 0. -1.
<mgrwt>
<rscale>  4 0.35041854E+03</rscale>
<asrwt>0</asrwt>
<pdfrwt beam="1">  1       21 0.97420810E-01 0.35041854E+03</pdfrwt>
<pdfrwt beam="2">  1       21 0.30121923E-01 0.35041854E+03</pdfrwt>
<totfact> 0.84783672E+03</totfact>
</mgrwt>
</event>
<event>
 5    0  0.3120399E-003  0.3949077E+03  0.7546771E-02  0.1045557E+00
         21   -1    0    0  503  501  0.00000000000E+00  0.00000000000E+00  0.38658361063E+03  0.38658361063E+03  0.00000000000E+00 0.  1.
         21   -1    0    0  501  502 -0.00000000000E+00 -0.00000000000E+00 -0.65953751173E+03  0.65953751173E+03  0.00000000000E+00 0.  1.
         25    1    1    2    0    0 -0.19972696639E+03 -0.21850232663E+03 -0.21206414230E+03  0.38500691980E+03  0.12500000000E+03 0.  0.
         21    1    1    2  503  504  0.29742088128E+03  0.10912001322E+03  0.19079092619E+03  0.36982095049E+03  0.00000000000E+00 0.  1.
         21    1    1    2  504  502 -0.97693914893E+02  0.10938231342E+03 -0.25168068500E+03  0.29129325206E+03  0.00000000000E+00 0.  1.
<mgrwt>
<rscale>  4 0.39490765E+03</rscale>
<asrwt>0</asrwt>
<pdfrwt beam="1">  1       21 0.59474402E-01 0.39490765E+03</pdfrwt>
<pdfrwt beam="2">  1       21 0.10146731E+00 0.39490765E+03</pdfrwt>
<totfact> 0.18430954E+03</totfact>
</mgrwt>
</event>
<event>
 5    0  0.3120399E-003  0.3856758E+03  0.7546771E-02  0.1048856E+00
         21   -1    0    0  502  501  0.00000000000E+00  0.00000000000E+00  0.87490759084E+03  0.87490759084E+03  0.00000000000E+00 0. -1.
         21   -1    0    0  504  502 -0.00000000000E+00 -0.00000000000E+00 -0.19366791260E+03  0.19366791260E+03  0.00000000000E+00 0. -1.
         25    1    1    2    0    0 -0.12195243787E+03  0.29720780690E+03  0.25179804235E+03  0.42688655603E+03  0.12500000000E+03 0.  0.
         21    1    1    2  503  501  0.11514994657E+03 -0.32074662727E+03  0.47814873934E+03  0.58716618264E+03  0.00000000000E+00 0. -1.
         21    1    1    2  504  503  0.68024912990E+01  0.23538820369E+02 -0.48707103451E+02  0.54522764777E+02  0.00000000000E+00 0.  1.
<mgrwt>
<rscale>  4 0.38567579E+03</rscale>
<asrwt>0</asrwt>
<pdfrwt beam="1">  1       21 0.13460117E+00 0.38567579E+03</pdfrwt>
<pdfrwt beam="2">  1       21 0.29795064E-01 0.38567579E+03</pdfrwt>
<totfact> 0.38086239E+03</totfact>
</mgrwt>
</event>
<event>
 5    0  0.3120399E-003  0.3272883E+03  0.7546771E-02  0.1072343E+00
         21   -1    0    0  503  501  0.00000000000E+00  0.00000000000E+00  0.46915838297E+03  0.46915838297E+03  0.00000000000E+00 0.  1.
         21   -1    0    0  501  502 -0.00000000000E+00 -0.00000000000E+00 -0.31796094213E+03  0.31796094213E+03  0.00000000000E+00 0.  1.
         25    1    1    2    0    0 -0.30166912962E+03  0.11064511885E+03 -0.39535170329E+02  0.34703693721E+03  0.12500000000E+03 0.  0.
         21    1    1    2  503  504  0.15906887162E+03  0.63337091979E+01  0.19974127808E+03  0.25542043763E+03  0.00000000000E+00 0.  1.
         21    1    1    2  504  502  0.14260025801E+03 -0.11697882805E+03 -0.90086669100E+01  0.18466195026E+03  0.00000000000E+00 0.  1.
<mgrwt>
<rscale>  4 0.32728832E+03</rscale>
<asrwt>0</asrwt>
<pdfrwt beam="1">  1       21 0.72178213E-01 0.32728832E+03</pdfrwt>
<pdfrwt beam="2">  1       21 0.48917068E-01 0.32728832E+03</pdfrwt>
<totfact> 0.63878479E+03</totfact>
</mgrwt>
</event>
<event>
 5    0  0.3120399E-003  0.4320403E+03  0.7546771E-02  0.1033217E+00
         21   -1    0    0  504  501  0.00000000000E+00  0.00000000000E+00  0.74421467541E+03  0.74421467541E+03  0.00000000000E+00 0.  1.
         21   -1    0    0  501  502 -0.00000000000E+00 -0.00000000000E+00 -0.25225112905E+03  0.25225112905E+03  0.00000000000E+00 0.  1.
         25    1    1    2    0    0 -0.20262755862E+03  0.76538636667E+02  0.18430148582E+03  0.31065757369E+03  0.12500000000E+03 0.  0.
         21    1    1    2  503  502  0.31830958357E+03 -0.24964337371E+03  0.21130857670E+03  0.45639250609E+03  0.00000000000E+00 0.  1.
         21    1    1    2  504  503 -0.11568202494E+03  0.17310473704E+03  0.96353483838E+02  0.22941572467E+03  0.00000000000E+00 0.  1.
<mgrwt>
<rscale>  4 0.43204028E+03</rscale>
<asrwt>0</asrwt>
<pdfrwt beam="1">  1       21 0.11449456E+00 0.43204028E+03</pdfrwt>
<pdfrwt beam="2">  1       21 0.38807866E-01 0.43204028E+03</pdfrwt>
<totfact> 0.33210928E+03</totfact>
</mgrwt>
</event>
<event>
 5    0  0.3120399E-003  0.3207103E+03  0.7546771E-02  0.1075323E+00
         21   -1    0    0  503  501  0.00000000000E+00  0.00000000000E+00  0.10708856172E+04  0.10708856172E+04  0.00000000000E+00 0.  1.
         21   -1    0    0  501  502 -0.00000000000E+00 -0.00000000000E+00 -0.11125376563E+03  0.11125376563E+03  0.00000000000E+00 0.  1.
         25    1    1    2    0    0  0.19612221902E+03 -0.11602870440E+03  0.20161931644E+03  0.32894062352E+03  0.12500000000E+03 0.  0.
         21    1    1    2  503  504 -0.13165622504E+03 -0.92242649789E+02  0.43259509705E+03  0.46149819721E+03  0.00000000000E+00 0. -1.
         21    1    1    2  504  502 -0.64465993979E+02  0.20827135419E+03  0.32541743811E+03  0.39170056214E+03  0.00000000000E+00 0.  1.
<mgrwt>
<rscale>  4 0.32071030E+03</rscale>
<asrwt>0</asrwt>
<pdfrwt beam="1">  1       21 0.16475163E+00 0.32071030E+03</pdfrwt>
<pdfrwt beam="2">  1       21 0.17115965E-01 0.32071030E+03</pdfrwt>
<totfact> 0.65929698E+03</totfact>
</mgrwt>
</event>
<event>
 5    0  0.3120399E-003  0.4282501E+03  0.7546771E-02  0.1034414E+00
         21   -1    0    0  502  501  0.00000000000E+00  0.00000000000E+00  0.26089493048E+03  0.26089493048E+03  0.00000000000E+00 0. -1.
         21   -1    0    0  503  502 -0.00000000000E+00 -0.00000000000E+00 -0.75180387987E+03  0.75180387987E+03  0.00000000000E+00 0. -1.
         25    1    1    2    0    0 -0.24851205065E+02  0.26499984254E+03 -0.25831833062E+03  0.39140242574E+03  0.12500000000E+03 0.  0.
         21    1    1    2  503  504 -0.21475563964E+03 -0.25061515586E+03 -0.17857409664E+03  0.37525544512E+03  0.00000000000E+00 0. -1.
         21    1    1    2  504  501  0.23960684470E+03 -0.14384686683E+02 -0.54016522126E+02  0.24604093949E+03  0.00000000000E+00 0. -1.
<mgrwt>
<rscale>  4 0.42825009E+03</rscale>
<asrwt>0</asrwt>
<pdfrwt beam="1">  1       21 0.40137682E-01 0.42825009E+03</pdfrwt>
<pdfrwt beam="2">  1       21 0.11566213E+00 0.42825009E+03</pdfrwt>
<totfact> 0.30257557E+03</totfact>
</mgrwt>
</event>
<event>
 5    0  0.3120399E-003  0.8070899E+03  0.7546771E-02  0.9549811E-01
         21   -1    0    0  504  501  0.00000000000E+00  0.00000000000E+00  0.70339330091E+03  0.70339330091E+03  0.00000000000E+00 0.  1.
         21   -1    0    0  501  502 -0.00000000000E+00 -0.00000000000E+00 -0.11110512057E+04  0.11110512057E+04  0.00000000000E+00 0.  1.
         25    1    1    2    0    0  0.74488363018E+02 -0.45761739233E+03  0.16673872325E+03  0.50831977713E+03  0.12500000000E+03 0.  0.
         21    1    1    2  503  502  0.13341477874E+03  0.75072006849E+03 -0.56081671307E+03  0.94651756987E+03  0.00000000000E+00 0.  1.
         21    1    1    2  504  503 -0.20790314176E+03 -0.29310267617E+03 -0.13579914954E+02  0.35960715958E+03  0.00000000000E+00 0.  1.
<mgrwt>
<rscale>  4 0.80708986E+03</rscale>
<asrwt>0</asrwt>
<pdfrwt beam="1">  1       21 0.10821435E+00 0.80708986E+03</pdfrwt>
<pdfrwt beam="2">  1       21 0.17093095E+00 0.80708986E+03</pdfrwt>
<totfact> 0.99478476E+01</totfact>
</mgrwt>
</event>
<event>
 5    0  0.3120399E-003  0.4465242E+03  0.7546771E-02  0.1028764E+00
         21   -1    0    0  503  501  0.00000000000E+00  0.00000000000E+00  0.18043636491E+03  0.18043636491E+03  0.00000000000E+00 0.  1.
         21   -1    0    0  501  502 -0.00000000000E+00 -0.00000000000E+00 -0.11193883274E+04  0.11193883274E+04  0.00000000000E+00 0.  1.
         25    1    1    2    0    0  0.78121167554E+02 -0.30644552078E+03 -0.51779647118E+03  0.61947555205E+03  0.12500000000E+03 0.  0.
         21    1    1    2  503  504  0.65001310220E+02 -0.86416442521E+02 -0.42282082529E+02  0.11610661640E+03  0.00000000000E+00 0. -1.
         21    1    1    2  504  502 -0.14312247777E+03  0.39286196330E+03 -0.37887340878E+03  0.56424252386E+03  0.00000000000E+00 0.  1.
<mgrwt>
<rscale>  4 0.44652415E+03</rscale>
<asrwt>0</asrwt>
<pdfrwt beam="1">  1       21 0.27759441E-01 0.44652415E+03</pdfrwt>
<pdfrwt beam="2">  1       21 0.17221359E+00 0.44652415E+03</pdfrwt>
<totfact> 0.21795473E+03</totfact>
</mgrwt>
</event>
<event>
 5    0  0.3120399E-003  0.4705299E+03  0.7546771E-02  0.1021771E+00
         21   -1    0    0  502  501  0.00000000000E+00  0.00000000000E+00  0.36189411425E+03  0.36189411425E+03  0.00000000000E+00 0. -1.
         21   -1    0    0  503  502 -0.00000000000E+00 -0.00000000000E+00 -0.12390967067E+04  0.12390967067E+04  0.00000000000E+00 0. -1.
         25    1    1    2    0    0 -0.21944254750E+03 -0.16545776500E+03  0.33955491508E+02  0.30382442143E+03  0.12500000000E+03 0.  0.
         21    1    1    2  503  504  0.36841664842E+03  0.26440012343E+03 -0.99960263366E+03  0.10976537147E+04  0.00000000000E+00 0. -1.
         21    1    1    2  504  501 -0.14897410092E+03 -0.98942358424E+02  0.88444549724E+02  0.19951268484E+03  0.00000000000E+00 0. -1.
<mgrwt>
<rscale>  4 0.47052995E+03</rscale>
<asrwt>0</asrwt>
<pdfrwt beam="1">  1       21 0.55676017E-01 0.47052995E+03</pdfrwt>
<pdfrwt beam="2">  1       21 0.19063026E+00 0.47052995E+03</pdfrwt>
<totfact> 0.38174601E+02</totfact>
</mgrwt>
</event>
<event>
 5    0  0.3120399E-003  0.5142755E+03  0.7546771E-02  0.1010119E+00
         21   -1    0    0  503  501  0.00000000000E+00  0.00000000000E+00  0.20285111062E+04  0.20285111062E+04  0.00000000000E+00 0. -1.
         21   -1    0    0  501  502 -0.00000000000E+00 -0.00000000000E+00 -0.29810390821E+03  0.29810390821E+03  0.00000000000E+00 0. -1.
         25    1    1    2    0    0  0.21589670533E+03 -0.62814649594E+02  0.20469792724E+03  0.32876026066E+03  0.12500000000E+03 0.  0.
         21    1    1    2  503  504 -0.21147967905E+03  0.35862674069E+03  0.16314077873E+04  0.16836947948E+04  0.00000000000E+00 0. -1.
         21    1    1    2  504  502 -0.44170262777E+01 -0.29581209110E+03 -0.10569851655E+03  0.31415995888E+03  0.00000000000E+00 0. -1.
<mgrwt>
<rscale>  4 0.51427549E+03</rscale>
<asrwt>0</asrwt>
<pdfrwt beam="1">  1       21 0.31207862E+00 0.51427549E+03</pdfrwt>
<pdfrwt beam="2">  1       21 0.45862141E-01 0.51427549E+03</pdfrwt>
<totfact> 0.98165734E+01</totfact>
</mgrwt>
</event>
<event>
 5    0  0.3120399E-003  0.7129346E+03  0.7546771E-02  0.9695364E-01
         21   -1    0    0  504  501  0.00000000000E+00  0.00000000000E+00  0.94606203374E+03  0.94606203374E+03  0.00000000000E+00 0.  1.
         21   -1    0    0  501  502 -0.00000000000E+00 -0.00000000000E+00 -0.57695606999E+03  0.57695606999E+03  0.00000000000E+00 0.  1.
         25    1    1    2    0    0  0.25276360748E+03  0.40385309979E+03  0.37140265618E+03  0.61688872619E+03  0.12500000000E+03 0.  0.
         21    1    1    2  503  502  0.43654522940E+02  0.21478301199E+03  0.17384681155E+02  0.21986288171E+03  0.00000000000E+00 0. -1.
         21    1    1    2  504  503 -0.29641813042E+03 -0.61863611179E+03 -0.19681373577E+02  0.68626649584E+03  0.00000000000E+00 0.  1.
<mgrwt>
<rscale>  4 0.71293459E+03</rscale>
<asrwt>0</asrwt>
<pdfrwt beam="1">  1       21 0.14554801E+00 0.71293459E+03</pdfrwt>
<pdfrwt beam="2">  1       21 0.88762472E-01 0.71293459E+03</pdfrwt>
<totfact> 0.26149141E+02</totfact>
</mgrwt>
</event>
<event>
 5    0  0.3120399E-003  0.4382564E+03  0.7546771E-02  0.1031283E+00
         21   -1    0    0  502  501  0.00000000000E+00  0.00000000000E+00  0.97112937943E+03  0.97112937943E+03  0.00000000000E+00 0.  1.
         21   -1    0    0  503  502 -0.00000000000E+00 -0.00000000000E+00 -0.20940013519E+03  0.20940013519E+03  0.00000000000E+00 0.  1.
         25    1    1    2    0    0 -0.36442268698E+03 -0.38175072251E+02  0.47230857874E+03  0.61070584120E+03  0.12500000000E+03 0.  0.
         21    1    1    2  503  504  0.45379171445E+02 -0.94095043707E+02 -0.19709769305E+02  0.10630908455E+03  0.00000000000E+00 0.  1.
         21    1    1    2  504  501  0.31904351553E+03  0.13227011596E+03  0.30913043480E+03  0.46351458887E+03  0.00000000000E+00 0.  1.
<mgrwt>
<rscale>  4 0.43825641E+03</rscale>
<asrwt>0</asrwt>
<pdfrwt beam="1">  1       21 0.14940452E+00 0.43825641E+03</pdfrwt>
<pdfrwt beam="2">  1       21 0.32215406E-01 0.43825641E+03</pdfrwt>
<totfact> 0.24169225E+03</totfact>
</mgrwt>
</event>
<event>
 5    0  0.3120399E-003  0.2937320E+03  0.7546771E-02  0.1088417E+00
         21   -1    0    0  503  501  0.00000000000E+00  0.00000000000E+00  0.98567524008E+03  0.98567524008E+03  0.00000000000E+00 0. -1.
         21   -1    0    0  501  502 -0.00000000000E+00 -0.00000000000E+00 -0.10278086360E+03  0.10278086360E+03  0.00000000000E+00 0. -1.
         25    1    1    2    0    0  0.15620587841E+03  0.13081138482E+03  0.45345182187E+03  0.51259677096E+03  0.12500000000E+03 0.  0.
         21    1    1    2  503  504  0.28010469827E+01 -0.19675455814E+03  0.30687119460E+03  0.36454098822E+03  0.00000000000E+00 0. -1.
         21    1    1    2  504  502 -0.15900692539E+03  0.65943173318E+02  0.12257136001E+03  0.21131834450E+03  0.00000000000E+00 0. -1.
<mgrwt>
<rscale>  4 0.29373196E+03</rscale>
<asrwt>0</asrwt>
<pdfrwt beam="1">  1       21 0.15164234E+00 0.29373196E+03</pdfrwt>
<pdfrwt beam="2">  1       21 0.15812441E-01 0.29373196E+03</pdfrwt>
<totfact> 0.97101556E+03</totfact>
</mgrwt>
</event>
<event>
 5    0  0.3120399E-003  0.4940332E+03  0.7546771E-02  0.1015348E+00
         21   -1    0    0  504  501  0.00000000000E+00  0.00000000000E+00  0.19739964087E+03  0.19739964087E+03  0.00000000000E+00 0. -1.
         21   -1    0    0  501  502 -0.00000000000E+00 -0.00000000000E+00 -0.14703059270E+04  0.14703059270E+04  0.00000000000E+00 0. -1.
         25    1    1    2    0    0  0.14357444291E+03  0.43349673161E+03 -0.86346992919E+03  0.98475294140E+03  0.12500000000E+03 0.  0.
         21    1    1    2  503  502 -0.86016451565E+02 -0.10654836299E+01 -0.15676770380E+03  0.17881856210E+03  0.00000000000E+00 0. -1.
         21    1    1    2  504  503 -0.57557991344E+02 -0.43243124798E+03 -0.25266865316E+03  0.50413406440E+03  0.00000000000E+00 0. -1.
<mgrwt>
<rscale>  4 0.49403317E+03</rscale>
<asrwt>0</asrwt>
<pdfrwt beam="1">  1       21 0.30369175E-01 0.49403317E+03</pdfrwt>
<pdfrwt beam="2">  1       21 0.22620091E+00 0.49403317E+03</pdfrwt>
<totfact> 0.77449618E+02</totfact>
</mgrwt>
</event>
<event>
 5    0  0.3120399E-003  0.6335909E+03  0.7546771E-02  0.9838066E-01
         21   -1    0    0  502  501  0.00000000000E+00  0.00000000000E+00  0.13186372439E+04  0.13186372439E+04  0.00000000000E+00 0.  1.
         21   -1    0    0  504  502 -0.00000000000E+00 -0.00000000000E+00 -0.30718234853E+03  0.30718234853E+03  0.00000000000E+00 0.  1.
         25    1    1    2    0    0 -0.46620922552E+03 -0.29938189996E+03  0.35936754288E+03  0.67212394308E+03  0.12500000000E+03 0.  0.
         21    1    1    2  503  501  0.44537695619E+02 -0.96674803011E+02  0.17037498041E+03  0.20089115913E+03  0.00000000000E+00 0.  1.
         21    1    1    2  504  503  0.42167152990E+03  0.39605670297E+03  0.48171237212E+03  0.75280449026E+03  0.00000000000E+00 0.  1.
<mgrwt>
<rscale>  4 0.63359088E+03</rscale>
<asrwt>0</asrwt>
<pdfrwt beam="1">  1       21 0.20286726E+00 0.63359088E+03</pdfrwt>
<pdfrwt beam="2">  1       21 0.47258824E-01 0.63359088E+03</pdfrwt>
<totfact> 0.41965854E+02</totfact>
</mgrwt>
</event>
<event>
 5    0  0.3120399E-003  0.3927169E+03  0.7546771E-02  0.1046331E+00
         21   -1    0    0  502  501  0.00000000000E+00  0.00000000000E+00  0.51666839009E+03  0.51666839009E+03  0.00000000000E+00 0. -1.
         21   -1    0    0  504  502 -0.00000000000E+00 -0.00000000000E+00 -0.37509357603E+03  0.37509357603E+03  0.00000000000E+00 0. -1.
         25    1    1    2    0    0 -0.22511843509E+03 -0.59552970037E+02  0.25071783411E+03  0.36429287448E+03  0.12500000000E+03 0.  0.
         21    1    1    2  503  501 -0.54676227778E+02  0.18993314064E+03  0.67177268048E+01  0.19776050074E+03  0.00000000000E+00 0.  1.
         21    1    1    2  504  503  0.27979466286E+03 -0.13038017061E+03 -0.11586074684E+03  0.32970859090E+03  0.00000000000E+00 0. -1.
<mgrwt>
<rscale>  4 0.39271695E+03</rscale>
<asrwt>0</asrwt>
<pdfrwt beam="1">  1       21 0.79487445E-01 0.39271695E+03</pdfrwt>
<pdfrwt beam="2">  1       21 0.57706704E-01 0.39271695E+03</pdfrwt>
<totfact> 0.35059107E+03</totfact>
</mgrwt>
</event>
<event>
 5    0  0.3120399E-003  0.1696293E+03  0.7546771E-02  0.1178235E+00
         21   -1    0    0  502  501  0.00000000000E+00  0.00000000000E+00  0.34109170785E+02  0.34109170785E+02  0.00000000000E+00 0. -1.
         21   -1    0    0  504  502 -0.00000000000E+00 -0.00000000000E+00 -0.18947146434E+04  0.18947146434E+04  0.00000000000E+00 0. -1.
         25    1    1    2    0    0 -0.20243782648E+03 -0.51401476705E+02 -0.83096385460E+03  0.86588054202E+03  0.12500000000E+03 0.  0.
         21    1    1    2  503  501  0.37409772425E+02 -0.53359578898E+02 -0.19058639011E+03  0.20141973049E+03  0.00000000000E+00 0.  1.
         21    1    1    2  504  503  0.16502805405E+03  0.10476105560E+03 -0.83905522787E+03  0.86152354164E+03  0.00000000000E+00 0. -1.
<mgrwt>
<rscale>  4 0.16962928E+03</rscale>
<asrwt>0</asrwt>
<pdfrwt beam="1">  1       21 0.52475639E-02 0.16962928E+03</pdfrwt>
<pdfrwt beam="2">  1       21 0.29149461E+00 0.16962928E+03</pdfrwt>
<totfact> 0.97151454E+03</totfact>
</mgrwt>
</event>
<event>
 5    0  0.3120399E-003  0.3284146E+03  0.7546771E-02  0.1071841E+00
         21   -1    0    0  502  501  0.00000000000E+00  0.00000000000E+00  0.13290106111E+03  0.13290106111E+03  0.00000000000E+00 0. -1.
         21   -1    0    0  504  502 -0.00000000000E+00 -0.00000000000E+00 -0.10601665889E+04  0.10601665889E+04  0.00000000000E+00 0. -1.
         25    1    1    2    0    0 -0.25417062600E+03  0.15085131628E+02 -0.11175913347E+03  0.30486943473E+03  0.12500000000E+03 0.  0.
         21    1    1    2  503  501  0.17587104665E+03  0.98855440470E+02 -0.36613038262E+03  0.41803645802E+03  0.00000000000E+00 0. -1.
         21    1    1    2  504  503  0.78299579351E+02 -0.11394057210E+03 -0.44937601172E+03  0.47016175727E+03  0.00000000000E+00 0.  1.
<mgrwt>
<rscale>  4 0.32841462E+03</rscale>
<asrwt>0</asrwt>
<pdfrwt beam="1">  1       21 0.20446317E-01 0.32841462E+03</pdfrwt>
<pdfrwt beam="2">  1       21 0.16310255E+00 0.32841462E+03</pdfrwt>
<totfact> 0.48358756E+03</totfact>
</mgrwt>
</event>
<event>
 5    0  0.3120399E-003  0.3776603E+03  0.7546771E-02  0.1051802E+00
         21   -1    0    0  502  501  0.00000000000E+00  0.00000000000E+00  0.11856616656E+03  0.11856616656E+03  0.00000000000E+00 0. -1.
         21   -1    0    0  504  502 -0.00000000000E+00 -0.00000000000E+00 -0.12939522754E+04  0.12939522754E+04  0.00000000000E+00 0. -1.
         25    1    1    2    0    0 -0.16046735229E+03  0.17618840683E+03 -0.25085319026E+03  0.36789189841E+03  0.12500000000E+03 0.  0.
         21    1    1    2  503  501  0.47936532888E+02 -0.28712753596E+03 -0.38646207053E+03  0.48383164949E+03  0.00000000000E+00 0. -1.
         21    1    1    2  504  503  0.11253081940E+03  0.11093912913E+03 -0.53807084809E+03  0.56079489410E+03  0.00000000000E+00 0. -1.
<mgrwt>
<rscale>  4 0.37766031E+03</rscale>
<asrwt>0</asrwt>
<pdfrwt beam="1">  1       21 0.18240948E-01 0.37766031E+03</pdfrwt>
<pdfrwt beam="2">  1       21 0.19906958E+00 0.37766031E+03</pdfrwt>
<totfact> 0.32855533E+03</totfact>
</mgrwt>
</event>
<event>
 5    0  0.3120399E-003  0.3029430E+03  0.7546771E-02  0.1083779E+00
         21   -1    0    0  502  501  0.00000000000E+00  0.00000000000E+00  0.10080313738E+03  0.10080313738E+03  0.00000000000E+00 0. -1.
         21   -1    0    0  503  502 -0.00000000000E+00 -0.00000000000E+00 -0.91814566019E+03  0.91814566019E+03  0.00000000000E+00 0. -1.
         25    1    1    2    0    0 -0.84264123357E+02 -0.22608244710E+03 -0.41908012100E+03  0.49946657865E+03  0.12500000000E+03 0.  0.
         21    1    1    2  503  504  0.66834569270E+02  0.26854346937E+03 -0.37999017910E+03  0.47007977069E+03  0.00000000000E+00 0. -1.
         21    1    1    2  504  501  0.17429554086E+02 -0.42461022276E+02 -0.18272222713E+02  0.49402448231E+02  0.00000000000E+00 0.  1.
<mgrwt>
<rscale>  4 0.30294297E+03</rscale>
<asrwt>0</asrwt>
<pdfrwt beam="1">  1       21 0.15508175E-01 0.30294297E+03</pdfrwt>
<pdfrwt beam="2">  1       21 0.14125318E+00 0.30294297E+03</pdfrwt>
<totfact> 0.12099636E+04</totfact>
</mgrwt>
</event>
<event>
 5    0  0.3120399E-003  0.3087330E+03  0.7546771E-02  0.1080955E+00
         21   -1    0    0  503  501  0.00000000000E+00  0.00000000000E+00  0.29893247752E+03  0.29893247752E+03  0.00000000000E+00 0.  1.
         21   -1    0    0  501  502 -0.00000000000E+00 -0.00000000000E+00 -0.37639972123E+03  0.37639972123E+03  0.00000000000E+00 0.  1.
         25    1    1    2    0    0 -0.23336912092E+03 -0.15274465847E+02  0.65085884182E+02  0.27304876529E+03  0.12500000000E+03 0.  0.
         21    1    1    2  503  504  0.19549734928E+03 -0.76832874368E+02  0.20679540128E+02  0.21106905870E+03  0.00000000000E+00 0.  1.
         21    1    1    2  504  502  0.37871771635E+02  0.92107340215E+02 -0.16323266802E+03  0.19121437477E+03  0.00000000000E+00 0.  1.
<mgrwt>
<rscale>  4 0.30873301E+03</rscale>
<asrwt>0</asrwt>
<pdfrwt beam="1">  1       21 0.45989612E-01 0.30873301E+03</pdfrwt>
<pdfrwt beam="2">  1       21 0.57907650E-01 0.30873301E+03</pdfrwt>
<totfact> 0.11904915E+04</totfact>
</mgrwt>
</event>
<event>
 5    0  0.3120399E-003  0.4437888E+03  0.7546771E-02  0.1029591E+00
         21   -1    0    0  503  501  0.00000000000E+00  0.00000000000E+00  0.58374724382E+03  0.58374724382E+03  0.00000000000E+00 0.  1.
         21   -1    0    0  501  502 -0.00000000000E+00 -0.00000000000E+00 -0.56963877273E+03  0.56963877273E+03  0.00000000000E+00 0.  1.
         25    1    1    2    0    0  0.10665485652E+03 -0.41270418086E+03 -0.36278546435E+03  0.57353142239E+03  0.12500000000E+03 0.  0.
         21    1    1    2  503  504 -0.10757613891E+03  0.33589445590E+03  0.35396839878E+03  0.49969124318E+03  0.00000000000E+00 0.  1.
         21    1    1    2  504  502  0.92128238695E+00  0.76809724961E+02  0.22925536660E+02  0.80163350984E+02  0.00000000000E+00 0.  1.
<mgrwt>
<rscale>  4 0.44378880E+03</rscale>
<asrwt>0</asrwt>
<pdfrwt beam="1">  1       21 0.89807269E-01 0.44378880E+03</pdfrwt>
<pdfrwt beam="2">  1       21 0.87636734E-01 0.44378880E+03</pdfrwt>
<totfact> 0.10057057E+03</totfact>
</mgrwt>
</event>
<event>
 5    0  0.3120399E-003  0.6077037E+03  0.7546771E-02  0.9889551E-01
         21   -1    0    0  502  501  0.00000000000E+00  0.00000000000E+00  0.58838694006E+03  0.58838694006E+03  0.00000000000E+00 0.  1.
         21   -1    0    0  503  502 -0.00000000000E+00 -0.00000000000E+00 -0.69578362754E+03  0.69578362754E+03  0.00000000000E+00 0.  1.
         25    1    1    2    0    0  0.32887324722E+03 -0.38594953377E+02 -0.22305831979E+03  0.41836251887E+03  0.12500000000E+03 0.  0.
         21    1    1    2  503  504 -0.26435125683E+03  0.40494348330E+03  0.97870523396E+02  0.49339583602E+03  0.00000000000E+00 0.  1.
         21    1    1    2  504  501 -0.64521990396E+02 -0.36634852992E+03  0.17791108914E+02  0.37241221271E+03  0.00000000000E+00 0.  1.
<mgrwt>
<rscale>  4 0.60770371E+03</rscale>
<asrwt>0</asrwt>
<pdfrwt beam="1">  1       21 0.90521067E-01 0.60770371E+03</pdfrwt>
<pdfrwt beam="2">  1       21 0.10704364E+00 0.60770371E+03</pdfrwt>
<totfact> 0.57284556E+02</totfact>
</mgrwt>
</event>
<event>
 5    0  0.3120399E-003  0.3368568E+03  0.7546771E-02  0.1068143E+00
         21   -1    0    0  502  501  0.00000000000E+00  0.00000000000E+00  0.96604059694E+03  0.96604059694E+03  0.00000000000E+00 0.  1.
         21   -1    0    0  504  502 -0.00000000000E+00 -0.00000000000E+00 -0.15013074669E+03  0.15013074669E+03  0.00000000000E+00 0.  1.
         25    1    1    2    0    0  0.30732053916E+03 -0.30976105052E+01  0.13603545837E+03  0.35858911712E+03  0.12500000000E+03 0.  0.
         21    1    1    2  503  501 -0.34466943370E+02  0.45868363383E+02  0.99867655459E+02  0.11517562916E+03  0.00000000000E+00 0.  1.
         21    1    1    2  504  503 -0.27285359579E+03 -0.42770752878E+02  0.58000673642E+03  0.64240659736E+03  0.00000000000E+00 0.  1.
<mgrwt>
<rscale>  4 0.33685679E+03</rscale>
<asrwt>0</asrwt>
<pdfrwt beam="1">  1       21 0.14862163E+00 0.33685679E+03</pdfrwt>
<pdfrwt beam="2">  1       21 0.23097038E-01 0.33685679E+03</pdfrwt>
<totfact> 0.49176837E+03</totfact>
</mgrwt>
</event>
<event>
 5    0  0.3120399E-003  0.3989075E+03  0.7546771E-02  0.1044159E+00
         21   -1    0    0  504  501  0.00000000000E+00  0.00000000000E+00  0.61719859776E+03  0.61719859776E+03  0.00000000000E+00 0. -1.
         21   -1    0    0  501  502 -0.00000000000E+00 -0.00000000000E+00 -0.26565921184E+03  0.26565921184E+03  0.00000000000E+00 0. -1.
         25    1    1    2    0    0 -0.25720375627E+02 -0.20953536053E+03  0.16802389322E+03  0.29736111670E+03  0.12500000000E+03 0.  0.
         21    1    1    2  503  502 -0.12290944440E+03 -0.11409303363E+03 -0.29860295635E+02  0.17033962869E+03  0.00000000000E+00 0. -1.
         21    1    1    2  504  503  0.14862982002E+03  0.32362839417E+03  0.21337578833E+03  0.41515706420E+03  0.00000000000E+00 0. -1.
<mgrwt>
<rscale>  4 0.39890746E+03</rscale>
<asrwt>0</asrwt>
<pdfrwt beam="1">  1       21 0.94953630E-01 0.39890746E+03</pdfrwt>
<pdfrwt beam="2">  1       21 0.40870648E-01 0.39890746E+03</pdfrwt>
<totfact> 0.47794634E+03</totfact>
</mgrwt>
</event>
<event>
 5    0  0.3120399E-003  0.3435515E+03  0.7546771E-02  0.1065293E+00
         21   -1    0    0  503  501  0.00000000000E+00  0.00000000000E+00  0.17554860829E+03  0.17554860829E+03  0.00000000000E+00 0.  1.
         21   -1    0    0  501  502 -0.00000000000E+00 -0.00000000000E+00 -0.83070977395E+03  0.83070977395E+03  0.00000000000E+00 0.  1.
         25    1    1    2    0    0  0.91842311767E+02  0.19787684875E+03 -0.48896597432E+03  0.54982086314E+03  0.12500000000E+03 0.  0.
         21    1    1    2  503  504 -0.16337042655E+03  0.45548915067E+02 -0.87212910239E+02  0.19071101606E+03  0.00000000000E+00 0.  1.
         21    1    1    2  504  502  0.71528114780E+02 -0.24342576382E+03 -0.78982281105E+02  0.26572650305E+03  0.00000000000E+00 0. -1.
<mgrwt>
<rscale>  4 0.34355153E+03</rscale>
<asrwt>0</asrwt>
<pdfrwt beam="1">  1       21 0.27007478E-01 0.34355153E+03</pdfrwt>
<pdfrwt beam="2">  1       21 0.12780151E+00 0.34355153E+03</pdfrwt>
<totfact> 0.53795638E+03</totfact>
</mgrwt>
</event>
<event>
 5    0  0.3120399E-003  0.4433072E+03  0.7546771E-02  0.1029737E+00
         21   -1    0    0  503  501  0.00000000000E+00  0.00000000000E+00  0.30880018928E+03  0.30880018928E+03  0.00000000000E+00 0. -1.
         21   -1    0    0  501  502 -0.00000000000E+00 -0.00000000000E+00 -0.64604321735E+03  0.64604321735E+03  0.00000000000E+00 0. -1.
         25    1    1    2    0    0 -0.25405356251E+03  0.56853974921E+02 -0.79258223766E+02  0.29947028754E+03  0.12500000000E+03 0.  0.
         21    1    1    2  503  504  0.37420240983E+03 -0.17827016719E+03 -0.10868950192E+03  0.42851033110E+03  0.00000000000E+00 0. -1.
         21    1    1    2  504  502 -0.12014884732E+03  0.12141619227E+03 -0.14929530238E+03  0.22686278798E+03  0.00000000000E+00 0. -1.
<mgrwt>
<rscale>  4 0.44330722E+03</rscale>
<asrwt>0</asrwt>
<pdfrwt beam="1">  1       21 0.47507722E-01 0.44330722E+03</pdfrwt>
<pdfrwt beam="2">  1       21 0.99391264E-01 0.44330722E+03</pdfrwt>
<totfact> 0.30777309E+03</totfact>
</mgrwt>
</event>
<event>
 5    0  0.3120399E-003  0.2487565E+03  0.7546771E-02  0.1114093E+00
         21   -1    0    0  502  501  0.00000000000E+00  0.00000000000E+00  0.28591185237E+03  0.28591185237E+03  0.00000000000E+00 0.  1.
         21   -1    0    0  504  502 -0.00000000000E+00 -0.00000000000E+00 -0.35780969238E+03  0.35780969238E+03  0.00000000000E+00 0.  1.
         25    1    1    2    0    0 -0.48270260295E+02  0.24499651210E+03  0.72629251327E+02  0.28853650916E+03  0.12500000000E+03 0.  0.
         21    1    1    2  503  501 -0.97882754914E+00 -0.83006720302E+02  0.50305158230E+02  0.97065352537E+02  0.00000000000E+00 0.  1.
         21    1    1    2  504  503  0.49249087845E+02 -0.16198979180E+03 -0.19483224957E+03  0.25811968304E+03  0.00000000000E+00 0.  1.
<mgrwt>
<rscale>  4 0.24875651E+03</rscale>
<asrwt>0</asrwt>
<pdfrwt beam="1">  1       21 0.43986439E-01 0.24875651E+03</pdfrwt>
<pdfrwt beam="2">  1       21 0.55047645E-01 0.24875651E+03</pdfrwt>
<totfact> 0.14965060E+04</totfact>
</mgrwt>
</event>
<event>
 5    0  0.3120399E-003  0.2724312E+03  0.7546771E-02  0.1099896E+00
         21   -1    0    0  503  501  0.00000000000E+00  0.00000000000E+00  0.33577979659E+03  0.33577979659E+03  0.00000000000E+00 0. -1.
         21   -1    0    0  501  502 -0.00000000000E+00 -0.00000000000E+00 -0.34658253699E+03  0.34658253699E+03  0.00000000000E+00 0. -1.
         25    1    1    2    0    0 -0.24453221754E+03 -0.64506613653E+02  0.65835673109E+02  0.28968335208E+03  0.12500000000E+03 0.  0.
         21    1    1    2  503  504  0.17244048838E+03 -0.75810639889E+02  0.44769227247E+02  0.19361626704E+03  0.00000000000E+00 0. -1.
         21    1    1    2  504  502  0.72091729162E+02  0.14031725354E+03 -0.12140764076E+03  0.19906271446E+03  0.00000000000E+00 0. -1.
<mgrwt>
<rscale>  4 0.27243123E+03</rscale>
<asrwt>0</asrwt>
<pdfrwt beam="1">  1       21 0.51658430E-01 0.27243123E+03</pdfrwt>
<pdfrwt beam="2">  1       21 0.53320390E-01 0.27243123E+03</pdfrwt>
<totfact> 0.11316355E+04</totfact>
</mgrwt>
</event>
<event>
 5    0  0.3120399E-003  0.4183875E+03  0.7546771E-02  0.1037592E+00
         21   -1    0    0  502  501  0.00000000000E+00  0.00000000000E+00  0.16770196960E+03  0.16770196960E+03  0.00000000000E+00 0.  1.
         21   -1    0    0  503  502 -0.00000000000E+00 -0.00000000000E+00 -0.11028513839E+04  0.11028513839E+04  0.00000000000E+00 0.  1.
         25    1    1    2    0    0 -0.11937236250E+03  0.37893502424E+03 -0.36362491734E+03  0.55289202746E+03  0.12500000000E+03 0.  0.
         21    1    1    2  503  504  0.70743580293E+02 -0.36688343756E+03 -0.54552947039E+03  0.66121896069E+03  0.00000000000E+00 0.  1.
         21    1    1    2  504  501  0.48628782204E+02 -0.12051586672E+02 -0.25995026581E+02  0.56442365355E+02  0.00000000000E+00 0. -1.
<mgrwt>
<rscale>  4 0.41838752E+03</rscale>
<asrwt>0</asrwt>
<pdfrwt beam="1">  1       21 0.25800303E-01 0.41838752E+03</pdfrwt>
<pdfrwt beam="2">  1       21 0.16966944E+00 0.41838752E+03</pdfrwt>
<totfact> 0.26552327E+03</totfact>
</mgrwt>
</event>
<event>
 5    0  0.3120399E-003  0.2338449E+03  0.7546771E-02  0.1123962E+00
         21   -1    0    0  503  501  0.00000000000E+00  0.00000000000E+00  0.44071052110E+03  0.44071052110E+03  0.00000000000E+00 0. -1.
         21   -1    0    0  501  502 -0.00000000000E+00 -0.00000000000E+00 -0.16715224748E+03  0.16715224748E+03  0.00000000000E+00 0. -1.
         25    1    1    2    0    0  0.57441277056E+02  0.21910180983E+03  0.62661805142E+02  0.26618904036E+03  0.12500000000E+03 0.  0.
         21    1    1    2  503  504 -0.24864269422E+02 -0.16630082061E+03  0.22215727248E+03  0.27861810520E+03  0.00000000000E+00 0. -1.
         21    1    1    2  504  502 -0.32577007634E+02 -0.52800989224E+02 -0.11260803997E+02  0.63055623033E+02  0.00000000000E+00 0. -1.
<mgrwt>
<rscale>  4 0.23384490E+03</rscale>
<asrwt>0</asrwt>
<pdfrwt beam="1">  1       21 0.67801618E-01 0.23384490E+03</pdfrwt>
<pdfrwt beam="2">  1       21 0.25715730E-01 0.23384490E+03</pdfrwt>
<totfact> 0.27906187E+04</totfact>
</mgrwt>
</event>
<event>
 5    0  0.3120399E-003  0.4497216E+03  0.7546771E-02  0.1027805E+00
         21   -1    0    0  502  501  0.00000000000E+00  0.00000000000E+00  0.69445485081E+03  0.69445485081E+03  0.00000000000E+00 0. -1.
         21   -1    0    0  504  502 -0.00000000000E+00 -0.00000000000E+00 -0.30745532650E+03  0.30745532650E+03  0.00000000000E+00 0. -1.
         25    1    1    2    0    0  0.28867647664E+03 -0.63259562388E+02  0.29534473524E+03  0.43610708895E+03  0.12500000000E+03 0.  0.
         21    1    1    2  503  501  0.89027342738E+02  0.14579373874E+03  0.13438063515E+02  0.17135420497E+03  0.00000000000E+00 0.  1.
         21    1    1    2  504  503 -0.37770381938E+03 -0.82534176352E+02  0.78216725559E+02  0.39444888338E+03  0.00000000000E+00 0. -1.
<mgrwt>
<rscale>  4 0.44972165E+03</rscale>
<asrwt>0</asrwt>
<pdfrwt beam="1">  1       21 0.10683921E+00 0.44972165E+03</pdfrwt>
<pdfrwt beam="2">  1       21 0.47300820E-01 0.44972165E+03</pdfrwt>
<totfact> 0.25960781E+03</totfact>
</mgrwt>
</event>
<event>
 5    0  0.3120399E-003  0.2416287E+03  0.7546771E-02  0.1118713E+00
         21   -1    0    0  502  501  0.00000000000E+00  0.00000000000E+00  0.48147792942E+03  0.48147792942E+03  0.00000000000E+00 0.  1.
         21   -1    0    0  503  502 -0.00000000000E+00 -0.00000000000E+00 -0.15803109760E+03  0.15803109760E+03  0.00000000000E+00 0.  1.
         25    1    1    2    0    0 -0.23059436764E+03 -0.14128849989E+02  0.13225556303E+03  0.29409168764E+03  0.12500000000E+03 0.  0.
         21    1    1    2  503  504  0.15173375170E+03  0.32624367255E+02  0.20587447819E+02  0.15656092664E+03  0.00000000000E+00 0.  1.
         21    1    1    2  504  501  0.78860615935E+02 -0.18495517266E+02  0.17060382096E+03  0.18885641273E+03  0.00000000000E+00 0.  1.
<mgrwt>
<rscale>  4 0.24162870E+03</rscale>
<asrwt>0</asrwt>
<pdfrwt beam="1">  1       21 0.74073527E-01 0.24162870E+03</pdfrwt>
<pdfrwt beam="2">  1       21 0.24312477E-01 0.24162870E+03</pdfrwt>
<totfact> 0.25436632E+04</totfact>
</mgrwt>
</event>
<event>
 5    0  0.3120399E-003  0.3933240E+03  0.7546771E-02  0.1046116E+00
         21   -1    0    0  503  501  0.00000000000E+00  0.00000000000E+00  0.14317704173E+04  0.14317704173E+04  0.00000000000E+00 0.  1.
         21   -1    0    0  501  502 -0.00000000000E+00 -0.00000000000E+00 -0.14732510431E+03  0.14732510431E+03  0.00000000000E+00 0.  1.
         25    1    1    2    0    0 -0.46922990730E+01 -0.23772637274E+03  0.58549913693E+03  0.64418171762E+03  0.12500000000E+03 0.  0.
         21    1    1    2  503  504 -0.14540577430E+03 -0.80316351726E+02  0.50856574688E+03  0.53500717234E+03  0.00000000000E+00 0.  1.
         21    1    1    2  504  502  0.15009807338E+03  0.31804272446E+03  0.19038042915E+03  0.39990663163E+03  0.00000000000E+00 0.  1.
<mgrwt>
<rscale>  4 0.39332395E+03</rscale>
<asrwt>0</asrwt>
<pdfrwt beam="1">  1       21 0.22027236E+00 0.39332395E+03</pdfrwt>
<pdfrwt beam="2">  1       21 0.22665402E-01 0.39332395E+03</pdfrwt>
<totfact> 0.15717506E+03</totfact>
</mgrwt>
</event>
<event>
 5    0  0.3120399E-003  0.3508707E+03  0.7546771E-02  0.1062258E+00
         21   -1    0    0  502  501  0.00000000000E+00  0.00000000000E+00  0.13364767678E+03  0.13364767678E+03  0.00000000000E+00 0.  1.
         21   -1    0    0  503  502 -0.00000000000E+00 -0.00000000000E+00 -0.10027580166E+04  0.10027580166E+04  0.00000000000E+00 0.  1.
         25    1    1    2    0    0  0.28856899504E+03 -0.11998427858E+03 -0.43763125229E+03  0.55209999546E+03  0.12500000000E+03 0.  0.
         21    1    1    2  503  504 -0.40640153506E+02 -0.43710072937E+02 -0.19695808176E+03  0.20580252312E+03  0.00000000000E+00 0. -1.
         21    1    1    2  504  501 -0.24792884154E+03  0.16369435152E+03 -0.23452100579E+03  0.37850317481E+03  0.00000000000E+00 0.  1.
<mgrwt>
<rscale>  4 0.35087072E+03</rscale>
<asrwt>0</asrwt>
<pdfrwt beam="1">  1       21 0.20561181E-01 0.35087072E+03</pdfrwt>
<pdfrwt beam="2">  1       21 0.15427047E+00 0.35087072E+03</pdfrwt>
<totfact> 0.55157752E+03</totfact>
</mgrwt>
</event>
<event>
 5    0  0.3120399E-003  0.5621021E+03  0.7546771E-02  0.9987310E-01
         21   -1    0    0  502  501  0.00000000000E+00  0.00000000000E+00  0.35618472998E+03  0.35618472998E+03  0.00000000000E+00 0. -1.
         21   -1    0    0  504  502 -0.00000000000E+00 -0.00000000000E+00 -0.11262424184E+04  0.11262424184E+04  0.00000000000E+00 0. -1.
         25    1    1    2    0    0 -0.73437292734E+02 -0.24124735582E+03  0.65378715043E+02  0.28895103225E+03  0.12500000000E+03 0.  0.
         21    1    1    2  503  501  0.19504816512E+03 -0.24414617747E+03 -0.15491424109E+03  0.34878297662E+03  0.00000000000E+00 0. -1.
         21    1    1    2  504  503 -0.12161087239E+03  0.48539353329E+03 -0.68052216234E+03  0.84469313948E+03  0.00000000000E+00 0. -1.
<mgrwt>
<rscale>  4 0.56210208E+03</rscale>
<asrwt>0</asrwt>
<pdfrwt beam="1">  1       21 0.54797651E-01 0.56210208E+03</pdfrwt>
<pdfrwt beam="2">  1       21 0.17326806E+00 0.56210208E+03</pdfrwt>
<totfact> 0.50391575E+02</totfact>
</mgrwt>
</event>
<event>
 5    0  0.3120399E-003  0.2337503E+03  0.7546771E-02  0.1124028E+00
         21   -1    0    0  504  501  0.00000000000E+00  0.00000000000E+00  0.16827108955E+03  0.16827108955E+03  0.00000000000E+00 0. -1.
         21   -1    0    0  501  502 -0.00000000000E+00 -0.00000000000E+00 -0.67092443865E+03  0.67092443865E+03  0.00000000000E+00 0. -1.
         25    1    1    2    0    0 -0.85668523732E+02  0.24836217867E+03 -0.17932594865E+03  0.34176843566E+03  0.12500000000E+03 0.  0.
         21    1    1    2  503  502  0.17873793953E+01 -0.11813401948E+03 -0.32148931579E+03  0.34251163696E+03  0.00000000000E+00 0. -1.
         21    1    1    2  504  503  0.83881144337E+02 -0.13022815920E+03 -0.18380846522E+01  0.15491545558E+03  0.00000000000E+00 0. -1.
<mgrwt>
<rscale>  4 0.23375025E+03</rscale>
<asrwt>0</asrwt>
<pdfrwt beam="1">  1       21 0.25887860E-01 0.23375025E+03</pdfrwt>
<pdfrwt beam="2">  1       21 0.10321914E+00 0.23375025E+03</pdfrwt>
<totfact> 0.10496712E+04</totfact>
</mgrwt>
</event>
<event>
 5    0  0.3120399E-003  0.4924949E+03  0.7546771E-02  0.1015757E+00
         21   -1    0    0  503  501  0.00000000000E+00  0.00000000000E+00  0.54318910176E+03  0.54318910176E+03  0.00000000000E+00 0. -1.
         21   -1    0    0  501  502 -0.00000000000E+00 -0.00000000000E+00 -0.45536320531E+03  0.45536320531E+03  0.00000000000E+00 0. -1.
         25    1    1    2    0    0 -0.38529346231E+03  0.14475654248E+03  0.88077728504E+02  0.43907652516E+03  0.12500000000E+03 0.  0.
         21    1    1    2  503  504  0.38556878812E+03 -0.21602390531E+03  0.83210062271E+02  0.44972606385E+03  0.00000000000E+00 0. -1.
         21    1    1    2  504  502 -0.27532581362E+00  0.71267362828E+02 -0.83461894326E+02  0.10974971806E+03  0.00000000000E+00 0.  1.
<mgrwt>
<rscale>  4 0.49249495E+03</rscale>
<asrwt>0</asrwt>
<pdfrwt beam="1">  1       21 0.83567554E-01 0.49249495E+03</pdfrwt>
<pdfrwt beam="2">  1       21 0.70055878E-01 0.49249495E+03</pdfrwt>
<totfact> 0.19588619E+03</totfact>
</mgrwt>
</event>
<event>
 5    0  0.3120399E-003  0.2793505E+03  0.7546771E-02  0.1096044E+00
         21   -1    0    0  504  501  0.00000000000E+00  0.00000000000E+00  0.18644384042E+04  0.18644384042E+04  0.00000000000E+00 0.  1.
         21   -1    0    0  501  502 -0.00000000000E+00 -0.00000000000E+00 -0.53539141757E+02  0.53539141757E+02  0.00000000000E+00 0.  1.
         25    1    1    2    0    0 -0.15669662544E+03 -0.23749545797E+03  0.98458663884E+03  0.10324697450E+04  0.12500000000E+03 0.  0.
         21    1    1    2  503  502  0.12895053183E+02  0.14565581150E+03  0.42406725246E+03  0.44856987464E+03  0.00000000000E+00 0.  1.
         21    1    1    2  504  503  0.14380157225E+03  0.91839646473E+02  0.40224537115E+03  0.43693792632E+03  0.00000000000E+00 0.  1.
<mgrwt>
<rscale>  4 0.27935051E+03</rscale>
<asrwt>0</asrwt>
<pdfrwt beam="1">  1       21 0.28683663E+00 0.27935051E+03</pdfrwt>
<pdfrwt beam="2">  1       21 0.82367925E-02 0.27935051E+03</pdfrwt>
<totfact> 0.42681971E+03</totfact>
</mgrwt>
</event>
<event>
 5    0  0.3120399E-003  0.3382413E+03  0.7546771E-02  0.1067547E+00
         21   -1    0    0  502  501  0.00000000000E+00  0.00000000000E+00  0.24472646594E+03  0.24472646594E+03  0.00000000000E+00 0. -1.
         21   -1    0    0  504  502 -0.00000000000E+00 -0.00000000000E+00 -0.55965384695E+03  0.55965384695E+03  0.00000000000E+00 0. -1.
         25    1    1    2    0    0  0.22312245987E+03 -0.21740563425E+03 -0.31934347456E+02  0.33718488171E+03  0.12500000000E+03 0.  0.
         21    1    1    2  503  501 -0.17587337568E+03  0.13451194274E+03 -0.67423229482E+02  0.23145366466E+03  0.00000000000E+00 0. -1.
         21    1    1    2  504  503 -0.47249084194E+02  0.82893691511E+02 -0.21556980408E+03  0.23574176651E+03  0.00000000000E+00 0.  1.
<mgrwt>
<rscale>  4 0.33824125E+03</rscale>
<asrwt>0</asrwt>
<pdfrwt beam="1">  1       21 0.37650226E-01 0.33824125E+03</pdfrwt>
<pdfrwt beam="2">  1       21 0.86100592E-01 0.33824125E+03</pdfrwt>
<totfact> 0.72961973E+03</totfact>
</mgrwt>
</event>
<event>
 5    0  0.3120399E-003  0.6198647E+03  0.7546771E-02  0.9865029E-01
         21   -1    0    0  503  501  0.00000000000E+00  0.00000000000E+00  0.83406614303E+03  0.83406614303E+03  0.00000000000E+00 0.  1.
         21   -1    0    0  501  502 -0.00000000000E+00 -0.00000000000E+00 -0.87577757342E+03  0.87577757342E+03  0.00000000000E+00 0.  1.
         25    1    1    2    0    0  0.12575692301E+03 -0.47856217004E+03 -0.58979755586E+03  0.77995045431E+03  0.12500000000E+03 0.  0.
         21    1    1    2  503  504  0.37047905537E+02  0.52022385791E+03  0.55513360542E+03  0.76169464322E+03  0.00000000000E+00 0.  1.
         21    1    1    2  504  502 -0.16280482855E+03 -0.41661687867E+02 -0.70474799506E+01  0.16819861893E+03  0.00000000000E+00 0. -1.
<mgrwt>
<rscale>  4 0.61986466E+03</rscale>
<asrwt>0</asrwt>
<pdfrwt beam="1">  1       21 0.12831787E+00 0.61986466E+03</pdfrwt>
<pdfrwt beam="2">  1       21 0.13473501E+00 0.61986466E+03</pdfrwt>
<totfact> 0.13245795E+02</totfact>
</mgrwt>
</event>
<event>
 5    0  0.3120399E-003  0.1877232E+03  0.7546771E-02  0.1160531E+00
         21   -1    0    0  503  501  0.00000000000E+00  0.00000000000E+00  0.93389648652E+02  0.93389648652E+02  0.00000000000E+00 0. -1.
         21   -1    0    0  501  502 -0.00000000000E+00 -0.00000000000E+00 -0.73575254802E+03  0.73575254802E+03  0.00000000000E+00 0. -1.
         25    1    1    2    0    0 -0.18088837696E+03 -0.11452254880E+03 -0.28140265045E+03  0.37503129307E+03  0.12500000000E+03 0.  0.
         21    1    1    2  503  504  0.69203552543E+02 -0.40643678919E+02 -0.14465980971E+03  0.16543125722E+03  0.00000000000E+00 0.  1.
         21    1    1    2  504  502  0.11168482442E+03  0.15516622772E+03 -0.21630043920E+03  0.28867964637E+03  0.00000000000E+00 0. -1.
<mgrwt>
<rscale>  4 0.18772319E+03</rscale>
<asrwt>0</asrwt>
<pdfrwt beam="1">  1       21 0.14367638E-01 0.18772319E+03</pdfrwt>
<pdfrwt beam="2">  1       21 0.11319270E+00 0.18772319E+03</pdfrwt>
<totfact> 0.25924588E+04</totfact>
</mgrwt>
</event>
<event>
 5    0  0.3120399E-003  0.3782952E+03  0.7546771E-02  0.1051566E+00
         21   -1    0    0  503  501  0.00000000000E+00  0.00000000000E+00  0.11264972518E+04  0.11264972518E+04  0.00000000000E+00 0.  1.
         21   -1    0    0  501  502 -0.00000000000E+00 -0.00000000000E+00 -0.13680012262E+03  0.13680012262E+03  0.00000000000E+00 0.  1.
         25    1    1    2    0    0 -0.11467769503E+03 -0.17877561445E+03  0.16314107568E+03  0.29555321794E+03  0.12500000000E+03 0.  0.
         21    1    1    2  503  504  0.28242296165E+03  0.17814167085E+03  0.58637876666E+03  0.67478681237E+03  0.00000000000E+00 0.  1.
         21    1    1    2  504  502 -0.16774526663E+03  0.63394359826E+00  0.24017728686E+03  0.29295734413E+03  0.00000000000E+00 0.  1.
<mgrwt>
<rscale>  4 0.37829521E+03</rscale>
<asrwt>0</asrwt>
<pdfrwt beam="1">  1       21 0.17330726E+00 0.37829521E+03</pdfrwt>
<pdfrwt beam="2">  1       21 0.21046173E-01 0.37829521E+03</pdfrwt>
<totfact> 0.37680329E+03</totfact>
</mgrwt>
</event>
<event>
 5    0  0.3120399E-003  0.3959475E+03  0.7546771E-02  0.1045192E+00
         21   -1    0    0  503  501  0.00000000000E+00  0.00000000000E+00  0.60850413142E+03  0.60850413142E+03  0.00000000000E+00 0.  1.
         21   -1    0    0  501  502 -0.00000000000E+00 -0.00000000000E+00 -0.26936776926E+03  0.26936776926E+03  0.00000000000E+00 0.  1.
         25    1    1    2    0    0 -0.24251213436E+03  0.25417997811E+03  0.26496122039E+03  0.45743747649E+03  0.12500000000E+03 0.  0.
         21    1    1    2  503  504  0.64202038051E+02  0.32607787233E+02 -0.92008390266E+01  0.72593559748E+02  0.00000000000E+00 0. -1.
         21    1    1    2  504  502  0.17831009631E+03 -0.28678776535E+03  0.83375980797E+02  0.34784086444E+03  0.00000000000E+00 0.  1.
<mgrwt>
<rscale>  4 0.39594749E+03</rscale>
<asrwt>0</asrwt>
<pdfrwt beam="1">  1       21 0.93616020E-01 0.39594749E+03</pdfrwt>
<pdfrwt beam="2">  1       21 0.41441195E-01 0.39594749E+03</pdfrwt>
<totfact> 0.48100224E+03</totfact>
</mgrwt>
</event>
<event>
 5    0  0.3120399E-003  0.3999997E+03  0.7546771E-02  0.1043780E+00
         21   -1    0    0  502  501  0.00000000000E+00  0.00000000000E+00  0.13756471473E+03  0.13756471473E+03  0.00000000000E+00 0.  1.
         21   -1    0    0  504  502 -0.00000000000E+00 -0.00000000000E+00 -0.18282994152E+04  0.18282994152E+04  0.00000000000E+00 0.  1.
         25    1    1    2    0    0 -0.25249543751E+02  0.34792805347E+03 -0.20065703820E+03  0.42140208452E+03  0.12500000000E+03 0.  0.
         21    1    1    2  503  501 -0.54793553526E+02 -0.30515795597E+03 -0.12479253840E+04  0.12858621527E+04  0.00000000000E+00 0.  1.
         21    1    1    2  504  503  0.80043097277E+02 -0.42770097502E+02 -0.24215227824E+03  0.25859989273E+03  0.00000000000E+00 0. -1.
<mgrwt>
<rscale>  4 0.39999967E+03</rscale>
<asrwt>0</asrwt>
<pdfrwt beam="1">  1       21 0.21163802E-01 0.39999967E+03</pdfrwt>
<pdfrwt beam="2">  1       21 0.28127684E+00 0.39999967E+03</pdfrwt>
<totfact> 0.75524166E+02</totfact>
</mgrwt>
</event>
<event>
 5    0  0.3120399E-003  0.3787304E+03  0.7546771E-02  0.1051404E+00
         21   -1    0    0  502  501  0.00000000000E+00  0.00000000000E+00  0.22378442208E+03  0.22378442208E+03  0.00000000000E+00 0.  1.
         21   -1    0    0  503  502 -0.00000000000E+00 -0.00000000000E+00 -0.66882754143E+03  0.66882754143E+03  0.00000000000E+00 0.  1.
         25    1    1    2    0    0  0.22532195048E+02  0.26652133955E+03 -0.14752818676E+03  0.33004679992E+03  0.12500000000E+03 0.  0.
         21    1    1    2  503  504  0.14474178501E+03 -0.27395065280E+03 -0.20047902613E+03  0.36904062705E+03  0.00000000000E+00 0.  1.
         21    1    1    2  504  501 -0.16727398006E+03  0.74293132560E+01 -0.97035906460E+02  0.19352453654E+03  0.00000000000E+00 0.  1.
<mgrwt>
<rscale>  4 0.37873039E+03</rscale>
<asrwt>0</asrwt>
<pdfrwt beam="1">  1       21 0.34428373E-01 0.37873039E+03</pdfrwt>
<pdfrwt beam="2">  1       21 0.10289654E+00 0.37873039E+03</pdfrwt>
<totfact> 0.56267049E+03</totfact>
</mgrwt>
</event>
<event>
 5    0  0.3120399E-003  0.5842738E+03  0.7546771E-02  0.9938581E-01
         21   -1    0    0  503  501  0.00000000000E+00  0.00000000000E+00  0.95426277720E+03  0.95426277720E+03  0.00000000000E+00 0. -1.
         21   -1    0    0  501  502 -0.00000000000E+00 -0.00000000000E+00 -0.37855791831E+03  0.37855791831E+03  0.00000000000E+00 0. -1.
         25    1    1    2    0    0 -0.26401557962E+03 -0.16350263549E+03 -0.56867035122E+02  0.33955293811E+03  0.12500000000E+03 0.  0.
         21    1    1    2  503  504  0.35952271365E+03  0.38220203986E+03  0.39746119347E+03  0.65826315499E+03  0.00000000000E+00 0.  1.
         21    1    1    2  504  502 -0.95507134036E+02 -0.21869940437E+03  0.23511070054E+03  0.33500460241E+03  0.00000000000E+00 0. -1.
<mgrwt>
<rscale>  4 0.58427379E+03</rscale>
<asrwt>0</asrwt>
<pdfrwt beam="1">  1       21 0.14680966E+00 0.58427379E+03</pdfrwt>
<pdfrwt beam="2">  1       21 0.58239680E-01 0.58427379E+03</pdfrwt>
<totfact> 0.69669619E+02</totfact>
</mgrwt>
</event>
<event>
 5    0  0.3120399E-003  0.4871953E+03  0.7546771E-02  0.1017176E+00
         21   -1    0    0  503  501  0.00000000000E+00  0.00000000000E+00  0.75745637097E+03  0.75745637097E+03  0.00000000000E+00 0.  1.
         21   -1    0    0  501  502 -0.00000000000E+00 -0.00000000000E+00 -0.33825148721E+03  0.33825148721E+03  0.00000000000E+00 0.  1.
         25    1    1    2    0    0 -0.24662577325E+03  0.11165710336E+03  0.23045705668E+03  0.37686474462E+03  0.12500000000E+03 0.  0.
         21    1    1    2  503  504  0.76237598457E+02 -0.36334138627E+03  0.18520702601E+03  0.41488646263E+03  0.00000000000E+00 0.  1.
         21    1    1    2  504  502  0.17038817480E+03  0.25168428290E+03  0.35408010727E+01  0.30395665093E+03  0.00000000000E+00 0.  1.
<mgrwt>
<rscale>  4 0.48719530E+03</rscale>
<asrwt>0</asrwt>
<pdfrwt beam="1">  1       21 0.11653175E+00 0.48719530E+03</pdfrwt>
<pdfrwt beam="2">  1       21 0.52038690E-01 0.48719530E+03</pdfrwt>
<totfact> 0.16837793E+03</totfact>
</mgrwt>
</event>
<event>
 5    0  0.3120399E-003  0.4472982E+03  0.7546771E-02  0.1028531E+00
         21   -1    0    0  503  501  0.00000000000E+00  0.00000000000E+00  0.19062724320E+03  0.19062724320E+03  0.00000000000E+00 0.  1.
         21   -1    0    0  501  502 -0.00000000000E+00 -0.00000000000E+00 -0.11763826130E+04  0.11763826130E+04  0.00000000000E+00 0.  1.
         25    1    1    2    0    0 -0.32081916168E+03  0.25280364873E+03 -0.23354407823E+03  0.48682898002E+03  0.12500000000E+03 0.  0.
         21    1    1    2  503  504  0.62559918649E+02  0.33826903946E+02 -0.12437269062E+03  0.14327096364E+03  0.00000000000E+00 0. -1.
         21    1    1    2  504  502  0.25825924303E+03 -0.28663055268E+03 -0.62783860092E+03  0.73690991250E+03  0.00000000000E+00 0.  1.
<mgrwt>
<rscale>  4 0.44729823E+03</rscale>
<asrwt>0</asrwt>
<pdfrwt beam="1">  1       21 0.29327269E-01 0.44729823E+03</pdfrwt>
<pdfrwt beam="2">  1       21 0.18098194E+00 0.44729823E+03</pdfrwt>
<totfact> 0.16927843E+03</totfact>
</mgrwt>
</event>
<event>
 5    0  0.3120399E-003  0.2589757E+03  0.7546771E-02  0.1107760E+00
         21   -1    0    0  504  501  0.00000000000E+00  0.00000000000E+00  0.52896130072E+03  0.52896130072E+03  0.00000000000E+00 0.  1.
         21   -1    0    0  501  502 -0.00000000000E+00 -0.00000000000E+00 -0.30855141300E+03  0.30855141300E+03  0.00000000000E+00 0.  1.
         25    1    1    2    0    0 -0.24182458838E+03 -0.66577035311E+02  0.40972757908E+03  0.49640036486E+03  0.12500000000E+03 0.  0.
         21    1    1    2  503  502  0.15226125599E+03  0.49855076944E+02 -0.19186921721E+03  0.24996562821E+03  0.00000000000E+00 0.  1.
         21    1    1    2  504  503  0.89563332392E+02  0.16721958367E+02  0.25515258561E+01  0.91146720649E+02  0.00000000000E+00 0. -1.
<mgrwt>
<rscale>  4 0.25897574E+03</rscale>
<asrwt>0</asrwt>
<pdfrwt beam="1">  1       21 0.81378662E-01 0.25897574E+03</pdfrwt>
<pdfrwt beam="2">  1       21 0.47469448E-01 0.25897574E+03</pdfrwt>
<totfact> 0.53673645E+03</totfact>
</mgrwt>
</event>
<event>
 5    0  0.3120399E-003  0.5689169E+03  0.7546771E-02  0.9972078E-01
         21   -1    0    0  503  501  0.00000000000E+00  0.00000000000E+00  0.11648406180E+04  0.11648406180E+04  0.00000000000E+00 0. -1.
         21   -1    0    0  501  502 -0.00000000000E+00 -0.00000000000E+00 -0.30094493464E+03  0.30094493464E+03  0.00000000000E+00 0. -1.
         25    1    1    2    0    0  0.25797340404E+03  0.29653588004E+03  0.42303154321E+03  0.59081680062E+03  0.12500000000E+03 0.  0.
         21    1    1    2  503  504  0.20614518046E+03 -0.92762999759E+02  0.24011288334E+03  0.32978023939E+03  0.00000000000E+00 0. -1.
         21    1    1    2  504  502 -0.46411858450E+03 -0.20377288028E+03  0.20075125686E+03  0.54518851267E+03  0.00000000000E+00 0. -1.
<mgrwt>
<rscale>  4 0.56891694E+03</rscale>
<asrwt>0</asrwt>
<pdfrwt beam="1">  1       21 0.17920625E+00 0.56891694E+03</pdfrwt>
<pdfrwt beam="2">  1       21 0.46299221E-01 0.56891694E+03</pdfrwt>
<totfact> 0.65335741E+02</totfact>
</mgrwt>
</event>
<event>
 5    0  0.3120399E-003  0.3068771E+03  0.7546771E-02  0.1081852E+00
         21   -1    0    0  502  501  0.00000000000E+00  0.00000000000E+00  0.40831031882E+03  0.40831031882E+03  0.00000000000E+00 0. -1.
         21   -1    0    0  504  502 -0.00000000000E+00 -0.00000000000E+00 -0.27422269420E+03  0.27422269420E+03  0.00000000000E+00 0. -1.
         25    1    1    2    0    0 -0.16022720646E+03 -0.16338651684E+03 -0.38295799844E+02  0.26355166450E+03  0.12500000000E+03 0.  0.
         21    1    1    2  503  501  0.23506363669E+03  0.64670517333E+02  0.16598943795E+03  0.29494013396E+03  0.00000000000E+00 0. -1.
         21    1    1    2  504  503 -0.74836430227E+02  0.98715999504E+02  0.63939865108E+01  0.12404121457E+03  0.00000000000E+00 0.  1.
<mgrwt>
<rscale>  4 0.30687706E+03</rscale>
<asrwt>0</asrwt>
<pdfrwt beam="1">  1       21 0.62816972E-01 0.30687706E+03</pdfrwt>
<pdfrwt beam="2">  1       21 0.42188107E-01 0.30687706E+03</pdfrwt>
<totfact> 0.11934745E+04</totfact>
</mgrwt>
</event>
<event>
 5    0  0.3120399E-003  0.4157930E+03  0.7546771E-02  0.1038444E+00
         21   -1    0    0  504  501  0.00000000000E+00  0.00000000000E+00  0.23491231720E+04  0.23491231720E+04  0.00000000000E+00 0.  1.
         21   -1    0    0  501  502 -0.00000000000E+00 -0.00000000000E+00 -0.79501134204E+02  0.79501134204E+02  0.00000000000E+00 0.  1.
         25    1    1    2    0    0 -0.91926201803E+02 -0.24261754977E+03  0.77447527167E+03  0.82628726752E+03  0.12500000000E+03 0.  0.
         21    1    1    2  503  502 -0.19201264659E+03  0.43985739058E+02  0.30761914600E+03  0.36528501293E+03  0.00000000000E+00 0.  1.
         21    1    1    2  504  503  0.28393884839E+03  0.19863181071E+03  0.11875276201E+04  0.12370520257E+04  0.00000000000E+00 0.  1.
<mgrwt>
<rscale>  4 0.41579303E+03</rscale>
<asrwt>0</asrwt>
<pdfrwt beam="1">  1       21 0.36140351E+00 0.41579303E+03</pdfrwt>
<pdfrwt beam="2">  1       21 0.12230946E-01 0.41579303E+03</pdfrwt>
<totfact> 0.68194083E+02</totfact>
</mgrwt>
</event>
<event>
 5    0  0.3120399E-003  0.4841231E+03  0.7546771E-02  0.1018008E+00
         21   -1    0    0  502  501  0.00000000000E+00  0.00000000000E+00  0.23254748475E+03  0.23254748475E+03  0.00000000000E+00 0. -1.
         21   -1    0    0  504  502 -0.00000000000E+00 -0.00000000000E+00 -0.10122920972E+04  0.10122920972E+04  0.00000000000E+00 0. -1.
         25    1    1    2    0    0 -0.35170886801E+03  0.49151596213E+02 -0.30739843022E+03  0.48603888955E+03  0.12500000000E+03 0.  0.
         21    1    1    2  503  501 -0.67120535131E+02  0.12370874128E+03 -0.10969027101E+03  0.17844039470E+03  0.00000000000E+00 0. -1.
         21    1    1    2  504  503  0.41882940314E+03 -0.17286033750E+03 -0.36265591123E+03  0.58036029772E+03  0.00000000000E+00 0. -1.
<mgrwt>
<rscale>  4 0.48412313E+03</rscale>
<asrwt>0</asrwt>
<pdfrwt beam="1">  1       21 0.35776537E-01 0.48412313E+03</pdfrwt>
<pdfrwt beam="2">  1       21 0.15573724E+00 0.48412313E+03</pdfrwt>
<totfact> 0.17155489E+03</totfact>
</mgrwt>
</event>
<event>
 5    0  0.3120399E-003  0.4510965E+03  0.7546771E-02  0.1027396E+00
         21   -1    0    0  503  501  0.00000000000E+00  0.00000000000E+00  0.22636804595E+03  0.22636804595E+03  0.00000000000E+00 0.  1.
         21   -1    0    0  501  502 -0.00000000000E+00 -0.00000000000E+00 -0.98173884021E+03  0.98173884021E+03  0.00000000000E+00 0.  1.
         25    1    1    2    0    0  0.25532620696E+03 -0.16821044109E+03 -0.26709412947E+03  0.42479465445E+03  0.12500000000E+03 0.  0.
         21    1    1    2  503  504  0.42447644322E+02 -0.11606144500E+03  0.24233461621E+02  0.12593380081E+03  0.00000000000E+00 0.  1.
         21    1    1    2  504  502 -0.29777385128E+03  0.28427188609E+03 -0.51251012642E+03  0.65737843090E+03  0.00000000000E+00 0. -1.
<mgrwt>
<rscale>  4 0.45109650E+03</rscale>
<asrwt>0</asrwt>
<pdfrwt beam="1">  1       21 0.34825853E-01 0.45109650E+03</pdfrwt>
<pdfrwt beam="2">  1       21 0.15103674E+00 0.45109650E+03</pdfrwt>
<totfact> 0.19959152E+03</totfact>
</mgrwt>
</event>
<event>
 5    0  0.3120399E-003  0.3086377E+03  0.7546771E-02  0.1081001E+00
         21   -1    0    0  502  501  0.00000000000E+00  0.00000000000E+00  0.21917651701E+03  0.21917651701E+03  0.00000000000E+00 0.  1.
         21   -1    0    0  503  502 -0.00000000000E+00 -0.00000000000E+00 -0.49916040384E+03  0.49916040384E+03  0.00000000000E+00 0.  1.
         25    1    1    2    0    0  0.15713311729E+03 -0.12840774849E+03 -0.17227793137E+03  0.29408170983E+03  0.12500000000E+03 0.  0.
         21    1    1    2  503  504 -0.21199854976E+03 -0.36193748903E+02 -0.12686488265E+03  0.24969595713E+03  0.00000000000E+00 0.  1.
         21    1    1    2  504  501  0.54865432473E+02  0.16460149740E+03  0.19158927191E+02  0.17455925388E+03  0.00000000000E+00 0.  1.
<mgrwt>
<rscale>  4 0.30863767E+03</rscale>
<asrwt>0</asrwt>
<pdfrwt beam="1">  1       21 0.33719465E-01 0.30863767E+03</pdfrwt>
<pdfrwt beam="2">  1       21 0.76793907E-01 0.30863767E+03</pdfrwt>
<totfact> 0.12002026E+04</totfact>
</mgrwt>
</event>
<event>
 5    0  0.3120399E-003  0.3106126E+03  0.7546771E-02  0.1080053E+00
         21   -1    0    0  502  501  0.00000000000E+00  0.00000000000E+00  0.20711719168E+03  0.20711719168E+03  0.00000000000E+00 0.  1.
         21   -1    0    0  503  502 -0.00000000000E+00 -0.00000000000E+00 -0.56320900359E+03  0.56320900359E+03  0.00000000000E+00 0.  1.
         25    1    1    2    0    0  0.15283696680E+03  0.18353276055E+03 -0.40555651557E+02  0.27260442676E+03  0.12500000000E+03 0.  0.
         21    1    1    2  503  504 -0.19969702580E+03 -0.21465506269E+03 -0.32817904770E+03  0.44006497861E+03  0.00000000000E+00 0. -1.
         21    1    1    2  504  501  0.46860059001E+02  0.31122302132E+02  0.12642887345E+02  0.57656789887E+02  0.00000000000E+00 0.  1.
<mgrwt>
<rscale>  4 0.31061263E+03</rscale>
<asrwt>0</asrwt>
<pdfrwt beam="1">  1       21 0.31864184E-01 0.31061263E+03</pdfrwt>
<pdfrwt beam="2">  1       21 0.86647538E-01 0.31061263E+03</pdfrwt>
<totfact> 0.10170311E+04</totfact>
</mgrwt>
</event>
<event>
 5    0  0.3120399E-003  0.3862904E+03  0.7546771E-02  0.1048633E+00
         21   -1    0    0  503  501  0.00000000000E+00  0.00000000000E+00  0.47514947599E+03  0.47514947599E+03  0.00000000000E+00 0.  1.
         21   -1    0    0  501  502 -0.00000000000E+00 -0.00000000000E+00 -0.33910355232E+03  0.33910355232E+03  0.00000000000E+00 0.  1.
         25    1    1    2    0    0 -0.73719788854E+02 -0.24849589560E+03  0.81356740328E+02  0.29904637867E+03  0.12500000000E+03 0.  0.
         21    1    1    2  503  504  0.14141068188E+03 -0.75311847886E+02  0.87887398032E+02  0.18273765380E+03  0.00000000000E+00 0.  1.
         21    1    1    2  504  502 -0.67690893026E+02  0.32380774348E+03 -0.33198214699E+02  0.33246899585E+03  0.00000000000E+00 0.  1.
<mgrwt>
<rscale>  4 0.38629038E+03</rscale>
<asrwt>0</asrwt>
<pdfrwt beam="1">  1       21 0.73099920E-01 0.38629038E+03</pdfrwt>
<pdfrwt beam="2">  1       21 0.52169777E-01 0.38629038E+03</pdfrwt>
<totfact> 0.52857951E+03</totfact>
</mgrwt>
</event>
<event>
 5    0  0.3120399E-003  0.2813554E+03  0.7546771E-02  0.1094951E+00
         21   -1    0    0  502  501  0.00000000000E+00  0.00000000000E+00  0.38849472172E+02  0.38849472172E+02  0.00000000000E+00 0.  1.
         21   -1    0    0  504  502 -0.00000000000E+00 -0.00000000000E+00 -0.22557500108E+04  0.22557500108E+04  0.00000000000E+00 0.  1.
         25    1    1    2    0    0  0.14562587230E+03 -0.18125639968E+03 -0.71738357805E+03  0.76441152213E+03  0.12500000000E+03 0.  0.
         21    1    1    2  503  501 -0.87945406925E+02  0.18475767709E+03 -0.71942588078E+03  0.74795948538E+03  0.00000000000E+00 0.  1.
         21    1    1    2  504  503 -0.57680465376E+02 -0.35012774113E+01 -0.78009107981E+03  0.78222847546E+03  0.00000000000E+00 0. -1.
<mgrwt>
<rscale>  4 0.28135538E+03</rscale>
<asrwt>0</asrwt>
<pdfrwt beam="1">  1       21 0.59768417E-02 0.28135538E+03</pdfrwt>
<pdfrwt beam="2">  1       21 0.34703847E+00 0.28135538E+03</pdfrwt>
<totfact> 0.32828755E+03</totfact>
</mgrwt>
</event>
<event>
 5    0  0.3120399E-003  0.3115839E+03  0.7546771E-02  0.1079589E+00
         21   -1    0    0  503  501  0.00000000000E+00  0.00000000000E+00  0.17723881756E+04  0.17723881756E+04  0.00000000000E+00 0. -1.
         21   -1    0    0  501  502 -0.00000000000E+00 -0.00000000000E+00 -0.73898770118E+02  0.73898770118E+02  0.00000000000E+00 0. -1.
         25    1    1    2    0    0 -0.25341373309E+03  0.12466393516E+03  0.68877158789E+03  0.75484496232E+03  0.12500000000E+03 0.  0.
         21    1    1    2  503  504  0.16844103707E+03 -0.14217951202E+03  0.97227428728E+03  0.99694768484E+03  0.00000000000E+00 0. -1.
         21    1    1    2  504  502  0.84972696021E+02  0.17515576860E+02  0.37443530349E+02  0.94494298595E+02  0.00000000000E+00 0. -1.
<mgrwt>
<rscale>  4 0.31158394E+03</rscale>
<asrwt>0</asrwt>
<pdfrwt beam="1">  1       21 0.27267507E+00 0.31158394E+03</pdfrwt>
<pdfrwt beam="2">  1       21 0.11369043E-01 0.31158394E+03</pdfrwt>
<totfact> 0.28477535E+03</totfact>
</mgrwt>
</event>
<event>
 5    0  0.3120399E-003  0.5444078E+03  0.7546771E-02  0.1002797E+00
         21   -1    0    0  504  501  0.00000000000E+00  0.00000000000E+00  0.43736877688E+03  0.43736877688E+03  0.00000000000E+00 0. -1.
         21   -1    0    0  501  502 -0.00000000000E+00 -0.00000000000E+00 -0.17279092060E+04  0.17279092060E+04  0.00000000000E+00 0. -1.
         25    1    1    2    0    0 -0.21736525026E+02  0.26392970607E+03 -0.42359866759E+02  0.29588971691E+03  0.12500000000E+03 0.  0.
         21    1    1    2  503  502  0.33009294603E+03 -0.32035085446E+03 -0.14333210426E+04  0.15053223024E+04  0.00000000000E+00 0.  1.
         21    1    1    2  504  503 -0.30835642101E+03  0.56421148391E+02  0.18514048027E+03  0.36406596353E+03  0.00000000000E+00 0. -1.
<mgrwt>
<rscale>  4 0.54440783E+03</rscale>
<asrwt>0</asrwt>
<pdfrwt beam="1">  1       21 0.67287504E-01 0.54440783E+03</pdfrwt>
<pdfrwt beam="2">  1       21 0.26583219E+00 0.54440783E+03</pdfrwt>
<totfact> 0.80176708E+01</totfact>
</mgrwt>
</event>
<event>
 5    0  0.3120399E-003  0.3344296E+03  0.7546771E-02  0.1069194E+00
         21   -1    0    0  503  501  0.00000000000E+00  0.00000000000E+00  0.76782952254E+02  0.76782952254E+02  0.00000000000E+00 0. -1.
         21   -1    0    0  501  502 -0.00000000000E+00 -0.00000000000E+00 -0.15005516894E+04  0.15005516894E+04  0.00000000000E+00 0. -1.
         25    1    1    2    0    0  0.25669360862E+03 -0.16033278981E+03 -0.65943818324E+03  0.73626213383E+03  0.12500000000E+03 0.  0.
         21    1    1    2  503  504 -0.53718366458E+02 -0.35878874395E+02 -0.19812807677E+03  0.20839311728E+03  0.00000000000E+00 0.  1.
         21    1    1    2  504  502 -0.20297524217E+03  0.19621166421E+03 -0.56620247709E+03  0.63267939050E+03  0.00000000000E+00 0. -1.
<mgrwt>
<rscale>  4 0.33442957E+03</rscale>
<asrwt>0</asrwt>
<pdfrwt beam="1">  1       21 0.11812762E-01 0.33442957E+03</pdfrwt>
<pdfrwt beam="2">  1       21 0.23085410E+00 0.33442957E+03</pdfrwt>
<totfact> 0.46874899E+03</totfact>
</mgrwt>
</event>
<event>
 5    0  0.3120399E-003  0.4566921E+03  0.7546771E-02  0.1025745E+00
         21   -1    0    0  504  501  0.00000000000E+00  0.00000000000E+00  0.31290160669E+03  0.31290160669E+03  0.00000000000E+00 0. -1.
         21   -1    0    0  501  502 -0.00000000000E+00 -0.00000000000E+00 -0.73865474310E+03  0.73865474310E+03  0.00000000000E+00 0. -1.
         25    1    1    2    0    0  0.24714192502E+03  0.81928188246E+02  0.10374744914E+03  0.30688742616E+03  0.12500000000E+03 0.  0.
         21    1    1    2  503  502  0.32105747714E+02  0.13995604552E+03 -0.26223853152E+03  0.29897745923E+03  0.00000000000E+00 0. -1.
         21    1    1    2  504  503 -0.27924767274E+03 -0.22188423376E+03 -0.26726205402E+03  0.44569146440E+03  0.00000000000E+00 0. -1.
<mgrwt>
<rscale>  4 0.45669207E+03</rscale>
<asrwt>0</asrwt>
<pdfrwt beam="1">  1       21 0.48138709E-01 0.45669207E+03</pdfrwt>
<pdfrwt beam="2">  1       21 0.11363919E+00 0.45669207E+03</pdfrwt>
<totfact> 0.21406979E+03</totfact>
</mgrwt>
</event>
<event>
 5    0  0.3120399E-003  0.5067927E+03  0.7546771E-02  0.1012021E+00
         21   -1    0    0  504  501  0.00000000000E+00  0.00000000000E+00  0.62065178632E+03  0.62065178632E+03  0.00000000000E+00 0. -1.
         21   -1    0    0  501  502 -0.00000000000E+00 -0.00000000000E+00 -0.46170826639E+03  0.46170826639E+03  0.00000000000E+00 0. -1.
         25    1    1    2    0    0  0.45368270678E+03  0.58233179365E+02 -0.66260875344E+02  0.47878450812E+03  0.12500000000E+03 0.  0.
         21    1    1    2  503  502 -0.61751405966E+02  0.10957465761E+03  0.10482842757E+02  0.12621304101E+03  0.00000000000E+00 0. -1.
         21    1    1    2  504  503 -0.39193130082E+03 -0.16780783697E+03  0.21472155251E+03  0.47736250358E+03  0.00000000000E+00 0. -1.
<mgrwt>
<rscale>  4 0.50679265E+03</rscale>
<asrwt>0</asrwt>
<pdfrwt beam="1">  1       21 0.95484891E-01 0.50679265E+03</pdfrwt>
<pdfrwt beam="2">  1       21 0.71032041E-01 0.50679265E+03</pdfrwt>
<totfact> 0.13772336E+03</totfact>
</mgrwt>
</event>
<event>
 5    0  0.3120399E-003  0.2685880E+03  0.7546771E-02  0.1102090E+00
         21   -1    0    0  502  501  0.00000000000E+00  0.00000000000E+00  0.75251619465E+03  0.75251619465E+03  0.00000000000E+00 0.  1.
         21   -1    0    0  504  502 -0.00000000000E+00 -0.00000000000E+00 -0.11365714654E+03  0.11365714654E+03  0.00000000000E+00 0.  1.
         25    1    1    2    0    0  0.71787665521E+02  0.20231332240E+03  0.41775660508E+03  0.48603470085E+03  0.12500000000E+03 0.  0.
         21    1    1    2  503  501 -0.12772942884E+03 -0.12353158178E+03  0.22092090733E+03  0.28351526587E+03  0.00000000000E+00 0.  1.
         21    1    1    2  504  503  0.55941763319E+02 -0.78781740625E+02  0.18153570791E+00  0.96623374472E+02  0.00000000000E+00 0.  1.
<mgrwt>
<rscale>  4 0.26858800E+03</rscale>
<asrwt>0</asrwt>
<pdfrwt beam="1">  1       21 0.11577172E+00 0.26858800E+03</pdfrwt>
<pdfrwt beam="2">  1       21 0.17485715E-01 0.26858800E+03</pdfrwt>
<totfact> 0.16354989E+04</totfact>
</mgrwt>
</event>
<event>
 5    0  0.3120399E-003  0.3289009E+03  0.7546771E-02  0.1071624E+00
         21   -1    0    0  504  501  0.00000000000E+00  0.00000000000E+00  0.47819050907E+03  0.47819050907E+03  0.00000000000E+00 0.  1.
         21   -1    0    0  501  502 -0.00000000000E+00 -0.00000000000E+00 -0.23231873750E+03  0.23231873750E+03  0.00000000000E+00 0.  1.
         25    1    1    2    0    0 -0.19342597979E+03 -0.57149105042E+02  0.13728020610E+02  0.23768274740E+03  0.12500000000E+03 0.  0.
         21    1    1    2  503  502  0.24867610331E+03  0.13530813682E+03  0.81950385907E+02  0.29472692784E+03  0.00000000000E+00 0.  1.
         21    1    1    2  504  503 -0.55250123523E+02 -0.78159031778E+02  0.15019336505E+03  0.17809957132E+03  0.00000000000E+00 0. -1.
<mgrwt>
<rscale>  4 0.32890087E+03</rscale>
<asrwt>0</asrwt>
<pdfrwt beam="1">  1       21 0.73567770E-01 0.32890087E+03</pdfrwt>
<pdfrwt beam="2">  1       21 0.35741344E-01 0.32890087E+03</pdfrwt>
<totfact> 0.11669044E+04</totfact>
</mgrwt>
</event>
<event>
 5    0  0.3120399E-003  0.4728247E+03  0.7546771E-02  0.1021126E+00
         21   -1    0    0  502  501  0.00000000000E+00  0.00000000000E+00  0.86641657985E+03  0.86641657985E+03  0.00000000000E+00 0.  1.
         21   -1    0    0  504  502 -0.00000000000E+00 -0.00000000000E+00 -0.27047650535E+03  0.27047650535E+03  0.00000000000E+00 0.  1.
         25    1    1    2    0    0 -0.12861959698E+03 -0.31265727433E+03  0.30959352728E+03  0.47515336898E+03  0.12500000000E+03 0.  0.
         21    1    1    2  503  501  0.21475910367E+03  0.35313639346E+03  0.35463171614E+03  0.54460117434E+03  0.00000000000E+00 0.  1.
         21    1    1    2  504  503 -0.86139506697E+02 -0.40479119131E+02 -0.68285168918E+02  0.11713854188E+03  0.00000000000E+00 0. -1.
<mgrwt>
<rscale>  4 0.47282469E+03</rscale>
<asrwt>0</asrwt>
<pdfrwt beam="1">  1       21 0.13329486E+00 0.47282469E+03</pdfrwt>
<pdfrwt beam="2">  1       21 0.41611770E-01 0.47282469E+03</pdfrwt>
<totfact> 0.19194874E+03</totfact>
</mgrwt>
</event>
<event>
 5    0  0.3120399E-003  0.7950933E+03  0.7546771E-02  0.9567147E-01
         21   -1    0    0  502  501  0.00000000000E+00  0.00000000000E+00  0.19882075000E+04  0.19882075000E+04  0.00000000000E+00 0. -1.
         21   -1    0    0  503  502 -0.00000000000E+00 -0.00000000000E+00 -0.35090400690E+03  0.35090400690E+03  0.00000000000E+00 0. -1.
         25    1    1    2    0    0  0.48789220005E+03 -0.13729385417E+03  0.33207624001E+03  0.61869865883E+03  0.12500000000E+03 0.  0.
         21    1    1    2  503  504 -0.77122551268E+03  0.57865330317E+02  0.11550120039E+04  0.13900323439E+04  0.00000000000E+00 0. -1.
         21    1    1    2  504  501  0.28333331263E+03  0.79428523853E+02  0.15021524917E+03  0.33038050416E+03  0.00000000000E+00 0. -1.
<mgrwt>
<rscale>  4 0.79509326E+03</rscale>
<asrwt>0</asrwt>
<pdfrwt beam="1">  1       21 0.30587807E+00 0.79509326E+03</pdfrwt>
<pdfrwt beam="2">  1       21 0.53985233E-01 0.79509326E+03</pdfrwt>
<totfact> 0.66717152E+01</totfact>
</mgrwt>
</event>
<event>
 5    0  0.3120399E-003  0.3385768E+03  0.7546771E-02  0.1067404E+00
         21   -1    0    0  502  501  0.00000000000E+00  0.00000000000E+00  0.14028391098E+03  0.14028391098E+03  0.00000000000E+00 0.  1.
         21   -1    0    0  504  502 -0.00000000000E+00 -0.00000000000E+00 -0.97458494600E+03  0.97458494600E+03  0.00000000000E+00 0.  1.
         25    1    1    2    0    0  0.60735310147E+02 -0.24849218416E+03 -0.10542291759E+03  0.30360522894E+03  0.12500000000E+03 0.  0.
         21    1    1    2  503  501 -0.14855910440E+03  0.21141781881E+03 -0.48756123655E+03  0.55180001903E+03  0.00000000000E+00 0.  1.
         21    1    1    2  504  503  0.87823794252E+02  0.37074365349E+02 -0.24131688088E+03  0.25946360901E+03  0.00000000000E+00 0. -1.
<mgrwt>
<rscale>  4 0.33857678E+03</rscale>
<asrwt>0</asrwt>
<pdfrwt beam="1">  1       21 0.21582141E-01 0.33857678E+03</pdfrwt>
<pdfrwt beam="2">  1       21 0.14993614E+00 0.33857678E+03</pdfrwt>
<totfact> 0.54634422E+03</totfact>
</mgrwt>
</event>
<event>
 5    0  0.3120399E-003  0.3249413E+03  0.7546771E-02  0.1073397E+00
         21   -1    0    0  503  501  0.00000000000E+00  0.00000000000E+00  0.43741842430E+03  0.43741842430E+03  0.00000000000E+00 0.  1.
         21   -1    0    0  501  502 -0.00000000000E+00 -0.00000000000E+00 -0.24760282757E+03  0.24760282757E+03  0.00000000000E+00 0.  1.
         25    1    1    2    0    0 -0.21500308596E+03 -0.11501599478E+03  0.82338154921E+02  0.28611112838E+03  0.12500000000E+03 0.  0.
         21    1    1    2  503  504  0.23803110371E+03  0.17937578091E+03  0.13242357472E+03  0.32614487617E+03  0.00000000000E+00 0.  1.
         21    1    1    2  504  502 -0.23028017746E+02 -0.64359786125E+02 -0.24946132901E+02  0.72765247324E+02  0.00000000000E+00 0. -1.
<mgrwt>
<rscale>  4 0.32494132E+03</rscale>
<asrwt>0</asrwt>
<pdfrwt beam="1">  1       21 0.67295142E-01 0.32494132E+03</pdfrwt>
<pdfrwt beam="2">  1       21 0.38092743E-01 0.32494132E+03</pdfrwt>
<totfact> 0.12540940E+04</totfact>
</mgrwt>
</event>
<event>
 5    0  0.3120399E-003  0.2746395E+03  0.7546771E-02  0.1098653E+00
         21   -1    0    0  503  501  0.00000000000E+00  0.00000000000E+00  0.74845582682E+03  0.74845582682E+03  0.00000000000E+00 0.  1.
         21   -1    0    0  501  502 -0.00000000000E+00 -0.00000000000E+00 -0.10430212014E+03  0.10430212014E+03  0.00000000000E+00 0.  1.
         25    1    1    2    0    0  0.21751428317E+03 -0.44400734792E+02  0.34724171615E+03  0.43068050579E+03  0.12500000000E+03 0.  0.
         21    1    1    2  503  504 -0.22716673894E+03 -0.20014893848E+02  0.26478121062E+03  0.34944872693E+03  0.00000000000E+00 0.  1.
         21    1    1    2  504  502  0.96524557692E+01  0.64415628640E+02  0.32130779911E+02  0.72628714247E+02  0.00000000000E+00 0. -1.
<mgrwt>
<rscale>  4 0.27463949E+03</rscale>
<asrwt>0</asrwt>
<pdfrwt beam="1">  1       21 0.11514705E+00 0.27463949E+03</pdfrwt>
<pdfrwt beam="2">  1       21 0.16046480E-01 0.27463949E+03</pdfrwt>
<totfact> 0.19376598E+04</totfact>
</mgrwt>
</event>
<event>
 5    0  0.3120399E-003  0.2368415E+03  0.7546771E-02  0.1121915E+00
         21   -1    0    0  504  501  0.00000000000E+00  0.00000000000E+00  0.10779652644E+03  0.10779652644E+03  0.00000000000E+00 0. -1.
         21   -1    0    0  501  502 -0.00000000000E+00 -0.00000000000E+00 -0.90986544545E+03  0.90986544545E+03  0.00000000000E+00 0. -1.
         25    1    1    2    0    0 -0.45963115841E+02  0.23829792128E+03 -0.40382812243E+03  0.48744298105E+03  0.12500000000E+03 0.  0.
         21    1    1    2  503  502  0.66171264298E+02 -0.10437753478E+03 -0.37235837633E+03  0.39233157713E+03  0.00000000000E+00 0. -1.
         21    1    1    2  504  503 -0.20208148458E+02 -0.13392038650E+03 -0.25882420247E+02  0.13788741372E+03  0.00000000000E+00 0. -1.
<mgrwt>
<rscale>  4 0.23684149E+03</rscale>
<asrwt>0</asrwt>
<pdfrwt beam="1">  1       21 0.16584080E-01 0.23684149E+03</pdfrwt>
<pdfrwt beam="2">  1       21 0.13997930E+00 0.23684149E+03</pdfrwt>
<totfact> 0.11342016E+04</totfact>
</mgrwt>
</event>
<event>
 5    0  0.3120399E-003  0.5400104E+03  0.7546771E-02  0.1003833E+00
         21   -1    0    0  502  501  0.00000000000E+00  0.00000000000E+00  0.11811764036E+04  0.11811764036E+04  0.00000000000E+00 0.  1.
         21   -1    0    0  504  502 -0.00000000000E+00 -0.00000000000E+00 -0.26667423223E+03  0.26667423223E+03  0.00000000000E+00 0.  1.
         25    1    1    2    0    0  0.34493316420E+03 -0.10760210251E+02  0.51650170777E+03  0.63363529259E+03  0.12500000000E+03 0.  0.
         21    1    1    2  503  501  0.17846126988E+03  0.28248382874E+02  0.14972269402E+03  0.23465566494E+03  0.00000000000E+00 0.  1.
         21    1    1    2  504  503 -0.52339443409E+03 -0.17488172623E+02  0.24827776953E+03  0.57955967825E+03  0.00000000000E+00 0.  1.
<mgrwt>
<rscale>  4 0.54001039E+03</rscale>
<asrwt>0</asrwt>
<pdfrwt beam="1">  1       21 0.18171944E+00 0.54001039E+03</pdfrwt>
<pdfrwt beam="2">  1       21 0.41026806E-01 0.54001039E+03</pdfrwt>
<totfact> 0.81645312E+02</totfact>
</mgrwt>
</event>
<event>
 5    0  0.9248467E-003  0.3430793E+03  0.7546771E-02  0.1065492E+00
         21   -1    0    0  502  501  0.00000000000E+00  0.00000000000E+00  0.68638545175E+03  0.68638545175E+03  0.00000000000E+00 0. -1.
         21   -1    0    0  503  502 -0.00000000000E+00 -0.00000000000E+00 -0.24192665757E+03  0.24192665757E+03  0.00000000000E+00 0. -1.
         25    1    1    2    0    0 -0.77038264262E+02  0.19988615716E+03  0.19642173394E+03  0.31637930961E+03  0.12500000000E+03 0.  0.
         21    1    1    2  503  504  0.23267610858E+03 -0.14093919623E+03 -0.44227430821E+02  0.27560496036E+03  0.00000000000E+00 0.  1.
         21    1    1    2  504  501 -0.15563784432E+03 -0.58946960932E+02  0.29226449106E+03  0.33632783935E+03  0.00000000000E+00 0.  1.
<mgrwt>
<rscale>  4 0.34307933E+03</rscale>
<asrwt>0</asrwt>
<pdfrwt beam="1">  1       21 0.10559776E+00 0.34307933E+03</pdfrwt>
<pdfrwt beam="2">  1       21 0.37219486E-01 0.34307933E+03</pdfrwt>
<totfact> 0.45805685E+03</totfact>
</mgrwt>
</event>
<event>
 5    0  0.3120399E-003  0.6258334E+03  0.7546771E-02  0.9853214E-01
         21   -1    0    0  504  501  0.00000000000E+00  0.00000000000E+00  0.23496063049E+04  0.23496063049E+04  0.00000000000E+00 0.  1.
         21   -1    0    0  501  502 -0.00000000000E+00 -0.00000000000E+00 -0.17118593010E+03  0.17118593010E+03  0.00000000000E+00 0.  1.
         25    1    1    2    0    0  0.59488141421E+03  0.14289423471E+03  0.11604045925E+04  0.13177505370E+04  0.12500000000E+03 0.  0.
         21    1    1    2  503  502 -0.40994607713E+02 -0.56063049257E+02  0.19679358234E+03  0.20868957186E+03  0.00000000000E+00 0. -1.
         21    1    1    2  504  503 -0.55388680649E+03 -0.86831185455E+02  0.82122219991E+03  0.99435212616E+03  0.00000000000E+00 0.  1.
<mgrwt>
<rscale>  4 0.62583340E+03</rscale>
<asrwt>0</asrwt>
<pdfrwt beam="1">  1       21 0.36147787E+00 0.62583340E+03</pdfrwt>
<pdfrwt beam="2">  1       21 0.26336299E-01 0.62583340E+03</pdfrwt>
<totfact> 0.14242814E+02</totfact>
</mgrwt>
</event>
<event>
 5    0  0.3120399E-003  0.4185764E+03  0.7546771E-02  0.1037531E+00
         21   -1    0    0  503  501  0.00000000000E+00  0.00000000000E+00  0.39386274413E+03  0.39386274413E+03  0.00000000000E+00 0. -1.
         21   -1    0    0  501  502 -0.00000000000E+00 -0.00000000000E+00 -0.52073345612E+03  0.52073345612E+03  0.00000000000E+00 0. -1.
         25    1    1    2    0    0 -0.25226708341E+03  0.26407122033E+03  0.49933942877E+01  0.38603396841E+03  0.12500000000E+03 0.  0.
         21    1    1    2  503  504  0.29996982122E+03 -0.12175097639E+03 -0.18065327090E+03  0.37073008804E+03  0.00000000000E+00 0. -1.
         21    1    1    2  504  502 -0.47702737810E+02 -0.14232024394E+03  0.48789164615E+02  0.15783214380E+03  0.00000000000E+00 0. -1.
<mgrwt>
<rscale>  4 0.41857639E+03</rscale>
<asrwt>0</asrwt>
<pdfrwt beam="1">  1       21 0.60594269E-01 0.41857639E+03</pdfrwt>
<pdfrwt beam="2">  1       21 0.80112839E-01 0.41857639E+03</pdfrwt>
<totfact> 0.30640589E+03</totfact>
</mgrwt>
</event>
<event>
 5    0  0.3120399E-003  0.4164891E+03  0.7546771E-02  0.1038215E+00
         21   -1    0    0  504  501  0.00000000000E+00  0.00000000000E+00  0.44623775450E+03  0.44623775450E+03  0.00000000000E+00 0. -1.
         21   -1    0    0  501  502 -0.00000000000E+00 -0.00000000000E+00 -0.45355407674E+03  0.45355407674E+03  0.00000000000E+00 0. -1.
         25    1    1    2    0    0  0.23250913554E+03 -0.22302413450E+02  0.42945770333E+02  0.26837890182E+03  0.12500000000E+03 0.  0.
         21    1    1    2  503  502 -0.21312194700E+03  0.26425916442E+03 -0.14721366672E+03  0.37003477396E+03  0.00000000000E+00 0.  1.
         21    1    1    2  504  503 -0.19387188544E+02 -0.24195675097E+03  0.96951574144E+02  0.26137815545E+03  0.00000000000E+00 0. -1.
<mgrwt>
<rscale>  4 0.41648911E+03</rscale>
<asrwt>0</asrwt>
<pdfrwt beam="1">  1       21 0.68651963E-01 0.41648911E+03</pdfrwt>
<pdfrwt beam="2">  1       21 0.69777550E-01 0.41648911E+03</pdfrwt>
<totfact> 0.31845018E+03</totfact>
</mgrwt>
</event>
<event>
 5    0  0.3120399E-003  0.5492070E+03  0.7546771E-02  0.1001678E+00
         21   -1    0    0  503  501  0.00000000000E+00  0.00000000000E+00  0.34511354483E+03  0.34511354483E+03  0.00000000000E+00 0.  1.
         21   -1    0    0  501  502 -0.00000000000E+00 -0.00000000000E+00 -0.89121696472E+03  0.89121696472E+03  0.00000000000E+00 0.  1.
         25    1    1    2    0    0  0.35383991597E+03  0.77509198552E+01 -0.21357418566E+03  0.43185842087E+03  0.12500000000E+03 0.  0.
         21    1    1    2  503  504 -0.51160427147E+03 -0.99935508581E+02 -0.33869866143E+03  0.62164525231E+03  0.00000000000E+00 0.  1.
         21    1    1    2  504  502  0.15776435550E+03  0.92184588726E+02  0.61694271937E+01  0.18282683637E+03  0.00000000000E+00 0. -1.
<mgrwt>
<rscale>  4 0.54920700E+03</rscale>
<asrwt>0</asrwt>
<pdfrwt beam="1">  1       21 0.53094391E-01 0.54920700E+03</pdfrwt>
<pdfrwt beam="2">  1       21 0.13711030E+00 0.54920700E+03</pdfrwt>
<totfact> 0.10362391E+03</totfact>
</mgrwt>
</event>
<event>
 5    0  0.3120399E-003  0.3507023E+03  0.7546771E-02  0.1062327E+00
         21   -1    0    0  503  501  0.00000000000E+00  0.00000000000E+00  0.32310969270E+03  0.32310969270E+03  0.00000000000E+00 0.  1.
         21   -1    0    0  501  502 -0.00000000000E+00 -0.00000000000E+00 -0.57783319239E+03  0.57783319239E+03  0.00000000000E+00 0.  1.
         25    1    1    2    0    0 -0.20166069938E+03  0.14586682257E+03  0.81777949558E+02  0.29027022003E+03  0.12500000000E+03 0.  0.
         21    1    1    2  503  504  0.27794280494E+03 -0.29909899791E+01 -0.35137812386E+03  0.44802648891E+03  0.00000000000E+00 0.  1.
         21    1    1    2  504  502 -0.76282105560E+02 -0.14287583259E+03  0.14876674612E+02  0.16264617615E+03  0.00000000000E+00 0.  1.
<mgrwt>
<rscale>  4 0.35070225E+03</rscale>
<asrwt>0</asrwt>
<pdfrwt beam="1">  1       21 0.49709185E-01 0.35070225E+03</pdfrwt>
<pdfrwt beam="2">  1       21 0.88897412E-01 0.35070225E+03</pdfrwt>
<totfact> 0.37876166E+03</totfact>
</mgrwt>
</event>
<event>
 5    0  0.3120399E-003  0.2445871E+03  0.7546771E-02  0.1116774E+00
         21   -1    0    0  504  501  0.00000000000E+00  0.00000000000E+00  0.93788970143E+03  0.93788970143E+03  0.00000000000E+00 0. -1.
         21   -1    0    0  501  502 -0.00000000000E+00 -0.00000000000E+00 -0.51840638702E+03  0.51840638702E+03  0.00000000000E+00 0. -1.
         25    1    1    2    0    0 -0.23473447453E+03 -0.83284210334E+02  0.80754829782E+03  0.85428085928E+03  0.12500000000E+03 0.  0.
         21    1    1    2  503  502  0.10640871856E+03  0.55246550792E+02 -0.44351706444E+03  0.45943702856E+03  0.00000000000E+00 0.  1.
         21    1    1    2  504  503  0.12832575597E+03  0.28037659542E+02  0.55452081025E+02  0.14257820060E+03  0.00000000000E+00 0. -1.
<mgrwt>
<rscale>  4 0.24458713E+03</rscale>
<asrwt>0</asrwt>
<pdfrwt beam="1">  1       21 0.14429072E+00 0.24458713E+03</pdfrwt>
<pdfrwt beam="2">  1       21 0.79754829E-01 0.24458713E+03</pdfrwt>
<totfact> 0.43417660E+02</totfact>
</mgrwt>
</event>
<event>
 5    0  0.3120399E-003  0.5556694E+03  0.7546771E-02  0.1000190E+00
         21   -1    0    0  502  501  0.00000000000E+00  0.00000000000E+00  0.80257880886E+02  0.80257880886E+02  0.00000000000E+00 0. -1.
         21   -1    0    0  504  502 -0.00000000000E+00 -0.00000000000E+00 -0.39101671203E+04  0.39101671203E+04  0.00000000000E+00 0. -1.
         25    1    1    2    0    0  0.44171932682E+03 -0.11726660974E+03 -0.19065373229E+04  0.19645297109E+04  0.12500000000E+03 0.  0.
         21    1    1    2  503  501 -0.42132852455E+03  0.25393603353E+03 -0.16083123412E+04  0.16818649832E+04  0.00000000000E+00 0. -1.
         21    1    1    2  504  503 -0.20390802267E+02 -0.13666942379E+03 -0.31505957528E+03  0.34403030709E+03  0.00000000000E+00 0. -1.
<mgrwt>
<rscale>  4 0.55566940E+03</rscale>
<asrwt>0</asrwt>
<pdfrwt beam="1">  1       21 0.12347366E-01 0.55566940E+03</pdfrwt>
<pdfrwt beam="2">  1       21 0.60156418E+00 0.55566940E+03</pdfrwt>
<totfact> 0.12740518E+01</totfact>
</mgrwt>
</event>
<event>
 5    0  0.3120399E-003  0.3485360E+03  0.7546771E-02  0.1063218E+00
         21   -1    0    0  504  501  0.00000000000E+00  0.00000000000E+00  0.14438450080E+03  0.14438450080E+03  0.00000000000E+00 0. -1.
         21   -1    0    0  501  502 -0.00000000000E+00 -0.00000000000E+00 -0.11367883650E+04  0.11367883650E+04  0.00000000000E+00 0. -1.
         25    1    1    2    0    0  0.17492003489E+03  0.15330638781E+03 -0.66494162307E+03  0.71545246469E+03  0.12500000000E+03 0.  0.
         21    1    1    2  503  502 -0.70302787238E+02  0.12066536983E+03 -0.20469176466E+03  0.24779292139E+03  0.00000000000E+00 0. -1.
         21    1    1    2  504  503 -0.10461724765E+03 -0.27397175763E+03 -0.12277047651E+03  0.31792747976E+03  0.00000000000E+00 0.  1.
<mgrwt>
<rscale>  4 0.34853597E+03</rscale>
<asrwt>0</asrwt>
<pdfrwt beam="1">  1       21 0.22213000E-01 0.34853597E+03</pdfrwt>
<pdfrwt beam="2">  1       21 0.17489052E+00 0.34853597E+03</pdfrwt>
<totfact> 0.33597470E+03</totfact>
</mgrwt>
</event>
<event>
 5    0  0.3120399E-003  0.2913945E+03  0.7546771E-02  0.1089623E+00
         21   -1    0    0  503  501  0.00000000000E+00  0.00000000000E+00  0.12711888267E+03  0.12711888267E+03  0.00000000000E+00 0.  1.
         21   -1    0    0  501  502 -0.00000000000E+00 -0.00000000000E+00 -0.75240473305E+03  0.75240473305E+03  0.00000000000E+00 0.  1.
         25    1    1    2    0    0 -0.80371802482E+02  0.22857285981E+03 -0.37594742081E+03  0.46439922705E+03  0.12500000000E+03 0.  0.
         21    1    1    2  503  504  0.24766394424E+02 -0.21192879222E+02  0.42033025535E+02  0.53191048665E+02  0.00000000000E+00 0.  1.
         21    1    1    2  504  502  0.55605408058E+02 -0.20737998059E+03 -0.29137145511E+03  0.36193334000E+03  0.00000000000E+00 0.  1.
<mgrwt>
<rscale>  4 0.29139446E+03</rscale>
<asrwt>0</asrwt>
<pdfrwt beam="1">  1       21 0.19556751E-01 0.29139446E+03</pdfrwt>
<pdfrwt beam="2">  1       21 0.11575457E+00 0.29139446E+03</pdfrwt>
<totfact> 0.13127540E+04</totfact>
</mgrwt>
</event>
<event>
 5    0  0.3120399E-003  0.2170267E+03  0.7546771E-02  0.1136119E+00
         21   -1    0    0  504  501  0.00000000000E+00  0.00000000000E+00  0.39534562258E+03  0.39534562258E+03  0.00000000000E+00 0. -1.
         21   -1    0    0  501  502 -0.00000000000E+00 -0.00000000000E+00 -0.15955043945E+03  0.15955043945E+03  0.00000000000E+00 0. -1.
         25    1    1    2    0    0  0.20349982737E+03  0.46006247621E+02  0.56170051085E+02  0.24961736558E+03  0.12500000000E+03 0.  0.
         21    1    1    2  503  502 -0.58430881689E+02 -0.55174402703E+02  0.85940518402E+01  0.80822276481E+02  0.00000000000E+00 0.  1.
         21    1    1    2  504  503 -0.14506894568E+03  0.91681550826E+01  0.17103108020E+03  0.22445641997E+03  0.00000000000E+00 0. -1.
<mgrwt>
<rscale>  4 0.21702670E+03</rscale>
<asrwt>0</asrwt>
<pdfrwt beam="1">  1       21 0.60822403E-01 0.21702670E+03</pdfrwt>
<pdfrwt beam="2">  1       21 0.24546222E-01 0.21702670E+03</pdfrwt>
<totfact> 0.38984828E+04</totfact>
</mgrwt>
</event>
<event>
 5    0  0.3120399E-003  0.3483089E+03  0.7546771E-02  0.1063311E+00
         21   -1    0    0  502  501  0.00000000000E+00  0.00000000000E+00  0.27619018038E+03  0.27619018038E+03  0.00000000000E+00 0.  1.
         21   -1    0    0  504  502 -0.00000000000E+00 -0.00000000000E+00 -0.52474708595E+03  0.52474708595E+03  0.00000000000E+00 0.  1.
         25    1    1    2    0    0  0.22364500609E+03  0.12174884395E+03 -0.31269288046E+02  0.28538156585E+03  0.12500000000E+03 0.  0.
         21    1    1    2  503  501  0.56746699422E+02  0.39726738375E+02  0.58297157265E+02  0.90537065241E+02  0.00000000000E+00 0.  1.
         21    1    1    2  504  503 -0.28039170551E+03 -0.16147558233E+03 -0.27558477478E+03  0.42501863524E+03  0.00000000000E+00 0. -1.
<mgrwt>
<rscale>  4 0.34830887E+03</rscale>
<asrwt>0</asrwt>
<pdfrwt beam="1">  1       21 0.42490797E-01 0.34830887E+03</pdfrwt>
<pdfrwt beam="2">  1       21 0.80730321E-01 0.34830887E+03</pdfrwt>
<totfact> 0.65831817E+03</totfact>
</mgrwt>
</event>
<event>
 5    0  0.3120399E-003  0.3248974E+03  0.7546771E-02  0.1073417E+00
         21   -1    0    0  503  501  0.00000000000E+00  0.00000000000E+00  0.12521680254E+03  0.12521680254E+03  0.00000000000E+00 0.  1.
         21   -1    0    0  501  502 -0.00000000000E+00 -0.00000000000E+00 -0.16558737949E+04  0.16558737949E+04  0.00000000000E+00 0.  1.
         25    1    1    2    0    0  0.36730972126E+02 -0.29909681433E+03 -0.33980002890E+03  0.47105958041E+03  0.12500000000E+03 0.  0.
         21    1    1    2  503  504 -0.11763902745E+03  0.10049800471E+03 -0.71724992145E+02  0.17053816062E+03  0.00000000000E+00 0.  1.
         21    1    1    2  504  502  0.80908055323E+02  0.19859880962E+03 -0.11191319713E+04  0.11394928564E+04  0.00000000000E+00 0.  1.
<mgrwt>
<rscale>  4 0.32489739E+03</rscale>
<asrwt>0</asrwt>
<pdfrwt beam="1">  1       21 0.19264125E-01 0.32489739E+03</pdfrwt>
<pdfrwt beam="2">  1       21 0.25474980E+00 0.32489739E+03</pdfrwt>
<totfact> 0.13677846E+03</totfact>
</mgrwt>
</event>
<event>
 5    0  0.3120399E-003  0.2721879E+03  0.7546771E-02  0.1100034E+00
         21   -1    0    0  503  501  0.00000000000E+00  0.00000000000E+00  0.83496017139E+03  0.83496017139E+03  0.00000000000E+00 0. -1.
         21   -1    0    0  501  502 -0.00000000000E+00 -0.00000000000E+00 -0.94421131823E+02  0.94421131823E+02  0.00000000000E+00 0. -1.
         25    1    1    2    0    0 -0.16418351869E+03  0.15824811177E+03  0.35463841737E+03  0.43976368628E+03  0.12500000000E+03 0.  0.
         21    1    1    2  503  504 -0.25642102430E+02 -0.17568719458E+02  0.15909789775E+03  0.16210588635E+03  0.00000000000E+00 0.  1.
         21    1    1    2  504  502  0.18982562112E+03 -0.14067939231E+03  0.22680272444E+03  0.32751173058E+03  0.00000000000E+00 0. -1.
<mgrwt>
<rscale>  4 0.27218788E+03</rscale>
<asrwt>0</asrwt>
<pdfrwt beam="1">  1       21 0.12845541E+00 0.27218788E+03</pdfrwt>
<pdfrwt beam="2">  1       21 0.14526329E-01 0.27218788E+03</pdfrwt>
<totfact> 0.17699690E+04</totfact>
</mgrwt>
</event>
<event>
 5    0  0.3120399E-003  0.4009914E+03  0.7546771E-02  0.1043437E+00
         21   -1    0    0  503  501  0.00000000000E+00  0.00000000000E+00  0.57601535758E+03  0.57601535758E+03  0.00000000000E+00 0. -1.
         21   -1    0    0  501  502 -0.00000000000E+00 -0.00000000000E+00 -0.30798838495E+03  0.30798838495E+03  0.00000000000E+00 0. -1.
         25    1    1    2    0    0  0.29964982638E+03  0.31517801028E+02  0.29742693223E+03  0.44144214824E+03  0.12500000000E+03 0.  0.
         21    1    1    2  503  504  0.49105239646E+02 -0.72852662643E+02 -0.24974659257E+02  0.91337662658E+02  0.00000000000E+00 0.  1.
         21    1    1    2  504  502 -0.34875506603E+03  0.41334861615E+02 -0.44253003317E+01  0.35122393163E+03  0.00000000000E+00 0. -1.
<mgrwt>
<rscale>  4 0.40099145E+03</rscale>
<asrwt>0</asrwt>
<pdfrwt beam="1">  1       21 0.88617747E-01 0.40099145E+03</pdfrwt>
<pdfrwt beam="2">  1       21 0.47382829E-01 0.40099145E+03</pdfrwt>
<totfact> 0.41342594E+03</totfact>
</mgrwt>
</event>
<event>
 5    0  0.3120399E-003  0.3773525E+03  0.7546771E-02  0.1051917E+00
         21   -1    0    0  502  501  0.00000000000E+00  0.00000000000E+00  0.36997339536E+03  0.36997339536E+03  0.00000000000E+00 0.  1.
         21   -1    0    0  504  502 -0.00000000000E+00 -0.00000000000E+00 -0.40494967610E+03  0.40494967610E+03  0.00000000000E+00 0.  1.
         25    1    1    2    0    0 -0.14403495604E+03  0.16877581401E+03 -0.11886043476E+03  0.28104118365E+03  0.12500000000E+03 0.  0.
         21    1    1    2  503  501 -0.14866167677E+03 -0.91329469323E+02  0.77843594110E+02  0.19105232595E+03  0.00000000000E+00 0.  1.
         21    1    1    2  504  503  0.29269663281E+03 -0.77446344692E+02  0.60405599109E+01  0.30282956185E+03  0.00000000000E+00 0.  1.
<mgrwt>
<rscale>  4 0.37735252E+03</rscale>
<asrwt>0</asrwt>
<pdfrwt beam="1">  1       21 0.56918984E-01 0.37735252E+03</pdfrwt>
<pdfrwt beam="2">  1       21 0.62299951E-01 0.37735252E+03</pdfrwt>
<totfact> 0.62817344E+03</totfact>
</mgrwt>
</event>
<event>
 5    0  0.3120399E-003  0.2675353E+03  0.7546771E-02  0.1102699E+00
         21   -1    0    0  502  501  0.00000000000E+00  0.00000000000E+00  0.41243553784E+03  0.41243553784E+03  0.00000000000E+00 0. -1.
         21   -1    0    0  503  502 -0.00000000000E+00 -0.00000000000E+00 -0.21055077316E+03  0.21055077316E+03  0.00000000000E+00 0. -1.
         25    1    1    2    0    0 -0.19468893995E+03 -0.10821121497E+03  0.23996588196E+03  0.35045980496E+03  0.12500000000E+03 0.  0.
         21    1    1    2  503  504  0.74732644150E+02 -0.21338965967E+02 -0.54922166005E+02  0.95167031523E+02  0.00000000000E+00 0. -1.
         21    1    1    2  504  501  0.11995629580E+03  0.12955018093E+03  0.16841048715E+02  0.17735947452E+03  0.00000000000E+00 0. -1.
<mgrwt>
<rscale>  4 0.26753526E+03</rscale>
<asrwt>0</asrwt>
<pdfrwt beam="1">  1       21 0.63451621E-01 0.26753526E+03</pdfrwt>
<pdfrwt beam="2">  1       21 0.32392427E-01 0.26753526E+03</pdfrwt>
<totfact> 0.20246910E+04</totfact>
</mgrwt>
</event>
<event>
 5    0  0.3120399E-003  0.5297885E+03  0.7546771E-02  0.1006283E+00
         21   -1    0    0  503  501  0.00000000000E+00  0.00000000000E+00  0.10923302248E+03  0.10923302248E+03  0.00000000000E+00 0.  1.
         21   -1    0    0  501  502 -0.00000000000E+00 -0.00000000000E+00 -0.26578825178E+04  0.26578825178E+04  0.00000000000E+00 0.  1.
         25    1    1    2    0    0  0.37454411050E+03 -0.83870938819E+02 -0.84632525905E+03  0.93766148966E+03  0.12500000000E+03 0.  0.
         21    1    1    2  503  504 -0.35408311518E+03  0.27982406220E+03 -0.94983145627E+03  0.10515969539E+04  0.00000000000E+00 0.  1.
         21    1    1    2  504  502 -0.20460995324E+02 -0.19595312338E+03 -0.75249278005E+03  0.77785709672E+03  0.00000000000E+00 0.  1.
<mgrwt>
<rscale>  4 0.52978851E+03</rscale>
<asrwt>0</asrwt>
<pdfrwt beam="1">  1       21 0.16805080E-01 0.52978851E+03</pdfrwt>
<pdfrwt beam="2">  1       21 0.40890501E+00 0.52978851E+03</pdfrwt>
<totfact> 0.17684339E+02</totfact>
</mgrwt>
</event>
<event>
 5    0  0.3120399E-003  0.4241423E+03  0.7546771E-02  0.1035727E+00
         21   -1    0    0  504  501  0.00000000000E+00  0.00000000000E+00  0.18063667721E+04  0.18063667721E+04  0.00000000000E+00 0.  1.
         21   -1    0    0  501  502 -0.00000000000E+00 -0.00000000000E+00 -0.14127727206E+03  0.14127727206E+03  0.00000000000E+00 0.  1.
         25    1    1    2    0    0 -0.12102579761E+03 -0.16953281191E+03  0.54661614484E+03  0.59816622088E+03  0.12500000000E+03 0.  0.
         21    1    1    2  503  502  0.32175008939E+03 -0.27613232003E+02  0.17993975609E+03  0.36968084400E+03  0.00000000000E+00 0.  1.
         21    1    1    2  504  503 -0.20072429178E+03  0.19714604391E+03  0.93853359914E+03  0.97979697930E+03  0.00000000000E+00 0.  1.
<mgrwt>
<rscale>  4 0.42414231E+03</rscale>
<asrwt>0</asrwt>
<pdfrwt beam="1">  1       21 0.27790256E+00 0.42414231E+03</pdfrwt>
<pdfrwt beam="2">  1       21 0.21734966E-01 0.42414231E+03</pdfrwt>
<totfact> 0.74138087E+02</totfact>
</mgrwt>
</event>
<event>
 5    0  0.3120399E-003  0.5449147E+03  0.7546771E-02  0.1002678E+00
         21   -1    0    0  503  501  0.00000000000E+00  0.00000000000E+00  0.10304814408E+04  0.10304814408E+04  0.00000000000E+00 0.  1.
         21   -1    0    0  501  502 -0.00000000000E+00 -0.00000000000E+00 -0.31281081907E+03  0.31281081907E+03  0.00000000000E+00 0.  1.
         25    1    1    2    0    0 -0.29832465860E+03  0.38207518027E+03  0.22639285481E+03  0.54941584435E+03  0.12500000000E+03 0.  0.
         21    1    1    2  503  504 -0.74284912489E+02 -0.71717621527E+02 -0.45021279859E+00  0.10325632258E+03  0.00000000000E+00 0. -1.
         21    1    1    2  504  502  0.37260957109E+03 -0.31035755875E+03  0.49172797974E+03  0.69062009296E+03  0.00000000000E+00 0.  1.
<mgrwt>
<rscale>  4 0.54491471E+03</rscale>
<asrwt>0</asrwt>
<pdfrwt beam="1">  1       21 0.15853560E+00 0.54491471E+03</pdfrwt>
<pdfrwt beam="2">  1       21 0.48124742E-01 0.54491471E+03</pdfrwt>
<totfact> 0.86254467E+02</totfact>
</mgrwt>
</event>
<event>
 5    0  0.3120399E-003  0.2845439E+03  0.7546771E-02  0.1093233E+00
         21   -1    0    0  504  501  0.00000000000E+00  0.00000000000E+00  0.55608649915E+02  0.55608649915E+02  0.00000000000E+00 0.  1.
         21   -1    0    0  501  502 -0.00000000000E+00 -0.00000000000E+00 -0.26013503854E+04  0.26013503854E+04  0.00000000000E+00 0.  1.
         25    1    1    2    0    0 -0.25137897531E+03  0.45742907205E+01 -0.40372930921E+03  0.49176688428E+03  0.12500000000E+03 0.  0.
         21    1    1    2  503  502  0.17730001438E+03 -0.76198827762E+02 -0.17195392204E+04  0.17303342703E+04  0.00000000000E+00 0.  1.
         21    1    1    2  504  503  0.74078960934E+02  0.71624537041E+02 -0.42247320592E+03  0.43485788079E+03  0.00000000000E+00 0. -1.
<mgrwt>
<rscale>  4 0.28454386E+03</rscale>
<asrwt>0</asrwt>
<pdfrwt beam="1">  1       21 0.85551771E-02 0.28454386E+03</pdfrwt>
<pdfrwt beam="2">  1       21 0.40020774E+00 0.28454386E+03</pdfrwt>
<totfact> 0.82493331E+02</totfact>
</mgrwt>
</event>
<event>
 5    0  0.3120399E-003  0.3432536E+03  0.7546771E-02  0.1065419E+00
         21   -1    0    0  502  501  0.00000000000E+00  0.00000000000E+00  0.61329700687E+03  0.61329700687E+03  0.00000000000E+00 0. -1.
         21   -1    0    0  504  502 -0.00000000000E+00 -0.00000000000E+00 -0.22721366222E+03  0.22721366222E+03  0.00000000000E+00 0. -1.
         25    1    1    2    0    0  0.91180419574E+02 -0.19040862622E+03  0.41694274059E+03  0.48377222200E+03  0.12500000000E+03 0.  0.
         21    1    1    2  503  501 -0.81528657877E+02  0.21488330102E+03  0.79573185836E+02  0.24321522776E+03  0.00000000000E+00 0.  1.
         21    1    1    2  504  503 -0.96517616972E+01 -0.24474674794E+02 -0.11043258177E+03  0.11352321933E+03  0.00000000000E+00 0.  1.
<mgrwt>
<rscale>  4 0.34325358E+03</rscale>
<asrwt>0</asrwt>
<pdfrwt beam="1">  1       21 0.94353385E-01 0.34325358E+03</pdfrwt>
<pdfrwt beam="2">  1       21 0.34955948E-01 0.34325358E+03</pdfrwt>
<totfact> 0.68206777E+03</totfact>
</mgrwt>
</event>
<event>
 5    0  0.3120399E-003  0.3847135E+03  0.7546771E-02  0.1049205E+00
         21   -1    0    0  504  501  0.00000000000E+00  0.00000000000E+00  0.53707454178E+03  0.53707454178E+03  0.00000000000E+00 0. -1.
         21   -1    0    0  501  502 -0.00000000000E+00 -0.00000000000E+00 -0.27643436472E+03  0.27643436472E+03  0.00000000000E+00 0. -1.
         25    1    1    2    0    0 -0.20217406807E+03 -0.17708318480E+03  0.11161261877E+03  0.31672572490E+03  0.12500000000E+03 0.  0.
         21    1    1    2  503  502 -0.38983703070E+02 -0.98369199738E+02  0.14763895061E+02  0.10683726484E+03  0.00000000000E+00 0.  1.
         21    1    1    2  504  503  0.24115777114E+03  0.27545238454E+03  0.13426366323E+03  0.38994591676E+03  0.00000000000E+00 0. -1.
<mgrwt>
<rscale>  4 0.38471345E+03</rscale>
<asrwt>0</asrwt>
<pdfrwt beam="1">  1       21 0.82626852E-01 0.38471345E+03</pdfrwt>
<pdfrwt beam="2">  1       21 0.42528364E-01 0.38471345E+03</pdfrwt>
<totfact> 0.61392573E+03</totfact>
</mgrwt>
</event>
<event>
 5    0  0.3120399E-003  0.5923722E+03  0.7546771E-02  0.9921359E-01
         21   -1    0    0  502  501  0.00000000000E+00  0.00000000000E+00  0.36783881722E+03  0.36783881722E+03  0.00000000000E+00 0. -1.
         21   -1    0    0  504  502 -0.00000000000E+00 -0.00000000000E+00 -0.14755293289E+04  0.14755293289E+04  0.00000000000E+00 0. -1.
         25    1    1    2    0    0 -0.33311894223E+03  0.14750616719E+03 -0.18358680445E+03  0.42667952118E+03  0.12500000000E+03 0.  0.
         21    1    1    2  503  501 -0.10738731569E+03  0.15556433101E+03  0.13362690841E+03  0.23149178669E+03  0.00000000000E+00 0. -1.
         21    1    1    2  504  503  0.44050625792E+03 -0.30307049820E+03 -0.10577306157E+04  0.11851968383E+04  0.00000000000E+00 0. -1.
<mgrwt>
<rscale>  4 0.59237219E+03</rscale>
<asrwt>0</asrwt>
<pdfrwt beam="1">  1       21 0.56590587E-01 0.59237219E+03</pdfrwt>
<pdfrwt beam="2">  1       21 0.22700452E+00 0.59237219E+03</pdfrwt>
<totfact> 0.20096109E+02</totfact>
</mgrwt>
</event>
<event>
 5    0  0.3120399E-003  0.5495121E+03  0.7546771E-02  0.1001607E+00
         21   -1    0    0  502  501  0.00000000000E+00  0.00000000000E+00  0.36277984959E+03  0.36277984959E+03  0.00000000000E+00 0. -1.
         21   -1    0    0  503  502 -0.00000000000E+00 -0.00000000000E+00 -0.91848778012E+03  0.91848778012E+03  0.00000000000E+00 0. -1.
         25    1    1    2    0    0  0.22689733326E+03 -0.14321044404E+03 -0.23786635125E+03  0.37973284317E+03  0.12500000000E+03 0.  0.
         21    1    1    2  503  504 -0.83986698439E+02 -0.28790398436E+03  0.65763699351E+02  0.30702985829E+03  0.00000000000E+00 0. -1.
         21    1    1    2  504  501 -0.14291063482E+03  0.43111442841E+03 -0.38360527863E+03  0.59450492825E+03  0.00000000000E+00 0. -1.
<mgrwt>
<rscale>  4 0.54951215E+03</rscale>
<asrwt>0</asrwt>
<pdfrwt beam="1">  1       21 0.55812285E-01 0.54951215E+03</pdfrwt>
<pdfrwt beam="2">  1       21 0.14130581E+00 0.54951215E+03</pdfrwt>
<totfact> 0.85797029E+02</totfact>
</mgrwt>
</event>
<event>
 5    0  0.3120399E-003  0.3814314E+03  0.7546771E-02  0.1050406E+00
         21   -1    0    0  504  501  0.00000000000E+00  0.00000000000E+00  0.16507851446E+04  0.16507851446E+04  0.00000000000E+00 0. -1.
         21   -1    0    0  501  502 -0.00000000000E+00 -0.00000000000E+00 -0.10470162628E+03  0.10470162628E+03  0.00000000000E+00 0. -1.
         25    1    1    2    0    0  0.24854128619E+03  0.27502277364E+03  0.56447461138E+03  0.68678008406E+03  0.12500000000E+03 0.  0.
         21    1    1    2  503  502 -0.10679139983E+03 -0.22694562850E+03  0.43658678010E+03  0.50350445672E+03  0.00000000000E+00 0. -1.
         21    1    1    2  504  503 -0.14174988636E+03 -0.48077145136E+02  0.54502212681E+03  0.56520223008E+03  0.00000000000E+00 0. -1.
<mgrwt>
<rscale>  4 0.38143142E+03</rscale>
<asrwt>0</asrwt>
<pdfrwt beam="1">  1       21 0.25396693E+00 0.38143142E+03</pdfrwt>
<pdfrwt beam="2">  1       21 0.16107944E-01 0.38143142E+03</pdfrwt>
<totfact> 0.18652078E+03</totfact>
</mgrwt>
</event>
<event>
 5    0  0.3120399E-003  0.2270973E+03  0.7546771E-02  0.1128700E+00
         21   -1    0    0  502  501  0.00000000000E+00  0.00000000000E+00  0.11422096138E+04  0.11422096138E+04  0.00000000000E+00 0.  1.
         21   -1    0    0  503  502 -0.00000000000E+00 -0.00000000000E+00 -0.63732552253E+02  0.63732552253E+02  0.00000000000E+00 0.  1.
         25    1    1    2    0    0 -0.11384095209E+03 -0.18858794640E+03  0.76203745330E+03  0.80302631099E+03  0.12500000000E+03 0.  0.
         21    1    1    2  503  504  0.10439480382E+03  0.60682605203E+02  0.14193237817E+03  0.18634766865E+03  0.00000000000E+00 0.  1.
         21    1    1    2  504  501  0.94461482733E+01  0.12790534119E+03  0.17450723011E+03  0.21656818645E+03  0.00000000000E+00 0.  1.
<mgrwt>
<rscale>  4 0.22709733E+03</rscale>
<asrwt>0</asrwt>
<pdfrwt beam="1">  1       21 0.17572454E+00 0.22709733E+03</pdfrwt>
<pdfrwt beam="2">  1       21 0.98050089E-02 0.22709733E+03</pdfrwt>
<totfact> 0.15961906E+04</totfact>
</mgrwt>
</event>
<event>
 5    0  0.3120399E-003  0.3941712E+03  0.7546771E-02  0.1045817E+00
         21   -1    0    0  504  501  0.00000000000E+00  0.00000000000E+00  0.24900122832E+03  0.24900122832E+03  0.00000000000E+00 0.  1.
         21   -1    0    0  501  502 -0.00000000000E+00 -0.00000000000E+00 -0.64541873163E+03  0.64541873163E+03  0.00000000000E+00 0.  1.
         25    1    1    2    0    0  0.17156725108E+03 -0.25872420370E+03 -0.70456270546E+02  0.34199798433E+03  0.12500000000E+03 0.  0.
         21    1    1    2  503  502 -0.14305310056E+03  0.33491396412E+03 -0.25645809062E+03  0.44542373667E+03  0.00000000000E+00 0.  1.
         21    1    1    2  504  503 -0.28514150513E+02 -0.76189760413E+02 -0.69503142145E+02  0.10699823895E+03  0.00000000000E+00 0.  1.
<mgrwt>
<rscale>  4 0.39417122E+03</rscale>
<asrwt>0</asrwt>
<pdfrwt beam="1">  1       21 0.38307882E-01 0.39417122E+03</pdfrwt>
<pdfrwt beam="2">  1       21 0.99295189E-01 0.39417122E+03</pdfrwt>
<totfact> 0.49118887E+03</totfact>
</mgrwt>
</event>
<event>
 5    0  0.7312998E-003  0.3870504E+03  0.7546771E-02  0.1048358E+00
         21   -1    0    0  503  501  0.00000000000E+00  0.00000000000E+00  0.20671656198E+03  0.20671656198E+03  0.00000000000E+00 0. -1.
         21   -1    0    0  501  502 -0.00000000000E+00 -0.00000000000E+00 -0.15286924624E+04  0.15286924624E+04  0.00000000000E+00 0. -1.
         25    1    1    2    0    0  0.16572628361E+03 -0.30109986184E+03 -0.16903143514E+03  0.40289322896E+03  0.12500000000E+03 0.  0.
         21    1    1    2  503  504 -0.52963888478E+02  0.25825827510E+01  0.58963555616E+02  0.79300341155E+02  0.00000000000E+00 0.  1.
         21    1    1    2  504  502 -0.11276239513E+03  0.29851727908E+03 -0.12119080209E+04  0.12532154542E+04  0.00000000000E+00 0.  1.
<mgrwt>
<rscale>  4 0.38705038E+03</rscale>
<asrwt>0</asrwt>
<pdfrwt beam="1">  1       21 0.31802547E-01 0.38705038E+03</pdfrwt>
<pdfrwt beam="2">  1       21 0.23518346E+00 0.38705038E+03</pdfrwt>
<totfact> 0.65556390E+02</totfact>
</mgrwt>
</event>
<event>
 5    0  0.3120399E-003  0.3021472E+03  0.7546771E-02  0.1084172E+00
         21   -1    0    0  504  501  0.00000000000E+00  0.00000000000E+00  0.13992342510E+03  0.13992342510E+03  0.00000000000E+00 0.  1.
         21   -1    0    0  501  502 -0.00000000000E+00 -0.00000000000E+00 -0.72915476748E+03  0.72915476748E+03  0.00000000000E+00 0.  1.
         25    1    1    2    0    0  0.22624567358E+02  0.26199688912E+03 -0.34498885151E+03  0.45143831098E+03  0.12500000000E+03 0.  0.
         21    1    1    2  503  502  0.27184894085E+02 -0.26103573031E+03 -0.12973072560E+03  0.29276053718E+03  0.00000000000E+00 0.  1.
         21    1    1    2  504  503 -0.49809461443E+02 -0.96115880692E+00 -0.11451176527E+03  0.12487934442E+03  0.00000000000E+00 0. -1.
<mgrwt>
<rscale>  4 0.30214724E+03</rscale>
<asrwt>0</asrwt>
<pdfrwt beam="1">  1       21 0.21526680E-01 0.30214724E+03</pdfrwt>
<pdfrwt beam="2">  1       21 0.11217766E+00 0.30214724E+03</pdfrwt>
<totfact> 0.11772003E+04</totfact>
</mgrwt>
</event>
<event>
 5    0  0.3120399E-003  0.3544718E+03  0.7546771E-02  0.1060794E+00
         21   -1    0    0  502  501  0.00000000000E+00  0.00000000000E+00  0.69625519509E+03  0.69625519509E+03  0.00000000000E+00 0.  1.
         21   -1    0    0  503  502 -0.00000000000E+00 -0.00000000000E+00 -0.21910665047E+03  0.21910665047E+03  0.00000000000E+00 0.  1.
         25    1    1    2    0    0 -0.11022376156E+02  0.25965796843E+03  0.21618187415E+02  0.28919906530E+03  0.12500000000E+03 0.  0.
         21    1    1    2  503  504  0.14561835313E+03 -0.17687250924E+02  0.10984226898E+03  0.18325628957E+03  0.00000000000E+00 0. -1.
         21    1    1    2  504  501 -0.13459597697E+03 -0.24197071750E+03  0.34568808823E+03  0.44290649068E+03  0.00000000000E+00 0.  1.
<mgrwt>
<rscale>  4 0.35447176E+03</rscale>
<asrwt>0</asrwt>
<pdfrwt beam="1">  1       21 0.10711618E+00 0.35447176E+03</pdfrwt>
<pdfrwt beam="2">  1       21 0.33708716E-01 0.35447176E+03</pdfrwt>
<totfact> 0.53740008E+03</totfact>
</mgrwt>
</event>
<event>
 5    0  0.3120399E-003  0.4513202E+03  0.7546771E-02  0.1027329E+00
         21   -1    0    0  504  501  0.00000000000E+00  0.00000000000E+00  0.63376178686E+03  0.63376178686E+03  0.00000000000E+00 0. -1.
         21   -1    0    0  501  502 -0.00000000000E+00 -0.00000000000E+00 -0.32322777067E+03  0.32322777067E+03  0.00000000000E+00 0. -1.
         25    1    1    2    0    0 -0.11030670067E+03  0.31263940967E+03  0.12373074179E+03  0.37529357196E+03  0.12500000000E+03 0.  0.
         21    1    1    2  503  502  0.62761524811E+02  0.10831605275E+03  0.21827232709E+02  0.12707401138E+03  0.00000000000E+00 0.  1.
         21    1    1    2  504  503  0.47545175863E+02 -0.42095546242E+03  0.16497604168E+03  0.45462197419E+03  0.00000000000E+00 0. -1.
<mgrwt>
<rscale>  4 0.45132020E+03</rscale>
<asrwt>0</asrwt>
<pdfrwt beam="1">  1       21 0.97501813E-01 0.45132020E+03</pdfrwt>
<pdfrwt beam="2">  1       21 0.49727349E-01 0.45132020E+03</pdfrwt>
<totfact> 0.29181975E+03</totfact>
</mgrwt>
</event>
<event>
 5    0  0.3120399E-003  0.3752313E+03  0.7546771E-02  0.1052710E+00
         21   -1    0    0  503  501  0.00000000000E+00  0.00000000000E+00  0.42177902162E+03  0.42177902162E+03  0.00000000000E+00 0.  1.
         21   -1    0    0  501  502 -0.00000000000E+00 -0.00000000000E+00 -0.34085295958E+03  0.34085295958E+03  0.00000000000E+00 0.  1.
         25    1    1    2    0    0  0.26106048831E+03  0.34242361616E+02  0.13970508452E+03  0.32321452400E+03  0.12500000000E+03 0.  0.
         21    1    1    2  503  504 -0.32766525392E+03  0.15266086397E+02  0.15014972168E+02  0.32836415975E+03  0.00000000000E+00 0.  1.
         21    1    1    2  504  502  0.66604765613E+02 -0.49508448013E+02 -0.73793994650E+02  0.11105329745E+03  0.00000000000E+00 0.  1.
<mgrwt>
<rscale>  4 0.37523135E+03</rscale>
<asrwt>0</asrwt>
<pdfrwt beam="1">  1       21 0.64889081E-01 0.37523135E+03</pdfrwt>
<pdfrwt beam="2">  1       21 0.52438917E-01 0.37523135E+03</pdfrwt>
<totfact> 0.68535546E+03</totfact>
</mgrwt>
</event>
<event>
 5    0  0.3120399E-003  0.1028600E+04  0.7546771E-02  0.9277721E-01
         21   -1    0    0  502  501  0.00000000000E+00  0.00000000000E+00  0.71165547421E+03  0.71165547421E+03  0.00000000000E+00 0. -1.
         21   -1    0    0  504  502 -0.00000000000E+00 -0.00000000000E+00 -0.15183361285E+04  0.15183361285E+04  0.00000000000E+00 0. -1.
         25    1    1    2    0    0 -0.88785259881E+03  0.31427396957E+03 -0.53773599521E+03  0.10917121258E+04  0.12500000000E+03 0.  0.
         21    1    1    2  503  501  0.94403715387E+03 -0.38130304990E+03 -0.23876129641E+03  0.10457557652E+04  0.00000000000E+00 0. -1.
         21    1    1    2  504  503 -0.56184555059E+02  0.67029080329E+02 -0.30183362639E+02  0.92523711648E+02  0.00000000000E+00 0.  1.
<mgrwt>
<rscale>  4 0.10286004E+04</rscale>
<asrwt>0</asrwt>
<pdfrwt beam="1">  1       21 0.10948546E+00 0.10286004E+04</pdfrwt>
<pdfrwt beam="2">  1       21 0.23359017E+00 0.10286004E+04</pdfrwt>
<totfact> 0.33750365E+01</totfact>
</mgrwt>
</event>
<event>
 5    0  0.3120399E-003  0.4308314E+03  0.7546771E-02  0.1033598E+00
         21   -1    0    0  503  501  0.00000000000E+00  0.00000000000E+00  0.16347412123E+03  0.16347412123E+03  0.00000000000E+00 0.  1.
         21   -1    0    0  501  502 -0.00000000000E+00 -0.00000000000E+00 -0.12491218737E+04  0.12491218737E+04  0.00000000000E+00 0.  1.
         25    1    1    2    0    0  0.34240843370E+03 -0.71736509481E+02 -0.33459430265E+03  0.49996800860E+03  0.12500000000E+03 0.  0.
         21    1    1    2  503  504 -0.11396554702E+03 -0.15773256705E+03 -0.27430908921E+03  0.33632303673E+03  0.00000000000E+00 0. -1.
         21    1    1    2  504  502 -0.22844288668E+03  0.22946907653E+03 -0.47674436058E+03  0.57630494957E+03  0.00000000000E+00 0. -1.
<mgrwt>
<rscale>  4 0.43083138E+03</rscale>
<asrwt>0</asrwt>
<pdfrwt beam="1">  1       21 0.25149864E-01 0.43083138E+03</pdfrwt>
<pdfrwt beam="2">  1       21 0.19217260E+00 0.43083138E+03</pdfrwt>
<totfact> 0.19296432E+03</totfact>
</mgrwt>
</event>
<event>
 5    0  0.3120399E-003  0.4784532E+03  0.7546771E-02  0.1019561E+00
         21   -1    0    0  503  501  0.00000000000E+00  0.00000000000E+00  0.43749045324E+03  0.43749045324E+03  0.00000000000E+00 0. -1.
         21   -1    0    0  501  502 -0.00000000000E+00 -0.00000000000E+00 -0.61932036855E+03  0.61932036855E+03  0.00000000000E+00 0. -1.
         25    1    1    2    0    0 -0.21602704300E+03 -0.34916549639E+03 -0.23146197323E+03  0.48763087702E+03  0.12500000000E+03 0.  0.
         21    1    1    2  503  504  0.21397044810E+03  0.77279682647E+00 -0.16321608916E+02  0.21459344070E+03  0.00000000000E+00 0.  1.
         21    1    1    2  504  502  0.20565949001E+01  0.34839269956E+03  0.65953666837E+02  0.35458650406E+03  0.00000000000E+00 0.  1.
<mgrwt>
<rscale>  4 0.47845316E+03</rscale>
<asrwt>0</asrwt>
<pdfrwt beam="1">  1       21 0.67306224E-01 0.47845316E+03</pdfrwt>
<pdfrwt beam="2">  1       21 0.95280056E-01 0.47845316E+03</pdfrwt>
<totfact> 0.15787693E+03</totfact>
</mgrwt>
</event>
<event>
 5    0  0.3120399E-003  0.2552961E+03  0.7546771E-02  0.1110003E+00
         21   -1    0    0  502  501  0.00000000000E+00  0.00000000000E+00  0.63593381055E+02  0.63593381055E+02  0.00000000000E+00 0.  1.
         21   -1    0    0  504  502 -0.00000000000E+00 -0.00000000000E+00 -0.12492419557E+04  0.12492419557E+04  0.00000000000E+00 0.  1.
         25    1    1    2    0    0 -0.23463743931E+03  0.73821912789E+02 -0.49932055949E+03  0.57048262363E+03  0.12500000000E+03 0.  0.
         21    1    1    2  503  501  0.10855386088E+03  0.29110149405E+02 -0.36871122835E+03  0.38545987005E+03  0.00000000000E+00 0. -1.
         21    1    1    2  504  503  0.12608357843E+03 -0.10293206219E+03 -0.31761678686E+03  0.35689284312E+03  0.00000000000E+00 0.  1.
<mgrwt>
<rscale>  4 0.25529607E+03</rscale>
<asrwt>0</asrwt>
<pdfrwt beam="1">  1       21 0.97835983E-02 0.25529607E+03</pdfrwt>
<pdfrwt beam="2">  1       21 0.19219105E+00 0.25529607E+03</pdfrwt>
<totfact> 0.12168420E+04</totfact>
</mgrwt>
</event>
<event>
 5    0  0.3120399E-003  0.8189871E+03  0.7546771E-02  0.9532933E-01
         21   -1    0    0  502  501  0.00000000000E+00  0.00000000000E+00  0.97460265536E+03  0.97460265536E+03  0.00000000000E+00 0. -1.
         21   -1    0    0  503  502 -0.00000000000E+00 -0.00000000000E+00 -0.94425001394E+03  0.94425001394E+03  0.00000000000E+00 0. -1.
         25    1    1    2    0    0 -0.22888213341E+03  0.33221796820E+03  0.33862635004E+03  0.54133964784E+03  0.12500000000E+03 0.  0.
         21    1    1    2  503  504 -0.45611966477E+03 -0.26686553440E+03  0.15173038770E+03  0.54980403108E+03  0.00000000000E+00 0.  1.
         21    1    1    2  504  501  0.68500179818E+03 -0.65352433793E+02 -0.46000409632E+03  0.82770899037E+03  0.00000000000E+00 0. -1.
<mgrwt>
<rscale>  4 0.81898713E+03</rscale>
<asrwt>0</asrwt>
<pdfrwt beam="1">  1       21 0.14993887E+00 0.81898713E+03</pdfrwt>
<pdfrwt beam="2">  1       21 0.14526923E+00 0.81898713E+03</pdfrwt>
<totfact> 0.66553222E+01</totfact>
</mgrwt>
</event>
<event>
 5    0  0.3120399E-003  0.2855241E+03  0.7546771E-02  0.1092709E+00
         21   -1    0    0  504  501  0.00000000000E+00  0.00000000000E+00  0.13564518106E+04  0.13564518106E+04  0.00000000000E+00 0.  1.
         21   -1    0    0  501  502 -0.00000000000E+00 -0.00000000000E+00 -0.91958944015E+02  0.91958944015E+02  0.00000000000E+00 0.  1.
         25    1    1    2    0    0  0.18331136656E+03 -0.14115018778E+03  0.10017841690E+04  0.10357233964E+04  0.12500000000E+03 0.  0.
         21    1    1    2  503  502 -0.21810244482E+03  0.77523214370E+02  0.14106454939E+03  0.27106776329E+03  0.00000000000E+00 0.  1.
         21    1    1    2  504  503  0.34791078264E+02  0.63626973409E+02  0.12164414820E+03  0.14161959491E+03  0.00000000000E+00 0. -1.
<mgrwt>
<rscale>  4 0.28552412E+03</rscale>
<asrwt>0</asrwt>
<pdfrwt beam="1">  1       21 0.20868488E+00 0.28552412E+03</pdfrwt>
<pdfrwt beam="2">  1       21 0.14147531E-01 0.28552412E+03</pdfrwt>
<totfact> 0.47957332E+03</totfact>
</mgrwt>
</event>
<event>
 5    0  0.3120399E-003  0.6930066E+03  0.7546771E-02  0.9729267E-01
         21   -1    0    0  502  501  0.00000000000E+00  0.00000000000E+00  0.66038385272E+03  0.66038385272E+03  0.00000000000E+00 0. -1.
         21   -1    0    0  503  502 -0.00000000000E+00 -0.00000000000E+00 -0.93810433371E+03  0.93810433371E+03  0.00000000000E+00 0. -1.
         25    1    1    2    0    0 -0.26577199661E+03 -0.40119151426E+03 -0.33554385430E+03  0.59983669732E+03  0.12500000000E+03 0.  0.
         21    1    1    2  503  504 -0.27145378859E+03  0.13328239641E+03 -0.18114782634E+03  0.35251367565E+03  0.00000000000E+00 0. -1.
         21    1    1    2  504  501  0.53722578520E+03  0.26790911785E+03  0.23897119965E+03  0.64613781345E+03  0.00000000000E+00 0. -1.
<mgrwt>
<rscale>  4 0.69300662E+03</rscale>
<asrwt>0</asrwt>
<pdfrwt beam="1">  1       21 0.10159752E+00 0.69300662E+03</pdfrwt>
<pdfrwt beam="2">  1       21 0.14432374E+00 0.69300662E+03</pdfrwt>
<totfact> 0.19404796E+02</totfact>
</mgrwt>
</event>
<event>
 5    0  0.3120399E-003  0.4042546E+03  0.7546771E-02  0.1042316E+00
         21   -1    0    0  504  501  0.00000000000E+00  0.00000000000E+00  0.12967348088E+04  0.12967348088E+04  0.00000000000E+00 0. -1.
         21   -1    0    0  501  502 -0.00000000000E+00 -0.00000000000E+00 -0.21188843763E+03  0.21188843763E+03  0.00000000000E+00 0. -1.
         25    1    1    2    0    0  0.29534724807E+03 -0.18011344430E+03  0.30848965608E+03  0.48006428494E+03  0.12500000000E+03 0.  0.
         21    1    1    2  503  502 -0.59750615279E+02 -0.15750409631E+01 -0.92524752715E+02  0.11015192529E+03  0.00000000000E+00 0. -1.
         21    1    1    2  504  503 -0.23559663279E+03  0.18168848527E+03  0.86888146780E+03  0.91840703620E+03  0.00000000000E+00 0. -1.
<mgrwt>
<rscale>  4 0.40425465E+03</rscale>
<asrwt>0</asrwt>
<pdfrwt beam="1">  1       21 0.19949766E+00 0.40425465E+03</pdfrwt>
<pdfrwt beam="2">  1       21 0.32598222E-01 0.40425465E+03</pdfrwt>
<totfact> 0.10457107E+03</totfact>
</mgrwt>
</event>
<event>
 5    0  0.3120399E-003  0.6886126E+03  0.7546771E-02  0.9736907E-01
         21   -1    0    0  504  501  0.00000000000E+00  0.00000000000E+00  0.13789837268E+04  0.13789837268E+04  0.00000000000E+00 0.  1.
         21   -1    0    0  501  502 -0.00000000000E+00 -0.00000000000E+00 -0.68128808864E+03  0.68128808864E+03  0.00000000000E+00 0.  1.
         25    1    1    2    0    0 -0.56311918700E+03 -0.34235401869E+03 -0.35328707789E+03  0.75812020965E+03  0.12500000000E+03 0.  0.
         21    1    1    2  503  502 -0.22926388734E+02  0.42765135201E+02 -0.13728490753E+02  0.50427646658E+02  0.00000000000E+00 0.  1.
         21    1    1    2  504  503  0.58604557574E+03  0.29958888349E+03  0.10647112068E+04  0.12517239591E+04  0.00000000000E+00 0.  1.
<mgrwt>
<rscale>  4 0.68861262E+03</rscale>
<asrwt>0</asrwt>
<pdfrwt beam="1">  1       21 0.21215134E+00 0.68861262E+03</pdfrwt>
<pdfrwt beam="2">  1       21 0.10481355E+00 0.68861262E+03</pdfrwt>
<totfact> 0.57859589E+01</totfact>
</mgrwt>
</event>
<event>
 5    0  0.3120399E-003  0.4819218E+03  0.7546771E-02  0.1018608E+00
         21   -1    0    0  503  501  0.00000000000E+00  0.00000000000E+00  0.62539793075E+03  0.62539793075E+03  0.00000000000E+00 0.  1.
         21   -1    0    0  501  502 -0.00000000000E+00 -0.00000000000E+00 -0.45714069304E+03  0.45714069304E+03  0.00000000000E+00 0.  1.
         25    1    1    2    0    0 -0.94974305460E+02  0.26375345706E+03  0.30429923001E+03  0.43221409764E+03  0.12500000000E+03 0.  0.
         21    1    1    2  503  504 -0.18290467238E+03  0.64755138460E+02  0.14267570268E+02  0.19455310509E+03  0.00000000000E+00 0. -1.
         21    1    1    2  504  502  0.27787897784E+03 -0.32850859552E+03 -0.15030956257E+03  0.45577142107E+03  0.00000000000E+00 0.  1.
<mgrwt>
<rscale>  4 0.48192176E+03</rscale>
<asrwt>0</asrwt>
<pdfrwt beam="1">  1       21 0.96215067E-01 0.48192176E+03</pdfrwt>
<pdfrwt beam="2">  1       21 0.70329337E-01 0.48192176E+03</pdfrwt>
<totfact> 0.13952828E+03</totfact>
</mgrwt>
</event>
<event>
 5    0  0.3120399E-003  0.2592306E+03  0.7546771E-02  0.1107606E+00
         21   -1    0    0  502  501  0.00000000000E+00  0.00000000000E+00  0.12101687429E+04  0.12101687429E+04  0.00000000000E+00 0.  1.
         21   -1    0    0  504  502 -0.00000000000E+00 -0.00000000000E+00 -0.63314317446E+02  0.63314317446E+02  0.00000000000E+00 0.  1.
         25    1    1    2    0    0 -0.19252865059E+03 -0.12391759582E+03  0.41633885794E+03  0.49131038711E+03  0.12500000000E+03 0.  0.
         21    1    1    2  503  501  0.19121866828E+03  0.43498254919E+02  0.56683020373E+03  0.59979426234E+03  0.00000000000E+00 0.  1.
         21    1    1    2  504  503  0.13099823115E+01  0.80419340897E+02  0.16368536379E+03  0.18237841090E+03  0.00000000000E+00 0. -1.
<mgrwt>
<rscale>  4 0.25923063E+03</rscale>
<asrwt>0</asrwt>
<pdfrwt beam="1">  1       21 0.18617979E+00 0.25923063E+03</pdfrwt>
<pdfrwt beam="2">  1       21 0.97406651E-02 0.25923063E+03</pdfrwt>
<totfact> 0.13421967E+04</totfact>
</mgrwt>
</event>
<event>
 5    0  0.3120399E-003  0.2010299E+03  0.7546771E-02  0.1148873E+00
         21   -1    0    0  504  501  0.00000000000E+00  0.00000000000E+00  0.10590067718E+03  0.10590067718E+03  0.00000000000E+00 0.  1.
         21   -1    0    0  501  502 -0.00000000000E+00 -0.00000000000E+00 -0.80459651166E+03  0.80459651166E+03  0.00000000000E+00 0.  1.
         25    1    1    2    0    0  0.24392208140E+02  0.20107956780E+03 -0.15979437272E+03  0.28668312465E+03  0.12500000000E+03 0.  0.
         21    1    1    2  503  502 -0.57963116712E+02 -0.89370059792E+02 -0.43828669272E+02  0.11518542762E+03  0.00000000000E+00 0.  1.
         21    1    1    2  504  503  0.33570908572E+02 -0.11170950801E+03 -0.49507279248E+03  0.50862863657E+03  0.00000000000E+00 0.  1.
<mgrwt>
<rscale>  4 0.20102990E+03</rscale>
<asrwt>0</asrwt>
<pdfrwt beam="1">  1       21 0.16292412E-01 0.20102990E+03</pdfrwt>
<pdfrwt beam="2">  1       21 0.12378408E+00 0.20102990E+03</pdfrwt>
<totfact> 0.16396381E+04</totfact>
</mgrwt>
</event>
<event>
 5    0  0.3120399E-003  0.3542929E+03  0.7546771E-02  0.1060867E+00
         21   -1    0    0  503  501  0.00000000000E+00  0.00000000000E+00  0.47495341166E+03  0.47495341166E+03  0.00000000000E+00 0. -1.
         21   -1    0    0  501  502 -0.00000000000E+00 -0.00000000000E+00 -0.45824135514E+03  0.45824135514E+03  0.00000000000E+00 0. -1.
         25    1    1    2    0    0 -0.13388765888E+03  0.15596568389E+03  0.12071369958E+03  0.26916165592E+03  0.12500000000E+03 0.  0.
         21    1    1    2  503  504 -0.82639171647E+02  0.88375797155E+02  0.18962589158E+03  0.22493886496E+03  0.00000000000E+00 0. -1.
         21    1    1    2  504  502  0.21652683052E+03 -0.24434148104E+03 -0.29362753465E+03  0.43909424592E+03  0.00000000000E+00 0. -1.
<mgrwt>
<rscale>  4 0.35429286E+03</rscale>
<asrwt>0</asrwt>
<pdfrwt beam="1">  1       21 0.73069756E-01 0.35429286E+03</pdfrwt>
<pdfrwt beam="2">  1       21 0.70498670E-01 0.35429286E+03</pdfrwt>
<totfact> 0.27763944E+03</totfact>
</mgrwt>
</event>
<event>
 5    0  0.3120399E-003  0.3411569E+03  0.7546771E-02  0.1066304E+00
         21   -1    0    0  504  501  0.00000000000E+00  0.00000000000E+00  0.65803825379E+03  0.65803825379E+03  0.00000000000E+00 0.  1.
         21   -1    0    0  501  502 -0.00000000000E+00 -0.00000000000E+00 -0.18972612176E+03  0.18972612176E+03  0.00000000000E+00 0.  1.
         25    1    1    2    0    0 -0.26402022610E+03 -0.89039991350E+02  0.34339195251E+03  0.45954089360E+03  0.12500000000E+03 0.  0.
         21    1    1    2  503  502  0.51116099846E+02 -0.68596558188E+02 -0.17703289279E+02  0.87359887305E+02  0.00000000000E+00 0. -1.
         21    1    1    2  504  503  0.21290412625E+03  0.15763654954E+03  0.14262346881E+03  0.30086359464E+03  0.00000000000E+00 0.  1.
<mgrwt>
<rscale>  4 0.34115686E+03</rscale>
<asrwt>0</asrwt>
<pdfrwt beam="1">  1       21 0.10123665E+00 0.34115686E+03</pdfrwt>
<pdfrwt beam="2">  1       21 0.29188634E-01 0.34115686E+03</pdfrwt>
<totfact> 0.82553719E+03</totfact>
</mgrwt>
</event>
<event>
 5    0  0.3120399E-003  0.1407083E+03  0.7546771E-02  0.1212379E+00
         21   -1    0    0  503  501  0.00000000000E+00  0.00000000000E+00  0.48625443885E+03  0.48625443885E+03  0.00000000000E+00 0. -1.
         21   -1    0    0  501  502 -0.00000000000E+00 -0.00000000000E+00 -0.17588364490E+03  0.17588364490E+03  0.00000000000E+00 0. -1.
         25    1    1    2    0    0  0.15809255057E+03 -0.16268201026E+03  0.64461409376E+02  0.26690628375E+03  0.12500000000E+03 0.  0.
         21    1    1    2  503  504 -0.29218422869E+02 -0.27672303663E+02  0.13332471330E+03  0.13926575961E+03  0.00000000000E+00 0.  1.
         21    1    1    2  504  502 -0.12887412770E+03  0.19035431392E+03  0.11258467128E+03  0.25596604038E+03  0.00000000000E+00 0. -1.
<mgrwt>
<rscale>  4 0.14070831E+03</rscale>
<asrwt>0</asrwt>
<pdfrwt beam="1">  1       21 0.74808374E-01 0.14070831E+03</pdfrwt>
<pdfrwt beam="2">  1       21 0.27059023E-01 0.14070831E+03</pdfrwt>
<totfact> 0.21504410E+04</totfact>
</mgrwt>
</event>
<event>
 5    0  0.3120399E-003  0.4384618E+03  0.7546771E-02  0.1031220E+00
         21   -1    0    0  503  501  0.00000000000E+00  0.00000000000E+00  0.45972681966E+03  0.45972681966E+03  0.00000000000E+00 0. -1.
         21   -1    0    0  501  502 -0.00000000000E+00 -0.00000000000E+00 -0.50087893740E+03  0.50087893740E+03  0.00000000000E+00 0. -1.
         25    1    1    2    0    0 -0.24611961202E+03  0.13620122066E+02 -0.16670330685E+01  0.27638406276E+03  0.12500000000E+03 0.  0.
         21    1    1    2  503  504 -0.77715351517E+02  0.18274044596E+03  0.16106007092E+03  0.25568357964E+03  0.00000000000E+00 0. -1.
         21    1    1    2  504  502  0.32383496354E+03 -0.19636056803E+03 -0.20054515559E+03  0.42853811466E+03  0.00000000000E+00 0. -1.
<mgrwt>
<rscale>  4 0.43846175E+03</rscale>
<asrwt>0</asrwt>
<pdfrwt beam="1">  1       21 0.70727204E-01 0.43846175E+03</pdfrwt>
<pdfrwt beam="2">  1       21 0.77058297E-01 0.43846175E+03</pdfrwt>
<totfact> 0.23582443E+03</totfact>
</mgrwt>
</event>
<event>
 5    0  0.3120399E-003  0.3397717E+03  0.7546771E-02  0.1066893E+00
         21   -1    0    0  502  501  0.00000000000E+00  0.00000000000E+00  0.52954858256E+03  0.52954858256E+03  0.00000000000E+00 0.  1.
         21   -1    0    0  503  502 -0.00000000000E+00 -0.00000000000E+00 -0.23815180905E+03  0.23815180905E+03  0.00000000000E+00 0.  1.
         25    1    1    2    0    0  0.41149309039E+02  0.19917944725E+03  0.37600369555E+02  0.24167024151E+03  0.12500000000E+03 0.  0.
         21    1    1    2  503  504  0.12783203814E+03  0.55219580150E+02  0.18454344682E+02  0.14046634773E+03  0.00000000000E+00 0. -1.
         21    1    1    2  504  501 -0.16898134718E+03 -0.25439902740E+03  0.23534205928E+03  0.38556380237E+03  0.00000000000E+00 0.  1.
<mgrwt>
<rscale>  4 0.33977173E+03</rscale>
<asrwt>0</asrwt>
<pdfrwt beam="1">  1       21 0.81469012E-01 0.33977173E+03</pdfrwt>
<pdfrwt beam="2">  1       21 0.36638740E-01 0.33977173E+03</pdfrwt>
<totfact> 0.87579184E+03</totfact>
</mgrwt>
</event>
<event>
 5    0  0.3120399E-003  0.3796145E+03  0.7546771E-02  0.1051076E+00
         21   -1    0    0  502  501  0.00000000000E+00  0.00000000000E+00  0.64452406374E+03  0.64452406374E+03  0.00000000000E+00 0.  1.
         21   -1    0    0  503  502 -0.00000000000E+00 -0.00000000000E+00 -0.44014951742E+03  0.44014951742E+03  0.00000000000E+00 0.  1.
         25    1    1    2    0    0  0.20591779742E+03 -0.14402526900E+03  0.28543165621E+03  0.40030194575E+03  0.12500000000E+03 0.  0.
         21    1    1    2  503  504 -0.24338425652E+03  0.25756738423E+03 -0.28042387296E+03  0.45190087659E+03  0.00000000000E+00 0.  1.
         21    1    1    2  504  501  0.37466459100E+02 -0.11354211522E+03  0.19936676307E+03  0.23247075882E+03  0.00000000000E+00 0. -1.
<mgrwt>
<rscale>  4 0.37961447E+03</rscale>
<asrwt>0</asrwt>
<pdfrwt beam="1">  1       21 0.99157548E-01 0.37961447E+03</pdfrwt>
<pdfrwt beam="2">  1       21 0.67715311E-01 0.37961447E+03</pdfrwt>
<totfact> 0.14741651E+03</totfact>
</mgrwt>
</event>
<event>
 5    0  0.3120399E-003  0.3139302E+03  0.7546771E-02  0.1078477E+00
         21   -1    0    0  502  501  0.00000000000E+00  0.00000000000E+00  0.63405419447E+03  0.63405419447E+03  0.00000000000E+00 0. -1.
         21   -1    0    0  503  502 -0.00000000000E+00 -0.00000000000E+00 -0.17787536547E+03  0.17787536547E+03  0.00000000000E+00 0. -1.
         25    1    1    2    0    0 -0.15919807035E+03  0.15144078464E+03  0.39312482708E+03  0.46738684890E+03  0.12500000000E+03 0.  0.
         21    1    1    2  503  504 -0.69213722567E+02 -0.17139420667E+02 -0.33372151300E+01  0.71382323703E+02  0.00000000000E+00 0.  1.
         21    1    1    2  504  501  0.22841179292E+03 -0.13430136397E+03  0.66391217060E+02  0.27316038734E+03  0.00000000000E+00 0. -1.
<mgrwt>
<rscale>  4 0.31393023E+03</rscale>
<asrwt>0</asrwt>
<pdfrwt beam="1">  1       21 0.97546798E-01 0.31393023E+03</pdfrwt>
<pdfrwt beam="2">  1       21 0.27365441E-01 0.31393023E+03</pdfrwt>
<totfact> 0.10363148E+04</totfact>
</mgrwt>
</event>
<event>
 5    0  0.3120399E-003  0.4846012E+03  0.7546771E-02  0.1017878E+00
         21   -1    0    0  502  501  0.00000000000E+00  0.00000000000E+00  0.21759070240E+03  0.21759070240E+03  0.00000000000E+00 0.  1.
         21   -1    0    0  504  502 -0.00000000000E+00 -0.00000000000E+00 -0.11032793422E+04  0.11032793422E+04  0.00000000000E+00 0.  1.
         25    1    1    2    0    0  0.49382921379E+02  0.19895056335E+03 -0.23225088460E+03  0.33404411831E+03  0.12500000000E+03 0.  0.
         21    1    1    2  503  501 -0.35182121731E+02 -0.46270285370E+03 -0.33089965678E+03  0.56993534315E+03  0.00000000000E+00 0.  1.
         21    1    1    2  504  503 -0.14200799647E+02  0.26375229035E+03 -0.32253809843E+03  0.41689058314E+03  0.00000000000E+00 0.  1.
<mgrwt>
<rscale>  4 0.48460125E+03</rscale>
<asrwt>0</asrwt>
<pdfrwt beam="1">  1       21 0.33475492E-01 0.48460125E+03</pdfrwt>
<pdfrwt beam="2">  1       21 0.16973529E+00 0.48460125E+03</pdfrwt>
<totfact> 0.15407398E+03</totfact>
</mgrwt>
</event>
<event>
 5    0  0.3120399E-003  0.4157057E+03  0.7546771E-02  0.1038473E+00
         21   -1    0    0  504  501  0.00000000000E+00  0.00000000000E+00  0.75756300329E+03  0.75756300329E+03  0.00000000000E+00 0. -1.
         21   -1    0    0  501  502 -0.00000000000E+00 -0.00000000000E+00 -0.25631425392E+03  0.25631425392E+03  0.00000000000E+00 0. -1.
         25    1    1    2    0    0 -0.17548704184E+02  0.21157940821E+03  0.36258302902E+03  0.43836657711E+03  0.12500000000E+03 0.  0.
         21    1    1    2  503  502 -0.16777957853E+03  0.98984520842E+02  0.72463213669E+02  0.20784330558E+03  0.00000000000E+00 0. -1.
         21    1    1    2  504  503  0.18532828271E+03 -0.31056392905E+03  0.66202506685E+02  0.36766737453E+03  0.00000000000E+00 0. -1.
<mgrwt>
<rscale>  4 0.41570570E+03</rscale>
<asrwt>0</asrwt>
<pdfrwt beam="1">  1       21 0.11654815E+00 0.41570570E+03</pdfrwt>
<pdfrwt beam="2">  1       21 0.39432962E-01 0.41570570E+03</pdfrwt>
<totfact> 0.30935599E+03</totfact>
</mgrwt>
</event>
<event>
 5    0  0.3120399E-003  0.3045926E+03  0.7546771E-02  0.1082967E+00
         21   -1    0    0  503  501  0.00000000000E+00  0.00000000000E+00  0.56134968768E+03  0.56134968768E+03  0.00000000000E+00 0.  1.
         21   -1    0    0  501  502 -0.00000000000E+00 -0.00000000000E+00 -0.23046994397E+03  0.23046994397E+03  0.00000000000E+00 0.  1.
         25    1    1    2    0    0 -0.13520824041E+03  0.21412062679E+03  0.42189634980E+03  0.50769128520E+03  0.12500000000E+03 0.  0.
         21    1    1    2  503  504  0.10170444648E+03 -0.19820134575E+03 -0.49031562640E+02  0.22810449804E+03  0.00000000000E+00 0.  1.
         21    1    1    2  504  502  0.33503793933E+02 -0.15919281041E+02 -0.41985043455E+02  0.56023848411E+02  0.00000000000E+00 0. -1.
<mgrwt>
<rscale>  4 0.30459264E+03</rscale>
<asrwt>0</asrwt>
<pdfrwt beam="1">  1       21 0.86361490E-01 0.30459264E+03</pdfrwt>
<pdfrwt beam="2">  1       21 0.35456915E-01 0.30459264E+03</pdfrwt>
<totfact> 0.83021505E+03</totfact>
</mgrwt>
</event>
<event>
 5    0  0.3120399E-003  0.6267347E+03  0.7546771E-02  0.9851442E-01
         21   -1    0    0  504  501  0.00000000000E+00  0.00000000000E+00  0.58152047326E+03  0.58152047326E+03  0.00000000000E+00 0. -1.
         21   -1    0    0  501  502 -0.00000000000E+00 -0.00000000000E+00 -0.92036392394E+03  0.92036392394E+03  0.00000000000E+00 0. -1.
         25    1    1    2    0    0  0.15878453201E+03 -0.38302526233E+03 -0.45983849901E+03  0.63166234996E+03  0.12500000000E+03 0.  0.
         21    1    1    2  503  502 -0.41042712177E+03  0.37591045993E+02 -0.38763263310E+02  0.41396388684E+03  0.00000000000E+00 0. -1.
         21    1    1    2  504  503  0.25164258976E+03  0.34543421633E+03  0.15975831164E+03  0.45625816040E+03  0.00000000000E+00 0. -1.
<mgrwt>
<rscale>  4 0.62673471E+03</rscale>
<asrwt>0</asrwt>
<pdfrwt beam="1">  1       21 0.89464689E-01 0.62673471E+03</pdfrwt>
<pdfrwt beam="2">  1       21 0.14159445E+00 0.62673471E+03</pdfrwt>
<totfact> 0.28428764E+02</totfact>
</mgrwt>
</event>
<event>
 5    0  0.3120399E-003  0.5102994E+03  0.7546771E-02  0.1011125E+00
         21   -1    0    0  504  501  0.00000000000E+00  0.00000000000E+00  0.14279949453E+04  0.14279949453E+04  0.00000000000E+00 0.  1.
         21   -1    0    0  501  502 -0.00000000000E+00 -0.00000000000E+00 -0.19075515045E+03  0.19075515045E+03  0.00000000000E+00 0.  1.
         25    1    1    2    0    0  0.18974028210E+03 -0.26739504280E+03  0.82995764260E+03  0.90108610691E+03  0.12500000000E+03 0.  0.
         21    1    1    2  503  502  0.10985869675E+03 -0.28203130170E+02 -0.23040361954E+02  0.11573766925E+03  0.00000000000E+00 0.  1.
         21    1    1    2  504  503 -0.29959897885E+03  0.29559817297E+03  0.43032251422E+03  0.60192631961E+03  0.00000000000E+00 0.  1.
<mgrwt>
<rscale>  4 0.51029944E+03</rscale>
<asrwt>0</asrwt>
<pdfrwt beam="1">  1       21 0.21969152E+00 0.51029944E+03</pdfrwt>
<pdfrwt beam="2">  1       21 0.29346947E-01 0.51029944E+03</pdfrwt>
<totfact> 0.90622823E+02</totfact>
</mgrwt>
</event>
<event>
 5    0  0.3120399E-003  0.8157396E+03  0.7546771E-02  0.9537510E-01
         21   -1    0    0  502  501  0.00000000000E+00  0.00000000000E+00  0.54654813785E+03  0.54654813785E+03  0.00000000000E+00 0.  1.
         21   -1    0    0  503  502 -0.00000000000E+00 -0.00000000000E+00 -0.12300765374E+04  0.12300765374E+04  0.00000000000E+00 0.  1.
         25    1    1    2    0    0 -0.73189761833E+03 -0.13073367020E+03 -0.48362208285E+03  0.89570125336E+03  0.12500000000E+03 0.  0.
         21    1    1    2  503  504 -0.39673609029E+02  0.43829946788E+00  0.45954171002E+02  0.60712216170E+02  0.00000000000E+00 0. -1.
         21    1    1    2  504  501  0.77157122736E+03  0.13029537073E+03 -0.24586048766E+03  0.82021120568E+03  0.00000000000E+00 0.  1.
<mgrwt>
<rscale>  4 0.81573956E+03</rscale>
<asrwt>0</asrwt>
<pdfrwt beam="1">  1       21 0.84084329E-01 0.81573956E+03</pdfrwt>
<pdfrwt beam="2">  1       21 0.18924254E+00 0.81573956E+03</pdfrwt>
<totfact> 0.13549842E+02</totfact>
</mgrwt>
</event>
<event>
 5    0  0.3120399E-003  0.2590604E+03  0.7546771E-02  0.1107709E+00
         21   -1    0    0  503  501  0.00000000000E+00  0.00000000000E+00  0.21695241098E+04  0.21695241098E+04  0.00000000000E+00 0. -1.
         21   -1    0    0  501  502 -0.00000000000E+00 -0.00000000000E+00 -0.47489747313E+02  0.47489747313E+02  0.00000000000E+00 0. -1.
         25    1    1    2    0    0  0.10475550971E+03 -0.26136190976E+03  0.10377638076E+04  0.10825259743E+04  0.12500000000E+03 0.  0.
         21    1    1    2  503  504  0.38444422669E+02  0.12723347422E+03  0.34788267447E+03  0.37240929875E+03  0.00000000000E+00 0. -1.
         21    1    1    2  504  502 -0.14319993238E+03  0.13412843555E+03  0.73638788038E+03  0.76207858403E+03  0.00000000000E+00 0. -1.
<mgrwt>
<rscale>  4 0.25906044E+03</rscale>
<asrwt>0</asrwt>
<pdfrwt beam="1">  1       21 0.33377286E+00 0.25906044E+03</pdfrwt>
<pdfrwt beam="2">  1       21 0.73061166E-02 0.25906044E+03</pdfrwt>
<totfact> 0.28388803E+03</totfact>
</mgrwt>
</event>
<event>
 5    0  0.3120399E-003  0.2447789E+03  0.7546771E-02  0.1116650E+00
         21   -1    0    0  503  501  0.00000000000E+00  0.00000000000E+00  0.14805688022E+03  0.14805688022E+03  0.00000000000E+00 0.  1.
         21   -1    0    0  501  502 -0.00000000000E+00 -0.00000000000E+00 -0.52974600177E+03  0.52974600177E+03  0.00000000000E+00 0.  1.
         25    1    1    2    0    0 -0.10067459686E+03 -0.22313687422E+03 -0.14503007147E+03  0.31077992329E+03  0.12500000000E+03 0.  0.
         21    1    1    2  503  504  0.96510987942E+02  0.11054889113E+03 -0.62289597559E+02  0.15942215056E+03  0.00000000000E+00 0.  1.
         21    1    1    2  504  502  0.41636089182E+01  0.11258798308E+03 -0.17436945251E+03  0.20760080815E+03  0.00000000000E+00 0.  1.
<mgrwt>
<rscale>  4 0.24477887E+03</rscale>
<asrwt>0</asrwt>
<pdfrwt beam="1">  1       21 0.22777981E-01 0.24477887E+03</pdfrwt>
<pdfrwt beam="2">  1       21 0.81499386E-01 0.24477887E+03</pdfrwt>
<totfact> 0.23172824E+04</totfact>
</mgrwt>
</event>
<event>
 5    0  0.3120399E-003  0.4294141E+03  0.7546771E-02  0.1034045E+00
         21   -1    0    0  502  501  0.00000000000E+00  0.00000000000E+00  0.14311519232E+03  0.14311519232E+03  0.00000000000E+00 0. -1.
         21   -1    0    0  504  502 -0.00000000000E+00 -0.00000000000E+00 -0.16878687191E+04  0.16878687191E+04  0.00000000000E+00 0. -1.
         25    1    1    2    0    0  0.16680635282E+01  0.31074209818E+03 -0.16680949906E+03  0.37418423670E+03  0.12500000000E+03 0.  0.
         21    1    1    2  503  501  0.96709916193E+02  0.42382458745E+02 -0.27772475217E+03  0.29711970427E+03  0.00000000000E+00 0. -1.
         21    1    1    2  504  503 -0.98377979721E+02 -0.35312455692E+03 -0.11002192755E+04  0.11596799704E+04  0.00000000000E+00 0. -1.
<mgrwt>
<rscale>  4 0.42941412E+03</rscale>
<asrwt>0</asrwt>
<pdfrwt beam="1">  1       21 0.22017723E-01 0.42941412E+03</pdfrwt>
<pdfrwt beam="2">  1       21 0.25967210E+00 0.42941412E+03</pdfrwt>
<totfact> 0.92940205E+02</totfact>
</mgrwt>
</event>
<event>
 5    0  0.3120399E-003  0.4526314E+03  0.7546771E-02  0.1026940E+00
         21   -1    0    0  503  501  0.00000000000E+00  0.00000000000E+00  0.13416260514E+03  0.13416260514E+03  0.00000000000E+00 0.  1.
         21   -1    0    0  501  502 -0.00000000000E+00 -0.00000000000E+00 -0.19537248023E+04  0.19537248023E+04  0.00000000000E+00 0.  1.
         25    1    1    2    0    0  0.15453812626E+03 -0.32220253529E+03 -0.11085161681E+04  0.11713793584E+04  0.12500000000E+03 0.  0.
         21    1    1    2  503  504 -0.29361977188E+03  0.11241707387E+03 -0.30030176634E+03  0.43477732209E+03  0.00000000000E+00 0.  1.
         21    1    1    2  504  502  0.13908164562E+03  0.20978546143E+03 -0.41074426263E+03  0.48173072692E+03  0.00000000000E+00 0. -1.
<mgrwt>
<rscale>  4 0.45263136E+03</rscale>
<asrwt>0</asrwt>
<pdfrwt beam="1">  1       21 0.20640402E-01 0.45263136E+03</pdfrwt>
<pdfrwt beam="2">  1       21 0.30057302E+00 0.45263136E+03</pdfrwt>
<totfact> 0.58854167E+02</totfact>
</mgrwt>
</event>
<event>
 5    0  0.3120399E-003  0.5847002E+03  0.7546771E-02  0.9937667E-01
         21   -1    0    0  503  501  0.00000000000E+00  0.00000000000E+00  0.66217271315E+03  0.66217271315E+03  0.00000000000E+00 0.  1.
         21   -1    0    0  501  502 -0.00000000000E+00 -0.00000000000E+00 -0.12424196454E+04  0.12424196454E+04  0.00000000000E+00 0.  1.
         25    1    1    2    0    0  0.14770474315E+03 -0.34756613279E+03  0.34782488016E+03  0.52841844695E+03  0.12500000000E+03 0.  0.
         21    1    1    2  503  504 -0.25137727421E+03 -0.12360476831E+03  0.50967618886E+02  0.28472156735E+03  0.00000000000E+00 0.  1.
         21    1    1    2  504  502  0.10367253106E+03  0.47117090110E+03 -0.97903943129E+03  0.10914523443E+04  0.00000000000E+00 0.  1.
<mgrwt>
<rscale>  4 0.58470017E+03</rscale>
<asrwt>0</asrwt>
<pdfrwt beam="1">  1       21 0.10187273E+00 0.58470017E+03</pdfrwt>
<pdfrwt beam="2">  1       21 0.19114148E+00 0.58470017E+03</pdfrwt>
<totfact> 0.89719972E+01</totfact>
</mgrwt>
</event>
<event>
 5    0  0.3120399E-003  0.3550469E+03  0.7546771E-02  0.1060562E+00
         21   -1    0    0  502  501  0.00000000000E+00  0.00000000000E+00  0.58767998551E+03  0.58767998551E+03  0.00000000000E+00 0.  1.
         21   -1    0    0  503  502 -0.00000000000E+00 -0.00000000000E+00 -0.23424789354E+03  0.23424789354E+03  0.00000000000E+00 0.  1.
         25    1    1    2    0    0  0.46595516190E+02  0.23888933931E+03  0.18532226432E+03  0.33046724530E+03  0.12500000000E+03 0.  0.
         21    1    1    2  503  504 -0.18357292434E+03 -0.24501795829E+03  0.49440345111E+02  0.31012443658E+03  0.00000000000E+00 0.  1.
         21    1    1    2  504  501  0.13697740815E+03  0.61286189825E+01  0.11866948254E+03  0.18133619716E+03  0.00000000000E+00 0. -1.
<mgrwt>
<rscale>  4 0.35504688E+03</rscale>
<asrwt>0</asrwt>
<pdfrwt beam="1">  1       21 0.90412305E-01 0.35504688E+03</pdfrwt>
<pdfrwt beam="2">  1       21 0.36038138E-01 0.35504688E+03</pdfrwt>
<totfact> 0.70610819E+03</totfact>
</mgrwt>
</event>
<event>
 5    0  0.3120399E-003  0.3912044E+03  0.7546771E-02  0.1046869E+00
         21   -1    0    0  504  501  0.00000000000E+00  0.00000000000E+00  0.31056223089E+04  0.31056223089E+04  0.00000000000E+00 0. -1.
         21   -1    0    0  501  502 -0.00000000000E+00 -0.00000000000E+00 -0.53689345003E+02  0.53689345003E+02  0.00000000000E+00 0. -1.
         25    1    1    2    0    0 -0.22716408524E+03 -0.17259957039E+03  0.10887067692E+04  0.11323875497E+04  0.12500000000E+03 0.  0.
         21    1    1    2  503  502 -0.90843864856E+02  0.70882669228E+01  0.12866452348E+03  0.15766233194E+03  0.00000000000E+00 0.  1.
         21    1    1    2  504  503  0.31800795010E+03  0.16551130347E+03  0.18345616712E+04  0.18692617722E+04  0.00000000000E+00 0. -1.
<mgrwt>
<rscale>  4 0.39120437E+03</rscale>
<asrwt>0</asrwt>
<pdfrwt beam="1">  1       21 0.47778791E+00 0.39120437E+03</pdfrwt>
<pdfrwt beam="2">  1       21 0.82599017E-02 0.39120437E+03</pdfrwt>
<totfact> 0.24353469E+02</totfact>
</mgrwt>
</event>
<event>
 5    0  0.3120399E-003  0.2140025E+03  0.7546771E-02  0.1138435E+00
         21   -1    0    0  502  501  0.00000000000E+00  0.00000000000E+00  0.22897477026E+03  0.22897477026E+03  0.00000000000E+00 0.  1.
         21   -1    0    0  504  502 -0.00000000000E+00 -0.00000000000E+00 -0.27090229106E+03  0.27090229106E+03  0.00000000000E+00 0.  1.
         25    1    1    2    0    0 -0.14569649420E+03 -0.15060020552E+03  0.68001935010E+01  0.24408837120E+03  0.12500000000E+03 0.  0.
         21    1    1    2  503  501  0.11537483388E+03  0.46742131989E+02  0.22159668330E+02  0.12644061885E+03  0.00000000000E+00 0.  1.
         21    1    1    2  504  503  0.30321660323E+02  0.10385807353E+03 -0.70887382634E+02  0.12934807126E+03  0.00000000000E+00 0.  1.
<mgrwt>
<rscale>  4 0.21400248E+03</rscale>
<asrwt>0</asrwt>
<pdfrwt beam="1">  1       21 0.35226888E-01 0.21400248E+03</pdfrwt>
<pdfrwt beam="2">  1       21 0.41677275E-01 0.21400248E+03</pdfrwt>
<totfact> 0.42604320E+04</totfact>
</mgrwt>
</event>
<event>
 5    0  0.3120399E-003  0.3660360E+03  0.7546771E-02  0.1056219E+00
         21   -1    0    0  503  501  0.00000000000E+00  0.00000000000E+00  0.20619074854E+03  0.20619074854E+03  0.00000000000E+00 0.  1.
         21   -1    0    0  501  502 -0.00000000000E+00 -0.00000000000E+00 -0.68083950385E+03  0.68083950385E+03  0.00000000000E+00 0.  1.
         25    1    1    2    0    0  0.21059961177E+03 -0.20612981865E+03 -0.28098968138E+03  0.42593649721E+03  0.12500000000E+03 0.  0.
         21    1    1    2  503  504 -0.73774320027E+02 -0.75139916370E+02 -0.57245948394E+02  0.11985723147E+03  0.00000000000E+00 0. -1.
         21    1    1    2  504  502 -0.13682529174E+03  0.28126973502E+03 -0.13641312554E+03  0.34123652371E+03  0.00000000000E+00 0.  1.
<mgrwt>
<rscale>  4 0.36603604E+03</rscale>
<asrwt>0</asrwt>
<pdfrwt beam="1">  1       21 0.31721654E-01 0.36603604E+03</pdfrwt>
<pdfrwt beam="2">  1       21 0.10474454E+00 0.36603604E+03</pdfrwt>
<totfact> 0.63789130E+03</totfact>
</mgrwt>
</event>
<event>
 5    0  0.3120399E-003  0.2715786E+03  0.7546771E-02  0.1100379E+00
         21   -1    0    0  502  501  0.00000000000E+00  0.00000000000E+00  0.21512540917E+03  0.21512540917E+03  0.00000000000E+00 0. -1.
         21   -1    0    0  503  502 -0.00000000000E+00 -0.00000000000E+00 -0.56855653639E+03  0.56855653639E+03  0.00000000000E+00 0. -1.
         25    1    1    2    0    0 -0.78540133133E+02 -0.19362094125E+03 -0.40634084950E+03  0.47370402930E+03  0.12500000000E+03 0.  0.
         21    1    1    2  503  504  0.47729836544E+02 -0.35078221969E+02 -0.27896443206E+02  0.65473891718E+02  0.00000000000E+00 0.  1.
         21    1    1    2  504  501  0.30810296589E+02  0.22869916322E+03  0.80806165491E+02  0.24450402454E+03  0.00000000000E+00 0. -1.
<mgrwt>
<rscale>  4 0.27157864E+03</rscale>
<asrwt>0</asrwt>
<pdfrwt beam="1">  1       21 0.33096217E-01 0.27157864E+03</pdfrwt>
<pdfrwt beam="2">  1       21 0.87470236E-01 0.27157864E+03</pdfrwt>
<totfact> 0.93995596E+03</totfact>
</mgrwt>
</event>
<event>
 5    0  0.3120399E-003  0.3509424E+03  0.7546771E-02  0.1062229E+00
         21   -1    0    0  502  501  0.00000000000E+00  0.00000000000E+00  0.40577122171E+03  0.40577122171E+03  0.00000000000E+00 0. -1.
         21   -1    0    0  503  502 -0.00000000000E+00 -0.00000000000E+00 -0.31065757723E+03  0.31065757723E+03  0.00000000000E+00 0. -1.
         25    1    1    2    0    0  0.25089438287E+03  0.41645094861E+02 -0.40985764393E+02  0.28633396265E+03  0.12500000000E+03 0.  0.
         21    1    1    2  503  504 -0.27368709472E+03 -0.12709302543E+03  0.48521689869E+02  0.30563314172E+03  0.00000000000E+00 0. -1.
         21    1    1    2  504  501  0.22792711846E+02  0.85447930567E+02  0.87577718999E+02  0.12446169458E+03  0.00000000000E+00 0.  1.
<mgrwt>
<rscale>  4 0.35094240E+03</rscale>
<asrwt>0</asrwt>
<pdfrwt beam="1">  1       21 0.62426342E-01 0.35094240E+03</pdfrwt>
<pdfrwt beam="2">  1       21 0.47793473E-01 0.35094240E+03</pdfrwt>
<totfact> 0.91680313E+03</totfact>
</mgrwt>
</event>
<event>
 5    0  0.3120399E-003  0.3826119E+03  0.7546771E-02  0.1049973E+00
         21   -1    0    0  502  501  0.00000000000E+00  0.00000000000E+00  0.42350398953E+03  0.42350398953E+03  0.00000000000E+00 0.  1.
         21   -1    0    0  503  502 -0.00000000000E+00 -0.00000000000E+00 -0.35911713972E+03  0.35911713972E+03  0.00000000000E+00 0.  1.
         25    1    1    2    0    0  0.79105484137E+02 -0.19289870549E+03 -0.54769442232E+02  0.24918322577E+03  0.12500000000E+03 0.  0.
         21    1    1    2  503  504  0.14339132445E+02  0.34256455727E+03  0.91282465961E+02  0.35480780038E+03  0.00000000000E+00 0.  1.
         21    1    1    2  504  501 -0.93444616582E+02 -0.14966585178E+03  0.27873826089E+02  0.17863010311E+03  0.00000000000E+00 0.  1.
<mgrwt>
<rscale>  4 0.38261189E+03</rscale>
<asrwt>0</asrwt>
<pdfrwt beam="1">  1       21 0.65154460E-01 0.38261189E+03</pdfrwt>
<pdfrwt beam="2">  1       21 0.55248791E-01 0.38261189E+03</pdfrwt>
<totfact> 0.60560913E+03</totfact>
</mgrwt>
</event>
<event>
 5    0  0.3120399E-003  0.5074475E+03  0.7546771E-02  0.1011853E+00
         21   -1    0    0  504  501  0.00000000000E+00  0.00000000000E+00  0.47950536188E+03  0.47950536188E+03  0.00000000000E+00 0.  1.
         21   -1    0    0  501  502 -0.00000000000E+00 -0.00000000000E+00 -0.98293204803E+03  0.98293204803E+03  0.00000000000E+00 0.  1.
         25    1    1    2    0    0  0.13873824665E+03 -0.41201637837E+03  0.26428310301E+03  0.52390491090E+03  0.12500000000E+03 0.  0.
         21    1    1    2  503  502 -0.16173823188E+03  0.45500638076E+03 -0.73632709037E+03  0.88054962733E+03  0.00000000000E+00 0.  1.
         21    1    1    2  504  503  0.22999985225E+02 -0.42990002384E+02 -0.31382698792E+02  0.57982871685E+02  0.00000000000E+00 0.  1.
<mgrwt>
<rscale>  4 0.50744750E+03</rscale>
<asrwt>0</asrwt>
<pdfrwt beam="1">  1       21 0.73770057E-01 0.50744750E+03</pdfrwt>
<pdfrwt beam="2">  1       21 0.15122031E+00 0.50744750E+03</pdfrwt>
<totfact> 0.38989899E+02</totfact>
</mgrwt>
</event>
<event>
 5    0  0.3120399E-003  0.5113234E+03  0.7546771E-02  0.1010865E+00
         21   -1    0    0  502  501  0.00000000000E+00  0.00000000000E+00  0.18786303474E+04  0.18786303474E+04  0.00000000000E+00 0. -1.
         21   -1    0    0  504  502 -0.00000000000E+00 -0.00000000000E+00 -0.14042573191E+03  0.14042573191E+03  0.00000000000E+00 0. -1.
         25    1    1    2    0    0  0.32426848728E+03  0.34758434447E+02  0.68134735184E+03  0.76564836215E+03  0.12500000000E+03 0.  0.
         21    1    1    2  503  501 -0.48677954847E+03  0.98974895620E-01  0.90815978292E+03  0.10303924155E+04  0.00000000000E+00 0. -1.
         21    1    1    2  504  503  0.16251106119E+03 -0.34857409342E+02  0.14869748074E+03  0.22301530166E+03  0.00000000000E+00 0. -1.
<mgrwt>
<rscale>  4 0.51132335E+03</rscale>
<asrwt>0</asrwt>
<pdfrwt beam="1">  1       21 0.28902003E+00 0.51132335E+03</pdfrwt>
<pdfrwt beam="2">  1       21 0.21603960E-01 0.51132335E+03</pdfrwt>
<totfact> 0.61410362E+02</totfact>
</mgrwt>
</event>
<event>
 5    0  0.3120399E-003  0.2907103E+03  0.7546771E-02  0.1089979E+00
         21   -1    0    0  504  501  0.00000000000E+00  0.00000000000E+00  0.37667473183E+03  0.37667473183E+03  0.00000000000E+00 0. -1.
         21   -1    0    0  501  502 -0.00000000000E+00 -0.00000000000E+00 -0.25265277724E+03  0.25265277724E+03  0.00000000000E+00 0. -1.
         25    1    1    2    0    0  0.74751279226E+02  0.18700557987E+03  0.16334333392E+03  0.28786261547E+03  0.12500000000E+03 0.  0.
         21    1    1    2  503  502  0.46685975967E+02 -0.20370566504E+03  0.10255946456E+02  0.20923853077E+03  0.00000000000E+00 0. -1.
         21    1    1    2  504  503 -0.12143725519E+03  0.16700085171E+02 -0.49577325786E+02  0.13222636282E+03  0.00000000000E+00 0. -1.
<mgrwt>
<rscale>  4 0.29071028E+03</rscale>
<asrwt>0</asrwt>
<pdfrwt beam="1">  1       21 0.57949959E-01 0.29071028E+03</pdfrwt>
<pdfrwt beam="2">  1       21 0.38869658E-01 0.29071028E+03</pdfrwt>
<totfact> 0.16930641E+04</totfact>
</mgrwt>
</event>
<event>
 5    0  0.3120399E-003  0.1302303E+04  0.7546771E-02  0.9027741E-01
         21   -1    0    0  504  501  0.00000000000E+00  0.00000000000E+00  0.12032546794E+04  0.12032546794E+04  0.00000000000E+00 0.  1.
         21   -1    0    0  501  502 -0.00000000000E+00 -0.00000000000E+00 -0.14949748025E+04  0.14949748025E+04  0.00000000000E+00 0.  1.
         25    1    1    2    0    0  0.23865497384E+03 -0.31661899096E+03 -0.91851710378E+02  0.42575288452E+03  0.12500000000E+03 0.  0.
         21    1    1    2  503  502  0.67620373746E+02  0.12270383037E+04  0.17512994260E+03  0.12413162412E+04  0.00000000000E+00 0.  1.
         21    1    1    2  504  503 -0.30627534759E+03 -0.91041931278E+03 -0.37499835528E+03  0.10311603561E+04  0.00000000000E+00 0.  1.
<mgrwt>
<rscale>  4 0.13023027E+04</rscale>
<asrwt>0</asrwt>
<pdfrwt beam="1">  1       21 0.18511611E+00 0.13023027E+04</pdfrwt>
<pdfrwt beam="2">  1       21 0.22999612E+00 0.13023027E+04</pdfrwt>
<totfact> 0.77948683E+00</totfact>
</mgrwt>
</event>
<event>
 5    0  0.3120399E-003  0.2914360E+03  0.7546771E-02  0.1089602E+00
         21   -1    0    0  502  501  0.00000000000E+00  0.00000000000E+00  0.30820843683E+03  0.30820843683E+03  0.00000000000E+00 0.  1.
         21   -1    0    0  504  502 -0.00000000000E+00 -0.00000000000E+00 -0.35214292224E+03  0.35214292224E+03  0.00000000000E+00 0.  1.
         25    1    1    2    0    0 -0.23128009517E+03 -0.25919136308E+02 -0.15681777792E+03  0.30721181540E+03  0.12500000000E+03 0.  0.
         21    1    1    2  503  501  0.18709857033E+03 -0.89649986486E+02  0.94791435538E+02  0.22809737251E+03  0.00000000000E+00 0.  1.
         21    1    1    2  504  503  0.44181524839E+02  0.11556912279E+03  0.18091856972E+02  0.12504217116E+03  0.00000000000E+00 0.  1.
<mgrwt>
<rscale>  4 0.29143603E+03</rscale>
<asrwt>0</asrwt>
<pdfrwt beam="1">  1       21 0.47416683E-01 0.29143603E+03</pdfrwt>
<pdfrwt beam="2">  1       21 0.54175834E-01 0.29143603E+03</pdfrwt>
<totfact> 0.12982280E+04</totfact>
</mgrwt>
</event>
<event>
 5    0  0.3120399E-003  0.2646489E+03  0.7546771E-02  0.1104382E+00
         21   -1    0    0  502  501  0.00000000000E+00  0.00000000000E+00  0.79568709725E+03  0.79568709725E+03  0.00000000000E+00 0.  1.
         21   -1    0    0  504  502 -0.00000000000E+00 -0.00000000000E+00 -0.12024038252E+03  0.12024038252E+03  0.00000000000E+00 0.  1.
         25    1    1    2    0    0  0.16995652994E+03 -0.17088890412E+03  0.36411197443E+03  0.45419243669E+03  0.12500000000E+03 0.  0.
         21    1    1    2  503  501 -0.13761489346E+03  0.93001289633E+02  0.33519503156E+03  0.37408930478E+03  0.00000000000E+00 0.  1.
         21    1    1    2  504  503 -0.32341636484E+02  0.77887614492E+02 -0.23860291256E+02  0.87645738291E+02  0.00000000000E+00 0.  1.
<mgrwt>
<rscale>  4 0.26464889E+03</rscale>
<asrwt>0</asrwt>
<pdfrwt beam="1">  1       21 0.12241340E+00 0.26464889E+03</pdfrwt>
<pdfrwt beam="2">  1       21 0.18498521E-01 0.26464889E+03</pdfrwt>
<totfact> 0.12839602E+04</totfact>
</mgrwt>
</event>
<event>
 5    0  0.3120399E-003  0.2704542E+03  0.7546771E-02  0.1101020E+00
         21   -1    0    0  502  501  0.00000000000E+00  0.00000000000E+00  0.18783918063E+03  0.18783918063E+03  0.00000000000E+00 0. -1.
         21   -1    0    0  503  502 -0.00000000000E+00 -0.00000000000E+00 -0.45646776114E+03  0.45646776114E+03  0.00000000000E+00 0. -1.
         25    1    1    2    0    0  0.30204120199E+01 -0.21385982875E+03 -0.26456309383E+02  0.24913868738E+03  0.12500000000E+03 0.  0.
         21    1    1    2  503  504  0.46656842185E+02  0.23712754737E+03 -0.23950303828E+03  0.34024702790E+03  0.00000000000E+00 0. -1.
         21    1    1    2  504  501 -0.49677254205E+02 -0.23267718620E+02 -0.26692328439E+01  0.54921226490E+02  0.00000000000E+00 0.  1.
<mgrwt>
<rscale>  4 0.27045422E+03</rscale>
<asrwt>0</asrwt>
<pdfrwt beam="1">  1       21 0.28898336E-01 0.27045422E+03</pdfrwt>
<pdfrwt beam="2">  1       21 0.70225809E-01 0.27045422E+03</pdfrwt>
<totfact> 0.20241315E+04</totfact>
</mgrwt>
</event>
<event>
 5    0  0.3120399E-003  0.3944871E+03  0.7546771E-02  0.1045706E+00
         21   -1    0    0  503  501  0.00000000000E+00  0.00000000000E+00  0.10769448126E+03  0.10769448126E+03  0.00000000000E+00 0.  1.
         21   -1    0    0  501  502 -0.00000000000E+00 -0.00000000000E+00 -0.16814792536E+04  0.16814792536E+04  0.00000000000E+00 0.  1.
         25    1    1    2    0    0 -0.26004079004E+03 -0.79503851433E+02 -0.32046112815E+03  0.43847737631E+03  0.12500000000E+03 0.  0.
         21    1    1    2  503  504 -0.10752920725E+03  0.52450266948E+02 -0.18249739869E+03  0.21821746365E+03  0.00000000000E+00 0.  1.
         21    1    1    2  504  502  0.36756999729E+03  0.27053584484E+02 -0.10708262455E+04  0.11324788949E+04  0.00000000000E+00 0.  1.
<mgrwt>
<rscale>  4 0.39448706E+03</rscale>
<asrwt>0</asrwt>
<pdfrwt beam="1">  1       21 0.16568382E-01 0.39448706E+03</pdfrwt>
<pdfrwt beam="2">  1       21 0.25868910E+00 0.39448706E+03</pdfrwt>
<totfact> 0.16446153E+03</totfact>
</mgrwt>
</event>
<event>
 5    0  0.3120399E-003  0.2881632E+03  0.7546771E-02  0.1091312E+00
         21   -1    0    0  504  501  0.00000000000E+00  0.00000000000E+00  0.18981394160E+03  0.18981394160E+03  0.00000000000E+00 0.  1.
         21   -1    0    0  501  502 -0.00000000000E+00 -0.00000000000E+00 -0.43986600063E+03  0.43986600063E+03  0.00000000000E+00 0.  1.
         25    1    1    2    0    0 -0.37686705077E+02 -0.21322596213E+03 -0.13148160986E+03  0.28248541979E+03  0.12500000000E+03 0.  0.
         21    1    1    2  503  502 -0.34167215248E+02 -0.45001676910E+02 -0.72774537647E+01  0.56969385251E+02  0.00000000000E+00 0.  1.
         21    1    1    2  504  503  0.71853920324E+02  0.25822763904E+03 -0.11129299541E+03  0.29022513719E+03  0.00000000000E+00 0. -1.
<mgrwt>
<rscale>  4 0.28816316E+03</rscale>
<asrwt>0</asrwt>
<pdfrwt beam="1">  1       21 0.29202145E-01 0.28816316E+03</pdfrwt>
<pdfrwt beam="2">  1       21 0.67671692E-01 0.28816316E+03</pdfrwt>
<totfact> 0.21368058E+04</totfact>
</mgrwt>
</event>
<event>
 5    0  0.3120399E-003  0.4425205E+03  0.7546771E-02  0.1029976E+00
         21   -1    0    0  502  501  0.00000000000E+00  0.00000000000E+00  0.20792084568E+03  0.20792084568E+03  0.00000000000E+00 0. -1.
         21   -1    0    0  504  502 -0.00000000000E+00 -0.00000000000E+00 -0.95337352736E+03  0.95337352736E+03  0.00000000000E+00 0. -1.
         25    1    1    2    0    0  0.26698370092E+03  0.10013188792E+03 -0.16093451290E+03  0.35047340695E+03  0.12500000000E+03 0.  0.
         21    1    1    2  503  501  0.14146150418E+03 -0.10126778950E+02 -0.17770801633E+03  0.22736325096E+03  0.00000000000E+00 0. -1.
         21    1    1    2  504  503 -0.40844520510E+03 -0.90005108966E+02 -0.40681015244E+03  0.58345771513E+03  0.00000000000E+00 0. -1.
<mgrwt>
<rscale>  4 0.44252047E+03</rscale>
<asrwt>0</asrwt>
<pdfrwt beam="1">  1       21 0.31987822E-01 0.44252047E+03</pdfrwt>
<pdfrwt beam="2">  1       21 0.14667285E+00 0.44252047E+03</pdfrwt>
<totfact> 0.25725110E+03</totfact>
</mgrwt>
</event>
<event>
 5    0  0.3120399E-003  0.5946053E+03  0.7546771E-02  0.9916662E-01
         21   -1    0    0  502  501  0.00000000000E+00  0.00000000000E+00  0.65672564033E+03  0.65672564033E+03  0.00000000000E+00 0. -1.
         21   -1    0    0  503  502 -0.00000000000E+00 -0.00000000000E+00 -0.73431822235E+03  0.73431822235E+03  0.00000000000E+00 0. -1.
         25    1    1    2    0    0  0.47358293794E+02  0.29350327052E+03 -0.11975956046E+03  0.34402664158E+03  0.12500000000E+03 0.  0.
         21    1    1    2  503  504 -0.21010390574E+03 -0.42550944839E+03 -0.35857604738E+03  0.59479300907E+03  0.00000000000E+00 0. -1.
         21    1    1    2  504  501  0.16274561195E+03  0.13200617787E+03  0.40074302582E+03  0.45222421203E+03  0.00000000000E+00 0.  1.
<mgrwt>
<rscale>  4 0.59460525E+03</rscale>
<asrwt>0</asrwt>
<pdfrwt beam="1">  1       21 0.10103471E+00 0.59460525E+03</pdfrwt>
<pdfrwt beam="2">  1       21 0.11297203E+00 0.59460525E+03</pdfrwt>
<totfact> 0.38538232E+02</totfact>
</mgrwt>
</event>
<event>
 5    0  0.3120399E-003  0.2855055E+03  0.7546771E-02  0.1092719E+00
         21   -1    0    0  504  501  0.00000000000E+00  0.00000000000E+00  0.20531406592E+03  0.20531406592E+03  0.00000000000E+00 0.  1.
         21   -1    0    0  501  502 -0.00000000000E+00 -0.00000000000E+00 -0.43529317780E+03  0.43529317780E+03  0.00000000000E+00 0.  1.
         25    1    1    2    0    0 -0.19029423894E+03 -0.12265605432E+03  0.65435388049E+01  0.25869716453E+03  0.12500000000E+03 0.  0.
         21    1    1    2  503  502  0.20573388330E+03  0.58382205559E+02 -0.11315310247E+03  0.24194738532E+03  0.00000000000E+00 0. -1.
         21    1    1    2  504  503 -0.15439644357E+02  0.64273848761E+02 -0.12336954821E+03  0.13996269388E+03  0.00000000000E+00 0. -1.
<mgrwt>
<rscale>  4 0.28550548E+03</rscale>
<asrwt>0</asrwt>
<pdfrwt beam="1">  1       21 0.31586780E-01 0.28550548E+03</pdfrwt>
<pdfrwt beam="2">  1       21 0.66968180E-01 0.28550548E+03</pdfrwt>
<totfact> 0.18755017E+04</totfact>
</mgrwt>
</event>
<event>
 5    0  0.3120399E-003  0.3234561E+03  0.7546771E-02  0.1074070E+00
         21   -1    0    0  502  501  0.00000000000E+00  0.00000000000E+00  0.22752650018E+03  0.22752650018E+03  0.00000000000E+00 0.  1.
         21   -1    0    0  503  502 -0.00000000000E+00 -0.00000000000E+00 -0.47342464426E+03  0.47342464426E+03  0.00000000000E+00 0.  1.
         25    1    1    2    0    0 -0.23549408805E+03 -0.59381628195E+02 -0.16628445851E+01  0.27315088930E+03  0.12500000000E+03 0.  0.
         21    1    1    2  503  504 -0.27368667786E+02 -0.22274521016E+02 -0.12132275769E+03  0.12635034545E+03  0.00000000000E+00 0. -1.
         21    1    1    2  504  501  0.26286275584E+03  0.81656149212E+02 -0.12291254181E+03  0.30144990968E+03  0.00000000000E+00 0.  1.
<mgrwt>
<rscale>  4 0.32345605E+03</rscale>
<asrwt>0</asrwt>
<pdfrwt beam="1">  1       21 0.35004077E-01 0.32345605E+03</pdfrwt>
<pdfrwt beam="2">  1       21 0.72834561E-01 0.32345605E+03</pdfrwt>
<totfact> 0.12474080E+04</totfact>
</mgrwt>
</event>
<event>
 5    0  0.3120399E-003  0.3297849E+03  0.7546771E-02  0.1071232E+00
         21   -1    0    0  504  501  0.00000000000E+00  0.00000000000E+00  0.31093165623E+03  0.31093165623E+03  0.00000000000E+00 0. -1.
         21   -1    0    0  501  502 -0.00000000000E+00 -0.00000000000E+00 -0.38795905984E+03  0.38795905984E+03  0.00000000000E+00 0. -1.
         25    1    1    2    0    0 -0.14122595044E+03 -0.29077744809E+03  0.12321321112E+02  0.34680413543E+03  0.12500000000E+03 0.  0.
         21    1    1    2  503  502  0.78822291516E+02  0.54116644304E+02 -0.19706342219E+02  0.97621231063E+02  0.00000000000E+00 0.  1.
         21    1    1    2  504  503  0.62403658922E+02  0.23666080379E+03 -0.69642382505E+02  0.25446534958E+03  0.00000000000E+00 0. -1.
<mgrwt>
<rscale>  4 0.32978490E+03</rscale>
<asrwt>0</asrwt>
<pdfrwt beam="1">  1       21 0.47835640E-01 0.32978490E+03</pdfrwt>
<pdfrwt beam="2">  1       21 0.59686009E-01 0.32978490E+03</pdfrwt>
<totfact> 0.10178929E+04</totfact>
</mgrwt>
</event>
<event>
 5    0  0.3120399E-003  0.2596868E+03  0.7546771E-02  0.1107332E+00
         21   -1    0    0  503  501  0.00000000000E+00  0.00000000000E+00  0.39697572334E+03  0.39697572334E+03  0.00000000000E+00 0.  1.
         21   -1    0    0  501  502 -0.00000000000E+00 -0.00000000000E+00 -0.34057583468E+03  0.34057583468E+03  0.00000000000E+00 0.  1.
         25    1    1    2    0    0  0.20577408383E+03 -0.23569131804E+03 -0.71994770750E+02  0.34453101166E+03  0.12500000000E+03 0.  0.
         21    1    1    2  503  504 -0.14566558515E+03  0.12296885656E+03 -0.26257335500E+02  0.19242985747E+03  0.00000000000E+00 0.  1.
         21    1    1    2  504  502 -0.60108498682E+02  0.11272246149E+03  0.15465199492E+03  0.20059068889E+03  0.00000000000E+00 0.  1.
<mgrwt>
<rscale>  4 0.25968679E+03</rscale>
<asrwt>0</asrwt>
<pdfrwt beam="1">  1       21 0.61073188E-01 0.25968679E+03</pdfrwt>
<pdfrwt beam="2">  1       21 0.52396282E-01 0.25968679E+03</pdfrwt>
<totfact> 0.82605645E+03</totfact>
</mgrwt>
</event>
<event>
 5    0  0.3120399E-003  0.2744101E+03  0.7546771E-02  0.1098782E+00
         21   -1    0    0  502  501  0.00000000000E+00  0.00000000000E+00  0.14782185188E+04  0.14782185188E+04  0.00000000000E+00 0.  1.
         21   -1    0    0  504  502 -0.00000000000E+00 -0.00000000000E+00 -0.13475504525E+03  0.13475504525E+03  0.00000000000E+00 0.  1.
         25    1    1    2    0    0 -0.14775308751E+03 -0.34918122584E+03  0.32773812881E+03  0.51652278210E+03  0.12500000000E+03 0.  0.
         21    1    1    2  503  501  0.18191987629E+03  0.25954332133E+03  0.77283809297E+03  0.83530610856E+03  0.00000000000E+00 0.  1.
         21    1    1    2  504  503 -0.34166788776E+02  0.89637904505E+02  0.24288725181E+03  0.26114467345E+03  0.00000000000E+00 0. -1.
<mgrwt>
<rscale>  4 0.27441010E+03</rscale>
<asrwt>0</asrwt>
<pdfrwt beam="1">  1       21 0.22741822E+00 0.27441010E+03</pdfrwt>
<pdfrwt beam="2">  1       21 0.20731546E-01 0.27441010E+03</pdfrwt>
<totfact> 0.18126390E+03</totfact>
</mgrwt>
</event>
<event>
 5    0  0.3120399E-003  0.3568443E+03  0.7546771E-02  0.1059840E+00
         21   -1    0    0  504  501  0.00000000000E+00  0.00000000000E+00  0.11997812281E+03  0.11997812281E+03  0.00000000000E+00 0.  1.
         21   -1    0    0  501  502 -0.00000000000E+00 -0.00000000000E+00 -0.11191021741E+04  0.11191021741E+04  0.00000000000E+00 0.  1.
         25    1    1    2    0    0  0.19610746979E+03  0.57629027719E+02 -0.22482335933E+03  0.32855712965E+03  0.12500000000E+03 0.  0.
         21    1    1    2  503  502  0.32421179789E+02  0.15847112016E+03 -0.21786011897E+03  0.27134343601E+03  0.00000000000E+00 0.  1.
         21    1    1    2  504  503 -0.22852864958E+03 -0.21610014788E+03 -0.55644057303E+03  0.63917973130E+03  0.00000000000E+00 0.  1.
<mgrwt>
<rscale>  4 0.35684433E+03</rscale>
<asrwt>0</asrwt>
<pdfrwt beam="1">  1       21 0.18458173E-01 0.35684433E+03</pdfrwt>
<pdfrwt beam="2">  1       21 0.17216956E+00 0.35684433E+03</pdfrwt>
<totfact> 0.49707811E+03</totfact>
</mgrwt>
</event>
<event>
 5    0  0.3120399E-003  0.5183633E+03  0.7546771E-02  0.1009094E+00
         21   -1    0    0  503  501  0.00000000000E+00  0.00000000000E+00  0.57768175000E+03  0.57768175000E+03  0.00000000000E+00 0.  1.
         21   -1    0    0  501  502 -0.00000000000E+00 -0.00000000000E+00 -0.51650925289E+03  0.51650925289E+03  0.00000000000E+00 0.  1.
         25    1    1    2    0    0 -0.19591930661E+03  0.16021477045E+03  0.15297827979E+03  0.32106152286E+03  0.12500000000E+03 0.  0.
         21    1    1    2  503  504  0.19528966545E+03  0.26697893069E+03  0.20514456395E+02  0.33141612179E+03  0.00000000000E+00 0.  1.
         21    1    1    2  504  502  0.62964115612E+00 -0.42719370114E+03 -0.11232023908E+03  0.44171335824E+03  0.00000000000E+00 0. -1.
<mgrwt>
<rscale>  4 0.51836328E+03</rscale>
<asrwt>0</asrwt>
<pdfrwt beam="1">  1       21 0.88874115E-01 0.51836328E+03</pdfrwt>
<pdfrwt beam="2">  1       21 0.79462962E-01 0.51836328E+03</pdfrwt>
<totfact> 0.12595376E+03</totfact>
</mgrwt>
</event>
<event>
 5    0  0.3120399E-003  0.3429276E+03  0.7546771E-02  0.1065556E+00
         21   -1    0    0  502  501  0.00000000000E+00  0.00000000000E+00  0.81166613966E+03  0.81166613966E+03  0.00000000000E+00 0.  1.
         21   -1    0    0  503  502 -0.00000000000E+00 -0.00000000000E+00 -0.18433727278E+03  0.18433727278E+03  0.00000000000E+00 0.  1.
         25    1    1    2    0    0 -0.85664831549E+02 -0.21931002594E+03 -0.23530468931E+02  0.26760798533E+03  0.12500000000E+03 0.  0.
         21    1    1    2  503  504  0.99406423632E+02  0.25115417666E+03  0.45219262478E+03  0.52672405244E+03  0.00000000000E+00 0.  1.
         21    1    1    2  504  501 -0.13741592082E+02 -0.31844150722E+02  0.19866671104E+03  0.20167137467E+03  0.00000000000E+00 0. -1.
<mgrwt>
<rscale>  4 0.34292763E+03</rscale>
<asrwt>0</asrwt>
<pdfrwt beam="1">  1       21 0.12487171E+00 0.34292763E+03</pdfrwt>
<pdfrwt beam="2">  1       21 0.28359581E-01 0.34292763E+03</pdfrwt>
<totfact> 0.51891058E+03</totfact>
</mgrwt>
</event>
<event>
 5    0  0.3120399E-003  0.5817912E+03  0.7546771E-02  0.9943921E-01
         21   -1    0    0  502  501  0.00000000000E+00  0.00000000000E+00  0.39550925616E+03  0.39550925616E+03  0.00000000000E+00 0.  1.
         21   -1    0    0  504  502 -0.00000000000E+00 -0.00000000000E+00 -0.89014711337E+03  0.89014711337E+03  0.00000000000E+00 0.  1.
         25    1    1    2    0    0  0.39565315353E+02  0.22646239534E+03 -0.23819542096E+02  0.26276034949E+03  0.12500000000E+03 0.  0.
         21    1    1    2  503  501  0.16125353890E+03 -0.51998530883E+03 -0.35033414167E+03  0.64739588818E+03  0.00000000000E+00 0.  1.
         21    1    1    2  504  503 -0.20081885426E+03  0.29352291349E+03 -0.12048417345E+03  0.37550013185E+03  0.00000000000E+00 0.  1.
<mgrwt>
<rscale>  4 0.58179123E+03</rscale>
<asrwt>0</asrwt>
<pdfrwt beam="1">  1       21 0.60847578E-01 0.58179123E+03</pdfrwt>
<pdfrwt beam="2">  1       21 0.13694571E+00 0.58179123E+03</pdfrwt>
<totfact> 0.76366980E+02</totfact>
</mgrwt>
</event>
