<event>
 5    0  0.2159162E+000  0.2781494E+03  0.7546771E-02  0.1096704E+00
         21   -1    0    0  502  501  0.00000000000E+00  0.00000000000E+00  0.46320927554E+03  0.46320927554E+03  0.00000000000E+00 0. -1.
         21   -1    0    0  503  502 -0.00000000000E+00 -0.00000000000E+00 -0.17600991735E+03  0.17600991735E+03  0.00000000000E+00 0. -1.
         25    1    1    2    0    0  0.24578704423E+03 -0.36480266005E+02  0.24072005227E+03  0.36784945900E+03  0.12500000000E+03 0.  0.
         21    1    1    2  503  504 -0.75455211552E+02  0.55141504492E+02  0.34425985550E+02  0.99595295818E+02  0.00000000000E+00 0.  1.
         21    1    1    2  504  501 -0.17033183268E+03 -0.18661238487E+02  0.12053320373E+02  0.17177443808E+03  0.00000000000E+00 0. -1.
<mgrwt>
<rscale>  4 0.27814939E+03</rscale>
<asrwt>0</asrwt>
<pdfrwt beam="1">  1       21 0.71262965E-01 0.27814939E+03</pdfrwt>
<pdfrwt beam="2">  1       21 0.27078449E-01 0.27814939E+03</pdfrwt>
<totfact> 0.22164809E+04</totfact>
</mgrwt>
</event>
<event>
 5    0  0.2159162E+000  0.3285225E+03  0.7546771E-02  0.1071793E+00
         21   -1    0    0  502  501  0.00000000000E+00  0.00000000000E+00  0.29158430188E+03  0.29158430188E+03  0.00000000000E+00 0. -1.
         21   -1    0    0  503  502 -0.00000000000E+00 -0.00000000000E+00 -0.12314397356E+04  0.12314397356E+04  0.00000000000E+00 0. -1.
         25    1    1    2    0    0 -0.20120333807E+03 -0.22763839472E+03  0.16950393346E+03  0.36967364723E+03  0.12500000000E+03 0.  0.
         21    1    1    2  503  504  0.79614282402E+02  0.12436463069E+03 -0.66571594874E+03  0.68189641423E+03  0.00000000000E+00 0. -1.
         21    1    1    2  504  501  0.12158905566E+03  0.10327376403E+03 -0.44364341838E+03  0.47145397598E+03  0.00000000000E+00 0. -1.
<mgrwt>
<rscale>  4 0.32852248E+03</rscale>
<asrwt>0</asrwt>
<pdfrwt beam="1">  1       21 0.44859123E-01 0.32852248E+03</pdfrwt>
<pdfrwt beam="2">  1       21 0.18945227E+00 0.32852248E+03</pdfrwt>
<totfact> 0.66578236E+02</totfact>
</mgrwt>
</event>
<event>
 5    0  0.2159162E+000  0.2588487E+03  0.7546771E-02  0.1107837E+00
         21   -1    0    0  502  501  0.00000000000E+00  0.00000000000E+00  0.23838148754E+03  0.23838148754E+03  0.00000000000E+00 0.  1.
         21   -1    0    0  503  502 -0.00000000000E+00 -0.00000000000E+00 -0.46779492604E+03  0.46779492604E+03  0.00000000000E+00 0.  1.
         25    1    1    2    0    0 -0.23051367599E+03  0.10935777820E+03 -0.26807380037E+03  0.39062032834E+03  0.12500000000E+03 0.  0.
         21    1    1    2  503  504  0.64530550090E+02 -0.10219911504E+02  0.93982341173E+02  0.11446099309E+03  0.00000000000E+00 0. -1.
         21    1    1    2  504  501  0.16598312590E+03 -0.99137866694E+02 -0.55321979302E+02  0.20109509216E+03  0.00000000000E+00 0.  1.
<mgrwt>
<rscale>  4 0.25884873E+03</rscale>
<asrwt>0</asrwt>
<pdfrwt beam="1">  1       21 0.36674075E-01 0.25884873E+03</pdfrwt>
<pdfrwt beam="2">  1       21 0.71968449E-01 0.25884873E+03</pdfrwt>
<totfact> 0.12014920E+04</totfact>
</mgrwt>
</event>
