<event>
 5    0  0.1911311E+001  0.3243592E+03  0.7546771E-02  0.1073660E+00
         21   -1    0    0  504  501  0.00000000000E+00  0.00000000000E+00  0.11441635677E+03  0.11441635677E+03  0.00000000000E+00 0. -1.
         21   -1    0    0  503  502 -0.00000000000E+00 -0.00000000000E+00 -0.19739874570E+04  0.19739874570E+04  0.00000000000E+00 0. -1.
         25    1    1    2    0    0  0.14243318130E+03 -0.33338471623E+03 -0.51861030902E+03  0.64499165326E+03  0.12500000000E+03 0.  0.
         21    1    1    2  503  501 -0.11858914866E+03  0.25843143238E+03 -0.13345408791E+04  0.13644960789E+04  0.00000000000E+00 0. -1.
         21    1    1    2  504  502 -0.23844032641E+02  0.74953283859E+02 -0.64199120693E+01  0.78916081535E+02  0.00000000000E+00 0. -1.
<mgrwt>
<rscale>  4 0.32435919E+03</rscale>
<asrwt>0</asrwt>
<pdfrwt beam="1">  1       21 0.17602516E-01 0.32435919E+03</pdfrwt>
<pdfrwt beam="2">  1       21 0.30369038E+00 0.32435919E+03</pdfrwt>
<totfact> 0.82915777E+02</totfact>
</mgrwt>
</event>
<event>
 5    0  0.1911311E+001  0.3970296E+03  0.7546771E-02  0.1044813E+00
         21   -1    0    0  504  501  0.00000000000E+00  0.00000000000E+00  0.86972244390E+03  0.86972244390E+03  0.00000000000E+00 0. -1.
         21   -1    0    0  503  502 -0.00000000000E+00 -0.00000000000E+00 -0.70112683918E+03  0.70112683918E+03  0.00000000000E+00 0. -1.
         25    1    1    2    0    0 -0.47014153023E+03  0.12966060221E+03 -0.67599226356E+02  0.50797596953E+03  0.12500000000E+03 0.  0.
         21    1    1    2  503  501  0.33154558962E+03 -0.78585233243E+02 -0.33203608025E+03  0.47575842133E+03  0.00000000000E+00 0. -1.
         21    1    1    2  504  502  0.13859594061E+03 -0.51075368971E+02  0.56823091133E+03  0.58711489221E+03  0.00000000000E+00 0. -1.
<mgrwt>
<rscale>  4 0.39702955E+03</rscale>
<asrwt>0</asrwt>
<pdfrwt beam="1">  1       21 0.13380345E+00 0.39702955E+03</pdfrwt>
<pdfrwt beam="2">  1       21 0.10786567E+00 0.39702955E+03</pdfrwt>
<totfact> 0.23210287E+02</totfact>
</mgrwt>
</event>
<event>
 5    0  0.1911311E+001  0.3119334E+03  0.7546771E-02  0.1079423E+00
         21   -1    0    0  504  501  0.00000000000E+00  0.00000000000E+00  0.16297167101E+04  0.16297167101E+04  0.00000000000E+00 0.  1.
         21   -1    0    0  503  502 -0.00000000000E+00 -0.00000000000E+00 -0.31581229936E+03  0.31581229936E+03  0.00000000000E+00 0. -1.
         25    1    1    2    0    0 -0.23654636901E+03  0.18685386493E+03 -0.95260534072E+02  0.33995311572E+03  0.12500000000E+03 0.  0.
         21    1    1    2  503  501  0.42574888262E+01 -0.21991359976E+02 -0.83255074176E+02  0.86215738127E+02  0.00000000000E+00 0. -1.
         21    1    1    2  504  502  0.23228888019E+03 -0.16486250495E+03  0.14924200190E+04  0.15193601557E+04  0.00000000000E+00 0.  1.
<mgrwt>
<rscale>  4 0.31193342E+03</rscale>
<asrwt>0</asrwt>
<pdfrwt beam="1">  1       21 0.25072564E+00 0.31193342E+03</pdfrwt>
<pdfrwt beam="2">  1       21 0.48586508E-01 0.31193342E+03</pdfrwt>
<totfact> 0.23364632E+02</totfact>
</mgrwt>
</event>
