<LesHouchesEvents version="3.0">
  <!--
  <scalesfunctionalform>
    muR  H_T/2 := sum_i mT(i)/2, i=final state
    muF1 H_T/2 := sum_i mT(i)/2, i=final state
    muF2 H_T/2 := sum_i mT(i)/2, i=final state
    QES  H_T/2 := sum_i mT(i)/2, i=final state
  </scalesfunctionalform>
HERWIG6   
  -->
  <header>
      163
  </header>
  <init>
   2212   2212 0.65000000D+04 0.65000000D+04 -1 -1   247000   247000 -3   1
 0.33540966D-01 0.83649051D-03 0.44337718D-03     66
  </init>
  <event>
  5     66 0.44337718E-03 0.15109942E+03 0.75467711E-02 0.10600002E+00
        1 -1    0    0  502    0 0.00000000E+00 0.00000000E+00 0.61464719E+03 0.61464727E+03 0.32000000E+00 0.0000E+00 0.9000E+01
       -2 -1    0    0    0  501 0.00000000E+00 0.00000000E+00 -.13876526E+03 0.13876563E+03 0.32000000E+00 0.0000E+00 0.9000E+01
       25  1    1    2    0    0 0.70007674E+02 -.43814963E+02 0.27878674E+03 0.31649308E+03 0.12500000E+03 0.0000E+00 0.9000E+01
      -24  1    1    2    0    0 -.71427151E+02 0.19490635E+03 0.54567933E+02 0.22920558E+03 0.80419002E+02 0.0000E+00 0.9000E+01
       21  1    1    2  502  501 0.14194774E+01 -.15109139E+03 0.14252725E+03 0.20771423E+03 0.75000000E+00 0.0000E+00 0.9000E+01
#aMCatNLO 1  0  0  2  2 0.16158103D+03 0.00000000D+00  -5  6  0 0.00000000D+00 0.00000000D+00 0.00000000D+00 0.00000000D+00 0.00000000D+00
  <mgrwgt>
 0.4012061605D-01    3    2    0
 0.292047683015168D+03 0.000000000000000D+00 0.000000000000000D+00 0.292047683015168D+03
 0.292047683015168D+03 0.000000000000000D+00 0.000000000000000D+00 -.292047683015168D+03
 0.181101081045231D+03 0.700076686940258D+02 -.438143912821640D+02 0.101743928547862D+03
 0.251190031955544D+03 -.714271588873242D+02 0.194907147362680D+03 -.116355408467694D+03
 0.151804253029561D+03 0.141949019329833D+01 -.151092756080516D+03 0.146114799198317D+02
 0.000000000000000D+00 -.000000000000000D+00 -.000000000000000D+00 0.000000000000000D+00
 0.617105257635562D+03 0.000000000000000D+00 0.000000000000000D+00 0.617105257635562D+03
 0.323797516159133D+03 0.000000000000000D+00 0.000000000000000D+00 -.323797516159133D+03
 0.185690355552484D+03 0.922144555029575D+02 0.758515094484650D+00 0.101743928547862D+03
 0.300073190772215D+03 -.380518299094387D+02 0.261897271896266D+03 -.116355408467694D+03
 0.120269312173124D+03 0.178917386046715D+02 -.118030071570134D+03 0.146114799198317D+02
 0.334869915296872D+03 -.720543641981903D+02 -.144625715420617D+03 0.293307741476429D+03
0.544358346765D-03 0.000000000000D+00 0.000000000000D+00 0.568337209734D-06 0.000000000000D+00  6 1 -2 25 -24 21 21 2 0.94561140D-01 0.21348537D-01 0.68522091D+05 0.68522091D+05 0.68522091D+05 0.11789609D+01  1  2  2  2  6  2       -2 0.426142244140D-01 0.100000000000D+01
-.418994744627D-04 0.287265791770D-04 -.209047938442D-05 0.568337209734D-06 0.000000000000D+00  6 1 -2 25 -24 21 21 4 0.94561140D-01 0.21348537D-01 0.68522091D+05 0.68522091D+05 0.68522091D+05 0.11789609D+01  1  2  3  2  6  2       -2 -.455907834217D-02 0.100000000000D+01
0.189823688241D-04 0.000000000000D+00 0.000000000000D+00 0.568337209734D-06 0.000000000000D+00  6 1 -2 25 -24 21 21 4 0.94561140D-01 0.21348537D-01 0.68522091D+05 0.68522091D+05 0.68522091D+05 0.11789609D+01  1  2 15  2  6  2       -2 0.206546997781D-02 0.100000000000D+01
  </mgrwgt>
  </event>
  <event>
  6     66 0.44337718E-03 0.57183896E+02 0.75467711E-02 0.11453130E+00
        3 -1    0    0  502    0 0.00000000E+00 0.00000000E+00 0.19528540E+02 0.19534940E+02 0.50000000E+00 0.0000E+00 0.9000E+01
       21 -1    0    0  503  501 0.00000000E+00 0.00000000E+00 -.25723034E+04 0.25723035E+04 0.75000000E+00 0.0000E+00 0.9000E+01
       25  1    1    2    0    0 0.59048067E+02 -.86473121E+02 -.81151238E+03 0.82773282E+03 0.12500000E+03 0.0000E+00 0.9000E+01
      -24  1    1    2    0    0 -.38573852E+02 0.14389063E+03 -.15087502E+04 0.15182183E+04 0.80419002E+02 0.0000E+00 0.9000E+01
        4  1    1    2  503    0 0.13751588E+02 -.30697405E+01 -.63944228E+02 0.65496536E+02 0.15500000E+01 0.0000E+00 0.9000E+01
       21  1    1    2  502  501 -.34225804E+02 -.54347764E+02 -.16856806E+03 0.18039080E+03 0.75000000E+00 0.0000E+00 0.9000E+01
#aMCatNLO 2  0  0  2  2 0.14090049D+02 0.00000000D+00  -5  6  0 0.00000000D+00 0.00000000D+00 0.00000000D+00 0.00000000D+00 0.00000000D+00
  <mgrwgt>
 0.6162177949D-03    1    2    0
 0.216752750212363D+03 0.000000000000000D+00 0.000000000000000D+00 0.216752750212363D+03
 0.216752750212363D+03 0.000000000000000D+00 0.000000000000000D+00 -.216752750212363D+03
 0.167233245541024D+03 0.643113342971394D+02 -.876470484782258D+02 0.228911683441778D+02
 0.183488150534845D+03 -.327202869946362D+02 0.142585022513246D+03 -.761549709881969D+02
 0.000000000000000D+00 0.000000000000000D+00 -.000000000000000D+00 0.000000000000000D+00
 0.827841043488576D+02 -.315910473025033D+02 -.549379740350200D+02 0.532638026440191D+02
 0.225799985489452D+03 0.000000000000000D+00 0.000000000000000D+00 0.225799985489452D+03
 0.222423420829614D+03 0.000000000000000D+00 0.000000000000000D+00 -.222423420829614D+03
 0.164660836461774D+03 0.590485797627644D+02 -.864722539554166D+02 0.228911683441778D+02
 0.185632665990768D+03 -.385733357720651D+02 0.143891587279006D+03 -.761549709881969D+02
 0.144889848227057D+02 0.137515884704529D+02 -.306974051506521D+01 0.337656465983828D+01
 0.834409190438191D+02 -.342268324611522D+02 -.543495928085241D+02 0.532638026440191D+02
0.129761241196D-04 0.000000000000D+00 0.000000000000D+00 0.427757798416D-05 0.938505007323D-09  6 3 21 25 -24 4 21 4 0.30043364D-02 0.39566638D+00 0.42163129D+05 0.42163129D+05 0.42163129D+05 0.11996844D+01  1  2  1  5  5  2       -4 0.616217794910D-03 0.100000000000D+01
  </mgrwgt>
  </event>
  <event>
  5     66 0.44337718E-03 0.27248707E+02 0.75467711E-02 0.10982536E+00
        1 -1    0    0  502    0 0.00000000E+00 0.00000000E+00 0.87430054E+03 0.87430059E+03 0.32000000E+00 0.0000E+00 0.9000E+01
       -2 -1    0    0    0  501 0.00000000E+00 0.00000000E+00 -.41245436E+02 0.41246678E+02 0.32000000E+00 0.0000E+00 0.9000E+01
       25  1    1    2    0    0 0.28018897E+02 0.61772349E+02 0.12058553E+03 0.18645845E+03 0.12500000E+03 0.0000E+00 0.9000E+01
      -24  1    1    2    0    0 -.52495946E+01 -.46805078E+02 0.26721411E+03 0.28299977E+03 0.80419002E+02 0.0000E+00 0.9000E+01
       21  1    1    2  502  501 -.22769302E+02 -.14967271E+02 0.44525546E+03 0.44608906E+03 0.75000000E+00 0.0000E+00 0.9000E+01
#aMCatNLO 1  0  0  2  2 0.14090049D+02 0.00000000D+00  -5  6  0 0.00000000D+00 0.00000000D+00 0.00000000D+00 0.00000000D+00 0.00000000D+00
  <mgrwgt>
 0.2149802829D+00    5    4    0
 0.189898662759423D+03 0.000000000000000D+00 0.000000000000000D+00 0.189898662759423D+03
 0.189898662759423D+03 0.000000000000000D+00 0.000000000000000D+00 -.189898662759423D+03
 0.184986816964633D+03 0.280192170831856D+02 0.617725592190995D+02 -.118297070345274D+03
 0.960920485077949D+02 -.524942838444792D+01 -.468049688664865D+02 0.234137614043036D+02
 0.987184600464187D+02 -.227697886987377D+02 -.149675903526129D+02 0.948833089409700D+02
 0.000000000000000D+00 0.000000000000000D+00 0.000000000000000D+00 -.000000000000000D+00
 0.309577689854637D+03 0.000000000000000D+00 0.000000000000000D+00 0.309577689854637D+03
 0.334658852184613D+03 0.000000000000000D+00 0.000000000000000D+00 -.334658852184613D+03
 0.173838408328197D+03 -.816616886618402D+01 -.231064719041097D+02 -.118297070345274D+03
 0.134544562056523D+03 -.285077563364852D+02 -.101361367542930D+03 0.234137614043036D+02
 0.125198198496026D+03 -.453504495294785D+02 -.679344045277282D+02 0.948833089409700D+02
 0.210655373158504D+03 0.820243747321478D+02 0.192402243974768D+03 -.250811623299763D+02
 0.189898662759423D+03 0.000000000000000D+00 0.000000000000000D+00 0.189898662759423D+03
 0.189898662759423D+03 0.000000000000000D+00 0.000000000000000D+00 -.189898662759423D+03
 0.184986816964633D+03 0.280192170831856D+02 0.617725592190995D+02 -.118297070345274D+03
 0.960920485077949D+02 -.524942838444792D+01 -.468049688664865D+02 0.234137614043036D+02
 0.000000000000000D+00 0.000000000000000D+00 0.000000000000000D+00 -.000000000000000D+00
 0.987184600464187D+02 -.227697886987377D+02 -.149675903526129D+02 0.948833089409700D+02
 0.309577689854637D+03 0.000000000000000D+00 0.000000000000000D+00 0.309577689854637D+03
 0.334658852184613D+03 0.000000000000000D+00 0.000000000000000D+00 -.334658852184613D+03
 0.173838408328197D+03 -.816616886618402D+01 -.231064719041097D+02 -.118297070345274D+03
 0.134544562056523D+03 -.285077563364852D+02 -.101361367542930D+03 0.234137614043036D+02
 0.210655373158504D+03 0.820243747321478D+02 0.192402243974768D+03 -.250811623299763D+02
 0.125198198496026D+03 -.453504495294785D+02 -.679344045277282D+02 0.948833089409700D+02
0.342276727633D-03 0.000000000000D+00 0.000000000000D+00 0.294043218199D-04 0.000000000000D+00  6 1 -2 25 -24 21 21 2 0.13450787D+00 0.63455517D-02 0.17247897D+05 0.17247897D+05 0.17247897D+05 0.12409677D+01  1  2  2  2  6  2       -2 0.123991853505D+00 0.100000000000D+01
0.366412318354D-04 0.180624391547D-04 -.131443275764D-05 0.294043218199D-04 0.000000000000D+00  6 1 -2 25 -24 21 21 4 0.13450787D+00 0.63455517D-02 0.17247897D+05 0.17247897D+05 0.17247897D+05 0.12409677D+01  1  2  3  2  6  2       -2 0.204412182385D-01 0.100000000000D+01
0.214247122627D-04 0.000000000000D+00 0.000000000000D+00 0.294043218199D-04 0.000000000000D+00  6 1 -2 25 -24 21 21 4 0.13450787D+00 0.63455517D-02 0.17247897D+05 0.17247897D+05 0.17247897D+05 0.12409677D+01  1  2 15  2  6  2       -2 0.119523061076D-01 0.100000000000D+01
0.164895688085D-03 0.000000000000D+00 -.170633290422D-03 0.294043218199D-04 0.000000000000D+00  6 1 -2 25 -24 21 21 4 0.13450787D+00 0.18552588D-01 0.17247897D+05 0.17247897D+05 0.17247897D+05 0.12409677D+01  1  2  5  2  6  2       -2 0.167745939165D-01 0.100000000000D+01
0.289618439885D-04 0.000000000000D+00 -.207273634533D-04 0.294043218199D-04 0.000000000000D+00  6 1 21 25 -24 2 21 4 0.13450787D+00 0.18552588D-01 0.17247897D+05 0.17247897D+05 0.17247897D+05 0.12409677D+01  3  4  5  5  5  2       -2 0.418203111359D-01 0.100000000000D+01
  </mgrwgt>
  </event>
  <event>
  5     66 0.44337718E-03 0.22978138E+02 0.75467711E-02 0.12477979E+00
        1 -1    0    0  502    0 0.00000000E+00 0.00000000E+00 0.26823587E+03 0.26823606E+03 0.32000000E+00 0.0000E+00 0.9000E+01
       -2 -1    0    0    0  501 0.00000000E+00 0.00000000E+00 -.62650242E+02 0.62651060E+02 0.32000000E+00 0.0000E+00 0.9000E+01
       25  1    1    2    0    0 0.10856876E+02 0.14028134E+02 0.13820220E+03 0.18718843E+03 0.12500000E+03 0.0000E+00 0.9000E+01
      -24  1    1    2    0    0 -.13550828E+02 0.87863303E+01 0.10935417E+02 0.82750371E+02 0.80419002E+02 0.0000E+00 0.9000E+01
       21  1    1    2  502  501 0.26939522E+01 -.22814465E+02 0.56448019E+02 0.60948327E+02 0.75000000E+00 0.0000E+00 0.9000E+01
#aMCatNLO 1  0  0  5  2 0.65216405D+01 0.00000000D+00  -5  6  0 0.00000000D+00 0.00000000D+00 0.00000000D+00 0.00000000D+00 0.00000000D+00
  <mgrwgt>
 0.5736232091D-01   14    2    0
 0.129634907671041D+03 0.000000000000000D+00 0.000000000000000D+00 0.129634907671041D+03
 0.129634907671041D+03 -.000000000000000D+00 -.000000000000000D+00 -.129634907671041D+03
 0.129308375717155D+03 0.108565289562171D+02 0.140310700107692D+02 0.279449616923074D+02
 0.969385685557019D+02 -.135510876953163D+02 0.878853098936129D+01 -.516623641017412D+02
 0.330228710692245D+02 0.269455873909916D+01 -.228196010001304D+02 0.237174024094338D+02
 0.000000000000000D+00 0.000000000000000D+00 0.000000000000000D+00 -.000000000000000D+00
 0.129634907671041D+03 0.000000000000000D+00 0.000000000000000D+00 0.129634907671041D+03
 0.129634907671041D+03 -.000000000000000D+00 -.000000000000000D+00 -.129634907671041D+03
 0.129622941449991D+03 0.111152212627733D+02 0.118402640981880D+02 0.302219614272878D+02
 0.958830592234760D+02 -.133584440545630D+02 0.715707610459176D+01 -.499667221834319D+02
 0.662124147697674D+01 0.643463118341722D+01 0.601220042443818D+00 0.144044947512771D+01
 0.271425731916376D+02 -.419140839162750D+01 -.195985602452235D+02 0.183043112810163D+02
0.905289482294D-04 0.000000000000D+00 0.000000000000D+00 0.429076187308D-04 0.000000000000D+00  6 1 -2 25 -24 21 21 2 0.41267135D-01 0.96385764D-02 0.13369801D+05 0.13369801D+05 0.13369801D+05 0.12535593D+01  1  2  2  3  6  5       21 0.837909932320D-01 0.100000000000D+01
0.101604513927D-04 0.477734384818D-05 -.347654998020D-06 0.429076187308D-04 0.000000000000D+00  6 1 -2 25 -24 21 21 4 0.41267135D-01 0.96385764D-02 0.13369801D+05 0.13369801D+05 0.13369801D+05 0.12535593D+01  1  2  3  3  6  5       21 0.147778969153D-01 0.100000000000D+01
0.369416717857D-05 0.000000000000D+00 0.000000000000D+00 0.429076187308D-04 0.000000000000D+00  6 1 -2 25 -24 21 21 4 0.41267135D-01 0.96385764D-02 0.13369801D+05 0.13369801D+05 0.13369801D+05 0.12535593D+01  1  2 15  3  6  5       21 0.537299177398D-02 0.100000000000D+01
0.608723300687D-05 0.000000000000D+00 0.000000000000D+00 0.428152775643D-04 0.000000000000D+00  6 1 -2 25 -24 21 21 4 0.41267135D-01 0.96385764D-02 0.13734605D+05 0.13734605D+05 0.13734605D+05 0.12522097D+01  1  2 12  3  6  5       21 0.882359169741D-02 0.100000000000D+01
-.439091955016D-04 0.000000000000D+00 0.000000000000D+00 0.429076187308D-04 0.000000000000D+00  6 1 -2 25 -24 21 21 4 0.41267135D-01 0.96385764D-02 0.13369801D+05 0.13369801D+05 0.13369801D+05 0.12535593D+01  1  2  4  3  6  5       21 -.638638520750D-01 0.100000000000D+01
0.505165100498D-06 0.000000000000D+00 0.000000000000D+00 0.429076187308D-04 0.393611985773D-05  6 1 -2 25 -24 21 21 4 0.41267135D-01 0.96385764D-02 0.13734605D+05 0.13734605D+05 0.13734605D+05 0.12522097D+01  1  2 11  3  6  5       21 0.732249050028D-03 0.100000000000D+01
0.112833215922D-05 0.000000000000D+00 0.000000000000D+00 0.428152775643D-04 0.000000000000D+00  6 1 -2 25 -24 1 -1 4 0.41267135D-01 0.96385764D-02 0.13734605D+05 0.13734605D+05 0.13734605D+05 0.12522097D+01  1  2 12  6  6  5       21 0.163554479692D-02 0.100000000000D+01
0.194707968386D-06 0.000000000000D+00 0.000000000000D+00 0.428152775643D-04 0.139499100469D-06  6 1 -2 25 -24 1 -1 4 0.41267135D-01 0.96385764D-02 0.13734605D+05 0.13734605D+05 0.13734605D+05 0.12522097D+01  1  2 11  6  6  5       21 0.282233916680D-03 0.100000000000D+01
0.112833215922D-05 0.000000000000D+00 0.000000000000D+00 0.428152775643D-04 0.000000000000D+00  6 1 -2 25 -24 2 -2 4 0.41267135D-01 0.96385764D-02 0.13734605D+05 0.13734605D+05 0.13734605D+05 0.12522097D+01  1  2 12  7  6  5       21 0.163554479692D-02 0.100000000000D+01
0.207724429229D-06 0.000000000000D+00 0.000000000000D+00 0.428152775643D-04 0.129838628976D-06  6 1 -2 25 -24 2 -2 4 0.41267135D-01 0.96385764D-02 0.13734605D+05 0.13734605D+05 0.13734605D+05 0.12522097D+01  1  2 11  7  6  5       21 0.301101591976D-03 0.100000000000D+01
0.112833215922D-05 0.000000000000D+00 0.000000000000D+00 0.428152775643D-04 0.000000000000D+00  6 1 -2 25 -24 3 -3 4 0.41267135D-01 0.96385764D-02 0.13734605D+05 0.13734605D+05 0.13734605D+05 0.12522097D+01  1  2 12  8  6  5       21 0.163554479692D-02 0.100000000000D+01
0.112833215922D-05 0.000000000000D+00 0.000000000000D+00 0.428152775643D-04 0.000000000000D+00  6 1 -2 25 -24 4 -4 4 0.41267135D-01 0.96385764D-02 0.13734605D+05 0.13734605D+05 0.13734605D+05 0.12522097D+01  1  2 12  8  6  5       21 0.163554479692D-02 0.100000000000D+01
0.207977075342D-06 0.000000000000D+00 0.000000000000D+00 0.428152775643D-04 0.129235608942D-06  6 1 -2 25 -24 3 -3 4 0.41267135D-01 0.96385764D-02 0.13734605D+05 0.13734605D+05 0.13734605D+05 0.12522097D+01  1  2 11  8  6  5       21 0.301467808636D-03 0.100000000000D+01
0.207977075342D-06 0.000000000000D+00 0.000000000000D+00 0.428152775643D-04 0.129235608942D-06  6 1 -2 25 -24 4 -4 4 0.41267135D-01 0.96385764D-02 0.13734605D+05 0.13734605D+05 0.13734605D+05 0.12522097D+01  1  2 11  8  6  5       21 0.301467808636D-03 0.100000000000D+01
  </mgrwgt>
  </event>
  <event>
  5     66 -.44337718E-03 0.23566044E+02 0.75467711E-02 0.12133225E+00
        1 -1    0    0  502    0 0.00000000E+00 0.00000000E+00 0.13033072E+04 0.13033072E+04 0.32000000E+00 0.0000E+00 0.9000E+01
       -2 -1    0    0    0  501 0.00000000E+00 0.00000000E+00 -.29407382E+02 0.29409123E+02 0.32000000E+00 0.0000E+00 0.9000E+01
       25  1    1    2    0    0 0.30742345E+02 -.45881127E+02 0.95430404E+03 0.96403909E+03 0.12500000E+03 0.0000E+00 0.9000E+01
      -24  1    1    2    0    0 -.18154263E+02 0.65802970E+02 0.32729593E+03 0.34387417E+03 0.80419002E+02 0.0000E+00 0.9000E+01
       21  1    1    2  502  501 -.12588082E+02 -.19921844E+02 -.77001356E+01 0.24803110E+02 0.75000000E+00 0.0000E+00 0.9000E+01
#aMCatNLO 1  0  0  2  5 0.12772618D+02 0.00000000D+00  -5  6  0 0.00000000D+00 0.00000000D+00 0.00000000D+00 0.00000000D+00 0.00000000D+00
  <mgrwgt>
 -.2936273274D+00    7    4    0
 0.195775482427924D+03 0.000000000000000D+00 0.000000000000000D+00 0.195775482427924D+03
 0.195775482427924D+03 0.000000000000000D+00 0.000000000000000D+00 -.195775482427924D+03
 0.176485829038165D+03 0.307424779361739D+02 -.458809160009689D+02 0.111678509340627D+03
 0.105591697252524D+03 -.181541830424426D+02 0.658030965232366D+02 -.477165592988398D+01
 0.109473438565158D+03 -.125882948937313D+02 -.199221805222677D+02 -.106906853410743D+03
 0.000000000000000D+00 0.000000000000000D+00 -.000000000000000D+00 -.000000000000000D+00
 0.196835473488080D+03 0.000000000000000D+00 0.000000000000000D+00 0.196835473488080D+03
 0.238548108592508D+03 0.000000000000000D+00 0.000000000000000D+00 -.238548108592508D+03
 0.175557726832833D+03 0.250025463011378D+02 -.458071902721242D+02 0.111678509340627D+03
 0.106267582131655D+03 -.216084652175687D+02 0.658474645553298D+02 -.477165592988398D+01
 0.109933925579147D+03 -.161656456203933D+02 -.198762317538109D+02 -.106906853410743D+03
 0.436243475369537D+02 0.127715645368242D+02 -.164042529394736D+00 -.417126351044285D+02
 0.195775482427924D+03 0.000000000000000D+00 0.000000000000000D+00 0.195775482427924D+03
 0.195775482427924D+03 0.000000000000000D+00 0.000000000000000D+00 -.195775482427924D+03
 0.176485829038165D+03 0.307424779361739D+02 -.458809160009689D+02 0.111678509340627D+03
 0.105591697252524D+03 -.181541830424426D+02 0.658030965232366D+02 -.477165592988398D+01
 0.000000000000000D+00 0.000000000000000D+00 -.000000000000000D+00 -.000000000000000D+00
 0.109473438565158D+03 -.125882948937313D+02 -.199221805222677D+02 -.106906853410743D+03
 0.196835473488080D+03 0.000000000000000D+00 0.000000000000000D+00 0.196835473488080D+03
 0.238548108592508D+03 0.000000000000000D+00 0.000000000000000D+00 -.238548108592508D+03
 0.175557726832833D+03 0.250025463011378D+02 -.458071902721242D+02 0.111678509340627D+03
 0.106267582131655D+03 -.216084652175687D+02 0.658474645553298D+02 -.477165592988398D+01
 0.436243475369537D+02 0.127715645368242D+02 -.164042529394736D+00 -.417126351044285D+02
 0.109933925579147D+03 -.161656456203933D+02 -.198762317538109D+02 -.106906853410743D+03
0.683369432306D-04 0.000000000000D+00 0.000000000000D+00 0.462923097552D-04 0.000000000000D+00  6 1 -2 25 -24 21 21 2 0.20050894D+00 0.45243496D-02 0.17650046D+05 0.17650046D+05 0.17650046D+05 0.12398474D+01  1  2  2  2  6  2       -2 0.203618380940D-01 0.100000000000D+01
0.110621537511D-04 0.360623957012D-05 -.262431855536D-06 0.462923097552D-04 0.000000000000D+00  6 1 -2 25 -24 21 21 4 0.20050894D+00 0.45243496D-02 0.17650046D+05 0.17650046D+05 0.17650046D+05 0.12398474D+01  1  2  3  2  6  2       -2 0.506684466946D-02 0.100000000000D+01
0.280599628494D-05 0.000000000000D+00 0.000000000000D+00 0.462923097552D-04 0.000000000000D+00  6 1 -2 25 -24 21 21 4 0.20050894D+00 0.45243496D-02 0.17650046D+05 0.17650046D+05 0.17650046D+05 0.12398474D+01  1  2 15  2  6  2       -2 0.128524224475D-02 0.100000000000D+01
-.517746390288D-03 0.000000000000D+00 0.000000000000D+00 0.462923097552D-04 0.000000000000D+00  6 1 -2 25 -24 21 21 4 0.20050894D+00 0.45243496D-02 0.17650046D+05 0.17650046D+05 0.17650046D+05 0.12398474D+01  1  2  4  2  6  2       -2 -.237145550205D+00 0.100000000000D+01
-.158065358256D-02 0.000000000000D+00 -.766518161124D-04 0.462923097552D-04 0.000000000000D+00  6 1 -2 25 -24 21 21 4 0.20050894D+00 0.55384413D-02 0.17650046D+05 0.17650046D+05 0.17650046D+05 0.12398474D+01  1  2  5  2  6  2       -2 -.534457550089D+00 0.100000000000D+01
0.156557110175D-02 0.000000000000D+00 0.751105359525D-04 0.462923097552D-04 0.000000000000D+00  6 1 -2 25 -24 21 21 4 0.20050894D+00 0.45243496D-02 0.17650046D+05 0.17650046D+05 0.17650046D+05 0.12398474D+01  1  2  6  2  6  2       -2 0.717085096631D+00 0.100000000000D+01
-.447209754994D-04 0.000000000000D+00 -.221232328996D-05 0.462923097552D-04 0.000000000000D+00  6 1 21 25 -24 2 21 4 0.20050894D+00 0.55384413D-02 0.17650046D+05 0.17650046D+05 0.17650046D+05 0.12398474D+01  3  4  5  5  5  2       -2 -.265823248714D+00 0.100000000000D+01
  </mgrwgt>
  </event>
  <event>
  5     66 0.44337718E-03 0.29527318E+02 0.75467711E-02 0.12292731E+00
        1 -1    0    0  502    0 0.00000000E+00 0.00000000E+00 0.36076251E+03 0.36076265E+03 0.32000000E+00 0.0000E+00 0.9000E+01
       -2 -1    0    0    0  501 0.00000000E+00 0.00000000E+00 -.67622450E+02 0.67623207E+02 0.32000000E+00 0.0000E+00 0.9000E+01
       25  1    1    2    0    0 0.14284562E+02 -.10629827E+02 0.37596603E+02 0.13174045E+03 0.12500000E+03 0.0000E+00 0.9000E+01
      -24  1    1    2    0    0 0.15099831E+02 0.77053838E+01 0.67660049E+02 0.10645410E+03 0.80419002E+02 0.0000E+00 0.9000E+01
       21  1    1    2  502  501 -.29384393E+02 0.29244431E+01 0.18788341E+03 0.19019130E+03 0.75000000E+00 0.0000E+00 0.9000E+01
#aMCatNLO 1  0  0  5  2 0.20628540D+02 0.00000000D+00  -5  6  0 0.00000000D+00 0.00000000D+00 0.00000000D+00 0.00000000D+00 0.00000000D+00
  <mgrwgt>
 0.2174692459D-01   15    2    0
 0.156191667971558D+03 0.000000000000000D+00 0.000000000000000D+00 0.156191667971558D+03
 0.156191667971558D+03 -.000000000000000D+00 -.000000000000000D+00 -.156191667971558D+03
 0.145382012641348D+03 0.142851003227044D+02 -.106298805024125D+02 -.720685170440163D+02
 0.824935173156316D+02 0.151001365884293D+02 0.770535343392002D+01 -.711181047294166D+01
 0.845078059861367D+02 -.293852369111336D+02 0.292452706849252D+01 0.791803275169580D+02
 0.000000000000000D+00 0.000000000000000D+00 0.000000000000000D+00 0.000000000000000D+00
 0.156191667971558D+03 0.000000000000000D+00 0.000000000000000D+00 0.156191667971558D+03
 0.156191667971558D+03 -.000000000000000D+00 -.000000000000000D+00 -.156191667971558D+03
 0.142954479169500D+03 0.125558567514326D+02 -.104577798095546D+02 -.674089639240612D+02
 0.821407140177037D+02 0.141127739262963D+02 0.780361940470526D+01 -.445130107490162D+01
 0.490807944716534D+02 -.150006015581175D+02 0.221558496845726D+02 0.411463809297721D+02
 0.382073482842589D+02 -.116680291196114D+02 -.195016892797233D+02 0.307138840691907D+02
0.201030930645D-04 0.000000000000D+00 0.000000000000D+00 0.375246379779D-04 0.000000000000D+00  6 1 -2 25 -24 21 21 2 0.55501994D-01 0.10403523D-01 0.14158461D+05 0.14158461D+05 0.14158461D+05 0.12506913D+01  1  2  2  3  6  5       21 0.114186151993D-01 0.100000000000D+01
0.146834405989D-05 0.106086936675D-05 -.772011706336D-07 0.375246379779D-04 0.000000000000D+00  6 1 -2 25 -24 21 21 4 0.55501994D-01 0.10403523D-01 0.14158461D+05 0.14158461D+05 0.14158461D+05 0.12506913D+01  1  2  3  3  6  5       21 0.130460382358D-02 0.100000000000D+01
0.102351768628D-05 0.000000000000D+00 0.000000000000D+00 0.375246379779D-04 0.000000000000D+00  6 1 -2 25 -24 21 21 4 0.55501994D-01 0.10403523D-01 0.14158461D+05 0.14158461D+05 0.14158461D+05 0.12506913D+01  1  2 15  3  6  5       21 0.909381611229D-03 0.100000000000D+01
0.124465113509D-04 0.000000000000D+00 0.000000000000D+00 0.370573607916D-04 0.000000000000D+00  6 1 -2 25 -24 21 21 4 0.55501994D-01 0.10403523D-01 0.16585007D+05 0.16585007D+05 0.16585007D+05 0.12428798D+01  1  2 12  3  6  5       21 0.108296741949D-01 0.100000000000D+01
-.147074015194D-04 0.000000000000D+00 0.000000000000D+00 0.375246379779D-04 0.000000000000D+00  6 1 -2 25 -24 21 21 4 0.55501994D-01 0.10403523D-01 0.14158461D+05 0.14158461D+05 0.14158461D+05 0.12506913D+01  1  2  4  3  6  5       21 -.130673271894D-01 0.100000000000D+01
-.191848518780D-04 0.000000000000D+00 0.000000000000D+00 0.375246379779D-04 0.000000000000D+00  6 1 -2 25 -24 21 21 4 0.55501994D-01 0.10403523D-01 0.14158461D+05 0.14158461D+05 0.14158461D+05 0.12506913D+01  1  2  5  3  6  5       21 -.170454812319D-01 0.100000000000D+01
0.339088078380D-04 0.000000000000D+00 -.000000000000D+00 0.375246379779D-04 0.000000000000D+00  6 1 -2 25 -24 21 21 4 0.55501994D-01 0.10403523D-01 0.14158461D+05 0.14158461D+05 0.14158461D+05 0.12506913D+01  1  2  6  3  6  5       21 0.301275168176D-01 0.100000000000D+01
0.364041676733D-06 0.000000000000D+00 0.000000000000D+00 0.370573607916D-04 0.000000000000D+00  6 1 -2 25 -24 1 -1 4 0.55501994D-01 0.10403523D-01 0.16585007D+05 0.16585007D+05 0.16585007D+05 0.12428798D+01  1  2 12  6  6  5       21 0.316751629531D-03 0.100000000000D+01
-.112468374974D-05 0.000000000000D+00 0.000000000000D+00 0.375246379779D-04 0.000000000000D+00  6 1 -2 25 -24 1 -1 4 0.55501994D-01 0.10403523D-01 0.14158461D+05 0.14158461D+05 0.14158461D+05 0.12506913D+01  1  2  5  6  6  5       21 -.999266289357D-03 0.100000000000D+01
0.364041676733D-06 0.000000000000D+00 0.000000000000D+00 0.370573607916D-04 0.000000000000D+00  6 1 -2 25 -24 2 -2 4 0.55501994D-01 0.10403523D-01 0.16585007D+05 0.16585007D+05 0.16585007D+05 0.12428798D+01  1  2 12  7  6  5       21 0.316751629531D-03 0.100000000000D+01
-.112468374974D-05 0.000000000000D+00 0.000000000000D+00 0.375246379779D-04 0.000000000000D+00  6 1 -2 25 -24 2 -2 4 0.55501994D-01 0.10403523D-01 0.14158461D+05 0.14158461D+05 0.14158461D+05 0.12506913D+01  1  2  5  7  6  5       21 -.999266289357D-03 0.100000000000D+01
0.364041676733D-06 0.000000000000D+00 0.000000000000D+00 0.370573607916D-04 0.000000000000D+00  6 1 -2 25 -24 3 -3 4 0.55501994D-01 0.10403523D-01 0.16585007D+05 0.16585007D+05 0.16585007D+05 0.12428798D+01  1  2 12  8  6  5       21 0.316751629531D-03 0.100000000000D+01
0.364041676733D-06 0.000000000000D+00 0.000000000000D+00 0.370573607916D-04 0.000000000000D+00  6 1 -2 25 -24 4 -4 4 0.55501994D-01 0.10403523D-01 0.16585007D+05 0.16585007D+05 0.16585007D+05 0.12428798D+01  1  2 12  8  6  5       21 0.316751629531D-03 0.100000000000D+01
-.112468374974D-05 0.000000000000D+00 0.000000000000D+00 0.375246379779D-04 0.000000000000D+00  6 1 -2 25 -24 3 -3 4 0.55501994D-01 0.10403523D-01 0.14158461D+05 0.14158461D+05 0.14158461D+05 0.12506913D+01  1  2  5  8  6  5       21 -.999266289357D-03 0.100000000000D+01
-.112468374974D-05 0.000000000000D+00 0.000000000000D+00 0.375246379779D-04 0.000000000000D+00  6 1 -2 25 -24 4 -4 4 0.55501994D-01 0.10403523D-01 0.14158461D+05 0.14158461D+05 0.14158461D+05 0.12506913D+01  1  2  5  8  6  5       21 -.999266289357D-03 0.100000000000D+01
  </mgrwgt>
  </event>
  <event>
  5     66 0.44337718E-03 0.33641702E+02 0.75467711E-02 0.12086658E+00
        1 -1    0    0  502    0 0.00000000E+00 0.00000000E+00 0.12150746E+03 0.12150788E+03 0.32000000E+00 0.0000E+00 0.9000E+01
       -2 -1    0    0    0  501 -.00000000E+00 -.00000000E+00 -.17602369E+03 0.17602398E+03 0.32000000E+00 0.0000E+00 0.9000E+01
       25  1    1    2    0    0 0.38385024E+02 -.67886895E+02 -.38357261E+02 0.15224428E+03 0.12500000E+03 0.0000E+00 0.9000E+01
      -24  1    1    2    0    0 -.47672994E+01 0.68999527E+02 -.27857419E+02 0.10966729E+03 0.80419002E+02 0.0000E+00 0.9000E+01
       21  1    1    2  502  501 -.33617725E+02 -.11126318E+01 0.11698456E+02 0.35620300E+02 0.75000000E+00 0.0000E+00 0.9000E+01
#aMCatNLO 1  0  0  5  1 0.14909260D+02 0.00000000D+00  -5  6  0 0.00000000D+00 0.00000000D+00 0.00000000D+00 0.00000000D+00 0.00000000D+00
  <mgrwgt>
 0.1524199047D+00   14    2    0
 0.146247385156175D+03 0.000000000000000D+00 0.000000000000000D+00 0.146247385156175D+03
 0.146247385156175D+03 -.000000000000000D+00 -.000000000000000D+00 -.146247385156175D+03
 0.147717853686867D+03 0.383882609870114D+02 -.678867876065245D+02 -.106437674117085D+02
 0.106363756432274D+03 -.476496871034033D+01 0.689996036980437D+02 -.789825871417758D+01
 0.384131601932077D+02 -.336232922766711D+02 -.111281609151922D+01 0.185420261258861D+02
 0.000000000000000D+00 0.000000000000000D+00 0.000000000000000D+00 0.000000000000000D+00
 0.146247385156175D+03 0.000000000000000D+00 0.000000000000000D+00 0.146247385156175D+03
 0.146247385156175D+03 -.000000000000000D+00 -.000000000000000D+00 -.146247385156175D+03
 0.146027490760113D+03 0.318055521880819D+02 -.681046527762097D+02 -.701364227332228D+01
 0.106419223498782D+03 -.953334519947792D+01 0.688417867286681D+02 -.526867203622471D+01
 0.166503049783354D+02 -.116912039622494D+02 0.106518380116057D+02 -.520449351610488D+01
 0.233977510751192D+02 -.105810030263546D+02 -.113889719640640D+02 0.174868078256518D+02
0.255275645442D-03 0.000000000000D+00 0.000000000000D+00 0.197766837973D-04 0.000000000000D+00  6 1 -2 25 -24 21 21 2 0.18693511D-01 0.27080622D-01 0.20598807D+05 0.20598807D+05 0.20598807D+05 0.12324180D+01  1  2  2  3  6  5       21 0.112897826469D+00 0.100000000000D+01
0.248687400593D-04 0.134712659121D-04 -.980325694118D-06 0.197766837973D-04 0.000000000000D+00  6 1 -2 25 -24 21 21 4 0.18693511D-01 0.27080622D-01 0.20598807D+05 0.20598807D+05 0.20598807D+05 0.12324180D+01  1  2  3  3  6  5       21 0.167049843264D-01 0.100000000000D+01
0.127581907097D-04 0.000000000000D+00 0.000000000000D+00 0.197766837973D-04 0.000000000000D+00  6 1 -2 25 -24 21 21 4 0.18693511D-01 0.27080622D-01 0.20598807D+05 0.20598807D+05 0.20598807D+05 0.12324180D+01  1  2 15  3  6  5       21 0.857001099900D-02 0.100000000000D+01
0.408565640696D-04 0.000000000000D+00 0.000000000000D+00 0.198146685283D-04 0.000000000000D+00  6 1 -2 25 -24 21 21 4 0.18693511D-01 0.27080622D-01 0.20094382D+05 0.20094382D+05 0.20094382D+05 0.12336010D+01  1  2 12  3  6  5       21 0.275316871099D-01 0.100000000000D+01
0.481566189314D-04 0.000000000000D+00 0.000000000000D+00 0.198146685283D-04 0.000000000000D+00  6 1 -2 25 -24 21 21 4 0.18693511D-01 0.27080622D-01 0.20094382D+05 0.20094382D+05 0.20094382D+05 0.12336010D+01  1  2 12  3  6  5       21 0.324509168816D-01 0.100000000000D+01
-.871770630534D-04 0.000000000000D+00 0.000000000000D+00 0.197766837973D-04 0.000000000000D+00  6 1 -2 25 -24 21 21 4 0.18693511D-01 0.27080622D-01 0.20598807D+05 0.20598807D+05 0.20598807D+05 0.12324180D+01  1  2  4  3  6  5       21 -.585591175292D-01 0.100000000000D+01
0.219728162837D-05 0.000000000000D+00 0.000000000000D+00 0.198146685283D-04 0.000000000000D+00  6 1 -2 25 -24 1 -1 4 0.18693511D-01 0.27080622D-01 0.20094382D+05 0.20094382D+05 0.20094382D+05 0.12336010D+01  1  2 12  6  6  5       21 0.148066465358D-02 0.100000000000D+01
0.256021914453D-05 0.000000000000D+00 0.000000000000D+00 0.198146685283D-04 0.000000000000D+00  6 1 -2 25 -24 1 -1 4 0.18693511D-01 0.27080622D-01 0.20094382D+05 0.20094382D+05 0.20094382D+05 0.12336010D+01  1  2 12  6  6  5       21 0.172523446415D-02 0.100000000000D+01
0.219728162837D-05 0.000000000000D+00 0.000000000000D+00 0.198146685283D-04 0.000000000000D+00  6 1 -2 25 -24 2 -2 4 0.18693511D-01 0.27080622D-01 0.20094382D+05 0.20094382D+05 0.20094382D+05 0.12336010D+01  1  2 12  7  6  5       21 0.148066465358D-02 0.100000000000D+01
0.256021914453D-05 0.000000000000D+00 0.000000000000D+00 0.198146685283D-04 0.000000000000D+00  6 1 -2 25 -24 2 -2 4 0.18693511D-01 0.27080622D-01 0.20094382D+05 0.20094382D+05 0.20094382D+05 0.12336010D+01  1  2 12  7  6  5       21 0.172523446415D-02 0.100000000000D+01
0.219728162837D-05 0.000000000000D+00 0.000000000000D+00 0.198146685283D-04 0.000000000000D+00  6 1 -2 25 -24 3 -3 4 0.18693511D-01 0.27080622D-01 0.20094382D+05 0.20094382D+05 0.20094382D+05 0.12336010D+01  1  2 12  8  6  5       21 0.148066465358D-02 0.100000000000D+01
0.219728162837D-05 0.000000000000D+00 0.000000000000D+00 0.198146685283D-04 0.000000000000D+00  6 1 -2 25 -24 4 -4 4 0.18693511D-01 0.27080622D-01 0.20094382D+05 0.20094382D+05 0.20094382D+05 0.12336010D+01  1  2 12  8  6  5       21 0.148066465358D-02 0.100000000000D+01
0.256021914453D-05 0.000000000000D+00 0.000000000000D+00 0.198146685283D-04 0.000000000000D+00  6 1 -2 25 -24 3 -3 4 0.18693511D-01 0.27080622D-01 0.20094382D+05 0.20094382D+05 0.20094382D+05 0.12336010D+01  1  2 12  8  6  5       21 0.172523446415D-02 0.100000000000D+01
0.256021914453D-05 0.000000000000D+00 0.000000000000D+00 0.198146685283D-04 0.000000000000D+00  6 1 -2 25 -24 4 -4 4 0.18693511D-01 0.27080622D-01 0.20094382D+05 0.20094382D+05 0.20094382D+05 0.12336010D+01  1  2 12  8  6  5       21 0.172523446415D-02 0.100000000000D+01
  </mgrwgt>
  </event>
  <event>
  5     66 0.44337718E-03 0.25494821E+02 0.75467711E-02 0.12464276E+00
        1 -1    0    0  502    0 0.00000000E+00 0.00000000E+00 0.15872436E+04 0.15872436E+04 0.32000000E+00 0.0000E+00 0.9000E+01
       -2 -1    0    0    0  501 0.00000000E+00 0.00000000E+00 -.12139989E+02 0.12144206E+02 0.32000000E+00 0.0000E+00 0.9000E+01
       25  1    1    2    0    0 0.18943606E+02 0.95768207E+01 0.83326164E+03 0.84285262E+03 0.12500000E+03 0.0000E+00 0.9000E+01
      -24  1    1    2    0    0 0.26455142E+01 -.23134579E+02 0.71354860E+03 0.71844348E+03 0.80419002E+02 0.0000E+00 0.9000E+01
       21  1    1    2  502  501 -.21589120E+02 0.13557758E+02 0.28293334E+02 0.38091707E+02 0.75000000E+00 0.0000E+00 0.9000E+01
#aMCatNLO 1  0  0  5  1 0.96943431D+01 0.00000000D+00  -5  6  0 0.00000000D+00 0.00000000D+00 0.00000000D+00 0.00000000D+00 0.00000000D+00
  <mgrwgt>
 0.5825679412D+00   15    2    0
 0.138825493679555D+03 0.000000000000000D+00 0.000000000000000D+00 0.138825493679555D+03
 0.138825493679555D+03 -.000000000000000D+00 -.000000000000000D+00 -.138825493679555D+03
 0.128128164014304D+03 0.189444130360869D+02 0.957631373993225D+01 0.184724076272938D+02
 0.906064144397545D+02 0.264608510648991D+01 -.231349374276008D+02 0.346421605430179D+02
 0.589164089050506D+02 -.215904981425768D+02 0.135586236876686D+02 -.531145681703118D+02
 0.000000000000000D+00 0.000000000000000D+00 0.000000000000000D+00 -.000000000000000D+00
 0.138825493679555D+03 0.000000000000000D+00 0.000000000000000D+00 0.138825493679555D+03
 0.138825493679555D+03 -.000000000000000D+00 -.000000000000000D+00 -.138825493679555D+03
 0.127828172854738D+03 0.182565423583759D+02 0.100082898621725D+02 0.167801838646753D+02
 0.900657545501251D+02 0.216053710698807D+01 -.228300179873882D+02 0.334476687740373D+02
 0.175862503156669D+02 -.353162426709147D+01 0.127509475728600D+02 -.115852132563696D+02
 0.421708096385791D+02 -.168854551982725D+02 0.707805523557585D-01 -.386426393823431D+02
0.382458582928D-03 0.000000000000D+00 0.000000000000D+00 0.456587444984D-04 0.000000000000D+00  6 1 -2 25 -24 21 21 2 0.24419165D+00 0.18680175D-02 0.13924804D+05 0.13924804D+05 0.13924804D+05 0.12515219D+01  1  2  2  3  6  5       21 0.276810198300D+00 0.100000000000D+01
0.338201034526D-04 0.201828939148D-04 -.146874166210D-05 0.456587444984D-04 0.000000000000D+00  6 1 -2 25 -24 21 21 4 0.24419165D+00 0.18680175D-02 0.13924804D+05 0.13924804D+05 0.13924804D+05 0.12515219D+01  1  2  3  3  6  5       21 0.383397718518D-01 0.100000000000D+01
0.209306181633D-04 0.000000000000D+00 0.000000000000D+00 0.456587444984D-04 0.000000000000D+00  6 1 -2 25 -24 21 21 4 0.24419165D+00 0.18680175D-02 0.13924804D+05 0.13924804D+05 0.13924804D+05 0.12515219D+01  1  2 15  3  6  5       21 0.237277548907D-01 0.100000000000D+01
0.105273600361D-03 0.000000000000D+00 0.000000000000D+00 0.455227590463D-04 0.000000000000D+00  6 1 -2 25 -24 21 21 4 0.24419165D+00 0.18680175D-02 0.14455652D+05 0.14455652D+05 0.14455652D+05 0.12496568D+01  1  2 12  3  6  5       21 0.118698661407D+00 0.100000000000D+01
-.317051100914D-03 0.000000000000D+00 0.000000000000D+00 0.456587444984D-04 0.000000000000D+00  6 1 -2 25 -24 21 21 4 0.24419165D+00 0.18680175D-02 0.13924804D+05 0.13924804D+05 0.13924804D+05 0.12515219D+01  1  2  4  3  6  5       21 -.359421339189D+00 0.100000000000D+01
-.168600887426D-03 0.000000000000D+00 0.000000000000D+00 0.456587444984D-04 0.000000000000D+00  6 1 -2 25 -24 21 21 4 0.24419165D+00 0.18680175D-02 0.13924804D+05 0.13924804D+05 0.13924804D+05 0.12515219D+01  1  2  5  3  6  5       21 -.191132459633D+00 0.100000000000D+01
0.670031677752D-03 0.000000000000D+00 -.000000000000D+00 0.456587444984D-04 0.000000000000D+00  6 1 -2 25 -24 21 21 4 0.24419165D+00 0.18680175D-02 0.13924804D+05 0.13924804D+05 0.13924804D+05 0.12515219D+01  1  2  6  3  6  5       21 0.759573716105D+00 0.100000000000D+01
0.116277753530D-04 0.000000000000D+00 0.000000000000D+00 0.455227590463D-04 0.000000000000D+00  6 1 -2 25 -24 1 -1 4 0.24419165D+00 0.18680175D-02 0.14455652D+05 0.14455652D+05 0.14455652D+05 0.12496568D+01  1  2 12  6  6  5       21 0.131106123929D-01 0.100000000000D+01
-.300957515010D-04 0.000000000000D+00 0.000000000000D+00 0.456587444984D-04 0.000000000000D+00  6 1 -2 25 -24 1 -1 4 0.24419165D+00 0.18680175D-02 0.13924804D+05 0.13924804D+05 0.13924804D+05 0.12515219D+01  1  2  5  6  6  5       21 -.341177030364D-01 0.100000000000D+01
0.116277753530D-04 0.000000000000D+00 0.000000000000D+00 0.455227590463D-04 0.000000000000D+00  6 1 -2 25 -24 2 -2 4 0.24419165D+00 0.18680175D-02 0.14455652D+05 0.14455652D+05 0.14455652D+05 0.12496568D+01  1  2 12  7  6  5       21 0.131106123929D-01 0.100000000000D+01
-.300957515010D-04 0.000000000000D+00 0.000000000000D+00 0.456587444984D-04 0.000000000000D+00  6 1 -2 25 -24 2 -2 4 0.24419165D+00 0.18680175D-02 0.13924804D+05 0.13924804D+05 0.13924804D+05 0.12515219D+01  1  2  5  7  6  5       21 -.341177030364D-01 0.100000000000D+01
0.116277753530D-04 0.000000000000D+00 0.000000000000D+00 0.455227590463D-04 0.000000000000D+00  6 1 -2 25 -24 3 -3 4 0.24419165D+00 0.18680175D-02 0.14455652D+05 0.14455652D+05 0.14455652D+05 0.12496568D+01  1  2 12  8  6  5       21 0.131106123929D-01 0.100000000000D+01
0.116277753530D-04 0.000000000000D+00 0.000000000000D+00 0.455227590463D-04 0.000000000000D+00  6 1 -2 25 -24 4 -4 4 0.24419165D+00 0.18680175D-02 0.14455652D+05 0.14455652D+05 0.14455652D+05 0.12496568D+01  1  2 12  8  6  5       21 0.131106123929D-01 0.100000000000D+01
-.300957515010D-04 0.000000000000D+00 0.000000000000D+00 0.456587444984D-04 0.000000000000D+00  6 1 -2 25 -24 3 -3 4 0.24419165D+00 0.18680175D-02 0.13924804D+05 0.13924804D+05 0.13924804D+05 0.12515219D+01  1  2  5  8  6  5       21 -.341177030364D-01 0.100000000000D+01
-.300957515010D-04 0.000000000000D+00 0.000000000000D+00 0.456587444984D-04 0.000000000000D+00  6 1 -2 25 -24 4 -4 4 0.24419165D+00 0.18680175D-02 0.13924804D+05 0.13924804D+05 0.13924804D+05 0.12515219D+01  1  2  5  8  6  5       21 -.341177030364D-01 0.100000000000D+01
  </mgrwgt>
  </event>
  <event>
  6     66 0.44337718E-03 0.51441022E+02 0.75467711E-02 0.11551947E+00
        1 -1    0    0  502    0 0.00000000E+00 0.00000000E+00 0.30265280E+03 0.30265297E+03 0.32000000E+00 0.0000E+00 0.9000E+01
       21 -1    0    0  503  501 0.00000000E+00 0.00000000E+00 -.19542706E+03 0.19542850E+03 0.75000000E+00 0.0000E+00 0.9000E+01
       25  1    1    2    0    0 0.48230384E+02 -.32292639E+02 0.38324877E+02 0.14304818E+03 0.12500000E+03 0.0000E+00 0.9000E+01
      -24  1    1    2    0    0 -.49591381E+01 0.50872425E+00 0.13301329E+03 0.15551400E+03 0.80419002E+02 0.0000E+00 0.9000E+01
        2  1    1    2  503    0 -.83358828E+02 -.35512370E+02 -.78488058E+02 0.11987619E+03 0.32000000E+00 0.0000E+00 0.9000E+01
       21  1    1    2  502  501 0.40087582E+02 0.67296284E+02 0.14375631E+02 0.79643112E+02 0.75000000E+00 0.0000E+00 0.9000E+01
#aMCatNLO 2  0  0  2  1 0.82916452D+01 0.00000000D+00  -5  6  0 0.00000000D+00 0.00000000D+00 0.00000000D+00 0.00000000D+00 0.00000000D+00
  <mgrwgt>
 0.2325025009D-01    1    2    0
 0.158382291324036D+03 0.000000000000000D+00 0.000000000000000D+00 0.158382291324036D+03
 0.158382291324036D+03 0.000000000000000D+00 0.000000000000000D+00 -.158382291324036D+03
 0.139253476812491D+03 0.118723436099549D+02 -.477831428276978D+02 -.366380884201382D+02
 0.108943126088839D+03 -.323683185542887D+02 -.111691160313237D+02 0.650302358037014D+02
 0.000000000000000D+00 -.000000000000000D+00 -.000000000000000D+00 -.000000000000000D+00
 0.685679797467434D+02 0.204959749443338D+02 0.589522588590215D+02 -.283921473835632D+02
 0.176824685761148D+03 0.000000000000000D+00 0.000000000000000D+00 0.176824685761148D+03
 0.334494359160693D+03 0.000000000000000D+00 0.000000000000000D+00 -.334494359160693D+03
 0.142605696082437D+03 0.482298802909899D+02 -.322941740750750D+02 -.366380884201382D+02
 0.103542267370775D+03 -.495943415451797D+01 0.507564865315386D+00 0.650302358037014D+02
 0.181850346311588D+03 -.833588276958930D+02 -.355123695195346D+02 -.157669673399545D+03
 0.833207351570406D+02 0.400883815594210D+02 0.672989787292942D+02 -.283921473835632D+02
0.109775534086D-04 0.000000000000D+00 0.000000000000D+00 0.538447921509D-05 0.875566006324D-09  6 1 21 25 -24 2 21 4 0.46562059D-01 0.30065803D-01 0.37506984D+05 0.37506984D+05 0.37506984D+05 0.12048487D+01  1  2  1  5  5  2       -2 0.232502500924D-01 0.100000000000D+01
  </mgrwgt>
  </event>
  <event>
  5     66 0.44337718E-03 0.29965697E+02 0.75467711E-02 0.11386198E+00
        3 -1    0    0  502    0 0.00000000E+00 0.00000000E+00 0.44906825E+03 0.44906853E+03 0.50000000E+00 0.0000E+00 0.9000E+01
       -4 -1    0    0    0  501 0.00000000E+00 0.00000000E+00 -.11616690E+03 0.11617724E+03 0.15500000E+01 0.0000E+00 0.9000E+01
       25  1    1    2    0    0 -.18319226E+03 0.36148108E+01 0.13949408E+03 0.26202303E+03 0.12500000E+03 0.0000E+00 0.9000E+01
      -24  1    1    2    0    0 0.15534121E+03 0.74342067E+01 0.20631401E+03 0.27058981E+03 0.80419002E+02 0.0000E+00 0.9000E+01
       21  1    1    2  502  501 0.27851044E+02 -.11049018E+02 -.12906741E+02 0.32632926E+02 0.75000000E+00 0.0000E+00 0.9000E+01
#aMCatNLO 1  0  0  5  2 0.44883339D+01 0.00000000D+00  -5  6  0 0.00000000D+00 0.00000000D+00 0.00000000D+00 0.00000000D+00 0.00000000D+00
  <mgrwgt>
 0.2526935586D-01   25    2    0
 0.228407240131339D+03 0.000000000000000D+00 0.000000000000000D+00 0.228407240131339D+03
 0.228407240131339D+03 -.000000000000000D+00 -.000000000000000D+00 -.228407240131339D+03
 0.222563307706609D+03 -.183193796465430D+03 0.361542179387243D+01 -.183408723658863D+02
 0.184467256331074D+03 0.155339936275102D+03 0.743471313366805D+01 0.580963160846789D+02
 0.497839162249949D+02 0.278538601903286D+02 -.110501349275405D+02 -.397554437187926D+02
 0.000000000000000D+00 0.000000000000000D+00 0.000000000000000D+00 -.000000000000000D+00
 0.228407240131339D+03 0.000000000000000D+00 0.000000000000000D+00 0.228407240131339D+03
 0.228407240131339D+03 -.000000000000000D+00 -.000000000000000D+00 -.228407240131339D+03
 0.222025558334453D+03 -.182433546785674D+03 0.331381686433951D+01 -.194259666095296D+02
 0.184708294325593D+03 0.155971228724370D+03 0.718426789212932D+01 0.571952807787826D+02
 0.521586796580663D+01 0.445352446750786D+01 0.255536037688182D+01 -.917350422848160D+00
 0.448647596368248D+02 0.220087935937964D+02 -.130534451333507D+02 -.368519637464048D+02
0.777628515737D-03 0.000000000000D+00 0.000000000000D+00 0.181133238042D-04 0.000000000000D+00  6 3 -4 25 -24 21 21 2 0.69088240D-01 0.17872648D-01 0.45550647D+05 0.45550647D+05 0.45550647D+05 0.11963112D+01  1  2  2  3  6  5       21 0.132304438550D-01 0.100000000000D+01
0.152810682570D-03 0.410365841919D-04 -.298629825472D-05 0.181133238042D-04 0.000000000000D+00  6 3 -4 25 -24 21 21 4 0.69088240D-01 0.17872648D-01 0.45550647D+05 0.45550647D+05 0.45550647D+05 0.11963112D+01  1  2  3  3  6  5       21 0.372086823076D-02 0.100000000000D+01
0.460365288320D-05 0.000000000000D+00 0.000000000000D+00 0.181133238042D-04 0.000000000000D+00  6 3 -4 25 -24 21 21 4 0.69088240D-01 0.17872648D-01 0.45550647D+05 0.45550647D+05 0.45550647D+05 0.11963112D+01  1  2 15  3  6  5       21 0.112096781916D-03 0.100000000000D+01
0.702806906724D-05 0.000000000000D+00 0.000000000000D+00 0.181091641876D-04 0.000000000000D+00  6 3 -4 25 -24 21 21 4 0.69088240D-01 0.17872648D-01 0.45694876D+05 0.45694876D+05 0.45694876D+05 0.11961738D+01  1  2 12  3  6  5       21 0.171081744111D-03 0.100000000000D+01
0.514161793183D-05 0.000000000000D+00 0.000000000000D+00 0.181091641876D-04 0.000000000000D+00  6 3 -4 25 -24 21 21 4 0.69088240D-01 0.17872648D-01 0.45694876D+05 0.45694876D+05 0.45694876D+05 0.11961738D+01  1  2 12  3  6  5       21 0.125160546221D-03 0.100000000000D+01
-.551726230603D-03 0.000000000000D+00 0.000000000000D+00 0.181133238042D-04 0.000000000000D+00  6 3 -4 25 -24 21 21 4 0.69088240D-01 0.17872648D-01 0.45550647D+05 0.45550647D+05 0.45550647D+05 0.11963112D+01  1  2  4  3  6  5       21 -.134342741554D-01 0.100000000000D+01
-.432126232188D-04 0.000000000000D+00 0.000000000000D+00 0.181133238042D-04 0.000000000000D+00  6 3 -4 25 -24 21 21 4 0.69088240D-01 0.17872648D-01 0.45550647D+05 0.45550647D+05 0.45550647D+05 0.11963112D+01  1  2  5  3  6  5       21 -.105220704599D-02 0.100000000000D+01
0.919906631301D-03 0.000000000000D+00 -.000000000000D+00 0.181133238042D-04 0.000000000000D+00  6 3 -4 25 -24 21 21 4 0.69088240D-01 0.17872648D-01 0.45550647D+05 0.45550647D+05 0.45550647D+05 0.11963112D+01  1  2  6  3  6  5       21 0.223992937019D-01 0.100000000000D+01
0.331349592043D-04 0.000000000000D+00 0.000000000000D+00 0.181133238042D-04 0.475191515789D-05  6 3 -4 25 -24 21 21 4 0.69088240D-01 0.17872648D-01 0.45694876D+05 0.45694876D+05 0.45694876D+05 0.11961738D+01  1  2 11  3  6  5       21 0.806592331051D-03 0.100000000000D+01
0.399101096020D-05 0.000000000000D+00 0.000000000000D+00 0.181091641876D-04 0.000000000000D+00  6 3 -4 25 -24 3 -3 4 0.69088240D-01 0.17872648D-01 0.45694876D+05 0.45694876D+05 0.45694876D+05 0.11961738D+01  1  2 12  6  6  5       21 0.971517367440D-04 0.100000000000D+01
0.360797401781D-05 0.000000000000D+00 0.000000000000D+00 0.181091641876D-04 0.000000000000D+00  6 3 -4 25 -24 3 -3 4 0.69088240D-01 0.17872648D-01 0.45694876D+05 0.45694876D+05 0.45694876D+05 0.11961738D+01  1  2 12  6  6  5       21 0.878276069530D-04 0.100000000000D+01
-.365601990168D-04 0.000000000000D+00 0.000000000000D+00 0.181133238042D-04 0.000000000000D+00  6 3 -4 25 -24 3 -3 4 0.69088240D-01 0.17872648D-01 0.45550647D+05 0.45550647D+05 0.45550647D+05 0.11963112D+01  1  2  5  6  6  5       21 -.890223646305D-03 0.100000000000D+01
0.201594708567D-04 0.000000000000D+00 0.000000000000D+00 0.181133238042D-04 0.603613815126D-07  6 3 -4 25 -24 3 -3 4 0.69088240D-01 0.17872648D-01 0.45694876D+05 0.45694876D+05 0.45694876D+05 0.11961738D+01  1  2 11  6  6  5       21 0.490734709852D-03 0.100000000000D+01
0.399101096020D-05 0.000000000000D+00 0.000000000000D+00 0.181091641876D-04 0.000000000000D+00  6 3 -4 25 -24 4 -4 4 0.69088240D-01 0.17872648D-01 0.45694876D+05 0.45694876D+05 0.45694876D+05 0.11961738D+01  1  2 12  7  6  5       21 0.971517367440D-04 0.100000000000D+01
0.360797401781D-05 0.000000000000D+00 0.000000000000D+00 0.181091641876D-04 0.000000000000D+00  6 3 -4 25 -24 4 -4 4 0.69088240D-01 0.17872648D-01 0.45694876D+05 0.45694876D+05 0.45694876D+05 0.11961738D+01  1  2 12  7  6  5       21 0.878276069530D-04 0.100000000000D+01
-.365601990168D-04 0.000000000000D+00 0.000000000000D+00 0.181133238042D-04 0.000000000000D+00  6 3 -4 25 -24 4 -4 4 0.69088240D-01 0.17872648D-01 0.45550647D+05 0.45550647D+05 0.45550647D+05 0.11963112D+01  1  2  5  7  6  5       21 -.890223646305D-03 0.100000000000D+01
0.210030274446D-04 0.000000000000D+00 0.000000000000D+00 0.181133238042D-04 0.622802019585D-07  6 3 -4 25 -24 4 -4 4 0.69088240D-01 0.17872648D-01 0.45694876D+05 0.45694876D+05 0.45694876D+05 0.11961738D+01  1  2 11  7  6  5       21 0.511269102859D-03 0.100000000000D+01
0.399101096020D-05 0.000000000000D+00 0.000000000000D+00 0.181091641876D-04 0.000000000000D+00  6 3 -4 25 -24 1 -1 4 0.69088240D-01 0.17872648D-01 0.45694876D+05 0.45694876D+05 0.45694876D+05 0.11961738D+01  1  2 12  8  6  5       21 0.971517367440D-04 0.100000000000D+01
0.399101096020D-05 0.000000000000D+00 0.000000000000D+00 0.181091641876D-04 0.000000000000D+00  6 3 -4 25 -24 2 -2 4 0.69088240D-01 0.17872648D-01 0.45694876D+05 0.45694876D+05 0.45694876D+05 0.11961738D+01  1  2 12  8  6  5       21 0.971517367440D-04 0.100000000000D+01
0.360797401781D-05 0.000000000000D+00 0.000000000000D+00 0.181091641876D-04 0.000000000000D+00  6 3 -4 25 -24 1 -1 4 0.69088240D-01 0.17872648D-01 0.45694876D+05 0.45694876D+05 0.45694876D+05 0.11961738D+01  1  2 12  8  6  5       21 0.878276069530D-04 0.100000000000D+01
0.360797401781D-05 0.000000000000D+00 0.000000000000D+00 0.181091641876D-04 0.000000000000D+00  6 3 -4 25 -24 2 -2 4 0.69088240D-01 0.17872648D-01 0.45694876D+05 0.45694876D+05 0.45694876D+05 0.11961738D+01  1  2 12  8  6  5       21 0.878276069530D-04 0.100000000000D+01
-.365601990168D-04 0.000000000000D+00 0.000000000000D+00 0.181133238042D-04 0.000000000000D+00  6 3 -4 25 -24 1 -1 4 0.69088240D-01 0.17872648D-01 0.45550647D+05 0.45550647D+05 0.45550647D+05 0.11963112D+01  1  2  5  8  6  5       21 -.890223646305D-03 0.100000000000D+01
-.365601990168D-04 0.000000000000D+00 0.000000000000D+00 0.181133238042D-04 0.000000000000D+00  6 3 -4 25 -24 2 -2 4 0.69088240D-01 0.17872648D-01 0.45550647D+05 0.45550647D+05 0.45550647D+05 0.11963112D+01  1  2  5  8  6  5       21 -.890223646305D-03 0.100000000000D+01
0.207305643447D-04 0.000000000000D+00 0.000000000000D+00 0.181133238042D-04 0.602578073159D-07  6 3 -4 25 -24 1 -1 4 0.69088240D-01 0.17872648D-01 0.45694876D+05 0.45694876D+05 0.45694876D+05 0.11961738D+01  1  2 11  8  6  5       21 0.504636632135D-03 0.100000000000D+01
0.207305643447D-04 0.000000000000D+00 0.000000000000D+00 0.181133238042D-04 0.602578073159D-07  6 3 -4 25 -24 2 -2 4 0.69088240D-01 0.17872648D-01 0.45694876D+05 0.45694876D+05 0.45694876D+05 0.11961738D+01  1  2 11  8  6  5       21 0.504636632135D-03 0.100000000000D+01
  </mgrwgt>
  </event>
  <event>
  5     66 0.44337718E-03 0.21909245E+02 0.75467711E-02 0.12371342E+00
        1 -1    0    0  502    0 0.00000000E+00 0.00000000E+00 0.20053156E+04 0.20053156E+04 0.32000000E+00 0.0000E+00 0.9000E+01
       -2 -1    0    0    0  501 0.00000000E+00 0.00000000E+00 -.10212636E+02 0.10217648E+02 0.32000000E+00 0.0000E+00 0.9000E+01
       25  1    1    2    0    0 -.48928343E+02 -.19596934E+02 0.14034159E+04 0.14099572E+04 0.12500000E+03 0.0000E+00 0.9000E+01
      -24  1    1    2    0    0 0.28647529E+02 0.27880238E+02 0.55932660E+03 0.56649047E+03 0.80419002E+02 0.0000E+00 0.9000E+01
       21  1    1    2  502  501 0.20280814E+02 -.82833033E+01 0.32360421E+02 0.39085597E+02 0.75000000E+00 0.0000E+00 0.9000E+01
#aMCatNLO 1  0  0  5  1 0.73266622D+00 0.00000000D+00  -5  6  0 0.00000000D+00 0.00000000D+00 0.00000000D+00 0.00000000D+00 0.00000000D+00
  <mgrwgt>
 0.6585296713D+00   25    2    0
 0.143124543760987D+03 0.000000000000000D+00 0.000000000000000D+00 0.143124543760987D+03
 0.143124543760987D+03 -.000000000000000D+00 -.000000000000000D+00 -.143124543760987D+03
 0.146224863865748D+03 -.489295244988019D+02 -.195964517806653D+02 0.545764740752436D+02
 0.903623439861891D+02 0.286467986603553D+02 0.278805359385583D+02 -.100086911531759D+02
 0.496618796700367D+02 0.202827258384466D+02 -.828408415789299D+01 -.445677829220678D+02
 0.000000000000000D+00 0.000000000000000D+00 0.000000000000000D+00 0.000000000000000D+00
 0.143124543760987D+03 0.000000000000000D+00 0.000000000000000D+00 0.143124543760987D+03
 0.143124543760987D+03 -.000000000000000D+00 -.000000000000000D+00 -.143124543760987D+03
 0.146217900232592D+03 -.489231933564876D+02 -.195990376123807D+02 0.545625624847326D+02
 0.903640440361172D+02 0.286507112361581D+02 0.278789379232085D+02 -.100172883619749D+02
 0.115273974017149D+02 0.402989900488492D+01 -.199190544316148D+01 -.106147594213433D+02
 0.381397458515500D+02 0.162425831154446D+02 -.628799486766638D+01 -.339305147014144D+02
0.304819019820D-04 0.000000000000D+00 0.000000000000D+00 0.509863848538D-04 0.000000000000D+00  6 1 -2 25 -24 21 21 2 0.30851048D+00 0.15715623D-02 0.15298435D+05 0.15298435D+05 0.15298435D+05 0.12468483D+01  1  2  2  3  6  5       21 0.152680067770D-01 0.100000000000D+01
0.380500649351D-05 0.160857416067D-05 -.117058529680D-06 0.509863848538D-04 0.000000000000D+00  6 1 -2 25 -24 21 21 4 0.30851048D+00 0.15715623D-02 0.15298435D+05 0.15298435D+05 0.15298435D+05 0.12468483D+01  1  2  3  3  6  5       21 0.296294065119D-02 0.100000000000D+01
0.127730229490D-05 0.000000000000D+00 0.000000000000D+00 0.509863848538D-04 0.000000000000D+00  6 1 -2 25 -24 21 21 4 0.30851048D+00 0.15715623D-02 0.15298435D+05 0.15298435D+05 0.15298435D+05 0.12468483D+01  1  2 15  3  6  5       21 0.994629286406D-03 0.100000000000D+01
0.191535103105D-09 0.000000000000D+00 0.000000000000D+00 0.509863147444D-04 0.000000000000D+00  6 1 -2 25 -24 21 21 4 0.30851048D+00 0.15715623D-02 0.15298701D+05 0.15298701D+05 0.15298701D+05 0.12468475D+01  1  2 12  3  6  5       21 0.149147090380D-06 0.100000000000D+01
0.190745122580D-09 0.000000000000D+00 0.000000000000D+00 0.509863147444D-04 0.000000000000D+00  6 1 -2 25 -24 21 21 4 0.30851048D+00 0.15715623D-02 0.15298701D+05 0.15298701D+05 0.15298701D+05 0.12468475D+01  1  2 12  3  6  5       21 0.148531937884D-06 0.100000000000D+01
-.459847245062D-02 0.000000000000D+00 0.000000000000D+00 0.509863848538D-04 0.000000000000D+00  6 1 -2 25 -24 21 21 4 0.30851048D+00 0.15715623D-02 0.15298435D+05 0.15298435D+05 0.15298435D+05 0.12468483D+01  1  2  4  3  6  5       21 -.358080885816D+01 0.100000000000D+01
-.965745684984D-03 0.000000000000D+00 0.000000000000D+00 0.509863848538D-04 0.000000000000D+00  6 1 -2 25 -24 21 21 4 0.30851048D+00 0.15715623D-02 0.15298435D+05 0.15298435D+05 0.15298435D+05 0.12468483D+01  1  2  5  3  6  5       21 -.752021620365D+00 0.100000000000D+01
0.523842235725D-02 0.000000000000D+00 -.000000000000D+00 0.509863848538D-04 0.000000000000D+00  6 1 -2 25 -24 21 21 4 0.30851048D+00 0.15715623D-02 0.15298435D+05 0.15298435D+05 0.15298435D+05 0.12468483D+01  1  2  6  3  6  5       21 0.407913483902D+01 0.100000000000D+01
0.110142785730D-02 0.000000000000D+00 0.000000000000D+00 0.509863848538D-04 0.700355529511D-03  6 1 -2 25 -24 21 21 4 0.30851048D+00 0.15715623D-02 0.15298701D+05 0.15298701D+05 0.15298701D+05 0.12468475D+01  1  2 11  3  6  5       21 0.857674428956D+00 0.100000000000D+01
0.244991845965D-10 0.000000000000D+00 0.000000000000D+00 0.509863147444D-04 0.000000000000D+00  6 1 -2 25 -24 1 -1 4 0.30851048D+00 0.15715623D-02 0.15298701D+05 0.15298701D+05 0.15298701D+05 0.12468475D+01  1  2 12  6  6  5       21 0.190773494780D-07 0.100000000000D+01
0.244078712705D-10 0.000000000000D+00 0.000000000000D+00 0.509863147444D-04 0.000000000000D+00  6 1 -2 25 -24 1 -1 4 0.30851048D+00 0.15715623D-02 0.15298701D+05 0.15298701D+05 0.15298701D+05 0.12468475D+01  1  2 12  6  6  5       21 0.190062444082D-07 0.100000000000D+01
-.115986509062D-03 0.000000000000D+00 0.000000000000D+00 0.509863848538D-04 0.000000000000D+00  6 1 -2 25 -24 1 -1 4 0.30851048D+00 0.15715623D-02 0.15298435D+05 0.15298435D+05 0.15298435D+05 0.12468483D+01  1  2  5  6  6  5       21 -.903181488063D-01 0.100000000000D+01
0.127552327855D-03 0.000000000000D+00 0.000000000000D+00 0.509863848538D-04 0.128099857203D-04  6 1 -2 25 -24 1 -1 4 0.30851048D+00 0.15715623D-02 0.15298701D+05 0.15298701D+05 0.15298701D+05 0.12468475D+01  1  2 11  6  6  5       21 0.993241356927D-01 0.100000000000D+01
0.244991845965D-10 0.000000000000D+00 0.000000000000D+00 0.509863147444D-04 0.000000000000D+00  6 1 -2 25 -24 2 -2 4 0.30851048D+00 0.15715623D-02 0.15298701D+05 0.15298701D+05 0.15298701D+05 0.12468475D+01  1  2 12  7  6  5       21 0.190773494780D-07 0.100000000000D+01
0.244078712705D-10 0.000000000000D+00 0.000000000000D+00 0.509863147444D-04 0.000000000000D+00  6 1 -2 25 -24 2 -2 4 0.30851048D+00 0.15715623D-02 0.15298701D+05 0.15298701D+05 0.15298701D+05 0.12468475D+01  1  2 12  7  6  5       21 0.190062444082D-07 0.100000000000D+01
-.115986509062D-03 0.000000000000D+00 0.000000000000D+00 0.509863848538D-04 0.000000000000D+00  6 1 -2 25 -24 2 -2 4 0.30851048D+00 0.15715623D-02 0.15298435D+05 0.15298435D+05 0.15298435D+05 0.12468483D+01  1  2  5  7  6  5       21 -.903181488063D-01 0.100000000000D+01
0.127009133925D-03 0.000000000000D+00 0.000000000000D+00 0.509863848538D-04 0.127568962692D-04  6 1 -2 25 -24 2 -2 4 0.30851048D+00 0.15715623D-02 0.15298701D+05 0.15298701D+05 0.15298701D+05 0.12468475D+01  1  2 11  7  6  5       21 0.989011542509D-01 0.100000000000D+01
0.244991845965D-10 0.000000000000D+00 0.000000000000D+00 0.509863147444D-04 0.000000000000D+00  6 1 -2 25 -24 3 -3 4 0.30851048D+00 0.15715623D-02 0.15298701D+05 0.15298701D+05 0.15298701D+05 0.12468475D+01  1  2 12  8  6  5       21 0.190773494780D-07 0.100000000000D+01
0.244991845965D-10 0.000000000000D+00 0.000000000000D+00 0.509863147444D-04 0.000000000000D+00  6 1 -2 25 -24 4 -4 4 0.30851048D+00 0.15715623D-02 0.15298701D+05 0.15298701D+05 0.15298701D+05 0.12468475D+01  1  2 12  8  6  5       21 0.190773494780D-07 0.100000000000D+01
0.244078712705D-10 0.000000000000D+00 0.000000000000D+00 0.509863147444D-04 0.000000000000D+00  6 1 -2 25 -24 3 -3 4 0.30851048D+00 0.15715623D-02 0.15298701D+05 0.15298701D+05 0.15298701D+05 0.12468475D+01  1  2 12  8  6  5       21 0.190062444082D-07 0.100000000000D+01
0.244078712705D-10 0.000000000000D+00 0.000000000000D+00 0.509863147444D-04 0.000000000000D+00  6 1 -2 25 -24 4 -4 4 0.30851048D+00 0.15715623D-02 0.15298701D+05 0.15298701D+05 0.15298701D+05 0.12468475D+01  1  2 12  8  6  5       21 0.190062444082D-07 0.100000000000D+01
-.115986509062D-03 0.000000000000D+00 0.000000000000D+00 0.509863848538D-04 0.000000000000D+00  6 1 -2 25 -24 3 -3 4 0.30851048D+00 0.15715623D-02 0.15298435D+05 0.15298435D+05 0.15298435D+05 0.12468483D+01  1  2  5  8  6  5       21 -.903181488063D-01 0.100000000000D+01
-.115986509062D-03 0.000000000000D+00 0.000000000000D+00 0.509863848538D-04 0.000000000000D+00  6 1 -2 25 -24 4 -4 4 0.30851048D+00 0.15715623D-02 0.15298435D+05 0.15298435D+05 0.15298435D+05 0.12468483D+01  1  2  5  8  6  5       21 -.903181488063D-01 0.100000000000D+01
0.127375036640D-03 0.000000000000D+00 0.000000000000D+00 0.509863848538D-04 0.127920478848D-04  6 1 -2 25 -24 3 -3 4 0.30851048D+00 0.15715623D-02 0.15298701D+05 0.15298701D+05 0.15298701D+05 0.12468475D+01  1  2 11  8  6  5       21 0.991860802223D-01 0.100000000000D+01
0.127375036640D-03 0.000000000000D+00 0.000000000000D+00 0.509863848538D-04 0.127920478848D-04  6 1 -2 25 -24 4 -4 4 0.30851048D+00 0.15715623D-02 0.15298701D+05 0.15298701D+05 0.15298701D+05 0.12468475D+01  1  2 11  8  6  5       21 0.991860802223D-01 0.100000000000D+01
  </mgrwgt>
  </event>
  <event>
  6     66 0.44337718E-03 0.39771885E+02 0.75467711E-02 0.11372559E+00
        1 -1    0    0  503    0 0.00000000E+00 0.00000000E+00 0.13233839E+04 0.13233840E+04 0.32000000E+00 0.0000E+00 0.9000E+01
       -2 -1    0    0    0  501 0.00000000E+00 0.00000000E+00 -.89428719E+02 0.89429292E+02 0.32000000E+00 0.0000E+00 0.9000E+01
       25  1    1    2    0    0 0.49855512E+02 -.43385709E+02 0.14688758E+03 0.20388441E+03 0.12500000E+03 0.0000E+00 0.9000E+01
      -24  1    1    2    0    0 0.98287935E+02 0.35283761E+02 0.15718774E+03 0.20513572E+03 0.80419002E+02 0.0000E+00 0.9000E+01
       21  1    1    2  502  501 -.75759560E+02 -.22868208E+02 0.91086683E+01 0.79661762E+02 0.75000000E+00 0.0000E+00 0.9000E+01
       21  1    1    2  503  502 -.72383887E+02 0.30970156E+02 0.92077121E+03 0.92413135E+03 0.75000000E+00 0.0000E+00 0.9000E+01
#aMCatNLO 2  0  0  1  5 0.78731046D+02 0.00000000D+00  -5  6  0 0.00000000D+00 0.00000000D+00 0.00000000D+00 0.00000000D+00 0.00000000D+00
  <mgrwgt>
 0.3716057460D-02    2    2    0
 0.183389751119909D+03 0.000000000000000D+00 0.000000000000000D+00 0.183389751119909D+03
 0.183389751119909D+03 0.000000000000000D+00 0.000000000000000D+00 -.183389751119909D+03
 0.132721292165831D+03 0.229591511291447D+02 -.318773836080319D+02 0.211341237789320D+02
 0.122678405263685D+03 0.730513080383951D+02 0.460819187938328D+02 0.335072875331382D+02
 0.111379804810304D+03 -.960104591675398D+02 -.142045351858009D+02 -.546414113120703D+02
 0.000000000000000D+00 -.000000000000000D+00 0.000000000000000D+00 0.000000000000000D+00
 0.619113582446490D+03 0.000000000000000D+00 0.000000000000000D+00 0.619113582446490D+03
 0.191158085487753D+03 0.000000000000000D+00 0.000000000000000D+00 -.191158085487753D+03
 0.142967192994243D+03 0.498563495539019D+02 -.433856139049475D+02 0.211341237789320D+02
 0.135998486718175D+03 0.982887918872243D+02 0.352838136655423D+02 0.335072875331382D+02
 0.961686707782645D+02 -.757612546081973D+02 -.228683560684909D+02 -.546414113120703D+02
 0.435137317443560D+03 -.723838868329289D+02 0.309701563078961D+02 0.427955496958737D+03
-.115964742517D-03 0.000000000000D+00 0.000000000000D+00 0.295651234250D-05 0.000000000000D+00  6 1 -2 25 -24 21 21 4 0.20337311D+00 0.13199176D-01 0.46455563D+05 0.46455563D+05 0.46455563D+05 0.11954572D+01  1  2 13  1  6  1        1 -.840516607109D-02 0.100000000000D+01
0.179361758413D-03 0.000000000000D+00 0.000000000000D+00 0.305386948924D-05 0.500057871928D-08  6 1 -2 25 -24 21 21 4 0.20359723D+00 0.13758289D-01 0.46455563D+05 0.46455563D+05 0.46455563D+05 0.11954572D+01  1  2  1  1  6  1        1 0.121212235312D-01 0.100000000000D+01
  </mgrwgt>
  </event>
  <event>
  6     66 0.44337718E-03 0.21297984E+02 0.75467711E-02 0.11153781E+00
        3 -1    0    0  502    0 0.00000000E+00 0.00000000E+00 0.81684572E+02 0.81686102E+02 0.50000000E+00 0.0000E+00 0.9000E+01
       -4 -1    0    0    0  503 0.00000000E+00 0.00000000E+00 -.13103895E+04 0.13103904E+04 0.15500000E+01 0.0000E+00 0.9000E+01
       25  1    1    2    0    0 -.15045414E+03 -.16186048E+03 -.17888059E+03 0.31057773E+03 0.12500000E+03 0.0000E+00 0.9000E+01
      -24  1    1    2    0    0 0.12005982E+03 0.13042324E+03 -.66852701E+03 0.69629028E+03 0.80419002E+02 0.0000E+00 0.9000E+01
       21  1    1    2  502  501 0.13936221E+02 0.73413458E+01 -.45702370E+02 0.48346486E+02 0.75000000E+00 0.0000E+00 0.9000E+01
       21  1    1    2  501  503 0.16458091E+02 0.24095888E+02 -.33559495E+03 0.33686201E+03 0.75000000E+00 0.0000E+00 0.9000E+01
#aMCatNLO 2  0  0  2  5 0.16665630D+02 0.00000000D+00  -5  6  0 0.00000000D+00 0.00000000D+00 0.00000000D+00 0.00000000D+00 0.00000000D+00
  <mgrwgt>
 0.4360171420D-01    1    2    0
 0.280615727462399D+03 0.000000000000000D+00 0.000000000000000D+00 0.280615727462399D+03
 0.280615727462399D+03 0.000000000000000D+00 0.000000000000000D+00 -.280615727462399D+03
 0.287926521610141D+03 -.141861893353879D+03 -.149275500232939D+03 0.157698161342400D+03
 0.254409609929849D+03 0.127371858046562D+03 0.141133283786965D+03 -.148710590260283D+03
 0.188953233848082D+02 0.144900353073168D+02 0.814221644597352D+01 -.898757108211720D+01
 0.000000000000000D+00 0.000000000000000D+00 0.000000000000000D+00 -.000000000000000D+00
 0.283189697982941D+03 0.000000000000000D+00 0.000000000000000D+00 0.283189697982941D+03
 0.377977182923013D+03 0.000000000000000D+00 0.000000000000000D+00 -.377977182923013D+03
 0.298884514321992D+03 -.150460191847865D+03 -.161864058641265D+03 0.157698161342400D+03
 0.244958662489477D+03 0.120054822064329D+03 0.130420590467164D+03 -.148710590260283D+03
 0.181463484989765D+02 0.139472790671123D+02 0.734758031696756D+01 -.898757108211720D+01
 0.991773555955089D+02 0.164580907164241D+02 0.240958878571337D+02 -.947874849400722D+02
0.148313942065D-01 0.000000000000D+00 0.000000000000D+00 0.398059490216D-04 0.278094323951D-06  6 3 -4 25 -24 21 21 4 0.12566983D-01 0.20159757D+00 0.60884052D+05 0.60884052D+05 0.60884052D+05 0.11839026D+01  1  2  1  2  6  2       -4 0.436017141976D-01 0.100000000000D+01
  </mgrwgt>
  </event>
  <event>
  5     66 0.44337718E-03 0.28281492E+02 0.75467711E-02 0.12406068E+00
        1 -1    0    0  502    0 0.00000000E+00 0.00000000E+00 0.19209446E+04 0.19209446E+04 0.32000000E+00 0.0000E+00 0.9000E+01
       -2 -1    0    0    0  501 0.00000000E+00 0.00000000E+00 -.12584440E+02 0.12588508E+02 0.32000000E+00 0.0000E+00 0.9000E+01
       25  1    1    2    0    0 0.17209433E+02 -.16295774E+02 0.12450926E+04 0.12515760E+04 0.12500000E+03 0.0000E+00 0.9000E+01
      -24  1    1    2    0    0 0.46314972E+01 0.34261463E+02 0.63814893E+03 0.64412465E+03 0.80419002E+02 0.0000E+00 0.9000E+01
       21  1    1    2  502  501 -.21840930E+02 -.17965689E+02 0.25118558E+02 0.37832481E+02 0.75000000E+00 0.0000E+00 0.9000E+01
#aMCatNLO 1  0  0  2  5 0.16665630D+02 0.00000000D+00  -5  6  0 0.00000000D+00 0.00000000D+00 0.00000000D+00 0.00000000D+00 0.00000000D+00
  <mgrwgt>
 0.3340663702D-02    1    2    0
 0.155492669999424D+03 0.000000000000000D+00 0.000000000000000D+00 0.155492669999424D+03
 0.155492669999424D+03 0.000000000000000D+00 0.000000000000000D+00 -.155492669999424D+03
 0.141095439908118D+03 0.172098566927743D+02 -.162954250896795D+02 0.610016648676587D+02
 0.888094878014323D+02 0.463176406999600D+01 0.342616821761895D+02 0.149864293692626D+02
 0.810804122892976D+02 -.218416207627703D+02 -.179662570865100D+02 -.759880942369213D+02
 0.000000000000000D+00 -.000000000000000D+00 0.000000000000000D+00 -.000000000000000D+00
 0.230646841583355D+03 0.000000000000000D+00 0.000000000000000D+00 0.230646841583355D+03
 0.292649146839698D+03 0.000000000000000D+00 0.000000000000000D+00 -.292649146839698D+03
 0.170609365865706D+03 0.525517134963774D+02 -.836640305810491D+02 0.610016648676587D+02
 0.854288377877118D+02 0.243873335658970D+02 -.339636094878314D+01 0.149864293692626D+02
 0.943431249344662D+02 -.195166905941919D+01 -.558804594158242D+02 -.759880942369213D+02
 0.172914659835169D+03 -.749873780028553D+02 0.142940850945656D+03 -.620023052563428D+02
0.509949978344D-05 0.000000000000D+00 0.000000000000D+00 0.400005115846D-04 0.000000000000D+00  6 1 -2 25 -24 21 21 4 0.29553025D+00 0.19363827D-02 0.14767648D+05 0.14767648D+05 0.14767648D+05 0.12485962D+01  1  2 14  2  6  2       -2 0.334066370181D-02 0.100000000000D+01
  </mgrwgt>
  </event>
  <event>
  5     66 -.44337718E-03 0.53460089E+02 0.75467711E-02 0.12062788E+00
        1 -1    0    0  502    0 0.00000000E+00 0.00000000E+00 0.73349957E+03 0.73349964E+03 0.32000000E+00 0.0000E+00 0.9000E+01
       -2 -1    0    0    0  501 0.00000000E+00 0.00000000E+00 -.32439168E+02 0.32440746E+02 0.32000000E+00 0.0000E+00 0.9000E+01
       25  1    1    2    0    0 -.30233509E+02 -.72704429E+02 0.23968577E+03 0.28155686E+03 0.12500000E+03 0.0000E+00 0.9000E+01
      -24  1    1    2    0    0 0.36079852E+02 0.19567989E+02 0.23415486E+03 0.25095892E+03 0.80419002E+02 0.0000E+00 0.9000E+01
       21  1    1    2  502  501 -.58463436E+01 0.53136439E+02 0.22721977E+03 0.23342461E+03 0.75000000E+00 0.0000E+00 0.9000E+01
#aMCatNLO 1  0  0  5  2 0.57516548D+01 0.00000000D+00  -5  6  0 0.00000000D+00 0.00000000D+00 0.00000000D+00 0.00000000D+00 0.00000000D+00
  <mgrwgt>
 -.8217869233D-01   25    2    0
 0.154255460253348D+03 0.000000000000000D+00 0.000000000000000D+00 0.154255460253348D+03
 0.154255460253348D+03 -.000000000000000D+00 -.000000000000000D+00 -.154255460253348D+03
 0.154360617882648D+03 -.302333024537604D+02 -.727063014375461D+02 -.447430609941358D+02
 0.909620390015884D+02 0.360799735263985D+02 0.195668854317072D+02 0.110566310326782D+02
 0.631882636224595D+02 -.584667107263811D+01 0.531394160058390D+02 0.336864299614577D+02
 0.000000000000000D+00 0.000000000000000D+00 0.000000000000000D+00 0.000000000000000D+00
 0.154255460253348D+03 0.000000000000000D+00 0.000000000000000D+00 0.154255460253348D+03
 0.154255460253348D+03 -.000000000000000D+00 -.000000000000000D+00 -.154255460253348D+03
 0.153910307022886D+03 -.303118380200075D+02 -.719925048045203D+02 -.442905671187326D+02
 0.910681078718611D+02 0.360335992513574D+02 0.199883734652845D+02 0.113238230379710D+02
 0.507509552613242D+02 -.208600004621357D+01 0.453569013612016D+02 0.226728816574857D+02
 0.127815503506246D+02 -.363576118513633D+01 0.664722997803425D+01 0.102938624232758D+02
0.332319094866D-04 0.000000000000D+00 0.000000000000D+00 0.830189005838D-05 0.000000000000D+00  6 1 -2 25 -24 21 21 2 0.11284622D+00 0.49907680D-02 0.21240350D+05 0.21240350D+05 0.21240350D+05 0.12309595D+01  1  2  2  3  6  5       21 0.222774580191D-01 0.100000000000D+01
-.136743173576D-06 0.175369604369D-05 -.127619282591D-06 0.830189005838D-05 0.000000000000D+00  6 1 -2 25 -24 21 21 4 0.11284622D+00 0.49907680D-02 0.21240350D+05 0.21240350D+05 0.21240350D+05 0.12309595D+01  1  2  3  3  6  5       21 -.138900409731D-03 0.100000000000D+01
0.857542603505D-06 0.000000000000D+00 0.000000000000D+00 0.830189005838D-05 0.000000000000D+00  6 1 -2 25 -24 21 21 4 0.11284622D+00 0.49907680D-02 0.21240350D+05 0.21240350D+05 0.21240350D+05 0.12309595D+01  1  2 15  3  6  5       21 0.871071044160D-03 0.100000000000D+01
0.100577160543D-03 0.000000000000D+00 0.000000000000D+00 0.830514104912D-05 0.000000000000D+00  6 1 -2 25 -24 21 21 4 0.11284622D+00 0.49907680D-02 0.21132821D+05 0.21132821D+05 0.21132821D+05 0.12312005D+01  1  2 12  3  6  5       21 0.102232806855D+00 0.100000000000D+01
0.105028072036D-03 0.000000000000D+00 0.000000000000D+00 0.830514104912D-05 0.000000000000D+00  6 1 -2 25 -24 21 21 4 0.11284622D+00 0.49907680D-02 0.21132821D+05 0.21132821D+05 0.21132821D+05 0.12312005D+01  1  2 12  3  6  5       21 0.106756986823D+00 0.100000000000D+01
-.518732642544D-03 0.000000000000D+00 0.000000000000D+00 0.830189005838D-05 0.000000000000D+00  6 1 -2 25 -24 21 21 4 0.11284622D+00 0.49907680D-02 0.21240350D+05 0.21240350D+05 0.21240350D+05 0.12309595D+01  1  2  4  3  6  5       21 -.526916077094D+00 0.100000000000D+01
-.299701453704D-03 0.000000000000D+00 0.000000000000D+00 0.830189005838D-05 0.000000000000D+00  6 1 -2 25 -24 21 21 4 0.11284622D+00 0.49907680D-02 0.21240350D+05 0.21240350D+05 0.21240350D+05 0.12309595D+01  1  2  5  3  6  5       21 -.304429490905D+00 0.100000000000D+01
0.368719553980D-03 0.000000000000D+00 -.000000000000D+00 0.830189005838D-05 0.000000000000D+00  6 1 -2 25 -24 21 21 4 0.11284622D+00 0.49907680D-02 0.21240350D+05 0.21240350D+05 0.21240350D+05 0.12309595D+01  1  2  6  3  6  5       21 0.374536408541D+00 0.100000000000D+01
0.136917613872D-03 0.000000000000D+00 0.000000000000D+00 0.830189005838D-05 0.275224262576D-05  6 1 -2 25 -24 21 21 4 0.11284622D+00 0.49907680D-02 0.21132821D+05 0.21132821D+05 0.21132821D+05 0.12312005D+01  1  2 11  3  6  5       21 0.139171476888D+00 0.100000000000D+01
0.142803066398D-05 0.000000000000D+00 0.000000000000D+00 0.830514104912D-05 0.000000000000D+00  6 1 -2 25 -24 1 -1 4 0.11284622D+00 0.49907680D-02 0.21132821D+05 0.21132821D+05 0.21132821D+05 0.12312005D+01  1  2 12  6  6  5       21 0.145153812520D-02 0.100000000000D+01
0.146521137998D-05 0.000000000000D+00 0.000000000000D+00 0.830514104912D-05 0.000000000000D+00  6 1 -2 25 -24 1 -1 4 0.11284622D+00 0.49907680D-02 0.21132821D+05 0.21132821D+05 0.21132821D+05 0.12312005D+01  1  2 12  6  6  5       21 0.148933088986D-02 0.100000000000D+01
-.320043935868D-05 0.000000000000D+00 0.000000000000D+00 0.830189005838D-05 0.000000000000D+00  6 1 -2 25 -24 1 -1 4 0.11284622D+00 0.49907680D-02 0.21240350D+05 0.21240350D+05 0.21240350D+05 0.12309595D+01  1  2  5  6  6  5       21 -.325092892475D-02 0.100000000000D+01
0.114925418853D-05 0.000000000000D+00 0.000000000000D+00 0.830189005838D-05 0.379122672687D-07  6 1 -2 25 -24 1 -1 4 0.11284622D+00 0.49907680D-02 0.21132821D+05 0.21132821D+05 0.21132821D+05 0.12312005D+01  1  2 11  6  6  5       21 0.116817258361D-02 0.100000000000D+01
0.142803066398D-05 0.000000000000D+00 0.000000000000D+00 0.830514104912D-05 0.000000000000D+00  6 1 -2 25 -24 2 -2 4 0.11284622D+00 0.49907680D-02 0.21132821D+05 0.21132821D+05 0.21132821D+05 0.12312005D+01  1  2 12  7  6  5       21 0.145153812520D-02 0.100000000000D+01
0.146521137998D-05 0.000000000000D+00 0.000000000000D+00 0.830514104912D-05 0.000000000000D+00  6 1 -2 25 -24 2 -2 4 0.11284622D+00 0.49907680D-02 0.21132821D+05 0.21132821D+05 0.21132821D+05 0.12312005D+01  1  2 12  7  6  5       21 0.148933088986D-02 0.100000000000D+01
-.320043935868D-05 0.000000000000D+00 0.000000000000D+00 0.830189005838D-05 0.000000000000D+00  6 1 -2 25 -24 2 -2 4 0.11284622D+00 0.49907680D-02 0.21240350D+05 0.21240350D+05 0.21240350D+05 0.12309595D+01  1  2  5  7  6  5       21 -.325092892475D-02 0.100000000000D+01
0.117188922986D-05 0.000000000000D+00 0.000000000000D+00 0.830189005838D-05 0.387095701582D-07  6 1 -2 25 -24 2 -2 4 0.11284622D+00 0.49907680D-02 0.21132821D+05 0.21132821D+05 0.21132821D+05 0.12312005D+01  1  2 11  7  6  5       21 0.119118023062D-02 0.100000000000D+01
0.142803066398D-05 0.000000000000D+00 0.000000000000D+00 0.830514104912D-05 0.000000000000D+00  6 1 -2 25 -24 3 -3 4 0.11284622D+00 0.49907680D-02 0.21132821D+05 0.21132821D+05 0.21132821D+05 0.12312005D+01  1  2 12  8  6  5       21 0.145153812520D-02 0.100000000000D+01
0.142803066398D-05 0.000000000000D+00 0.000000000000D+00 0.830514104912D-05 0.000000000000D+00  6 1 -2 25 -24 4 -4 4 0.11284622D+00 0.49907680D-02 0.21132821D+05 0.21132821D+05 0.21132821D+05 0.12312005D+01  1  2 12  8  6  5       21 0.145153812520D-02 0.100000000000D+01
0.146521137998D-05 0.000000000000D+00 0.000000000000D+00 0.830514104912D-05 0.000000000000D+00  6 1 -2 25 -24 3 -3 4 0.11284622D+00 0.49907680D-02 0.21132821D+05 0.21132821D+05 0.21132821D+05 0.12312005D+01  1  2 12  8  6  5       21 0.148933088986D-02 0.100000000000D+01
0.146521137998D-05 0.000000000000D+00 0.000000000000D+00 0.830514104912D-05 0.000000000000D+00  6 1 -2 25 -24 4 -4 4 0.11284622D+00 0.49907680D-02 0.21132821D+05 0.21132821D+05 0.21132821D+05 0.12312005D+01  1  2 12  8  6  5       21 0.148933088986D-02 0.100000000000D+01
-.320043935868D-05 0.000000000000D+00 0.000000000000D+00 0.830189005838D-05 0.000000000000D+00  6 1 -2 25 -24 3 -3 4 0.11284622D+00 0.49907680D-02 0.21240350D+05 0.21240350D+05 0.21240350D+05 0.12309595D+01  1  2  5  8  6  5       21 -.325092892475D-02 0.100000000000D+01
-.320043935868D-05 0.000000000000D+00 0.000000000000D+00 0.830189005838D-05 0.000000000000D+00  6 1 -2 25 -24 4 -4 4 0.11284622D+00 0.49907680D-02 0.21240350D+05 0.21240350D+05 0.21240350D+05 0.12309595D+01  1  2  5  8  6  5       21 -.325092892475D-02 0.100000000000D+01
0.115127569604D-05 0.000000000000D+00 0.000000000000D+00 0.830189005838D-05 0.378336864392D-07  6 1 -2 25 -24 3 -3 4 0.11284622D+00 0.49907680D-02 0.21132821D+05 0.21132821D+05 0.21132821D+05 0.12312005D+01  1  2 11  8  6  5       21 0.117022736806D-02 0.100000000000D+01
0.115127569604D-05 0.000000000000D+00 0.000000000000D+00 0.830189005838D-05 0.378336864392D-07  6 1 -2 25 -24 4 -4 4 0.11284622D+00 0.49907680D-02 0.21132821D+05 0.21132821D+05 0.21132821D+05 0.12312005D+01  1  2 11  8  6  5       21 0.117022736806D-02 0.100000000000D+01
  </mgrwgt>
  </event>
  <event>
  6     66 0.44337718E-03 0.15853163E+02 0.75467711E-02 0.12388494E+00
        1 -1    0    0  502    0 0.00000000E+00 0.00000000E+00 0.11580713E+04 0.11580713E+04 0.32000000E+00 0.0000E+00 0.9000E+01
       -2 -1    0    0    0  501 0.00000000E+00 0.00000000E+00 -.14478401E+02 0.14481937E+02 0.32000000E+00 0.0000E+00 0.9000E+01
       25  1    1    2    0    0 0.13670748E+02 -.59887144E+01 0.68217473E+03 0.69369310E+03 0.12500000E+03 0.0000E+00 0.9000E+01
      -24  1    1    2    0    0 0.17302086E+02 0.16494844E+02 0.25692356E+03 0.27027463E+03 0.80419002E+02 0.0000E+00 0.9000E+01
       21  1    1    2  503  501 -.22934379E+02 -.88582052E+00 0.17538895E+03 0.17688589E+03 0.75000000E+00 0.0000E+00 0.9000E+01
       21  1    1    2  502  503 -.80384556E+01 -.96203091E+01 0.29105655E+02 0.31699665E+02 0.75000000E+00 0.0000E+00 0.9000E+01
#aMCatNLO 2  0  0  5  2 0.11867591D+02 0.00000000D+00  -5  6  0 0.00000000D+00 0.00000000D+00 0.00000000D+00 0.00000000D+00 0.00000000D+00
  <mgrwgt>
 0.1869518375D+00    3    2    0
 0.129495635438395D+03 0.000000000000000D+00 0.000000000000000D+00 0.129495635438395D+03
 0.129495635438395D+03 -.000000000000000D+00 -.000000000000000D+00 -.129495635438395D+03
 0.128733319674995D+03 0.176093738470013D+02 -.465271429529663D+01 0.248098729732232D+02
 0.900674165200683D+02 0.200473084655649D+02 0.174260361190905D+02 -.306490171570244D+02
 0.401905346817254D+02 -.376566823125663D+02 -.127733218237939D+02 0.583914418380121D+01
 0.000000000000000D+00 0.000000000000000D+00 -.000000000000000D+00 0.000000000000000D+00
 0.129495635438395D+03 0.000000000000000D+00 0.000000000000000D+00 0.129495635438395D+03
 0.129495635438395D+03 -.000000000000000D+00 -.000000000000000D+00 -.129495635438395D+03
 0.128426253824611D+03 0.136278304053112D+02 -.600327235333224D+01 0.254272615694124D+02
 0.891653808674868D+02 0.172722876515905D+02 0.164847361492631D+02 -.302187151322377D+02
 0.259270008093833D+02 -.223784194449498D+02 -.577633702628848D+00 0.130798338453224D+02
 0.154726353753077D+02 -.852169861195196D+01 -.990383009330196D+01 -.828838028249701D+01
-.757531089868D-04 0.000000000000D+00 0.000000000000D+00 0.158235228032D-04 0.000000000000D+00  6 1 -2 25 -24 21 21 4 0.17816509D+00 0.22277217D-02 0.15033675D+05 0.15033675D+05 0.15033675D+05 0.12477115D+01  1  2 13  3  6  5       21 -.126277729021D+00 0.100000000000D+01
-.777973283926D-04 0.000000000000D+00 0.000000000000D+00 0.158235228032D-04 0.000000000000D+00  6 1 -2 25 -24 21 21 4 0.17816509D+00 0.22277217D-02 0.15033675D+05 0.15033675D+05 0.15033675D+05 0.12477115D+01  1  2 13  3  6  5       21 -.129685369811D+00 0.100000000000D+01
0.265701511310D-03 0.000000000000D+00 0.000000000000D+00 0.157675077775D-04 0.161439159360D-05  6 1 -2 25 -24 21 21 4 0.17816509D+00 0.22277217D-02 0.15033675D+05 0.15033675D+05 0.15033675D+05 0.12477115D+01  1  2  1  3  6  5       21 0.442914936356D+00 0.100000000000D+01
  </mgrwgt>
  </event>
  <event>
  5     66 0.44337718E-03 0.37995673E+02 0.75467711E-02 0.11420080E+00
        1 -1    0    0  502    0 0.00000000E+00 0.00000000E+00 0.26566568E+04 0.26566568E+04 0.32000000E+00 0.0000E+00 0.9000E+01
       -2 -1    0    0    0  501 0.00000000E+00 0.00000000E+00 -.95039594E+01 0.95093451E+01 0.32000000E+00 0.0000E+00 0.9000E+01
       25  1    1    2    0    0 -.61821348E+02 -.26459350E+02 0.12671584E+04 0.12750833E+04 0.12500000E+03 0.0000E+00 0.9000E+01
      -24  1    1    2    0    0 0.39082017E+02 0.56896602E+02 0.12754614E+04 0.12798568E+04 0.80419002E+02 0.0000E+00 0.9000E+01
       21  1    1    2  502  501 0.22739332E+02 -.30437252E+02 0.10453299E+03 0.11122595E+03 0.75000000E+00 0.0000E+00 0.9000E+01
#aMCatNLO 1  0  0  2  1 0.11428868D+03 0.00000000D+00  -5  6  0 0.00000000D+00 0.00000000D+00 0.00000000D+00 0.00000000D+00 0.00000000D+00
  <mgrwgt>
 0.1918970985D+00    3    2    0
 0.158921248636331D+03 0.000000000000000D+00 0.000000000000000D+00 0.158921248636331D+03
 0.158921248636331D+03 0.000000000000000D+00 0.000000000000000D+00 -.158921248636331D+03
 0.142278125847165D+03 -.618220834708222D+02 -.264583652415400D+02 0.980051012212142D+01
 0.113169370939910D+03 0.390814315715149D+02 0.568973848403336D+02 0.396915591683734D+02
 0.623950004855866D+02 0.227406518993073D+02 -.304390195987935D+02 -.494920692904948D+02
 0.000000000000000D+00 0.000000000000000D+00 0.000000000000000D+00 0.000000000000000D+00
 0.335164499856984D+03 0.000000000000000D+00 0.000000000000000D+00 0.335164499856984D+03
 0.188521142506824D+03 0.000000000000000D+00 0.000000000000000D+00 -.188521142506824D+03
 0.175273287841168D+03 -.114508037354037D+03 -.434463440731875D+02 0.980051012212142D+01
 0.100610029212236D+03 0.361261886249108D+01 0.454608748206007D+02 0.396915591683734D+02
 0.618825124991902D+02 0.212137881283041D+01 -.370874666496616D+02 -.494920692904948D+02
 0.185919812811214D+03 0.108774039678715D+03 0.350729359022484D+02 0.146643357350160D+03
0.851008572787D-03 0.000000000000D+00 0.000000000000D+00 0.164967171355D-04 0.000000000000D+00  6 1 -2 25 -24 21 21 2 0.40871684D+00 0.14625634D-02 0.20437054D+05 0.20437054D+05 0.20437054D+05 0.12327938D+01  1  2  2  2  6  2       -2 0.175562580925D+00 0.100000000000D+01
0.407575839674D-04 0.449089561899D-04 -.326809699520D-05 0.164967171355D-04 0.000000000000D+00  6 1 -2 25 -24 21 21 4 0.40871684D+00 0.14625634D-02 0.20437054D+05 0.20437054D+05 0.20437054D+05 0.12327938D+01  1  2  3  2  6  2       -2 0.127787197600D-01 0.100000000000D+01
0.113411774089D-04 0.000000000000D+00 0.000000000000D+00 0.164967171355D-04 0.000000000000D+00  6 1 -2 25 -24 21 21 4 0.40871684D+00 0.14625634D-02 0.20437054D+05 0.20437054D+05 0.20437054D+05 0.12327938D+01  1  2 15  2  6  2       -2 0.355579781109D-02 0.100000000000D+01
  </mgrwgt>
  </event>
  <event>
  5     66 0.44337718E-03 0.43690211E+02 0.75467711E-02 0.10481036E+00
        1 -1    0    0  502    0 0.00000000E+00 0.00000000E+00 0.72006910E+03 0.72006917E+03 0.32000000E+00 0.0000E+00 0.9000E+01
       -2 -1    0    0    0  501 0.00000000E+00 0.00000000E+00 -.13932810E+03 0.13932846E+03 0.32000000E+00 0.0000E+00 0.9000E+01
       25  1    1    2    0    0 0.45278636E+02 0.91837253E+02 0.25296064E+03 0.30016382E+03 0.12500000E+03 0.0000E+00 0.9000E+01
      -24  1    1    2    0    0 -.84206602E+02 -.11167246E+03 0.42394575E+03 0.45360633E+03 0.80419002E+02 0.0000E+00 0.9000E+01
       21  1    1    2  502  501 0.38927966E+02 0.19835202E+02 -.96165383E+02 0.10562748E+03 0.75000000E+00 0.0000E+00 0.9000E+01
#aMCatNLO 1  0  0  2  2 0.11169468D+00 0.00000000D+00  -5  6  0 0.00000000D+00 0.00000000D+00 0.00000000D+00 0.00000000D+00 0.00000000D+00
  <mgrwgt>
 0.3079205161D-01    5    4    0
 0.316742870545019D+03 0.000000000000000D+00 0.000000000000000D+00 0.316742870545019D+03
 0.316742870545019D+03 0.000000000000000D+00 0.000000000000000D+00 -.316742870545019D+03
 0.175308644752626D+03 0.452785790755375D+02 0.918372244340461D+02 0.679992309526620D+02
 0.226722937487503D+03 -.842066750946383D+02 -.111672492971149D+03 0.159293956607607D+03
 0.231454158849909D+03 0.389280960191008D+02 0.198352685371026D+02 -.227293187560269D+03
 0.000000000000000D+00 0.000000000000000D+00 0.000000000000000D+00 -.000000000000000D+00
 0.366017408460093D+03 0.000000000000000D+00 0.000000000000000D+00 0.366017408460093D+03
 0.173979988442432D+04 0.000000000000000D+00 0.000000000000000D+00 -.173979988442432D+04
 0.145703625288779D+03 0.184404966669154D+02 0.253100591626492D+02 0.679992309526620D+02
 0.314097446639308D+03 -.129421713247497D+03 -.223753090614049D+03 0.159293956607607D+03
 0.240281592857702D+03 -.511153383388240D+00 -.779281045396681D+02 -.227293187560269D+03
 0.140573462809862D+04 0.111492369963970D+03 0.276371135991068D+03 -.137378247596423D+04
 0.316742870545019D+03 0.000000000000000D+00 0.000000000000000D+00 0.316742870545019D+03
 0.316742870545019D+03 0.000000000000000D+00 0.000000000000000D+00 -.316742870545019D+03
 0.175308644752626D+03 0.452785790755375D+02 0.918372244340461D+02 0.679992309526620D+02
 0.226722937487503D+03 -.842066750946383D+02 -.111672492971149D+03 0.159293956607607D+03
 0.000000000000000D+00 0.000000000000000D+00 0.000000000000000D+00 -.000000000000000D+00
 0.231454158849909D+03 0.389280960191008D+02 0.198352685371026D+02 -.227293187560269D+03
 0.366017408460093D+03 0.000000000000000D+00 0.000000000000000D+00 0.366017408460093D+03
 0.173979988442432D+04 0.000000000000000D+00 0.000000000000000D+00 -.173979988442432D+04
 0.145703625288779D+03 0.184404966669154D+02 0.253100591626492D+02 0.679992309526620D+02
 0.314097446639308D+03 -.129421713247497D+03 -.223753090614049D+03 0.159293956607607D+03
 0.140573462809862D+04 0.111492369963970D+03 0.276371135991068D+03 -.137378247596423D+04
 0.240281592857702D+03 -.511153383388240D+00 -.779281045396681D+02 -.227293187560269D+03
0.719082880824D-03 0.000000000000D+00 0.000000000000D+00 0.170693216774D-04 0.000000000000D+00  6 1 -2 25 -24 21 21 2 0.11077990D+00 0.21435126D-01 0.33600340D+05 0.33600340D+05 0.33600340D+05 0.12097660D+01  1  2  2  2  6  2       -2 0.471287727352D-01 0.100000000000D+01
0.101209154726D-03 0.379470461573D-04 -.276146760124D-05 0.170693216774D-04 0.000000000000D+00  6 1 -2 25 -24 21 21 4 0.11077990D+00 0.21435126D-01 0.33600340D+05 0.33600340D+05 0.33600340D+05 0.12097660D+01  1  2  3  2  6  2       -2 0.970799944480D-02 0.100000000000D+01
0.258534897691D-04 0.000000000000D+00 0.000000000000D+00 0.170693216774D-04 0.000000000000D+00  6 1 -2 25 -24 21 21 4 0.11077990D+00 0.21435126D-01 0.33600340D+05 0.33600340D+05 0.33600340D+05 0.12097660D+01  1  2 15  2  6  2       -2 0.247987116388D-02 0.100000000000D+01
-.300973051764D-02 0.000000000000D+00 -.519904132848D-03 0.170693216774D-04 0.000000000000D+00  6 1 -2 25 -24 21 21 4 0.11077990D+00 0.12649562D+00 0.33600340D+05 0.33600340D+05 0.33600340D+05 0.12097660D+01  1  2  5  2  6  2       -2 -.784647483734D-02 0.100000000000D+01
-.686271883428D-03 0.000000000000D+00 -.113100282451D-03 0.170693216774D-04 0.000000000000D+00  6 1 21 25 -24 2 21 4 0.11077990D+00 0.12649562D+00 0.33600340D+05 0.33600340D+05 0.33600340D+05 0.12097660D+01  3  4  5  5  5  2       -2 -.206781169005D-01 0.100000000000D+01
  </mgrwgt>
  </event>
  <event>
  5     66 0.44337718E-03 0.24146617E+02 0.75467711E-02 0.12425060E+00
        1 -1    0    0  502    0 0.00000000E+00 0.00000000E+00 0.34994263E+03 0.34994277E+03 0.32000000E+00 0.0000E+00 0.9000E+01
       -2 -1    0    0    0  501 0.00000000E+00 0.00000000E+00 -.55804596E+02 0.55805514E+02 0.32000000E+00 0.0000E+00 0.9000E+01
       25  1    1    2    0    0 0.19168104E+02 -.41815130E+02 0.87224982E+02 0.15921407E+03 0.12500000E+03 0.0000E+00 0.9000E+01
      -24  1    1    2    0    0 -.12585048E+02 0.18588490E+02 0.20609724E+03 0.22236727E+03 0.80419002E+02 0.0000E+00 0.9000E+01
       21  1    1    2  502  501 -.65830556E+01 0.23226639E+02 0.81580929E+00 0.24166949E+02 0.75000000E+00 0.0000E+00 0.9000E+01
#aMCatNLO 1  0  0  5  2 0.16007061D+01 0.00000000D+00  -5  6  0 0.00000000D+00 0.00000000D+00 0.00000000D+00 0.00000000D+00 0.00000000D+00
  <mgrwgt>
 0.2278119352D+00   25    2    0
 0.139744848783468D+03 0.000000000000000D+00 0.000000000000000D+00 0.139744848783468D+03
 0.139744848783468D+03 -.000000000000000D+00 -.000000000000000D+00 -.139744848783468D+03
 0.139342077845934D+03 0.191688922675098D+02 -.418179110569340D+02 -.409271369936045D+02
 0.105922900139537D+03 -.125844490866274D+02 0.185863760202303D+02 0.651814627576004D+02
 0.342247195814649D+02 -.658444318088246D+01 0.232315350367038D+02 -.242543257639960D+02
 0.000000000000000D+00 -.000000000000000D+00 0.000000000000000D+00 0.000000000000000D+00
 0.139744848783468D+03 0.000000000000000D+00 0.000000000000000D+00 0.139744848783468D+03
 0.139744848783468D+03 -.000000000000000D+00 -.000000000000000D+00 -.139744848783468D+03
 0.139340179653472D+03 0.191520744894554D+02 -.417585737994960D+02 -.409890866310077D+02
 0.105903375704759D+03 -.125972322732041D+02 0.186314782465962D+02 0.651343748622361D+02
 0.106559652499500D+02 -.168513310462862D+01 0.606916720592063D+01 -.859506435429099D+01
 0.235901769587550D+02 -.486970911162273D+01 0.170579283469792D+02 -.155502238769375D+02
0.257659842391D-04 0.000000000000D+00 0.000000000000D+00 0.335365015482D-04 0.000000000000D+00  6 1 -2 25 -24 21 21 2 0.53837409D-01 0.85854043D-02 0.14500422D+05 0.14500422D+05 0.14500422D+05 0.12495031D+01  1  2  2  3  6  5       21 0.204824497427D-01 0.100000000000D+01
0.278228155478D-05 0.135970834417D-05 -.989481638174D-07 0.335365015482D-04 0.000000000000D+00  6 1 -2 25 -24 21 21 4 0.53837409D-01 0.85854043D-02 0.14500422D+05 0.14500422D+05 0.14500422D+05 0.12495031D+01  1  2  3  3  6  5       21 0.345311372857D-02 0.100000000000D+01
0.969726437956D-06 0.000000000000D+00 0.000000000000D+00 0.335365015482D-04 0.000000000000D+00  6 1 -2 25 -24 21 21 4 0.53837409D-01 0.85854043D-02 0.14500422D+05 0.14500422D+05 0.14500422D+05 0.12495031D+01  1  2 15  3  6  5       21 0.120353587872D-02 0.100000000000D+01
0.286388786313D-07 0.000000000000D+00 0.000000000000D+00 0.335391062578D-04 0.000000000000D+00  6 1 -2 25 -24 21 21 4 0.53837409D-01 0.85854043D-02 0.14486277D+05 0.14486277D+05 0.14486277D+05 0.12495516D+01  1  2 12  3  6  5       21 0.355484167028D-04 0.100000000000D+01
0.284889411610D-07 0.000000000000D+00 0.000000000000D+00 0.335391062578D-04 0.000000000000D+00  6 1 -2 25 -24 21 21 4 0.53837409D-01 0.85854043D-02 0.14486277D+05 0.14486277D+05 0.14486277D+05 0.12495516D+01  1  2 12  3  6  5       21 0.353623046785D-04 0.100000000000D+01
-.716087891094D-03 0.000000000000D+00 0.000000000000D+00 0.335365015482D-04 0.000000000000D+00  6 1 -2 25 -24 21 21 4 0.53837409D-01 0.85854043D-02 0.14500422D+05 0.14500422D+05 0.14500422D+05 0.12495031D+01  1  2  4  3  6  5       21 -.888742882025D+00 0.100000000000D+01
-.193442650415D-03 0.000000000000D+00 0.000000000000D+00 0.335365015482D-04 0.000000000000D+00  6 1 -2 25 -24 21 21 4 0.53837409D-01 0.85854043D-02 0.14500422D+05 0.14500422D+05 0.14500422D+05 0.12495031D+01  1  2  5  3  6  5       21 -.240083348391D+00 0.100000000000D+01
0.827030719665D-03 0.000000000000D+00 -.000000000000D+00 0.335365015482D-04 0.000000000000D+00  6 1 -2 25 -24 21 21 4 0.53837409D-01 0.85854043D-02 0.14500422D+05 0.14500422D+05 0.14500422D+05 0.12495031D+01  1  2  6  3  6  5       21 0.102643498719D+01 0.100000000000D+01
0.237662482637D-03 0.000000000000D+00 0.000000000000D+00 0.335365015482D-04 0.994264891226D-04  6 1 -2 25 -24 21 21 4 0.53837409D-01 0.85854043D-02 0.14486277D+05 0.14486277D+05 0.14486277D+05 0.12495516D+01  1  2 11  3  6  5       21 0.295001947393D+00 0.100000000000D+01
0.929007389595D-09 0.000000000000D+00 0.000000000000D+00 0.335391062578D-04 0.000000000000D+00  6 1 -2 25 -24 1 -1 4 0.53837409D-01 0.85854043D-02 0.14486277D+05 0.14486277D+05 0.14486277D+05 0.12495516D+01  1  2 12  6  6  5       21 0.115314367683D-05 0.100000000000D+01
0.921150263128D-09 0.000000000000D+00 0.000000000000D+00 0.335391062578D-04 0.000000000000D+00  6 1 -2 25 -24 1 -1 4 0.53837409D-01 0.85854043D-02 0.14486277D+05 0.14486277D+05 0.14486277D+05 0.12495516D+01  1  2 12  6  6  5       21 0.114339090650D-05 0.100000000000D+01
-.507545042905D-05 0.000000000000D+00 0.000000000000D+00 0.335365015482D-04 0.000000000000D+00  6 1 -2 25 -24 1 -1 4 0.53837409D-01 0.85854043D-02 0.14500422D+05 0.14500422D+05 0.14500422D+05 0.12495031D+01  1  2  5  6  6  5       21 -.629918547429D-02 0.100000000000D+01
0.713858746757D-05 0.000000000000D+00 0.000000000000D+00 0.335365015482D-04 0.978871892935D-06  6 1 -2 25 -24 1 -1 4 0.53837409D-01 0.85854043D-02 0.14486277D+05 0.14486277D+05 0.14486277D+05 0.12495516D+01  1  2 11  6  6  5       21 0.886087354302D-02 0.100000000000D+01
0.929007389595D-09 0.000000000000D+00 0.000000000000D+00 0.335391062578D-04 0.000000000000D+00  6 1 -2 25 -24 2 -2 4 0.53837409D-01 0.85854043D-02 0.14486277D+05 0.14486277D+05 0.14486277D+05 0.12495516D+01  1  2 12  7  6  5       21 0.115314367683D-05 0.100000000000D+01
0.921150263128D-09 0.000000000000D+00 0.000000000000D+00 0.335391062578D-04 0.000000000000D+00  6 1 -2 25 -24 2 -2 4 0.53837409D-01 0.85854043D-02 0.14486277D+05 0.14486277D+05 0.14486277D+05 0.12495516D+01  1  2 12  7  6  5       21 0.114339090650D-05 0.100000000000D+01
-.507545042905D-05 0.000000000000D+00 0.000000000000D+00 0.335365015482D-04 0.000000000000D+00  6 1 -2 25 -24 2 -2 4 0.53837409D-01 0.85854043D-02 0.14500422D+05 0.14500422D+05 0.14500422D+05 0.12495031D+01  1  2  5  7  6  5       21 -.629918547429D-02 0.100000000000D+01
0.702248549977D-05 0.000000000000D+00 0.000000000000D+00 0.335365015482D-04 0.963224997210D-06  6 1 -2 25 -24 2 -2 4 0.53837409D-01 0.85854043D-02 0.14486277D+05 0.14486277D+05 0.14486277D+05 0.12495516D+01  1  2 11  7  6  5       21 0.871676031902D-02 0.100000000000D+01
0.929007389595D-09 0.000000000000D+00 0.000000000000D+00 0.335391062578D-04 0.000000000000D+00  6 1 -2 25 -24 3 -3 4 0.53837409D-01 0.85854043D-02 0.14486277D+05 0.14486277D+05 0.14486277D+05 0.12495516D+01  1  2 12  8  6  5       21 0.115314367683D-05 0.100000000000D+01
0.929007389595D-09 0.000000000000D+00 0.000000000000D+00 0.335391062578D-04 0.000000000000D+00  6 1 -2 25 -24 4 -4 4 0.53837409D-01 0.85854043D-02 0.14486277D+05 0.14486277D+05 0.14486277D+05 0.12495516D+01  1  2 12  8  6  5       21 0.115314367683D-05 0.100000000000D+01
0.921150263128D-09 0.000000000000D+00 0.000000000000D+00 0.335391062578D-04 0.000000000000D+00  6 1 -2 25 -24 3 -3 4 0.53837409D-01 0.85854043D-02 0.14486277D+05 0.14486277D+05 0.14486277D+05 0.12495516D+01  1  2 12  8  6  5       21 0.114339090650D-05 0.100000000000D+01
0.921150263128D-09 0.000000000000D+00 0.000000000000D+00 0.335391062578D-04 0.000000000000D+00  6 1 -2 25 -24 4 -4 4 0.53837409D-01 0.85854043D-02 0.14486277D+05 0.14486277D+05 0.14486277D+05 0.12495516D+01  1  2 12  8  6  5       21 0.114339090650D-05 0.100000000000D+01
-.507545042905D-05 0.000000000000D+00 0.000000000000D+00 0.335365015482D-04 0.000000000000D+00  6 1 -2 25 -24 3 -3 4 0.53837409D-01 0.85854043D-02 0.14500422D+05 0.14500422D+05 0.14500422D+05 0.12495031D+01  1  2  5  8  6  5       21 -.629918547429D-02 0.100000000000D+01
-.507545042905D-05 0.000000000000D+00 0.000000000000D+00 0.335365015482D-04 0.000000000000D+00  6 1 -2 25 -24 4 -4 4 0.53837409D-01 0.85854043D-02 0.14500422D+05 0.14500422D+05 0.14500422D+05 0.12495031D+01  1  2  5  8  6  5       21 -.629918547429D-02 0.100000000000D+01
0.709000627654D-05 0.000000000000D+00 0.000000000000D+00 0.335365015482D-04 0.972108176602D-06  6 1 -2 25 -24 3 -3 4 0.53837409D-01 0.85854043D-02 0.14486277D+05 0.14486277D+05 0.14486277D+05 0.12495516D+01  1  2 11  8  6  5       21 0.880057144653D-02 0.100000000000D+01
0.709000627654D-05 0.000000000000D+00 0.000000000000D+00 0.335365015482D-04 0.972108176602D-06  6 1 -2 25 -24 4 -4 4 0.53837409D-01 0.85854043D-02 0.14486277D+05 0.14486277D+05 0.14486277D+05 0.12495516D+01  1  2 11  8  6  5       21 0.880057144653D-02 0.100000000000D+01
  </mgrwgt>
  </event>
  <event>
  5     66 0.44337718E-03 0.68834124E+02 0.75467711E-02 0.11804231E+00
        1 -1    0    0  502    0 0.00000000E+00 0.00000000E+00 0.15053257E+04 0.15053258E+04 0.32000000E+00 0.0000E+00 0.9000E+01
       -2 -1    0    0    0  501 0.00000000E+00 0.00000000E+00 -.20626782E+02 0.20629264E+02 0.32000000E+00 0.0000E+00 0.9000E+01
       25  1    1    2    0    0 -.50529738E+01 0.92046263E+02 0.52404121E+03 0.54657317E+03 0.12500000E+03 0.0000E+00 0.9000E+01
      -24  1    1    2    0    0 -.37445210E+01 0.43724962E+01 0.62038919E+03 0.62560619E+03 0.80419002E+02 0.0000E+00 0.9000E+01
       21  1    1    2  502  501 0.87974948E+01 -.96418759E+02 0.34026856E+03 0.35377568E+03 0.75000000E+00 0.0000E+00 0.9000E+01
#aMCatNLO 1  0  0  2  5 0.23456328D+01 0.00000000D+00  -5  6  0 0.00000000D+00 0.00000000D+00 0.00000000D+00 0.00000000D+00 0.00000000D+00
  <mgrwgt>
 0.1252130482D-01   11    4    0
 0.176215622475814D+03 0.000000000000000D+00 0.000000000000000D+00 0.176215622475814D+03
 0.176215622475814D+03 0.000000000000000D+00 0.000000000000000D+00 -.176215622475814D+03
 0.158904459028966D+03 -.505308922015061D+01 0.920475281398860D+02 -.335759728371127D+02
 0.952122439558058D+02 -.374459015665103D+01 0.437325419526366D+01 0.506459093810317D+02
 0.983145419668562D+02 0.879767937680164D+01 -.964207823351496D+02 -.170699365439190D+02
 0.000000000000000D+00 -.000000000000000D+00 0.000000000000000D+00 -.000000000000000D+00
 0.176253514986251D+03 0.000000000000000D+00 0.000000000000000D+00 0.176253514986251D+03
 0.216687651743245D+03 0.000000000000000D+00 0.000000000000000D+00 -.216687651743245D+03
 0.158528015024132D+03 -.418907884324285D+01 0.914398010385961D+02 -.335759728371127D+02
 0.951772224660817D+02 -.322637451052616D+01 0.400875198454990D+01 0.506459093810317D+02
 0.987338131428816D+02 0.933401966169303D+01 -.967980330434207D+02 -.170699365439190D+02
 0.405021160964005D+02 -.191856630792401D+01 0.134948002027469D+01 -.404341367569938D+02
 0.176215622475814D+03 0.000000000000000D+00 0.000000000000000D+00 0.176215622475814D+03
 0.176215622475814D+03 0.000000000000000D+00 0.000000000000000D+00 -.176215622475814D+03
 0.158904459028966D+03 -.505308922015061D+01 0.920475281398860D+02 -.335759728371127D+02
 0.952122439558058D+02 -.374459015665103D+01 0.437325419526366D+01 0.506459093810317D+02
 0.000000000000000D+00 -.000000000000000D+00 0.000000000000000D+00 -.000000000000000D+00
 0.983145419668562D+02 0.879767937680164D+01 -.964207823351496D+02 -.170699365439190D+02
 0.176253514986251D+03 0.000000000000000D+00 0.000000000000000D+00 0.176253514986251D+03
 0.216687651743245D+03 0.000000000000000D+00 0.000000000000000D+00 -.216687651743245D+03
 0.158528015024132D+03 -.418907884324285D+01 0.914398010385961D+02 -.335759728371127D+02
 0.951772224660817D+02 -.322637451052616D+01 0.400875198454990D+01 0.506459093810317D+02
 0.405021160964005D+02 -.191856630792401D+01 0.134948002027469D+01 -.404341367569938D+02
 0.987338131428816D+02 0.933401966169303D+01 -.967980330434207D+02 -.170699365439190D+02
0.210615202051D-05 0.000000000000D+00 0.000000000000D+00 0.253303158984D-05 0.000000000000D+00  6 1 -2 25 -24 21 21 2 0.23158877D+00 0.31735446D-02 0.27682779D+05 0.27682779D+05 0.27682779D+05 0.12185797D+01  1  2  2  2  6  2       -2 0.757435400790D-03 0.100000000000D+01
-.159562837785D-06 0.111144695650D-06 -.808817832133D-08 0.253303158984D-05 0.000000000000D+00  6 1 -2 25 -24 21 21 4 0.23158877D+00 0.31735446D-02 0.27682779D+05 0.27682779D+05 0.27682779D+05 0.12185797D+01  1  2  3  2  6  2       -2 -.852109647434D-04 0.100000000000D+01
0.738695672064D-07 0.000000000000D+00 0.000000000000D+00 0.253303158984D-05 0.000000000000D+00  6 1 -2 25 -24 21 21 4 0.23158877D+00 0.31735446D-02 0.27682779D+05 0.27682779D+05 0.27682779D+05 0.12185797D+01  1  2 15  2  6  2       -2 0.394483902029D-04 0.100000000000D+01
0.378274062827D-05 0.000000000000D+00 0.000000000000D+00 0.253034830338D-05 0.000000000000D+00  6 1 -2 25 -24 21 21 4 0.23158877D+00 0.39039687D-02 0.28074288D+05 0.28074288D+05 0.28074288D+05 0.12179341D+01  1  2 12  2  6  2       -2 0.148175337133D-02 0.100000000000D+01
-.104331584042D-02 0.000000000000D+00 0.000000000000D+00 0.253303158984D-05 0.000000000000D+00  6 1 -2 25 -24 21 21 4 0.23158877D+00 0.31735446D-02 0.27682779D+05 0.27682779D+05 0.27682779D+05 0.12185797D+01  1  2  4  2  6  2       -2 -.557159489816D+00 0.100000000000D+01
-.113000354293D-02 0.000000000000D+00 -.232016611190D-05 0.253303158984D-05 0.000000000000D+00  6 1 -2 25 -24 21 21 4 0.23158877D+00 0.39028353D-02 0.27682779D+05 0.27682779D+05 0.27682779D+05 0.12185797D+01  1  2  5  2  6  2       -2 -.443764833243D+00 0.100000000000D+01
0.110676912294D-02 0.000000000000D+00 0.227139758155D-05 0.253303158984D-05 0.000000000000D+00  6 1 -2 25 -24 21 21 4 0.23158877D+00 0.31735446D-02 0.27682779D+05 0.27682779D+05 0.27682779D+05 0.12185797D+01  1  2  6  2  6  2       -2 0.591045296154D+00 0.100000000000D+01
0.107267425329D-02 0.000000000000D+00 0.000000000000D+00 0.253303158984D-05 0.177719293073D-05  6 1 -2 25 -24 21 21 4 0.23163857D+00 0.39024232D-02 0.28074288D+05 0.28074288D+05 0.28074288D+05 0.12179341D+01  1  2 11  2  6  2       -2 0.420225620523D+00 0.100000000000D+01
0.111193851629D-06 0.000000000000D+00 0.000000000000D+00 0.253034830338D-05 0.000000000000D+00  6 1 21 25 -24 2 21 4 0.23158877D+00 0.39039687D-02 0.28074288D+05 0.28074288D+05 0.28074288D+05 0.12179341D+01  3  4 12  5  5  2       -2 0.809289628020D-03 0.100000000000D+01
-.331527142144D-04 0.000000000000D+00 -.681285360561D-07 0.253303158984D-05 0.000000000000D+00  6 1 21 25 -24 2 21 4 0.23158877D+00 0.39028353D-02 0.27682779D+05 0.27682779D+05 0.27682779D+05 0.12185797D+01  3  4  5  5  5  2       -2 -.241980823740D+00 0.100000000000D+01
0.331278598715D-04 0.000000000000D+00 0.000000000000D+00 0.253303158984D-05 0.109767984719D-06  6 1 21 25 -24 2 21 4 0.23163857D+00 0.39024232D-02 0.28074288D+05 0.28074288D+05 0.28074288D+05 0.12179341D+01  3  4 11  5  5  2       -2 0.241152819120D+00 0.100000000000D+01
  </mgrwgt>
  </event>
  <event>
  5     66 -.44337718E-03 0.45658512E+02 0.75467711E-02 0.11474019E+00
        1 -1    0    0  502    0 0.00000000E+00 0.00000000E+00 0.13786521E+04 0.13786522E+04 0.32000000E+00 0.0000E+00 0.9000E+01
       -2 -1    0    0    0  501 0.00000000E+00 0.00000000E+00 -.31264788E+02 0.31266426E+02 0.32000000E+00 0.0000E+00 0.9000E+01
       25  1    1    2    0    0 -.99466061E+01 -.15558747E+03 0.79101553E+03 0.81586577E+03 0.12500000E+03 0.0000E+00 0.9000E+01
      -24  1    1    2    0    0 0.47724024E+02 0.12995407E+03 0.39140455E+03 0.42288341E+03 0.80419002E+02 0.0000E+00 0.9000E+01
       21  1    1    2  502  501 -.37777418E+02 0.25633404E+02 0.16496726E+03 0.17116940E+03 0.75000000E+00 0.0000E+00 0.9000E+01
#aMCatNLO 1  0  0  5  5 0.23823824D+00 0.00000000D+00  -5  6  0 0.00000000D+00 0.00000000D+00 0.00000000D+00 0.00000000D+00 0.00000000D+00
  <mgrwgt>
 -.1885346469D-02    1    2    0
 0.207616105050047D+03 0.000000000000000D+00 0.000000000000000D+00 0.207616105050047D+03
 0.207616105050047D+03 -.000000000000000D+00 -.000000000000000D+00 -.207616105050047D+03
 0.203501730371693D+03 -.994413429008955D+01 -.155589150801273D+03 0.384848620944979D+02
 0.165828831813750D+03 0.477260384194419D+02 0.129952702917605D+03 -.432030759036586D+02
 0.459016479146509D+02 -.377819041293524D+02 0.256364478836684D+02 0.471821380916068D+01
 0.000000000000000D+00 -.000000000000000D+00 0.000000000000000D+00 0.000000000000000D+00
 0.207616105050047D+03 0.000000000000000D+00 0.000000000000000D+00 0.207616105050047D+03
 0.207616105050047D+03 -.000000000000000D+00 -.000000000000000D+00 -.207616105050047D+03
 0.202141206106208D+03 -.130613491882062D+02 -.153474002845676D+03 0.388741406848003D+02
 0.166396583010990D+03 0.451730098332260D+02 0.131685029167546D+03 -.428842530436612D+02
 0.202679593340525D+02 -.622006171250737D+01 0.177856868833670D+02 0.746795487039352D+01
 0.264264616488429D+02 -.258915989325124D+02 0.400328679476316D+01 -.345784251153261D+01
-.574976366903D-05 0.000000000000D+00 0.000000000000D+00 0.792676741773D-05 0.000000000000D+00  6 1 -2 25 -24 21 21 4 0.21210046D+00 0.48100962D-02 0.41125864D+05 0.41125864D+05 0.41125864D+05 0.12007780D+01  1  2 14  3  6  5       21 -.188534646921D-02 0.100000000000D+01
  </mgrwgt>
  </event>
  <event>
  5     66 0.44337718E-03 0.64489334E+02 0.75467711E-02 0.12114036E+00
        1 -1    0    0  502    0 0.00000000E+00 0.00000000E+00 0.81663283E+03 0.81663289E+03 0.32000000E+00 0.0000E+00 0.9000E+01
       -2 -1    0    0    0  501 0.00000000E+00 0.00000000E+00 -.26431535E+02 0.26433472E+02 0.32000000E+00 0.0000E+00 0.9000E+01
       25  1    1    2    0    0 -.15087376E+01 -.55385470E+02 0.30308365E+03 0.33249741E+03 0.12500000E+03 0.0000E+00 0.9000E+01
      -24  1    1    2    0    0 -.30482672E+02 -.27520032E+01 0.29627850E+03 0.30852055E+03 0.80419002E+02 0.0000E+00 0.9000E+01
       21  1    1    2  502  501 0.31991410E+02 0.58137473E+02 0.19083914E+03 0.20204840E+03 0.75000000E+00 0.0000E+00 0.9000E+01
#aMCatNLO 1  0  0  5  1 0.12223765D+02 0.00000000D+00  -5  6  0 0.00000000D+00 0.00000000D+00 0.00000000D+00 0.00000000D+00 0.00000000D+00
  <mgrwgt>
 0.8109911413D-01   14    2    0
 0.146920735151991D+03 0.000000000000000D+00 0.000000000000000D+00 0.146920735151991D+03
 0.146920735151991D+03 -.000000000000000D+00 -.000000000000000D+00 -.146920735151991D+03
 0.138920152137665D+03 -.150969974769768D+01 -.553872184776518D+02 -.245720472474871D+02
 0.884276631117245D+02 -.304832844204882D+02 -.275311620440114D+01 0.203819864374107D+02
 0.664936550545920D+02 0.319929841681859D+02 0.581403346820530D+02 0.419006081007640D+01
 0.000000000000000D+00 -.000000000000000D+00 0.000000000000000D+00 0.000000000000000D+00
 0.146920735151991D+03 0.000000000000000D+00 0.000000000000000D+00 0.146920735151991D+03
 0.146920735151991D+03 -.000000000000000D+00 -.000000000000000D+00 -.146920735151991D+03
 0.136795009112295D+03 0.144986313809341D+01 -.500088525275450D+02 -.241844388769294D+02
 0.878108545862723D+02 -.285915169396533D+02 0.684762359791648D+00 0.206297476572317D+02
 0.122466397363256D+02 0.708623570566390D+01 -.234396613565999D+01 -.970933937557047D+01
 0.569889668690888D+02 0.200554180958960D+02 0.516680563034134D+02 0.132640305952682D+02
0.976181819206D-04 0.000000000000D+00 0.000000000000D+00 0.592934060563D-05 0.000000000000D+00  6 1 -2 25 -24 21 21 2 0.12563597D+00 0.40665439D-02 0.20900182D+05 0.20900182D+05 0.20900182D+05 0.12317266D+01  1  2  2  3  6  5       21 0.758354031118D-01 0.100000000000D+01
-.367518356932D-05 0.515145298813D-05 -.374879522033D-06 0.592934060563D-05 0.000000000000D+00  6 1 -2 25 -24 21 21 4 0.12563597D+00 0.40665439D-02 0.20900182D+05 0.20900182D+05 0.20900182D+05 0.12317266D+01  1  2  3  3  6  5       21 -.433160636911D-02 0.100000000000D+01
0.304207880400D-05 0.000000000000D+00 0.000000000000D+00 0.592934060563D-05 0.000000000000D+00  6 1 -2 25 -24 21 21 4 0.12563597D+00 0.40665439D-02 0.20900182D+05 0.20900182D+05 0.20900182D+05 0.12317266D+01  1  2 15  3  6  5       21 0.358542306097D-02 0.100000000000D+01
0.534686132728D-05 0.000000000000D+00 0.000000000000D+00 0.594944520950D-05 0.000000000000D+00  6 1 -2 25 -24 21 21 4 0.12563597D+00 0.40665439D-02 0.20005428D+05 0.20005428D+05 0.20005428D+05 0.12338131D+01  1  2 12  3  6  5       21 0.633850493313D-02 0.100000000000D+01
0.560749634768D-05 0.000000000000D+00 0.000000000000D+00 0.594944520950D-05 0.000000000000D+00  6 1 -2 25 -24 21 21 4 0.12563597D+00 0.40665439D-02 0.20005428D+05 0.20005428D+05 0.20005428D+05 0.12338131D+01  1  2 12  3  6  5       21 0.664747804118D-02 0.100000000000D+01
-.165112247521D-04 0.000000000000D+00 0.000000000000D+00 0.592934060563D-05 0.000000000000D+00  6 1 -2 25 -24 21 21 4 0.12563597D+00 0.40665439D-02 0.20900182D+05 0.20900182D+05 0.20900182D+05 0.12317266D+01  1  2  4  3  6  5       21 -.194602867990D-01 0.100000000000D+01
0.130248579470D-05 0.000000000000D+00 0.000000000000D+00 0.594944520950D-05 0.000000000000D+00  6 1 -2 25 -24 1 -1 4 0.12563597D+00 0.40665439D-02 0.20005428D+05 0.20005428D+05 0.20005428D+05 0.12338131D+01  1  2 12  6  6  5       21 0.154404839208D-02 0.100000000000D+01
0.133028316981D-05 0.000000000000D+00 0.000000000000D+00 0.594944520950D-05 0.000000000000D+00  6 1 -2 25 -24 1 -1 4 0.12563597D+00 0.40665439D-02 0.20005428D+05 0.20005428D+05 0.20005428D+05 0.12338131D+01  1  2 12  6  6  5       21 0.157700114482D-02 0.100000000000D+01
0.130248579470D-05 0.000000000000D+00 0.000000000000D+00 0.594944520950D-05 0.000000000000D+00  6 1 -2 25 -24 2 -2 4 0.12563597D+00 0.40665439D-02 0.20005428D+05 0.20005428D+05 0.20005428D+05 0.12338131D+01  1  2 12  7  6  5       21 0.154404839208D-02 0.100000000000D+01
0.133028316981D-05 0.000000000000D+00 0.000000000000D+00 0.594944520950D-05 0.000000000000D+00  6 1 -2 25 -24 2 -2 4 0.12563597D+00 0.40665439D-02 0.20005428D+05 0.20005428D+05 0.20005428D+05 0.12338131D+01  1  2 12  7  6  5       21 0.157700114482D-02 0.100000000000D+01
0.130248579470D-05 0.000000000000D+00 0.000000000000D+00 0.594944520950D-05 0.000000000000D+00  6 1 -2 25 -24 3 -3 4 0.12563597D+00 0.40665439D-02 0.20005428D+05 0.20005428D+05 0.20005428D+05 0.12338131D+01  1  2 12  8  6  5       21 0.154404839208D-02 0.100000000000D+01
0.130248579470D-05 0.000000000000D+00 0.000000000000D+00 0.594944520950D-05 0.000000000000D+00  6 1 -2 25 -24 4 -4 4 0.12563597D+00 0.40665439D-02 0.20005428D+05 0.20005428D+05 0.20005428D+05 0.12338131D+01  1  2 12  8  6  5       21 0.154404839208D-02 0.100000000000D+01
0.133028316981D-05 0.000000000000D+00 0.000000000000D+00 0.594944520950D-05 0.000000000000D+00  6 1 -2 25 -24 3 -3 4 0.12563597D+00 0.40665439D-02 0.20005428D+05 0.20005428D+05 0.20005428D+05 0.12338131D+01  1  2 12  8  6  5       21 0.157700114482D-02 0.100000000000D+01
0.133028316981D-05 0.000000000000D+00 0.000000000000D+00 0.594944520950D-05 0.000000000000D+00  6 1 -2 25 -24 4 -4 4 0.12563597D+00 0.40665439D-02 0.20005428D+05 0.20005428D+05 0.20005428D+05 0.12338131D+01  1  2 12  8  6  5       21 0.157700114482D-02 0.100000000000D+01
  </mgrwgt>
  </event>
  <event>
  6     66 0.44337718E-03 0.18442833E+02 0.75467711E-02 0.12391687E+00
        1 -1    0    0  502    0 0.00000000E+00 0.00000000E+00 0.32815533E+03 0.32815549E+03 0.32000000E+00 0.0000E+00 0.9000E+01
       -2 -1    0    0    0  503 0.00000000E+00 0.00000000E+00 -.61625048E+02 0.61625879E+02 0.32000000E+00 0.0000E+00 0.9000E+01
       25  1    1    2    0    0 0.79856396E+01 0.12172533E+02 0.16931244E+03 0.21095887E+03 0.12500000E+03 0.0000E+00 0.9000E+01
      -24  1    1    2    0    0 -.27863235E+01 -.13700540E+00 0.10489363E+03 0.13220315E+03 0.80419002E+02 0.0000E+00 0.9000E+01
       21  1    1    2  502  501 -.20738675E+01 -.25045861E+02 -.16949263E+02 0.30322204E+02 0.75000000E+00 0.0000E+00 0.9000E+01
       21  1    1    2  501  503 -.31254487E+01 0.13010333E+02 0.92734755E+01 0.16297148E+02 0.75000000E+00 0.0000E+00 0.9000E+01
#aMCatNLO 2  0  0  2  2 0.13380478D+02 0.00000000D+00  -5  6  0 0.00000000D+00 0.00000000D+00 0.00000000D+00 0.00000000D+00 0.00000000D+00
  <mgrwgt>
 0.2124632604D-01    2    2    0
 0.135213126796139D+03 0.000000000000000D+00 0.000000000000000D+00 0.135213126796139D+03
 0.135213126796139D+03 0.000000000000000D+00 0.000000000000000D+00 -.135213126796139D+03
 0.130781042571104D+03 0.647895482499036D+01 0.184458424040642D+02 0.331127639795458D+02
 0.828255666027326D+02 -.374218475642976D+01 0.384286560935675D+01 0.190810630167800D+02
 0.568196444184411D+02 -.273677006856061D+01 -.222887080134209D+02 -.521938269963258D+02
 0.000000000000000D+00 -.000000000000000D+00 0.000000000000000D+00 -.000000000000000D+00
 0.140856650589597D+03 0.000000000000000D+00 0.000000000000000D+00 0.140856650589597D+03
 0.143549111315571D+03 0.000000000000000D+00 0.000000000000000D+00 -.143549111315571D+03
 0.130128475668672D+03 0.798576271708660D+01 0.121734397486219D+02 0.331127639795458D+02
 0.826987587733066D+02 -.278624661552487D+01 -.136426618207078D+00 0.190810630167800D+02
 0.579298445643995D+02 -.207406739377948D+01 -.250473463500460D+02 -.521938269963258D+02
 0.136486828987902D+02 -.312544870778226D+01 0.130103332196312D+02 -.269246072597397D+01
-.659586610942D-07 0.000000000000D+00 0.000000000000D+00 0.613638363664D-04 0.000000000000D+00  6 1 -2 25 -24 21 21 4 0.48459258D-01 0.89296459D-02 0.13175993D+05 0.13175993D+05 0.13175993D+05 0.12542933D+01  1  2  8  2  6  2       -2 -.888252804487D-04 0.100000000000D+01
0.185936328034D-04 0.000000000000D+00 0.000000000000D+00 0.613638363664D-04 0.863890445195D-06  6 1 -2 25 -24 21 21 4 0.50481850D-01 0.94801648D-02 0.14984933D+05 0.14984933D+05 0.14984933D+05 0.12478723D+01  1  2  1  2  6  2       -2 0.213351513245D-01 0.100000000000D+01
  </mgrwgt>
  </event>
  <event>
  6     66 0.44337718E-03 0.18729394E+02 0.75467711E-02 0.12270995E+00
        1 -1    0    0  502    0 0.00000000E+00 0.00000000E+00 0.32643782E+03 0.32643798E+03 0.32000000E+00 0.0000E+00 0.9000E+01
       -2 -1    0    0    0  503 0.00000000E+00 0.00000000E+00 -.26701855E+03 0.26701875E+03 0.32000000E+00 0.0000E+00 0.9000E+01
       25  1    1    2    0    0 0.25707762E+02 0.52836105E+02 0.12094025E+03 0.18358673E+03 0.12500000E+03 0.0000E+00 0.9000E+01
      -24  1    1    2    0    0 -.10722482E+02 -.48021390E+02 0.15834367E+03 0.18428499E+03 0.80419002E+02 0.0000E+00 0.9000E+01
       21  1    1    2  502  501 0.62040636E+01 0.50572711E+00 -.19346162E+01 0.65613570E+01 0.75000000E+00 0.0000E+00 0.9000E+01
       21  1    1    2  501  503 -.21189344E+02 -.53204417E+01 -.21793003E+03 0.21902365E+03 0.75000000E+00 0.0000E+00 0.9000E+01
#aMCatNLO 2  0  0  2  2 0.17120661D+03 0.00000000D+00  -5  6  0 0.00000000D+00 0.00000000D+00 0.00000000D+00 0.00000000D+00 0.00000000D+00
  <mgrwgt>
 0.1997851356D+00    1    2    0
 0.125299840261988D+03 0.000000000000000D+00 0.000000000000000D+00 0.125299840261988D+03
 0.125299840261988D+03 0.000000000000000D+00 0.000000000000000D+00 -.125299840261988D+03
 0.137157919389338D+03 0.140093016517553D+02 0.498999814643371D+02 -.223836138347007D+02
 0.102033440336813D+03 -.192405877428572D+02 -.501592767375869D+02 0.325185136970770D+02
 0.114083207978248D+02 0.523128609110187D+01 0.259295273249797D+00 -.101348998623763D+02
 0.000000000000000D+00 -.000000000000000D+00 -.000000000000000D+00 -.000000000000000D+00
 0.125985879734939D+03 0.000000000000000D+00 0.000000000000000D+00 0.125985879734939D+03
 0.691860986932541D+03 0.000000000000000D+00 0.000000000000000D+00 -.691860986932541D+03
 0.139922116801061D+03 0.257013174988698D+02 0.528357348828513D+02 -.223836138347007D+02
 0.997286418757307D+02 -.107267825080590D+02 -.480215416242026D+02 0.325185136970770D+02
 0.118994257282842D+02 0.621480892259353D+01 0.506248455018790D+00 -.101348998623763D+02
 0.566296682262404D+03 -.211893439134043D+02 -.532044171366751D+01 -.565875107197602D+03
0.213250061880D-02 0.000000000000D+00 0.000000000000D+00 0.763912857842D-03 0.154279918080D-04  6 1 -2 25 -24 21 21 4 0.50221131D-01 0.41079723D-01 0.16962544D+05 0.16962544D+05 0.16962544D+05 0.12417805D+01  1  2  1  2  6  2       -2 0.199785135644D+00 0.100000000000D+01
  </mgrwgt>
  </event>
  <event>
  5     66 0.44337718E-03 0.27927783E+02 0.75467711E-02 0.11959807E+00
        1 -1    0    0  502    0 0.00000000E+00 0.00000000E+00 0.23911559E+04 0.23911560E+04 0.32000000E+00 0.0000E+00 0.9000E+01
       -2 -1    0    0    0  501 0.00000000E+00 0.00000000E+00 -.15002762E+02 0.15006175E+02 0.32000000E+00 0.0000E+00 0.9000E+01
       25  1    1    2    0    0 -.77137565E+02 0.40221896E+02 0.11055942E+04 0.11160338E+04 0.12500000E+03 0.0000E+00 0.9000E+01
      -24  1    1    2    0    0 0.84336195E+02 -.13238557E+02 0.12498800E+04 0.12553705E+04 0.80419002E+02 0.0000E+00 0.9000E+01
       21  1    1    2  502  501 -.71986306E+01 -.26983339E+02 0.20678945E+02 0.34757764E+02 0.75000000E+00 0.0000E+00 0.9000E+01
#aMCatNLO 1  0  0  5  1 0.13811643D+02 0.00000000D+00  -5  6  0 0.00000000D+00 0.00000000D+00 0.00000000D+00 0.00000000D+00 0.00000000D+00
  <mgrwgt>
 0.1331871683D+00   15    2    0
 0.189415087858458D+03 0.000000000000000D+00 0.000000000000000D+00 0.189415087858458D+03
 0.189415087858458D+03 -.000000000000000D+00 -.000000000000000D+00 -.189415087858458D+03
 0.153887657797911D+03 -.771374653652283D+02 0.402222682406166D+02 0.220995881666381D+02
 0.133882737271294D+03 0.843362814148534D+02 -.132382338716967D+02 0.645717599725816D+02
 0.910597806477108D+02 -.719881604962511D+01 -.269840343689199D+02 -.866713481392197D+02
 0.000000000000000D+00 0.000000000000000D+00 -.000000000000000D+00 0.000000000000000D+00
 0.189415087858458D+03 0.000000000000000D+00 0.000000000000000D+00 0.189415087858458D+03
 0.189415087858458D+03 -.000000000000000D+00 -.000000000000000D+00 -.189415087858458D+03
 0.153584018071819D+03 -.772796407665709D+02 0.396893381185247D+02 0.203878436767592D+02
 0.133140805947387D+03 0.842128092956162D+02 -.137010566311799D+02 0.630851967713383D+02
 0.376423726895728D+02 -.116141301396451D+02 -.626154748757592D-01 -.358058135238175D+02
 0.544629790081373D+02 0.468096161059973D+01 -.259256660124691D+02 -.476672269242800D+02
0.376991283894D-03 0.000000000000D+00 0.000000000000D+00 0.308246492740D-04 0.000000000000D+00  6 1 -2 25 -24 21 21 2 0.36787041D+00 0.23083814D-02 0.22126914D+05 0.22126914D+05 0.22126914D+05 0.12290231D+01  1  2  2  3  6  5       21 0.594399584437D-01 0.100000000000D+01
0.483695485427D-04 0.198943766182D-04 -.144774579424D-05 0.308246492740D-04 0.000000000000D+00  6 1 -2 25 -24 21 21 4 0.36787041D+00 0.23083814D-02 0.22126914D+05 0.22126914D+05 0.22126914D+05 0.12290231D+01  1  2  3  3  6  5       21 0.115196510084D-01 0.100000000000D+01
0.194496852418D-04 0.000000000000D+00 0.000000000000D+00 0.308246492740D-04 0.000000000000D+00  6 1 -2 25 -24 21 21 4 0.36787041D+00 0.23083814D-02 0.22126914D+05 0.22126914D+05 0.22126914D+05 0.12290231D+01  1  2 15  3  6  5       21 0.463212068252D-02 0.100000000000D+01
0.278053053177D-03 0.000000000000D+00 0.000000000000D+00 0.306698795016D-04 0.000000000000D+00  6 1 -2 25 -24 21 21 4 0.36787041D+00 0.23083814D-02 0.23628364D+05 0.23628364D+05 0.23628364D+05 0.12259338D+01  1  2 12  3  6  5       21 0.655088372930D-01 0.100000000000D+01
-.632121074851D-03 0.000000000000D+00 0.000000000000D+00 0.308246492740D-04 0.000000000000D+00  6 1 -2 25 -24 21 21 4 0.36787041D+00 0.23083814D-02 0.22126914D+05 0.22126914D+05 0.22126914D+05 0.12290231D+01  1  2  4  3  6  5       21 -.150545423655D+00 0.100000000000D+01
-.496289257313D-03 0.000000000000D+00 0.000000000000D+00 0.308246492740D-04 0.000000000000D+00  6 1 -2 25 -24 21 21 4 0.36787041D+00 0.23083814D-02 0.22126914D+05 0.22126914D+05 0.22126914D+05 0.12290231D+01  1  2  5  3  6  5       21 -.118195832207D+00 0.100000000000D+01
0.117936348821D-02 0.000000000000D+00 -.000000000000D+00 0.308246492740D-04 0.000000000000D+00  6 1 -2 25 -24 21 21 4 0.36787041D+00 0.23083814D-02 0.22126914D+05 0.22126914D+05 0.22126914D+05 0.12290231D+01  1  2  6  3  6  5       21 0.280876216661D+00 0.100000000000D+01
0.156969655899D-04 0.000000000000D+00 0.000000000000D+00 0.306698795016D-04 0.000000000000D+00  6 1 -2 25 -24 1 -1 4 0.36787041D+00 0.23083814D-02 0.23628364D+05 0.23628364D+05 0.23628364D+05 0.12259338D+01  1  2 12  6  6  5       21 0.369817900963D-02 0.100000000000D+01
-.365733110374D-04 0.000000000000D+00 0.000000000000D+00 0.308246492740D-04 0.000000000000D+00  6 1 -2 25 -24 1 -1 4 0.36787041D+00 0.23083814D-02 0.22126914D+05 0.22126914D+05 0.22126914D+05 0.12290231D+01  1  2  5  6  6  5       21 -.871026900325D-02 0.100000000000D+01
0.156969655899D-04 0.000000000000D+00 0.000000000000D+00 0.306698795016D-04 0.000000000000D+00  6 1 -2 25 -24 2 -2 4 0.36787041D+00 0.23083814D-02 0.23628364D+05 0.23628364D+05 0.23628364D+05 0.12259338D+01  1  2 12  7  6  5       21 0.369817900963D-02 0.100000000000D+01
-.365733110374D-04 0.000000000000D+00 0.000000000000D+00 0.308246492740D-04 0.000000000000D+00  6 1 -2 25 -24 2 -2 4 0.36787041D+00 0.23083814D-02 0.22126914D+05 0.22126914D+05 0.22126914D+05 0.12290231D+01  1  2  5  7  6  5       21 -.871026900325D-02 0.100000000000D+01
0.156969655899D-04 0.000000000000D+00 0.000000000000D+00 0.306698795016D-04 0.000000000000D+00  6 1 -2 25 -24 3 -3 4 0.36787041D+00 0.23083814D-02 0.23628364D+05 0.23628364D+05 0.23628364D+05 0.12259338D+01  1  2 12  8  6  5       21 0.369817900963D-02 0.100000000000D+01
0.156969655899D-04 0.000000000000D+00 0.000000000000D+00 0.306698795016D-04 0.000000000000D+00  6 1 -2 25 -24 4 -4 4 0.36787041D+00 0.23083814D-02 0.23628364D+05 0.23628364D+05 0.23628364D+05 0.12259338D+01  1  2 12  8  6  5       21 0.369817900963D-02 0.100000000000D+01
-.365733110374D-04 0.000000000000D+00 0.000000000000D+00 0.308246492740D-04 0.000000000000D+00  6 1 -2 25 -24 3 -3 4 0.36787041D+00 0.23083814D-02 0.22126914D+05 0.22126914D+05 0.22126914D+05 0.12290231D+01  1  2  5  8  6  5       21 -.871026900325D-02 0.100000000000D+01
-.365733110374D-04 0.000000000000D+00 0.000000000000D+00 0.308246492740D-04 0.000000000000D+00  6 1 -2 25 -24 4 -4 4 0.36787041D+00 0.23083814D-02 0.22126914D+05 0.22126914D+05 0.22126914D+05 0.12290231D+01  1  2  5  8  6  5       21 -.871026900325D-02 0.100000000000D+01
  </mgrwgt>
  </event>
  <event>
  5     66 -.44337718E-03 0.39335878E+02 0.75467711E-02 0.12321575E+00
        1 -1    0    0  502    0 0.00000000E+00 0.00000000E+00 0.32853575E+02 0.32855134E+02 0.32000000E+00 0.0000E+00 0.9000E+01
       -2 -1    0    0    0  501 0.00000000E+00 0.00000000E+00 -.54425617E+03 0.54425627E+03 0.32000000E+00 0.0000E+00 0.9000E+01
       25  1    1    2    0    0 0.16755108E+02 0.32093904E+02 -.17983195E+03 0.22198037E+03 0.12500000E+03 0.0000E+00 0.9000E+01
      -24  1    1    2    0    0 0.17786563E+02 -.13286721E+02 -.26483396E+03 0.27766372E+03 0.80419002E+02 0.0000E+00 0.9000E+01
       21  1    1    2  502  501 -.34541671E+02 -.18807184E+02 -.66736687E+02 0.77467316E+02 0.75000000E+00 0.0000E+00 0.9000E+01
#aMCatNLO 1  0  0  1  5 0.86171953D+00 0.00000000D+00  -5  6  0 0.00000000D+00 0.00000000D+00 0.00000000D+00 0.00000000D+00 0.00000000D+00
  <mgrwgt>
 -.3357501388D+00   10    4    0
 0.133720746327805D+03 0.000000000000000D+00 0.000000000000000D+00 0.133720746327805D+03
 0.133720746327805D+03 0.000000000000000D+00 0.000000000000000D+00 -.133720746327805D+03
 0.135136318026556D+03 0.167582466454125D+02 0.320956132481479D+02 0.364123224935080D+02
 0.927538137494415D+02 0.177887172538794D+02 -.132855476475496D+02 -.405352904622844D+02
 0.395513608796126D+02 -.345469638992919D+02 -.188100656005983D+02 0.412296796877638D+01
 0.000000000000000D+00 0.000000000000000D+00 -.000000000000000D+00 0.000000000000000D+00
 0.134750317397609D+03 0.000000000000000D+00 0.000000000000000D+00 0.134750317397609D+03
 0.133901870334574D+03 0.000000000000000D+00 0.000000000000000D+00 -.133901870334574D+03
 0.135237914724170D+03 0.167387567389524D+02 0.325307604031149D+02 0.364123224935080D+02
 0.927089663160056D+02 0.177753481831712D+02 -.129870591404286D+02 -.405352904622844D+02
 0.394959998791142D+02 -.345526620224135D+02 -.186828447711877D+02 0.412296796877638D+01
 0.120930681289330D+01 0.385571002899035D-01 -.860856491498674D+00 0.848447063034561D+00
 0.133720746327805D+03 0.000000000000000D+00 0.000000000000000D+00 0.133720746327805D+03
 0.133720746327805D+03 0.000000000000000D+00 0.000000000000000D+00 -.133720746327805D+03
 0.135136318026556D+03 0.167582466454125D+02 0.320956132481479D+02 0.364123224935080D+02
 0.927538137494415D+02 0.177887172538794D+02 -.132855476475496D+02 -.405352904622844D+02
 0.000000000000000D+00 0.000000000000000D+00 -.000000000000000D+00 0.000000000000000D+00
 0.395513608796126D+02 -.345469638992919D+02 -.188100656005983D+02 0.412296796877638D+01
 0.134750317397609D+03 0.000000000000000D+00 0.000000000000000D+00 0.134750317397609D+03
 0.133901870334574D+03 0.000000000000000D+00 0.000000000000000D+00 -.133901870334574D+03
 0.135237914724170D+03 0.167387567389524D+02 0.325307604031149D+02 0.364123224935080D+02
 0.927089663160056D+02 0.177753481831712D+02 -.129870591404286D+02 -.405352904622844D+02
 0.120930681289330D+01 0.385571002899035D-01 -.860856491498674D+00 0.848447063034561D+00
 0.394959998791142D+02 -.345526620224135D+02 -.186828447711877D+02 0.412296796877638D+01
0.143002962645D-03 0.000000000000D+00 0.000000000000D+00 0.146686640929D-04 0.000000000000D+00  6 1 -2 25 -24 21 21 2 0.50545233D-02 0.83731846D-01 0.15989819D+05 0.15989819D+05 0.15989819D+05 0.12446711D+01  1  2  2  1  6  1        1 0.392911895407D-01 0.100000000000D+01
0.545406633650D-05 0.754647366643D-05 -.549169030101D-06 0.146686640929D-04 0.000000000000D+00  6 1 -2 25 -24 21 21 4 0.50545233D-02 0.83731846D-01 0.15989819D+05 0.15989819D+05 0.15989819D+05 0.12446711D+01  1  2  3  1  6  1        1 0.232155924738D-02 0.100000000000D+01
0.662551583452D-05 0.000000000000D+00 0.000000000000D+00 0.146686640929D-04 0.000000000000D+00  6 1 -2 25 -24 21 21 4 0.50545233D-02 0.83731846D-01 0.15989819D+05 0.15989819D+05 0.15989819D+05 0.12446711D+01  1  2 15  1  6  1        1 0.282019443940D-02 0.100000000000D+01
-.879591850023D-02 0.000000000000D+00 0.000000000000D+00 0.146686640929D-04 0.000000000000D+00  6 1 -2 25 -24 21 21 4 0.50545233D-02 0.83731846D-01 0.15989819D+05 0.15989819D+05 0.15989819D+05 0.12446711D+01  1  2  4  1  6  1        1 -.374404062465D+01 0.100000000000D+01
-.544876485889D-01 0.000000000000D+00 -.455896518680D-02 0.146686640929D-04 0.000000000000D+00  6 1 -2 25 -24 21 21 4 0.51001629D-02 0.83731846D-01 0.15989819D+05 0.15989819D+05 0.15989819D+05 0.12446711D+01  1  2  5  1  6  1        1 -.229105356391D+02 0.100000000000D+01
0.545266100883D-01 0.000000000000D+00 0.455878100869D-02 0.146686640929D-04 0.000000000000D+00  6 1 -2 25 -24 21 21 4 0.50545233D-02 0.83731846D-01 0.15989819D+05 0.15989819D+05 0.15989819D+05 0.12446711D+01  1  2  6  1  6  1        1 0.232096106040D+02 0.100000000000D+01
0.855941797117D-02 0.000000000000D+00 0.000000000000D+00 0.146686640929D-04 0.124539378241D-03  6 1 -2 25 -24 21 21 4 0.50934402D-02 0.83845260D-01 0.16098966D+05 0.16098966D+05 0.16098966D+05 0.12443371D+01  1  2 11  1  6  1        1 0.359165338521D+01 0.100000000000D+01
0.614227711661D-10 0.000000000000D+00 0.000000000000D+00 0.146607916333D-04 0.000000000000D+00  6 21 -2 25 -24 -1 21 4 0.51192228D-02 0.83731846D-01 0.16098966D+05 0.16098966D+05 0.16098966D+05 0.12443371D+01  3  4 12  4  5  1        1 0.396167703110D-06 0.100000000000D+01
-.904723551623D-04 0.000000000000D+00 -.758122331926D-05 0.146686640929D-04 0.000000000000D+00  6 21 -2 25 -24 -1 21 4 0.51001629D-02 0.83731846D-01 0.15989819D+05 0.15989819D+05 0.15989819D+05 0.12446711D+01  3  4  5  4  5  1        1 -.587757173469D+00 0.100000000000D+01
0.938812100379D-05 0.000000000000D+00 0.000000000000D+00 0.146686640929D-04 0.266846307155D-06  6 21 -2 25 -24 -1 21 4 0.50934402D-02 0.83845260D-01 0.16098966D+05 0.16098966D+05 0.16098966D+05 0.12443371D+01  3  4 11  4  5  1        1 0.608859698584D-01 0.100000000000D+01
  </mgrwgt>
  </event>
  <event>
  5     66 -.44337718E-03 0.22859609E+02 0.75467711E-02 0.12275537E+00
        1 -1    0    0  502    0 0.00000000E+00 0.00000000E+00 0.18090936E+04 0.18090936E+04 0.32000000E+00 0.0000E+00 0.9000E+01
       -2 -1    0    0    0  501 0.00000000E+00 0.00000000E+00 -.13974745E+02 0.13978409E+02 0.32000000E+00 0.0000E+00 0.9000E+01
       25  1    1    2    0    0 -.41167114E+02 -.31389979E+02 0.46384999E+03 0.48317893E+03 0.12500000E+03 0.0000E+00 0.9000E+01
      -24  1    1    2    0    0 0.33079715E+02 0.52769858E+02 0.62250552E+03 0.63076086E+03 0.80419002E+02 0.0000E+00 0.9000E+01
       21  1    1    2  502  501 0.80873991E+01 -.21379878E+02 0.70876334E+03 0.70913224E+03 0.75000000E+00 0.0000E+00 0.9000E+01
#aMCatNLO 1  0  0  5  1 0.71608869D+00 0.00000000D+00  -5  6  0 0.00000000D+00 0.00000000D+00 0.00000000D+00 0.00000000D+00 0.00000000D+00
  <mgrwgt>
 -.2433837090D+00   25    2    0
 0.159012537476966D+03 0.000000000000000D+00 0.000000000000000D+00 0.159012537476966D+03
 0.159012537476966D+03 -.000000000000000D+00 -.000000000000000D+00 -.159012537476966D+03
 0.151574158794845D+03 -.411673751522333D+02 -.313892884623004D+02 -.683350964532179D+02
 0.102039490587901D+03 0.330795387692620D+02 0.527703228012415D+02 0.811657756283304D+01
 0.644114255711852D+02 0.808783638297127D+01 -.213810343389411D+02 0.602185188903849D+02
 0.000000000000000D+00 0.000000000000000D+00 0.000000000000000D+00 0.000000000000000D+00
 0.159012537476966D+03 0.000000000000000D+00 0.000000000000000D+00 0.159012537476966D+03
 0.159012537476966D+03 -.000000000000000D+00 -.000000000000000D+00 -.159012537476966D+03
 0.151571010690390D+03 -.411663532681170D+02 -.313919899189505D+02 -.683274879476736D+02
 0.102039180664011D+03 0.330802267061768D+02 0.527685041686553D+02 0.812169964247674D+01
 0.238452302614176D+02 0.333736509037900D+01 -.848725657623041D+01 0.220323279814635D+02
 0.405696533381128D+02 0.474876147156117D+01 -.128892576734744D+02 0.381734603237333D+02
0.408740409705D-05 0.000000000000D+00 0.000000000000D+00 0.457292203159D-04 0.000000000000D+00  6 1 -2 25 -24 21 21 2 0.27832238D+00 0.21502448D-02 0.16883351D+05 0.16883351D+05 0.16883351D+05 0.12420088D+01  1  2  2  3  6  5       21 0.172001817864D-02 0.100000000000D+01
0.528955635474D-06 0.215698240176D-06 -.156967079709D-07 0.457292203159D-04 0.000000000000D+00  6 1 -2 25 -24 21 21 4 0.27832238D+00 0.21502448D-02 0.16883351D+05 0.16883351D+05 0.16883351D+05 0.12420088D+01  1  2  3  3  6  5       21 0.343363432259D-03 0.100000000000D+01
0.171677492910D-06 0.000000000000D+00 0.000000000000D+00 0.457292203159D-04 0.000000000000D+00  6 1 -2 25 -24 21 21 4 0.27832238D+00 0.21502448D-02 0.16883351D+05 0.16883351D+05 0.16883351D+05 0.12420088D+01  1  2 15  3  6  5       21 0.111441809585D-03 0.100000000000D+01
0.127541042224D-09 0.000000000000D+00 0.000000000000D+00 0.457293296082D-04 0.000000000000D+00  6 1 -2 25 -24 21 21 4 0.27832238D+00 0.21502448D-02 0.16882837D+05 0.16882837D+05 0.16882837D+05 0.12420103D+01  1  2 12  3  6  5       21 0.827916929103D-07 0.100000000000D+01
0.127786755132D-09 0.000000000000D+00 0.000000000000D+00 0.457293296082D-04 0.000000000000D+00  6 1 -2 25 -24 21 21 4 0.27832238D+00 0.21502448D-02 0.16882837D+05 0.16882837D+05 0.16882837D+05 0.12420103D+01  1  2 12  3  6  5       21 0.829511944108D-07 0.100000000000D+01
-.262966211774D-02 0.000000000000D+00 0.000000000000D+00 0.457292203159D-04 0.000000000000D+00  6 1 -2 25 -24 21 21 4 0.27832238D+00 0.21502448D-02 0.16883351D+05 0.16883351D+05 0.16883351D+05 0.12420088D+01  1  2  4  3  6  5       21 -.170700480319D+01 0.100000000000D+01
-.870349234208D-03 0.000000000000D+00 0.000000000000D+00 0.457292203159D-04 0.000000000000D+00  6 1 -2 25 -24 21 21 4 0.27832238D+00 0.21502448D-02 0.16883351D+05 0.16883351D+05 0.16883351D+05 0.12420088D+01  1  2  5  3  6  5       21 -.564973847106D+00 0.100000000000D+01
0.228365114710D-02 0.000000000000D+00 -.000000000000D+00 0.457292203159D-04 0.000000000000D+00  6 1 -2 25 -24 21 21 4 0.27832238D+00 0.21502448D-02 0.16883351D+05 0.16883351D+05 0.16883351D+05 0.12420088D+01  1  2  6  3  6  5       21 0.148239709224D+01 0.100000000000D+01
0.846338324826D-03 0.000000000000D+00 0.000000000000D+00 0.457292203159D-04 0.508136894533D-03  6 1 -2 25 -24 21 21 4 0.27832238D+00 0.21502448D-02 0.16882837D+05 0.16882837D+05 0.16882837D+05 0.12420103D+01  1  2 11  3  6  5       21 0.549390074485D+00 0.100000000000D+01
0.228834438124D-11 0.000000000000D+00 0.000000000000D+00 0.457293296082D-04 0.000000000000D+00  6 1 -2 25 -24 1 -1 4 0.27832238D+00 0.21502448D-02 0.16882837D+05 0.16882837D+05 0.16882837D+05 0.12420103D+01  1  2 12  6  6  5       21 0.148545050269D-08 0.100000000000D+01
0.229505375768D-11 0.000000000000D+00 0.000000000000D+00 0.457293296082D-04 0.000000000000D+00  6 1 -2 25 -24 1 -1 4 0.27832238D+00 0.21502448D-02 0.16882837D+05 0.16882837D+05 0.16882837D+05 0.12420103D+01  1  2 12  6  6  5       21 0.148980581157D-08 0.100000000000D+01
-.156296070712D-04 0.000000000000D+00 0.000000000000D+00 0.457292203159D-04 0.000000000000D+00  6 1 -2 25 -24 1 -1 4 0.27832238D+00 0.21502448D-02 0.16883351D+05 0.16883351D+05 0.16883351D+05 0.12420088D+01  1  2  5  6  6  5       21 -.101457195442D-01 0.100000000000D+01
0.135810991092D-04 0.000000000000D+00 0.000000000000D+00 0.457292203159D-04 0.411617615714D-05  6 1 -2 25 -24 1 -1 4 0.27832238D+00 0.21502448D-02 0.16882837D+05 0.16882837D+05 0.16882837D+05 0.12420103D+01  1  2 11  6  6  5       21 0.881600281158D-02 0.100000000000D+01
0.228834438124D-11 0.000000000000D+00 0.000000000000D+00 0.457293296082D-04 0.000000000000D+00  6 1 -2 25 -24 2 -2 4 0.27832238D+00 0.21502448D-02 0.16882837D+05 0.16882837D+05 0.16882837D+05 0.12420103D+01  1  2 12  7  6  5       21 0.148545050269D-08 0.100000000000D+01
0.229505375768D-11 0.000000000000D+00 0.000000000000D+00 0.457293296082D-04 0.000000000000D+00  6 1 -2 25 -24 2 -2 4 0.27832238D+00 0.21502448D-02 0.16882837D+05 0.16882837D+05 0.16882837D+05 0.12420103D+01  1  2 12  7  6  5       21 0.148980581157D-08 0.100000000000D+01
-.156296070712D-04 0.000000000000D+00 0.000000000000D+00 0.457292203159D-04 0.000000000000D+00  6 1 -2 25 -24 2 -2 4 0.27832238D+00 0.21502448D-02 0.16883351D+05 0.16883351D+05 0.16883351D+05 0.12420088D+01  1  2  5  7  6  5       21 -.101457195442D-01 0.100000000000D+01
0.135568542539D-04 0.000000000000D+00 0.000000000000D+00 0.457292203159D-04 0.410786345264D-05  6 1 -2 25 -24 2 -2 4 0.27832238D+00 0.21502448D-02 0.16882837D+05 0.16882837D+05 0.16882837D+05 0.12420103D+01  1  2 11  7  6  5       21 0.880026456307D-02 0.100000000000D+01
0.228834438124D-11 0.000000000000D+00 0.000000000000D+00 0.457293296082D-04 0.000000000000D+00  6 1 -2 25 -24 3 -3 4 0.27832238D+00 0.21502448D-02 0.16882837D+05 0.16882837D+05 0.16882837D+05 0.12420103D+01  1  2 12  8  6  5       21 0.148545050269D-08 0.100000000000D+01
0.228834438124D-11 0.000000000000D+00 0.000000000000D+00 0.457293296082D-04 0.000000000000D+00  6 1 -2 25 -24 4 -4 4 0.27832238D+00 0.21502448D-02 0.16882837D+05 0.16882837D+05 0.16882837D+05 0.12420103D+01  1  2 12  8  6  5       21 0.148545050269D-08 0.100000000000D+01
0.229505375768D-11 0.000000000000D+00 0.000000000000D+00 0.457293296082D-04 0.000000000000D+00  6 1 -2 25 -24 3 -3 4 0.27832238D+00 0.21502448D-02 0.16882837D+05 0.16882837D+05 0.16882837D+05 0.12420103D+01  1  2 12  8  6  5       21 0.148980581157D-08 0.100000000000D+01
0.229505375768D-11 0.000000000000D+00 0.000000000000D+00 0.457293296082D-04 0.000000000000D+00  6 1 -2 25 -24 4 -4 4 0.27832238D+00 0.21502448D-02 0.16882837D+05 0.16882837D+05 0.16882837D+05 0.12420103D+01  1  2 12  8  6  5       21 0.148980581157D-08 0.100000000000D+01
-.156296070712D-04 0.000000000000D+00 0.000000000000D+00 0.457292203159D-04 0.000000000000D+00  6 1 -2 25 -24 3 -3 4 0.27832238D+00 0.21502448D-02 0.16883351D+05 0.16883351D+05 0.16883351D+05 0.12420088D+01  1  2  5  8  6  5       21 -.101457195442D-01 0.100000000000D+01
-.156296070712D-04 0.000000000000D+00 0.000000000000D+00 0.457292203159D-04 0.000000000000D+00  6 1 -2 25 -24 4 -4 4 0.27832238D+00 0.21502448D-02 0.16883351D+05 0.16883351D+05 0.16883351D+05 0.12420088D+01  1  2  5  8  6  5       21 -.101457195442D-01 0.100000000000D+01
0.135559724211D-04 0.000000000000D+00 0.000000000000D+00 0.457292203159D-04 0.410759286733D-05  6 1 -2 25 -24 3 -3 4 0.27832238D+00 0.21502448D-02 0.16882837D+05 0.16882837D+05 0.16882837D+05 0.12420103D+01  1  2 11  8  6  5       21 0.879969213220D-02 0.100000000000D+01
0.135559724211D-04 0.000000000000D+00 0.000000000000D+00 0.457292203159D-04 0.410759286733D-05  6 1 -2 25 -24 4 -4 4 0.27832238D+00 0.21502448D-02 0.16882837D+05 0.16882837D+05 0.16882837D+05 0.12420103D+01  1  2 11  8  6  5       21 0.879969213220D-02 0.100000000000D+01
  </mgrwgt>
  </event>
  <event>
  5     66 0.44337718E-03 0.33312960E+02 0.75467711E-02 0.10786010E+00
        1 -1    0    0  502    0 0.00000000E+00 0.00000000E+00 0.18371249E+03 0.18371277E+03 0.32000000E+00 0.0000E+00 0.9000E+01
       -2 -1    0    0    0  501 -.00000000E+00 -.00000000E+00 -.61024392E+03 0.61024400E+03 0.32000000E+00 0.0000E+00 0.9000E+01
       25  1    1    2    0    0 -.35683052E+02 -.24316862E+03 -.26650667E+03 0.38347759E+03 0.12500000E+03 0.0000E+00 0.9000E+01
      -24  1    1    2    0    0 0.34818650E+02 0.27646946E+03 -.20452414E+03 0.35488736E+03 0.80419002E+02 0.0000E+00 0.9000E+01
       21  1    1    2  502  501 0.86440137E+00 -.33300836E+02 0.44499384E+02 0.55591821E+02 0.75000000E+00 0.0000E+00 0.9000E+01
#aMCatNLO 1  0  0  5  2 0.26638627D+02 0.00000000D+00  -5  6  0 0.00000000D+00 0.00000000D+00 0.00000000D+00 0.00000000D+00 0.00000000D+00
  <mgrwgt>
 0.4933799625D+00   15    2    0
 0.334827679878555D+03 0.000000000000000D+00 0.000000000000000D+00 0.334827679878555D+03
 0.334827679878555D+03 -.000000000000000D+00 -.000000000000000D+00 -.334827679878555D+03
 0.284909398708586D+03 -.356830633606355D+02 -.243168171688190D+03 -.717239481589787D+02
 0.290492093166373D+03 0.348186384803923D+02 0.276469914001526D+03 -.164465590374112D+02
 0.942538678821514D+02 0.864424880243196D+00 -.333017423133359D+02 0.881705071963898D+02
 0.000000000000000D+00 0.000000000000000D+00 0.000000000000000D+00 0.000000000000000D+00
 0.334827679878555D+03 0.000000000000000D+00 0.000000000000000D+00 0.334827679878555D+03
 0.334827679878555D+03 -.000000000000000D+00 -.000000000000000D+00 -.334827679878555D+03
 0.285529433240755D+03 -.356107713547769D+02 -.245953202296914D+03 -.643502330236495D+02
 0.287486494717175D+03 0.348918860033891D+02 0.273648072345091D+03 -.897538207211024D+01
 0.614122256081326D+02 -.257730762778984D+02 -.237017197439068D+02 0.504523386425159D+02
 0.352272061910476D+02 0.264919616292862D+02 -.399315030426990D+01 0.228732764532439D+02
0.141045498227D-01 0.000000000000D+00 0.000000000000D+00 0.138167322336D-04 0.000000000000D+00  6 1 -2 25 -24 21 21 2 0.28263488D-01 0.93883708D-01 0.89722040D+05 0.89722040D+05 0.89722040D+05 0.11679234D+01  1  2  2  3  6  5       21 0.275485729944D+00 0.100000000000D+01
0.332572305098D-02 0.744317543114D-03 -.541651851325D-04 0.138167322336D-04 0.000000000000D+00  6 1 -2 25 -24 21 21 4 0.28263488D-01 0.93883708D-01 0.89722040D+05 0.89722040D+05 0.89722040D+05 0.11679234D+01  1  2  3  3  6  5       21 0.886042760327D-01 0.100000000000D+01
0.164873754141D-03 0.000000000000D+00 0.000000000000D+00 0.138167322336D-04 0.000000000000D+00  6 1 -2 25 -24 21 21 4 0.28263488D-01 0.93883708D-01 0.89722040D+05 0.89722040D+05 0.89722040D+05 0.11679234D+01  1  2 15  3  6  5       21 0.439258452930D-02 0.100000000000D+01
0.838463221672D-02 0.000000000000D+00 0.000000000000D+00 0.137292650538D-04 0.000000000000D+00  6 1 -2 25 -24 21 21 4 0.28263488D-01 0.93883708D-01 0.98387540D+05 0.98387540D+05 0.98387540D+05 0.11642208D+01  1  2 12  3  6  5       21 0.220393204368D+00 0.100000000000D+01
-.126293297428D-01 0.000000000000D+00 0.000000000000D+00 0.138167322336D-04 0.000000000000D+00  6 1 -2 25 -24 21 21 4 0.28263488D-01 0.93883708D-01 0.89722040D+05 0.89722040D+05 0.89722040D+05 0.11679234D+01  1  2  4  3  6  5       21 -.336471979624D+00 0.100000000000D+01
-.114710580530D-01 0.000000000000D+00 0.000000000000D+00 0.138167322336D-04 0.000000000000D+00  6 1 -2 25 -24 21 21 4 0.28263488D-01 0.93883708D-01 0.89722040D+05 0.89722040D+05 0.89722040D+05 0.11679234D+01  1  2  5  3  6  5       21 -.305613179010D+00 0.100000000000D+01
0.219265258421D-01 0.000000000000D+00 -.000000000000D+00 0.138167322336D-04 0.000000000000D+00  6 1 -2 25 -24 21 21 4 0.28263488D-01 0.93883708D-01 0.89722040D+05 0.89722040D+05 0.89722040D+05 0.11679234D+01  1  2  6  3  6  5       21 0.584168891508D+00 0.100000000000D+01
0.189279128887D-03 0.000000000000D+00 0.000000000000D+00 0.137292650538D-04 0.000000000000D+00  6 1 -2 25 -24 1 -1 4 0.28263488D-01 0.93883708D-01 0.98387540D+05 0.98387540D+05 0.98387540D+05 0.11642208D+01  1  2 12  6  6  5       21 0.497527293471D-02 0.100000000000D+01
-.539377878870D-03 0.000000000000D+00 0.000000000000D+00 0.138167322336D-04 0.000000000000D+00  6 1 -2 25 -24 1 -1 4 0.28263488D-01 0.93883708D-01 0.89722040D+05 0.89722040D+05 0.89722040D+05 0.11679234D+01  1  2  5  6  6  5       21 -.143701642418D-01 0.100000000000D+01
0.189279128887D-03 0.000000000000D+00 0.000000000000D+00 0.137292650538D-04 0.000000000000D+00  6 1 -2 25 -24 2 -2 4 0.28263488D-01 0.93883708D-01 0.98387540D+05 0.98387540D+05 0.98387540D+05 0.11642208D+01  1  2 12  7  6  5       21 0.497527293471D-02 0.100000000000D+01
-.539377878870D-03 0.000000000000D+00 0.000000000000D+00 0.138167322336D-04 0.000000000000D+00  6 1 -2 25 -24 2 -2 4 0.28263488D-01 0.93883708D-01 0.89722040D+05 0.89722040D+05 0.89722040D+05 0.11679234D+01  1  2  5  7  6  5       21 -.143701642418D-01 0.100000000000D+01
0.189279128887D-03 0.000000000000D+00 0.000000000000D+00 0.137292650538D-04 0.000000000000D+00  6 1 -2 25 -24 3 -3 4 0.28263488D-01 0.93883708D-01 0.98387540D+05 0.98387540D+05 0.98387540D+05 0.11642208D+01  1  2 12  8  6  5       21 0.497527293471D-02 0.100000000000D+01
0.189279128887D-03 0.000000000000D+00 0.000000000000D+00 0.137292650538D-04 0.000000000000D+00  6 1 -2 25 -24 4 -4 4 0.28263488D-01 0.93883708D-01 0.98387540D+05 0.98387540D+05 0.98387540D+05 0.11642208D+01  1  2 12  8  6  5       21 0.497527293471D-02 0.100000000000D+01
-.539377878870D-03 0.000000000000D+00 0.000000000000D+00 0.138167322336D-04 0.000000000000D+00  6 1 -2 25 -24 3 -3 4 0.28263488D-01 0.93883708D-01 0.89722040D+05 0.89722040D+05 0.89722040D+05 0.11679234D+01  1  2  5  8  6  5       21 -.143701642418D-01 0.100000000000D+01
-.539377878870D-03 0.000000000000D+00 0.000000000000D+00 0.138167322336D-04 0.000000000000D+00  6 1 -2 25 -24 4 -4 4 0.28263488D-01 0.93883708D-01 0.89722040D+05 0.89722040D+05 0.89722040D+05 0.11679234D+01  1  2  5  8  6  5       21 -.143701642418D-01 0.100000000000D+01
  </mgrwgt>
  </event>
  <event>
  6     66 0.44337718E-03 0.42521069E+02 0.75467711E-02 0.11830593E+00
        1 -1    0    0  502    0 0.00000000E+00 0.00000000E+00 0.31773626E+03 0.31773643E+03 0.32000000E+00 0.0000E+00 0.9000E+01
       -2 -1    0    0    0  501 0.00000000E+00 0.00000000E+00 -.11834724E+03 0.11834767E+03 0.32000000E+00 0.0000E+00 0.9000E+01
       25  1    1    2    0    0 -.87458802E+01 0.25170844E+02 0.40561387E+02 0.13409060E+03 0.12500000E+03 0.0000E+00 0.9000E+01
      -24  1    1    2    0    0 -.91195891E+01 -.32692402E+02 0.16447473E+03 0.18620181E+03 0.80419002E+02 0.0000E+00 0.9000E+01
       21  1    1    2  503  501 -.48636954E+02 0.57142803E+00 0.42298518E+00 0.48647932E+02 0.75000000E+00 0.0000E+00 0.9000E+01
       21  1    1    2  502  503 0.66502424E+02 0.69501300E+01 -.60700742E+01 0.67143763E+02 0.75000000E+00 0.0000E+00 0.9000E+01
#aMCatNLO 2  0  0  5  2 0.30290353D+02 0.00000000D+00  -5  6  0 0.00000000D+00 0.00000000D+00 0.00000000D+00 0.00000000D+00 0.00000000D+00
  <mgrwgt>
 0.1247204333D-02    1    2    0
 0.193915803613224D+03 0.000000000000000D+00 0.000000000000000D+00 0.193915803613224D+03
 0.193915803613224D+03 -.000000000000000D+00 -.000000000000000D+00 -.193915803613224D+03
 0.127894018216187D+03 -.148217716308711D+02 0.226128274836440D+02 -.924669886860895D+00
 0.143596258220534D+03 -.154450903919053D+02 -.353555074329461D+02 0.112534913238126D+03
 0.116341330789727D+03 0.302668620227764D+02 0.127426799493021D+02 -.111610243351265D+03
 0.000000000000000D+00 0.000000000000000D+00 0.000000000000000D+00 0.000000000000000D+00
 0.193915803613224D+03 0.000000000000000D+00 0.000000000000000D+00 0.193915803613224D+03
 0.193915803613224D+03 -.000000000000000D+00 -.000000000000000D+00 -.193915803613224D+03
 0.129889307187709D+03 -.879218731841742D+01 0.251513484265521D+02 -.231589990324956D+02
 0.124935352052355D+03 -.916410234831308D+01 -.327111427695508D+02 0.893735229524668D+02
 0.537363660620459D+02 -.483749022908510D+02 0.464152547218551D+00 -.233933842852576D+02
 0.792705819243381D+02 0.663311919575815D+02 0.709564179578013D+01 -.428211396347137D+02
0.324335267155D-05 0.000000000000D+00 0.000000000000D+00 0.239058704690D-04 0.465947562370D-08  6 1 -2 25 -24 21 21 4 0.48882548D-01 0.18207313D-01 0.27257080D+05 0.27257080D+05 0.27257080D+05 0.12192933D+01  1  2  1  3  6  5       21 0.124720433327D-02 0.100000000000D+01
  </mgrwgt>
  </event>
  <event>
  5     66 -.44337718E-03 0.12050733E+03 0.75467711E-02 0.10967072E+00
        1 -1    0    0  502    0 0.00000000E+00 0.00000000E+00 0.65897446E+03 0.65897454E+03 0.32000000E+00 0.0000E+00 0.9000E+01
       -2 -1    0    0    0  501 0.00000000E+00 0.00000000E+00 -.13550303E+03 0.13550341E+03 0.32000000E+00 0.0000E+00 0.9000E+01
       25  1    1    2    0    0 0.10613998E+03 0.13811726E+00 0.14377577E+03 0.21808757E+03 0.12500000E+03 0.0000E+00 0.9000E+01
      -24  1    1    2    0    0 -.23618331E+03 0.40621184E+02 0.35821197E+03 0.43842408E+03 0.80419002E+02 0.0000E+00 0.9000E+01
       21  1    1    2  502  501 0.13004333E+03 -.40759301E+02 0.21483687E+02 0.13796630E+03 0.75000000E+00 0.0000E+00 0.9000E+01
#aMCatNLO 1  0  0  1  5 0.32991773D+01 0.00000000D+00  -5  6  0 0.00000000D+00 0.00000000D+00 0.00000000D+00 0.00000000D+00 0.00000000D+00
  <mgrwgt>
 -.1455687635D-01   11    4    0
 0.298819704532335D+03 0.000000000000000D+00 0.000000000000000D+00 0.298819704532335D+03
 0.298819704532335D+03 0.000000000000000D+00 0.000000000000000D+00 -.298819704532335D+03
 0.163983679677272D+03 0.106139608738049D+03 0.138233376027951D+00 0.107466114758680D+00
 0.269066842227142D+03 -.236183919296038D+03 0.406213746688598D+02 0.921781417565462D+02
 0.164588887160257D+03 0.130044310557989D+03 -.407596080448877D+02 -.922856078713049D+02
 0.000000000000000D+00 0.000000000000000D+00 -.000000000000000D+00 0.000000000000000D+00
 0.307989977732185D+03 0.000000000000000D+00 0.000000000000000D+00 0.307989977732185D+03
 0.299121140235709D+03 0.000000000000000D+00 0.000000000000000D+00 -.299121140235709D+03
 0.163519493688509D+03 0.105418905221995D+03 0.683877895982259D+00 0.107466114758680D+00
 0.270245800094629D+03 -.237370730750654D+03 0.415199094366322D+02 0.921781417565462D+02
 0.163883221514874D+03 0.129321474802796D+03 -.402123492070131D+02 -.922856078713049D+02
 0.946260266988200D+01 0.263035072586328D+01 -.199143812560138D+01 0.886883749647663D+01
 0.298819704532335D+03 0.000000000000000D+00 0.000000000000000D+00 0.298819704532335D+03
 0.298819704532335D+03 0.000000000000000D+00 0.000000000000000D+00 -.298819704532335D+03
 0.163983679677272D+03 0.106139608738049D+03 0.138233376027951D+00 0.107466114758680D+00
 0.269066842227142D+03 -.236183919296038D+03 0.406213746688598D+02 0.921781417565462D+02
 0.000000000000000D+00 0.000000000000000D+00 -.000000000000000D+00 0.000000000000000D+00
 0.164588887160257D+03 0.130044310557989D+03 -.407596080448877D+02 -.922856078713049D+02
 0.307989977732185D+03 0.000000000000000D+00 0.000000000000000D+00 0.307989977732185D+03
 0.299121140235709D+03 0.000000000000000D+00 0.000000000000000D+00 -.299121140235709D+03
 0.163519493688509D+03 0.105418905221995D+03 0.683877895982259D+00 0.107466114758680D+00
 0.270245800094629D+03 -.237370730750654D+03 0.415199094366322D+02 0.921781417565462D+02
 0.946260266988200D+01 0.263035072586328D+01 -.199143812560138D+01 0.886883749647663D+01
 0.163883221514874D+03 0.129321474802796D+03 -.402123492070131D+02 -.922856078713049D+02
0.640004008463D-04 0.000000000000D+00 0.000000000000D+00 0.913027113132D-06 0.000000000000D+00  6 1 -2 25 -24 21 21 2 0.10138072D+00 0.20846655D-01 0.76466285D+05 0.76466285D+05 0.76466285D+05 0.11744306D+01  1  2  2  1  6  1        1 0.469043335625D-02 0.100000000000D+01
-.329560609886D-05 0.337739394132D-05 -.245778390942D-06 0.913027113132D-06 0.000000000000D+00  6 1 -2 25 -24 21 21 4 0.10138072D+00 0.20846655D-01 0.76466285D+05 0.76466285D+05 0.76466285D+05 0.11744306D+01  1  2  3  1  6  1        1 -.333135036656D-03 0.100000000000D+01
0.242891726941D-05 0.000000000000D+00 0.000000000000D+00 0.913027113132D-06 0.000000000000D+00  6 1 -2 25 -24 21 21 4 0.10138072D+00 0.20846655D-01 0.76466285D+05 0.76466285D+05 0.76466285D+05 0.11744306D+01  1  2 15  1  6  1        1 0.245526139748D-03 0.100000000000D+01
0.408798357472D-04 0.000000000000D+00 0.000000000000D+00 0.912282807836D-06 0.000000000000D+00  6 1 -2 25 -24 21 21 4 0.10461096D+00 0.20846655D-01 0.77363862D+05 0.77363862D+05 0.77363862D+05 0.11739518D+01  1  2 12  1  6  1        1 0.394259293307D-02 0.100000000000D+01
-.102685538683D-01 0.000000000000D+00 0.000000000000D+00 0.913027113132D-06 0.000000000000D+00  6 1 -2 25 -24 21 21 4 0.10138072D+00 0.20846655D-01 0.76466285D+05 0.76466285D+05 0.76466285D+05 0.11744306D+01  1  2  4  1  6  1        1 -.103799269897D+01 0.100000000000D+01
-.117403978848D-01 0.000000000000D+00 -.545528634601D-03 0.913027113132D-06 0.000000000000D+00  6 1 -2 25 -24 21 21 4 0.10454227D+00 0.20846655D-01 0.76466285D+05 0.76466285D+05 0.76466285D+05 0.11744306D+01  1  2  5  1  6  1        1 -.113530249517D+01 0.100000000000D+01
0.117518658644D-01 0.000000000000D+00 0.545271515190D-03 0.913027113132D-06 0.000000000000D+00  6 1 -2 25 -24 21 21 4 0.10138072D+00 0.20846655D-01 0.76466285D+05 0.76466285D+05 0.76466285D+05 0.11744306D+01  1  2  6  1  6  1        1 0.118793270436D+01 0.100000000000D+01
0.100195884250D-01 0.000000000000D+00 0.000000000000D+00 0.913027113132D-06 0.377347870577D-06  6 1 -2 25 -24 21 21 4 0.10449192D+00 0.20867684D-01 0.77363862D+05 0.77363862D+05 0.77363862D+05 0.11739518D+01  1  2 11  1  6  1        1 0.966237248005D+00 0.100000000000D+01
0.139315989503D-05 0.000000000000D+00 0.000000000000D+00 0.912282807836D-06 0.000000000000D+00  6 21 -2 25 -24 -1 21 4 0.10461096D+00 0.20846655D-01 0.77363862D+05 0.77363862D+05 0.77363862D+05 0.11739518D+01  3  4 12  4  5  1        1 0.294820089097D-03 0.100000000000D+01
-.646714689654D-04 0.000000000000D+00 -.300128638432D-05 0.913027113132D-06 0.000000000000D+00  6 21 -2 25 -24 -1 21 4 0.10454227D+00 0.20846655D-01 0.76466285D+05 0.76466285D+05 0.76466285D+05 0.11744306D+01  3  4  5  4  5  1        1 -.137366481122D-01 0.100000000000D+01
0.446798135128D-04 0.000000000000D+00 0.000000000000D+00 0.913027113132D-06 0.334558420646D-08  6 21 -2 25 -24 -1 21 4 0.10449192D+00 0.20867684D-01 0.77363862D+05 0.77363862D+05 0.77363862D+05 0.11739518D+01  3  4 11  4  5  1        1 0.946477606609D-02 0.100000000000D+01
  </mgrwgt>
  </event>
  <event>
  6     66 0.44337718E-03 0.43875580E+02 0.75467711E-02 0.12132311E+00
        1 -1    0    0  502    0 0.00000000E+00 0.00000000E+00 0.82708591E+02 0.82709210E+02 0.32000000E+00 0.0000E+00 0.9000E+01
       -2 -1    0    0    0  503 0.00000000E+00 0.00000000E+00 -.32406420E+03 0.32406436E+03 0.32000000E+00 0.0000E+00 0.9000E+01
       25  1    1    2    0    0 -.18098632E+02 -.59373283E+02 -.94444974E+02 0.16851588E+03 0.12500000E+03 0.0000E+00 0.9000E+01
      -24  1    1    2    0    0 0.30868771E+02 0.67251737E+01 -.83686033E+01 0.86806442E+02 0.80419002E+02 0.0000E+00 0.9000E+01
       21  1    1    2  502  501 -.10985402E+02 0.46014395E+02 -.83466274E+02 0.95943655E+02 0.75000000E+00 0.0000E+00 0.9000E+01
       21  1    1    2  501  503 -.17847364E+01 0.66337143E+01 -.55075759E+02 0.55507596E+02 0.75000000E+00 0.0000E+00 0.9000E+01
#aMCatNLO 2  0  0  2  5 0.68696033D+01 0.00000000D+00  -5  6  0 0.00000000D+00 0.00000000D+00 0.00000000D+00 0.00000000D+00 0.00000000D+00
  <mgrwgt>
 0.1416312717D+00    2    2    0
 0.148862696382356D+03 0.000000000000000D+00 0.000000000000000D+00 0.148862696382356D+03
 0.148862696382356D+03 0.000000000000000D+00 0.000000000000000D+00 -.148862696382356D+03
 0.138514538610191D+03 -.189319961230336D+02 -.562759153195291D+02 -.598984842385324D+01
 0.971461867799530D+02 0.302867434231925D+02 0.888839698050585D+01 0.444283155594450D+02
 0.620646673745675D+02 -.113547473001589D+02 0.473875183390233D+02 -.384384671355917D+02
 0.000000000000000D+00 -.000000000000000D+00 0.000000000000000D+00 -.000000000000000D+00
 0.149287534117915D+03 0.000000000000000D+00 0.000000000000000D+00 0.149287534117915D+03
 0.179528905625108D+03 0.000000000000000D+00 0.000000000000000D+00 -.179528905625108D+03
 0.139691818092703D+03 -.180982429927668D+02 -.593749051239563D+02 -.598984842385324D+01
 0.971555541429025D+02 0.308690438660387D+02 0.672403552867380D+01 0.444283155594450D+02
 0.609572632999547D+02 -.109860644238691D+02 0.460171552984389D+02 -.384384671355917D+02
 0.310118042074627D+02 -.178473644940292D+01 0.663371429684365D+01 -.302413715071924D+02
-.619911315708D-03 0.000000000000D+00 0.000000000000D+00 0.104848540622D-04 0.000000000000D+00  6 1 -2 25 -24 21 21 4 0.12687863D-01 0.50641334D-01 0.19620368D+05 0.19620368D+05 0.19620368D+05 0.12347434D+01  1  2 13  2  6  2       -2 -.214562252737D+00 0.100000000000D+01
0.100141273558D-02 0.000000000000D+00 0.000000000000D+00 0.105240481201D-04 0.162161156572D-05  6 1 -2 25 -24 21 21 4 0.12724073D-01 0.49854580D-01 0.19620368D+05 0.19620368D+05 0.19620368D+05 0.12347434D+01  1  2  1  2  6  2       -2 0.356193524413D+00 0.100000000000D+01
  </mgrwgt>
  </event>
  <event>
  6     66 0.44337718E-03 0.68996801E+02 0.75467711E-02 0.11671607E+00
        3 -1    0    0  502    0 0.00000000E+00 0.00000000E+00 0.45173221E+03 0.45173248E+03 0.50000000E+00 0.0000E+00 0.9000E+01
       21 -1    0    0  503  501 0.00000000E+00 0.00000000E+00 -.30805002E+03 0.30805093E+03 0.75000000E+00 0.0000E+00 0.9000E+01
       25  1    1    2    0    0 0.35913955E+02 0.30014382E+02 0.25585451E+03 0.28857790E+03 0.12500000E+03 0.0000E+00 0.9000E+01
      -24  1    1    2    0    0 -.61449191E+02 0.35778840E+02 0.13055394E+03 0.16901975E+03 0.80419002E+02 0.0000E+00 0.9000E+01
        4  1    1    2  503    0 0.59679544E+02 -.62154247E+02 -.25223207E+03 0.26654872E+03 0.15500000E+01 0.0000E+00 0.9000E+01
       21  1    1    2  502  501 -.34144308E+02 -.36389749E+01 0.95058065E+01 0.35637042E+02 0.75000000E+00 0.0000E+00 0.9000E+01
#aMCatNLO 2  0  0  2  1 0.33340951D+03 0.00000000D+00  -5  6  0 0.00000000D+00 0.00000000D+00 0.00000000D+00 0.00000000D+00 0.00000000D+00
  <mgrwgt>
 0.1490896168D-01    1    2    0
 0.140630335979195D+03 0.000000000000000D+00 0.000000000000000D+00 0.140630335979195D+03
 0.140630335979195D+03 0.000000000000000D+00 0.000000000000000D+00 -.140630335979195D+03
 0.146904444630830D+03 0.656214538293023D+02 -.921820455890846D+00 0.406065376099526D+02
 0.916836390029680D+02 -.407701452328120D+02 0.142442795157250D+02 -.857726443741435D+01
 0.000000000000000D+00 0.000000000000000D+00 -.000000000000000D+00 -.000000000000000D+00
 0.426725883245911D+02 -.248513085964903D+02 -.133224590598341D+02 -.320292731725383D+02
 0.149449409287746D+03 0.000000000000000D+00 0.000000000000000D+00 0.149449409287746D+03
 0.931118874967129D+03 0.000000000000000D+00 0.000000000000000D+00 -.931118874967129D+03
 0.139516205923556D+03 0.359156390184832D+02 0.300157907197137D+02 0.406065376099526D+02
 0.107688348828627D+03 -.614478000650555D+02 0.357793644577586D+02 -.857726443741435D+01
 0.786404445552680D+03 0.596795444679146D+02 -.621542466902167D+02 -.781669465679383D+03
 0.469592839500115D+02 -.341473834213422D+02 -.364090848725570D+01 -.320292731725383D+02
0.162548026847D-03 0.000000000000D+00 0.000000000000D+00 0.298531023220D-04 0.276960572947D-07  6 3 21 25 -24 4 21 4 0.69497004D-01 0.47392164D-01 0.32639945D+05 0.32639945D+05 0.32639945D+05 0.12110728D+01  1  2  1  5  5  2       -4 0.149089616783D-01 0.100000000000D+01
  </mgrwgt>
  </event>
  <event>
  5     66 0.44337718E-03 0.22558480E+02 0.75467711E-02 0.11925542E+00
        1 -1    0    0  502    0 0.00000000E+00 0.00000000E+00 0.18992674E+04 0.18992675E+04 0.32000000E+00 0.0000E+00 0.9000E+01
       -2 -1    0    0    0  501 0.00000000E+00 0.00000000E+00 -.92875383E+01 0.92930494E+01 0.32000000E+00 0.0000E+00 0.9000E+01
       25  1    1    2    0    0 0.14640093E+02 0.35043188E+02 0.10609700E+04 0.10689830E+04 0.12500000E+03 0.0000E+00 0.9000E+01
      -24  1    1    2    0    0 -.35067411E+02 -.44603887E+02 0.77224733E+03 0.77849367E+03 0.80419002E+02 0.0000E+00 0.9000E+01
       21  1    1    2  502  501 0.20427318E+02 0.95606992E+01 0.56762547E+02 0.61083807E+02 0.75000000E+00 0.0000E+00 0.9000E+01
#aMCatNLO 1  0  0  1  1 0.17382340D+02 0.00000000D+00  -5  6  0 0.00000000D+00 0.00000000D+00 0.00000000D+00 0.00000000D+00 0.00000000D+00
  <mgrwgt>
 0.3602945748D+00    7    4    0
 0.132833745547194D+03 0.000000000000000D+00 0.000000000000000D+00 0.132833745547194D+03
 0.132833745547194D+03 0.000000000000000D+00 0.000000000000000D+00 -.132833745547194D+03
 0.131769113000520D+03 0.146377680016481D+02 0.350420996508981D+02 0.172013412538171D+02
 0.988854800911616D+02 -.350691559297770D+02 -.446047038085415D+02 0.957585082456148D+01
 0.350128980027054D+02 0.204313879281289D+02 0.956260415764344D+01 -.267771920783785D+02
 0.000000000000000D+00 -.000000000000000D+00 -.000000000000000D+00 0.000000000000000D+00
 0.174699887435431D+03 0.000000000000000D+00 0.000000000000000D+00 0.174699887435431D+03
 0.154114064001569D+03 0.000000000000000D+00 0.000000000000000D+00 -.154114064001569D+03
 0.140760719270621D+03 0.378141862487491D+02 0.496264170275987D+02 0.172013412538171D+02
 0.900543102845633D+02 -.190013824725550D+02 -.344936717612854D+02 0.957585082456148D+01
 0.402714824046145D+02 0.268337045965587D+02 0.135914155659895D+02 -.267771920783785D+02
 0.577274394772015D+02 -.456465083727528D+02 -.287241608323028D+02 0.205858234338627D+02
 0.132833745547194D+03 0.000000000000000D+00 0.000000000000000D+00 0.132833745547194D+03
 0.132833745547194D+03 0.000000000000000D+00 0.000000000000000D+00 -.132833745547194D+03
 0.131769113000520D+03 0.146377680016481D+02 0.350420996508981D+02 0.172013412538171D+02
 0.988854800911616D+02 -.350691559297770D+02 -.446047038085415D+02 0.957585082456148D+01
 0.000000000000000D+00 -.000000000000000D+00 -.000000000000000D+00 0.000000000000000D+00
 0.350128980027054D+02 0.204313879281289D+02 0.956260415764344D+01 -.267771920783785D+02
 0.174699887435431D+03 0.000000000000000D+00 0.000000000000000D+00 0.174699887435431D+03
 0.154114064001569D+03 0.000000000000000D+00 0.000000000000000D+00 -.154114064001569D+03
 0.140760719270621D+03 0.378141862487491D+02 0.496264170275987D+02 0.172013412538171D+02
 0.900543102845633D+02 -.190013824725550D+02 -.344936717612854D+02 0.957585082456148D+01
 0.577274394772015D+02 -.456465083727528D+02 -.287241608323028D+02 0.205858234338627D+02
 0.402714824046145D+02 0.268337045965587D+02 0.135914155659895D+02 -.267771920783785D+02
0.167250788041D-03 0.000000000000D+00 0.000000000000D+00 0.490071726927D-04 0.000000000000D+00  6 1 -2 25 -24 21 21 2 0.29219542D+00 0.14292781D-02 0.15828252D+05 0.15828252D+05 0.15828252D+05 0.12451703D+01  1  2  2  1  6  1        1 0.111827948084D+00 0.100000000000D+01
0.232137995217D-04 0.882606656740D-05 -.642287064220D-06 0.490071726927D-04 0.000000000000D+00  6 1 -2 25 -24 21 21 4 0.29219542D+00 0.14292781D-02 0.15828252D+05 0.15828252D+05 0.15828252D+05 0.12451703D+01  1  2  3  1  6  1        1 0.240650032144D-01 0.100000000000D+01
0.859516860252D-05 0.000000000000D+00 0.000000000000D+00 0.490071726927D-04 0.000000000000D+00  6 1 -2 25 -24 21 21 4 0.29219542D+00 0.14292781D-02 0.15828252D+05 0.15828252D+05 0.15828252D+05 0.12451703D+01  1  2 15  1  6  1        1 0.891033627884D-02 0.100000000000D+01
-.530339573287D-04 0.000000000000D+00 0.000000000000D+00 0.490071726927D-04 0.000000000000D+00  6 1 -2 25 -24 21 21 4 0.29219542D+00 0.14292781D-02 0.15828252D+05 0.15828252D+05 0.15828252D+05 0.12451703D+01  1  2  4  1  6  1        1 -.549786066858D-01 0.100000000000D+01
-.351906551850D-03 0.000000000000D+00 -.126896666419D-03 0.490071726927D-04 0.000000000000D+00  6 1 -2 25 -24 21 21 4 0.40714820D+00 0.14292781D-02 0.15828252D+05 0.15828252D+05 0.15828252D+05 0.12451703D+01  1  2  5  1  6  1        1 -.120792652667D+00 0.100000000000D+01
0.379599881019D-03 0.000000000000D+00 0.120219998680D-03 0.490071726927D-04 0.000000000000D+00  6 1 -2 25 -24 21 21 4 0.29219542D+00 0.14292781D-02 0.15828252D+05 0.15828252D+05 0.15828252D+05 0.12451703D+01  1  2  6  1  6  1        1 0.393519050959D+00 0.100000000000D+01
-.113102634668D-04 0.000000000000D+00 -.527426626166D-05 0.490071726927D-04 0.000000000000D+00  6 21 -2 25 -24 -1 21 4 0.40714820D+00 0.14292781D-02 0.15828252D+05 0.15828252D+05 0.15828252D+05 0.12451703D+01  3  4  5  4  5  1        1 -.225650442544D-02 0.100000000000D+01
  </mgrwgt>
  </event>
  <event>
  5     66 0.44337718E-03 0.81974078E+02 0.75467711E-02 0.11222949E+00
        1 -1    0    0  502    0 0.00000000E+00 0.00000000E+00 0.95360103E+03 0.95360109E+03 0.32000000E+00 0.0000E+00 0.9000E+01
       -2 -1    0    0    0  501 0.00000000E+00 0.00000000E+00 -.51350896E+02 0.51351893E+02 0.32000000E+00 0.0000E+00 0.9000E+01
       25  1    1    2    0    0 0.11029811E+03 -.11311858E+03 0.39741185E+03 0.44555882E+03 0.12500000E+03 0.0000E+00 0.9000E+01
      -24  1    1    2    0    0 -.12055618E+03 0.31791279E+02 0.39783729E+03 0.42460123E+03 0.80419002E+02 0.0000E+00 0.9000E+01
       21  1    1    2  502  501 0.10258072E+02 0.81327301E+02 0.10700099E+03 0.13479293E+03 0.75000000E+00 0.0000E+00 0.9000E+01
#aMCatNLO 1  0  0  2  5 0.38688038D+02 0.00000000D+00  -5  6  0 0.00000000D+00 0.00000000D+00 0.00000000D+00 0.00000000D+00 0.00000000D+00
  <mgrwgt>
 0.8501504244D-01    3    2    0
 0.221288940835033D+03 0.000000000000000D+00 0.000000000000000D+00 0.221288940835033D+03
 0.221288940835033D+03 0.000000000000000D+00 0.000000000000000D+00 -.221288940835033D+03
 0.201548834391433D+03 0.110297936604935D+03 -.113119926486734D+03 -.593127784501797D+01
 0.153092862135572D+03 -.120556307322879D+03 0.317902556351891D+02 0.377593020832172D+02
 0.879361851430615D+02 0.102583707179442D+02 0.813296708515448D+02 -.318280242381992D+02
 0.000000000000000D+00 -.000000000000000D+00 -.000000000000000D+00 0.000000000000000D+00
 0.463276268549430D+03 0.000000000000000D+00 0.000000000000000D+00 0.463276268549430D+03
 0.223684548952599D+03 0.000000000000000D+00 0.000000000000000D+00 -.223684548952599D+03
 0.198585103178528D+03 0.119037591913428D+03 -.980097692018721D+02 -.593127784501797D+01
 0.150805844279792D+03 -.113918605060239D+03 0.432663060809209D+02 0.377593020832172D+02
 0.948746776516953D+02 0.142512935306836D+02 0.882331115019072D+02 -.318280242381992D+02
 0.242695192392013D+03 -.193702803838719D+02 -.334896483809560D+02 0.239591719596831D+03
0.391768465636D-03 0.000000000000D+00 0.000000000000D+00 0.271441186905D-05 0.000000000000D+00  6 1 -2 25 -24 21 21 2 0.14670793D+00 0.79002187D-02 0.46612570D+05 0.46612570D+05 0.46612570D+05 0.11953109D+01  1  2  2  2  6  2       -2 0.822401465184D-01 0.100000000000D+01
-.227833002421D-05 0.206741899229D-04 -.150449406305D-05 0.271441186905D-05 0.000000000000D+00  6 1 -2 25 -24 21 21 4 0.14670793D+00 0.79002187D-02 0.46612570D+05 0.46612570D+05 0.46612570D+05 0.11953109D+01  1  2  3  2  6  2       -2 -.683333644890D-03 0.100000000000D+01
0.115302214506D-04 0.000000000000D+00 0.000000000000D+00 0.271441186905D-05 0.000000000000D+00  6 1 -2 25 -24 21 21 4 0.14670793D+00 0.79002187D-02 0.46612570D+05 0.46612570D+05 0.46612570D+05 0.11953109D+01  1  2 15  2  6  2       -2 0.345822956573D-02 0.100000000000D+01
  </mgrwgt>
  </event>
  <event>
  5     66 -.44337718E-03 0.23997345E+02 0.75467711E-02 0.12141208E+00
        1 -1    0    0  502    0 0.00000000E+00 0.00000000E+00 0.13112708E+03 0.13112747E+03 0.32000000E+00 0.0000E+00 0.9000E+01
       -2 -1    0    0    0  501 0.00000000E+00 0.00000000E+00 -.15138458E+03 0.15138492E+03 0.32000000E+00 0.0000E+00 0.9000E+01
       25  1    1    2    0    0 0.46940925E+00 -.32114063E+02 -.65146399E+02 0.14457035E+03 0.12500000E+03 0.0000E+00 0.9000E+01
      -24  1    1    2    0    0 -.23675788E+01 0.56026507E+02 0.54406512E+02 0.11212430E+03 0.80419002E+02 0.0000E+00 0.9000E+01
       21  1    1    2  502  501 0.18981695E+01 -.23912444E+02 -.95176095E+01 0.25817735E+02 0.75000000E+00 0.0000E+00 0.9000E+01
#aMCatNLO 1  0  0  1  2 0.26143670D+02 0.00000000D+00  -5  6  0 0.00000000D+00 0.00000000D+00 0.00000000D+00 0.00000000D+00 0.00000000D+00
  <mgrwgt>
 -.3046514489D+00    7    4    0
 0.140892587269538D+03 0.000000000000000D+00 0.000000000000000D+00 0.140892587269538D+03
 0.140892587269538D+03 0.000000000000000D+00 0.000000000000000D+00 -.140892587269538D+03
 0.140258212917663D+03 0.468990524153219D+00 -.321087880443246D+02 -.549196874451175D+02
 0.116327815467099D+03 -.236792603914520D+01 0.560308822580650D+02 0.626089279307103D+02
 0.251991461543134D+02 0.189893551499198D+01 -.239220942137404D+02 -.768924048559279D+01
 0.000000000000000D+00 0.000000000000000D+00 -.000000000000000D+00 0.000000000000000D+00
 0.224429321133561D+03 0.000000000000000D+00 0.000000000000000D+00 0.224429321133561D+03
 0.143558088266465D+03 0.000000000000000D+00 0.000000000000000D+00 -.143558088266465D+03
 0.139771238270532D+03 -.116639506304933D+02 -.275459476928586D+02 -.549196874451175D+02
 0.118862915528777D+03 -.125581231315700D+02 0.598631140219931D+02 0.626089279307103D+02
 0.243612102283563D+02 -.248384650950585D+00 -.231145506036795D+02 -.768924048559279D+01
 0.849920453723614D+02 0.244704584130139D+02 -.920261572545502D+01 0.808712328670963D+02
 0.140892587269538D+03 0.000000000000000D+00 0.000000000000000D+00 0.140892587269538D+03
 0.140892587269538D+03 0.000000000000000D+00 0.000000000000000D+00 -.140892587269538D+03
 0.140258212917663D+03 0.468990524153219D+00 -.321087880443246D+02 -.549196874451175D+02
 0.116327815467099D+03 -.236792603914520D+01 0.560308822580650D+02 0.626089279307103D+02
 0.000000000000000D+00 0.000000000000000D+00 -.000000000000000D+00 0.000000000000000D+00
 0.251991461543134D+02 0.189893551499198D+01 -.239220942137404D+02 -.768924048559279D+01
 0.224429321133561D+03 0.000000000000000D+00 0.000000000000000D+00 0.224429321133561D+03
 0.143558088266465D+03 0.000000000000000D+00 0.000000000000000D+00 -.143558088266465D+03
 0.139771238270532D+03 -.116639506304933D+02 -.275459476928586D+02 -.549196874451175D+02
 0.118862915528777D+03 -.125581231315700D+02 0.598631140219931D+02 0.626089279307103D+02
 0.849920453723614D+02 0.244704584130139D+02 -.920261572545502D+01 0.808712328670963D+02
 0.243612102283563D+02 -.248384650950585D+00 -.231145506036795D+02 -.768924048559279D+01
0.577572853753D-04 0.000000000000D+00 0.000000000000D+00 0.312120372980D-04 0.000000000000D+00  6 1 -2 25 -24 21 21 2 0.20173453D-01 0.23289991D-01 0.15762611D+05 0.15762611D+05 0.15762611D+05 0.12453748D+01  1  2  2  1  6  1        1 0.305756127193D-01 0.100000000000D+01
0.914757585909D-05 0.304793568656D-05 -.221803183683D-06 0.312120372980D-04 0.000000000000D+00  6 1 -2 25 -24 21 21 4 0.20173453D-01 0.23289991D-01 0.15762611D+05 0.15762611D+05 0.15762611D+05 0.12453748D+01  1  2  3  1  6  1        1 0.751059825941D-02 0.100000000000D+01
0.183054812190D-05 0.000000000000D+00 0.000000000000D+00 0.312120372980D-04 0.000000000000D+00  6 1 -2 25 -24 21 21 4 0.20173453D-01 0.23289991D-01 0.15762611D+05 0.15762611D+05 0.15762611D+05 0.12453748D+01  1  2 15  1  6  1        1 0.150296775341D-02 0.100000000000D+01
-.555613244760D-03 0.000000000000D+00 0.000000000000D+00 0.312120372980D-04 0.000000000000D+00  6 1 -2 25 -24 21 21 4 0.20173453D-01 0.23289991D-01 0.15762611D+05 0.15762611D+05 0.15762611D+05 0.12453748D+01  1  2  4  1  6  1        1 -.456185106665D+00 0.100000000000D+01
-.658990866258D-03 0.000000000000D+00 -.477292463374D-04 0.312120372980D-04 0.000000000000D+00  6 1 -2 25 -24 21 21 4 0.32505710D-01 0.23289991D-01 0.15762611D+05 0.15762611D+05 0.15762611D+05 0.12453748D+01  1  2  5  1  6  1        1 -.297894580705D+00 0.100000000000D+01
0.615361225903D-03 0.000000000000D+00 0.427696034183D-04 0.312120372980D-04 0.000000000000D+00  6 1 -2 25 -24 21 21 4 0.20173453D-01 0.23289991D-01 0.15762611D+05 0.15762611D+05 0.15762611D+05 0.12453748D+01  1  2  6  1  6  1        1 0.505241063137D+00 0.100000000000D+01
-.337728902701D-04 0.000000000000D+00 -.259377490827D-05 0.312120372980D-04 0.000000000000D+00  6 21 -2 25 -24 -1 21 4 0.32505710D-01 0.23289991D-01 0.15762611D+05 0.15762611D+05 0.15762611D+05 0.12453748D+01  3  4  5  4  5  1        1 -.954020033599D-01 0.100000000000D+01
  </mgrwgt>
  </event>
  <event>
  6     66 -.44337718E-03 0.95412598E+01 0.75467711E-02 0.12107892E+00
        1 -1    0    0  502    0 0.00000000E+00 0.00000000E+00 0.12412582E+04 0.12412582E+04 0.32000000E+00 0.0000E+00 0.9000E+01
       -2 -1    0    0    0  501 0.00000000E+00 0.00000000E+00 -.19476885E+02 0.19479514E+02 0.32000000E+00 0.0000E+00 0.9000E+01
       25  1    1    2    0    0 -.51114598E+02 0.49859783E+02 0.41918480E+03 0.44321506E+03 0.12500000E+03 0.0000E+00 0.9000E+01
      -24  1    1    2    0    0 0.26848747E+02 -.61854419E+02 0.70843709E+03 0.71616838E+03 0.80419002E+02 0.0000E+00 0.9000E+01
       21  1    1    2  503  501 0.69578293E+01 0.17476438E+02 0.39566034E+02 0.43816331E+02 0.75000000E+00 0.0000E+00 0.9000E+01
       21  1    1    2  502  503 0.17308022E+02 -.54818018E+01 0.54593396E+02 0.57537981E+02 0.75000000E+00 0.0000E+00 0.9000E+01
#aMCatNLO 2  0  0  5  1 0.12953167D+02 0.00000000D+00  -5  6  0 0.00000000D+00 0.00000000D+00 0.00000000D+00 0.00000000D+00 0.00000000D+00
  <mgrwgt>
 -.1216290185D+00    2    2    0
 0.155491243320947D+03 0.000000000000000D+00 0.000000000000000D+00 0.155491243320947D+03
 0.155491243320947D+03 -.000000000000000D+00 -.000000000000000D+00 -.155491243320947D+03
 0.149953690104799D+03 -.545920358632291D+02 0.481408815576694D+02 -.395382639882490D+02
 0.121148812874158D+03 0.240513797339614D+02 -.632371605041394D+02 0.602694912100119D+02
 0.398799836629376D+02 0.305406561292677D+02 0.150962789464700D+02 -.207312272217629D+02
 0.000000000000000D+00 0.000000000000000D+00 0.000000000000000D+00 0.000000000000000D+00
 0.155491243320947D+03 0.000000000000000D+00 0.000000000000000D+00 0.155491243320947D+03
 0.155491243320947D+03 -.000000000000000D+00 -.000000000000000D+00 -.155491243320947D+03
 0.149930695514718D+03 -.511130672501274D+02 0.498605394591598D+02 -.418998140646560D+02
 0.120087730401830D+03 0.268499728006079D+02 -.618538129619998D+02 0.583697851748721D+02
 0.215595955244623D+02 0.629779541649105D+01 0.172261236994335D+02 -.113320163414219D+02
 0.194044652008835D+02 0.179652990330285D+02 -.523285019659351D+01 -.513795476879415D+01
-.700096010711D-04 0.000000000000D+00 0.000000000000D+00 0.160946799075D-04 0.000000000000D+00  6 1 -2 25 -24 21 21 4 0.19096300D+00 0.29966493D-02 0.20442980D+05 0.20442980D+05 0.20442980D+05 0.12327800D+01  1  2 13  3  6  5       21 -.636241494798D-01 0.100000000000D+01
-.638263579735D-04 0.000000000000D+00 0.000000000000D+00 0.160946799075D-04 0.000000000000D+00  6 1 -2 25 -24 21 21 4 0.19096300D+00 0.29966493D-02 0.20442980D+05 0.20442980D+05 0.20442980D+05 0.12327800D+01  1  2 13  3  6  5       21 -.580048690226D-01 0.100000000000D+01
  </mgrwgt>
  </event>
  <event>
  5     66 -.44337718E-03 0.48678276E+02 0.75467711E-02 0.12115654E+00
        1 -1    0    0  502    0 0.00000000E+00 0.00000000E+00 0.10877450E+04 0.10877451E+04 0.32000000E+00 0.0000E+00 0.9000E+01
       -2 -1    0    0    0  501 0.00000000E+00 0.00000000E+00 -.30400333E+02 0.30402018E+02 0.32000000E+00 0.0000E+00 0.9000E+01
       25  1    1    2    0    0 0.32444578E+02 -.24697591E+01 0.15039262E+03 0.19824654E+03 0.12500000E+03 0.0000E+00 0.9000E+01
      -24  1    1    2    0    0 -.52730189E+02 -.41777277E+02 0.59329706E+03 0.60249020E+03 0.80419002E+02 0.0000E+00 0.9000E+01
       21  1    1    2  502  501 0.20285611E+02 0.44247036E+02 0.31365501E+03 0.31741036E+03 0.75000000E+00 0.0000E+00 0.9000E+01
#aMCatNLO 1  0  0  5  1 0.10417259D+01 0.00000000D+00  -5  6  0 0.00000000D+00 0.00000000D+00 0.00000000D+00 0.00000000D+00 0.00000000D+00
  <mgrwgt>
 -.1876175426D-01   25    2    0
 0.181848231574604D+03 0.000000000000000D+00 0.000000000000000D+00 0.181848231574604D+03
 0.181848231574604D+03 -.000000000000000D+00 -.000000000000000D+00 -.181848231574604D+03
 0.172265192409319D+03 0.324439182830090D+02 -.247119911921905D+01 -.113980620533397D+03
 0.127450102252181D+03 -.527306774600005D+02 -.417783427416492D+02 0.724593564841120D+02
 0.639811684877077D+02 0.202867591769915D+02 0.442495418608682D+02 0.415212640492852D+02
 0.000000000000000D+00 0.000000000000000D+00 0.000000000000000D+00 0.000000000000000D+00
 0.181848231574604D+03 0.000000000000000D+00 0.000000000000000D+00 0.181848231574604D+03
 0.181848231574604D+03 -.000000000000000D+00 -.000000000000000D+00 -.181848231574604D+03
 0.172222509886477D+03 0.324795971253981D+02 -.239337631785041D+01 -.113907596024017D+03
 0.127451050421389D+03 -.527042771618464D+02 -.417207583296631D+02 0.725133904350785D+02
 0.615360653905617D+02 0.202379388833547D+02 0.428555208855074D+02 0.392494267873675D+02
 0.248683745077991D+01 -.132588469063940D-01 0.125861376200615D+01 0.214477880157115D+01
0.734865994954D-04 0.000000000000D+00 0.000000000000D+00 0.597481310982D-05 0.000000000000D+00  6 1 -2 25 -24 21 21 2 0.16734552D+00 0.46771075D-02 0.19978699D+05 0.19978699D+05 0.19978699D+05 0.12338770D+01  1  2  2  3  6  5       21 0.290336800691D-01 0.100000000000D+01
-.613623871266D-06 0.387799439725D-05 -.282207891528D-06 0.597481310982D-05 0.000000000000D+00  6 1 -2 25 -24 21 21 4 0.16734552D+00 0.46771075D-02 0.19978699D+05 0.19978699D+05 0.19978699D+05 0.12338770D+01  1  2  3  3  6  5       21 -.369096492679D-03 0.100000000000D+01
0.311992253711D-05 0.000000000000D+00 0.000000000000D+00 0.597481310982D-05 0.000000000000D+00  6 1 -2 25 -24 21 21 4 0.16734552D+00 0.46771075D-02 0.19978699D+05 0.19978699D+05 0.19978699D+05 0.12338770D+01  1  2 15  3  6  5       21 0.187664222303D-02 0.100000000000D+01
0.106215161802D-08 0.000000000000D+00 0.000000000000D+00 0.597499178182D-05 0.000000000000D+00  6 1 -2 25 -24 21 21 4 0.16734552D+00 0.46771075D-02 0.19970992D+05 0.19970992D+05 0.19970992D+05 0.12338954D+01  1  2 12  3  6  5       21 0.638922795087D-06 0.100000000000D+01
0.110515199680D-08 0.000000000000D+00 0.000000000000D+00 0.597499178182D-05 0.000000000000D+00  6 1 -2 25 -24 21 21 4 0.16734552D+00 0.46771075D-02 0.19970992D+05 0.19970992D+05 0.19970992D+05 0.12338954D+01  1  2 12  3  6  5       21 0.664789085486D-06 0.100000000000D+01
-.103377386198D-01 0.000000000000D+00 0.000000000000D+00 0.597481310982D-05 0.000000000000D+00  6 1 -2 25 -24 21 21 4 0.16734552D+00 0.46771075D-02 0.19978699D+05 0.19978699D+05 0.19978699D+05 0.12338770D+01  1  2  4  3  6  5       21 -.621817899443D+01 0.100000000000D+01
-.648989840884D-02 0.000000000000D+00 0.000000000000D+00 0.597481310982D-05 0.000000000000D+00  6 1 -2 25 -24 21 21 4 0.16734552D+00 0.46771075D-02 0.19978699D+05 0.19978699D+05 0.19978699D+05 0.12338770D+01  1  2  5  3  6  5       21 -.390369223349D+01 0.100000000000D+01
0.682458040412D-02 0.000000000000D+00 -.000000000000D+00 0.597481310982D-05 0.000000000000D+00  6 1 -2 25 -24 21 21 4 0.16734552D+00 0.46771075D-02 0.19978699D+05 0.19978699D+05 0.19978699D+05 0.12338770D+01  1  2  6  3  6  5       21 0.410500439947D+01 0.100000000000D+01
0.991751366939D-02 0.000000000000D+00 0.000000000000D+00 0.597481310982D-05 0.765559415682D-04  6 1 -2 25 -24 21 21 4 0.16734552D+00 0.46771075D-02 0.19970992D+05 0.19970992D+05 0.19970992D+05 0.12338954D+01  1  2 11  3  6  5       21 0.596574485833D+01 0.100000000000D+01
0.134920972371D-09 0.000000000000D+00 0.000000000000D+00 0.597499178182D-05 0.000000000000D+00  6 1 -2 25 -24 1 -1 4 0.16734552D+00 0.46771075D-02 0.19970992D+05 0.19970992D+05 0.19970992D+05 0.12338954D+01  1  2 12  6  6  5       21 0.811598676878D-07 0.100000000000D+01
0.135684636531D-09 0.000000000000D+00 0.000000000000D+00 0.597499178182D-05 0.000000000000D+00  6 1 -2 25 -24 1 -1 4 0.16734552D+00 0.46771075D-02 0.19970992D+05 0.19970992D+05 0.19970992D+05 0.12338954D+01  1  2 12  6  6  5       21 0.816192394307D-07 0.100000000000D+01
-.194129585580D-04 0.000000000000D+00 0.000000000000D+00 0.597481310982D-05 0.000000000000D+00  6 1 -2 25 -24 1 -1 4 0.16734552D+00 0.46771075D-02 0.19978699D+05 0.19978699D+05 0.19978699D+05 0.12338770D+01  1  2  5  6  6  5       21 -.116769494340D-01 0.100000000000D+01
0.201063831110D-04 0.000000000000D+00 0.000000000000D+00 0.597481310982D-05 0.276171062661D-06  6 1 -2 25 -24 1 -1 4 0.16734552D+00 0.46771075D-02 0.19970992D+05 0.19970992D+05 0.19970992D+05 0.12338954D+01  1  2 11  6  6  5       21 0.120947200742D-01 0.100000000000D+01
0.134920972371D-09 0.000000000000D+00 0.000000000000D+00 0.597499178182D-05 0.000000000000D+00  6 1 -2 25 -24 2 -2 4 0.16734552D+00 0.46771075D-02 0.19970992D+05 0.19970992D+05 0.19970992D+05 0.12338954D+01  1  2 12  7  6  5       21 0.811598676878D-07 0.100000000000D+01
0.135684636531D-09 0.000000000000D+00 0.000000000000D+00 0.597499178182D-05 0.000000000000D+00  6 1 -2 25 -24 2 -2 4 0.16734552D+00 0.46771075D-02 0.19970992D+05 0.19970992D+05 0.19970992D+05 0.12338954D+01  1  2 12  7  6  5       21 0.816192394307D-07 0.100000000000D+01
-.194129585580D-04 0.000000000000D+00 0.000000000000D+00 0.597481310982D-05 0.000000000000D+00  6 1 -2 25 -24 2 -2 4 0.16734552D+00 0.46771075D-02 0.19978699D+05 0.19978699D+05 0.19978699D+05 0.12338770D+01  1  2  5  7  6  5       21 -.116769494340D-01 0.100000000000D+01
0.203448794745D-04 0.000000000000D+00 0.000000000000D+00 0.597481310982D-05 0.280058798664D-06  6 1 -2 25 -24 2 -2 4 0.16734552D+00 0.46771075D-02 0.19970992D+05 0.19970992D+05 0.19970992D+05 0.12338954D+01  1  2 11  7  6  5       21 0.122381843035D-01 0.100000000000D+01
0.134920972371D-09 0.000000000000D+00 0.000000000000D+00 0.597499178182D-05 0.000000000000D+00  6 1 -2 25 -24 3 -3 4 0.16734552D+00 0.46771075D-02 0.19970992D+05 0.19970992D+05 0.19970992D+05 0.12338954D+01  1  2 12  8  6  5       21 0.811598676878D-07 0.100000000000D+01
0.134920972371D-09 0.000000000000D+00 0.000000000000D+00 0.597499178182D-05 0.000000000000D+00  6 1 -2 25 -24 4 -4 4 0.16734552D+00 0.46771075D-02 0.19970992D+05 0.19970992D+05 0.19970992D+05 0.12338954D+01  1  2 12  8  6  5       21 0.811598676878D-07 0.100000000000D+01
0.135684636531D-09 0.000000000000D+00 0.000000000000D+00 0.597499178182D-05 0.000000000000D+00  6 1 -2 25 -24 3 -3 4 0.16734552D+00 0.46771075D-02 0.19970992D+05 0.19970992D+05 0.19970992D+05 0.12338954D+01  1  2 12  8  6  5       21 0.816192394307D-07 0.100000000000D+01
0.135684636531D-09 0.000000000000D+00 0.000000000000D+00 0.597499178182D-05 0.000000000000D+00  6 1 -2 25 -24 4 -4 4 0.16734552D+00 0.46771075D-02 0.19970992D+05 0.19970992D+05 0.19970992D+05 0.12338954D+01  1  2 12  8  6  5       21 0.816192394307D-07 0.100000000000D+01
-.194129585580D-04 0.000000000000D+00 0.000000000000D+00 0.597481310982D-05 0.000000000000D+00  6 1 -2 25 -24 3 -3 4 0.16734552D+00 0.46771075D-02 0.19978699D+05 0.19978699D+05 0.19978699D+05 0.12338770D+01  1  2  5  8  6  5       21 -.116769494340D-01 0.100000000000D+01
-.194129585580D-04 0.000000000000D+00 0.000000000000D+00 0.597481310982D-05 0.000000000000D+00  6 1 -2 25 -24 4 -4 4 0.16734552D+00 0.46771075D-02 0.19978699D+05 0.19978699D+05 0.19978699D+05 0.12338770D+01  1  2  5  8  6  5       21 -.116769494340D-01 0.100000000000D+01
0.201084515181D-04 0.000000000000D+00 0.000000000000D+00 0.597481310982D-05 0.276136182245D-06  6 1 -2 25 -24 3 -3 4 0.16734552D+00 0.46771075D-02 0.19970992D+05 0.19970992D+05 0.19970992D+05 0.12338954D+01  1  2 11  8  6  5       21 0.120959642963D-01 0.100000000000D+01
0.201084515181D-04 0.000000000000D+00 0.000000000000D+00 0.597481310982D-05 0.276136182245D-06  6 1 -2 25 -24 4 -4 4 0.16734552D+00 0.46771075D-02 0.19970992D+05 0.19970992D+05 0.19970992D+05 0.12338954D+01  1  2 11  8  6  5       21 0.120959642963D-01 0.100000000000D+01
  </mgrwgt>
  </event>
  <event>
  5     66 0.44337718E-03 0.51478542E+02 0.75467711E-02 0.12053823E+00
        1 -1    0    0  502    0 0.00000000E+00 0.00000000E+00 0.17611952E+04 0.17611953E+04 0.32000000E+00 0.0000E+00 0.9000E+01
       -2 -1    0    0    0  501 0.00000000E+00 0.00000000E+00 -.14019138E+02 0.14022790E+02 0.32000000E+00 0.0000E+00 0.9000E+01
       25  1    1    2    0    0 -.12246704E+02 -.80513824E+01 0.87833239E+03 0.88730355E+03 0.12500000E+03 0.0000E+00 0.9000E+01
      -24  1    1    2    0    0 0.47505565E+02 -.44324922E+02 0.34157363E+03 0.35687706E+03 0.80419002E+02 0.0000E+00 0.9000E+01
       21  1    1    2  502  501 -.35258861E+02 0.52376304E+02 0.52727009E+03 0.53103746E+03 0.75000000E+00 0.0000E+00 0.9000E+01
#aMCatNLO 1  0  0  5  1 0.79093475D+00 0.00000000D+00  -5  6  0 0.00000000D+00 0.00000000D+00 0.00000000D+00 0.00000000D+00 0.00000000D+00
  <mgrwgt>
 0.5845750007D-01   24    2    0
 0.157142312598969D+03 0.000000000000000D+00 0.000000000000000D+00 0.157142312598969D+03
 0.157142312598969D+03 -.000000000000000D+00 -.000000000000000D+00 -.157142312598969D+03
 0.129041892798067D+03 -.122458320538255D+02 -.805267814203371D+01 0.284956850936782D+02
 0.116918384573298D+03 0.475063557620006D+02 -.443260957692089D+02 -.545988653081011D+02
 0.683243478265726D+02 -.352605237081751D+02 0.523787739112425D+02 0.261031802144228D+02
 0.000000000000000D+00 0.000000000000000D+00 0.000000000000000D+00 0.000000000000000D+00
 0.157142312598969D+03 0.000000000000000D+00 0.000000000000000D+00 0.157142312598969D+03
 0.157142312598969D+03 -.000000000000000D+00 -.000000000000000D+00 -.157142312598969D+03
 0.129064482597758D+03 -.123805995957843D+02 -.785248376405852D+01 0.285954527960505D+02
 0.116758043832171D+03 0.473843440611209D+02 -.441448499276044D+02 -.545085406877781D+02
 0.811292531656488D+00 -.879297689104417D-01 -.211474341011923D+00 0.778294629786476D+00
 0.676508062363515D+02 -.349158146964261D+02 0.522088080326748D+02 0.251347932619411D+02
0.130973650469D-03 0.000000000000D+00 0.000000000000D+00 0.551811780644D-05 0.000000000000D+00  6 1 -2 25 -24 21 21 2 0.27095340D+00 0.21570736D-02 0.21372207D+05 0.21372207D+05 0.21372207D+05 0.12306658D+01  1  2  2  3  6  5       21 0.578600343378D-01 0.100000000000D+01
-.416987648542D-05 0.691166942265D-05 -.502973303955D-06 0.551811780644D-05 0.000000000000D+00  6 1 -2 25 -24 21 21 4 0.27095340D+00 0.21570736D-02 0.21372207D+05 0.21372207D+05 0.21372207D+05 0.12306658D+01  1  2  3  3  6  5       21 -.278996169875D-02 0.100000000000D+01
0.700568631034D-05 0.000000000000D+00 0.000000000000D+00 0.551811780644D-05 0.000000000000D+00  6 1 -2 25 -24 21 21 4 0.27095340D+00 0.21570736D-02 0.21372207D+05 0.21372207D+05 0.21372207D+05 0.12306658D+01  1  2 15  3  6  5       21 0.468733223817D-02 0.100000000000D+01
0.118710006448D-13 0.000000000000D+00 0.000000000000D+00 0.551880855494D-05 0.000000000000D+00  6 1 -2 25 -24 21 21 4 0.27095340D+00 0.21570736D-02 0.21337534D+05 0.21337534D+05 0.21337534D+05 0.12307429D+01  1  2 12  3  6  5       21 0.794450848241D-11 0.100000000000D+01
0.143801557122D-13 0.000000000000D+00 0.000000000000D+00 0.551880855494D-05 0.000000000000D+00  6 1 -2 25 -24 21 21 4 0.27095340D+00 0.21570736D-02 0.21337534D+05 0.21337534D+05 0.21337534D+05 0.12307429D+01  1  2 12  3  6  5       21 0.962372696728D-11 0.100000000000D+01
-.686031749089D-04 0.000000000000D+00 0.000000000000D+00 0.551811780644D-05 0.000000000000D+00  6 1 -2 25 -24 21 21 4 0.27095340D+00 0.21570736D-02 0.21372207D+05 0.21372207D+05 0.21372207D+05 0.12306658D+01  1  2  4  3  6  5       21 -.459006953989D-01 0.100000000000D+01
0.674257314611D-04 0.000000000000D+00 -.000000000000D+00 0.551811780644D-05 0.000000000000D+00  6 1 -2 25 -24 21 21 4 0.27095340D+00 0.21570736D-02 0.21372207D+05 0.21372207D+05 0.21372207D+05 0.12306658D+01  1  2  6  3  6  5       21 0.451128969753D-01 0.100000000000D+01
0.589520094483D-08 0.000000000000D+00 0.000000000000D+00 0.551811780644D-05 0.340435336574D-03  6 1 -2 25 -24 21 21 4 0.27095340D+00 0.21570736D-02 0.21337534D+05 0.21337534D+05 0.21337534D+05 0.12307429D+01  1  2 11  3  6  5       21 0.394528442151D-05 0.100000000000D+01
0.287318692763D-11 0.000000000000D+00 0.000000000000D+00 0.551880855494D-05 0.000000000000D+00  6 1 -2 25 -24 1 -1 4 0.27095340D+00 0.21570736D-02 0.21337534D+05 0.21337534D+05 0.21337534D+05 0.12307429D+01  1  2 12  6  6  5       21 0.192284194072D-08 0.100000000000D+01
0.289398714209D-11 0.000000000000D+00 0.000000000000D+00 0.551880855494D-05 0.000000000000D+00  6 1 -2 25 -24 1 -1 4 0.27095340D+00 0.21570736D-02 0.21337534D+05 0.21337534D+05 0.21337534D+05 0.12307429D+01  1  2 12  6  6  5       21 0.193676220617D-08 0.100000000000D+01
-.471387279928D-05 0.000000000000D+00 0.000000000000D+00 0.551811780644D-05 0.000000000000D+00  6 1 -2 25 -24 1 -1 4 0.27095340D+00 0.21570736D-02 0.21372207D+05 0.21372207D+05 0.21372207D+05 0.12306658D+01  1  2  5  6  6  5       21 -.315393623978D-02 0.100000000000D+01
0.639447396741D-06 0.000000000000D+00 0.000000000000D+00 0.551811780644D-05 0.263486923693D-06  6 1 -2 25 -24 1 -1 4 0.27095340D+00 0.21570736D-02 0.21337534D+05 0.21337534D+05 0.21337534D+05 0.12307429D+01  1  2 11  6  6  5       21 0.427941621727D-03 0.100000000000D+01
0.287318692763D-11 0.000000000000D+00 0.000000000000D+00 0.551880855494D-05 0.000000000000D+00  6 1 -2 25 -24 2 -2 4 0.27095340D+00 0.21570736D-02 0.21337534D+05 0.21337534D+05 0.21337534D+05 0.12307429D+01  1  2 12  7  6  5       21 0.192284194072D-08 0.100000000000D+01
0.289398714209D-11 0.000000000000D+00 0.000000000000D+00 0.551880855494D-05 0.000000000000D+00  6 1 -2 25 -24 2 -2 4 0.27095340D+00 0.21570736D-02 0.21337534D+05 0.21337534D+05 0.21337534D+05 0.12307429D+01  1  2 12  7  6  5       21 0.193676220617D-08 0.100000000000D+01
-.471387279928D-05 0.000000000000D+00 0.000000000000D+00 0.551811780644D-05 0.000000000000D+00  6 1 -2 25 -24 2 -2 4 0.27095340D+00 0.21570736D-02 0.21372207D+05 0.21372207D+05 0.21372207D+05 0.12306658D+01  1  2  5  7  6  5       21 -.315393623978D-02 0.100000000000D+01
0.581648707790D-05 0.000000000000D+00 0.000000000000D+00 0.551811780644D-05 0.954088718146D-07  6 1 -2 25 -24 2 -2 4 0.27095340D+00 0.21570736D-02 0.21337534D+05 0.21337534D+05 0.21337534D+05 0.12307429D+01  1  2 11  7  6  5       21 0.389260621836D-02 0.100000000000D+01
0.287318692763D-11 0.000000000000D+00 0.000000000000D+00 0.551880855494D-05 0.000000000000D+00  6 1 -2 25 -24 3 -3 4 0.27095340D+00 0.21570736D-02 0.21337534D+05 0.21337534D+05 0.21337534D+05 0.12307429D+01  1  2 12  8  6  5       21 0.192284194072D-08 0.100000000000D+01
0.287318692763D-11 0.000000000000D+00 0.000000000000D+00 0.551880855494D-05 0.000000000000D+00  6 1 -2 25 -24 4 -4 4 0.27095340D+00 0.21570736D-02 0.21337534D+05 0.21337534D+05 0.21337534D+05 0.12307429D+01  1  2 12  8  6  5       21 0.192284194072D-08 0.100000000000D+01
0.289398714209D-11 0.000000000000D+00 0.000000000000D+00 0.551880855494D-05 0.000000000000D+00  6 1 -2 25 -24 3 -3 4 0.27095340D+00 0.21570736D-02 0.21337534D+05 0.21337534D+05 0.21337534D+05 0.12307429D+01  1  2 12  8  6  5       21 0.193676220617D-08 0.100000000000D+01
0.289398714209D-11 0.000000000000D+00 0.000000000000D+00 0.551880855494D-05 0.000000000000D+00  6 1 -2 25 -24 4 -4 4 0.27095340D+00 0.21570736D-02 0.21337534D+05 0.21337534D+05 0.21337534D+05 0.12307429D+01  1  2 12  8  6  5       21 0.193676220617D-08 0.100000000000D+01
-.471387279928D-05 0.000000000000D+00 0.000000000000D+00 0.551811780644D-05 0.000000000000D+00  6 1 -2 25 -24 3 -3 4 0.27095340D+00 0.21570736D-02 0.21372207D+05 0.21372207D+05 0.21372207D+05 0.12306658D+01  1  2  5  8  6  5       21 -.315393623978D-02 0.100000000000D+01
-.471387279928D-05 0.000000000000D+00 0.000000000000D+00 0.551811780644D-05 0.000000000000D+00  6 1 -2 25 -24 4 -4 4 0.27095340D+00 0.21570736D-02 0.21372207D+05 0.21372207D+05 0.21372207D+05 0.12306658D+01  1  2  5  8  6  5       21 -.315393623978D-02 0.100000000000D+01
0.581194276389D-05 0.000000000000D+00 0.000000000000D+00 0.551811780644D-05 0.953189084694D-07  6 1 -2 25 -24 3 -3 4 0.27095340D+00 0.21570736D-02 0.21337534D+05 0.21337534D+05 0.21337534D+05 0.12307429D+01  1  2 11  8  6  5       21 0.388956499696D-02 0.100000000000D+01
0.581194276389D-05 0.000000000000D+00 0.000000000000D+00 0.551811780644D-05 0.953189084694D-07  6 1 -2 25 -24 4 -4 4 0.27095340D+00 0.21570736D-02 0.21337534D+05 0.21337534D+05 0.21337534D+05 0.12307429D+01  1  2 11  8  6  5       21 0.388956499696D-02 0.100000000000D+01
  </mgrwgt>
  </event>
  <event>
  5     66 0.44337718E-03 0.49700770E+02 0.75467711E-02 0.11490239E+00
        1 -1    0    0  502    0 0.00000000E+00 0.00000000E+00 0.40325252E+03 0.40325265E+03 0.32000000E+00 0.0000E+00 0.9000E+01
       -2 -1    0    0    0  501 0.00000000E+00 0.00000000E+00 -.19785065E+03 0.19785091E+03 0.32000000E+00 0.0000E+00 0.9000E+01
       25  1    1    2    0    0 -.96921615E+01 -.13791621E+03 0.13460466E+03 0.22990918E+03 0.12500000E+03 0.0000E+00 0.9000E+01
      -24  1    1    2    0    0 -.23557200E+02 0.10097543E+03 0.19635019E+03 0.23616010E+03 0.80419002E+02 0.0000E+00 0.9000E+01
       21  1    1    2  502  501 0.33249361E+02 0.36940773E+02 -.12555298E+03 0.13503427E+03 0.75000000E+00 0.0000E+00 0.9000E+01
#aMCatNLO 1  0  0  5  1 0.22083828D+02 0.00000000D+00  -5  6  0 0.00000000D+00 0.00000000D+00 0.00000000D+00 0.00000000D+00 0.00000000D+00
  <mgrwgt>
 0.9544892707D-01    9    2    0
 0.282460419881307D+03 0.000000000000000D+00 0.000000000000000D+00 0.282460419881307D+03
 0.282460419881307D+03 -.000000000000000D+00 -.000000000000000D+00 -.282460419881307D+03
 0.195693446566514D+03 -.969225186089099D+01 -.137916305734834D+03 0.596328591919059D+02
 0.179894465321755D+03 -.235572825869657D+02 0.100975339839520D+03 0.123060301805419D+03
 0.189332927874346D+03 0.332495344478567D+02 0.369409658953140D+02 -.182693160997324D+03
 0.000000000000000D+00 0.000000000000000D+00 -.000000000000000D+00 0.000000000000000D+00
 0.282460419881307D+03 0.000000000000000D+00 0.000000000000000D+00 0.282460419881307D+03
 0.282460419881307D+03 -.000000000000000D+00 -.000000000000000D+00 -.282460419881307D+03
 0.191712399438533D+03 -.802892283964540D+01 -.136068310517251D+03 0.504935180938674D+02
 0.175061424619511D+03 -.220332776213987D+02 0.102668542959269D+03 0.114686491790975D+03
 0.175825367241735D+03 0.278469890675929D+02 0.555996201527098D+02 -.164462114799836D+03
 0.223216484628354D+02 0.221521139345123D+01 -.221998525947280D+02 -.717895085005998D+00
0.468740258095D-03 0.000000000000D+00 0.000000000000D+00 0.117471157750D-04 0.000000000000D+00  6 1 -2 25 -24 21 21 2 0.62038879D-01 0.30438591D-01 0.33728263D+05 0.33728263D+05 0.33728263D+05 0.12095951D+01  1  2  2  3  6  5       21 0.361521600192D-01 0.100000000000D+01
0.396993984154D-04 0.247361030058D-04 -.180008601323D-05 0.117471157750D-04 0.000000000000D+00  6 1 -2 25 -24 21 21 4 0.62038879D-01 0.30438591D-01 0.33728263D+05 0.33728263D+05 0.33728263D+05 0.12095951D+01  1  2  3  3  6  5       21 0.447987567701D-02 0.100000000000D+01
0.183427226566D-04 0.000000000000D+00 0.000000000000D+00 0.117471157750D-04 0.000000000000D+00  6 1 -2 25 -24 21 21 4 0.62038879D-01 0.30438591D-01 0.33728263D+05 0.33728263D+05 0.33728263D+05 0.12095951D+01  1  2 15  3  6  5       21 0.206988318108D-02 0.100000000000D+01
0.850164375140D-03 0.000000000000D+00 0.000000000000D+00 0.115928475270D-04 0.000000000000D+00  6 1 -2 25 -24 21 21 4 0.62038879D-01 0.30438591D-01 0.40340699D+05 0.40340699D+05 0.40340699D+05 0.12016264D+01  1  2 12  3  6  5       21 0.934316708321D-01 0.100000000000D+01
-.380798853319D-03 0.000000000000D+00 0.000000000000D+00 0.117471157750D-04 0.000000000000D+00  6 1 -2 25 -24 21 21 4 0.62038879D-01 0.30438591D-01 0.33728263D+05 0.33728263D+05 0.33728263D+05 0.12095951D+01  1  2  4  3  6  5       21 -.429712184292D-01 0.100000000000D+01
0.520152388594D-05 0.000000000000D+00 0.000000000000D+00 0.115928475270D-04 0.000000000000D+00  6 1 -2 25 -24 1 -1 4 0.62038879D-01 0.30438591D-01 0.40340699D+05 0.40340699D+05 0.40340699D+05 0.12016264D+01  1  2 12  6  6  5       21 0.571638946241D-03 0.100000000000D+01
0.520152388594D-05 0.000000000000D+00 0.000000000000D+00 0.115928475270D-04 0.000000000000D+00  6 1 -2 25 -24 2 -2 4 0.62038879D-01 0.30438591D-01 0.40340699D+05 0.40340699D+05 0.40340699D+05 0.12016264D+01  1  2 12  7  6  5       21 0.571638946241D-03 0.100000000000D+01
0.520152388594D-05 0.000000000000D+00 0.000000000000D+00 0.115928475270D-04 0.000000000000D+00  6 1 -2 25 -24 3 -3 4 0.62038879D-01 0.30438591D-01 0.40340699D+05 0.40340699D+05 0.40340699D+05 0.12016264D+01  1  2 12  8  6  5       21 0.571638946241D-03 0.100000000000D+01
0.520152388594D-05 0.000000000000D+00 0.000000000000D+00 0.115928475270D-04 0.000000000000D+00  6 1 -2 25 -24 4 -4 4 0.62038879D-01 0.30438591D-01 0.40340699D+05 0.40340699D+05 0.40340699D+05 0.12016264D+01  1  2 12  8  6  5       21 0.571638946241D-03 0.100000000000D+01
  </mgrwgt>
  </event>
  <event>
  5     66 0.44337718E-03 0.24267988E+02 0.75467711E-02 0.12007461E+00
        1 -1    0    0  502    0 0.00000000E+00 0.00000000E+00 0.79085166E+03 0.79085173E+03 0.32000000E+00 0.0000E+00 0.9000E+01
       -2 -1    0    0    0  501 0.00000000E+00 0.00000000E+00 -.32194835E+02 0.32196425E+02 0.32000000E+00 0.0000E+00 0.9000E+01
       25  1    1    2    0    0 0.22659813E+02 -.74172330E+02 0.51555822E+03 0.53613457E+03 0.12500000E+03 0.0000E+00 0.9000E+01
      -24  1    1    2    0    0 -.39780465E+02 0.91357788E+02 0.20103733E+03 0.23835259E+03 0.80419002E+02 0.0000E+00 0.9000E+01
       21  1    1    2  502  501 0.17120652E+02 -.17185457E+02 0.42061272E+02 0.48560990E+02 0.75000000E+00 0.0000E+00 0.9000E+01
#aMCatNLO 1  0  0  5  1 0.36613107D+01 0.00000000D+00  -5  6  0 0.00000000D+00 0.00000000D+00 0.00000000D+00 0.00000000D+00 0.00000000D+00
  <mgrwgt>
 0.1600714943D+00   19    2    0
 0.159568229636353D+03 0.000000000000000D+00 0.000000000000000D+00 0.159568229636353D+03
 0.159568229636353D+03 -.000000000000000D+00 -.000000000000000D+00 -.159568229636353D+03
 0.157087164373003D+03 0.226560923627040D+02 -.741685959005371D+02 0.551098727248242D+02
 0.136800907450770D+03 -.397837047255820D+02 0.913610397964201D+02 -.481423885012812D+02
 0.252483874489326D+02 0.171276123628780D+02 -.171924438958830D+02 -.696748422354301D+01
 0.000000000000000D+00 0.000000000000000D+00 0.000000000000000D+00 0.000000000000000D+00
 0.159568229636353D+03 0.000000000000000D+00 0.000000000000000D+00 0.159568229636353D+03
 0.159568229636353D+03 -.000000000000000D+00 -.000000000000000D+00 -.159568229636353D+03
 0.158449220848873D+03 0.254220008109463D+02 -.769449738807289D+02 0.539847057681817D+02
 0.134884389594442D+03 -.374021833113966D+02 0.889705038342116D+02 -.491111874517602D+02
 0.210352032847542D+02 0.139164799861488D+02 -.155940604363324D+02 -.237416114323850D+01
 0.476764554463647D+01 -.193629748569859D+01 0.356853048284979D+01 -.249935717318297D+01
0.161927600316D-03 0.000000000000D+00 0.000000000000D+00 0.298453477476D-04 0.000000000000D+00  6 1 -2 25 -24 21 21 2 0.12166961D+00 0.49531789D-02 0.22413223D+05 0.22413223D+05 0.22413223D+05 0.12284163D+01  1  2  2  3  6  5       21 0.979123181023D-01 0.100000000000D+01
0.345679960627D-04 0.854515423354D-05 -.621844621731D-06 0.298453477476D-04 0.000000000000D+00  6 1 -2 25 -24 21 21 4 0.12166961D+00 0.49531789D-02 0.22413223D+05 0.22413223D+05 0.22413223D+05 0.12284163D+01  1  2  3  3  6  5       21 0.315414580921D-01 0.100000000000D+01
0.197766132173D-05 0.000000000000D+00 0.000000000000D+00 0.298453477476D-04 0.000000000000D+00  6 1 -2 25 -24 21 21 4 0.12166961D+00 0.49531789D-02 0.22413223D+05 0.22413223D+05 0.22413223D+05 0.12284163D+01  1  2 15  3  6  5       21 0.180451078468D-02 0.100000000000D+01
0.335890114004D-05 0.000000000000D+00 0.000000000000D+00 0.298432814615D-04 0.000000000000D+00  6 1 -2 25 -24 21 21 4 0.12166961D+00 0.49531789D-02 0.22433440D+05 0.22433440D+05 0.22433440D+05 0.12283737D+01  1  2 12  3  6  5       21 0.306444740127D-02 0.100000000000D+01
0.262904051538D-05 0.000000000000D+00 0.000000000000D+00 0.298432814615D-04 0.000000000000D+00  6 1 -2 25 -24 21 21 4 0.12166961D+00 0.49531789D-02 0.22433440D+05 0.22433440D+05 0.22433440D+05 0.12283737D+01  1  2 12  3  6  5       21 0.239856906747D-02 0.100000000000D+01
-.117578372951D-03 0.000000000000D+00 0.000000000000D+00 0.298453477476D-04 0.000000000000D+00  6 1 -2 25 -24 21 21 4 0.12166961D+00 0.49531789D-02 0.22413223D+05 0.22413223D+05 0.22413223D+05 0.12284163D+01  1  2  4  3  6  5       21 -.107284012537D+00 0.100000000000D+01
0.132798526595D-03 0.000000000000D+00 0.000000000000D+00 0.298453477476D-04 0.482920863153D-05  6 1 -2 25 -24 21 21 4 0.12166961D+00 0.49531789D-02 0.22433440D+05 0.22433440D+05 0.22433440D+05 0.12283737D+01  1  2 11  3  6  5       21 0.121156914940D+00 0.100000000000D+01
0.997988562295D-07 0.000000000000D+00 0.000000000000D+00 0.298432814615D-04 0.000000000000D+00  6 1 -2 25 -24 1 -1 4 0.12166961D+00 0.49531789D-02 0.22433440D+05 0.22433440D+05 0.22433440D+05 0.12283737D+01  1  2 12  6  6  5       21 0.910501181403D-04 0.100000000000D+01
0.945344818326D-07 0.000000000000D+00 0.000000000000D+00 0.298432814615D-04 0.000000000000D+00  6 1 -2 25 -24 1 -1 4 0.12166961D+00 0.49531789D-02 0.22433440D+05 0.22433440D+05 0.22433440D+05 0.12283737D+01  1  2 12  6  6  5       21 0.862472383390D-04 0.100000000000D+01
0.252093093317D-05 0.000000000000D+00 0.000000000000D+00 0.298432814615D-04 0.124035583682D-06  6 1 -2 25 -24 1 -1 4 0.12166961D+00 0.49531789D-02 0.22433440D+05 0.22433440D+05 0.22433440D+05 0.12283737D+01  1  2 11  6  6  5       21 0.229993677243D-02 0.100000000000D+01
0.997988562295D-07 0.000000000000D+00 0.000000000000D+00 0.298432814615D-04 0.000000000000D+00  6 1 -2 25 -24 2 -2 4 0.12166961D+00 0.49531789D-02 0.22433440D+05 0.22433440D+05 0.22433440D+05 0.12283737D+01  1  2 12  7  6  5       21 0.910501181403D-04 0.100000000000D+01
0.945344818326D-07 0.000000000000D+00 0.000000000000D+00 0.298432814615D-04 0.000000000000D+00  6 1 -2 25 -24 2 -2 4 0.12166961D+00 0.49531789D-02 0.22433440D+05 0.22433440D+05 0.22433440D+05 0.12283737D+01  1  2 12  7  6  5       21 0.862472383390D-04 0.100000000000D+01
0.204853660861D-05 0.000000000000D+00 0.000000000000D+00 0.298432814615D-04 0.133866034506D-06  6 1 -2 25 -24 2 -2 4 0.12166961D+00 0.49531789D-02 0.22433440D+05 0.22433440D+05 0.22433440D+05 0.12283737D+01  1  2 11  7  6  5       21 0.186895428741D-02 0.100000000000D+01
0.997988562295D-07 0.000000000000D+00 0.000000000000D+00 0.298432814615D-04 0.000000000000D+00  6 1 -2 25 -24 3 -3 4 0.12166961D+00 0.49531789D-02 0.22433440D+05 0.22433440D+05 0.22433440D+05 0.12283737D+01  1  2 12  8  6  5       21 0.910501181403D-04 0.100000000000D+01
0.997988562295D-07 0.000000000000D+00 0.000000000000D+00 0.298432814615D-04 0.000000000000D+00  6 1 -2 25 -24 4 -4 4 0.12166961D+00 0.49531789D-02 0.22433440D+05 0.22433440D+05 0.22433440D+05 0.12283737D+01  1  2 12  8  6  5       21 0.910501181403D-04 0.100000000000D+01
0.945344818326D-07 0.000000000000D+00 0.000000000000D+00 0.298432814615D-04 0.000000000000D+00  6 1 -2 25 -24 3 -3 4 0.12166961D+00 0.49531789D-02 0.22433440D+05 0.22433440D+05 0.22433440D+05 0.12283737D+01  1  2 12  8  6  5       21 0.862472383390D-04 0.100000000000D+01
0.945344818326D-07 0.000000000000D+00 0.000000000000D+00 0.298432814615D-04 0.000000000000D+00  6 1 -2 25 -24 4 -4 4 0.12166961D+00 0.49531789D-02 0.22433440D+05 0.22433440D+05 0.22433440D+05 0.12283737D+01  1  2 12  8  6  5       21 0.862472383390D-04 0.100000000000D+01
0.252056613867D-05 0.000000000000D+00 0.000000000000D+00 0.298432814615D-04 0.122752035686D-06  6 1 -2 25 -24 3 -3 4 0.12166961D+00 0.49531789D-02 0.22433440D+05 0.22433440D+05 0.22433440D+05 0.12283737D+01  1  2 11  8  6  5       21 0.229960395717D-02 0.100000000000D+01
0.252056613867D-05 0.000000000000D+00 0.000000000000D+00 0.298432814615D-04 0.122752035686D-06  6 1 -2 25 -24 4 -4 4 0.12166961D+00 0.49531789D-02 0.22433440D+05 0.22433440D+05 0.22433440D+05 0.12283737D+01  1  2 11  8  6  5       21 0.229960395717D-02 0.100000000000D+01
  </mgrwgt>
  </event>
  <event>
  5     66 0.44337718E-03 0.21190300E+02 0.75467711E-02 0.10508005E+00
        3 -1    0    0  502    0 0.00000000E+00 0.00000000E+00 0.51852497E+02 0.51854908E+02 0.50000000E+00 0.0000E+00 0.9000E+01
       -4 -1    0    0    0  501 0.00000000E+00 0.00000000E+00 -.50185508E+03 0.50185748E+03 0.15500000E+01 0.0000E+00 0.9000E+01
       25  1    1    2    0    0 0.61061694E+02 0.49567943E+02 -.18228942E+03 0.23460594E+03 0.12500000E+03 0.0000E+00 0.9000E+01
      -24  1    1    2    0    0 -.76726005E+02 -.35299714E+02 -.11111590E+03 0.16108044E+03 0.80419002E+02 0.0000E+00 0.9000E+01
       21  1    1    2  502  501 0.15664311E+02 -.14268229E+02 -.15659727E+03 0.15802601E+03 0.75000000E+00 0.0000E+00 0.9000E+01
#aMCatNLO 1  0  0  1  5 0.47037909D+01 0.00000000D+00  -5  6  0 0.00000000D+00 0.00000000D+00 0.00000000D+00 0.00000000D+00 0.00000000D+00
  <mgrwgt>
 0.1005240425D+00    3    2    0
 0.161318843361320D+03 0.000000000000000D+00 0.000000000000000D+00 0.161318843361320D+03
 0.161318843361320D+03 0.000000000000000D+00 0.000000000000000D+00 -.161318843361320D+03
 0.148381752784777D+03 0.610609671968222D+02 0.495686056360997D+02 0.143755410250881D+02
 0.121467613116121D+03 -.767266003671131D+02 -.352991719575857D+02 0.339729647951295D+02
 0.527883208217428D+02 0.156656331702909D+02 -.142694336785140D+02 -.483485058202176D+02
 0.000000000000000D+00 -.000000000000000D+00 0.000000000000000D+00 -.000000000000000D+00
 0.300022036008951D+03 0.000000000000000D+00 0.000000000000000D+00 0.300022036008951D+03
 0.589257554574205D+03 0.000000000000000D+00 0.000000000000000D+00 -.589257554574205D+03
 0.223368203365663D+03 0.177270425463637D+03 -.513506996153030D+02 0.143755410250881D+02
 0.136962385894597D+03 0.405891066809387D+01 -.105455403383550D+03 0.339729647951295D+02
 0.958004692461996D+02 0.621146576089900D+02 -.546069702772672D+02 -.483485058202176D+02
 0.433148532076698D+03 -.243443993740721D+03 0.211413073276120D+03 -.289235518565254D+03
0.158399470310D-02 0.000000000000D+00 0.000000000000D+00 0.497436794677D-04 0.000000000000D+00  6 3 -4 25 -24 21 21 2 0.79776768D-02 0.77208844D-01 0.20376709D+05 0.20376709D+05 0.20376709D+05 0.12329349D+01  1  2  2  1  6  1        3 0.785133004994D-01 0.100000000000D+01
0.264544203000D-03 0.835896969799D-04 -.608295673529D-05 0.497436794677D-04 0.000000000000D+00  6 3 -4 25 -24 21 21 4 0.79776768D-02 0.77208844D-01 0.20376709D+05 0.20376709D+05 0.20376709D+05 0.12329349D+01  1  2  3  1  6  1        3 0.199327867789D-01 0.100000000000D+01
0.275782317197D-04 0.000000000000D+00 0.000000000000D+00 0.497436794677D-04 0.000000000000D+00  6 3 -4 25 -24 21 21 4 0.79776768D-02 0.77208844D-01 0.20376709D+05 0.20376709D+05 0.20376709D+05 0.12329349D+01  1  2 15  1  6  1        3 0.207795523915D-02 0.100000000000D+01
  </mgrwgt>
  </event>
  <event>
  5     66 0.44337718E-03 0.30513361E+03 0.75467711E-02 0.10278744E+00
        1 -1    0    0  502    0 0.00000000E+00 0.00000000E+00 0.23342633E+04 0.23342633E+04 0.32000000E+00 0.0000E+00 0.9000E+01
       -2 -1    0    0    0  501 0.00000000E+00 0.00000000E+00 -.88741742E+02 0.88742319E+02 0.32000000E+00 0.0000E+00 0.9000E+01
       25  1    1    2    0    0 0.73435098E+02 -.11208133E+03 0.35873494E+03 0.40282837E+03 0.12500000E+03 0.0000E+00 0.9000E+01
      -24  1    1    2    0    0 0.23118291E+03 -.15302752E+03 0.51730432E+03 0.59239677E+03 0.80419002E+02 0.0000E+00 0.9000E+01
       21  1    1    2  502  501 -.30461800E+03 0.26510885E+03 0.13694823E+04 0.14277805E+04 0.75000000E+00 0.0000E+00 0.9000E+01
#aMCatNLO 1  0  0  2  5 0.22854276D+02 0.00000000D+00  -5  6  0 0.00000000D+00 0.00000000D+00 0.00000000D+00 0.00000000D+00 0.00000000D+00
  <mgrwgt>
 0.7908558420D-02    9    4    0
 0.455134394037999D+03 0.000000000000000D+00 0.000000000000000D+00 0.455134394037999D+03
 0.455134394037999D+03 0.000000000000000D+00 0.000000000000000D+00 -.455134394037999D+03
 0.187316605703601D+03 0.734351965466032D+02 -.112081415639602D+03 -.388270388866151D+02
 0.300749524582181D+03 0.231183065811102D+03 -.153027657818775D+03 -.843800130760664D+02
 0.422202657790216D+03 -.304618262357705D+03 0.265109073458377D+03 0.123207051962682D+03
 0.000000000000000D+00 0.000000000000000D+00 -.000000000000000D+00 -.000000000000000D+00
 0.457913744526954D+03 0.000000000000000D+00 0.000000000000000D+00 0.457913744526954D+03
 0.504816279746074D+03 0.000000000000000D+00 0.000000000000000D+00 -.504816279746074D+03
 0.184043373887637D+03 0.703684988938562D+02 -.108571169684531D+03 -.388270388866151D+02
 0.294132056143190D+03 0.226270522598231D+03 -.147404594545273D+03 -.843800130760664D+02
 0.432380215980113D+03 -.311675423702754D+03 0.273186939251099D+03 0.123207051962682D+03
 0.521743782620879D+02 0.150364022106668D+02 -.172111750212948D+02 -.469025352191205D+02
 0.455134394037999D+03 0.000000000000000D+00 0.000000000000000D+00 0.455134394037999D+03
 0.455134394037999D+03 0.000000000000000D+00 0.000000000000000D+00 -.455134394037999D+03
 0.187316605703601D+03 0.734351965466032D+02 -.112081415639602D+03 -.388270388866151D+02
 0.300749524582181D+03 0.231183065811102D+03 -.153027657818775D+03 -.843800130760664D+02
 0.000000000000000D+00 0.000000000000000D+00 -.000000000000000D+00 -.000000000000000D+00
 0.422202657790216D+03 -.304618262357705D+03 0.265109073458377D+03 0.123207051962682D+03
 0.457913744526954D+03 0.000000000000000D+00 0.000000000000000D+00 0.457913744526954D+03
 0.504816279746074D+03 0.000000000000000D+00 0.000000000000000D+00 -.504816279746074D+03
 0.184043373887637D+03 0.703684988938562D+02 -.108571169684531D+03 -.388270388866151D+02
 0.294132056143190D+03 0.226270522598231D+03 -.147404594545273D+03 -.843800130760664D+02
 0.521743782620879D+02 0.150364022106668D+02 -.172111750212948D+02 -.469025352191205D+02
 0.432380215980113D+03 -.311675423702754D+03 0.273186939251099D+03 0.123207051962682D+03
0.127225378367D-03 0.000000000000D+00 0.000000000000D+00 0.424161853313D-06 0.000000000000D+00  6 1 -2 25 -24 21 21 2 0.35911748D+00 0.13652622D-01 0.19173182D+06 0.19173182D+06 0.19173182D+06 0.11384628D+01  1  2  2  2  6  2       -2 0.114088208090D-02 0.100000000000D+01
-.149257150502D-04 0.671386766955D-05 -.488578952142D-06 0.424161853313D-06 0.000000000000D+00  6 1 -2 25 -24 21 21 4 0.35911748D+00 0.13652622D-01 0.19173182D+06 0.19173182D+06 0.19173182D+06 0.11384628D+01  1  2  3  2  6  2       -2 -.173476190147D-03 0.100000000000D+01
0.887336646284D-05 0.000000000000D+00 0.000000000000D+00 0.424161853313D-06 0.000000000000D+00  6 1 -2 25 -24 21 21 4 0.35911748D+00 0.13652622D-01 0.19173182D+06 0.19173182D+06 0.19173182D+06 0.11384628D+01  1  2 15  2  6  2       -2 0.103131930536D-03 0.100000000000D+01
0.223737820234D-02 0.000000000000D+00 0.000000000000D+00 0.422711235102D-06 0.000000000000D+00  6 1 -2 25 -24 21 21 4 0.35911748D+00 0.15210988D-01 0.20204078D+06 0.20204078D+06 0.20204078D+06 0.11365144D+01  1  2 12  2  6  2       -2 0.215161848776D-01 0.100000000000D+01
-.161588833531D-02 0.000000000000D+00 0.000000000000D+00 0.424161853313D-06 0.000000000000D+00  6 1 -2 25 -24 21 21 4 0.35911748D+00 0.13652622D-01 0.19173182D+06 0.19173182D+06 0.19173182D+06 0.11384628D+01  1  2  4  2  6  2       -2 -.187808859522D-01 0.100000000000D+01
-.312988776530D-02 0.000000000000D+00 -.246891637360D-03 0.424161853313D-06 0.000000000000D+00  6 1 -2 25 -24 21 21 4 0.35911748D+00 0.15226542D-01 0.19173182D+06 0.19173182D+06 0.19173182D+06 0.11384628D+01  1  2  5  2  6  2       -2 -.303238582492D-01 0.100000000000D+01
0.313958168446D-02 0.000000000000D+00 0.245429309428D-03 0.424161853313D-06 0.000000000000D+00  6 1 -2 25 -24 21 21 4 0.35911748D+00 0.13652622D-01 0.19173182D+06 0.19173182D+06 0.19173182D+06 0.11384628D+01  1  2  6  2  6  2       -2 0.364902229102D-01 0.100000000000D+01
0.388509187160D-04 0.000000000000D+00 0.000000000000D+00 0.422711235102D-06 0.000000000000D+00  6 1 21 25 -24 2 21 4 0.35911748D+00 0.15210988D-01 0.20204078D+06 0.20204078D+06 0.20204078D+06 0.11365144D+01  3  4 12  5  5  2       -2 0.519504916227D-02 0.100000000000D+01
-.538295649355D-04 0.000000000000D+00 -.432173247983D-05 0.424161853313D-06 0.000000000000D+00  6 1 21 25 -24 2 21 4 0.35911748D+00 0.15226542D-01 0.19173182D+06 0.19173182D+06 0.19173182D+06 0.11384628D+01  3  4  5  5  5  2       -2 -.725869214991D-02 0.100000000000D+01
  </mgrwgt>
  </event>
  <event>
  6     66 -.44337718E-03 0.18368138E+02 0.75467711E-02 0.11880565E+00
        1 -1    0    0  502    0 0.00000000E+00 0.00000000E+00 0.29419906E+03 0.29419923E+03 0.32000000E+00 0.0000E+00 0.9000E+01
       -2 -1    0    0    0  501 0.00000000E+00 0.00000000E+00 -.13180244E+03 0.13180283E+03 0.32000000E+00 0.0000E+00 0.9000E+01
       25  1    1    2    0    0 0.48805373E+02 -.77758447E+02 -.40772213E+02 0.16036120E+03 0.12500000E+03 0.0000E+00 0.9000E+01
      -24  1    1    2    0    0 -.59462031E+02 0.91111232E+02 0.16815972E+03 0.21582839E+03 0.80419002E+02 0.0000E+00 0.9000E+01
       21  1    1    2  503  501 0.18589161E+02 -.12855077E+02 0.35187103E+02 0.41827080E+02 0.75000000E+00 0.0000E+00 0.9000E+01
       21  1    1    2  502  503 -.79325032E+01 -.49770733E+00 -.17799244E+00 0.79853930E+01 0.75000000E+00 0.0000E+00 0.9000E+01
#aMCatNLO 2  0  0  5  2 0.68703715D+01 0.00000000D+00  -5  6  0 0.00000000D+00 0.00000000D+00 0.00000000D+00 0.00000000D+00 0.00000000D+00
  <mgrwgt>
 -.1262274754D+00    3    2    0
 0.196916923602433D+03 0.000000000000000D+00 0.000000000000000D+00 0.196916923602433D+03
 0.196916923602433D+03 -.000000000000000D+00 -.000000000000000D+00 -.196916923602433D+03
 0.190983036367037D+03 0.455395353579636D+02 -.736663549374946D+02 -.115537608810191D+03
 0.164629201193556D+03 -.622780769908706D+02 0.946397359174562D+02 0.883194171349157D+02
 0.382216096442735D+02 0.167385416329070D+02 -.209733809799616D+02 0.272181916752756D+02
 0.000000000000000D+00 -.000000000000000D+00 0.000000000000000D+00 0.000000000000000D+00
 0.196916923602433D+03 0.000000000000000D+00 0.000000000000000D+00 0.196916923602433D+03
 0.196916923602433D+03 -.000000000000000D+00 -.000000000000000D+00 -.196916923602433D+03
 0.190253653536160D+03 0.489108098808537D+02 -.778905595610090D+02 -.110055649977314D+03
 0.164104484010932D+03 -.593710863283845D+02 0.909972786468868D+02 0.930464137147271D+02
 0.304787864596655D+02 0.187060649855390D+02 -.125067968210248D+02 0.205577136396118D+02
 0.899692319810898D+01 -.824578853800822D+01 -.599922264852940D+00 -.354847737702489D+01
-.603574424219D-03 0.000000000000D+00 0.000000000000D+00 0.176936799793D-04 0.000000000000D+00  6 1 -2 25 -24 21 21 4 0.45261437D-01 0.20277342D-01 0.25782201D+05 0.25782201D+05 0.25782201D+05 0.12218657D+01  1  2 13  3  6  5       21 -.214578685258D+00 0.100000000000D+01
-.326280113664D-03 0.000000000000D+00 0.000000000000D+00 0.177214693715D-04 0.000000000000D+00  6 1 -2 25 -24 21 21 4 0.45261437D-01 0.20277342D-01 0.25255282D+05 0.25255282D+05 0.25255282D+05 0.12228249D+01  1  2  8  3  6  5       21 -.116325224756D+00 0.100000000000D+01
0.575721027454D-03 0.000000000000D+00 0.000000000000D+00 0.177214693715D-04 0.104098656054D-05  6 1 -2 25 -24 21 21 4 0.45261437D-01 0.20277342D-01 0.25782201D+05 0.25782201D+05 0.25782201D+05 0.12218657D+01  1  2  1  3  6  5       21 0.204676434570D+00 0.100000000000D+01
  </mgrwgt>
  </event>
  <event>
  6     66 0.44337718E-03 0.16303974E+02 0.75467711E-02 0.12191636E+00
        1 -1    0    0  502    0 0.00000000E+00 0.00000000E+00 0.87032825E+02 0.87033414E+02 0.32000000E+00 0.0000E+00 0.9000E+01
       21 -1    0    0  503  501 0.00000000E+00 0.00000000E+00 -.11445825E+04 0.11445827E+04 0.75000000E+00 0.0000E+00 0.9000E+01
       25  1    1    2    0    0 -.88948456E+01 0.25732572E+00 -.58314441E+02 0.13821996E+03 0.12500000E+03 0.0000E+00 0.9000E+01
      -24  1    1    2    0    0 -.81030507E+01 0.11482848E+02 0.90803246E+01 0.82141241E+02 0.80419002E+02 0.0000E+00 0.9000E+01
        2  1    1    2  503    0 0.25588577E+02 0.19484501E+02 -.77888686E+03 0.77955069E+03 0.32000000E+00 0.0000E+00 0.9000E+01
       21  1    1    2  502  501 -.85906804E+01 -.31224675E+02 -.22942869E+03 0.23170426E+03 0.75000000E+00 0.0000E+00 0.9000E+01
#aMCatNLO 2  0  0  2  5 0.37085273D+02 0.00000000D+00  -5  6  0 0.00000000D+00 0.00000000D+00 0.00000000D+00 0.00000000D+00 0.00000000D+00
  <mgrwgt>
 0.1035901010D+00    1    2    0
 0.177253919423497D+03 0.000000000000000D+00 0.000000000000000D+00 0.177253919423497D+03
 0.177253919423497D+03 0.000000000000000D+00 0.000000000000000D+00 -.177253919423497D+03
 0.129790928882361D+03 0.457726045160572D+00 0.737907032988155D+01 0.341471086342672D+02
 0.111930256727452D+03 -.586019944844581D-01 0.176084903696570D+02 0.758360339773301D+02
 0.000000000000000D+00 0.000000000000000D+00 0.000000000000000D+00 -.000000000000000D+00
 0.112786653237180D+03 -.399124050676114D+00 -.249875606995386D+02 -.109983142611597D+03
 0.178663185479208D+03 0.000000000000000D+00 0.000000000000000D+00 0.178663185479208D+03
 0.557566948127860D+03 0.000000000000000D+00 0.000000000000000D+00 -.557566948127860D+03
 0.129885372042103D+03 -.889485967099787D+01 0.257514792293778D+00 0.341471086342672D+02
 0.111426384363576D+03 -.810308708473043D+01 0.114829921299023D+02 0.758360339773301D+02
 0.380266330877498D+03 0.255885766359459D+02 0.194845014171718D+02 -.378903762648652D+03
 0.114652046323890D+03 -.859062988021759D+01 -.312250083393679D+02 -.109983142611597D+03
0.473987063577D-03 0.000000000000D+00 0.000000000000D+00 0.603986406910D-04 0.160931874856D-06  6 1 21 25 -24 2 21 4 0.13389725D-01 0.17608961D+00 0.18428302D+05 0.18428302D+05 0.18428302D+05 0.12377585D+01  1  2  1  5  5  2       -2 0.103590100953D+00 0.100000000000D+01
  </mgrwgt>
  </event>
  <event>
  5     66 -.44337718E-03 0.28871149E+02 0.75467711E-02 0.10842776E+00
        1 -1    0    0  502    0 0.00000000E+00 0.00000000E+00 0.82488143E+03 0.82488149E+03 0.32000000E+00 0.0000E+00 0.9000E+01
       -2 -1    0    0    0  501 0.00000000E+00 0.00000000E+00 -.12146066E+03 0.12146108E+03 0.32000000E+00 0.0000E+00 0.9000E+01
       25  1    1    2    0    0 0.14425959E+03 -.22610543E+03 0.20354067E+03 0.35914941E+03 0.12500000E+03 0.0000E+00 0.9000E+01
      -24  1    1    2    0    0 -.11867296E+03 0.23946231E+03 0.44811060E+03 0.52791647E+03 0.80419002E+02 0.0000E+00 0.9000E+01
       21  1    1    2  502  501 -.25586631E+02 -.13356880E+02 0.51769503E+02 0.59276689E+02 0.75000000E+00 0.0000E+00 0.9000E+01
#aMCatNLO 1  0  0  1  1 0.33719572D+02 0.00000000D+00  -5  6  0 0.00000000D+00 0.00000000D+00 0.00000000D+00 0.00000000D+00 0.00000000D+00
  <mgrwgt>
 -.1113626762D+00    1    2    0
 0.316529410628630D+03 0.000000000000000D+00 0.000000000000000D+00 0.316529410628630D+03
 0.316529410628630D+03 0.000000000000000D+00 0.000000000000000D+00 -.316529410628630D+03
 0.310720185846012D+03 0.144263245984187D+03 -.226103523100626D+03 -.948016170314151D+02
 0.291251431191669D+03 -.118669531644426D+03 0.239464100668544D+03 0.832746478054565D+02
 0.310872042195796D+02 -.255937143397609D+02 -.133605775679186D+02 0.115269692259585D+02
 0.000000000000000D+00 -.000000000000000D+00 0.000000000000000D+00 0.000000000000000D+00
 0.629328103380997D+03 0.000000000000000D+00 0.000000000000000D+00 0.629328103380997D+03
 0.350819161891413D+03 0.000000000000000D+00 0.000000000000000D+00 -.350819161891413D+03
 0.363953768883308D+03 0.231980283237729D+03 -.232454613809958D+03 -.948016170314151D+02
 0.265343410746223D+03 -.463044282590683D+02 0.234224555989645D+03 0.832746478054565D+02
 0.256477188527087D+02 -.182173819264171D+02 -.138946557553056D+02 0.115269692259585D+02
 0.325202366790170D+03 -.167458473052243D+03 0.121247135756190D+02 0.278508941489584D+03
-.131202676404D-02 0.000000000000D+00 0.000000000000D+00 0.160661481736D-04 0.000000000000D+00  6 1 -2 25 -24 21 21 4 0.12690487D+00 0.18686292D-01 0.91164352D+05 0.91164352D+05 0.91164352D+05 0.11672804D+01  1  2 14  1  6  1        1 -.111362676197D+00 0.100000000000D+01
  </mgrwgt>
  </event>
  <event>
  5     66 0.44337718E-03 0.27963095E+02 0.75467711E-02 0.12334393E+00
        1 -1    0    0  502    0 0.00000000E+00 0.00000000E+00 0.34169987E+04 0.34169988E+04 0.32000000E+00 0.0000E+00 0.9000E+01
       -2 -1    0    0    0  501 0.00000000E+00 0.00000000E+00 -.70486993E+01 0.70559593E+01 0.32000000E+00 0.0000E+00 0.9000E+01
       25  1    1    2    0    0 -.11230576E+02 0.17054071E+02 0.10983727E+04 0.11056512E+04 0.12500000E+03 0.0000E+00 0.9000E+01
      -24  1    1    2    0    0 0.53227735E+01 -.44384014E+02 0.22347408E+04 0.22366341E+04 0.80419002E+02 0.0000E+00 0.9000E+01
       21  1    1    2  502  501 0.59078020E+01 0.27329943E+02 0.76836505E+02 0.81769425E+02 0.75000000E+00 0.0000E+00 0.9000E+01
#aMCatNLO 1  0  0  5  1 0.15934850D+02 0.00000000D+00  -5  6  0 0.00000000D+00 0.00000000D+00 0.00000000D+00 0.00000000D+00 0.00000000D+00
  <mgrwgt>
 0.9229249456D-01   15    2    0
 0.155234827472612D+03 0.000000000000000D+00 0.000000000000000D+00 0.155234827472612D+03
 0.155234827472612D+03 -.000000000000000D+00 -.000000000000000D+00 -.155234827472612D+03
 0.130170456925899D+03 -.112307833851448D+02 0.170531095103767D+02 -.300401201209387D+02
 0.122406063473419D+03 0.532257805973707D+01 -.443849184198826D+02 0.807321348680103D+02
 0.578931345459048D+02 0.590820532540769D+01 0.273318089095059D+02 -.506920147470716D+02
 0.000000000000000D+00 0.000000000000000D+00 0.000000000000000D+00 0.000000000000000D+00
 0.155234827472612D+03 0.000000000000000D+00 0.000000000000000D+00 0.155234827472612D+03
 0.155234827472612D+03 -.000000000000000D+00 -.000000000000000D+00 -.155234827472612D+03
 0.131381237964098D+03 -.107748491337663D+02 0.191622961664978D+02 -.339520061373535D+02
 0.119364375582259D+03 0.574402982736046D+01 -.424352503662489D+02 0.771161063038591D+02
 0.379098980904949D+02 -.992477145734743D+01 0.945024821807679D+01 -.353461750882308D+02
 0.218141433083721D+02 0.149555907637533D+02 0.138227059816743D+02 -.781792507827477D+01
0.809708197582D-03 0.000000000000D+00 0.000000000000D+00 0.255562680845D-04 0.000000000000D+00  6 1 -2 25 -24 21 21 2 0.52569267D+00 0.10849749D-02 0.15206390D+05 0.15206390D+05 0.15206390D+05 0.12471465D+01  1  2  2  3  6  5       21 0.784496445177D-01 0.100000000000D+01
0.528472561384D-04 0.427294755124D-04 -.310949267978D-05 0.255562680845D-04 0.000000000000D+00  6 1 -2 25 -24 21 21 4 0.52569267D+00 0.10849749D-02 0.15206390D+05 0.15206390D+05 0.15206390D+05 0.12471465D+01  1  2  3  3  6  5       21 0.796379084151D-02 0.100000000000D+01
0.420611636261D-04 0.000000000000D+00 0.000000000000D+00 0.255562680845D-04 0.000000000000D+00  6 1 -2 25 -24 21 21 4 0.52569267D+00 0.10849749D-02 0.15206390D+05 0.15206390D+05 0.15206390D+05 0.12471465D+01  1  2 15  3  6  5       21 0.633838602315D-02 0.100000000000D+01
0.499003037084D-03 0.000000000000D+00 0.000000000000D+00 0.254677238284D-04 0.000000000000D+00  6 1 -2 25 -24 21 21 4 0.52569267D+00 0.10849749D-02 0.15888282D+05 0.15888282D+05 0.15888282D+05 0.12449842D+01  1  2 12  3  6  5       21 0.746107017866D-01 0.100000000000D+01
-.932193323013D-03 0.000000000000D+00 0.000000000000D+00 0.255562680845D-04 0.000000000000D+00  6 1 -2 25 -24 21 21 4 0.52569267D+00 0.10849749D-02 0.15206390D+05 0.15206390D+05 0.15206390D+05 0.12471465D+01  1  2  4  3  6  5       21 -.140476406739D+00 0.100000000000D+01
-.759797995709D-03 0.000000000000D+00 0.000000000000D+00 0.255562680845D-04 0.000000000000D+00  6 1 -2 25 -24 21 21 4 0.52569267D+00 0.10849749D-02 0.15206390D+05 0.15206390D+05 0.15206390D+05 0.12471465D+01  1  2  5  3  6  5       21 -.114497379084D+00 0.100000000000D+01
0.122619107774D-02 0.000000000000D+00 -.000000000000D+00 0.255562680845D-04 0.000000000000D+00  6 1 -2 25 -24 21 21 4 0.52569267D+00 0.10849749D-02 0.15206390D+05 0.15206390D+05 0.15206390D+05 0.12471465D+01  1  2  6  3  6  5       21 0.184780251396D+00 0.100000000000D+01
0.113434803077D-04 0.000000000000D+00 0.000000000000D+00 0.254677238284D-04 0.000000000000D+00  6 1 -2 25 -24 1 -1 4 0.52569267D+00 0.10849749D-02 0.15888282D+05 0.15888282D+05 0.15888282D+05 0.12449842D+01  1  2 12  6  6  5       21 0.169607189448D-02 0.100000000000D+01
-.193450686006D-04 0.000000000000D+00 0.000000000000D+00 0.255562680845D-04 0.000000000000D+00  6 1 -2 25 -24 1 -1 4 0.52569267D+00 0.10849749D-02 0.15206390D+05 0.15206390D+05 0.15206390D+05 0.12471465D+01  1  2  5  6  6  5       21 -.291519544074D-02 0.100000000000D+01
0.113434803077D-04 0.000000000000D+00 0.000000000000D+00 0.254677238284D-04 0.000000000000D+00  6 1 -2 25 -24 2 -2 4 0.52569267D+00 0.10849749D-02 0.15888282D+05 0.15888282D+05 0.15888282D+05 0.12449842D+01  1  2 12  7  6  5       21 0.169607189448D-02 0.100000000000D+01
-.193450686006D-04 0.000000000000D+00 0.000000000000D+00 0.255562680845D-04 0.000000000000D+00  6 1 -2 25 -24 2 -2 4 0.52569267D+00 0.10849749D-02 0.15206390D+05 0.15206390D+05 0.15206390D+05 0.12471465D+01  1  2  5  7  6  5       21 -.291519544074D-02 0.100000000000D+01
0.113434803077D-04 0.000000000000D+00 0.000000000000D+00 0.254677238284D-04 0.000000000000D+00  6 1 -2 25 -24 3 -3 4 0.52569267D+00 0.10849749D-02 0.15888282D+05 0.15888282D+05 0.15888282D+05 0.12449842D+01  1  2 12  8  6  5       21 0.169607189448D-02 0.100000000000D+01
0.113434803077D-04 0.000000000000D+00 0.000000000000D+00 0.254677238284D-04 0.000000000000D+00  6 1 -2 25 -24 4 -4 4 0.52569267D+00 0.10849749D-02 0.15888282D+05 0.15888282D+05 0.15888282D+05 0.12449842D+01  1  2 12  8  6  5       21 0.169607189448D-02 0.100000000000D+01
-.193450686006D-04 0.000000000000D+00 0.000000000000D+00 0.255562680845D-04 0.000000000000D+00  6 1 -2 25 -24 3 -3 4 0.52569267D+00 0.10849749D-02 0.15206390D+05 0.15206390D+05 0.15206390D+05 0.12471465D+01  1  2  5  8  6  5       21 -.291519544074D-02 0.100000000000D+01
-.193450686006D-04 0.000000000000D+00 0.000000000000D+00 0.255562680845D-04 0.000000000000D+00  6 1 -2 25 -24 4 -4 4 0.52569267D+00 0.10849749D-02 0.15206390D+05 0.15206390D+05 0.15206390D+05 0.12471465D+01  1  2  5  8  6  5       21 -.291519544074D-02 0.100000000000D+01
  </mgrwgt>
  </event>
  <event>
  5     66 -.44337718E-03 0.41901469E+02 0.75467711E-02 0.11579995E+00
        1 -1    0    0  502    0 0.00000000E+00 0.00000000E+00 0.84086750E+03 0.84086756E+03 0.32000000E+00 0.0000E+00 0.9000E+01
       -2 -1    0    0    0  501 0.00000000E+00 0.00000000E+00 -.56606614E+02 0.56607518E+02 0.32000000E+00 0.0000E+00 0.9000E+01
       25  1    1    2    0    0 0.89101893E+02 -.92940645E+02 0.52659621E+03 0.55633235E+03 0.12500000E+03 0.0000E+00 0.9000E+01
      -24  1    1    2    0    0 -.11997188E+03 0.64609576E+02 0.25377023E+03 0.29905551E+03 0.80419002E+02 0.0000E+00 0.9000E+01
       21  1    1    2  502  501 0.30869987E+02 0.28331069E+02 0.38944453E+01 0.42087228E+02 0.75000000E+00 0.0000E+00 0.9000E+01
#aMCatNLO 1  0  0  2  5 0.15926966D+01 0.00000000D+00  -5  6  0 0.00000000D+00 0.00000000D+00 0.00000000D+00 0.00000000D+00 0.00000000D+00
  <mgrwgt>
 -.2404904100D+00   11    4    0
 0.218172168487513D+03 0.000000000000000D+00 0.000000000000000D+00 0.218172168487513D+03
 0.218172168487513D+03 0.000000000000000D+00 0.000000000000000D+00 -.218172168487513D+03
 0.197792989330684D+03 0.891012717824010D+02 -.929412158156624D+02 0.831862993396952D+02
 0.158986442645765D+03 -.119972379882685D+03 0.646091178082796D+02 -.155487283115068D+02
 0.795649049985773D+02 0.308711081002845D+02 0.283320980073828D+02 -.676375710281885D+02
 0.000000000000000D+00 0.000000000000000D+00 0.000000000000000D+00 -.000000000000000D+00
 0.218312469722132D+03 0.000000000000000D+00 0.000000000000000D+00 0.218312469722132D+03
 0.222740999088271D+03 0.000000000000000D+00 0.000000000000000D+00 -.222740999088271D+03
 0.197664278819435D+03 0.884624331330034D+02 -.932770317257306D+02 0.831862993396952D+02
 0.159265389701964D+03 -.120486497556376D+03 0.643388635044185D+02 -.155487283115068D+02
 0.794175751877059D+02 0.306142809760918D+02 0.281970926589708D+02 -.676375710281885D+02
 0.470622510129793D+01 0.140978344728067D+01 0.741075562341287D+00 -.442852936613959D+01
 0.218172168487513D+03 0.000000000000000D+00 0.000000000000000D+00 0.218172168487513D+03
 0.218172168487513D+03 0.000000000000000D+00 0.000000000000000D+00 -.218172168487513D+03
 0.197792989330684D+03 0.891012717824010D+02 -.929412158156624D+02 0.831862993396952D+02
 0.158986442645765D+03 -.119972379882685D+03 0.646091178082796D+02 -.155487283115068D+02
 0.000000000000000D+00 0.000000000000000D+00 0.000000000000000D+00 -.000000000000000D+00
 0.795649049985773D+02 0.308711081002845D+02 0.283320980073828D+02 -.676375710281885D+02
 0.218312469722132D+03 0.000000000000000D+00 0.000000000000000D+00 0.218312469722132D+03
 0.222740999088271D+03 0.000000000000000D+00 0.000000000000000D+00 -.222740999088271D+03
 0.197664278819435D+03 0.884624331330034D+02 -.932770317257306D+02 0.831862993396952D+02
 0.159265389701964D+03 -.120486497556376D+03 0.643388635044185D+02 -.155487283115068D+02
 0.470622510129793D+01 0.140978344728067D+01 0.741075562341287D+00 -.442852936613959D+01
 0.794175751877059D+02 0.306142809760918D+02 0.281970926589708D+02 -.676375710281885D+02
0.614335870505D-04 0.000000000000D+00 0.000000000000D+00 0.102142612207D-04 0.000000000000D+00  6 1 -2 25 -24 21 21 2 0.12936431D+00 0.87087841D-02 0.36019335D+05 0.36019335D+05 0.36019335D+05 0.12066509D+01  1  2  2  2  6  2       -2 0.138120402567D-01 0.100000000000D+01
0.489856456846D-05 0.324193945591D-05 -.235921150109D-06 0.102142612207D-04 0.000000000000D+00  6 1 -2 25 -24 21 21 4 0.12936431D+00 0.87087841D-02 0.36019335D+05 0.36019335D+05 0.36019335D+05 0.12066509D+01  1  2  3  2  6  2       -2 0.160355573668D-02 0.100000000000D+01
0.127776209288D-05 0.000000000000D+00 0.000000000000D+00 0.102142612207D-04 0.000000000000D+00  6 1 -2 25 -24 21 21 4 0.12936431D+00 0.87087841D-02 0.36019335D+05 0.36019335D+05 0.36019335D+05 0.12066509D+01  1  2 15  2  6  2       -2 0.418278192626D-03 0.100000000000D+01
0.121731029284D-06 0.000000000000D+00 0.000000000000D+00 0.102084999416D-04 0.000000000000D+00  6 1 -2 25 -24 21 21 4 0.12936431D+00 0.89934246D-02 0.36295181D+05 0.36295181D+05 0.36295181D+05 0.12063105D+01  1  2 12  2  6  2       -2 0.378474553804D-04 0.100000000000D+01
-.515237639584D-02 0.000000000000D+00 0.000000000000D+00 0.102142612207D-04 0.000000000000D+00  6 1 -2 25 -24 21 21 4 0.12936431D+00 0.87087841D-02 0.36019335D+05 0.36019335D+05 0.36019335D+05 0.12066509D+01  1  2  4  2  6  2       -2 -.168664158890D+01 0.100000000000D+01
-.136899990256D-01 0.000000000000D+00 -.586253162684D-03 0.102142612207D-04 0.000000000000D+00  6 1 -2 25 -24 21 21 4 0.12936431D+00 0.88956376D-02 0.36019335D+05 0.36019335D+05 0.36019335D+05 0.12066509D+01  1  2  5  2  6  2       -2 -.433477807004D+01 0.100000000000D+01
0.136994895222D-01 0.000000000000D+00 0.586121086308D-03 0.102142612207D-04 0.000000000000D+00  6 1 -2 25 -24 21 21 4 0.12936431D+00 0.87087841D-02 0.36019335D+05 0.36019335D+05 0.36019335D+05 0.12066509D+01  1  2  6  2  6  2       -2 0.448455760986D+01 0.100000000000D+01
0.482330841089D-02 0.000000000000D+00 0.000000000000D+00 0.102142612207D-04 0.120151283288D-03  6 1 -2 25 -24 21 21 4 0.12944750D+00 0.88911582D-02 0.36295181D+05 0.36295181D+05 0.36295181D+05 0.12063105D+01  1  2 11  2  6  2       -2 0.152525453448D+01 0.100000000000D+01
0.104381430829D-07 0.000000000000D+00 0.000000000000D+00 0.102084999416D-04 0.000000000000D+00  6 1 21 25 -24 2 21 4 0.12936431D+00 0.89934246D-02 0.36295181D+05 0.36295181D+05 0.36295181D+05 0.12063105D+01  3  4 12  5  5  2       -2 0.515685974216D-04 0.100000000000D+01
-.527038275873D-04 0.000000000000D+00 -.226096094558D-05 0.102142612207D-04 0.000000000000D+00  6 1 21 25 -24 2 21 4 0.12936431D+00 0.88956376D-02 0.36019335D+05 0.36019335D+05 0.36019335D+05 0.12066509D+01  3  4  5  5  5  2       -2 -.265745782260D+00 0.100000000000D+01
0.415847963592D-05 0.000000000000D+00 0.000000000000D+00 0.102142612207D-04 0.207109401740D-06  6 1 21 25 -24 2 21 4 0.12944750D+00 0.88911582D-02 0.36295181D+05 0.36295181D+05 0.36295181D+05 0.12063105D+01  3  4 11  5  5  2       -2 0.209395966345D-01 0.100000000000D+01
  </mgrwgt>
  </event>
  <event>
  5     66 0.44337718E-03 0.30600855E+02 0.75467711E-02 0.11988279E+00
        1 -1    0    0  502    0 0.00000000E+00 0.00000000E+00 0.67563420E+03 0.67563428E+03 0.32000000E+00 0.0000E+00 0.9000E+01
       -2 -1    0    0    0  501 0.00000000E+00 0.00000000E+00 -.39518474E+02 0.39519769E+02 0.32000000E+00 0.0000E+00 0.9000E+01
       25  1    1    2    0    0 0.57572352E+02 -.19397487E+02 0.43003560E+03 0.45193634E+03 0.12500000E+03 0.0000E+00 0.9000E+01
      -24  1    1    2    0    0 -.46288232E+02 0.67214915E+02 0.14157801E+03 0.18213181E+03 0.80419002E+02 0.0000E+00 0.9000E+01
       21  1    1    2  502  501 -.11284120E+02 -.47817428E+02 0.64502109E+02 0.81085895E+02 0.75000000E+00 0.0000E+00 0.9000E+01
#aMCatNLO 1  0  0  5  1 0.15934850D+02 0.00000000D+00  -5  6  0 0.00000000D+00 0.00000000D+00 0.00000000D+00 0.00000000D+00 0.00000000D+00
  <mgrwgt>
 0.4076280701D-03    1    2    0
 0.163402946231351D+03 0.000000000000000D+00 0.000000000000000D+00 0.163402946231351D+03
 0.163402946231351D+03 -.000000000000000D+00 -.000000000000000D+00 -.163402946231351D+03
 0.151930467019206D+03 0.575728998893207D+02 -.193951650922485D+02 0.613763437983462D+02
 0.122985851278637D+03 -.462877880132900D+02 0.672167953571713D+02 -.446950418179606D+02
 0.518895741648583D+02 -.112851118760306D+02 -.478216302649228D+02 -.166813019803856D+02
 0.000000000000000D+00 0.000000000000000D+00 -.000000000000000D+00 0.000000000000000D+00
 0.163402946231351D+03 0.000000000000000D+00 0.000000000000000D+00 0.163402946231351D+03
 0.163402946231351D+03 -.000000000000000D+00 -.000000000000000D+00 -.163402946231351D+03
 0.151783571061805D+03 0.572149844339629D+02 -.209118625570364D+02 0.608472842852587D+02
 0.122586533931871D+03 -.465771857396226D+02 0.659904476505456D+02 -.451228205514302D+02
 0.139803000298850D+02 -.822336704919247D+01 -.737120329497734D+01 -.857265333977608D+01
 0.384554874391396D+02 -.241443164514780D+01 -.377073817985319D+02 -.715181039405244D+01
0.485514223058D-06 0.000000000000D+00 0.000000000000D+00 0.772507160695D-05 0.000000000000D+00  6 1 -2 25 -24 21 21 4 0.10394383D+00 0.60798707D-02 0.22905824D+05 0.22905824D+05 0.22905824D+05 0.12273922D+01  1  2 14  3  6  5       21 0.407628070092D-03 0.100000000000D+01
  </mgrwgt>
  </event>
  <event>
  5     66 0.44337718E-03 0.42333858E+02 0.75467711E-02 0.10719754E+00
        1 -1    0    0  502    0 0.00000000E+00 0.00000000E+00 0.22785494E+02 0.22787741E+02 0.32000000E+00 0.0000E+00 0.9000E+01
       -2 -1    0    0    0  501 0.00000000E+00 0.00000000E+00 -.27687914E+04 0.27687914E+04 0.32000000E+00 0.0000E+00 0.9000E+01
       25  1    1    2    0    0 0.17030497E+03 -.97612570E+01 -.59094107E+03 0.62764274E+03 0.12500000E+03 0.0000E+00 0.9000E+01
      -24  1    1    2    0    0 -.12807368E+03 0.68899315E+01 -.18005183E+04 0.18068713E+04 0.80419002E+02 0.0000E+00 0.9000E+01
       21  1    1    2  502  501 -.42231285E+02 0.28713255E+01 -.35454644E+03 0.35706508E+03 0.75000000E+00 0.0000E+00 0.9000E+01
#aMCatNLO 1  0  0  1  5 0.83130636D+02 0.00000000D+00  -5  6  0 0.00000000D+00 0.00000000D+00 0.00000000D+00 0.00000000D+00 0.00000000D+00
  <mgrwgt>
 0.5651797944D-01    5    4    0
 0.251180095754325D+03 0.000000000000000D+00 0.000000000000000D+00 0.251180095754325D+03
 0.251180095754325D+03 0.000000000000000D+00 0.000000000000000D+00 -.251180095754325D+03
 0.257560298043795D+03 0.170307826499736D+03 -.976145136030528D+01 0.147011106480717D+03
 0.198640747380671D+03 -.128071478620482D+03 0.688978157637274D+01 -.128612432678083D+03
 0.461591460841840D+02 -.422363478792543D+02 0.287166978393254D+01 -.183986738026332D+02
 0.000000000000000D+00 0.000000000000000D+00 0.000000000000000D+00 0.000000000000000D+00
 0.435488605466189D+03 0.000000000000000D+00 0.000000000000000D+00 0.435488605466189D+03
 0.336459496655191D+03 0.000000000000000D+00 0.000000000000000D+00 -.336459496655191D+03
 0.220232202149654D+03 0.890935295236373D+02 -.576827567997789D+02 0.147011106480717D+03
 0.258608228676567D+03 -.205793824865964D+03 -.389710635282568D+02 -.128612432678083D+03
 0.642419782666568D+02 -.610021294599492D+02 -.820126668689089D+01 -.183986738026332D+02
 0.228865693028503D+03 0.177702424802275D+03 0.104855087014927D+03 0.990291088109984D+02
 0.251180095754325D+03 0.000000000000000D+00 0.000000000000000D+00 0.251180095754325D+03
 0.251180095754325D+03 0.000000000000000D+00 0.000000000000000D+00 -.251180095754325D+03
 0.257560298043795D+03 0.170307826499736D+03 -.976145136030528D+01 0.147011106480717D+03
 0.198640747380671D+03 -.128071478620482D+03 0.688978157637274D+01 -.128612432678083D+03
 0.000000000000000D+00 0.000000000000000D+00 0.000000000000000D+00 0.000000000000000D+00
 0.461591460841840D+02 -.422363478792543D+02 0.287166978393254D+01 -.183986738026332D+02
 0.435488605466189D+03 0.000000000000000D+00 0.000000000000000D+00 0.435488605466189D+03
 0.336459496655191D+03 0.000000000000000D+00 0.000000000000000D+00 -.336459496655191D+03
 0.220232202149654D+03 0.890935295236373D+02 -.576827567997789D+02 0.147011106480717D+03
 0.258608228676567D+03 -.205793824865964D+03 -.389710635282568D+02 -.128612432678083D+03
 0.228865693028503D+03 0.177702424802275D+03 0.104855087014927D+03 0.990291088109984D+02
 0.642419782666568D+02 -.610021294599492D+02 -.820126668689089D+01 -.183986738026332D+02
0.181187866236D-01 0.000000000000D+00 0.000000000000D+00 0.587566735550D-05 0.000000000000D+00  6 1 -2 25 -24 21 21 2 0.35056349D-02 0.42596807D+00 0.41046841D+05 0.41046841D+05 0.41046841D+05 0.12008626D+01  1  2  2  1  6  1        1 0.391487463532D-01 0.100000000000D+01
0.222773331298D-02 0.956154638995D-03 -.695809114209D-04 0.587566735550D-05 0.000000000000D+00  6 1 -2 25 -24 21 21 4 0.35056349D-02 0.42596807D+00 0.41046841D+05 0.41046841D+05 0.41046841D+05 0.12008626D+01  1  2  3  1  6  1        1 0.694126398877D-02 0.100000000000D+01
0.378953480350D-03 0.000000000000D+00 0.000000000000D+00 0.587566735550D-05 0.000000000000D+00  6 1 -2 25 -24 21 21 4 0.35056349D-02 0.42596807D+00 0.41046841D+05 0.41046841D+05 0.41046841D+05 0.12008626D+01  1  2 15  1  6  1        1 0.118075899446D-02 0.100000000000D+01
0.130674738517D-02 0.000000000000D+00 -.126560453211D-01 0.587566735550D-05 0.000000000000D+00  6 1 -2 25 -24 21 21 4 0.96059170D-02 0.42596807D+00 0.41046841D+05 0.41046841D+05 0.41046841D+05 0.12008626D+01  1  2  5  1  6  1        1 0.102035154385D-02 0.100000000000D+01
0.872348383069D-03 0.000000000000D+00 -.142689711005D-02 0.587566735550D-05 0.000000000000D+00  6 21 -2 25 -24 -1 21 4 0.96059170D-02 0.42596807D+00 0.41046841D+05 0.41046841D+05 0.41046841D+05 0.12008626D+01  3  4  5  4  5  1        1 0.822685856403D-02 0.100000000000D+01
  </mgrwgt>
  </event>
  <event>
  5     66 0.44337718E-03 0.50800064E+02 0.75467711E-02 0.10973108E+00
        1 -1    0    0  502    0 0.00000000E+00 0.00000000E+00 0.15636348E+03 0.15636381E+03 0.32000000E+00 0.0000E+00 0.9000E+01
       -2 -1    0    0    0  501 -.00000000E+00 -.00000000E+00 -.55486885E+03 0.55486894E+03 0.32000000E+00 0.0000E+00 0.9000E+01
       25  1    1    2    0    0 -.14427699E+03 -.20457036E+03 -.84048797E+02 0.29215421E+03 0.12500000E+03 0.0000E+00 0.9000E+01
      -24  1    1    2    0    0 0.96279458E+02 0.18794504E+03 -.26359235E+03 0.34719046E+03 0.80419002E+02 0.0000E+00 0.9000E+01
       21  1    1    2  502  501 0.47997532E+02 0.16625325E+02 -.50864214E+02 0.71888075E+02 0.75000000E+00 0.0000E+00 0.9000E+01
#aMCatNLO 1  0  0  5  1 0.12303093D+02 0.00000000D+00  -5  6  0 0.00000000D+00 0.00000000D+00 0.00000000D+00 0.00000000D+00 0.00000000D+00
  <mgrwgt>
 0.1116355247D+00   20    2    0
 0.294552838402855D+03 0.000000000000000D+00 0.000000000000000D+00 0.294552838402855D+03
 0.294552838402855D+03 -.000000000000000D+00 -.000000000000000D+00 -.294552838402855D+03
 0.295867004948904D+03 -.144279461504307D+03 -.204571220239315D+03 0.961578777597531D+02
 0.240855524112775D+03 0.962774463921417D+02 0.187944342880447D+03 -.833771241811207D+02
 0.523831477440324D+02 0.480020151121657D+02 0.166268773588675D+02 -.127807535786324D+02
 0.000000000000000D+00 0.000000000000000D+00 0.000000000000000D+00 0.000000000000000D+00
 0.294552838402855D+03 0.000000000000000D+00 0.000000000000000D+00 0.294552838402855D+03
 0.294552838402855D+03 -.000000000000000D+00 -.000000000000000D+00 -.294552838402855D+03
 0.292824948620901D+03 -.140525180864791D+03 -.203270817253770D+03 0.951582835634143D+02
 0.243220429018629D+03 0.993645566675177D+02 0.189013652238024D+03 -.841990812512030D+02
 0.375579909312478D+02 0.275923487410609D+02 0.201788152368328D+02 -.155589327841316D+02
 0.155023082349329D+02 0.135682754562128D+02 -.592165022108637D+01 0.459973047192025D+01
0.243248786187D-02 0.000000000000D+00 0.000000000000D+00 0.520578626076D-05 0.000000000000D+00  6 1 -2 25 -24 21 21 2 0.24055953D-01 0.85364470D-01 0.77442279D+05 0.77442279D+05 0.77442279D+05 0.11739103D+01  1  2  2  3  6  5       21 0.732757054038D-01 0.100000000000D+01
0.432745501605D-03 0.128365911125D-03 -.934139387833D-05 0.520578626076D-05 0.000000000000D+00  6 1 -2 25 -24 21 21 4 0.24055953D-01 0.85364470D-01 0.77442279D+05 0.77442279D+05 0.77442279D+05 0.11739103D+01  1  2  3  3  6  5       21 0.179643582824D-01 0.100000000000D+01
-.358060577428D-05 0.000000000000D+00 0.000000000000D+00 0.520578626076D-05 0.000000000000D+00  6 1 -2 25 -24 21 21 4 0.24055953D-01 0.85364470D-01 0.77442279D+05 0.77442279D+05 0.77442279D+05 0.11739103D+01  1  2 15  3  6  5       21 -.148639985300D-03 0.100000000000D+01
0.117495161100D-02 0.000000000000D+00 0.000000000000D+00 0.520902017917D-05 0.000000000000D+00  6 1 -2 25 -24 21 21 4 0.24055953D-01 0.85364470D-01 0.76757021D+05 0.76757021D+05 0.76757021D+05 0.11742749D+01  1  2 12  3  6  5       21 0.488371836485D-01 0.100000000000D+01
0.114413106869D-02 0.000000000000D+00 0.000000000000D+00 0.520902017917D-05 0.000000000000D+00  6 1 -2 25 -24 21 21 4 0.24055953D-01 0.85364470D-01 0.76757021D+05 0.76757021D+05 0.76757021D+05 0.11742749D+01  1  2 12  3  6  5       21 0.475561194151D-01 0.100000000000D+01
-.420363564860D-02 0.000000000000D+00 0.000000000000D+00 0.520578626076D-05 0.000000000000D+00  6 1 -2 25 -24 21 21 4 0.24055953D-01 0.85364470D-01 0.77442279D+05 0.77442279D+05 0.77442279D+05 0.11739103D+01  1  2  4  3  6  5       21 -.174503528286D+00 0.100000000000D+01
-.315871235100D-02 0.000000000000D+00 0.000000000000D+00 0.520578626076D-05 0.000000000000D+00  6 1 -2 25 -24 21 21 4 0.24055953D-01 0.85364470D-01 0.77442279D+05 0.77442279D+05 0.77442279D+05 0.11739103D+01  1  2  5  3  6  5       21 -.131126124186D+00 0.100000000000D+01
0.553361913027D-02 0.000000000000D+00 -.000000000000D+00 0.520578626076D-05 0.000000000000D+00  6 1 -2 25 -24 21 21 4 0.24055953D-01 0.85364470D-01 0.77442279D+05 0.77442279D+05 0.77442279D+05 0.11739103D+01  1  2  6  3  6  5       21 0.229714500291D+00 0.100000000000D+01
0.373942198468D-04 0.000000000000D+00 0.000000000000D+00 0.520902017917D-05 0.000000000000D+00  6 1 -2 25 -24 1 -1 4 0.24055953D-01 0.85364470D-01 0.76757021D+05 0.76757021D+05 0.76757021D+05 0.11742749D+01  1  2 12  6  6  5       21 0.155430093031D-02 0.100000000000D+01
0.366734095689D-04 0.000000000000D+00 0.000000000000D+00 0.520902017917D-05 0.000000000000D+00  6 1 -2 25 -24 1 -1 4 0.24055953D-01 0.85364470D-01 0.76757021D+05 0.76757021D+05 0.76757021D+05 0.11742749D+01  1  2 12  6  6  5       21 0.152434025484D-02 0.100000000000D+01
-.737645732148D-04 0.000000000000D+00 0.000000000000D+00 0.520578626076D-05 0.000000000000D+00  6 1 -2 25 -24 1 -1 4 0.24055953D-01 0.85364470D-01 0.77442279D+05 0.77442279D+05 0.77442279D+05 0.11739103D+01  1  2  5  6  6  5       21 -.306215366044D-02 0.100000000000D+01
0.373942198468D-04 0.000000000000D+00 0.000000000000D+00 0.520902017917D-05 0.000000000000D+00  6 1 -2 25 -24 2 -2 4 0.24055953D-01 0.85364470D-01 0.76757021D+05 0.76757021D+05 0.76757021D+05 0.11742749D+01  1  2 12  7  6  5       21 0.155430093031D-02 0.100000000000D+01
0.366734095689D-04 0.000000000000D+00 0.000000000000D+00 0.520902017917D-05 0.000000000000D+00  6 1 -2 25 -24 2 -2 4 0.24055953D-01 0.85364470D-01 0.76757021D+05 0.76757021D+05 0.76757021D+05 0.11742749D+01  1  2 12  7  6  5       21 0.152434025484D-02 0.100000000000D+01
-.737645732148D-04 0.000000000000D+00 0.000000000000D+00 0.520578626076D-05 0.000000000000D+00  6 1 -2 25 -24 2 -2 4 0.24055953D-01 0.85364470D-01 0.77442279D+05 0.77442279D+05 0.77442279D+05 0.11739103D+01  1  2  5  7  6  5       21 -.306215366044D-02 0.100000000000D+01
0.373942198468D-04 0.000000000000D+00 0.000000000000D+00 0.520902017917D-05 0.000000000000D+00  6 1 -2 25 -24 3 -3 4 0.24055953D-01 0.85364470D-01 0.76757021D+05 0.76757021D+05 0.76757021D+05 0.11742749D+01  1  2 12  8  6  5       21 0.155430093031D-02 0.100000000000D+01
0.373942198468D-04 0.000000000000D+00 0.000000000000D+00 0.520902017917D-05 0.000000000000D+00  6 1 -2 25 -24 4 -4 4 0.24055953D-01 0.85364470D-01 0.76757021D+05 0.76757021D+05 0.76757021D+05 0.11742749D+01  1  2 12  8  6  5       21 0.155430093031D-02 0.100000000000D+01
0.366734095689D-04 0.000000000000D+00 0.000000000000D+00 0.520902017917D-05 0.000000000000D+00  6 1 -2 25 -24 3 -3 4 0.24055953D-01 0.85364470D-01 0.76757021D+05 0.76757021D+05 0.76757021D+05 0.11742749D+01  1  2 12  8  6  5       21 0.152434025484D-02 0.100000000000D+01
0.366734095689D-04 0.000000000000D+00 0.000000000000D+00 0.520902017917D-05 0.000000000000D+00  6 1 -2 25 -24 4 -4 4 0.24055953D-01 0.85364470D-01 0.76757021D+05 0.76757021D+05 0.76757021D+05 0.11742749D+01  1  2 12  8  6  5       21 0.152434025484D-02 0.100000000000D+01
-.737645732148D-04 0.000000000000D+00 0.000000000000D+00 0.520578626076D-05 0.000000000000D+00  6 1 -2 25 -24 3 -3 4 0.24055953D-01 0.85364470D-01 0.77442279D+05 0.77442279D+05 0.77442279D+05 0.11739103D+01  1  2  5  8  6  5       21 -.306215366044D-02 0.100000000000D+01
-.737645732148D-04 0.000000000000D+00 0.000000000000D+00 0.520578626076D-05 0.000000000000D+00  6 1 -2 25 -24 4 -4 4 0.24055953D-01 0.85364470D-01 0.77442279D+05 0.77442279D+05 0.77442279D+05 0.11739103D+01  1  2  5  8  6  5       21 -.306215366044D-02 0.100000000000D+01
  </mgrwgt>
  </event>
  <event>
  6     66 0.44337718E-03 0.35460180E+02 0.75467711E-02 0.11939738E+00
       21 -1    0    0  502  503 0.00000000E+00 0.00000000E+00 0.47527195E+03 0.47527254E+03 0.75000000E+00 0.0000E+00 0.9000E+01
       -4 -1    0    0    0  501 0.00000000E+00 0.00000000E+00 -.25995261E+03 0.25995723E+03 0.15500000E+01 0.0000E+00 0.9000E+01
       25  1    1    2    0    0 -.86943640E+01 -.51092477E+02 -.31262418E+02 0.13888258E+03 0.12500000E+03 0.0000E+00 0.9000E+01
      -24  1    1    2    0    0 -.23941702E+02 0.87583567E+02 -.14191033E+03 0.18668113E+03 0.80419002E+02 0.0000E+00 0.9000E+01
       -3  1    1    2    0  503 0.20151076E+02 -.36521965E+02 0.39385448E+03 0.39605747E+03 0.50000000E+00 0.0000E+00 0.9000E+01
       21  1    1    2  502  501 0.12484990E+02 0.30874924E-01 -.53623877E+01 0.13608587E+02 0.75000000E+00 0.0000E+00 0.9000E+01
#aMCatNLO 2  0  0  1  5 0.16361786D+02 0.00000000D+00  -5  6  0 0.00000000D+00 0.00000000D+00 0.00000000D+00 0.00000000D+00 0.00000000D+00
  <mgrwgt>
 0.4823691716D-01    1    2    0
 0.142673696045297D+03 0.000000000000000D+00 0.000000000000000D+00 0.142673696045297D+03
 0.142673696045297D+03 0.000000000000000D+00 0.000000000000000D+00 -.142673696045297D+03
 0.151443887607127D+03 0.167151634154532D+01 -.698977451119159D+02 0.492114047244088D+02
 0.120206311590732D+03 -.151023685963189D+02 0.715487509329061D+02 -.513326026478248D+02
 0.000000000000000D+00 0.000000000000000D+00 -.000000000000000D+00 0.000000000000000D+00
 0.136971928927355D+02 0.134308522547735D+02 -.165100582099017D+01 0.212119792341596D+01
 0.853224838375428D+03 0.000000000000000D+00 0.000000000000000D+00 0.853224838375428D+03
 0.144803507442932D+03 0.000000000000000D+00 0.000000000000000D+00 -.144803507442932D+03
 0.143989086057271D+03 -.870500005977570D+01 -.510912665982946D+02 0.492114047244088D+02
 0.131707992858744D+03 -.239503752335765D+02 0.875849465380882D+02 -.513326026478248D+02
 0.709648294529502D+03 0.201510757322492D+02 -.365219653810456D+02 0.708421330932496D+03
 0.126829723728428D+02 0.125042995611030D+02 0.282854412521027D-01 0.212119792341596D+01
0.496526574586D-03 0.000000000000D+00 0.000000000000D+00 0.979160363763D-04 0.332814058412D-06  6 21 -4 25 -24 -3 21 4 0.73119118D-01 0.39993085D-01 0.24153517D+05 0.24153517D+05 0.24153517D+05 0.12249048D+01  1  2  1  4  5  1        3 0.482369171583D-01 0.100000000000D+01
  </mgrwgt>
  </event>
  <event>
  5     66 0.44337718E-03 0.21242943E+03 0.75467711E-02 0.10446583E+00
        1 -1    0    0  502    0 0.00000000E+00 0.00000000E+00 0.23956628E+03 0.23956649E+03 0.32000000E+00 0.0000E+00 0.9000E+01
       -2 -1    0    0    0  501 0.00000000E+00 0.00000000E+00 -.77403383E+03 0.77403390E+03 0.32000000E+00 0.0000E+00 0.9000E+01
       25  1    1    2    0    0 -.17034157E+03 -.20836064E+03 -.21405618E+03 0.36588995E+03 0.12500000E+03 0.0000E+00 0.9000E+01
      -24  1    1    2    0    0 0.10985186E+03 -.10802229E+03 0.24806043E+02 0.17555285E+03 0.80419002E+02 0.0000E+00 0.9000E+01
       21  1    1    2  502  501 0.60489707E+02 0.31638294E+03 -.34521742E+03 0.47215760E+03 0.75000000E+00 0.0000E+00 0.9000E+01
#aMCatNLO 1  0  0  2  5 0.23364148D+01 0.00000000D+00  -5  6  0 0.00000000D+00 0.00000000D+00 0.00000000D+00 0.00000000D+00 0.00000000D+00
  <mgrwgt>
 0.3971333038D-02   11    4    0
 0.430618796624821D+03 0.000000000000000D+00 0.000000000000000D+00 0.430618796624821D+03
 0.430618796624821D+03 0.000000000000000D+00 0.000000000000000D+00 -.430618796624821D+03
 0.297781116594602D+03 -.170341618426939D+03 -.208360908100607D+03 -.248607805088589D+02
 0.222004435360012D+03 0.109851823720405D+03 -.108022487901694D+03 0.138139322055586D+03
 0.341452041295027D+03 0.604897947065335D+02 0.316383396002301D+03 -.113278541546727D+03
 0.000000000000000D+00 0.000000000000000D+00 -.000000000000000D+00 -.000000000000000D+00
 0.430624929118561D+03 0.000000000000000D+00 0.000000000000000D+00 0.430624929118561D+03
 0.730694376616535D+03 0.000000000000000D+00 0.000000000000000D+00 -.730694376616535D+03
 0.297269654513631D+03 -.170427989509824D+03 -.207558400164347D+03 -.248607805088589D+02
 0.221681995497607D+03 0.109787423035026D+03 -.107424115629508D+03 0.138139322055586D+03
 0.342289112412647D+03 0.603905502945838D+02 0.317305515137070D+03 -.113278541546727D+03
 0.300078543311211D+03 0.250016180213635D+00 -.232299934321479D+01 -.300069447497974D+03
 0.430618796624821D+03 0.000000000000000D+00 0.000000000000000D+00 0.430618796624821D+03
 0.430618796624821D+03 0.000000000000000D+00 0.000000000000000D+00 -.430618796624821D+03
 0.297781116594602D+03 -.170341618426939D+03 -.208360908100607D+03 -.248607805088589D+02
 0.222004435360012D+03 0.109851823720405D+03 -.108022487901694D+03 0.138139322055586D+03
 0.000000000000000D+00 0.000000000000000D+00 -.000000000000000D+00 -.000000000000000D+00
 0.341452041295027D+03 0.604897947065335D+02 0.316383396002301D+03 -.113278541546727D+03
 0.430624929118561D+03 0.000000000000000D+00 0.000000000000000D+00 0.430624929118561D+03
 0.730694376616535D+03 0.000000000000000D+00 0.000000000000000D+00 -.730694376616535D+03
 0.297269654513631D+03 -.170427989509824D+03 -.207558400164347D+03 -.248607805088589D+02
 0.221681995497607D+03 0.109787423035026D+03 -.107424115629508D+03 0.138139322055586D+03
 0.300078543311211D+03 0.250016180213635D+00 -.232299934321479D+01 -.300069447497974D+03
 0.342289112412647D+03 0.603905502945838D+02 0.317305515137070D+03 -.113278541546727D+03
0.414832085618D-05 0.000000000000D+00 0.000000000000D+00 0.242679869765D-06 0.000000000000D+00  6 1 -2 25 -24 21 21 2 0.36856372D-01 0.11908215D+00 0.15707237D+06 0.15707237D+06 0.15707237D+06 0.11459761D+01  1  2  2  2  6  2       -2 0.314270800713D-04 0.100000000000D+01
-.456533968306D-06 0.218912905873D-06 -.159306443657D-07 0.242679869765D-06 0.000000000000D+00  6 1 -2 25 -24 21 21 4 0.36856372D-01 0.11908215D+00 0.15707237D+06 0.15707237D+06 0.15707237D+06 0.11459761D+01  1  2  3  2  6  2       -2 -.454209219698D-05 0.100000000000D+01
0.253949034567D-06 0.000000000000D+00 0.000000000000D+00 0.242679869765D-06 0.000000000000D+00  6 1 -2 25 -24 21 21 4 0.36856372D-01 0.11908215D+00 0.15707237D+06 0.15707237D+06 0.15707237D+06 0.11459761D+01  1  2 15  2  6  2       -2 0.252655882895D-05 0.100000000000D+01
0.131396846699D-03 0.000000000000D+00 0.000000000000D+00 0.242586551350D-06 0.000000000000D+00  6 1 -2 25 -24 21 21 4 0.36856372D-01 0.20206752D+00 0.15798454D+06 0.15798454D+06 0.15798454D+06 0.11457558D+01  1  2 12  2  6  2       -2 0.319134446838D-03 0.100000000000D+01
-.344457524340D-01 0.000000000000D+00 0.000000000000D+00 0.242679869765D-06 0.000000000000D+00  6 1 -2 25 -24 21 21 4 0.36856372D-01 0.11908215D+00 0.15707237D+06 0.15707237D+06 0.15707237D+06 0.11459761D+01  1  2  4  2  6  2       -2 -.342703488045D+00 0.100000000000D+01
-.399818049476D-01 0.000000000000D+00 -.205634054432D-05 0.242679869765D-06 0.000000000000D+00  6 1 -2 25 -24 21 21 4 0.36856372D-01 0.20206509D+00 0.15707237D+06 0.15707237D+06 0.15707237D+06 0.11459761D+01  1  2  5  2  6  2       -2 -.972039441954D-01 0.100000000000D+01
0.349781255287D-01 0.000000000000D+00 0.179893125547D-05 0.242679869765D-06 0.000000000000D+00  6 1 -2 25 -24 21 21 4 0.36856372D-01 0.11908215D+00 0.15707237D+06 0.15707237D+06 0.15707237D+06 0.11459761D+01  1  2  6  2  6  2       -2 0.348000109648D+00 0.100000000000D+01
0.393160995747D-01 0.000000000000D+00 0.000000000000D+00 0.242679869765D-06 0.175441878457D-06  6 1 -2 25 -24 21 21 4 0.36856897D-01 0.20206423D+00 0.15798454D+06 0.15798454D+06 0.15798454D+06 0.11457558D+01  1  2 11  2  6  2       -2 0.954931494451D-01 0.100000000000D+01
0.774941783551D-05 0.000000000000D+00 0.000000000000D+00 0.242586551350D-06 0.000000000000D+00  6 1 21 25 -24 2 21 4 0.36856372D-01 0.20206752D+00 0.15798454D+06 0.15798454D+06 0.15798454D+06 0.11457558D+01  3  4 12  5  5  2       -2 0.195324260553D-03 0.100000000000D+01
-.235787976225D-02 0.000000000000D+00 -.121275327606D-06 0.242679869765D-06 0.000000000000D+00  6 1 21 25 -24 2 21 4 0.36856372D-01 0.20206509D+00 0.15707237D+06 0.15707237D+06 0.15707237D+06 0.11459761D+01  3  4  5  5  5  2       -2 -.595070679772D-01 0.100000000000D+01
0.235456311617D-02 0.000000000000D+00 0.000000000000D+00 0.242679869765D-06 0.210137285562D-07  6 1 21 25 -24 2 21 4 0.36856897D-01 0.20206423D+00 0.15798454D+06 0.15798454D+06 0.15798454D+06 0.11457558D+01  3  4 11  5  5  2       -2 0.593487039084D-01 0.100000000000D+01
  </mgrwgt>
  </event>
  <event>
  5     66 -.44337718E-03 0.29460336E+02 0.75467711E-02 0.11673074E+00
        1 -1    0    0  502    0 0.00000000E+00 0.00000000E+00 0.16860742E+04 0.16860742E+04 0.32000000E+00 0.0000E+00 0.9000E+01
       -2 -1    0    0    0  501 0.00000000E+00 0.00000000E+00 -.40487848E+02 0.40489113E+02 0.32000000E+00 0.0000E+00 0.9000E+01
       25  1    1    2    0    0 0.10182555E+03 -.47935644E+02 0.23730295E+03 0.29086760E+03 0.12500000E+03 0.0000E+00 0.9000E+01
      -24  1    1    2    0    0 -.12828534E+03 0.60888416E+02 0.48072742E+03 0.50767174E+03 0.80419002E+02 0.0000E+00 0.9000E+01
       21  1    1    2  502  501 0.26459788E+02 -.12952772E+02 0.92755598E+03 0.92802400E+03 0.75000000E+00 0.0000E+00 0.9000E+01
#aMCatNLO 1  0  0  5  2 0.28866941D+01 0.00000000D+00  -5  6  0 0.00000000D+00 0.00000000D+00 0.00000000D+00 0.00000000D+00 0.00000000D+00
  <mgrwgt>
 -.1121597472D+01   25    2    0
 0.261278842750119D+03 0.000000000000000D+00 0.000000000000000D+00 0.261278842750119D+03
 0.261278842750119D+03 -.000000000000000D+00 -.000000000000000D+00 -.261278842750119D+03
 0.213754466272485D+03 0.101825406073675D+03 -.479355737351596D+02 -.131908071398407D+03
 0.163520722870624D+03 -.128285448890100D+03 0.608884701984540D+02 -.103560925893085D+02
 0.145282496357130D+03 0.264600428164250D+02 -.129528964632944D+02 0.142264163987715D+03
 0.000000000000000D+00 0.000000000000000D+00 0.000000000000000D+00 0.000000000000000D+00
 0.261278842750119D+03 0.000000000000000D+00 0.000000000000000D+00 0.261278842750119D+03
 0.261278842750119D+03 -.000000000000000D+00 -.000000000000000D+00 -.261278842750119D+03
 0.213719398671877D+03 0.101838246377189D+03 -.479418594060909D+02 -.131839034660355D+03
 0.163507889344178D+03 -.128275625724328D+03 0.608836614968933D+02 -.103032776911630D+02
 0.307079853051488D+02 0.701951930020088D+01 -.517180195170720D+01 0.294441704734173D+02
 0.114622412179035D+03 0.194178600469381D+02 -.777000013909516D+01 0.112698141878101D+03
0.325119888806D-03 0.000000000000D+00 0.000000000000D+00 0.253202797941D-04 0.000000000000D+00  6 1 -2 25 -24 21 21 2 0.25939613D+00 0.62289993D-02 0.32553681D+05 0.32553681D+05 0.32553681D+05 0.12111923D+01  1  2  2  3  6  5       21 0.319837978850D-01 0.100000000000D+01
0.602870205632D-04 0.171570478955D-04 -.124854597905D-05 0.253202797941D-04 0.000000000000D+00  6 1 -2 25 -24 21 21 4 0.25939613D+00 0.62289993D-02 0.32553681D+05 0.32553681D+05 0.32553681D+05 0.12111923D+01  1  2  3  3  6  5       21 0.870034597456D-02 0.100000000000D+01
0.885361612508D-05 0.000000000000D+00 0.000000000000D+00 0.253202797941D-04 0.000000000000D+00  6 1 -2 25 -24 21 21 4 0.25939613D+00 0.62289993D-02 0.32553681D+05 0.32553681D+05 0.32553681D+05 0.12111923D+01  1  2 15  3  6  5       21 0.127771322408D-02 0.100000000000D+01
0.248394598589D-04 0.000000000000D+00 0.000000000000D+00 0.253184653826D-04 0.000000000000D+00  6 1 -2 25 -24 21 21 4 0.25939613D+00 0.62289993D-02 0.32584985D+05 0.32584985D+05 0.32584985D+05 0.12111489D+01  1  2 12  3  6  5       21 0.358415837676D-02 0.100000000000D+01
0.267795152931D-04 0.000000000000D+00 0.000000000000D+00 0.253184653826D-04 0.000000000000D+00  6 1 -2 25 -24 21 21 4 0.25939613D+00 0.62289993D-02 0.32584985D+05 0.32584985D+05 0.32584985D+05 0.12111489D+01  1  2 12  3  6  5       21 0.386409465457D-02 0.100000000000D+01
-.271555699247D-01 0.000000000000D+00 0.000000000000D+00 0.253202797941D-04 0.000000000000D+00  6 1 -2 25 -24 21 21 4 0.25939613D+00 0.62289993D-02 0.32553681D+05 0.32553681D+05 0.32553681D+05 0.12111923D+01  1  2  4  3  6  5       21 -.391896715535D+01 0.100000000000D+01
-.425836553112D-02 0.000000000000D+00 0.000000000000D+00 0.253202797941D-04 0.000000000000D+00  6 1 -2 25 -24 21 21 4 0.25939613D+00 0.62289993D-02 0.32553681D+05 0.32553681D+05 0.32553681D+05 0.12111923D+01  1  2  5  3  6  5       21 -.614547759382D+00 0.100000000000D+01
0.204670227873D-01 0.000000000000D+00 -.000000000000D+00 0.253202797941D-04 0.000000000000D+00  6 1 -2 25 -24 21 21 4 0.25939613D+00 0.62289993D-02 0.32553681D+05 0.32553681D+05 0.32553681D+05 0.12111923D+01  1  2  6  3  6  5       21 0.295370674576D+01 0.100000000000D+01
0.338503484186D-02 0.000000000000D+00 0.000000000000D+00 0.253202797941D-04 0.155445059440D-04  6 1 -2 25 -24 21 21 4 0.25939613D+00 0.62289993D-02 0.32584985D+05 0.32584985D+05 0.32584985D+05 0.12111489D+01  1  2 11  3  6  5       21 0.488436586504D+00 0.100000000000D+01
0.451928997161D-05 0.000000000000D+00 0.000000000000D+00 0.253184653826D-04 0.000000000000D+00  6 1 -2 25 -24 1 -1 4 0.25939613D+00 0.62289993D-02 0.32584985D+05 0.32584985D+05 0.32584985D+05 0.12111489D+01  1  2 12  6  6  5       21 0.652101579534D-03 0.100000000000D+01
0.478356501715D-05 0.000000000000D+00 0.000000000000D+00 0.253184653826D-04 0.000000000000D+00  6 1 -2 25 -24 1 -1 4 0.25939613D+00 0.62289993D-02 0.32584985D+05 0.32584985D+05 0.32584985D+05 0.12111489D+01  1  2 12  6  6  5       21 0.690234599480D-03 0.100000000000D+01
-.761746870220D-03 0.000000000000D+00 0.000000000000D+00 0.253202797941D-04 0.000000000000D+00  6 1 -2 25 -24 1 -1 4 0.25939613D+00 0.62289993D-02 0.32553681D+05 0.32553681D+05 0.32553681D+05 0.12111923D+01  1  2  5  6  6  5       21 -.109931810430D+00 0.100000000000D+01
0.623795579517D-03 0.000000000000D+00 0.000000000000D+00 0.253202797941D-04 0.354974700496D-06  6 1 -2 25 -24 1 -1 4 0.25939613D+00 0.62289993D-02 0.32584985D+05 0.32584985D+05 0.32584985D+05 0.12111489D+01  1  2 11  6  6  5       21 0.900092902347D-01 0.100000000000D+01
0.451928997161D-05 0.000000000000D+00 0.000000000000D+00 0.253184653826D-04 0.000000000000D+00  6 1 -2 25 -24 2 -2 4 0.25939613D+00 0.62289993D-02 0.32584985D+05 0.32584985D+05 0.32584985D+05 0.12111489D+01  1  2 12  7  6  5       21 0.652101579534D-03 0.100000000000D+01
0.478356501715D-05 0.000000000000D+00 0.000000000000D+00 0.253184653826D-04 0.000000000000D+00  6 1 -2 25 -24 2 -2 4 0.25939613D+00 0.62289993D-02 0.32584985D+05 0.32584985D+05 0.32584985D+05 0.12111489D+01  1  2 12  7  6  5       21 0.690234599480D-03 0.100000000000D+01
-.761746870220D-03 0.000000000000D+00 0.000000000000D+00 0.253202797941D-04 0.000000000000D+00  6 1 -2 25 -24 2 -2 4 0.25939613D+00 0.62289993D-02 0.32553681D+05 0.32553681D+05 0.32553681D+05 0.12111923D+01  1  2  5  7  6  5       21 -.109931810430D+00 0.100000000000D+01
0.611504778216D-03 0.000000000000D+00 0.000000000000D+00 0.253202797941D-04 0.340869350330D-06  6 1 -2 25 -24 2 -2 4 0.25939613D+00 0.62289993D-02 0.32584985D+05 0.32584985D+05 0.32584985D+05 0.12111489D+01  1  2 11  7  6  5       21 0.882358145354D-01 0.100000000000D+01
0.451928997161D-05 0.000000000000D+00 0.000000000000D+00 0.253184653826D-04 0.000000000000D+00  6 1 -2 25 -24 3 -3 4 0.25939613D+00 0.62289993D-02 0.32584985D+05 0.32584985D+05 0.32584985D+05 0.12111489D+01  1  2 12  8  6  5       21 0.652101579534D-03 0.100000000000D+01
0.451928997161D-05 0.000000000000D+00 0.000000000000D+00 0.253184653826D-04 0.000000000000D+00  6 1 -2 25 -24 4 -4 4 0.25939613D+00 0.62289993D-02 0.32584985D+05 0.32584985D+05 0.32584985D+05 0.12111489D+01  1  2 12  8  6  5       21 0.652101579534D-03 0.100000000000D+01
0.478356501715D-05 0.000000000000D+00 0.000000000000D+00 0.253184653826D-04 0.000000000000D+00  6 1 -2 25 -24 3 -3 4 0.25939613D+00 0.62289993D-02 0.32584985D+05 0.32584985D+05 0.32584985D+05 0.12111489D+01  1  2 12  8  6  5       21 0.690234599480D-03 0.100000000000D+01
0.478356501715D-05 0.000000000000D+00 0.000000000000D+00 0.253184653826D-04 0.000000000000D+00  6 1 -2 25 -24 4 -4 4 0.25939613D+00 0.62289993D-02 0.32584985D+05 0.32584985D+05 0.32584985D+05 0.12111489D+01  1  2 12  8  6  5       21 0.690234599480D-03 0.100000000000D+01
-.761746870220D-03 0.000000000000D+00 0.000000000000D+00 0.253202797941D-04 0.000000000000D+00  6 1 -2 25 -24 3 -3 4 0.25939613D+00 0.62289993D-02 0.32553681D+05 0.32553681D+05 0.32553681D+05 0.12111923D+01  1  2  5  8  6  5       21 -.109931810430D+00 0.100000000000D+01
-.761746870220D-03 0.000000000000D+00 0.000000000000D+00 0.253202797941D-04 0.000000000000D+00  6 1 -2 25 -24 4 -4 4 0.25939613D+00 0.62289993D-02 0.32553681D+05 0.32553681D+05 0.32553681D+05 0.12111923D+01  1  2  5  8  6  5       21 -.109931810430D+00 0.100000000000D+01
0.611522669283D-03 0.000000000000D+00 0.000000000000D+00 0.253202797941D-04 0.340876374108D-06  6 1 -2 25 -24 3 -3 4 0.25939613D+00 0.62289993D-02 0.32584985D+05 0.32584985D+05 0.32584985D+05 0.12111489D+01  1  2 11  8  6  5       21 0.882383960900D-01 0.100000000000D+01
0.611522669283D-03 0.000000000000D+00 0.000000000000D+00 0.253202797941D-04 0.340876374108D-06  6 1 -2 25 -24 4 -4 4 0.25939613D+00 0.62289993D-02 0.32584985D+05 0.32584985D+05 0.32584985D+05 0.12111489D+01  1  2 11  8  6  5       21 0.882383960900D-01 0.100000000000D+01
  </mgrwgt>
  </event>
  <event>
  5     66 0.44337718E-03 0.98712209E+02 0.75467711E-02 0.10047093E+00
        1 -1    0    0  502    0 0.00000000E+00 0.00000000E+00 0.58890320E+03 0.58890329E+03 0.32000000E+00 0.0000E+00 0.9000E+01
       -2 -1    0    0    0  501 0.00000000E+00 0.00000000E+00 -.15747219E+03 0.15747252E+03 0.32000000E+00 0.0000E+00 0.9000E+01
       25  1    1    2    0    0 0.21917605E+03 0.88564288E+02 0.31194778E+03 0.41087491E+03 0.12500000E+03 0.0000E+00 0.9000E+01
      -24  1    1    2    0    0 -.15720901E+03 -.11728185E+02 -.44877285E+01 0.17702989E+03 0.80419002E+02 0.0000E+00 0.9000E+01
       21  1    1    2  502  501 -.61967038E+02 -.76836103E+02 0.12397096E+03 0.15847102E+03 0.75000000E+00 0.0000E+00 0.9000E+01
#aMCatNLO 1  0  0  1  5 0.41073621D+03 0.00000000D+00  -5  6  0 0.00000000D+00 0.00000000D+00 0.00000000D+00 0.00000000D+00 0.00000000D+00
  <mgrwgt>
 0.5969815151D-01    5    4    0
 0.304525914734426D+03 0.000000000000000D+00 0.000000000000000D+00 0.304525914734426D+03
 0.304525914734426D+03 0.000000000000000D+00 0.000000000000000D+00 -.304525914734426D+03
 0.282543382572751D+03 0.219176766810066D+03 0.885651738846731D+02 0.912333157410989D+02
 0.220123850068297D+03 -.157208457903724D+03 -.117274948791845D+02 -.130901719018166D+03
 0.106384596827804D+03 -.619683089063421D+02 -.768376790054886D+02 0.396684032770675D+02
 0.000000000000000D+00 -.000000000000000D+00 -.000000000000000D+00 0.000000000000000D+00
 0.214963881354938D+04 0.000000000000000D+00 0.000000000000000D+00 0.214963881354938D+04
 0.390967187596786D+03 0.000000000000000D+00 0.000000000000000D+00 -.390967187596786D+03
 0.474758699932453D+03 0.352533018263797D+03 0.277790885909267D+03 0.912333157410989D+02
 0.197963732489912D+03 -.835857991558769D+02 0.927392989219199D+02 -.130901719018166D+03
 0.618851955263536D+02 -.323370306362287D+02 -.347924080283985D+02 0.396684032770675D+02
 0.180599837319745D+04 -.236610188471692D+03 -.335737776802788D+03 0.175867162595259D+04
 0.304525914734426D+03 0.000000000000000D+00 0.000000000000000D+00 0.304525914734426D+03
 0.304525914734426D+03 0.000000000000000D+00 0.000000000000000D+00 -.304525914734426D+03
 0.282543382572751D+03 0.219176766810066D+03 0.885651738846731D+02 0.912333157410989D+02
 0.220123850068297D+03 -.157208457903724D+03 -.117274948791845D+02 -.130901719018166D+03
 0.000000000000000D+00 -.000000000000000D+00 -.000000000000000D+00 0.000000000000000D+00
 0.106384596827804D+03 -.619683089063421D+02 -.768376790054886D+02 0.396684032770675D+02
 0.214963881354938D+04 0.000000000000000D+00 0.000000000000000D+00 0.214963881354938D+04
 0.390967187596786D+03 0.000000000000000D+00 0.000000000000000D+00 -.390967187596786D+03
 0.474758699932453D+03 0.352533018263797D+03 0.277790885909267D+03 0.912333157410989D+02
 0.197963732489912D+03 -.835857991558769D+02 0.927392989219199D+02 -.130901719018166D+03
 0.180599837319745D+04 -.236610188471692D+03 -.335737776802788D+03 0.175867162595259D+04
 0.618851955263536D+02 -.323370306362287D+02 -.347924080283985D+02 0.396684032770675D+02
0.876696161430D-03 0.000000000000D+00 0.000000000000D+00 0.132301994168D-05 0.000000000000D+00  6 1 -2 25 -24 21 21 2 0.90600525D-01 0.24226523D-01 0.73737515D+05 0.73737515D+05 0.73737515D+05 0.11759254D+01  1  2  2  1  6  1        1 0.580871375149D-01 0.100000000000D+01
-.221985921343D-05 0.462645274848D-04 -.336674409929D-05 0.132301994168D-05 0.000000000000D+00  6 1 -2 25 -24 21 21 4 0.90600525D-01 0.24226523D-01 0.73737515D+05 0.73737515D+05 0.73737515D+05 0.11759254D+01  1  2  3  1  6  1        1 -.203383561929D-03 0.100000000000D+01
0.281099228463D-04 0.000000000000D+00 0.000000000000D+00 0.132301994168D-05 0.000000000000D+00  6 1 -2 25 -24 21 21 4 0.90600525D-01 0.24226523D-01 0.73737515D+05 0.73737515D+05 0.73737515D+05 0.11759254D+01  1  2 15  1  6  1        1 0.257543190101D-02 0.100000000000D+01
-.393005512854D-02 0.000000000000D+00 -.978836702276D-03 0.132301994168D-05 0.000000000000D+00  6 1 -2 25 -24 21 21 4 0.65627639D+00 0.24226523D-01 0.73737515D+05 0.73737515D+05 0.73737515D+05 0.11759254D+01  1  2  5  1  6  1        1 -.735606391780D-03 0.100000000000D+01
-.104848545432D-02 0.000000000000D+00 -.236583893603D-03 0.132301994168D-05 0.000000000000D+00  6 21 -2 25 -24 -1 21 4 0.65627639D+00 0.24226523D-01 0.73737515D+05 0.73737515D+05 0.73737515D+05 0.11759254D+01  3  4  5  4  5  1        1 -.254279559920D-04 0.100000000000D+01
  </mgrwgt>
  </event>
  <event>
  5     66 0.44337718E-03 0.40387172E+02 0.75467711E-02 0.12152875E+00
        3 -1    0    0  502    0 0.00000000E+00 0.00000000E+00 0.87308856E+03 0.87308870E+03 0.50000000E+00 0.0000E+00 0.9000E+01
       -4 -1    0    0    0  501 0.00000000E+00 0.00000000E+00 -.46507942E+02 0.46533763E+02 0.15500000E+01 0.0000E+00 0.9000E+01
       25  1    1    2    0    0 -.29086419E+02 -.15746240E+02 0.15632905E+03 0.20287369E+03 0.12500000E+03 0.0000E+00 0.9000E+01
      -24  1    1    2    0    0 0.39079687E+02 0.54877106E+02 0.99565038E+02 0.14463448E+03 0.80419002E+02 0.0000E+00 0.9000E+01
       21  1    1    2  502  501 -.99932682E+01 -.39130867E+02 0.57068653E+03 0.57211430E+03 0.75000000E+00 0.0000E+00 0.9000E+01
#aMCatNLO 1  0  0  5  2 0.12844170D+02 0.00000000D+00  -5  6  0 0.00000000D+00 0.00000000D+00 0.00000000D+00 0.00000000D+00 0.00000000D+00
  <mgrwgt>
 0.2210036418D-02   15    2    0
 0.201537813830957D+03 0.000000000000000D+00 0.000000000000000D+00 0.201537813830957D+03
 0.201537813830957D+03 -.000000000000000D+00 -.000000000000000D+00 -.201537813830957D+03
 0.142277885668002D+03 -.290863644994050D+02 -.157460263215027D+02 -.593636488555693D+02
 0.125809540265568D+03 0.390797353354236D+02 0.548772947409017D+02 -.694412073303484D+02
 0.134988201728344D+03 -.999337083601864D+01 -.391312684193990D+02 0.128804856185918D+03
 0.000000000000000D+00 0.000000000000000D+00 -.000000000000000D+00 0.000000000000000D+00
 0.201537813830957D+03 0.000000000000000D+00 0.000000000000000D+00 0.201537813830957D+03
 0.201537813830957D+03 -.000000000000000D+00 -.000000000000000D+00 -.201537813830957D+03
 0.141975688507274D+03 -.291506098894285D+02 -.159975934496492D+02 -.585355880982558D+02
 0.125292502463615D+03 0.390229826676071D+02 0.546550670347265D+02 -.687097204941017D+02
 0.698041308850273D+02 -.950137899464904D+01 -.826035590868692D+01 0.686593548329423D+02
 0.660033058059978D+02 -.370993783529507D+00 -.303971176763903D+02 0.585859537594151D+02
0.409942521610D-04 0.000000000000D+00 0.000000000000D+00 0.232246761069D-04 0.000000000000D+00  6 3 -4 25 -24 21 21 2 0.13432331D+00 0.71570652D-02 0.18851051D+05 0.18851051D+05 0.18851051D+05 0.12366648D+01  1  2  2  3  6  5       21 0.751519084899D-03 0.100000000000D+01
0.261868120960D-05 0.216332612057D-05 -.157428722333D-06 0.232246761069D-04 0.000000000000D+00  6 3 -4 25 -24 21 21 4 0.13432331D+00 0.71570652D-02 0.18851051D+05 0.18851051D+05 0.18851051D+05 0.12366648D+01  1  2  3  3  6  5       21 0.734181959979D-04 0.100000000000D+01
0.137511120167D-05 0.000000000000D+00 0.000000000000D+00 0.232246761069D-04 0.000000000000D+00  6 3 -4 25 -24 21 21 4 0.13432331D+00 0.71570652D-02 0.18851051D+05 0.18851051D+05 0.18851051D+05 0.12366648D+01  1  2 15  3  6  5       21 0.385530637916D-04 0.100000000000D+01
0.122867112331D-03 0.000000000000D+00 0.000000000000D+00 0.231918047662D-04 0.000000000000D+00  6 3 -4 25 -24 21 21 4 0.13432331D+00 0.71570652D-02 0.19197300D+05 0.19197300D+05 0.19197300D+05 0.12357894D+01  1  2 12  3  6  5       21 0.343907014809D-02 0.100000000000D+01
-.234705837065D-03 0.000000000000D+00 0.000000000000D+00 0.232246761069D-04 0.000000000000D+00  6 3 -4 25 -24 21 21 4 0.13432331D+00 0.71570652D-02 0.18851051D+05 0.18851051D+05 0.18851051D+05 0.12366648D+01  1  2  4  3  6  5       21 -.658028899598D-02 0.100000000000D+01
-.243920013346D-03 0.000000000000D+00 0.000000000000D+00 0.232246761069D-04 0.000000000000D+00  6 3 -4 25 -24 21 21 4 0.13432331D+00 0.71570652D-02 0.18851051D+05 0.18851051D+05 0.18851051D+05 0.12366648D+01  1  2  5  3  6  5       21 -.683862063164D-02 0.100000000000D+01
0.413172469403D-03 0.000000000000D+00 -.000000000000D+00 0.232246761069D-04 0.000000000000D+00  6 3 -4 25 -24 21 21 4 0.13432331D+00 0.71570652D-02 0.18851051D+05 0.18851051D+05 0.18851051D+05 0.12366648D+01  1  2  6  3  6  5       21 0.115838374020D-01 0.100000000000D+01
0.415182122203D-05 0.000000000000D+00 0.000000000000D+00 0.231918047662D-04 0.000000000000D+00  6 3 -4 25 -24 3 -3 4 0.13432331D+00 0.71570652D-02 0.19197300D+05 0.19197300D+05 0.19197300D+05 0.12357894D+01  1  2 12  6  6  5       21 0.116210140810D-03 0.100000000000D+01
-.644068388795D-05 0.000000000000D+00 0.000000000000D+00 0.232246761069D-04 0.000000000000D+00  6 3 -4 25 -24 3 -3 4 0.13432331D+00 0.71570652D-02 0.18851051D+05 0.18851051D+05 0.18851051D+05 0.12366648D+01  1  2  5  6  6  5       21 -.180573103100D-03 0.100000000000D+01
0.415182122203D-05 0.000000000000D+00 0.000000000000D+00 0.231918047662D-04 0.000000000000D+00  6 3 -4 25 -24 4 -4 4 0.13432331D+00 0.71570652D-02 0.19197300D+05 0.19197300D+05 0.19197300D+05 0.12357894D+01  1  2 12  7  6  5       21 0.116210140810D-03 0.100000000000D+01
-.644068388795D-05 0.000000000000D+00 0.000000000000D+00 0.232246761069D-04 0.000000000000D+00  6 3 -4 25 -24 4 -4 4 0.13432331D+00 0.71570652D-02 0.18851051D+05 0.18851051D+05 0.18851051D+05 0.12366648D+01  1  2  5  7  6  5       21 -.180573103100D-03 0.100000000000D+01
0.415182122203D-05 0.000000000000D+00 0.000000000000D+00 0.231918047662D-04 0.000000000000D+00  6 3 -4 25 -24 1 -1 4 0.13432331D+00 0.71570652D-02 0.19197300D+05 0.19197300D+05 0.19197300D+05 0.12357894D+01  1  2 12  8  6  5       21 0.116210140810D-03 0.100000000000D+01
0.415182122203D-05 0.000000000000D+00 0.000000000000D+00 0.231918047662D-04 0.000000000000D+00  6 3 -4 25 -24 2 -2 4 0.13432331D+00 0.71570652D-02 0.19197300D+05 0.19197300D+05 0.19197300D+05 0.12357894D+01  1  2 12  8  6  5       21 0.116210140810D-03 0.100000000000D+01
-.644068388795D-05 0.000000000000D+00 0.000000000000D+00 0.232246761069D-04 0.000000000000D+00  6 3 -4 25 -24 1 -1 4 0.13432331D+00 0.71570652D-02 0.18851051D+05 0.18851051D+05 0.18851051D+05 0.12366648D+01  1  2  5  8  6  5       21 -.180573103100D-03 0.100000000000D+01
-.644068388795D-05 0.000000000000D+00 0.000000000000D+00 0.232246761069D-04 0.000000000000D+00  6 3 -4 25 -24 2 -2 4 0.13432331D+00 0.71570652D-02 0.18851051D+05 0.18851051D+05 0.18851051D+05 0.12366648D+01  1  2  5  8  6  5       21 -.180573103100D-03 0.100000000000D+01
  </mgrwgt>
  </event>
  <event>
  6     66 -.44337718E-03 0.24310269E+02 0.75467711E-02 0.11690611E+00
        1 -1    0    0  502    0 0.00000000E+00 0.00000000E+00 0.50817266E+03 0.50817276E+03 0.32000000E+00 0.0000E+00 0.9000E+01
       -2 -1    0    0    0  501 0.00000000E+00 0.00000000E+00 -.72735695E+02 0.72736398E+02 0.32000000E+00 0.0000E+00 0.9000E+01
       25  1    1    2    0    0 0.85393263E+02 -.95403550E+02 0.16049244E+03 0.24036778E+03 0.12500000E+03 0.0000E+00 0.9000E+01
      -24  1    1    2    0    0 -.54321019E+02 0.10579986E+03 0.26667642E+03 0.30286617E+03 0.80419002E+02 0.0000E+00 0.9000E+01
       21  1    1    2  503  501 -.13149188E+02 -.13128170E+02 0.47259096E+01 0.19187150E+02 0.75000000E+00 0.0000E+00 0.9000E+01
       21  1    1    2  502  503 -.17923055E+02 0.27318583E+01 0.35421986E+01 0.18488067E+02 0.75000000E+00 0.0000E+00 0.9000E+01
#aMCatNLO 2  0  0  5  2 0.82603308D+01 0.00000000D+00  -5  6  0 0.00000000D+00 0.00000000D+00 0.00000000D+00 0.00000000D+00 0.00000000D+00
  <mgrwgt>
 -.1909570404D+00    2    2    0
 0.192256405234953D+03 0.000000000000000D+00 0.000000000000000D+00 0.192256405234953D+03
 0.192256405234953D+03 -.000000000000000D+00 -.000000000000000D+00 -.192256405234953D+03
 0.181532489459000D+03 0.863890885190456D+02 -.950703617715920D+02 -.287679757134413D+02
 0.155785813534838D+03 -.534667049716357D+02 0.106085702868111D+03 0.607382815923838D+02
 0.471945074760674D+02 -.329223835474099D+02 -.110153410965192D+02 -.319703058789426D+02
 0.000000000000000D+00 0.000000000000000D+00 0.000000000000000D+00 -.000000000000000D+00
 0.192256405234953D+03 0.000000000000000D+00 0.000000000000000D+00 0.192256405234953D+03
 0.192256405234953D+03 -.000000000000000D+00 -.000000000000000D+00 -.192256405234953D+03
 0.181394030781746D+03 0.854090516080142D+02 -.953982675821371D+02 -.297196710781833D+02
 0.155568995606949D+03 -.543074790357181D+02 0.105804392340043D+03 0.599218217523760D+02
 0.230554741999912D+02 -.127440429763575D+02 -.129560797974122D+02 -.141874682549882D+02
 0.244943098812203D+02 -.183575295959387D+02 0.254995503950588D+01 -.160146824192045D+02
-.212843650420D-03 0.000000000000D+00 0.000000000000D+00 0.142956429035D-04 0.000000000000D+00  6 1 -2 25 -24 21 21 4 0.78180472D-01 0.11190169D-01 0.32258959D+05 0.32258959D+05 0.32258959D+05 0.12116032D+01  1  2 13  3  6  5       21 -.973912018103D-01 0.100000000000D+01
-.204483508535D-03 0.000000000000D+00 0.000000000000D+00 0.142956429035D-04 0.000000000000D+00  6 1 -2 25 -24 21 21 4 0.78180472D-01 0.11190169D-01 0.32258959D+05 0.32258959D+05 0.32258959D+05 0.12116032D+01  1  2 13  3  6  5       21 -.935658386201D-01 0.100000000000D+01
  </mgrwgt>
  </event>
  <event>
  5     66 -.44337718E-03 0.33676456E+02 0.75467711E-02 0.12251065E+00
        1 -1    0    0  502    0 0.00000000E+00 0.00000000E+00 0.34419869E+04 0.34419869E+04 0.32000000E+00 0.0000E+00 0.9000E+01
       -2 -1    0    0    0  501 0.00000000E+00 0.00000000E+00 -.87272538E+01 0.87331185E+01 0.32000000E+00 0.0000E+00 0.9000E+01
       25  1    1    2    0    0 0.40980276E+02 0.40562263E+02 0.24517403E+04 0.24556018E+04 0.12500000E+03 0.0000E+00 0.9000E+01
      -24  1    1    2    0    0 -.14509755E+02 -.19744720E+02 0.92853616E+03 0.93233417E+03 0.80419002E+02 0.0000E+00 0.9000E+01
       21  1    1    2  502  501 -.26470520E+02 -.20817543E+02 0.52983176E+02 0.62784058E+02 0.75000000E+00 0.0000E+00 0.9000E+01
#aMCatNLO 1  0  0  2  5 0.86660150D+01 0.00000000D+00  -5  6  0 0.00000000D+00 0.00000000D+00 0.00000000D+00 0.00000000D+00 0.00000000D+00
  <mgrwgt>
 -.1196029232D+00   11    4    0
 0.173347158693933D+03 0.000000000000000D+00 0.000000000000000D+00 0.173347158693933D+03
 0.173347158693933D+03 0.000000000000000D+00 0.000000000000000D+00 -.173347158693933D+03
 0.161910800387768D+03 0.409806217441329D+02 0.405625351178354D+02 0.852371789097128D+02
 0.845657635749066D+02 -.145095744608121D+02 -.197445781165539D+02 0.915293934219575D+01
 0.100217753425191D+03 -.264710472833208D+02 -.208179570012815D+02 -.943901182519086D+02
 0.000000000000000D+00 -.000000000000000D+00 -.000000000000000D+00 -.000000000000000D+00
 0.173873783042607D+03 0.000000000000000D+00 0.000000000000000D+00 0.173873783042607D+03
 0.213138456115610D+03 0.000000000000000D+00 0.000000000000000D+00 -.213138456115610D+03
 0.163117970143020D+03 0.415922310246066D+02 0.445778177290967D+02 0.852371789097128D+02
 0.840496536626175D+02 -.141922894591028D+02 -.176615669673601D+02 0.915293934219575D+01
 0.996349850726115D+02 -.260949827601903D+02 -.183490517890053D+02 -.943901182519086D+02
 0.402096302799677D+02 -.130495880531352D+01 -.856719897273118D+01 -.392646730730024D+02
 0.173347158693933D+03 0.000000000000000D+00 0.000000000000000D+00 0.173347158693933D+03
 0.173347158693933D+03 0.000000000000000D+00 0.000000000000000D+00 -.173347158693933D+03
 0.161910800387768D+03 0.409806217441329D+02 0.405625351178354D+02 0.852371789097128D+02
 0.845657635749066D+02 -.145095744608121D+02 -.197445781165539D+02 0.915293934219575D+01
 0.000000000000000D+00 -.000000000000000D+00 -.000000000000000D+00 -.000000000000000D+00
 0.100217753425191D+03 -.264710472833208D+02 -.208179570012815D+02 -.943901182519086D+02
 0.173873783042607D+03 0.000000000000000D+00 0.000000000000000D+00 0.173873783042607D+03
 0.213138456115610D+03 0.000000000000000D+00 0.000000000000000D+00 -.213138456115610D+03
 0.163117970143020D+03 0.415922310246066D+02 0.445778177290967D+02 0.852371789097128D+02
 0.840496536626175D+02 -.141922894591028D+02 -.176615669673601D+02 0.915293934219575D+01
 0.402096302799677D+02 -.130495880531352D+01 -.856719897273118D+01 -.392646730730024D+02
 0.996349850726115D+02 -.260949827601903D+02 -.183490517890053D+02 -.943901182519086D+02
0.798506368414D-04 0.000000000000D+00 0.000000000000D+00 0.277902406273D-04 0.000000000000D+00  6 1 -2 25 -24 21 21 2 0.52953689D+00 0.13431067D-02 0.16307730D+05 0.16307730D+05 0.16307730D+05 0.12437052D+01  1  2  2  2  6  2       -2 0.542468450068D-02 0.100000000000D+01
0.532302566794D-05 0.421383387467D-05 -.306647470626D-06 0.277902406273D-04 0.000000000000D+00  6 1 -2 25 -24 21 21 4 0.52953689D+00 0.13431067D-02 0.16307730D+05 0.16307730D+05 0.16307730D+05 0.12437052D+01  1  2  3  2  6  2       -2 0.559357584202D-03 0.100000000000D+01
0.462305558031D-05 0.000000000000D+00 0.000000000000D+00 0.277902406273D-04 0.000000000000D+00  6 1 -2 25 -24 21 21 4 0.52953689D+00 0.13431067D-02 0.16307730D+05 0.16307730D+05 0.16307730D+05 0.12437052D+01  1  2 15  2  6  2       -2 0.485802880232D-03 0.100000000000D+01
0.207034978299D-02 0.000000000000D+00 0.000000000000D+00 0.276592979088D-04 0.000000000000D+00  6 1 -2 25 -24 21 21 4 0.52953689D+00 0.17753971D-02 0.17317517D+05 0.17317517D+05 0.17317517D+05 0.12407716D+01  1  2 12  2  6  2       -2 0.143907396432D+00 0.100000000000D+01
-.293306735590D-02 0.000000000000D+00 0.000000000000D+00 0.277902406273D-04 0.000000000000D+00  6 1 -2 25 -24 21 21 4 0.52953689D+00 0.13431067D-02 0.16307730D+05 0.16307730D+05 0.16307730D+05 0.12437052D+01  1  2  4  2  6  2       -2 -.308214457875D+00 0.100000000000D+01
-.317409178302D-02 0.000000000000D+00 -.867480177724D-04 0.277902406273D-04 0.000000000000D+00  6 1 -2 25 -24 21 21 4 0.52953689D+00 0.16581163D-02 0.16307730D+05 0.16307730D+05 0.16307730D+05 0.12437052D+01  1  2  5  2  6  2       -2 -.246279383930D+00 0.100000000000D+01
0.312464641545D-02 0.000000000000D+00 0.848574932009D-04 0.277902406273D-04 0.000000000000D+00  6 1 -2 25 -24 21 21 4 0.52953689D+00 0.13431067D-02 0.16307730D+05 0.16307730D+05 0.16307730D+05 0.12437052D+01  1  2  6  2  6  2       -2 0.328346091013D+00 0.100000000000D+01
0.160900047945D-05 0.000000000000D+00 0.000000000000D+00 0.277902406273D-04 0.410272919573D-05  6 1 -2 25 -24 21 21 4 0.53114561D+00 0.16514126D-02 0.17317517D+05 0.17317517D+05 0.17317517D+05 0.12407716D+01  1  2 11  2  6  2       -2 0.121994507416D-03 0.100000000000D+01
0.759375046931D-04 0.000000000000D+00 0.000000000000D+00 0.276592979088D-04 0.000000000000D+00  6 1 21 25 -24 2 21 4 0.52953689D+00 0.17753971D-02 0.17317517D+05 0.17317517D+05 0.17317517D+05 0.12407716D+01  3  4 12  5  5  2       -2 0.112924107296D+00 0.100000000000D+01
-.934251221209D-04 0.000000000000D+00 -.258316178081D-05 0.277902406273D-04 0.000000000000D+00  6 1 21 25 -24 2 21 4 0.52953689D+00 0.16581163D-02 0.16307730D+05 0.16307730D+05 0.16307730D+05 0.12437052D+01  3  4  5  5  5  2       -2 -.156923301210D+00 0.100000000000D+01
0.272917837720D-07 0.000000000000D+00 0.000000000000D+00 0.277902406273D-04 0.139112462123D-06  6 1 21 25 -24 2 21 4 0.53114561D+00 0.16514126D-02 0.17317517D+05 0.17317517D+05 0.17317517D+05 0.12407716D+01  3  4 11  5  5  2       -2 0.447856007107D-04 0.100000000000D+01
  </mgrwgt>
  </event>
  <event>
  5     66 0.44337718E-03 0.26580843E+02 0.75467711E-02 0.12439052E+00
        1 -1    0    0  502    0 0.00000000E+00 0.00000000E+00 0.85708092E+02 0.85708690E+02 0.32000000E+00 0.0000E+00 0.9000E+01
       -2 -1    0    0    0  501 -.00000000E+00 -.00000000E+00 -.18682879E+03 0.18682907E+03 0.32000000E+00 0.0000E+00 0.9000E+01
       25  1    1    2    0    0 -.15780514E+00 -.17900292E+02 -.16122228E+02 0.12730032E+03 0.12500000E+03 0.0000E+00 0.9000E+01
      -24  1    1    2    0    0 0.25551958E+02 0.10062428E+02 -.42266148E+02 0.94909421E+02 0.80419002E+02 0.0000E+00 0.9000E+01
       21  1    1    2  502  501 -.25394153E+02 0.78378636E+01 -.42732326E+02 0.50328017E+02 0.75000000E+00 0.0000E+00 0.9000E+01
#aMCatNLO 1  0  0  5  2 0.31247995D+01 0.00000000D+00  -5  6  0 0.00000000D+00 0.00000000D+00 0.00000000D+00 0.00000000D+00 0.00000000D+00
  <mgrwgt>
 0.7253685945D+00   25    2    0
 0.126541923282247D+03 0.000000000000000D+00 0.000000000000000D+00 0.126541923282247D+03
 0.126541923282247D+03 -.000000000000000D+00 -.000000000000000D+00 -.126541923282247D+03
 0.130644679415746D+03 -.155128985121852D+00 -.179011177011605D+02 0.335045993811346D+02
 0.853175531995396D+02 0.255537053325040D+02 0.100618887317759D+02 -.759180271837035D+01
 0.371216139492076D+02 -.253985763473822D+02 0.783922896938455D+01 -.259127966627643D+02
 0.000000000000000D+00 0.000000000000000D+00 0.000000000000000D+00 0.000000000000000D+00
 0.126541923282247D+03 0.000000000000000D+00 0.000000000000000D+00 0.126541923282247D+03
 0.126541923282247D+03 -.000000000000000D+00 -.000000000000000D+00 -.126541923282247D+03
 0.130431389942481D+03 -.872970868703164D+00 -.176795569801090D+02 0.327722240499017D+02
 0.852394564450391D+02 0.250847501909538D+02 0.102066309677462D+02 -.807025233935476D+01
 0.353554871801655D+01 -.623718049153399D-02 -.194573704415618D+01 -.295197784375942D+01
 0.338774514589572D+02 -.242055421417591D+02 0.941866305651891D+01 -.217499938667875D+02
0.923607184672D-03 0.000000000000D+00 0.000000000000D+00 0.376227738293D-04 0.000000000000D+00  6 1 -2 25 -24 21 21 2 0.13185927D-01 0.28742959D-01 0.14141413D+05 0.14141413D+05 0.14141413D+05 0.12507514D+01  1  2  2  3  6  5       21 0.586761632462D+00 0.100000000000D+01
0.840804717744D-04 0.487400901935D-04 -.354689478050D-05 0.376227738293D-04 0.000000000000D+00  6 1 -2 25 -24 21 21 4 0.13185927D-01 0.28742959D-01 0.14141413D+05 0.14141413D+05 0.14141413D+05 0.12507514D+01  1  2  3  3  6  5       21 0.835625205637D-01 0.100000000000D+01
0.468285277907D-04 0.000000000000D+00 0.000000000000D+00 0.376227738293D-04 0.000000000000D+00  6 1 -2 25 -24 21 21 4 0.13185927D-01 0.28742959D-01 0.14141413D+05 0.14141413D+05 0.14141413D+05 0.12507514D+01  1  2 15  3  6  5       21 0.465400554243D-01 0.100000000000D+01
0.685124823053D-06 0.000000000000D+00 0.000000000000D+00 0.375929128015D-04 0.000000000000D+00  6 1 -2 25 -24 21 21 4 0.13185927D-01 0.28742959D-01 0.14282980D+05 0.14282980D+05 0.14282980D+05 0.12502549D+01  1  2 12  3  6  5       21 0.680056690712D-03 0.100000000000D+01
0.516153702554D-06 0.000000000000D+00 0.000000000000D+00 0.375929128015D-04 0.000000000000D+00  6 1 -2 25 -24 21 21 4 0.13185927D-01 0.28742959D-01 0.14282980D+05 0.14282980D+05 0.14282980D+05 0.12502549D+01  1  2 12  3  6  5       21 0.512335514708D-03 0.100000000000D+01
-.879525703029D-03 0.000000000000D+00 0.000000000000D+00 0.376227738293D-04 0.000000000000D+00  6 1 -2 25 -24 21 21 4 0.13185927D-01 0.28742959D-01 0.14141413D+05 0.14141413D+05 0.14141413D+05 0.12507514D+01  1  2  4  3  6  5       21 -.874107662512D+00 0.100000000000D+01
-.411438625957D-04 0.000000000000D+00 0.000000000000D+00 0.376227738293D-04 0.000000000000D+00  6 1 -2 25 -24 21 21 4 0.13185927D-01 0.28742959D-01 0.14141413D+05 0.14141413D+05 0.14141413D+05 0.12507514D+01  1  2  5  3  6  5       21 -.408904088151D-01 0.100000000000D+01
0.863109705000D-03 0.000000000000D+00 -.000000000000D+00 0.376227738293D-04 0.000000000000D+00  6 1 -2 25 -24 21 21 4 0.13185927D-01 0.28742959D-01 0.14141413D+05 0.14141413D+05 0.14141413D+05 0.12507514D+01  1  2  6  3  6  5       21 0.857792790058D+00 0.100000000000D+01
0.309838730050D-04 0.000000000000D+00 0.000000000000D+00 0.376227738293D-04 0.302270307477D-04  6 1 -2 25 -24 21 21 4 0.13185927D-01 0.28742959D-01 0.14282980D+05 0.14282980D+05 0.14282980D+05 0.12502549D+01  1  2 11  3  6  5       21 0.307546733562D-01 0.100000000000D+01
0.447748794381D-06 0.000000000000D+00 0.000000000000D+00 0.375929128015D-04 0.000000000000D+00  6 1 -2 25 -24 1 -1 4 0.13185927D-01 0.28742959D-01 0.14282980D+05 0.14282980D+05 0.14282980D+05 0.12502549D+01  1  2 12  6  6  5       21 0.444436624002D-03 0.100000000000D+01
0.412185276745D-06 0.000000000000D+00 0.000000000000D+00 0.375929128015D-04 0.000000000000D+00  6 1 -2 25 -24 1 -1 4 0.13185927D-01 0.28742959D-01 0.14282980D+05 0.14282980D+05 0.14282980D+05 0.12502549D+01  1  2 12  6  6  5       21 0.409136183411D-03 0.100000000000D+01
-.351922943099D-04 0.000000000000D+00 0.000000000000D+00 0.376227738293D-04 0.000000000000D+00  6 1 -2 25 -24 1 -1 4 0.13185927D-01 0.28742959D-01 0.14141413D+05 0.14141413D+05 0.14141413D+05 0.12507514D+01  1  2  5  6  6  5       21 -.349755032875D-01 0.100000000000D+01
0.428225461774D-04 0.000000000000D+00 0.000000000000D+00 0.376227738293D-04 0.371842473271D-06  6 1 -2 25 -24 1 -1 4 0.13185927D-01 0.28742959D-01 0.14282980D+05 0.14282980D+05 0.14282980D+05 0.12502549D+01  1  2 11  6  6  5       21 0.425057713009D-01 0.100000000000D+01
0.447748794381D-06 0.000000000000D+00 0.000000000000D+00 0.375929128015D-04 0.000000000000D+00  6 1 -2 25 -24 2 -2 4 0.13185927D-01 0.28742959D-01 0.14282980D+05 0.14282980D+05 0.14282980D+05 0.12502549D+01  1  2 12  7  6  5       21 0.444436624002D-03 0.100000000000D+01
0.412185276745D-06 0.000000000000D+00 0.000000000000D+00 0.375929128015D-04 0.000000000000D+00  6 1 -2 25 -24 2 -2 4 0.13185927D-01 0.28742959D-01 0.14282980D+05 0.14282980D+05 0.14282980D+05 0.12502549D+01  1  2 12  7  6  5       21 0.409136183411D-03 0.100000000000D+01
-.351922943099D-04 0.000000000000D+00 0.000000000000D+00 0.376227738293D-04 0.000000000000D+00  6 1 -2 25 -24 2 -2 4 0.13185927D-01 0.28742959D-01 0.14141413D+05 0.14141413D+05 0.14141413D+05 0.12507514D+01  1  2  5  7  6  5       21 -.349755032875D-01 0.100000000000D+01
0.429480450038D-04 0.000000000000D+00 0.000000000000D+00 0.376227738293D-04 0.366980338498D-06  6 1 -2 25 -24 2 -2 4 0.13185927D-01 0.28742959D-01 0.14282980D+05 0.14282980D+05 0.14282980D+05 0.12502549D+01  1  2 11  7  6  5       21 0.426303417641D-01 0.100000000000D+01
0.447748794381D-06 0.000000000000D+00 0.000000000000D+00 0.375929128015D-04 0.000000000000D+00  6 1 -2 25 -24 3 -3 4 0.13185927D-01 0.28742959D-01 0.14282980D+05 0.14282980D+05 0.14282980D+05 0.12502549D+01  1  2 12  8  6  5       21 0.444436624002D-03 0.100000000000D+01
0.447748794381D-06 0.000000000000D+00 0.000000000000D+00 0.375929128015D-04 0.000000000000D+00  6 1 -2 25 -24 4 -4 4 0.13185927D-01 0.28742959D-01 0.14282980D+05 0.14282980D+05 0.14282980D+05 0.12502549D+01  1  2 12  8  6  5       21 0.444436624002D-03 0.100000000000D+01
0.412185276745D-06 0.000000000000D+00 0.000000000000D+00 0.375929128015D-04 0.000000000000D+00  6 1 -2 25 -24 3 -3 4 0.13185927D-01 0.28742959D-01 0.14282980D+05 0.14282980D+05 0.14282980D+05 0.12502549D+01  1  2 12  8  6  5       21 0.409136183411D-03 0.100000000000D+01
0.412185276745D-06 0.000000000000D+00 0.000000000000D+00 0.375929128015D-04 0.000000000000D+00  6 1 -2 25 -24 4 -4 4 0.13185927D-01 0.28742959D-01 0.14282980D+05 0.14282980D+05 0.14282980D+05 0.12502549D+01  1  2 12  8  6  5       21 0.409136183411D-03 0.100000000000D+01
-.351922943099D-04 0.000000000000D+00 0.000000000000D+00 0.376227738293D-04 0.000000000000D+00  6 1 -2 25 -24 3 -3 4 0.13185927D-01 0.28742959D-01 0.14141413D+05 0.14141413D+05 0.14141413D+05 0.12507514D+01  1  2  5  8  6  5       21 -.349755032875D-01 0.100000000000D+01
-.351922943099D-04 0.000000000000D+00 0.000000000000D+00 0.376227738293D-04 0.000000000000D+00  6 1 -2 25 -24 4 -4 4 0.13185927D-01 0.28742959D-01 0.14141413D+05 0.14141413D+05 0.14141413D+05 0.12507514D+01  1  2  5  8  6  5       21 -.349755032875D-01 0.100000000000D+01
0.428742627601D-04 0.000000000000D+00 0.000000000000D+00 0.376227738293D-04 0.362530981299D-06  6 1 -2 25 -24 3 -3 4 0.13185927D-01 0.28742959D-01 0.14282980D+05 0.14282980D+05 0.14282980D+05 0.12502549D+01  1  2 11  8  6  5       21 0.425571053161D-01 0.100000000000D+01
0.428742627601D-04 0.000000000000D+00 0.000000000000D+00 0.376227738293D-04 0.362530981299D-06  6 1 -2 25 -24 4 -4 4 0.13185927D-01 0.28742959D-01 0.14282980D+05 0.14282980D+05 0.14282980D+05 0.12502549D+01  1  2 11  8  6  5       21 0.425571053161D-01 0.100000000000D+01
  </mgrwgt>
  </event>
  <event>
  5     66 0.44337718E-03 0.37054679E+02 0.75467711E-02 0.92129745E-01
        1 -1    0    0  502    0 0.00000000E+00 0.00000000E+00 0.68075459E+03 0.68075467E+03 0.32000000E+00 0.0000E+00 0.9000E+01
       -2 -1    0    0    0  501 0.00000000E+00 0.00000000E+00 -.36735416E+02 0.36736810E+02 0.32000000E+00 0.0000E+00 0.9000E+01
       25  1    1    2    0    0 0.59456933E+02 0.88669527E+01 0.36298906E+03 0.38858694E+03 0.12500000E+03 0.0000E+00 0.9000E+01
      -24  1    1    2    0    0 -.94191177E+02 0.40295969E+01 0.25531504E+03 0.28379782E+03 0.80419002E+02 0.0000E+00 0.9000E+01
       21  1    1    2  502  501 0.34734244E+02 -.12896550E+02 0.25715070E+02 0.45106718E+02 0.75000000E+00 0.0000E+00 0.9000E+01
#aMCatNLO 1  0  0  2  5 0.17807483D+02 0.00000000D+00  -5  6  0 0.00000000D+00 0.00000000D+00 0.00000000D+00 0.00000000D+00 0.00000000D+00
  <mgrwgt>
 0.1089934771D+00    5    4    0
 0.158140223483694D+03 0.000000000000000D+00 0.000000000000000D+00 0.158140223483694D+03
 0.158140223483694D+03 0.000000000000000D+00 0.000000000000000D+00 -.158140223483694D+03
 0.142391989022025D+03 0.594551710990724D+02 0.886760690212753D+01 0.322013464789555D+02
 0.123925185323847D+03 -.941927105942984D+02 0.403016631773583D+01 0.131401428053097D+01
 0.499632726215160D+02 0.347375394952260D+02 -.128977732198634D+02 -.335153607594864D+02
 0.000000000000000D+00 0.000000000000000D+00 -.000000000000000D+00 -.000000000000000D+00
 0.743007262171048D+03 0.000000000000000D+00 0.000000000000000D+00 0.743007262171048D+03
 0.214825545730449D+04 0.000000000000000D+00 0.000000000000000D+00 -.214825545730449D+04
 0.349255579840025D+03 -.252690675697710D+03 0.203629456979508D+03 0.322013464789555D+02
 0.718502137405165D+03 -.629047770747717D+03 0.337750323442063D+03 0.131401428053097D+01
 0.536746072122487D+02 -.310618985774775D+02 0.281574592126697D+02 -.335153607594864D+02
 0.176983039501810D+04 0.912800345022905D+03 -.569537239634241D+03 -.140524819513344D+04
 0.158140223483694D+03 0.000000000000000D+00 0.000000000000000D+00 0.158140223483694D+03
 0.158140223483694D+03 0.000000000000000D+00 0.000000000000000D+00 -.158140223483694D+03
 0.142391989022025D+03 0.594551710990724D+02 0.886760690212753D+01 0.322013464789555D+02
 0.123925185323847D+03 -.941927105942984D+02 0.403016631773583D+01 0.131401428053097D+01
 0.000000000000000D+00 0.000000000000000D+00 -.000000000000000D+00 -.000000000000000D+00
 0.499632726215160D+02 0.347375394952260D+02 -.128977732198634D+02 -.335153607594864D+02
 0.743007262171048D+03 0.000000000000000D+00 0.000000000000000D+00 0.743007262171048D+03
 0.214825545730449D+04 0.000000000000000D+00 0.000000000000000D+00 -.214825545730449D+04
 0.349255579840025D+03 -.252690675697710D+03 0.203629456979508D+03 0.322013464789555D+02
 0.718502137405165D+03 -.629047770747717D+03 0.337750323442063D+03 0.131401428053097D+01
 0.176983039501810D+04 0.912800345022905D+03 -.569537239634241D+03 -.140524819513344D+04
 0.536746072122487D+02 -.310618985774775D+02 0.281574592126697D+02 -.335153607594864D+02
0.149114321752D-03 0.000000000000D+00 0.000000000000D+00 0.159093724366D-04 0.000000000000D+00  6 1 -2 25 -24 21 21 2 0.10473159D+00 0.56517155D-02 0.22451427D+05 0.22451427D+05 0.22451427D+05 0.12283359D+01  1  2  2  2  6  2       -2 0.919589376163D-01 0.100000000000D+01
0.105494478382D-04 0.786897894682D-05 -.572638258229D-06 0.159093724366D-04 0.000000000000D+00  6 1 -2 25 -24 21 21 4 0.10473159D+00 0.56517155D-02 0.22451427D+05 0.22451427D+05 0.22451427D+05 0.12283359D+01  1  2  3  2  6  2       -2 0.981609225575D-02 0.100000000000D+01
0.517250331446D-05 0.000000000000D+00 0.000000000000D+00 0.159093724366D-04 0.000000000000D+00  6 1 -2 25 -24 21 21 4 0.10473159D+00 0.56517155D-02 0.22451427D+05 0.22451427D+05 0.22451427D+05 0.12283359D+01  1  2 15  2  6  2       -2 0.481293149241D-02 0.100000000000D+01
0.325955977725D-02 0.000000000000D+00 -.866211466985D-03 0.159093724366D-04 0.000000000000D+00  6 1 -2 25 -24 21 21 4 0.10473159D+00 0.32078755D+00 0.22451427D+05 0.22451427D+05 0.22451427D+05 0.12283359D+01  1  2  5  2  6  2       -2 0.588782546472D-03 0.100000000000D+01
0.872799483639D-03 0.000000000000D+00 -.307964693375D-03 0.159093724366D-04 0.000000000000D+00  6 1 21 25 -24 2 21 4 0.10473159D+00 0.32078755D+00 0.22451427D+05 0.22451427D+05 0.22451427D+05 0.12283359D+01  3  4  5  5  5  2       -2 0.181673323598D-02 0.100000000000D+01
  </mgrwgt>
  </event>
  <event>
  5     66 0.44337718E-03 0.15493462E+03 0.75467711E-02 0.10485354E+00
        3 -1    0    0  502    0 0.00000000E+00 0.00000000E+00 0.28829633E+03 0.28829677E+03 0.50000000E+00 0.0000E+00 0.9000E+01
       -4 -1    0    0    0  501 0.00000000E+00 0.00000000E+00 -.75384590E+03 0.75384750E+03 0.15500000E+01 0.0000E+00 0.9000E+01
       25  1    1    2    0    0 -.18467987E+03 0.35289879E+01 -.35036730E+03 0.41533283E+03 0.12500000E+03 0.0000E+00 0.9000E+01
      -24  1    1    2    0    0 0.35964756E+03 -.85619368E+01 0.66441182E+02 0.37456818E+03 0.80419002E+02 0.0000E+00 0.9000E+01
       21  1    1    2  502  501 -.17496769E+03 0.50329488E+01 -.18162345E+03 0.25224326E+03 0.75000000E+00 0.0000E+00 0.9000E+01
#aMCatNLO 1  0  0  2  5 0.64388145D+01 0.00000000D+00  -5  6  0 0.00000000D+00 0.00000000D+00 0.00000000D+00 0.00000000D+00 0.00000000D+00
  <mgrwgt>
 0.4555043218D-02   11    4    0
 0.466188872979453D+03 0.000000000000000D+00 0.000000000000000D+00 0.466188872979453D+03
 0.466188872979453D+03 0.000000000000000D+00 0.000000000000000D+00 -.466188872979453D+03
 0.289285129228850D+03 -.184679455012237D+03 0.352897592406964D+01 -.184233360763632D+03
 0.451840878736335D+03 0.359648210498898D+03 -.856195552011937D+01 0.261290683617814D+03
 0.191251737993721D+03 -.174968755486661D+03 0.503297959604973D+01 -.770573228541822D+02
 0.000000000000000D+00 0.000000000000000D+00 0.000000000000000D+00 -.000000000000000D+00
 0.466354566636246D+03 0.000000000000000D+00 0.000000000000000D+00 0.466354566636246D+03
 0.533251036942523D+03 0.000000000000000D+00 0.000000000000000D+00 -.533251036942523D+03
 0.290153105336746D+03 -.186057978186577D+03 0.207895921496857D+01 -.184233360763632D+03
 0.450183229293918D+03 0.357502233477438D+03 -.108192280828049D+02 0.261290683617814D+03
 0.192063643646948D+03 -.175880688985611D+03 0.407375102762238D+01 -.770573228541822D+02
 0.672056253011573D+02 0.443643369474910D+01 0.466651784021390D+01 -.668964703062771D+02
 0.466188872979453D+03 0.000000000000000D+00 0.000000000000000D+00 0.466188872979453D+03
 0.466188872979453D+03 0.000000000000000D+00 0.000000000000000D+00 -.466188872979453D+03
 0.289285129228850D+03 -.184679455012237D+03 0.352897592406964D+01 -.184233360763632D+03
 0.451840878736335D+03 0.359648210498898D+03 -.856195552011937D+01 0.261290683617814D+03
 0.000000000000000D+00 0.000000000000000D+00 0.000000000000000D+00 -.000000000000000D+00
 0.191251737993721D+03 -.174968755486661D+03 0.503297959604973D+01 -.770573228541822D+02
 0.466354566636246D+03 0.000000000000000D+00 0.000000000000000D+00 0.466354566636246D+03
 0.533251036942523D+03 0.000000000000000D+00 0.000000000000000D+00 -.533251036942523D+03
 0.290153105336746D+03 -.186057978186577D+03 0.207895921496857D+01 -.184233360763632D+03
 0.450183229293918D+03 0.357502233477438D+03 -.108192280828049D+02 0.261290683617814D+03
 0.672056253011573D+02 0.443643369474910D+01 0.466651784021390D+01 -.668964703062771D+02
 0.192063643646948D+03 -.175880688985611D+03 0.407375102762238D+01 -.770573228541822D+02
0.162551735865D-03 0.000000000000D+00 0.000000000000D+00 0.290088722745D-06 0.000000000000D+00  6 3 -4 25 -24 21 21 2 0.44353438D-01 0.11597645D+00 0.14695863D+06 0.14695863D+06 0.14695863D+06 0.11485183D+01  1  2  2  2  6  2       -4 0.140026474339D-03 0.100000000000D+01
-.763898849555D-05 0.857809077131D-05 -.624241466575D-06 0.290088722745D-06 0.000000000000D+00  6 3 -4 25 -24 21 21 4 0.44353438D-01 0.11597645D+00 0.14695863D+06 0.14695863D+06 0.14695863D+06 0.11485183D+01  1  2  3  2  6  2       -4 -.868020938681D-05 0.100000000000D+01
0.752280540768D-05 0.000000000000D+00 0.000000000000D+00 0.290088722745D-06 0.000000000000D+00  6 3 -4 25 -24 21 21 4 0.44353438D-01 0.11597645D+00 0.14695863D+06 0.14695863D+06 0.14695863D+06 0.11485183D+01  1  2 15  2  6  2       -4 0.854819013707D-05 0.100000000000D+01
0.388533702664D-01 0.000000000000D+00 0.000000000000D+00 0.289766384756D-06 0.000000000000D+00  6 3 -4 25 -24 21 21 4 0.44353438D-01 0.13283605D+00 0.14942870D+06 0.14942870D+06 0.14942870D+06 0.11478800D+01  1  2 12  2  6  2       -4 0.314380888382D-01 0.100000000000D+01
-.392088244056D-01 0.000000000000D+00 0.000000000000D+00 0.290088722745D-06 0.000000000000D+00  6 3 -4 25 -24 21 21 4 0.44353438D-01 0.11597645D+00 0.14695863D+06 0.14695863D+06 0.14695863D+06 0.11485183D+01  1  2  4  2  6  2       -4 -.445531245203D-01 0.100000000000D+01
-.449638976640D-01 0.000000000000D+00 -.232860857596D-03 0.290088722745D-06 0.000000000000D+00  6 3 -4 25 -24 21 21 4 0.44353438D-01 0.13267908D+00 0.14695863D+06 0.14695863D+06 0.14695863D+06 0.11485183D+01  1  2  5  2  6  2       -4 -.365647547218D-01 0.100000000000D+01
0.445930840897D-01 0.000000000000D+00 0.230768938649D-03 0.290088722745D-06 0.000000000000D+00  6 3 -4 25 -24 21 21 4 0.44353438D-01 0.11597645D+00 0.14695863D+06 0.14695863D+06 0.14695863D+06 0.11485183D+01  1  2  6  2  6  2       -4 0.506712776603D-01 0.100000000000D+01
0.461822198639D-02 0.000000000000D+00 0.000000000000D+00 0.290088722745D-06 0.225803565787D-07  6 3 -4 25 -24 21 21 4 0.44369202D-01 0.13265988D+00 0.14942870D+06 0.14942870D+06 0.14942870D+06 0.11478800D+01  1  2 11  2  6  2       -4 0.374670374269D-02 0.100000000000D+01
0.816787823700D-03 0.000000000000D+00 0.000000000000D+00 0.289766384756D-06 0.000000000000D+00  6 3 21 25 -24 4 21 4 0.44353438D-01 0.13283605D+00 0.14942870D+06 0.14942870D+06 0.14942870D+06 0.11478800D+01  3  4 12  5  5  2       -4 0.136384559951D-01 0.100000000000D+01
-.937122872156D-03 0.000000000000D+00 -.486008625519D-05 0.290088722745D-06 0.000000000000D+00  6 3 21 25 -24 4 21 4 0.44353438D-01 0.13267908D+00 0.14695863D+06 0.14695863D+06 0.14695863D+06 0.11485183D+01  3  4  5  5  5  2       -4 -.157430991593D-01 0.100000000000D+01
0.106406315066D-03 0.000000000000D+00 0.000000000000D+00 0.290088722745D-06 0.104038668347D-08  6 3 21 25 -24 4 21 4 0.44369202D-01 0.13265988D+00 0.14942870D+06 0.14942870D+06 0.14942870D+06 0.11478800D+01  3  4 11  5  5  2       -4 0.178160092861D-02 0.100000000000D+01
  </mgrwgt>
  </event>
  <event>
  5     66 0.44337718E-03 0.12281237E+03 0.75467711E-02 0.10326000E+00
        1 -1    0    0  502    0 0.00000000E+00 0.00000000E+00 0.82405134E+03 0.82405141E+03 0.32000000E+00 0.0000E+00 0.9000E+01
       -2 -1    0    0    0  501 0.00000000E+00 0.00000000E+00 -.66215533E+02 0.66216306E+02 0.32000000E+00 0.0000E+00 0.9000E+01
       25  1    1    2    0    0 -.13619202E+03 -.36373436E+02 0.16695962E+03 0.25173758E+03 0.12500000E+03 0.0000E+00 0.9000E+01
      -24  1    1    2    0    0 0.14295945E+02 0.21405539E+02 0.92497203E+02 0.12524184E+03 0.80419002E+02 0.0000E+00 0.9000E+01
       21  1    1    2  502  501 0.12189607E+03 0.14967897E+02 0.49837899E+03 0.51328829E+03 0.75000000E+00 0.0000E+00 0.9000E+01
#aMCatNLO 1  0  0  1  5 0.36042413D+03 0.00000000D+00  -5  6  0 0.00000000D+00 0.00000000D+00 0.00000000D+00 0.00000000D+00 0.00000000D+00
  <mgrwgt>
 0.2841612555D-01    5    4    0
 0.233592317261735D+03 0.000000000000000D+00 0.000000000000000D+00 0.233592317261735D+03
 0.233592317261735D+03 0.000000000000000D+00 0.000000000000000D+00 -.233592317261735D+03
 0.208881288348295D+03 -.136192551876941D+03 -.363735012181235D+02 -.901939568065704D+02
 0.886182574516727D+02 0.142957190630078D+02 0.214055107829923D+02 -.268963961153007D+02
 0.169685088723501D+03 0.121896832813933D+03 0.149679904351311D+02 0.117090352921871D+03
 0.000000000000000D+00 0.000000000000000D+00 0.000000000000000D+00 0.000000000000000D+00
 0.513437647480324D+03 0.000000000000000D+00 0.000000000000000D+00 0.513437647480324D+03
 0.443723525902740D+03 0.000000000000000D+00 0.000000000000000D+00 -.443723525902740D+03
 0.361517007809455D+03 -.282926397751807D+03 -.163973322666409D+03 -.901939568065704D+02
 0.927666975140980D+02 -.323652057771431D+02 -.191708514238062D+02 -.268963961153007D+02
 0.135773103932059D+03 0.433183102898403D+02 -.533639297429510D+02 0.117090352921871D+03
 0.367104364127452D+03 0.271973293239110D+03 0.236508103833166D+03 0.697141215775842D+02
 0.233592317261735D+03 0.000000000000000D+00 0.000000000000000D+00 0.233592317261735D+03
 0.233592317261735D+03 0.000000000000000D+00 0.000000000000000D+00 -.233592317261735D+03
 0.208881288348295D+03 -.136192551876941D+03 -.363735012181235D+02 -.901939568065704D+02
 0.886182574516727D+02 0.142957190630078D+02 0.214055107829923D+02 -.268963961153007D+02
 0.000000000000000D+00 0.000000000000000D+00 0.000000000000000D+00 0.000000000000000D+00
 0.169685088723501D+03 0.121896832813933D+03 0.149679904351311D+02 0.117090352921871D+03
 0.513437647480324D+03 0.000000000000000D+00 0.000000000000000D+00 0.513437647480324D+03
 0.443723525902740D+03 0.000000000000000D+00 0.000000000000000D+00 -.443723525902740D+03
 0.361517007809455D+03 -.282926397751807D+03 -.163973322666409D+03 -.901939568065704D+02
 0.927666975140980D+02 -.323652057771431D+02 -.191708514238062D+02 -.268963961153007D+02
 0.367104364127452D+03 0.271973293239110D+03 0.236508103833166D+03 0.697141215775842D+02
 0.135773103932059D+03 0.433183102898403D+02 -.533639297429510D+02 0.117090352921871D+03
0.164025217179D-03 0.000000000000D+00 0.000000000000D+00 0.224701777105D-05 0.000000000000D+00  6 1 -2 25 -24 21 21 2 0.12677719D+00 0.10187069D-01 0.39135797D+05 0.39135797D+05 0.39135797D+05 0.12029647D+01  1  2  2  1  6  1        1 0.295459340037D-01 0.100000000000D+01
-.122217987396D-04 0.865584851655D-05 -.629900022799D-06 0.224701777105D-05 0.000000000000D+00  6 1 -2 25 -24 21 21 4 0.12677719D+00 0.10187069D-01 0.39135797D+05 0.39135797D+05 0.39135797D+05 0.12029647D+01  1  2  3  1  6  1        1 -.318586978566D-02 0.100000000000D+01
0.269064952976D-05 0.000000000000D+00 0.000000000000D+00 0.224701777105D-05 0.000000000000D+00  6 1 -2 25 -24 21 21 4 0.12677719D+00 0.10187069D-01 0.39135797D+05 0.39135797D+05 0.39135797D+05 0.12029647D+01  1  2 15  1  6  1        1 0.701374586776D-03 0.100000000000D+01
0.686649851707D-04 0.000000000000D+00 -.103782940489D-03 0.224701777105D-05 0.000000000000D+00  6 1 -2 25 -24 21 21 4 0.39344613D+00 0.10187069D-01 0.39135797D+05 0.39135797D+05 0.39135797D+05 0.12029647D+01  1  2  5  1  6  1        1 0.121639411773D-02 0.100000000000D+01
0.137414750065D-04 0.000000000000D+00 -.134590174482D-04 0.224701777105D-05 0.000000000000D+00  6 21 -2 25 -24 -1 21 4 0.39344613D+00 0.10187069D-01 0.39135797D+05 0.39135797D+05 0.39135797D+05 0.12029647D+01  3  4  5  4  5  1        1 0.138292631249D-03 0.100000000000D+01
  </mgrwgt>
  </event>
  <event>
  5     66 0.44337718E-03 0.37808994E+02 0.75467711E-02 0.11231534E+00
        1 -1    0    0  502    0 0.00000000E+00 0.00000000E+00 0.18728953E+04 0.18728953E+04 0.32000000E+00 0.0000E+00 0.9000E+01
       -2 -1    0    0    0  501 0.00000000E+00 0.00000000E+00 -.88004720E+02 0.88005302E+02 0.32000000E+00 0.0000E+00 0.9000E+01
       25  1    1    2    0    0 -.14107720E+03 0.50123005E+02 0.42567314E+03 0.46822827E+03 0.12500000E+03 0.0000E+00 0.9000E+01
      -24  1    1    2    0    0 0.13209594E+03 -.13396300E+02 0.14159817E+04 0.14244648E+04 0.80419002E+02 0.0000E+00 0.9000E+01
       21  1    1    2  502  501 0.89812635E+01 -.36726704E+02 -.56764271E+02 0.68207469E+02 0.75000000E+00 0.0000E+00 0.9000E+01
#aMCatNLO 1  0  0  5  1 0.34144326D+02 0.00000000D+00  -5  6  0 0.00000000D+00 0.00000000D+00 0.00000000D+00 0.00000000D+00 0.00000000D+00
  <mgrwgt>
 0.2349413023D-01    4    2    0
 0.405985492567516D+03 0.000000000000000D+00 0.000000000000000D+00 0.405985492567516D+03
 0.405985492567516D+03 -.000000000000000D+00 -.000000000000000D+00 -.405985492567516D+03
 0.195042859033023D+03 -.141077208634411D+03 0.501230341625096D+02 -.127259971806882D+01
 0.327427887518055D+03 0.132095925705117D+03 -.133962507473911D+02 0.288293275065838D+03
 0.289500238583954D+03 0.898128292929440D+01 -.367267834151183D+02 -.287020675347769D+03
 0.000000000000000D+00 0.000000000000000D+00 0.000000000000000D+00 0.000000000000000D+00
 0.405985492567516D+03 0.000000000000000D+00 0.000000000000000D+00 0.405985492567516D+03
 0.405985492567516D+03 -.000000000000000D+00 -.000000000000000D+00 -.405985492567516D+03
 0.194818348577299D+03 -.140737037475528D+03 0.487319865165605D+02 -.121436697562060D+02
 0.312182152367671D+03 0.132654013774036D+03 -.156784168694378D+02 0.270458093198645D+03
 0.261285020891457D+03 0.174575253967763D+02 -.748479557689902D+02 -.249725610353590D+03
 0.436854632986059D+02 -.937450169528479D+01 0.417943861218677D+02 -.858881308884893D+01
0.432805010608D-02 0.000000000000D+00 0.000000000000D+00 0.147495538346D-04 0.000000000000D+00  6 1 -2 25 -24 21 21 2 0.28813778D+00 0.13539235D-01 0.37650861D+05 0.37650861D+05 0.37650861D+05 0.12046787D+01  1  2  2  3  6  5       21 0.937193519655D-01 0.100000000000D+01
0.868148135366D-03 0.228397478964D-03 -.166208520091D-04 0.147495538346D-04 0.000000000000D+00  6 1 -2 25 -24 21 21 4 0.28813778D+00 0.13539235D-01 0.37650861D+05 0.37650861D+05 0.37650861D+05 0.12046787D+01  1  2  3  3  6  5       21 0.272818167296D-01 0.100000000000D+01
0.161486809461D-03 0.000000000000D+00 0.000000000000D+00 0.147495538346D-04 0.000000000000D+00  6 1 -2 25 -24 21 21 4 0.28813778D+00 0.13539235D-01 0.37650861D+05 0.37650861D+05 0.37650861D+05 0.12046787D+01  1  2 15  3  6  5       21 0.507477164378D-02 0.100000000000D+01
-.326430633451D-02 0.000000000000D+00 0.000000000000D+00 0.147495538346D-04 0.000000000000D+00  6 1 -2 25 -24 21 21 4 0.28813778D+00 0.13539235D-01 0.37650861D+05 0.37650861D+05 0.37650861D+05 0.12046787D+01  1  2  4  3  6  5       21 -.102581810108D+00 0.100000000000D+01
  </mgrwgt>
  </event>
  <event>
  5     66 -.44337718E-03 0.23248523E+02 0.75467711E-02 0.12345728E+00
        3 -1    0    0  502    0 0.00000000E+00 0.00000000E+00 0.10349201E+03 0.10349322E+03 0.50000000E+00 0.0000E+00 0.9000E+01
       -4 -1    0    0    0  501 -.00000000E+00 -.00000000E+00 -.15344219E+03 0.15345002E+03 0.15500000E+01 0.0000E+00 0.9000E+01
       25  1    1    2    0    0 -.49475510E+02 0.34142375E+02 -.35162577E+02 0.14309065E+03 0.12500000E+03 0.0000E+00 0.9000E+01
      -24  1    1    2    0    0 0.32774061E+02 -.17984922E+02 -.56241927E+01 0.88861938E+02 0.80419002E+02 0.0000E+00 0.9000E+01
       21  1    1    2  502  501 0.16701449E+02 -.16157453E+02 -.91634087E+01 0.24990643E+02 0.75000000E+00 0.0000E+00 0.9000E+01
#aMCatNLO 1  0  0  5  1 0.45297908D+01 0.00000000D+00  -5  6  0 0.00000000D+00 0.00000000D+00 0.00000000D+00 0.00000000D+00 0.00000000D+00
  <mgrwgt>
 -.4298469591D+00   20    2    0
 0.126020637851386D+03 0.000000000000000D+00 0.000000000000000D+00 0.126020637851386D+03
 0.126020637851386D+03 -.000000000000000D+00 -.000000000000000D+00 -.126020637851386D+03
 0.138907700688052D+03 -.494801380744815D+02 0.341468522747355D+02 -.748717078067803D+01
 0.894740319001333D+02 0.327710804568593D+02 -.179820384241765D+02 0.118780894885091D+02
 0.236595431145876D+02 0.167090576176222D+02 -.161648138505591D+02 -.439091870783111D+01
 0.000000000000000D+00 0.000000000000000D+00 -.000000000000000D+00 0.000000000000000D+00
 0.126020637851386D+03 0.000000000000000D+00 0.000000000000000D+00 0.126020637851386D+03
 0.126020637851386D+03 -.000000000000000D+00 -.000000000000000D+00 -.126020637851386D+03
 0.138259165523580D+03 -.483483760995299D+02 0.330519538030863D+02 -.778458281565634D+01
 0.898642353131812D+02 0.335033766157038D+02 -.186904823928367D+02 0.116856517713663D+02
 0.183494876316017D+02 0.134064887672394D+02 -.101868323245707D+02 -.729370978770544D+01
 0.556838723440962D+01 0.143851071658666D+01 -.417463908567895D+01 0.339264083199548D+01
0.611602294092D-03 0.000000000000D+00 0.000000000000D+00 0.448495122662D-04 0.000000000000D+00  6 3 -4 25 -24 21 21 2 0.15922543D-01 0.23607185D-01 0.15704650D+05 0.15704650D+05 0.15704650D+05 0.12455561D+01  1  2  2  3  6  5       21 0.101567672616D+00 0.100000000000D+01
0.108676783800D-03 0.322751397687D-04 -.234871384790D-05 0.448495122662D-04 0.000000000000D+00  6 3 -4 25 -24 21 21 4 0.15922543D-01 0.23607185D-01 0.15704650D+05 0.15704650D+05 0.15704650D+05 0.12455561D+01  1  2  3  3  6  5       21 0.279994658359D-01 0.100000000000D+01
0.189804848370D-04 0.000000000000D+00 0.000000000000D+00 0.448495122662D-04 0.000000000000D+00  6 3 -4 25 -24 21 21 4 0.15922543D-01 0.23607185D-01 0.15704650D+05 0.15704650D+05 0.15704650D+05 0.12455561D+01  1  2 15  3  6  5       21 0.489012849075D-02 0.100000000000D+01
0.669959551463D-04 0.000000000000D+00 0.000000000000D+00 0.449133257615D-04 0.000000000000D+00  6 3 -4 25 -24 21 21 4 0.15922543D-01 0.23607185D-01 0.15424920D+05 0.15424920D+05 0.15424920D+05 0.12464419D+01  1  2 12  3  6  5       21 0.172798926123D-01 0.100000000000D+01
0.655323090867D-04 0.000000000000D+00 0.000000000000D+00 0.449133257615D-04 0.000000000000D+00  6 3 -4 25 -24 21 21 4 0.15922543D-01 0.23607185D-01 0.15424920D+05 0.15424920D+05 0.15424920D+05 0.12464419D+01  1  2 12  3  6  5       21 0.169023825569D-01 0.100000000000D+01
-.287022766952D-02 0.000000000000D+00 0.000000000000D+00 0.448495122662D-04 0.000000000000D+00  6 3 -4 25 -24 21 21 4 0.15922543D-01 0.23607185D-01 0.15704650D+05 0.15704650D+05 0.15704650D+05 0.12455561D+01  1  2  4  3  6  5       21 -.739484908959D+00 0.100000000000D+01
-.119678363568D-02 0.000000000000D+00 0.000000000000D+00 0.448495122662D-04 0.000000000000D+00  6 3 -4 25 -24 21 21 4 0.15922543D-01 0.23607185D-01 0.15704650D+05 0.15704650D+05 0.15704650D+05 0.12455561D+01  1  2  5  3  6  5       21 -.308339107477D+00 0.100000000000D+01
0.177243903517D-02 0.000000000000D+00 -.000000000000D+00 0.448495122662D-04 0.000000000000D+00  6 3 -4 25 -24 21 21 4 0.15922543D-01 0.23607185D-01 0.15704650D+05 0.15704650D+05 0.15704650D+05 0.12455561D+01  1  2  6  3  6  5       21 0.456650854730D+00 0.100000000000D+01
0.244136777812D-05 0.000000000000D+00 0.000000000000D+00 0.449133257615D-04 0.000000000000D+00  6 3 -4 25 -24 3 -3 4 0.15922543D-01 0.23607185D-01 0.15424920D+05 0.15424920D+05 0.15424920D+05 0.12464419D+01  1  2 12  6  6  5       21 0.629688358661D-03 0.100000000000D+01
0.240891891022D-05 0.000000000000D+00 0.000000000000D+00 0.449133257615D-04 0.000000000000D+00  6 3 -4 25 -24 3 -3 4 0.15922543D-01 0.23607185D-01 0.15424920D+05 0.15424920D+05 0.15424920D+05 0.12464419D+01  1  2 12  6  6  5       21 0.621319003355D-03 0.100000000000D+01
-.119521212245D-04 0.000000000000D+00 0.000000000000D+00 0.448495122662D-04 0.000000000000D+00  6 3 -4 25 -24 3 -3 4 0.15922543D-01 0.23607185D-01 0.15704650D+05 0.15704650D+05 0.15704650D+05 0.12455561D+01  1  2  5  6  6  5       21 -.307934223107D-02 0.100000000000D+01
0.244136777812D-05 0.000000000000D+00 0.000000000000D+00 0.449133257615D-04 0.000000000000D+00  6 3 -4 25 -24 4 -4 4 0.15922543D-01 0.23607185D-01 0.15424920D+05 0.15424920D+05 0.15424920D+05 0.12464419D+01  1  2 12  7  6  5       21 0.629688358661D-03 0.100000000000D+01
0.240891891022D-05 0.000000000000D+00 0.000000000000D+00 0.449133257615D-04 0.000000000000D+00  6 3 -4 25 -24 4 -4 4 0.15922543D-01 0.23607185D-01 0.15424920D+05 0.15424920D+05 0.15424920D+05 0.12464419D+01  1  2 12  7  6  5       21 0.621319003355D-03 0.100000000000D+01
-.119521212245D-04 0.000000000000D+00 0.000000000000D+00 0.448495122662D-04 0.000000000000D+00  6 3 -4 25 -24 4 -4 4 0.15922543D-01 0.23607185D-01 0.15704650D+05 0.15704650D+05 0.15704650D+05 0.12455561D+01  1  2  5  7  6  5       21 -.307934223107D-02 0.100000000000D+01
0.244136777812D-05 0.000000000000D+00 0.000000000000D+00 0.449133257615D-04 0.000000000000D+00  6 3 -4 25 -24 1 -1 4 0.15922543D-01 0.23607185D-01 0.15424920D+05 0.15424920D+05 0.15424920D+05 0.12464419D+01  1  2 12  8  6  5       21 0.629688358661D-03 0.100000000000D+01
0.244136777812D-05 0.000000000000D+00 0.000000000000D+00 0.449133257615D-04 0.000000000000D+00  6 3 -4 25 -24 2 -2 4 0.15922543D-01 0.23607185D-01 0.15424920D+05 0.15424920D+05 0.15424920D+05 0.12464419D+01  1  2 12  8  6  5       21 0.629688358661D-03 0.100000000000D+01
0.240891891022D-05 0.000000000000D+00 0.000000000000D+00 0.449133257615D-04 0.000000000000D+00  6 3 -4 25 -24 1 -1 4 0.15922543D-01 0.23607185D-01 0.15424920D+05 0.15424920D+05 0.15424920D+05 0.12464419D+01  1  2 12  8  6  5       21 0.621319003355D-03 0.100000000000D+01
0.240891891022D-05 0.000000000000D+00 0.000000000000D+00 0.449133257615D-04 0.000000000000D+00  6 3 -4 25 -24 2 -2 4 0.15922543D-01 0.23607185D-01 0.15424920D+05 0.15424920D+05 0.15424920D+05 0.12464419D+01  1  2 12  8  6  5       21 0.621319003355D-03 0.100000000000D+01
-.119521212245D-04 0.000000000000D+00 0.000000000000D+00 0.448495122662D-04 0.000000000000D+00  6 3 -4 25 -24 1 -1 4 0.15922543D-01 0.23607185D-01 0.15704650D+05 0.15704650D+05 0.15704650D+05 0.12455561D+01  1  2  5  8  6  5       21 -.307934223107D-02 0.100000000000D+01
-.119521212245D-04 0.000000000000D+00 0.000000000000D+00 0.448495122662D-04 0.000000000000D+00  6 3 -4 25 -24 2 -2 4 0.15922543D-01 0.23607185D-01 0.15704650D+05 0.15704650D+05 0.15704650D+05 0.12455561D+01  1  2  5  8  6  5       21 -.307934223107D-02 0.100000000000D+01
  </mgrwgt>
  </event>
  <event>
  6     66 0.44337718E-03 0.65675670E+02 0.75467711E-02 0.11292345E+00
       21 -1    0    0  502  503 0.00000000E+00 0.00000000E+00 0.58205460E+03 0.58205508E+03 0.75000000E+00 0.0000E+00 0.9000E+01
       -2 -1    0    0    0  501 0.00000000E+00 0.00000000E+00 -.23467004E+03 0.23467026E+03 0.32000000E+00 0.0000E+00 0.9000E+01
       25  1    1    2    0    0 -.17898038E+02 -.16184280E+03 -.20786105E+02 0.20632618E+03 0.12500000E+03 0.0000E+00 0.9000E+01
      -24  1    1    2    0    0 -.22623304E+02 0.75181293E+02 -.53488522E+02 0.12446798E+03 0.80419002E+02 0.0000E+00 0.9000E+01
       -1  1    1    2    0  503 0.71638937E+02 0.52464963E+02 0.42988825E+03 0.43896323E+03 0.32000000E+00 0.0000E+00 0.9000E+01
       21  1    1    2  502  501 -.31117595E+02 0.34196540E+02 -.82290613E+01 0.46967947E+02 0.75000000E+00 0.0000E+00 0.9000E+01
#aMCatNLO 2  0  0  1  2 0.88795887D+02 0.00000000D+00  -5  6  0 0.00000000D+00 0.00000000D+00 0.00000000D+00 0.00000000D+00 0.00000000D+00
  <mgrwgt>
 0.1711368638D-01    1    2    0
 0.178894272400529D+03 0.000000000000000D+00 0.000000000000000D+00 0.178894272400529D+03
 0.178894272400529D+03 0.000000000000000D+00 0.000000000000000D+00 -.178894272400529D+03
 0.185737566580159D+03 0.208122316029516D+02 -.133497081343376D+03 0.248761718844373D+02
 0.125575509658963D+03 0.115964429411066D+01 0.925961925738101D+02 -.269553893995746D+02
 0.000000000000000D+00 0.000000000000000D+00 0.000000000000000D+00 0.000000000000000D+00
 0.464754685619365D+02 -.219718758970622D+02 0.409008887695657D+02 0.207921751513732D+01
 0.726719952119382D+03 0.000000000000000D+00 0.000000000000000D+00 0.726719952119382D+03
 0.187955475988933D+03 0.000000000000000D+00 0.000000000000000D+00 -.187955475988933D+03
 0.206780597927298D+03 -.178969906107936D+02 -.161845881871069D+03 0.248761718844373D+02
 0.115574824971118D+03 -.226220369991062D+02 0.751796158347614D+02 -.269553893995746D+02
 0.546032847302038D+03 0.716389365047618D+02 0.524649632528252D+02 0.538764476130449D+03
 0.462871579078606D+02 -.311199088948620D+02 0.342013027834827D+02 0.207921751513732D+01
0.139001174829D-03 0.000000000000D+00 0.000000000000D+00 0.855828284946D-05 0.362664066004D-08  6 21 -2 25 -24 -1 21 4 0.89546893D-01 0.36103128D-01 0.51234916D+05 0.51234916D+05 0.51234916D+05 0.11912338D+01  1  2  1  4  5  1        1 0.171136863770D-01 0.100000000000D+01
  </mgrwgt>
  </event>
  <event>
  6     66 0.44337718E-03 0.62273773E+02 0.75467711E-02 0.12084339E+00
        1 -1    0    0  502    0 0.00000000E+00 0.00000000E+00 0.60211995E+03 0.60212004E+03 0.32000000E+00 0.0000E+00 0.9000E+01
       -2 -1    0    0    0  501 0.00000000E+00 0.00000000E+00 -.40207358E+02 0.40208631E+02 0.32000000E+00 0.0000E+00 0.9000E+01
       25  1    1    2    0    0 0.36785525E+01 -.51736853E+02 0.15851255E+03 0.20842615E+03 0.12500000E+03 0.0000E+00 0.9000E+01
      -24  1    1    2    0    0 -.19719129E+01 -.17923319E+02 0.24306522E+03 0.25665746E+03 0.80419002E+02 0.0000E+00 0.9000E+01
       21  1    1    2  502  503 -.17977021E+01 0.54937704E+02 0.90633040E+02 0.10600138E+03 0.75000000E+00 0.0000E+00 0.9000E+01
       21  1    1    2  503  501 0.91062551E-01 0.14722468E+02 0.69701782E+02 0.71243668E+02 0.75000000E+00 0.0000E+00 0.9000E+01
#aMCatNLO 2  0  0  5  1 0.12910018D+02 0.00000000D+00  -5  6  0 0.00000000D+00 0.00000000D+00 0.00000000D+00 0.00000000D+00 0.00000000D+00
  <mgrwgt>
 0.8718030074D-01    3    2    0
 0.155595914789597D+03 0.000000000000000D+00 0.000000000000000D+00 0.155595914789597D+03
 0.155595914789597D+03 -.000000000000000D+00 -.000000000000000D+00 -.155595914789597D+03
 0.145121335848142D+03 0.374446038647772D+01 -.544270262734783D+02 -.495870945487783D+02
 0.911042835172692D+02 -.193042914403502D+01 -.196165678672267D+02 0.380031344661829D+02
 0.749662102137834D+02 -.181403124244269D+01 0.740435941407050D+02 0.115839600825954D+02
 0.000000000000000D+00 0.000000000000000D+00 0.000000000000000D+00 0.000000000000000D+00
 0.155595914789597D+03 0.000000000000000D+00 0.000000000000000D+00 0.155595914789597D+03
 0.155595914789597D+03 -.000000000000000D+00 -.000000000000000D+00 -.155595914789597D+03
 0.143980862746288D+03 0.367812796171068D+01 -.517195254196310D+02 -.491635118988739D+02
 0.908654651000276D+02 -.197218079697546D+01 -.179123841835637D+02 0.382697503158599D+02
 0.548334952318571D+02 -.179450722277380D+01 0.546180577653045D+02 -.451217343586863D+01
 0.215120065010225D+02 0.885600580385890D-01 0.150138518378902D+02 0.154059350188827D+02
-.678001846773D-04 0.000000000000D+00 0.000000000000D+00 0.432321057548D-05 0.000000000000D+00  6 1 -2 25 -24 21 21 4 0.92633943D-01 0.61858519D-02 0.20649997D+05 0.20649997D+05 0.20649997D+05 0.12322998D+01  1  2 13  3  6  5       21 -.659822683045D-01 0.100000000000D+01
-.693366002457D-04 0.000000000000D+00 0.000000000000D+00 0.432321057548D-05 0.000000000000D+00  6 1 -2 25 -24 21 21 4 0.92633943D-01 0.61858519D-02 0.20649997D+05 0.20649997D+05 0.20649997D+05 0.12322998D+01  1  2 13  3  6  5       21 -.674774881883D-01 0.100000000000D+01
0.226719041526D-03 0.000000000000D+00 0.000000000000D+00 0.430978566052D-05 0.338475536815D-06  6 1 -2 25 -24 21 21 4 0.92633943D-01 0.61858519D-02 0.20649997D+05 0.20649997D+05 0.20649997D+05 0.12322998D+01  1  2  1  3  6  5       21 0.220640057235D+00 0.100000000000D+01
  </mgrwgt>
  </event>
  <event>
  5     66 0.44337718E-03 0.25734875E+02 0.75467711E-02 0.10456117E+00
        1 -1    0    0  502    0 0.00000000E+00 0.00000000E+00 0.11059577E+03 0.11059623E+03 0.32000000E+00 0.0000E+00 0.9000E+01
       -2 -1    0    0    0  501 0.00000000E+00 0.00000000E+00 -.27927995E+04 0.27927996E+04 0.32000000E+00 0.0000E+00 0.9000E+01
       25  1    1    2    0    0 -.28394587E+03 -.20540693E+03 -.17815528E+04 0.18199925E+04 0.12500000E+03 0.0000E+00 0.9000E+01
      -24  1    1    2    0    0 0.29659378E+03 0.18299463E+03 -.95689169E+03 0.10215497E+04 0.80419002E+02 0.0000E+00 0.9000E+01
       21  1    1    2  502  501 -.12647912E+02 0.22412297E+02 0.56240741E+02 0.61853570E+02 0.75000000E+00 0.0000E+00 0.9000E+01
#aMCatNLO 1  0  0  2  1 0.36998079D+02 0.00000000D+00  -5  6  0 0.00000000D+00 0.00000000D+00 0.00000000D+00 0.00000000D+00 0.00000000D+00
  <mgrwgt>
 0.2158995103D+01    7    4    0
 0.555763007164318D+03 0.000000000000000D+00 0.000000000000000D+00 0.555763007164318D+03
 0.555763007164318D+03 0.000000000000000D+00 0.000000000000000D+00 -.555763007164318D+03
 0.454934151710153D+03 -.283945856758968D+03 -.205406957957500D+03 -.261768627693041D+03
 0.359312054139772D+03 0.296593797962181D+03 0.182994609016453D+03 -.343951795613304D+02
 0.297279808478712D+03 -.126479412032133D+02 0.224123489410467D+02 0.296163807254372D+03
 0.000000000000000D+00 0.000000000000000D+00 0.000000000000000D+00 -.000000000000000D+00
 0.567806989905909D+03 0.000000000000000D+00 0.000000000000000D+00 0.567806989905909D+03
 0.585229706658543D+03 0.000000000000000D+00 0.000000000000000D+00 -.585229706658543D+03
 0.464093223576992D+03 -.287618621006636D+03 -.220250390637626D+03 -.261768627693041D+03
 0.351226983864048D+03 0.293754228167497D+03 0.171518521730243D+03 -.343951795613304D+02
 0.296821392534120D+03 -.150221834828786D+02 0.128168772287259D+02 0.296163807254372D+03
 0.408950965892924D+02 0.888657632201727D+01 0.359149916786569D+02 -.174227167526343D+02
 0.555763007164318D+03 0.000000000000000D+00 0.000000000000000D+00 0.555763007164318D+03
 0.555763007164318D+03 0.000000000000000D+00 0.000000000000000D+00 -.555763007164318D+03
 0.454934151710153D+03 -.283945856758968D+03 -.205406957957500D+03 -.261768627693041D+03
 0.359312054139772D+03 0.296593797962181D+03 0.182994609016453D+03 -.343951795613304D+02
 0.000000000000000D+00 0.000000000000000D+00 0.000000000000000D+00 -.000000000000000D+00
 0.297279808478712D+03 -.126479412032133D+02 0.224123489410467D+02 0.296163807254372D+03
 0.567806989905909D+03 0.000000000000000D+00 0.000000000000000D+00 0.567806989905909D+03
 0.585229706658543D+03 0.000000000000000D+00 0.000000000000000D+00 -.585229706658543D+03
 0.464093223576992D+03 -.287618621006636D+03 -.220250390637626D+03 -.261768627693041D+03
 0.351226983864048D+03 0.293754228167497D+03 0.171518521730243D+03 -.343951795613304D+02
 0.408950965892924D+02 0.888657632201727D+01 0.359149916786569D+02 -.174227167526343D+02
 0.296821392534120D+03 -.150221834828786D+02 0.128168772287259D+02 0.296163807254372D+03
0.348274616938D+01 0.000000000000D+00 0.000000000000D+00 0.253124222113D-04 0.000000000000D+00  6 1 -2 25 -24 21 21 2 0.17014771D-01 0.42966151D+00 0.14268570D+06 0.14268570D+06 0.14268570D+06 0.11496508D+01  1  2  2  2  6  2       -2 0.713126245339D+00 0.100000000000D+01
0.169776634848D+01 0.183789564691D+00 -.133746623185D-01 0.253124222113D-04 0.000000000000D+00  6 1 -2 25 -24 21 21 4 0.17014771D-01 0.42966151D+00 0.14268570D+06 0.14268570D+06 0.14268570D+06 0.11496508D+01  1  2  3  2  6  2       -2 0.459467127690D+00 0.100000000000D+01
0.124889494781D+00 0.000000000000D+00 0.000000000000D+00 0.253124222113D-04 0.000000000000D+00  6 1 -2 25 -24 21 21 4 0.17014771D-01 0.42966151D+00 0.14268570D+06 0.14268570D+06 0.14268570D+06 0.11496508D+01  1  2 15  2  6  2       -2 0.337988896392D-01 0.100000000000D+01
-.761617008582D+01 0.000000000000D+00 0.000000000000D+00 0.253124222113D-04 0.000000000000D+00  6 1 -2 25 -24 21 21 4 0.17014771D-01 0.42966151D+00 0.14268570D+06 0.14268570D+06 0.14268570D+06 0.11496508D+01  1  2  4  2  6  2       -2 -.206116689523D+01 0.100000000000D+01
-.418605377014D+02 0.000000000000D+00 -.707731468416D+01 0.253124222113D-04 0.000000000000D+00  6 1 -2 25 -24 21 21 4 0.17014771D-01 0.45555396D+00 0.14268570D+06 0.14268570D+06 0.14268570D+06 0.11496508D+01  1  2  5  2  6  2       -2 -.764950817692D+01 0.100000000000D+01
0.422144813898D+02 0.000000000000D+00 0.706521495386D+01 0.253124222113D-04 0.000000000000D+00  6 1 -2 25 -24 21 21 4 0.17014771D-01 0.42966151D+00 0.14268570D+06 0.14268570D+06 0.14268570D+06 0.11496508D+01  1  2  6  2  6  2       -2 0.114245205346D+02 0.100000000000D+01
-.413120840351D+00 0.000000000000D+00 -.712723435850D-01 0.253124222113D-04 0.000000000000D+00  6 1 21 25 -24 2 21 4 0.17014771D-01 0.45555396D+00 0.14268570D+06 0.14268570D+06 0.14268570D+06 0.11496508D+01  3  4  5  5  5  2       -2 -.761242622023D+00 0.100000000000D+01
  </mgrwgt>
  </event>
  <event>
  5     66 0.44337718E-03 0.23649473E+02 0.75467711E-02 0.11917380E+00
        1 -1    0    0  502    0 0.00000000E+00 0.00000000E+00 0.21952292E+02 0.21954624E+02 0.32000000E+00 0.0000E+00 0.9000E+01
       -2 -1    0    0    0  501 0.00000000E+00 0.00000000E+00 -.93900479E+03 0.93900484E+03 0.32000000E+00 0.0000E+00 0.9000E+01
       25  1    1    2    0    0 0.98709025E+01 -.66207476E+02 -.44094209E+03 0.46318008E+03 0.12500000E+03 0.0000E+00 0.9000E+01
      -24  1    1    2    0    0 -.14048608E+02 0.89474238E+02 -.41250057E+03 0.42991504E+03 0.80419002E+02 0.0000E+00 0.9000E+01
       21  1    1    2  502  501 0.41777054E+01 -.23266762E+02 -.63609830E+02 0.67864339E+02 0.75000000E+00 0.0000E+00 0.9000E+01
#aMCatNLO 1  0  0  1  2 0.26855701D+02 0.00000000D+00  -5  6  0 0.00000000D+00 0.00000000D+00 0.00000000D+00 0.00000000D+00 0.00000000D+00
  <mgrwgt>
 0.8239385213D-01    4    2    0
 0.143577343892637D+03 0.000000000000000D+00 0.000000000000000D+00 0.143577343892637D+03
 0.143577343892637D+03 0.000000000000000D+00 0.000000000000000D+00 -.143577343892637D+03
 0.141838050392574D+03 0.986989112206529D+01 -.662018431500617D+02 0.359635258831135D+01
 0.121353791310377D+03 -.140494732191579D+02 0.894790570316048D+02 -.745904591961127D+01
 0.239628460823231D+02 0.417958209709257D+01 -.232772138815431D+02 0.386269333129991D+01
 0.000000000000000D+00 -.000000000000000D+00 -.000000000000000D+00 -.000000000000000D+00
 0.150145419197624D+03 0.000000000000000D+00 0.000000000000000D+00 0.150145419197624D+03
 0.174550798729258D+03 0.000000000000000D+00 0.000000000000000D+00 -.174550798729258D+03
 0.139817363448415D+03 0.208389307405986D+02 -.589635509049044D+02 0.359635258831135D+01
 0.125395754803155D+03 -.443983884265524D+01 0.958202996932424D+02 -.745904591961127D+01
 0.231946545565068D+02 0.601612585730009D+01 -.220653082891025D+02 0.386269333129991D+01
 0.362884451188047D+02 -.224152177552434D+02 -.147914404992354D+02 -.244053795316339D+02
0.533136437940D-03 0.000000000000D+00 0.000000000000D+00 0.379176040974D-04 0.000000000000D+00  6 1 -2 25 -24 21 21 2 0.33774592D-02 0.14446246D+00 0.20530056D+05 0.20530056D+05 0.20530056D+05 0.12325774D+01  1  2  2  1  6  1        1 0.696218389430D-01 0.100000000000D+01
0.114869100271D-03 0.281343827786D-04 -.204738429974D-05 0.379176040974D-04 0.000000000000D+00  6 1 -2 25 -24 21 21 4 0.33774592D-02 0.14446246D+00 0.20530056D+05 0.20530056D+05 0.20530056D+05 0.12325774D+01  1  2  3  1  6  1        1 0.227897053824D-01 0.100000000000D+01
0.886048626697D-05 0.000000000000D+00 0.000000000000D+00 0.379176040974D-04 0.000000000000D+00  6 1 -2 25 -24 21 21 4 0.33774592D-02 0.14446246D+00 0.20530056D+05 0.20530056D+05 0.20530056D+05 0.12325774D+01  1  2 15  1  6  1        1 0.175789547488D-02 0.100000000000D+01
-.593536045470D-04 0.000000000000D+00 0.000000000000D+00 0.379176040974D-04 0.000000000000D+00  6 1 -2 25 -24 21 21 4 0.33774592D-02 0.14446246D+00 0.20530056D+05 0.20530056D+05 0.20530056D+05 0.12325774D+01  1  2  4  1  6  1        1 -.117755876717D-01 0.100000000000D+01
  </mgrwgt>
  </event>
  <event>
  6     66 0.44337718E-03 0.19343926E+02 0.75467711E-02 0.11931116E+00
        3 -1    0    0  502    0 0.00000000E+00 0.00000000E+00 0.80163062E+02 0.80164621E+02 0.50000000E+00 0.0000E+00 0.9000E+01
       -4 -1    0    0    0  501 -.00000000E+00 -.00000000E+00 -.58355453E+03 0.58355659E+03 0.15500000E+01 0.0000E+00 0.9000E+01
       25  1    1    2    0    0 0.10722877E+03 -.24489855E+02 -.43796138E+03 0.46854341E+03 0.12500000E+03 0.0000E+00 0.9000E+01
      -24  1    1    2    0    0 -.82173887E+02 0.25875320E+02 0.58599901E+01 0.11799845E+03 0.80419002E+02 0.0000E+00 0.9000E+01
       21  1    1    2  503  501 -.42057027E+01 0.45353255E+01 -.28899534E+02 0.29563536E+02 0.75000000E+00 0.0000E+00 0.9000E+01
       21  1    1    2  502  503 -.20849178E+02 -.59207900E+01 -.42390549E+02 0.47615807E+02 0.75000000E+00 0.0000E+00 0.9000E+01
#aMCatNLO 2  0  0  5  1 0.68472772D+01 0.00000000D+00  -5  6  0 0.00000000D+00 0.00000000D+00 0.00000000D+00 0.00000000D+00 0.00000000D+00
  <mgrwgt>
 0.7329245813D-02    3    2    0
 0.216288507747595D+03 0.000000000000000D+00 0.000000000000000D+00 0.216288507747595D+03
 0.216288507747595D+03 -.000000000000000D+00 -.000000000000000D+00 -.216288507747595D+03
 0.209301933681450D+03 0.108620028372982D+03 -.244129223928650D+02 -.125650300832456D+03
 0.188098932789612D+03 -.809241708673139D+02 0.259444254620868D+02 0.147282578464326D+03
 0.351761490241274D+02 -.276958575056680D+02 -.153150306922187D+01 -.216322776318704D+02
 0.000000000000000D+00 0.000000000000000D+00 -.000000000000000D+00 0.000000000000000D+00
 0.216288507747595D+03 0.000000000000000D+00 0.000000000000000D+00 0.216288507747595D+03
 0.216288507747595D+03 -.000000000000000D+00 -.000000000000000D+00 -.216288507747595D+03
 0.209251806256397D+03 0.107322024603092D+03 -.244846983527550D+02 -.126664126741681D+03
 0.187884286473432D+03 -.820901564731079D+02 0.258799497355788D+02 0.146371867382926D+03
 0.108979264639867D+02 -.376902373402743D+01 0.432254440383230D+01 -.926686954606019D+01
 0.245429963013729D+02 -.214628443959568D+02 -.571779578665604D+01 -.104408710951840D+02
-.255743703576D-03 0.000000000000D+00 0.000000000000D+00 0.125075740842D-04 0.000000000000D+00  6 3 -4 25 -24 21 21 4 0.12333057D-01 0.89777898D-01 0.24383251D+05 0.24383251D+05 0.24383251D+05 0.12244624D+01  1  2 13  3  6  5       21 -.659346977965D-02 0.100000000000D+01
-.242989646517D-03 0.000000000000D+00 0.000000000000D+00 0.125075740842D-04 0.000000000000D+00  6 3 -4 25 -24 21 21 4 0.12333057D-01 0.89777898D-01 0.24383251D+05 0.24383251D+05 0.24383251D+05 0.12244624D+01  1  2 13  3  6  5       21 -.626465038503D-02 0.100000000000D+01
0.783015910142D-03 0.000000000000D+00 0.000000000000D+00 0.125086417911D-04 0.300930604953D-05  6 3 -4 25 -24 21 21 4 0.12333057D-01 0.89777898D-01 0.24383251D+05 0.24383251D+05 0.24383251D+05 0.12244624D+01  1  2  1  3  6  5       21 0.201873659774D-01 0.100000000000D+01
  </mgrwgt>
  </event>
  <event>
  5     66 0.44337718E-03 0.45163577E+02 0.75467711E-02 0.12094698E+00
        1 -1    0    0  502    0 0.00000000E+00 0.00000000E+00 0.85857144E+03 0.85857150E+03 0.32000000E+00 0.0000E+00 0.9000E+01
       -2 -1    0    0    0  501 0.00000000E+00 0.00000000E+00 -.24319752E+02 0.24321857E+02 0.32000000E+00 0.0000E+00 0.9000E+01
       25  1    1    2    0    0 -.35922024E+02 -.35297328E+02 0.37075157E+03 0.39448450E+03 0.12500000E+03 0.0000E+00 0.9000E+01
      -24  1    1    2    0    0 0.54902368E+01 0.68662189E+02 0.36498438E+03 0.38003349E+03 0.80419002E+02 0.0000E+00 0.9000E+01
       21  1    1    2  502  501 0.30431787E+02 -.33364861E+02 0.98515737E+02 0.10837537E+03 0.75000000E+00 0.0000E+00 0.9000E+01
#aMCatNLO 1  0  0  5  1 0.68472772D+01 0.00000000D+00  -5  6  0 0.00000000D+00 0.00000000D+00 0.00000000D+00 0.00000000D+00 0.00000000D+00
  <mgrwgt>
 0.1148066806D-01    1    2    0
 0.144503288273125D+03 0.000000000000000D+00 0.000000000000000D+00 0.144503288273125D+03
 0.144503288273125D+03 -.000000000000000D+00 -.000000000000000D+00 -.144503288273125D+03
 0.134902121296126D+03 -.359238563348367D+02 -.352953194926479D+02 -.610731513355092D+01
 0.107404161626431D+03 0.548877807553278D+01 0.686637881829376D+02 0.179887600437651D+02
 0.467002936236941D+02 0.304350782593039D+02 -.333684686902897D+02 -.118814449102142D+02
 0.000000000000000D+00 -.000000000000000D+00 0.000000000000000D+00 0.000000000000000D+00
 0.144503288273125D+03 0.000000000000000D+00 0.000000000000000D+00 0.144503288273125D+03
 0.144503288273125D+03 -.000000000000000D+00 -.000000000000000D+00 -.144503288273125D+03
 0.135595270147403D+03 -.289256686524985D+02 -.429680057455734D+02 -.883931341233379D+01
 0.103762270024707D+03 0.109519816688022D+02 0.626740306900367D+02 0.158559988931716D+02
 0.226822041844354D+02 0.198091021241281D+02 0.232845738389313D+00 0.110466122663193D+02
 0.269668321897048D+02 -.183541514043182D+01 -.199388706828526D+02 -.180632977471572D+02
0.926905319605D-05 0.000000000000D+00 0.000000000000D+00 0.114661193676D-04 0.000000000000D+00  6 1 -2 25 -24 21 21 4 0.13208808D+00 0.37416669D-02 0.20422466D+05 0.20422466D+05 0.20422466D+05 0.12328279D+01  1  2 14  3  6  5       21 0.114806680583D-01 0.100000000000D+01
  </mgrwgt>
  </event>
  <event>
  5     66 0.44337718E-03 0.43799785E+02 0.75467711E-02 0.12110259E+00
        1 -1    0    0  502    0 0.00000000E+00 0.00000000E+00 0.13545020E+04 0.13545020E+04 0.32000000E+00 0.0000E+00 0.9000E+01
       -2 -1    0    0    0  501 0.00000000E+00 0.00000000E+00 -.18427642E+02 0.18430420E+02 0.32000000E+00 0.0000E+00 0.9000E+01
       25  1    1    2    0    0 -.73185727E+02 0.80578085E+01 0.58675296E+03 0.60442131E+03 0.12500000E+03 0.0000E+00 0.9000E+01
      -24  1    1    2    0    0 0.30708984E+02 0.67652722E+01 0.68257446E+03 0.68801447E+03 0.80419002E+02 0.0000E+00 0.9000E+01
       21  1    1    2  502  501 0.42476743E+02 -.14823081E+02 0.66746898E+02 0.80496636E+02 0.75000000E+00 0.0000E+00 0.9000E+01
#aMCatNLO 1  0  0  5  1 0.61148196D+01 0.00000000D+00  -5  6  0 0.00000000D+00 0.00000000D+00 0.00000000D+00 0.00000000D+00 0.00000000D+00
  <mgrwgt>
 0.1474285920D+00   14    2    0
 0.157994336054354D+03 0.000000000000000D+00 0.000000000000000D+00 0.157994336054354D+03
 0.157994336054354D+03 -.000000000000000D+00 -.000000000000000D+00 -.157994336054354D+03
 0.145208445169030D+03 -.731869315213145D+02 0.805822870533890D+01 -.626342981392381D+01
 0.103254569498258D+03 0.307081280328852D+02 0.676557097472570D+01 0.566173832846578D+02
 0.675256574414209D+02 0.424788034884293D+02 -.148237996800646D+02 -.503539534707340D+02
 0.000000000000000D+00 0.000000000000000D+00 0.000000000000000D+00 0.000000000000000D+00
 0.157994336054354D+03 0.000000000000000D+00 0.000000000000000D+00 0.157994336054354D+03
 0.157994336054354D+03 -.000000000000000D+00 -.000000000000000D+00 -.157994336054354D+03
 0.143840984493841D+03 -.701330978135584D+02 0.699253439612096D+01 -.988341408371612D+01
 0.102493458551252D+03 0.328818748003318D+02 0.600700001722230D+01 0.540406453684173D+02
 0.691367736511771D+01 -.612503782262720D+01 0.274947333726206D+01 -.165022505980633D+01
 0.627405516984979D+02 0.433762608358537D+02 -.157490077506053D+02 -.425070062248948D+02
0.242462989421D-03 0.000000000000D+00 0.000000000000D+00 0.117772593023D-04 0.000000000000D+00  6 1 -2 25 -24 21 21 2 0.20838513D+00 0.28352385D-02 0.19100946D+05 0.19100946D+05 0.19100946D+05 0.12360312D+01  1  2  2  3  6  5       21 0.132657041316D+00 0.100000000000D+01
0.224113426140D-05 0.127951234779D-04 -.931121721347D-06 0.117772593023D-04 0.000000000000D+00  6 1 -2 25 -24 21 21 4 0.20838513D+00 0.28352385D-02 0.19100946D+05 0.19100946D+05 0.19100946D+05 0.12360312D+01  1  2  3  3  6  5       21 0.187331840592D-02 0.100000000000D+01
0.114687391439D-04 0.000000000000D+00 0.000000000000D+00 0.117772593023D-04 0.000000000000D+00  6 1 -2 25 -24 21 21 4 0.20838513D+00 0.28352385D-02 0.19100946D+05 0.19100946D+05 0.19100946D+05 0.12360312D+01  1  2 15  3  6  5       21 0.958648506741D-02 0.100000000000D+01
0.739003858121D-05 0.000000000000D+00 0.000000000000D+00 0.117313683351D-04 0.000000000000D+00  6 1 -2 25 -24 21 21 4 0.20838513D+00 0.28352385D-02 0.20086097D+05 0.20086097D+05 0.20086097D+05 0.12336207D+01  1  2 12  3  6  5       21 0.613288098486D-02 0.100000000000D+01
-.185090431375D-04 0.000000000000D+00 0.000000000000D+00 0.117772593023D-04 0.000000000000D+00  6 1 -2 25 -24 21 21 4 0.20838513D+00 0.28352385D-02 0.19100946D+05 0.19100946D+05 0.19100946D+05 0.12360312D+01  1  2  4  3  6  5       21 -.154713315408D-01 0.100000000000D+01
0.431069945917D-06 0.000000000000D+00 0.000000000000D+00 0.117772593023D-04 0.506394412936D-06  6 1 -2 25 -24 21 21 4 0.20838513D+00 0.28352385D-02 0.20086097D+05 0.20086097D+05 0.20086097D+05 0.12336207D+01  1  2 11  3  6  5       21 0.357738413055D-03 0.100000000000D+01
0.271038895168D-05 0.000000000000D+00 0.000000000000D+00 0.117313683351D-04 0.000000000000D+00  6 1 -2 25 -24 1 -1 4 0.20838513D+00 0.28352385D-02 0.20086097D+05 0.20086097D+05 0.20086097D+05 0.12336207D+01  1  2 12  6  6  5       21 0.224931070125D-02 0.100000000000D+01
0.852867132393D-06 0.000000000000D+00 0.000000000000D+00 0.117313683351D-04 0.123260730619D-07  6 1 -2 25 -24 1 -1 4 0.20838513D+00 0.28352385D-02 0.20086097D+05 0.20086097D+05 0.20086097D+05 0.12336207D+01  1  2 11  6  6  5       21 0.707781503626D-03 0.100000000000D+01
0.271038895168D-05 0.000000000000D+00 0.000000000000D+00 0.117313683351D-04 0.000000000000D+00  6 1 -2 25 -24 2 -2 4 0.20838513D+00 0.28352385D-02 0.20086097D+05 0.20086097D+05 0.20086097D+05 0.12336207D+01  1  2 12  7  6  5       21 0.224931070125D-02 0.100000000000D+01
0.104688104919D-05 0.000000000000D+00 0.000000000000D+00 0.117313683351D-04 0.122846608712D-07  6 1 -2 25 -24 2 -2 4 0.20838513D+00 0.28352385D-02 0.20086097D+05 0.20086097D+05 0.20086097D+05 0.12336207D+01  1  2 11  7  6  5       21 0.868790711909D-03 0.100000000000D+01
0.271038895168D-05 0.000000000000D+00 0.000000000000D+00 0.117313683351D-04 0.000000000000D+00  6 1 -2 25 -24 3 -3 4 0.20838513D+00 0.28352385D-02 0.20086097D+05 0.20086097D+05 0.20086097D+05 0.12336207D+01  1  2 12  8  6  5       21 0.224931070125D-02 0.100000000000D+01
0.271038895168D-05 0.000000000000D+00 0.000000000000D+00 0.117313683351D-04 0.000000000000D+00  6 1 -2 25 -24 4 -4 4 0.20838513D+00 0.28352385D-02 0.20086097D+05 0.20086097D+05 0.20086097D+05 0.12336207D+01  1  2 12  8  6  5       21 0.224931070125D-02 0.100000000000D+01
0.103547158573D-05 0.000000000000D+00 0.000000000000D+00 0.117313683351D-04 0.110813246501D-07  6 1 -2 25 -24 3 -3 4 0.20838513D+00 0.28352385D-02 0.20086097D+05 0.20086097D+05 0.20086097D+05 0.12336207D+01  1  2 11  8  6  5       21 0.859322171152D-03 0.100000000000D+01
0.103547158573D-05 0.000000000000D+00 0.000000000000D+00 0.117313683351D-04 0.110813246501D-07  6 1 -2 25 -24 4 -4 4 0.20838513D+00 0.28352385D-02 0.20086097D+05 0.20086097D+05 0.20086097D+05 0.12336207D+01  1  2 11  8  6  5       21 0.859322171152D-03 0.100000000000D+01
  </mgrwgt>
  </event>
  <event>
  6     66 0.44337718E-03 0.64305522E+02 0.75467711E-02 0.11831987E+00
        1 -1    0    0  502    0 0.00000000E+00 0.00000000E+00 0.84770649E+03 0.84770655E+03 0.32000000E+00 0.0000E+00 0.9000E+01
       21 -1    0    0  503  501 0.00000000E+00 0.00000000E+00 -.72124472E+02 0.72128371E+02 0.75000000E+00 0.0000E+00 0.9000E+01
       25  1    1    2    0    0 0.39497853E+01 0.98293711E+02 0.21313894E+03 0.26595200E+03 0.12500000E+03 0.0000E+00 0.9000E+01
      -24  1    1    2    0    0 0.27591327E+02 -.45407299E+02 0.57083527E+03 0.57891556E+03 0.80419002E+02 0.0000E+00 0.9000E+01
        2  1    1    2  503    0 0.57378403E+01 0.36225266E+01 -.65005652E+00 0.68242570E+01 0.32000000E+00 0.0000E+00 0.9000E+01
       21  1    1    2  502  501 -.37278953E+02 -.56508939E+02 -.77421371E+01 0.68143112E+02 0.75000000E+00 0.0000E+00 0.9000E+01
#aMCatNLO 2  0  0  2  2 0.67856842D+01 0.00000000D+00  -5  6  0 0.00000000D+00 0.00000000D+00 0.00000000D+00 0.00000000D+00 0.00000000D+00
  <mgrwgt>
 0.1213282369D+00    1    2    0
 0.240315519404345D+03 0.000000000000000D+00 0.000000000000000D+00 0.240315519404345D+03
 0.240315519404345D+03 0.000000000000000D+00 0.000000000000000D+00 -.240315519404345D+03
 0.161767529901038D+03 0.587626162897301D+01 0.995101290127804D+02 -.246361016277137D+02
 0.177786070243104D+03 0.297138073752590D+02 -.440671207446451D+02 0.149384903315758D+03
 0.000000000000000D+00 0.000000000000000D+00 0.000000000000000D+00 -.000000000000000D+00
 0.141077438664548D+03 -.355900690042320D+02 -.554430082681353D+02 -.124748801688044D+03
 0.241216090647321D+03 0.000000000000000D+00 0.000000000000000D+00 0.241216090647321D+03
 0.253470988404924D+03 0.000000000000000D+00 0.000000000000000D+00 -.253470988404924D+03
 0.160963489680895D+03 0.394995368931777D+01 0.982939742440642D+02 -.246361016277137D+02
 0.177781195322135D+03 0.275915073632332D+02 -.454070130988932D+02 0.149384903315758D+03
 0.140081415311296D+02 0.573784026795038D+01 0.362252662741376D+01 -.122548977576039D+02
 0.141934252518085D+03 -.372793013205013D+02 -.565094877725847D+02 -.124748801688044D+03
0.343366382376D-04 0.000000000000D+00 0.000000000000D+00 0.442451450509D-05 0.979766065331D-08  6 1 21 25 -24 2 21 4 0.13041570D+00 0.11096293D-01 0.27214649D+05 0.27214649D+05 0.27214649D+05 0.12193651D+01  1  2  1  5  5  2       -2 0.121328236880D+00 0.100000000000D+01
  </mgrwgt>
  </event>
  <event>
  5     66 0.44337718E-03 0.22950318E+02 0.75467711E-02 0.12470242E+00
        1 -1    0    0  502    0 0.00000000E+00 0.00000000E+00 0.23031404E+04 0.23031404E+04 0.32000000E+00 0.0000E+00 0.9000E+01
       -2 -1    0    0    0  501 0.00000000E+00 0.00000000E+00 -.31630117E+02 0.31631736E+02 0.32000000E+00 0.0000E+00 0.9000E+01
       25  1    1    2    0    0 -.15754736E+02 0.76095169E+01 0.13210510E+04 0.13270671E+04 0.12500000E+03 0.0000E+00 0.9000E+01
      -24  1    1    2    0    0 0.89320768E+01 -.29522188E+02 0.97224475E+03 0.97605246E+03 0.80419002E+02 0.0000E+00 0.9000E+01
       21  1    1    2  502  501 0.68226591E+01 0.21912671E+02 -.21785554E+02 0.31652594E+02 0.75000000E+00 0.0000E+00 0.9000E+01
#aMCatNLO 1  0  0  5  2 0.80118827D+00 0.00000000D+00  -5  6  0 0.00000000D+00 0.00000000D+00 0.00000000D+00 0.00000000D+00 0.00000000D+00
  <mgrwgt>
 0.2493328510D+01   25    2    0
 0.269908346646028D+03 0.000000000000000D+00 0.000000000000000D+00 0.269908346646028D+03
 0.269908346646028D+03 -.000000000000000D+00 -.000000000000000D+00 -.269908346646028D+03
 0.180836104672771D+03 -.157547481839824D+02 0.760947739810248D+01 0.129501276119614D+03
 0.130407772697968D+03 0.893206795354393D+01 -.295222161655881D+02 0.979164344756280D+02
 0.228572815921317D+03 0.682268023043851D+01 0.219127387674856D+02 -.227417710595242D+03
 0.000000000000000D+00 0.000000000000000D+00 0.000000000000000D+00 0.000000000000000D+00
 0.269908346646028D+03 0.000000000000000D+00 0.000000000000000D+00 0.269908346646028D+03
 0.269908346646028D+03 -.000000000000000D+00 -.000000000000000D+00 -.269908346646028D+03
 0.180834754925952D+03 -.157546915247870D+02 0.760965937323631D+01 0.129499387520988D+03
 0.130406723181454D+03 0.893210881262643D+01 -.295220849364566D+02 0.979150725359378D+02
 0.124989484680812D+03 0.361420863902556D+01 0.111935292854784D+02 -.124434776806259D+03
 0.103585730503838D+03 0.320837407313503D+01 0.107188962777419D+02 -.102979683250667D+03
0.286561775751D-04 0.000000000000D+00 0.000000000000D+00 0.165639843627D-03 0.000000000000D+00  6 1 -2 25 -24 21 21 2 0.35432941D+00 0.48662981D-02 0.13841511D+05 0.13841511D+05 0.13841511D+05 0.12518218D+01  1  2  2  3  6  5       21 0.179082400818D-02 0.100000000000D+01
0.762626550358D-05 0.151222803676D-05 -.110047267233D-06 0.165639843627D-03 0.000000000000D+00  6 1 -2 25 -24 21 21 4 0.35432941D+00 0.48662981D-02 0.13841511D+05 0.13841511D+05 0.13841511D+05 0.12518218D+01  1  2  3  3  6  5       21 0.746846912801D-03 0.100000000000D+01
0.983648687664D-06 0.000000000000D+00 0.000000000000D+00 0.165639843627D-03 0.000000000000D+00  6 1 -2 25 -24 21 21 4 0.35432941D+00 0.48662981D-02 0.13841511D+05 0.13841511D+05 0.13841511D+05 0.12518218D+01  1  2 15  3  6  5       21 0.963295842923D-04 0.100000000000D+01
0.814010395646D-07 0.000000000000D+00 0.000000000000D+00 0.165639735821D-03 0.000000000000D+00  6 1 -2 25 -24 21 21 4 0.35432941D+00 0.48662981D-02 0.13841624D+05 0.13841624D+05 0.13841624D+05 0.12518214D+01  1  2 12  3  6  5       21 0.797166387683D-05 0.100000000000D+01
0.810536504854D-07 0.000000000000D+00 0.000000000000D+00 0.165639735821D-03 0.000000000000D+00  6 1 -2 25 -24 21 21 4 0.35432941D+00 0.48662981D-02 0.13841624D+05 0.13841624D+05 0.13841624D+05 0.12518214D+01  1  2 12  3  6  5       21 0.793764380795D-05 0.100000000000D+01
-.197280675510D+00 0.000000000000D+00 0.000000000000D+00 0.165639843627D-03 0.000000000000D+00  6 1 -2 25 -24 21 21 4 0.35432941D+00 0.48662981D-02 0.13841511D+05 0.13841511D+05 0.13841511D+05 0.12518218D+01  1  2  4  3  6  5       21 -.193198707009D+02 0.100000000000D+01
-.141648636315D+00 0.000000000000D+00 0.000000000000D+00 0.165639843627D-03 0.000000000000D+00  6 1 -2 25 -24 21 21 4 0.35432941D+00 0.48662981D-02 0.13841511D+05 0.13841511D+05 0.13841511D+05 0.12518218D+01  1  2  5  3  6  5       21 -.138717759937D+02 0.100000000000D+01
0.223263936324D+00 0.000000000000D+00 -.000000000000D+00 0.165639843627D-03 0.000000000000D+00  6 1 -2 25 -24 21 21 4 0.35432941D+00 0.48662981D-02 0.13841511D+05 0.13841511D+05 0.13841511D+05 0.12518218D+01  1  2  6  3  6  5       21 0.218644343690D+02 0.100000000000D+01
0.141072702382D+00 0.000000000000D+00 0.000000000000D+00 0.165639843627D-03 0.141173924359D-02  6 1 -2 25 -24 21 21 4 0.35432941D+00 0.48662981D-02 0.13841624D+05 0.13841624D+05 0.13841624D+05 0.12518214D+01  1  2 11  3  6  5       21 0.138153538530D+02 0.100000000000D+01
0.175578587926D-08 0.000000000000D+00 0.000000000000D+00 0.165639735821D-03 0.000000000000D+00  6 1 -2 25 -24 1 -1 4 0.35432941D+00 0.48662981D-02 0.13841624D+05 0.13841624D+05 0.13841624D+05 0.12518214D+01  1  2 12  6  6  5       21 0.171945406889D-06 0.100000000000D+01
0.174826963890D-08 0.000000000000D+00 0.000000000000D+00 0.165639735821D-03 0.000000000000D+00  6 1 -2 25 -24 1 -1 4 0.35432941D+00 0.48662981D-02 0.13841624D+05 0.13841624D+05 0.13841624D+05 0.12518214D+01  1  2 12  6  6  5       21 0.171209335924D-06 0.100000000000D+01
-.305578675743D-02 0.000000000000D+00 0.000000000000D+00 0.165639843627D-03 0.000000000000D+00  6 1 -2 25 -24 1 -1 4 0.35432941D+00 0.48662981D-02 0.13841511D+05 0.13841511D+05 0.13841511D+05 0.12518218D+01  1  2  5  6  6  5       21 -.299255894631D+00 0.100000000000D+01
0.303491448528D-02 0.000000000000D+00 0.000000000000D+00 0.165639843627D-03 0.360679132147D-04  6 1 -2 25 -24 1 -1 4 0.35432941D+00 0.48662981D-02 0.13841624D+05 0.13841624D+05 0.13841624D+05 0.12518214D+01  1  2 11  6  6  5       21 0.297211415247D+00 0.100000000000D+01
0.175578587926D-08 0.000000000000D+00 0.000000000000D+00 0.165639735821D-03 0.000000000000D+00  6 1 -2 25 -24 2 -2 4 0.35432941D+00 0.48662981D-02 0.13841624D+05 0.13841624D+05 0.13841624D+05 0.12518214D+01  1  2 12  7  6  5       21 0.171945406889D-06 0.100000000000D+01
0.174826963890D-08 0.000000000000D+00 0.000000000000D+00 0.165639735821D-03 0.000000000000D+00  6 1 -2 25 -24 2 -2 4 0.35432941D+00 0.48662981D-02 0.13841624D+05 0.13841624D+05 0.13841624D+05 0.12518214D+01  1  2 12  7  6  5       21 0.171209335924D-06 0.100000000000D+01
-.305578675743D-02 0.000000000000D+00 0.000000000000D+00 0.165639843627D-03 0.000000000000D+00  6 1 -2 25 -24 2 -2 4 0.35432941D+00 0.48662981D-02 0.13841511D+05 0.13841511D+05 0.13841511D+05 0.12518218D+01  1  2  5  7  6  5       21 -.299255894631D+00 0.100000000000D+01
0.314487677137D-02 0.000000000000D+00 0.000000000000D+00 0.165639843627D-03 0.374010695043D-04  6 1 -2 25 -24 2 -2 4 0.35432941D+00 0.48662981D-02 0.13841624D+05 0.13841624D+05 0.13841624D+05 0.12518214D+01  1  2 11  7  6  5       21 0.307980103074D+00 0.100000000000D+01
0.175578587926D-08 0.000000000000D+00 0.000000000000D+00 0.165639735821D-03 0.000000000000D+00  6 1 -2 25 -24 3 -3 4 0.35432941D+00 0.48662981D-02 0.13841624D+05 0.13841624D+05 0.13841624D+05 0.12518214D+01  1  2 12  8  6  5       21 0.171945406889D-06 0.100000000000D+01
0.175578587926D-08 0.000000000000D+00 0.000000000000D+00 0.165639735821D-03 0.000000000000D+00  6 1 -2 25 -24 4 -4 4 0.35432941D+00 0.48662981D-02 0.13841624D+05 0.13841624D+05 0.13841624D+05 0.12518214D+01  1  2 12  8  6  5       21 0.171945406889D-06 0.100000000000D+01
0.174826963890D-08 0.000000000000D+00 0.000000000000D+00 0.165639735821D-03 0.000000000000D+00  6 1 -2 25 -24 3 -3 4 0.35432941D+00 0.48662981D-02 0.13841624D+05 0.13841624D+05 0.13841624D+05 0.12518214D+01  1  2 12  8  6  5       21 0.171209335924D-06 0.100000000000D+01
0.174826963890D-08 0.000000000000D+00 0.000000000000D+00 0.165639735821D-03 0.000000000000D+00  6 1 -2 25 -24 4 -4 4 0.35432941D+00 0.48662981D-02 0.13841624D+05 0.13841624D+05 0.13841624D+05 0.12518214D+01  1  2 12  8  6  5       21 0.171209335924D-06 0.100000000000D+01
-.305578675743D-02 0.000000000000D+00 0.000000000000D+00 0.165639843627D-03 0.000000000000D+00  6 1 -2 25 -24 3 -3 4 0.35432941D+00 0.48662981D-02 0.13841511D+05 0.13841511D+05 0.13841511D+05 0.12518218D+01  1  2  5  8  6  5       21 -.299255894631D+00 0.100000000000D+01
-.305578675743D-02 0.000000000000D+00 0.000000000000D+00 0.165639843627D-03 0.000000000000D+00  6 1 -2 25 -24 4 -4 4 0.35432941D+00 0.48662981D-02 0.13841511D+05 0.13841511D+05 0.13841511D+05 0.12518218D+01  1  2  5  8  6  5       21 -.299255894631D+00 0.100000000000D+01
0.303463331751D-02 0.000000000000D+00 0.000000000000D+00 0.165639843627D-03 0.360645686821D-04  6 1 -2 25 -24 3 -3 4 0.35432941D+00 0.48662981D-02 0.13841624D+05 0.13841624D+05 0.13841624D+05 0.12518214D+01  1  2 11  8  6  5       21 0.297183880280D+00 0.100000000000D+01
0.303463331751D-02 0.000000000000D+00 0.000000000000D+00 0.165639843627D-03 0.360645686821D-04  6 1 -2 25 -24 4 -4 4 0.35432941D+00 0.48662981D-02 0.13841624D+05 0.13841624D+05 0.13841624D+05 0.12518214D+01  1  2 11  8  6  5       21 0.297183880280D+00 0.100000000000D+01
  </mgrwgt>
  </event>
  <event>
  6     66 -.44337718E-03 0.49260441E+02 0.75467711E-02 0.11285045E+00
        1 -1    0    0  502    0 0.00000000E+00 0.00000000E+00 0.15520286E+04 0.15520286E+04 0.32000000E+00 0.0000E+00 0.9000E+01
       -2 -1    0    0    0  501 0.00000000E+00 0.00000000E+00 -.46332922E+02 0.46334027E+02 0.32000000E+00 0.0000E+00 0.9000E+01
       25  1    1    2    0    0 -.44806761E+02 -.14634381E+03 0.27481168E+03 0.33848282E+03 0.12500000E+03 0.0000E+00 0.9000E+01
      -24  1    1    2    0    0 0.10365667E+03 0.14815170E+03 0.10425569E+04 0.10611719E+04 0.80419002E+02 0.0000E+00 0.9000E+01
        4  1    1    2  502    0 -.26664132E+02 -.29803063E+01 0.51017573E+02 0.57663276E+02 0.15500000E+01 0.0000E+00 0.9000E+01
       -4  1    1    2    0  501 -.32185781E+02 0.11724096E+01 0.13730951E+03 0.14104469E+03 0.15500000E+01 0.0000E+00 0.9000E+01
#aMCatNLO 2  0  0  5  1 0.11352325D+02 0.00000000D+00  -5  6  0 0.00000000D+00 0.00000000D+00 0.00000000D+00 0.00000000D+00 0.00000000D+00
  <mgrwgt>
 -.3703660335D-02    3    2    0
 0.268162132163552D+03 0.000000000000000D+00 0.000000000000000D+00 0.268162132163552D+03
 0.268162132163552D+03 -.000000000000000D+00 -.000000000000000D+00 -.268162132163552D+03
 0.236893685533358D+03 -.428130186630381D+02 -.146282559009687D+03 -.131385222183142D+03
 0.236467702749521D+03 0.105641791968301D+03 0.148212688248432D+03 0.127759811056390D+03
 0.629628760442247D+02 -.628287733052633D+02 -.193012923874516D+01 0.362541112675177D+01
 0.000000000000000D+00 0.000000000000000D+00 0.000000000000000D+00 0.000000000000000D+00
 0.268162132163552D+03 0.000000000000000D+00 0.000000000000000D+00 0.268162132163552D+03
 0.268162132163552D+03 -.000000000000000D+00 -.000000000000000D+00 -.268162132163552D+03
 0.237220196532827D+03 -.447156707608731D+02 -.146341009370119D+03 -.131275433375833D+03
 0.235650068219554D+03 0.103747150403611D+03 0.148154483975317D+03 0.127869137631596D+03
 0.273945921601194D+02 -.254553594142209D+02 -.290260907363429D+01 -.969861934904990D+01
 0.360594074146043D+02 -.335761202285166D+02 0.108913446843628D+01 0.131049150932877D+02
-.151177003993D-04 0.000000000000D+00 0.000000000000D+00 0.288391750725D-05 0.000000000000D+00  6 1 -2 25 -24 4 -4 4 0.23877372D+00 0.71282293D-02 0.51697224D+05 0.51697224D+05 0.51697224D+05 0.11908487D+01  1  2 13  8  6  5       21 -.201255835056D-02 0.100000000000D+01
-.151470048570D-04 0.000000000000D+00 0.000000000000D+00 0.288391750725D-05 0.000000000000D+00  6 1 -2 25 -24 4 -4 4 0.23877372D+00 0.71282293D-02 0.51697224D+05 0.51697224D+05 0.51697224D+05 0.11908487D+01  1  2 13  8  6  5       21 -.201645953458D-02 0.100000000000D+01
0.244398278689D-05 0.000000000000D+00 0.000000000000D+00 0.288008655328D-05 0.335182121284D-09  6 1 -2 25 -24 4 -4 4 0.23877372D+00 0.71282293D-02 0.51697224D+05 0.51697224D+05 0.51697224D+05 0.11908487D+01  1  2  1  8  6  5       21 0.325357550189D-03 0.100000000000D+01
  </mgrwgt>
  </event>
  <event>
  6     66 -.44337718E-03 0.20145768E+02 0.75467711E-02 0.12368116E+00
        1 -1    0    0  503    0 0.00000000E+00 0.00000000E+00 0.24946202E+03 0.24946223E+03 0.32000000E+00 0.0000E+00 0.9000E+01
       -2 -1    0    0    0  501 0.00000000E+00 0.00000000E+00 -.11502745E+03 0.11502789E+03 0.32000000E+00 0.0000E+00 0.9000E+01
       25  1    1    2    0    0 0.70239950E+01 -.41141116E+02 0.88422222E+02 0.15869914E+03 0.12500000E+03 0.0000E+00 0.9000E+01
      -24  1    1    2    0    0 0.65571033E+01 0.30490379E+02 0.93645977E+02 0.12731631E+03 0.80419002E+02 0.0000E+00 0.9000E+01
       21  1    1    2  502  501 -.19699388E+02 0.12526875E+02 -.60079379E+02 0.64459931E+02 0.75000000E+00 0.0000E+00 0.9000E+01
       21  1    1    2  503  502 0.61182894E+01 -.18761386E+01 0.12445758E+02 0.14014734E+02 0.75000000E+00 0.0000E+00 0.9000E+01
#aMCatNLO 2  0  0  1  5 0.63994813D+01 0.00000000D+00  -5  6  0 0.00000000D+00 0.00000000D+00 0.00000000D+00 0.00000000D+00 0.00000000D+00
  <mgrwgt>
 -.5486879540D+00    3    2    0
 0.164248873965079D+03 0.000000000000000D+00 0.000000000000000D+00 0.164248873965079D+03
 0.164248873965079D+03 0.000000000000000D+00 0.000000000000000D+00 -.164248873965079D+03
 0.136846938347522D+03 0.956913751798070D+01 -.419216616393971D+02 0.353990173259702D+02
 0.101006894912056D+03 0.843867081372567D+01 0.299133388003561D+02 0.526227884297021D+02
 0.906439146705801D+02 -.180078083317064D+02 0.120083228390409D+02 -.880218057556723D+02
 0.000000000000000D+00 0.000000000000000D+00 -.000000000000000D+00 0.000000000000000D+00
 0.173466365037991D+03 0.000000000000000D+00 0.000000000000000D+00 0.173466365037991D+03
 0.165394557645749D+03 0.000000000000000D+00 0.000000000000000D+00 -.165394557645749D+03
 0.136455251800395D+03 0.702424446537834D+01 -.411412846901449D+02 0.353990173259702D+02
 0.101039732082097D+03 0.655728429040191D+01 0.304902552542457D+02 0.526227884297021D+02
 0.910650924449047D+02 -.196998181526053D+02 0.125271680065373D+02 -.880218057556723D+02
 0.103008463563431D+02 0.611828939682507D+01 -.187613857063809D+01 0.807180739224177D+01
-.135136860600D-02 0.000000000000D+00 0.000000000000D+00 0.697686153744D-04 0.000000000000D+00  6 1 -2 25 -24 21 21 4 0.38606309D-01 0.17572555D-01 0.15349150D+05 0.15349150D+05 0.15349150D+05 0.12466849D+01  1  2 13  1  6  1        1 -.798449978069D+00 0.100000000000D+01
-.551472350172D-03 0.000000000000D+00 0.000000000000D+00 0.701208570326D-04 0.000000000000D+00  6 1 -2 25 -24 21 21 4 0.36336506D-01 0.17572555D-01 0.14405985D+05 0.14405985D+05 0.14405985D+05 0.12498280D+01  1  2  8  1  6  1        1 -.354126204478D+00 0.100000000000D+01
0.102633150742D-02 0.000000000000D+00 0.000000000000D+00 0.701208570326D-04 0.597621591146D-05  6 1 -2 25 -24 21 21 4 0.38375676D-01 0.17695129D-01 0.15349150D+05 0.15349150D+05 0.15349150D+05 0.12466849D+01  1  2  1  1  6  1        1 0.603888228506D+00 0.100000000000D+01
  </mgrwgt>
  </event>
  <event>
  6     66 -.44337718E-03 0.72617264E+02 0.75467711E-02 0.11767930E+00
        1 -1    0    0  503    0 0.00000000E+00 0.00000000E+00 0.13855307E+04 0.13855308E+04 0.32000000E+00 0.0000E+00 0.9000E+01
       -2 -1    0    0    0  501 0.00000000E+00 0.00000000E+00 -.52523576E+02 0.52524550E+02 0.32000000E+00 0.0000E+00 0.9000E+01
       25  1    1    2    0    0 -.82339381E+02 -.31670559E+02 0.61844885E+03 0.63709244E+03 0.12500000E+03 0.0000E+00 0.9000E+01
      -24  1    1    2    0    0 0.49363449E+02 -.28372145E+02 0.68731891E+03 0.69434590E+03 0.80419002E+02 0.0000E+00 0.9000E+01
       21  1    1    2  502  501 0.31706542E+02 0.71897280E+02 0.19020507E+01 0.78604733E+02 0.75000000E+00 0.0000E+00 0.9000E+01
       21  1    1    2  503  502 0.12693910E+01 -.11854576E+02 0.25337338E+02 0.28012239E+02 0.75000000E+00 0.0000E+00 0.9000E+01
#aMCatNLO 2  0  0  1  5 0.11922345D+02 0.00000000D+00  -5  6  0 0.00000000D+00 0.00000000D+00 0.00000000D+00 0.00000000D+00 0.00000000D+00
  <mgrwgt>
 -.7244358124D-01    3    2    0
 0.263665978468706D+03 0.000000000000000D+00 0.000000000000000D+00 0.263665978468706D+03
 0.263665978468706D+03 0.000000000000000D+00 0.000000000000000D+00 -.263665978468706D+03
 0.170427641380408D+03 -.819299226831236D+02 -.354952124082877D+02 0.738116427924267D+02
 0.152978764913953D+03 0.497306301411922D+02 -.318018978905614D+02 0.115977542121508D+03
 0.203925550643052D+03 0.321992925419314D+02 0.672971102988491D+02 -.189789184913935D+03
 0.000000000000000D+00 0.000000000000000D+00 -.000000000000000D+00 -.000000000000000D+00
 0.268898895945887D+03 0.000000000000000D+00 0.000000000000000D+00 0.268898895945887D+03
 0.270612713281195D+03 0.000000000000000D+00 0.000000000000000D+00 -.270612713281195D+03
 0.169870472193988D+03 -.823394523768472D+02 -.316707008759309D+02 0.738116427924267D+02
 0.152183230840923D+03 0.493633847946198D+02 -.283722709680296D+02 0.115977542121508D+03
 0.205413011670037D+03 0.317066765403541D+02 0.718975473561133D+02 -.189789184913935D+03
 0.120448945221336D+02 0.126939104187331D+01 -.118545755121529D+02 -.171381733530767D+01
-.537627103042D-03 0.000000000000D+00 0.000000000000D+00 0.819531343967D-05 0.000000000000D+00  6 1 -2 25 -24 21 21 4 0.21675641D+00 0.78728545D-02 0.29246285D+05 0.29246285D+05 0.29246285D+05 0.12160599D+01  1  2 13  1  6  1        1 -.834173477742D-01 0.100000000000D+01
-.286864108304D-03 0.000000000000D+00 0.000000000000D+00 0.824735808511D-05 0.000000000000D+00  6 1 -2 25 -24 21 21 4 0.20900143D+00 0.78728545D-02 0.26892127D+05 0.26892127D+05 0.26892127D+05 0.12199151D+01  1  2  8  1  6  1        1 -.487211444854D-01 0.100000000000D+01
0.386511672097D-03 0.000000000000D+00 0.000000000000D+00 0.824735808511D-05 0.158641584192D-06  6 1 -2 25 -24 21 21 4 0.21314943D+00 0.80802784D-02 0.29246285D+05 0.29246285D+05 0.29246285D+05 0.12160599D+01  1  2  1  1  6  1        1 0.596949110172D-01 0.100000000000D+01
  </mgrwgt>
  </event>
  <event>
  5     66 0.44337718E-03 0.35528951E+02 0.75467711E-02 0.11779879E+00
        3 -1    0    0  502    0 0.00000000E+00 0.00000000E+00 0.98372664E+03 0.98372677E+03 0.50000000E+00 0.0000E+00 0.9000E+01
       -4 -1    0    0    0  501 0.00000000E+00 0.00000000E+00 -.25351689E+02 0.25399028E+02 0.15500000E+01 0.0000E+00 0.9000E+01
       25  1    1    2    0    0 0.15959127E+02 -.18329433E+02 0.44407088E+03 0.46196819E+03 0.12500000E+03 0.0000E+00 0.9000E+01
      -24  1    1    2    0    0 -.51126335E+01 0.52160961E+02 0.49953660E+03 0.50867567E+03 0.80419002E+02 0.0000E+00 0.9000E+01
       21  1    1    2  502  501 -.10846493E+02 -.33831528E+02 0.14767469E+02 0.38481935E+02 0.75000000E+00 0.0000E+00 0.9000E+01
#aMCatNLO 1  0  0  1  5 0.80581259D+02 0.00000000D+00  -5  6  0 0.00000000D+00 0.00000000D+00 0.00000000D+00 0.00000000D+00 0.00000000D+00
  <mgrwgt>
 0.4000286006D-02    7    4    0
 0.157997091462482D+03 0.000000000000000D+00 0.000000000000000D+00 0.157997091462482D+03
 0.157997091462482D+03 0.000000000000000D+00 0.000000000000000D+00 -.157997091462482D+03
 0.128475918777405D+03 0.159593300512401D+02 -.183287989090051D+02 0.170416143767892D+02
 0.109415371408511D+03 -.511246036682186D+01 0.521615012328578D+02 0.525123612516540D+02
 0.781028927390480D+02 -.108468696844182D+02 -.338327023238527D+02 -.695539756284431D+02
 0.000000000000000D+00 -.000000000000000D+00 -.000000000000000D+00 0.000000000000000D+00
 0.238621499779967D+03 0.000000000000000D+00 0.000000000000000D+00 0.238621499779967D+03
 0.184535165103068D+03 0.000000000000000D+00 0.000000000000000D+00 -.184535165103068D+03
 0.130566126565519D+03 0.321731750548443D+02 0.984802480938355D+01 0.170416143767892D+02
 0.123795835505060D+03 0.948459223517740D+01 0.775286228430094D+02 0.525123612516540D+02
 0.717448654738407D+02 -.146766515186830D+01 -.175332870603158D+02 -.695539756284431D+02
 0.970498373386154D+02 -.401901021381534D+02 -.698433605920772D+02 0.540863346768996D+02
 0.157997091462482D+03 0.000000000000000D+00 0.000000000000000D+00 0.157997091462482D+03
 0.157997091462482D+03 0.000000000000000D+00 0.000000000000000D+00 -.157997091462482D+03
 0.128475918777405D+03 0.159593300512401D+02 -.183287989090051D+02 0.170416143767892D+02
 0.109415371408511D+03 -.511246036682186D+01 0.521615012328578D+02 0.525123612516540D+02
 0.000000000000000D+00 -.000000000000000D+00 -.000000000000000D+00 0.000000000000000D+00
 0.781028927390480D+02 -.108468696844182D+02 -.338327023238527D+02 -.695539756284431D+02
 0.238621499779967D+03 0.000000000000000D+00 0.000000000000000D+00 0.238621499779967D+03
 0.184535165103068D+03 0.000000000000000D+00 0.000000000000000D+00 -.184535165103068D+03
 0.130566126565519D+03 0.321731750548443D+02 0.984802480938355D+01 0.170416143767892D+02
 0.123795835505060D+03 0.948459223517740D+01 0.775286228430094D+02 0.525123612516540D+02
 0.970498373386154D+02 -.401901021381534D+02 -.698433605920772D+02 0.540863346768996D+02
 0.717448654738407D+02 -.146766515186830D+01 -.175332870603158D+02 -.695539756284431D+02
0.863709265659D-04 0.000000000000D+00 0.000000000000D+00 0.224751051755D-04 0.000000000000D+00  6 3 -4 25 -24 21 21 2 0.15134621D+00 0.39039111D-02 0.16752139D+05 0.16752139D+05 0.16752139D+05 0.12423897D+01  1  2  2  1  6  1        3 0.314460125824D-02 0.100000000000D+01
0.385201917085D-05 0.455791901663D-05 -.331687100000D-06 0.224751051755D-04 0.000000000000D+00  6 3 -4 25 -24 21 21 4 0.15134621D+00 0.39039111D-02 0.16752139D+05 0.16752139D+05 0.16752139D+05 0.12423897D+01  1  2  3  1  6  1        3 0.216472197853D-03 0.100000000000D+01
0.406173808108D-05 0.000000000000D+00 0.000000000000D+00 0.224751051755D-04 0.000000000000D+00  6 3 -4 25 -24 21 21 4 0.15134621D+00 0.39039111D-02 0.16752139D+05 0.16752139D+05 0.16752139D+05 0.12423897D+01  1  2 15  1  6  1        3 0.228257786505D-03 0.100000000000D+01
-.847771418856D-04 0.000000000000D+00 0.000000000000D+00 0.224751051755D-04 0.000000000000D+00  6 3 -4 25 -24 21 21 4 0.15134621D+00 0.39039111D-02 0.16752139D+05 0.16752139D+05 0.16752139D+05 0.12423897D+01  1  2  4  1  6  1        3 -.476422712808D-02 0.100000000000D+01
-.124660419248D-03 0.000000000000D+00 -.607115027206D-04 0.224751051755D-04 0.000000000000D+00  6 3 -4 25 -24 21 21 4 0.24772323D+00 0.39039111D-02 0.16752139D+05 0.16752139D+05 0.16752139D+05 0.12423897D+01  1  2  5  1  6  1        3 -.182469213935D-02 0.100000000000D+01
0.143492266862D-03 0.000000000000D+00 0.540198683514D-04 0.224751051755D-04 0.000000000000D+00  6 3 -4 25 -24 21 21 4 0.15134621D+00 0.39039111D-02 0.16752139D+05 0.16752139D+05 0.16752139D+05 0.12423897D+01  1  2  6  1  6  1        3 0.806384522110D-02 0.100000000000D+01
-.425475550084D-05 0.000000000000D+00 -.338377100757D-05 0.224751051755D-04 0.000000000000D+00  6 21 -4 25 -24 -3 21 4 0.24772323D+00 0.39039111D-02 0.16752139D+05 0.16752139D+05 0.16752139D+05 0.12423897D+01  3  4  5  4  5  1        3 -.106397119046D-02 0.100000000000D+01
  </mgrwgt>
  </event>
  <event>
  5     66 0.44337718E-03 0.55094825E+02 0.75467711E-02 0.11795856E+00
        1 -1    0    0  502    0 0.00000000E+00 0.00000000E+00 0.16751744E+04 0.16751744E+04 0.32000000E+00 0.0000E+00 0.9000E+01
       -2 -1    0    0    0  501 0.00000000E+00 0.00000000E+00 -.19878555E+02 0.19881131E+02 0.32000000E+00 0.0000E+00 0.9000E+01
       25  1    1    2    0    0 -.78666152E+02 0.17838877E+02 0.10822382E+04 0.10924152E+04 0.12500000E+03 0.0000E+00 0.9000E+01
      -24  1    1    2    0    0 0.41373633E+02 0.22714757E+02 0.51189760E+03 0.52032115E+03 0.80419002E+02 0.0000E+00 0.9000E+01
       21  1    1    2  502  501 0.37292519E+02 -.40553634E+02 0.61160093E+02 0.82319188E+02 0.75000000E+00 0.0000E+00 0.9000E+01
#aMCatNLO 1  0  0  5  1 0.60707052D+02 0.00000000D+00  -5  6  0 0.00000000D+00 0.00000000D+00 0.00000000D+00 0.00000000D+00 0.00000000D+00
  <mgrwgt>
 0.6890795316D-01    4    2    0
 0.182489057637614D+03 0.000000000000000D+00 0.000000000000000D+00 0.182489057637614D+03
 0.182489057637614D+03 -.000000000000000D+00 -.000000000000000D+00 -.182489057637614D+03
 0.165161768902762D+03 -.786665831678378D+02 0.178393456751445D+02 0.717407579111738D+02
 0.948860322261593D+02 0.413733852789265D+02 0.227150262907457D+02 0.175617120015518D+02
 0.104930314146306D+03 0.372931978889114D+02 -.405543719658902D+02 -.893024699127255D+02
 0.000000000000000D+00 -.000000000000000D+00 0.000000000000000D+00 0.000000000000000D+00
 0.182489057637614D+03 0.000000000000000D+00 0.000000000000000D+00 0.182489057637614D+03
 0.182489057637614D+03 -.000000000000000D+00 -.000000000000000D+00 -.182489057637614D+03
 0.141923857241317D+03 -.607207101859861D+02 -.167583804083905D+01 0.287674846940779D+02
 0.971104353886460D+02 0.525935269183887D+02 0.105137181886047D+02 -.930609279650556D+01
 0.607152141487245D+02 0.543874655419483D+02 -.556253944064600D+01 0.264083126310659D+02
 0.652286084965402D+02 -.462602822743509D+02 -.327534070711958D+01 -.458697045286383D+02
0.252215737039D-03 0.000000000000D+00 0.000000000000D+00 0.966741666416D-05 0.000000000000D+00  6 1 -2 25 -24 21 21 2 0.25771934D+00 0.30584398D-02 0.22068394D+05 0.22068394D+05 0.22068394D+05 0.12291482D+01  1  2  2  3  6  5       21 0.756408329593D-01 0.100000000000D+01
-.990120899737D-06 0.133097901094D-04 -.968574840159D-06 0.966741666416D-05 0.000000000000D+00  6 1 -2 25 -24 21 21 4 0.25771934D+00 0.30584398D-02 0.22068394D+05 0.22068394D+05 0.22068394D+05 0.12291482D+01  1  2  3  3  6  5       21 -.448622313759D-03 0.100000000000D+01
0.985261005167D-05 0.000000000000D+00 0.000000000000D+00 0.966741666416D-05 0.000000000000D+00  6 1 -2 25 -24 21 21 4 0.25771934D+00 0.30584398D-02 0.22068394D+05 0.22068394D+05 0.22068394D+05 0.12291482D+01  1  2 15  3  6  5       21 0.446420302724D-02 0.100000000000D+01
-.237221267537D-04 0.000000000000D+00 0.000000000000D+00 0.966741666416D-05 0.000000000000D+00  6 1 -2 25 -24 21 21 4 0.25771934D+00 0.30584398D-02 0.22068394D+05 0.22068394D+05 0.22068394D+05 0.12291482D+01  1  2  4  3  6  5       21 -.107484605106D-01 0.100000000000D+01
  </mgrwgt>
  </event>
  <event>
  5     66 0.44337718E-03 0.12082420E+03 0.75467711E-02 0.10627566E+00
        3 -1    0    0  502    0 0.00000000E+00 0.00000000E+00 0.31806770E+03 0.31806809E+03 0.50000000E+00 0.0000E+00 0.9000E+01
       -4 -1    0    0    0  501 0.00000000E+00 0.00000000E+00 -.49650641E+03 0.49650883E+03 0.15500000E+01 0.0000E+00 0.9000E+01
       25  1    1    2    0    0 -.93505609E+02 -.38720665E+02 -.20820689E+03 0.26309256E+03 0.12500000E+03 0.0000E+00 0.9000E+01
      -24  1    1    2    0    0 0.15670703E+03 0.23257891E+03 -.10159382E+03 0.30893133E+03 0.80419002E+02 0.0000E+00 0.9000E+01
       21  1    1    2  502  501 -.63201422E+02 -.19385825E+03 0.13136199E+03 0.24255304E+03 0.75000000E+00 0.0000E+00 0.9000E+01
#aMCatNLO 1  0  0  2  5 0.37883050D+02 0.00000000D+00  -5  6  0 0.00000000D+00 0.00000000D+00 0.00000000D+00 0.00000000D+00 0.00000000D+00
  <mgrwgt>
 0.4991173515D-02    9    4    0
 0.397396274591953D+03 0.000000000000000D+00 0.000000000000000D+00 0.397396274591953D+03
 0.397396274591953D+03 0.000000000000000D+00 0.000000000000000D+00 -.397396274591953D+03
 0.222897182318263D+03 -.935055445731427D+02 -.387204671970843D+02 -.154323013317978D+03
 0.293812876093273D+03 0.156707115744581D+03 0.232579174965780D+03 -.347648881931412D+02
 0.278082490772371D+03 -.632015711714386D+02 -.193858707768696D+03 0.189087901511119D+03
 0.000000000000000D+00 0.000000000000000D+00 0.000000000000000D+00 -.000000000000000D+00
 0.401119580803966D+03 0.000000000000000D+00 0.000000000000000D+00 0.401119580803966D+03
 0.507494508648376D+03 0.000000000000000D+00 0.000000000000000D+00 -.507494508648376D+03
 0.225043185663412D+03 -.936192083089448D+02 -.493891365545371D+02 -.154323013317978D+03
 0.282981823313573D+03 0.156560755547976D+03 0.218841560821223D+03 -.347648881931412D+02
 0.287669858239522D+03 -.633451293995511D+02 -.207333324439228D+03 0.189087901511119D+03
 0.112919222235834D+03 0.403582160520387D+00 0.378809001725416D+02 -.106374927844410D+03
 0.397396274591953D+03 0.000000000000000D+00 0.000000000000000D+00 0.397396274591953D+03
 0.397396274591953D+03 0.000000000000000D+00 0.000000000000000D+00 -.397396274591953D+03
 0.222897182318263D+03 -.935055445731427D+02 -.387204671970843D+02 -.154323013317978D+03
 0.293812876093273D+03 0.156707115744581D+03 0.232579174965780D+03 -.347648881931412D+02
 0.000000000000000D+00 0.000000000000000D+00 0.000000000000000D+00 -.000000000000000D+00
 0.278082490772371D+03 -.632015711714386D+02 -.193858707768696D+03 0.189087901511119D+03
 0.401119580803966D+03 0.000000000000000D+00 0.000000000000000D+00 0.401119580803966D+03
 0.507494508648376D+03 0.000000000000000D+00 0.000000000000000D+00 -.507494508648376D+03
 0.225043185663412D+03 -.936192083089448D+02 -.493891365545371D+02 -.154323013317978D+03
 0.282981823313573D+03 0.156560755547976D+03 0.218841560821223D+03 -.347648881931412D+02
 0.112919222235834D+03 0.403582160520387D+00 0.378809001725416D+02 -.106374927844410D+03
 0.287669858239522D+03 -.633451293995511D+02 -.207333324439228D+03 0.189087901511119D+03
0.778099107273D-03 0.000000000000D+00 0.000000000000D+00 0.544777793989D-06 0.000000000000D+00  6 3 -4 25 -24 21 21 2 0.48933709D-01 0.76385818D-01 0.10774277D+06 0.10774277D+06 0.10774277D+06 0.11606081D+01  1  2  2  2  6  2       -4 0.147841410612D-02 0.100000000000D+01
-.603337607178D-04 0.410614179895D-04 -.298810545013D-05 0.544777793989D-06 0.000000000000D+00  6 3 -4 25 -24 21 21 4 0.48933709D-01 0.76385818D-01 0.10774277D+06 0.10774277D+06 0.10774277D+06 0.11606081D+01  1  2  3  2  6  2       -4 -.154416164232D-03 0.100000000000D+01
0.253104099450D-04 0.000000000000D+00 0.000000000000D+00 0.544777793989D-06 0.000000000000D+00  6 3 -4 25 -24 21 21 4 0.48933709D-01 0.76385818D-01 0.10774277D+06 0.10774277D+06 0.10774277D+06 0.11606081D+01  1  2 15  2  6  2       -4 0.647785977923D-04 0.100000000000D+01
0.933240687028D-02 0.000000000000D+00 0.000000000000D+00 0.540122024122D-06 0.000000000000D+00  6 3 -4 25 -24 21 21 4 0.48933709D-01 0.98116334D-01 0.12225882D+06 0.12225882D+06 0.12225882D+06 0.11556381D+01  1  2 12  2  6  2       -4 0.132772647627D-01 0.100000000000D+01
-.778425415783D-02 0.000000000000D+00 0.000000000000D+00 0.544777793989D-06 0.000000000000D+00  6 3 -4 25 -24 21 21 4 0.48933709D-01 0.76385818D-01 0.10774277D+06 0.10774277D+06 0.10774277D+06 0.11606081D+01  1  2  4  2  6  2       -4 -.199227539301D-01 0.100000000000D+01
-.104827995382D-01 0.000000000000D+00 -.680086595303D-03 0.544777793989D-06 0.000000000000D+00  6 3 -4 25 -24 21 21 4 0.48933709D-01 0.97965568D-01 0.10774277D+06 0.10774277D+06 0.10774277D+06 0.11606081D+01  1  2  5  2  6  2       -4 -.151875195971D-01 0.100000000000D+01
0.103504804270D-01 0.000000000000D+00 0.659563942030D-03 0.544777793989D-06 0.000000000000D+00  6 3 -4 25 -24 21 21 4 0.48933709D-01 0.76385818D-01 0.10774277D+06 0.10774277D+06 0.10774277D+06 0.11606081D+01  1  2  6  2  6  2       -4 0.264906656982D-01 0.100000000000D+01
0.316171271138D-03 0.000000000000D+00 0.000000000000D+00 0.540122024122D-06 0.000000000000D+00  6 3 21 25 -24 4 21 4 0.48933709D-01 0.98116334D-01 0.12225882D+06 0.12225882D+06 0.12225882D+06 0.11556381D+01  3  4 12  5  5  2       -4 0.955864098999D-02 0.100000000000D+01
-.342224959653D-03 0.000000000000D+00 -.229360420127D-04 0.544777793989D-06 0.000000000000D+00  6 3 21 25 -24 4 21 4 0.48933709D-01 0.97965568D-01 0.10774277D+06 0.10774277D+06 0.10774277D+06 0.11606081D+01  3  4  5  5  5  2       -4 -.106139009480D-01 0.100000000000D+01
  </mgrwgt>
  </event>
  <event>
  5     66 -.44337718E-03 0.25238462E+02 0.75467711E-02 0.11246639E+00
        1 -1    0    0  502    0 0.00000000E+00 0.00000000E+00 0.28192874E+04 0.28192874E+04 0.32000000E+00 0.0000E+00 0.9000E+01
       -2 -1    0    0    0  501 0.00000000E+00 0.00000000E+00 -.94310248E+01 0.94364522E+01 0.32000000E+00 0.0000E+00 0.9000E+01
       25  1    1    2    0    0 0.44307840E+01 0.10942969E+03 0.14786835E+04 0.14879934E+04 0.12500000E+03 0.0000E+00 0.9000E+01
      -24  1    1    2    0    0 0.13109971E+02 -.91289846E+02 0.12431915E+04 0.12491989E+04 0.80419002E+02 0.0000E+00 0.9000E+01
       21  1    1    2  502  501 -.17540755E+02 -.18139849E+02 0.87981415E+02 0.91531547E+02 0.75000000E+00 0.0000E+00 0.9000E+01
#aMCatNLO 1  0  0  2  1 0.12858939D+03 0.00000000D+00  -5  6  0 0.00000000D+00 0.00000000D+00 0.00000000D+00 0.00000000D+00 0.00000000D+00
  <mgrwgt>
 -.1558892013D+00    5    4    0
 0.163084247028543D+03 0.000000000000000D+00 0.000000000000000D+00 0.163084247028543D+03
 0.163084247028543D+03 0.000000000000000D+00 0.000000000000000D+00 -.163084247028543D+03
 0.166278151927022D+03 0.443273842286494D+01 0.109431715758724D+03 0.533612447775098D+01
 0.124013024021378D+03 0.131114287150172D+02 -.912883381702079D+02 0.201629344027353D+02
 0.358773181086872D+02 -.175441671378821D+02 -.181433775885165D+02 -.254990588804863D+02
 0.000000000000000D+00 0.000000000000000D+00 -.000000000000000D+00 -.000000000000000D+00
 0.179146189161910D+03 0.000000000000000D+00 0.000000000000000D+00 0.179146189161910D+03
 0.125023137537618D+04 0.000000000000000D+00 0.000000000000000D+00 -.125023137537618D+04
 0.218530026802582D+03 -.211814971655375D+02 0.177913581740466D+03 0.533612447775098D+01
 0.977827458718997D+02 -.165210651262017D+01 -.518167545898037D+02 0.201629344027353D+02
 0.342883061652243D+02 -.222146469501685D+02 -.565644736287885D+01 -.254990588804863D+02
 0.107877648569838D+04 0.450482506283261D+02 -.120440379787784D+03 -.107108518621427D+04
 0.163084247028543D+03 0.000000000000000D+00 0.000000000000000D+00 0.163084247028543D+03
 0.163084247028543D+03 0.000000000000000D+00 0.000000000000000D+00 -.163084247028543D+03
 0.166278151927022D+03 0.443273842286494D+01 0.109431715758724D+03 0.533612447775098D+01
 0.124013024021378D+03 0.131114287150172D+02 -.912883381702079D+02 0.201629344027353D+02
 0.000000000000000D+00 0.000000000000000D+00 -.000000000000000D+00 -.000000000000000D+00
 0.358773181086872D+02 -.175441671378821D+02 -.181433775885165D+02 -.254990588804863D+02
 0.179146189161910D+03 0.000000000000000D+00 0.000000000000000D+00 0.179146189161910D+03
 0.125023137537618D+04 0.000000000000000D+00 0.000000000000000D+00 -.125023137537618D+04
 0.218530026802582D+03 -.211814971655375D+02 0.177913581740466D+03 0.533612447775098D+01
 0.977827458718997D+02 -.165210651262017D+01 -.518167545898037D+02 0.201629344027353D+02
 0.107877648569838D+04 0.450482506283261D+02 -.120440379787784D+03 -.107108518621427D+04
 0.342883061652243D+02 -.222146469501685D+02 -.565644736287885D+01 -.254990588804863D+02
0.264095735516D-03 0.000000000000D+00 0.000000000000D+00 0.314536468031D-04 0.000000000000D+00  6 1 -2 25 -24 21 21 2 0.43373695D+00 0.14513458D-02 0.24616653D+05 0.24616653D+05 0.24616653D+05 0.12240178D+01  1  2  2  2  6  2       -2 0.421951704285D-01 0.100000000000D+01
0.463329547027D-04 0.139367148528D-04 -.101419716238D-05 0.314536468031D-04 0.000000000000D+00  6 1 -2 25 -24 21 21 4 0.43373695D+00 0.14513458D-02 0.24616653D+05 0.24616653D+05 0.24616653D+05 0.12240178D+01  1  2  3  2  6  2       -2 0.110909008111D-01 0.100000000000D+01
0.511162825125D-05 0.000000000000D+00 0.000000000000D+00 0.314536468031D-04 0.000000000000D+00  6 1 -2 25 -24 21 21 4 0.43373695D+00 0.14513458D-02 0.24616653D+05 0.24616653D+05 0.24616653D+05 0.12240178D+01  1  2 15  2  6  2       -2 0.122359047209D-02 0.100000000000D+01
-.453127825747D-02 0.000000000000D+00 -.265561863294D-03 0.314536468031D-04 0.000000000000D+00  6 1 -2 25 -24 21 21 4 0.43373695D+00 0.12630592D-01 0.24616653D+05 0.24616653D+05 0.24616653D+05 0.12240178D+01  1  2  5  2  6  2       -2 -.416706124820D-01 0.100000000000D+01
-.121832911631D-02 0.000000000000D+00 -.692987658193D-04 0.314536468031D-04 0.000000000000D+00  6 1 21 25 -24 2 21 4 0.43373695D+00 0.12630592D-01 0.24616653D+05 0.24616653D+05 0.24616653D+05 0.12240178D+01  3  4  5  5  5  2       -2 -.168728250534D+00 0.100000000000D+01
  </mgrwgt>
  </event>
  <event>
  6     66 0.44337718E-03 0.38024859E+02 0.75467711E-02 0.11738326E+00
        1 -1    0    0  502    0 0.00000000E+00 0.00000000E+00 0.55471270E+03 0.55471280E+03 0.32000000E+00 0.0000E+00 0.9000E+01
       -2 -1    0    0    0  503 0.00000000E+00 0.00000000E+00 -.83489794E+02 0.83490407E+02 0.32000000E+00 0.0000E+00 0.9000E+01
       25  1    1    2    0    0 -.76660407E+02 0.67501248E+02 0.16943394E+03 0.23402157E+03 0.12500000E+03 0.0000E+00 0.9000E+01
      -24  1    1    2    0    0 0.95226136E+02 -.90659003E+01 0.25756632E+03 0.28628278E+03 0.80419002E+02 0.0000E+00 0.9000E+01
       21  1    1    2  502  501 -.12407501E+02 -.44106096E+02 0.72400628E+02 0.85683763E+02 0.75000000E+00 0.0000E+00 0.9000E+01
       21  1    1    2  501  503 -.61582288E+01 -.14329251E+02 -.28177973E+02 0.32215088E+02 0.75000000E+00 0.0000E+00 0.9000E+01
#aMCatNLO 2  0  0  2  5 0.15596513D+02 0.00000000D+00  -5  6  0 0.00000000D+00 0.00000000D+00 0.00000000D+00 0.00000000D+00 0.00000000D+00
  <mgrwgt>
 0.3259482826D-01    2    2    0
 0.171447589097355D+03 0.000000000000000D+00 0.000000000000000D+00 0.171447589097355D+03
 0.171447589097355D+03 0.000000000000000D+00 0.000000000000000D+00 -.171447589097355D+03
 0.165368058455068D+03 -.796394244002017D+02 0.605704268962247D+02 -.413567433922496D+02
 0.129481711358585D+03 0.928917860426156D+02 -.144968733532261D+02 0.382001880986331D+02
 0.480454083810570D+02 -.132523616424139D+02 -.460735535429986D+02 0.315655529361649D+01
 0.000000000000000D+00 -.000000000000000D+00 -.000000000000000D+00 -.000000000000000D+00
 0.172250227068534D+03 0.000000000000000D+00 0.000000000000000D+00 0.172250227068534D+03
 0.268866436710272D+03 0.000000000000000D+00 0.000000000000000D+00 -.268866436710272D+03
 0.166639925746271D+03 -.766596147369433D+02 0.675039857867213D+02 -.413567433922496D+02
 0.130678063041772D+03 0.952267497984246D+02 -.906377173344909D+01 0.382001880986331D+02
 0.459317081660935D+02 -.124089062638151D+02 -.441109625724646D+02 0.315655529361649D+01
 0.978669668246690D+02 -.615822879766613D+01 -.143292514808076D+02 -.966162096417379D+02
-.520482308311D-03 0.000000000000D+00 0.000000000000D+00 0.804315532853D-05 0.000000000000D+00  6 1 -2 25 -24 21 21 4 0.84942102D-01 0.12986275D-01 0.30243999D+05 0.30243999D+05 0.30243999D+05 0.12145293D+01  1  2 13  2  6  2       -2 -.169362717899D+00 0.100000000000D+01
0.613573352021D-03 0.000000000000D+00 0.000000000000D+00 0.810053451049D-05 0.168708563731D-06  6 1 -2 25 -24 21 21 4 0.85339761D-01 0.12844531D-01 0.30243999D+05 0.30243999D+05 0.30243999D+05 0.12145293D+01  1  2  1  2  6  2       -2 0.201957546160D+00 0.100000000000D+01
  </mgrwgt>
  </event>
  <event>
  6     66 0.44337718E-03 0.18868988E+02 0.75467711E-02 0.12035465E+00
        1 -1    0    0  502    0 0.00000000E+00 0.00000000E+00 0.30480600E+03 0.30480617E+03 0.32000000E+00 0.0000E+00 0.9000E+01
       21 -1    0    0  503  501 0.00000000E+00 0.00000000E+00 -.10437845E+03 0.10438115E+03 0.75000000E+00 0.0000E+00 0.9000E+01
       25  1    1    2    0    0 0.41932421E+02 -.77029584E+01 0.16504555E+03 0.21138282E+03 0.12500000E+03 0.0000E+00 0.9000E+01
      -24  1    1    2    0    0 -.39837054E+02 0.52677077E+01 0.64673370E+02 0.11074566E+03 0.80419002E+02 0.0000E+00 0.9000E+01
        2  1    1    2  503    0 0.19789385E+02 0.31191824E+02 -.34493518E+02 0.50541615E+02 0.32000000E+00 0.0000E+00 0.9000E+01
       21  1    1    2  502  501 -.21884752E+02 -.28756573E+02 0.52021434E+01 0.36517225E+02 0.75000000E+00 0.0000E+00 0.9000E+01
#aMCatNLO 2  0  0  2  2 0.47008558D+01 0.00000000D+00  -5  6  0 0.00000000D+00 0.00000000D+00 0.00000000D+00 0.00000000D+00 0.00000000D+00
  <mgrwgt>
 0.6953976086D-01    1    2    0
 0.134233270751071D+03 0.000000000000000D+00 0.000000000000000D+00 0.134233270751071D+03
 0.134233270751071D+03 0.000000000000000D+00 0.000000000000000D+00 -.134233270751071D+03
 0.140161919794633D+03 0.520895817539863D+02 0.830610694742527D+01 0.351859037199526D+02
 0.890285334819115D+02 -.332501395009806D+02 0.156495873440877D+02 -.104106896358693D+02
 0.000000000000000D+00 0.000000000000000D+00 0.000000000000000D+00 -.000000000000000D+00
 0.392760882255975D+02 -.188394422530057D+02 -.239556942915129D+02 -.247752140840833D+02
 0.139161164415103D+03 0.000000000000000D+00 0.000000000000000D+00 0.139161164415103D+03
 0.228624464804235D+03 0.000000000000000D+00 0.000000000000000D+00 -.228624464804235D+03
 0.136677801227422D+03 0.419341262713523D+02 -.770081694570153D+01 0.351859037199526D+02
 0.905000571650955D+02 -.398358801723147D+02 0.526921101471685D+01 -.104106896358693D+02
 0.967896263671032D+02 0.197893851124887D+02 0.311918241312818D+02 -.894633003891329D+02
 0.438181444597171D+02 -.218876312115263D+02 -.287602182002971D+02 -.247752140840833D+02
0.933680353800D-05 0.000000000000D+00 0.000000000000D+00 0.264228382952D-04 0.120953590327D-07  6 1 21 25 -24 2 21 4 0.46893364D-01 0.16058414D-01 0.21763893D+05 0.21763893D+05 0.21763893D+05 0.12298053D+01  1  2  1  5  5  2       -2 0.695397608605D-01 0.100000000000D+01
  </mgrwgt>
  </event>
  <event>
  6     66 0.44337718E-03 0.20123472E+02 0.75467711E-02 0.12267551E+00
        3 -1    0    0  502    0 0.00000000E+00 0.00000000E+00 0.15576290E+03 0.15576370E+03 0.50000000E+00 0.0000E+00 0.9000E+01
       -4 -1    0    0    0  501 -.00000000E+00 -.00000000E+00 -.18055760E+03 0.18056425E+03 0.15500000E+01 0.0000E+00 0.9000E+01
       25  1    1    2    0    0 -.43038907E+02 0.31777906E+02 0.34535793E+02 0.14028508E+03 0.12500000E+03 0.0000E+00 0.9000E+01
      -24  1    1    2    0    0 0.58693735E+02 -.20840781E+02 0.27426737E+02 0.10535053E+03 0.80419002E+02 0.0000E+00 0.9000E+01
       21  1    1    2  502  503 -.17145419E+02 -.12317449E+02 -.85732240E+02 0.88296458E+02 0.75000000E+00 0.0000E+00 0.9000E+01
       21  1    1    2  503  501 0.14905920E+01 0.13803236E+01 -.10249880E+01 0.23958835E+01 0.75000000E+00 0.0000E+00 0.9000E+01
#aMCatNLO 2  0  0  5  2 0.23065267D+00 0.00000000D+00  -5  6  0 0.00000000D+00 0.00000000D+00 0.00000000D+00 0.00000000D+00 0.00000000D+00
  <mgrwgt>
 0.1169140039D+00    1    2    0
 0.167706376749622D+03 0.000000000000000D+00 0.000000000000000D+00 0.167706376749622D+03
 0.167706376749622D+03 -.000000000000000D+00 -.000000000000000D+00 -.167706376749622D+03
 0.143461215830297D+03 -.428765486480227D+02 0.318913367522198D+02 0.458330084513043D+02
 0.107922367376410D+03 0.588158297743600D+02 -.207554797007867D+02 0.359155907107480D+02
 0.840291702925375D+02 -.159392811263373D+02 -.111358570514332D+02 -.817485991620524D+02
 0.000000000000000D+00 0.000000000000000D+00 0.000000000000000D+00 -.000000000000000D+00
 0.167706376749622D+03 0.000000000000000D+00 0.000000000000000D+00 0.167706376749622D+03
 0.167706376749622D+03 -.000000000000000D+00 -.000000000000000D+00 -.167706376749622D+03
 0.143219309729405D+03 -.430399556922572D+02 0.317771736684917D+02 0.449949344595415D+02
 0.107663805691122D+03 0.586929462989303D+02 -.208413313025949D+02 0.352853520006758D+02
 0.823114743715037D+02 -.171906676192094D+02 -.123541859101239D+02 -.795426542838160D+02
 0.221816370721276D+01 0.153767701253629D+01 0.141834354422718D+01 -.737632176401240D+00
0.126299377030D-02 0.000000000000D+00 0.000000000000D+00 0.747092189982D-04 0.452360410601D-04  6 3 -4 25 -24 21 21 4 0.23964097D-01 0.27778665D-01 0.17023275D+05 0.17023275D+05 0.17023275D+05 0.12416062D+01  1  2  1  3  6  5       21 0.116914003869D+00 0.100000000000D+01
  </mgrwgt>
  </event>
  <event>
  6     66 -.44337718E-03 0.26148264E+02 0.75467711E-02 0.12398943E+00
        1 -1    0    0  503    0 0.00000000E+00 0.00000000E+00 0.19591136E+03 0.19591162E+03 0.32000000E+00 0.0000E+00 0.9000E+01
       -2 -1    0    0    0  501 0.00000000E+00 0.00000000E+00 -.36732600E+03 0.36732614E+03 0.32000000E+00 0.0000E+00 0.9000E+01
       25  1    1    2    0    0 -.73307985E+01 0.24943673E+02 0.12464629E+03 0.17843101E+03 0.12500000E+03 0.0000E+00 0.9000E+01
      -24  1    1    2    0    0 0.96845552E+01 0.85648465E+01 -.25250486E+02 0.85275730E+02 0.80419002E+02 0.0000E+00 0.9000E+01
       21  1    1    2  502  501 0.12474880E+01 -.29004629E+02 -.28380900E+03 0.28529097E+03 0.75000000E+00 0.0000E+00 0.9000E+01
       21  1    1    2  503  502 -.36012446E+01 -.45038903E+01 0.12998566E+02 0.14240056E+02 0.75000000E+00 0.0000E+00 0.9000E+01
#aMCatNLO 2  0  0  1  5 0.57666273D+01 0.00000000D+00  -5  6  0 0.00000000D+00 0.00000000D+00 0.00000000D+00 0.00000000D+00 0.00000000D+00
  <mgrwgt>
 -.3745146746D+00    5    2    0
 0.258532879108943D+03 0.000000000000000D+00 0.000000000000000D+00 0.258532879108943D+03
 0.258532879108943D+03 0.000000000000000D+00 0.000000000000000D+00 -.258532879108943D+03
 0.233740028712588D+03 -.895921765364400D+01 0.229071884611945D+02 0.195970391024765D+03
 0.813943136177239D+02 0.911720328268452D+01 0.785532203424511D+01 0.360400540654037D+01
 0.201931415887575D+03 -.157985629040513D+00 -.307625104954396D+02 -.199574396431305D+03
 0.000000000000000D+00 -.000000000000000D+00 -.000000000000000D+00 0.000000000000000D+00
 0.277857885461815D+03 0.000000000000000D+00 0.000000000000000D+00 0.277857885461815D+03
 0.258979508819001D+03 0.000000000000000D+00 0.000000000000000D+00 -.258979508819001D+03
 0.233891698287686D+03 -.733079434328002D+01 0.249437732469477D+02 0.195970391024765D+03
 0.815312982407284D+02 0.968455542944222D+01 0.856488001152122D+01 0.360400540654037D+01
 0.201674917131981D+03 0.124748351035171D+01 -.290047629565077D+02 -.199574396431305D+03
 0.197394806204203D+02 -.360124459651391D+01 -.450389030196124D+01 0.188783766428135D+02
-.219873379235D-01 0.000000000000D+00 0.000000000000D+00 0.445610029432D-04 0.000000000000D+00  6 1 -2 25 -24 21 21 4 0.30169824D-01 0.56412715D-01 0.14874841D+05 0.14874841D+05 0.14874841D+05 0.12482376D+01  1  2 13  1  6  1        1 -.211849868737D+01 0.100000000000D+01
-.370698182385D-02 0.000000000000D+00 0.000000000000D+00 0.446917107632D-04 0.000000000000D+00  6 1 -2 25 -24 21 21 4 0.28043218D-01 0.56412715D-01 0.14337002D+05 0.14337002D+05 0.14337002D+05 0.12500669D+01  1  2  8  1  6  1        1 -.393291278881D+00 0.100000000000D+01
-.202728942611D-02 0.000000000000D+00 0.000000000000D+00 0.446917107632D-04 0.000000000000D+00  6 1 -2 25 -24 21 21 4 0.30169083D-01 0.56412715D-01 0.14337002D+05 0.14337002D+05 0.14337002D+05 0.12500669D+01  1  2  9  1  6  1        1 -.196446132041D+00 0.100000000000D+01
0.202188923704D-02 0.000000000000D+00 0.000000000000D+00 0.446917107632D-04 0.000000000000D+00  6 1 -2 25 -24 21 21 4 0.28043218D-01 0.56412715D-01 0.14337002D+05 0.14337002D+05 0.14337002D+05 0.12500669D+01  1  2 10  1  6  1        1 0.214511816236D+00 0.100000000000D+01
0.220441262971D-01 0.000000000000D+00 0.000000000000D+00 0.446917107632D-04 0.615263444774D-05  6 1 -2 25 -24 21 21 4 0.30139413D-01 0.56510171D-01 0.14874841D+05 0.14874841D+05 0.14874841D+05 0.12482376D+01  1  2  1  1  6  1        1 0.211920960747D+01 0.100000000000D+01
  </mgrwgt>
  </event>
  <event>
  5     66 0.44337718E-03 0.57869223E+02 0.75467711E-02 0.11184501E+00
        3 -1    0    0  502    0 0.00000000E+00 0.00000000E+00 0.10841649E+04 0.10841650E+04 0.50000000E+00 0.0000E+00 0.9000E+01
       -4 -1    0    0    0  501 0.00000000E+00 0.00000000E+00 -.35914674E+02 0.35948106E+02 0.15500000E+01 0.0000E+00 0.9000E+01
       25  1    1    2    0    0 0.26747235E+02 0.12148669E+03 0.72976916E+03 0.75077457E+03 0.12500000E+03 0.0000E+00 0.9000E+01
      -24  1    1    2    0    0 0.25882221E+02 -.97433404E+02 0.21175847E+03 0.24793552E+03 0.80419002E+02 0.0000E+00 0.9000E+01
       21  1    1    2  502  501 -.52629456E+02 -.24053286E+02 0.10672260E+03 0.12140303E+03 0.75000000E+00 0.0000E+00 0.9000E+01
#aMCatNLO 1  0  0  2  5 0.10592480D+03 0.00000000D+00  -5  6  0 0.00000000D+00 0.00000000D+00 0.00000000D+00 0.00000000D+00 0.00000000D+00
  <mgrwgt>
 0.5236113785D-02    4    2    0
 0.197373293957290D+03 0.000000000000000D+00 0.000000000000000D+00 0.197373293957290D+03
 0.197373293957290D+03 0.000000000000000D+00 0.000000000000000D+00 -.197373293957290D+03
 0.192458159839412D+03 0.267491695890092D+02 0.121487573421543D+03 0.770739561668943D+02
 0.141204029306761D+03 0.258836400793703D+02 -.974327551633660D+02 -.575174524436833D+02
 0.610843987684071D+02 -.526328096683796D+02 -.240548182581773D+02 -.195565037232111D+02
 0.000000000000000D+00 -.000000000000000D+00 -.000000000000000D+00 0.000000000000000D+00
 0.280211686840382D+03 0.000000000000000D+00 0.000000000000000D+00 0.280211686840382D+03
 0.241333806445704D+03 0.000000000000000D+00 0.000000000000000D+00 -.241333806445704D+03
 0.225305539740784D+03 0.696425097185787D+02 0.156035612469613D+03 0.770739561668943D+02
 0.135208528409299D+03 0.542639370417761D+02 -.745741107982684D+02 -.575174524436833D+02
 0.481972390525995D+02 -.414124607829134D+02 -.150174933434683D+02 -.195565037232111D+02
 0.112834186083403D+03 -.824939859774414D+02 -.664440083278763D+02 0.388778803946784D+02
0.315501054624D-03 0.000000000000D+00 0.000000000000D+00 0.475859437639D-05 0.000000000000D+00  6 3 -4 25 -24 21 21 2 0.16679718D+00 0.55279151D-02 0.32974752D+05 0.32974752D+05 0.32974752D+05 0.12106124D+01  1  2  2  2  6  2       -4 0.509389948060D-02 0.100000000000D+01
0.869246456278D-05 0.166494480703D-04 -.121160712309D-05 0.475859437639D-05 0.000000000000D+00  6 3 -4 25 -24 21 21 4 0.16679718D+00 0.55279151D-02 0.32974752D+05 0.32974752D+05 0.32974752D+05 0.12106124D+01  1  2  3  2  6  2       -4 0.205685063029D-03 0.100000000000D+01
0.167905166478D-04 0.000000000000D+00 0.000000000000D+00 0.475859437639D-05 0.000000000000D+00  6 3 -4 25 -24 21 21 4 0.16679718D+00 0.55279151D-02 0.32974752D+05 0.32974752D+05 0.32974752D+05 0.12106124D+01  1  2 15  2  6  2       -4 0.397304866766D-03 0.100000000000D+01
-.194728568626D-04 0.000000000000D+00 0.000000000000D+00 0.475859437639D-05 0.000000000000D+00  6 3 -4 25 -24 21 21 4 0.16679718D+00 0.55279151D-02 0.32974752D+05 0.32974752D+05 0.32974752D+05 0.12106124D+01  1  2  4  2  6  2       -4 -.460775624935D-03 0.100000000000D+01
  </mgrwgt>
  </event>
  <event>
  5     66 0.44337718E-03 0.49947980E+02 0.75467711E-02 0.12249787E+00
        1 -1    0    0  502    0 0.00000000E+00 0.00000000E+00 0.76928027E+03 0.76928034E+03 0.32000000E+00 0.0000E+00 0.9000E+01
       -2 -1    0    0    0  501 0.00000000E+00 0.00000000E+00 -.23328385E+02 0.23330580E+02 0.32000000E+00 0.0000E+00 0.9000E+01
       25  1    1    2    0    0 -.19611595E+02 0.12398070E+02 0.36964580E+03 0.39089813E+03 0.12500000E+03 0.0000E+00 0.9000E+01
      -24  1    1    2    0    0 -.26775909E+02 -.30906039E+02 0.22688612E+03 0.24416523E+03 0.80419002E+02 0.0000E+00 0.9000E+01
       21  1    1    2  502  501 0.46387504E+02 0.18507969E+02 0.14941997E+03 0.15754757E+03 0.75000000E+00 0.0000E+00 0.9000E+01
#aMCatNLO 1  0  0  5  1 0.19561835D+02 0.00000000D+00  -5  6  0 0.00000000D+00 0.00000000D+00 0.00000000D+00 0.00000000D+00 0.00000000D+00
  <mgrwgt>
 0.3848618749D+00   14    2    0
 0.133966274377275D+03 0.000000000000000D+00 0.000000000000000D+00 0.133966274377275D+03
 0.133966274377275D+03 -.000000000000000D+00 -.000000000000000D+00 -.133966274377275D+03
 0.127241780018479D+03 -.196140674384861D+02 0.123970831801345D+02 0.520300580571060D+01
 0.906276807071282D+02 -.267776698490493D+02 -.309067416483904D+02 -.859594521373967D+01
 0.500630880289434D+02 0.463917372875354D+02 0.185096584682559D+02 0.339293940802906D+01
 0.000000000000000D+00 -.000000000000000D+00 0.000000000000000D+00 0.000000000000000D+00
 0.133966274377275D+03 0.000000000000000D+00 0.000000000000000D+00 0.133966274377275D+03
 0.133966274377275D+03 -.000000000000000D+00 -.000000000000000D+00 -.133966274377275D+03
 0.126617001604739D+03 -.111300083357565D+02 0.157821048585146D+02 0.582350204389380D+01
 0.882041878585753D+02 -.208010393276955D+02 -.285221491280552D+02 -.815883407264475D+01
 0.308778658996141D+02 0.289681304903907D+02 -.641947076978259D+01 -.854870829085630D+01
 0.222334933916222D+02 0.296291717306130D+01 0.191595150393232D+02 0.108840403196072D+02
0.238148589863D-03 0.000000000000D+00 0.000000000000D+00 0.107992320555D-04 0.000000000000D+00  6 1 -2 25 -24 21 21 2 0.11835099D+00 0.35891563D-02 0.17862649D+05 0.17862649D+05 0.17862649D+05 0.12392667D+01  1  2  2  3  6  5       21 0.245633340862D+00 0.100000000000D+01
0.333818152402D-06 0.125674463581D-04 -.914553291036D-06 0.107992320555D-04 0.000000000000D+00  6 1 -2 25 -24 21 21 4 0.11835099D+00 0.35891563D-02 0.17862649D+05 0.17862649D+05 0.17862649D+05 0.12392667D+01  1  2  3  3  6  5       21 0.528784577602D-03 0.100000000000D+01
0.102967922883D-04 0.000000000000D+00 0.000000000000D+00 0.107992320555D-04 0.000000000000D+00  6 1 -2 25 -24 21 21 4 0.11835099D+00 0.35891563D-02 0.17862649D+05 0.17862649D+05 0.17862649D+05 0.12392667D+01  1  2 15  3  6  5       21 0.163106317666D-01 0.100000000000D+01
0.786286444504D-04 0.000000000000D+00 0.000000000000D+00 0.108243481746D-04 0.000000000000D+00  6 1 -2 25 -24 21 21 4 0.11835099D+00 0.35891563D-02 0.17340571D+05 0.17340571D+05 0.17340571D+05 0.12407069D+01  1  2 12  3  6  5       21 0.125031015669D+00 0.100000000000D+01
0.806610004375D-04 0.000000000000D+00 0.000000000000D+00 0.108243481746D-04 0.000000000000D+00  6 1 -2 25 -24 21 21 4 0.11835099D+00 0.35891563D-02 0.17340571D+05 0.17340571D+05 0.17340571D+05 0.12407069D+01  1  2 12  3  6  5       21 0.128262758186D+00 0.100000000000D+01
-.999481190318D-04 0.000000000000D+00 0.000000000000D+00 0.107992320555D-04 0.000000000000D+00  6 1 -2 25 -24 21 21 4 0.11835099D+00 0.35891563D-02 0.17862649D+05 0.17862649D+05 0.17862649D+05 0.12392667D+01  1  2  4  3  6  5       21 -.158322797979D+00 0.100000000000D+01
0.212950735767D-05 0.000000000000D+00 0.000000000000D+00 0.108243481746D-04 0.000000000000D+00  6 1 -2 25 -24 1 -1 4 0.11835099D+00 0.35891563D-02 0.17340571D+05 0.17340571D+05 0.17340571D+05 0.12407069D+01  1  2 12  6  6  5       21 0.338622736874D-02 0.100000000000D+01
0.218112570955D-05 0.000000000000D+00 0.000000000000D+00 0.108243481746D-04 0.000000000000D+00  6 1 -2 25 -24 1 -1 4 0.11835099D+00 0.35891563D-02 0.17340571D+05 0.17340571D+05 0.17340571D+05 0.12407069D+01  1  2 12  6  6  5       21 0.346830807873D-02 0.100000000000D+01
0.212950735767D-05 0.000000000000D+00 0.000000000000D+00 0.108243481746D-04 0.000000000000D+00  6 1 -2 25 -24 2 -2 4 0.11835099D+00 0.35891563D-02 0.17340571D+05 0.17340571D+05 0.17340571D+05 0.12407069D+01  1  2 12  7  6  5       21 0.338622736874D-02 0.100000000000D+01
0.218112570955D-05 0.000000000000D+00 0.000000000000D+00 0.108243481746D-04 0.000000000000D+00  6 1 -2 25 -24 2 -2 4 0.11835099D+00 0.35891563D-02 0.17340571D+05 0.17340571D+05 0.17340571D+05 0.12407069D+01  1  2 12  7  6  5       21 0.346830807873D-02 0.100000000000D+01
0.212950735767D-05 0.000000000000D+00 0.000000000000D+00 0.108243481746D-04 0.000000000000D+00  6 1 -2 25 -24 3 -3 4 0.11835099D+00 0.35891563D-02 0.17340571D+05 0.17340571D+05 0.17340571D+05 0.12407069D+01  1  2 12  8  6  5       21 0.338622736874D-02 0.100000000000D+01
0.212950735767D-05 0.000000000000D+00 0.000000000000D+00 0.108243481746D-04 0.000000000000D+00  6 1 -2 25 -24 4 -4 4 0.11835099D+00 0.35891563D-02 0.17340571D+05 0.17340571D+05 0.17340571D+05 0.12407069D+01  1  2 12  8  6  5       21 0.338622736874D-02 0.100000000000D+01
0.218112570955D-05 0.000000000000D+00 0.000000000000D+00 0.108243481746D-04 0.000000000000D+00  6 1 -2 25 -24 3 -3 4 0.11835099D+00 0.35891563D-02 0.17340571D+05 0.17340571D+05 0.17340571D+05 0.12407069D+01  1  2 12  8  6  5       21 0.346830807873D-02 0.100000000000D+01
0.218112570955D-05 0.000000000000D+00 0.000000000000D+00 0.108243481746D-04 0.000000000000D+00  6 1 -2 25 -24 4 -4 4 0.11835099D+00 0.35891563D-02 0.17340571D+05 0.17340571D+05 0.17340571D+05 0.12407069D+01  1  2 12  8  6  5       21 0.346830807873D-02 0.100000000000D+01
  </mgrwgt>
  </event>
  <event>
  6     66 0.44337718E-03 0.55943998E+02 0.75467711E-02 0.11824330E+00
        1 -1    0    0  502    0 0.00000000E+00 0.00000000E+00 0.12795704E+04 0.12795704E+04 0.32000000E+00 0.0000E+00 0.9000E+01
       21 -1    0    0  503  501 0.00000000E+00 0.00000000E+00 -.18890154E+03 0.18890303E+03 0.75000000E+00 0.0000E+00 0.9000E+01
       25  1    1    2    0    0 -.61012814E+02 -.94246826E+02 0.34060873E+03 0.37979512E+03 0.12500000E+03 0.0000E+00 0.9000E+01
      -24  1    1    2    0    0 0.26821472E+02 0.30098118E+02 0.87509482E+03 0.87970645E+03 0.80419002E+02 0.0000E+00 0.9000E+01
        2  1    1    2  503    0 0.25858304E+02 0.56079091E+02 -.16032990E+03 0.17181180E+03 0.32000000E+00 0.0000E+00 0.9000E+01
       21  1    1    2  502  501 0.83330377E+01 0.80696182E+01 0.35295162E+02 0.37160049E+02 0.75000000E+00 0.0000E+00 0.9000E+01
#aMCatNLO 2  0  0  2  5 0.55750949D+02 0.00000000D+00  -5  6  0 0.00000000D+00 0.00000000D+00 0.00000000D+00 0.00000000D+00 0.00000000D+00
  <mgrwgt>
 0.2694783853D+00    1    2    0
 0.167720063748975D+03 0.000000000000000D+00 0.000000000000000D+00 0.167720063748975D+03
 0.167720063748975D+03 0.000000000000000D+00 0.000000000000000D+00 -.167720063748975D+03
 0.177387759970476D+03 -.468026702205951D+02 -.634215840420921D+02 -.981255834385575D+02
 0.144048256611599D+03 0.374698926575074D+02 0.531975967081989D+02 0.100243239807866D+03
 0.000000000000000D+00 0.000000000000000D+00 0.000000000000000D+00 -.000000000000000D+00
 0.140041109158758D+02 0.933277756308769D+01 0.102239873338932D+02 -.211765636930809D+01
 0.171307125158632D+03 0.000000000000000D+00 0.000000000000000D+00 0.171307125158632D+03
 0.141099720799601D+04 0.000000000000000D+00 0.000000000000000D+00 -.141099720799601D+04
 0.194579484496856D+03 -.610202565216246D+02 -.942553656612724D+02 -.981255834385575D+02
 0.134686874735910D+03 0.268158879191680D+02 0.300921800420886D+02 0.100243239807866D+03
 0.124122722246428D+04 0.258583043564773D+02 0.560790905494407D+02 -.123969008283738D+04
 0.118107514575970D+02 0.834606424597924D+01 0.808409506974315D+01 -.211765636930809D+01
0.928833482607D-03 0.000000000000D+00 0.000000000000D+00 0.625621485382D-04 0.241239060075D-06  6 1 21 25 -24 2 21 4 0.19685707D+00 0.29061890D-01 0.27448728D+05 0.27448728D+05 0.27448728D+05 0.12189705D+01  1  2  1  5  5  2       -2 0.269478385314D+00 0.100000000000D+01
  </mgrwgt>
  </event>
  <event>
  6     66 0.44337718E-03 0.22561809E+02 0.75467711E-02 0.12144563E+00
        1 -1    0    0  502    0 0.00000000E+00 0.00000000E+00 0.42997649E+03 0.42997661E+03 0.32000000E+00 0.0000E+00 0.9000E+01
       -2 -1    0    0    0  503 0.00000000E+00 0.00000000E+00 -.53436200E+02 0.53437158E+02 0.32000000E+00 0.0000E+00 0.9000E+01
       25  1    1    2    0    0 -.59991260E+02 0.16633408E+02 0.17979527E+03 0.22765535E+03 0.12500000E+03 0.0000E+00 0.9000E+01
      -24  1    1    2    0    0 0.33293572E+02 0.63113714E+01 0.17678094E+03 0.19714718E+03 0.80419002E+02 0.0000E+00 0.9000E+01
       21  1    1    2  502  501 0.91565412E+01 -.30844358E+02 0.22391099E+02 0.39206384E+02 0.75000000E+00 0.0000E+00 0.9000E+01
       21  1    1    2  501  503 0.17541147E+02 0.78995793E+01 -.24270174E+01 0.19404847E+02 0.75000000E+00 0.0000E+00 0.9000E+01
#aMCatNLO 2  0  0  2  5 0.19237858D+02 0.00000000D+00  -5  6  0 0.00000000D+00 0.00000000D+00 0.00000000D+00 0.00000000D+00 0.00000000D+00
  <mgrwgt>
 0.1310728819D+00    1    2    0
 0.133527116381038D+03 0.000000000000000D+00 0.000000000000000D+00 0.133527116381038D+03
 0.133527116381038D+03 0.000000000000000D+00 0.000000000000000D+00 -.133527116381038D+03
 0.136964277399118D+03 -.509066938990015D+02 0.207284879975067D+02 -.106325718936197D+02
 0.940549725113233D+02 0.393769521949008D+02 0.905366348163721D+01 0.273241415809723D+02
 0.360349828516360D+02 0.115297417041007D+02 -.297821514791439D+02 -.166915696873525D+02
 0.000000000000000D+00 0.000000000000000D+00 0.000000000000000D+00 -.000000000000000D+00
 0.136565647797524D+03 0.000000000000000D+00 0.000000000000000D+00 0.136565647797524D+03
 0.168236412734822D+03 0.000000000000000D+00 0.000000000000000D+00 -.168236412734822D+03
 0.140049785989246D+03 -.599925949855070D+02 0.166366919027070D+02 -.106325718936197D+02
 0.914444590793085D+02 0.332926781099691D+02 0.631363707111525D+01 0.273241415809723D+02
 0.362520124602240D+02 0.915877006024073D+01 -.308499082619727D+02 -.166915696873525D+02
 0.370558030035676D+02 0.175411468152971D+02 0.789957928815044D+01 -.316707649372987D+02
0.132761752454D-03 0.000000000000D+00 0.000000000000D+00 0.235447212524D-04 0.208775821006D-06  6 1 -2 25 -24 21 21 4 0.66148505D-01 0.82208121D-02 0.19367023D+05 0.19367023D+05 0.19367023D+05 0.12353667D+01  1  2  1  2  6  2       -2 0.131072881900D+00 0.100000000000D+01
  </mgrwgt>
  </event>
  <event>
  6     66 -.44337718E-03 0.14786725E+02 0.75467711E-02 0.11839144E+00
        3 -1    0    0  502    0 0.00000000E+00 0.00000000E+00 0.13158223E+03 0.13158318E+03 0.50000000E+00 0.0000E+00 0.9000E+01
       -4 -1    0    0    0  501 -.00000000E+00 -.00000000E+00 -.47130371E+03 0.47130625E+03 0.15500000E+01 0.0000E+00 0.9000E+01
       25  1    1    2    0    0 0.67964804E+02 -.54225437E+02 -.28749820E+03 0.32533033E+03 0.12500000E+03 0.0000E+00 0.9000E+01
      -24  1    1    2    0    0 -.93695373E+02 0.39570086E+02 -.13110209E+03 0.18438977E+03 0.80419002E+02 0.0000E+00 0.9000E+01
       21  1    1    2  502  503 0.24583786E+02 -.64964859E+01 0.58383344E+02 0.63684725E+02 0.75000000E+00 0.0000E+00 0.9000E+01
       21  1    1    2  503  501 0.11467833E+01 0.21151837E+02 0.20495464E+02 0.29484604E+02 0.75000000E+00 0.0000E+00 0.9000E+01
#aMCatNLO 2  0  0  5  2 0.18135054D+02 0.00000000D+00  -5  6  0 0.00000000D+00 0.00000000D+00 0.00000000D+00 0.00000000D+00 0.00000000D+00
  <mgrwgt>
 -.5983223025D-01    2    2    0
 0.249030614334484D+03 0.000000000000000D+00 0.000000000000000D+00 0.249030614334484D+03
 0.249030614334484D+03 -.000000000000000D+00 -.000000000000000D+00 -.249030614334484D+03
 0.198861441966020D+03 0.676582530781829D+02 -.544000393690111D+02 -.127999490654702D+03
 0.134206576733930D+03 -.939025264616007D+02 0.394520977604071D+02 -.342058005417397D+02
 0.164993209969018D+03 0.262442733834179D+02 0.149479416086039D+02 0.162205291196442D+03
 0.000000000000000D+00 0.000000000000000D+00 0.000000000000000D+00 0.000000000000000D+00
 0.249030614334484D+03 0.000000000000000D+00 0.000000000000000D+00 0.249030614334484D+03
 0.249030614334484D+03 -.000000000000000D+00 -.000000000000000D+00 -.249030614334484D+03
 0.197702598942930D+03 0.679652898662226D+02 -.542251605330739D+02 -.126101819841554D+03
 0.133774946063237D+03 -.936950437412183D+02 0.395702736208610D+02 -.329234333530515D+02
 0.116605375262781D+03 0.245553405651337D+02 -.658529858383164D+01 0.113800187312966D+03
 0.499783084000190D+02 0.117441330986206D+01 0.212401854960445D+02 0.452250658816397D+02
-.531223952759D-02 0.000000000000D+00 0.000000000000D+00 0.334912220823D-04 0.000000000000D+00  6 3 -4 25 -24 21 21 4 0.20243689D-01 0.72508531D-01 0.26997939D+05 0.26997939D+05 0.26997939D+05 0.12197339D+01  1  2 13  3  6  5       21 -.927617549187D-01 0.100000000000D+01
0.188579358742D-02 0.000000000000D+00 0.000000000000D+00 0.337536253052D-04 0.280906693178D-06  6 3 -4 25 -24 21 21 4 0.20243689D-01 0.72508531D-01 0.26997939D+05 0.26997939D+05 0.26997939D+05 0.12197339D+01  1  2  1  3  6  5       21 0.329295246712D-01 0.100000000000D+01
  </mgrwgt>
  </event>
  <event>
  5     66 -.44337718E-03 0.38178300E+02 0.75467711E-02 0.12241599E+00
        1 -1    0    0  502    0 0.00000000E+00 0.00000000E+00 0.80646282E+03 0.80646289E+03 0.32000000E+00 0.0000E+00 0.9000E+01
       -2 -1    0    0    0  501 0.00000000E+00 0.00000000E+00 -.27021524E+02 0.27023418E+02 0.32000000E+00 0.0000E+00 0.9000E+01
       25  1    1    2    0    0 0.63656683E+02 0.13034095E+02 0.43894860E+03 0.46100209E+03 0.12500000E+03 0.0000E+00 0.9000E+01
      -24  1    1    2    0    0 -.29165203E+02 0.33291585E+01 0.31535597E+03 0.32676948E+03 0.80419002E+02 0.0000E+00 0.9000E+01
       21  1    1    2  502  501 -.34491480E+02 -.16363254E+02 0.25136732E+02 0.45714725E+02 0.75000000E+00 0.0000E+00 0.9000E+01
#aMCatNLO 1  0  0  5  1 0.31203606D+01 0.00000000D+00  -5  6  0 0.00000000D+00 0.00000000D+00 0.00000000D+00 0.00000000D+00 0.00000000D+00
  <mgrwgt>
 -.2047649239D+00   25    2    0
 0.147623407277605D+03 0.000000000000000D+00 0.000000000000000D+00 0.147623407277605D+03
 0.147623407277605D+03 -.000000000000000D+00 -.000000000000000D+00 -.147623407277605D+03
 0.142607869634655D+03 0.636578751467920D+02 0.130346609080830D+02 0.221309066362292D+02
 0.899466213755535D+02 -.291644506302520D+02 0.332951527101991D+01 0.275957947883783D+02
 0.626923235450005D+02 -.344934245165400D+02 -.163641761791029D+02 -.497267014246075D+02
 0.000000000000000D+00 0.000000000000000D+00 0.000000000000000D+00 -.000000000000000D+00
 0.147623407277605D+03 0.000000000000000D+00 0.000000000000000D+00 0.147623407277605D+03
 0.147623407277605D+03 -.000000000000000D+00 -.000000000000000D+00 -.147623407277605D+03
 0.142546893105924D+03 0.635723096688176D+02 0.129940674159595D+02 0.220075530105709D+02
 0.899393544492712D+02 -.292184284398962D+02 0.330390742259199D+01 0.275179788434163D+02
 0.370959793353358D+02 -.224372932459459D+02 -.109718200938305D+02 -.274280644317405D+02
 0.256645876646784D+02 -.119165879829756D+02 -.532615474472103D+01 -.220974674222467D+02
0.123471047234D-04 0.000000000000D+00 0.000000000000D+00 0.186960226265D-04 0.000000000000D+00  6 1 -2 25 -24 21 21 2 0.12407135D+00 0.41573081D-02 0.17512194D+05 0.17512194D+05 0.17512194D+05 0.12402282D+01  1  2  2  3  6  5       21 0.955323687732D-02 0.100000000000D+01
0.411613889439D-06 0.651574617257D-06 -.474161332053D-07 0.186960226265D-04 0.000000000000D+00  6 1 -2 25 -24 21 21 4 0.12407135D+00 0.41573081D-02 0.17512194D+05 0.17512194D+05 0.17512194D+05 0.12402282D+01  1  2  3  3  6  5       21 0.489867482350D-03 0.100000000000D+01
0.537838365791D-06 0.000000000000D+00 0.000000000000D+00 0.186960226265D-04 0.000000000000D+00  6 1 -2 25 -24 21 21 4 0.12407135D+00 0.41573081D-02 0.17512194D+05 0.17512194D+05 0.17512194D+05 0.12402282D+01  1  2 15  3  6  5       21 0.640089007979D-03 0.100000000000D+01
0.373486065558D-05 0.000000000000D+00 0.000000000000D+00 0.186979531118D-04 0.000000000000D+00  6 1 -2 25 -24 21 21 4 0.12407135D+00 0.41573081D-02 0.17489131D+05 0.17489131D+05 0.17489131D+05 0.12402922D+01  1  2 12  3  6  5       21 0.444569074040D-02 0.100000000000D+01
0.369639784393D-05 0.000000000000D+00 0.000000000000D+00 0.186979531118D-04 0.000000000000D+00  6 1 -2 25 -24 21 21 4 0.12407135D+00 0.41573081D-02 0.17489131D+05 0.17489131D+05 0.17489131D+05 0.12402922D+01  1  2 12  3  6  5       21 0.439990756899D-02 0.100000000000D+01
-.783065947229D-03 0.000000000000D+00 0.000000000000D+00 0.186960226265D-04 0.000000000000D+00  6 1 -2 25 -24 21 21 4 0.12407135D+00 0.41573081D-02 0.17512194D+05 0.17512194D+05 0.17512194D+05 0.12402282D+01  1  2  4  3  6  5       21 -.931937803668D+00 0.100000000000D+01
-.362038239307D-03 0.000000000000D+00 0.000000000000D+00 0.186960226265D-04 0.000000000000D+00  6 1 -2 25 -24 21 21 4 0.12407135D+00 0.41573081D-02 0.17512194D+05 0.17512194D+05 0.17512194D+05 0.12402282D+01  1  2  5  3  6  5       21 -.430866803463D+00 0.100000000000D+01
0.537015276463D-03 0.000000000000D+00 -.000000000000D+00 0.186960226265D-04 0.000000000000D+00  6 1 -2 25 -24 21 21 4 0.12407135D+00 0.41573081D-02 0.17512194D+05 0.17512194D+05 0.17512194D+05 0.12402282D+01  1  2  6  3  6  5       21 0.639109437787D+00 0.100000000000D+01
0.416856554276D-03 0.000000000000D+00 0.000000000000D+00 0.186960226265D-04 0.131136488165D-04  6 1 -2 25 -24 21 21 4 0.12407135D+00 0.41573081D-02 0.17489131D+05 0.17489131D+05 0.17489131D+05 0.12402922D+01  1  2 11  3  6  5       21 0.496193966607D+00 0.100000000000D+01
0.224027711865D-07 0.000000000000D+00 0.000000000000D+00 0.186979531118D-04 0.000000000000D+00  6 1 -2 25 -24 1 -1 4 0.12407135D+00 0.41573081D-02 0.17489131D+05 0.17489131D+05 0.17489131D+05 0.12402922D+01  1  2 12  6  6  5       21 0.266665350083D-04 0.100000000000D+01
0.220932081478D-07 0.000000000000D+00 0.000000000000D+00 0.186979531118D-04 0.000000000000D+00  6 1 -2 25 -24 1 -1 4 0.12407135D+00 0.41573081D-02 0.17489131D+05 0.17489131D+05 0.17489131D+05 0.12402922D+01  1  2 12  6  6  5       21 0.262980549868D-04 0.100000000000D+01
-.164012402964D-05 0.000000000000D+00 0.000000000000D+00 0.186960226265D-04 0.000000000000D+00  6 1 -2 25 -24 1 -1 4 0.12407135D+00 0.41573081D-02 0.17512194D+05 0.17512194D+05 0.17512194D+05 0.12402282D+01  1  2  5  6  6  5       21 -.195193468868D-02 0.100000000000D+01
0.226485137402D-05 0.000000000000D+00 0.000000000000D+00 0.186960226265D-04 0.959551766714D-07  6 1 -2 25 -24 1 -1 4 0.12407135D+00 0.41573081D-02 0.17489131D+05 0.17489131D+05 0.17489131D+05 0.12402922D+01  1  2 11  6  6  5       21 0.269590480352D-02 0.100000000000D+01
0.224027711865D-07 0.000000000000D+00 0.000000000000D+00 0.186979531118D-04 0.000000000000D+00  6 1 -2 25 -24 2 -2 4 0.12407135D+00 0.41573081D-02 0.17489131D+05 0.17489131D+05 0.17489131D+05 0.12402922D+01  1  2 12  7  6  5       21 0.266665350083D-04 0.100000000000D+01
0.220932081478D-07 0.000000000000D+00 0.000000000000D+00 0.186979531118D-04 0.000000000000D+00  6 1 -2 25 -24 2 -2 4 0.12407135D+00 0.41573081D-02 0.17489131D+05 0.17489131D+05 0.17489131D+05 0.12402922D+01  1  2 12  7  6  5       21 0.262980549868D-04 0.100000000000D+01
-.164012402964D-05 0.000000000000D+00 0.000000000000D+00 0.186960226265D-04 0.000000000000D+00  6 1 -2 25 -24 2 -2 4 0.12407135D+00 0.41573081D-02 0.17512194D+05 0.17512194D+05 0.17512194D+05 0.12402282D+01  1  2  5  7  6  5       21 -.195193468868D-02 0.100000000000D+01
0.228605882783D-05 0.000000000000D+00 0.000000000000D+00 0.186960226265D-04 0.975690791911D-07  6 1 -2 25 -24 2 -2 4 0.12407135D+00 0.41573081D-02 0.17489131D+05 0.17489131D+05 0.17489131D+05 0.12402922D+01  1  2 11  7  6  5       21 0.272114852470D-02 0.100000000000D+01
0.224027711865D-07 0.000000000000D+00 0.000000000000D+00 0.186979531118D-04 0.000000000000D+00  6 1 -2 25 -24 3 -3 4 0.12407135D+00 0.41573081D-02 0.17489131D+05 0.17489131D+05 0.17489131D+05 0.12402922D+01  1  2 12  8  6  5       21 0.266665350083D-04 0.100000000000D+01
0.224027711865D-07 0.000000000000D+00 0.000000000000D+00 0.186979531118D-04 0.000000000000D+00  6 1 -2 25 -24 4 -4 4 0.12407135D+00 0.41573081D-02 0.17489131D+05 0.17489131D+05 0.17489131D+05 0.12402922D+01  1  2 12  8  6  5       21 0.266665350083D-04 0.100000000000D+01
0.220932081478D-07 0.000000000000D+00 0.000000000000D+00 0.186979531118D-04 0.000000000000D+00  6 1 -2 25 -24 3 -3 4 0.12407135D+00 0.41573081D-02 0.17489131D+05 0.17489131D+05 0.17489131D+05 0.12402922D+01  1  2 12  8  6  5       21 0.262980549868D-04 0.100000000000D+01
0.220932081478D-07 0.000000000000D+00 0.000000000000D+00 0.186979531118D-04 0.000000000000D+00  6 1 -2 25 -24 4 -4 4 0.12407135D+00 0.41573081D-02 0.17489131D+05 0.17489131D+05 0.17489131D+05 0.12402922D+01  1  2 12  8  6  5       21 0.262980549868D-04 0.100000000000D+01
-.164012402964D-05 0.000000000000D+00 0.000000000000D+00 0.186960226265D-04 0.000000000000D+00  6 1 -2 25 -24 3 -3 4 0.12407135D+00 0.41573081D-02 0.17512194D+05 0.17512194D+05 0.17512194D+05 0.12402282D+01  1  2  5  8  6  5       21 -.195193468868D-02 0.100000000000D+01
-.164012402964D-05 0.000000000000D+00 0.000000000000D+00 0.186960226265D-04 0.000000000000D+00  6 1 -2 25 -24 4 -4 4 0.12407135D+00 0.41573081D-02 0.17512194D+05 0.17512194D+05 0.17512194D+05 0.12402282D+01  1  2  5  8  6  5       21 -.195193468868D-02 0.100000000000D+01
0.226254302740D-05 0.000000000000D+00 0.000000000000D+00 0.186960226265D-04 0.958480539722D-07  6 1 -2 25 -24 3 -3 4 0.12407135D+00 0.41573081D-02 0.17489131D+05 0.17489131D+05 0.17489131D+05 0.12402922D+01  1  2 11  8  6  5       21 0.269315712532D-02 0.100000000000D+01
0.226254302740D-05 0.000000000000D+00 0.000000000000D+00 0.186960226265D-04 0.958480539722D-07  6 1 -2 25 -24 4 -4 4 0.12407135D+00 0.41573081D-02 0.17489131D+05 0.17489131D+05 0.17489131D+05 0.12402922D+01  1  2 11  8  6  5       21 0.269315712532D-02 0.100000000000D+01
  </mgrwgt>
  </event>
  <event>
  6     66 0.44337718E-03 0.19481351E+02 0.75467711E-02 0.12280865E+00
        1 -1    0    0  503    0 0.00000000E+00 0.00000000E+00 0.52127210E+03 0.52127220E+03 0.32000000E+00 0.0000E+00 0.9000E+01
       -2 -1    0    0    0  501 0.00000000E+00 0.00000000E+00 -.35580095E+02 0.35581534E+02 0.32000000E+00 0.0000E+00 0.9000E+01
       25  1    1    2    0    0 -.62000954E+02 -.92736376E+01 0.33526943E+03 0.36326396E+03 0.12500000E+03 0.0000E+00 0.9000E+01
      -24  1    1    2    0    0 0.40177968E+02 0.23126080E+01 0.11734421E+03 0.14783943E+03 0.80419002E+02 0.0000E+00 0.9000E+01
       21  1    1    2  502  501 0.22767669E+02 0.42712026E+00 0.31576769E+02 0.38938465E+02 0.75000000E+00 0.0000E+00 0.9000E+01
       21  1    1    2  503  502 -.94468291E+00 0.65339093E+01 0.15016065E+01 0.68118807E+01 0.75000000E+00 0.0000E+00 0.9000E+01
#aMCatNLO 2  0  0  1  5 0.66018480D+01 0.00000000D+00  -5  6  0 0.00000000D+00 0.00000000D+00 0.00000000D+00 0.00000000D+00 0.00000000D+00
  <mgrwgt>
 0.3670470714D-01    2    2    0
 0.130443581568818D+03 0.000000000000000D+00 0.000000000000000D+00 0.130443581568818D+03
 0.130443581568818D+03 0.000000000000000D+00 0.000000000000000D+00 -.130443581568818D+03
 0.143644284596491D+03 -.625273409641542D+02 -.567749201741359D+01 0.326615708988751D+02
 0.938242552197666D+02 0.398339824503844D+02 0.466264208673697D+01 -.269682873777111D+02
 0.234186233213790D+02 0.226933585137697D+02 0.101484993067662D+01 -.569328352116399D+01
 0.000000000000000D+00 -.000000000000000D+00 0.000000000000000D+00 -.000000000000000D+00
 0.131522135443958D+03 0.000000000000000D+00 0.000000000000000D+00 0.131522135443958D+03
 0.140994746051566D+03 0.000000000000000D+00 0.000000000000000D+00 -.140994746051566D+03
 0.143606047973525D+03 -.620073516924091D+02 -.927400329339760D+01 0.326615708988751D+02
 0.938817559152407D+02 0.401737735697158D+02 0.231247323026582D+01 -.269682873777111D+02
 0.234828770058454D+02 0.227782610333968D+02 0.427620759248890D+00 -.569328352116399D+01
 0.115462006009123D+02 -.944682910703487D+00 0.653390930388290D+01 -.947261060760788D+01
-.131245144804D-05 0.000000000000D+00 0.000000000000D+00 0.431477256409D-04 0.000000000000D+00  6 1 -2 25 -24 21 21 4 0.79530867D-01 0.50638752D-02 0.15934353D+05 0.15934353D+05 0.15934353D+05 0.12448418D+01  1  2  8  1  6  1        1 -.219059684067D-02 0.100000000000D+01
0.266535975032D-04 0.000000000000D+00 0.000000000000D+00 0.431477256409D-04 0.340441595063D-05  6 1 -2 25 -24 21 21 4 0.80188457D-01 0.54734759D-02 0.16789881D+05 0.16789881D+05 0.16789881D+05 0.12422798D+01  1  2  1  1  6  1        1 0.388953039850D-01 0.100000000000D+01
  </mgrwgt>
  </event>
  <event>
  5     66 0.44337718E-03 0.35659797E+02 0.75467711E-02 0.11539256E+00
        1 -1    0    0  502    0 0.00000000E+00 0.00000000E+00 0.25816950E+04 0.25816950E+04 0.32000000E+00 0.0000E+00 0.9000E+01
       -2 -1    0    0    0  501 0.00000000E+00 0.00000000E+00 -.25018447E+02 0.25020493E+02 0.32000000E+00 0.0000E+00 0.9000E+01
       25  1    1    2    0    0 -.14531381E+03 -.59252975E+02 0.21346249E+04 0.21440325E+04 0.12500000E+03 0.0000E+00 0.9000E+01
      -24  1    1    2    0    0 0.11101441E+03 0.68990441E+02 0.32901507E+03 0.36304547E+03 0.80419002E+02 0.0000E+00 0.9000E+01
       21  1    1    2  502  501 0.34299401E+02 -.97374654E+01 0.93036636E+02 0.99637569E+02 0.75000000E+00 0.0000E+00 0.9000E+01
#aMCatNLO 1  0  0  5  5 0.23692425D+01 0.00000000D+00  -5  6  0 0.00000000D+00 0.00000000D+00 0.00000000D+00 0.00000000D+00 0.00000000D+00
  <mgrwgt>
 0.1701545887D+00   23    2    0
 0.254150923667466D+03 0.000000000000000D+00 0.000000000000000D+00 0.254150923667466D+03
 0.254150923667466D+03 -.000000000000000D+00 -.000000000000000D+00 -.254150923667466D+03
 0.258387184394331D+03 -.145316458390645D+03 -.592522227141274D+02 0.162822719801216D+03
 0.206904919958276D+03 0.111012282364659D+03 0.689910436601187D+02 -.138776579462988D+03
 0.430097429823259D+02 0.343041760259869D+02 -.973882094599129D+01 -.240461403382281D+02
 0.000000000000000D+00 0.000000000000000D+00 0.000000000000000D+00 -.000000000000000D+00
 0.254150923667466D+03 0.000000000000000D+00 0.000000000000000D+00 0.254150923667466D+03
 0.254150923667466D+03 -.000000000000000D+00 -.000000000000000D+00 -.254150923667466D+03
 0.257512971594789D+03 -.144384225487018D+03 -.595168799768907D+02 0.162169254077056D+03
 0.207589024639036D+03 0.111761273984494D+03 0.687784078786877D+02 -.139301598853895D+03
 0.408262085736607D+02 0.319035271662797D+02 -.115187863324216D+02 -.227213956938943D+02
 0.237364252744744D+01 0.719424336244054D+00 0.225725843062454D+01 -.146259529266717D+00
0.182026629728D-02 0.000000000000D+00 0.000000000000D+00 0.764355384734D-05 0.000000000000D+00  6 1 -2 25 -24 21 21 2 0.39718401D+00 0.38491507D-02 0.37976840D+05 0.37976840D+05 0.37976840D+05 0.12042961D+01  1  2  2  3  6  5       21 0.960965204314D-01 0.100000000000D+01
0.260062804216D-03 0.960580915545D-04 -.699030186868D-05 0.764355384734D-05 0.000000000000D+00  6 1 -2 25 -24 21 21 4 0.39718401D+00 0.38491507D-02 0.37976840D+05 0.37976840D+05 0.37976840D+05 0.12042961D+01  1  2  3  3  6  5       21 0.199121202350D-01 0.100000000000D+01
0.638751472586D-04 0.000000000000D+00 0.000000000000D+00 0.764355384734D-05 0.000000000000D+00  6 1 -2 25 -24 21 21 4 0.39718401D+00 0.38491507D-02 0.37976840D+05 0.37976840D+05 0.37976840D+05 0.12042961D+01  1  2 15  3  6  5       21 0.489070175212D-02 0.100000000000D+01
-.946535380408D-02 0.000000000000D+00 0.000000000000D+00 0.764355384734D-05 0.000000000000D+00  6 1 -2 25 -24 21 21 4 0.39718401D+00 0.38491507D-02 0.37976840D+05 0.37976840D+05 0.37976840D+05 0.12042961D+01  1  2  4  3  6  5       21 -.724729795872D+00 0.100000000000D+01
-.110503302839D-01 0.000000000000D+00 0.000000000000D+00 0.764355384734D-05 0.000000000000D+00  6 1 -2 25 -24 21 21 4 0.39718401D+00 0.38491507D-02 0.37976840D+05 0.37976840D+05 0.37976840D+05 0.12042961D+01  1  2  5  3  6  5       21 -.846086028770D+00 0.100000000000D+01
0.123812428476D-01 0.000000000000D+00 -.000000000000D+00 0.764355384734D-05 0.000000000000D+00  6 1 -2 25 -24 21 21 4 0.39718401D+00 0.38491507D-02 0.37976840D+05 0.37976840D+05 0.37976840D+05 0.12042961D+01  1  2  6  3  6  5       21 0.947989455792D+00 0.100000000000D+01
0.879392960149D-02 0.000000000000D+00 0.000000000000D+00 0.764355384734D-05 0.532134948671D-05  6 1 -2 25 -24 21 21 4 0.39718401D+00 0.38491507D-02 0.38070546D+05 0.38070546D+05 0.38070546D+05 0.12041867D+01  1  2 11  3  6  5       21 0.673036147165D+00 0.100000000000D+01
0.948593786348D-07 0.000000000000D+00 0.000000000000D+00 0.764216629561D-05 0.000000000000D+00  6 1 -2 25 -24 1 -1 4 0.39718401D+00 0.38491507D-02 0.38070546D+05 0.38070546D+05 0.38070546D+05 0.12041867D+01  1  2 12  6  6  5       21 0.725998428598D-05 0.100000000000D+01
0.922015917742D-07 0.000000000000D+00 0.000000000000D+00 0.764216629561D-05 0.000000000000D+00  6 1 -2 25 -24 1 -1 4 0.39718401D+00 0.38491507D-02 0.38070546D+05 0.38070546D+05 0.38070546D+05 0.12041867D+01  1  2 12  6  6  5       21 0.705657276125D-05 0.100000000000D+01
-.536466267716D-04 0.000000000000D+00 0.000000000000D+00 0.764355384734D-05 0.000000000000D+00  6 1 -2 25 -24 1 -1 4 0.39718401D+00 0.38491507D-02 0.37976840D+05 0.37976840D+05 0.37976840D+05 0.12042961D+01  1  2  5  6  6  5       21 -.410753889122D-02 0.100000000000D+01
0.506062864211D-04 0.000000000000D+00 0.000000000000D+00 0.764355384734D-05 0.539733037427D-07  6 1 -2 25 -24 1 -1 4 0.39718401D+00 0.38491507D-02 0.38070546D+05 0.38070546D+05 0.38070546D+05 0.12041867D+01  1  2 11  6  6  5       21 0.387311038167D-02 0.100000000000D+01
0.948593786348D-07 0.000000000000D+00 0.000000000000D+00 0.764216629561D-05 0.000000000000D+00  6 1 -2 25 -24 2 -2 4 0.39718401D+00 0.38491507D-02 0.38070546D+05 0.38070546D+05 0.38070546D+05 0.12041867D+01  1  2 12  7  6  5       21 0.725998428598D-05 0.100000000000D+01
0.922015917742D-07 0.000000000000D+00 0.000000000000D+00 0.764216629561D-05 0.000000000000D+00  6 1 -2 25 -24 2 -2 4 0.39718401D+00 0.38491507D-02 0.38070546D+05 0.38070546D+05 0.38070546D+05 0.12041867D+01  1  2 12  7  6  5       21 0.705657276125D-05 0.100000000000D+01
-.536466267716D-04 0.000000000000D+00 0.000000000000D+00 0.764355384734D-05 0.000000000000D+00  6 1 -2 25 -24 2 -2 4 0.39718401D+00 0.38491507D-02 0.37976840D+05 0.37976840D+05 0.37976840D+05 0.12042961D+01  1  2  5  7  6  5       21 -.410753889122D-02 0.100000000000D+01
0.496615326278D-04 0.000000000000D+00 0.000000000000D+00 0.764355384734D-05 0.566749588261D-07  6 1 -2 25 -24 2 -2 4 0.39718401D+00 0.38491507D-02 0.38070546D+05 0.38070546D+05 0.38070546D+05 0.12041867D+01  1  2 11  7  6  5       21 0.380080442951D-02 0.100000000000D+01
0.948593786348D-07 0.000000000000D+00 0.000000000000D+00 0.764216629561D-05 0.000000000000D+00  6 1 -2 25 -24 3 -3 4 0.39718401D+00 0.38491507D-02 0.38070546D+05 0.38070546D+05 0.38070546D+05 0.12041867D+01  1  2 12  8  6  5       21 0.725998428598D-05 0.100000000000D+01
0.948593786348D-07 0.000000000000D+00 0.000000000000D+00 0.764216629561D-05 0.000000000000D+00  6 1 -2 25 -24 4 -4 4 0.39718401D+00 0.38491507D-02 0.38070546D+05 0.38070546D+05 0.38070546D+05 0.12041867D+01  1  2 12  8  6  5       21 0.725998428598D-05 0.100000000000D+01
0.922015917742D-07 0.000000000000D+00 0.000000000000D+00 0.764216629561D-05 0.000000000000D+00  6 1 -2 25 -24 3 -3 4 0.39718401D+00 0.38491507D-02 0.38070546D+05 0.38070546D+05 0.38070546D+05 0.12041867D+01  1  2 12  8  6  5       21 0.705657276125D-05 0.100000000000D+01
0.922015917742D-07 0.000000000000D+00 0.000000000000D+00 0.764216629561D-05 0.000000000000D+00  6 1 -2 25 -24 4 -4 4 0.39718401D+00 0.38491507D-02 0.38070546D+05 0.38070546D+05 0.38070546D+05 0.12041867D+01  1  2 12  8  6  5       21 0.705657276125D-05 0.100000000000D+01
-.536466267716D-04 0.000000000000D+00 0.000000000000D+00 0.764355384734D-05 0.000000000000D+00  6 1 -2 25 -24 3 -3 4 0.39718401D+00 0.38491507D-02 0.37976840D+05 0.37976840D+05 0.37976840D+05 0.12042961D+01  1  2  5  8  6  5       21 -.410753889122D-02 0.100000000000D+01
-.536466267716D-04 0.000000000000D+00 0.000000000000D+00 0.764355384734D-05 0.000000000000D+00  6 1 -2 25 -24 4 -4 4 0.39718401D+00 0.38491507D-02 0.37976840D+05 0.37976840D+05 0.37976840D+05 0.12042961D+01  1  2  5  8  6  5       21 -.410753889122D-02 0.100000000000D+01
0.505946687639D-04 0.000000000000D+00 0.000000000000D+00 0.764355384734D-05 0.539359513407D-07  6 1 -2 25 -24 3 -3 4 0.39718401D+00 0.38491507D-02 0.38070546D+05 0.38070546D+05 0.38070546D+05 0.12041867D+01  1  2 11  8  6  5       21 0.387222123386D-02 0.100000000000D+01
0.505946687639D-04 0.000000000000D+00 0.000000000000D+00 0.764355384734D-05 0.539359513407D-07  6 1 -2 25 -24 4 -4 4 0.39718401D+00 0.38491507D-02 0.38070546D+05 0.38070546D+05 0.38070546D+05 0.12041867D+01  1  2 11  8  6  5       21 0.387222123386D-02 0.100000000000D+01
  </mgrwgt>
  </event>
  <event>
  5     66 0.44337718E-03 0.20112206E+02 0.75467711E-02 0.12483569E+00
        1 -1    0    0  502    0 0.00000000E+00 0.00000000E+00 0.24716924E+02 0.24718995E+02 0.32000000E+00 0.0000E+00 0.9000E+01
       -2 -1    0    0    0  501 -.00000000E+00 -.00000000E+00 -.71589695E+03 0.71589703E+03 0.32000000E+00 0.0000E+00 0.9000E+01
       25  1    1    2    0    0 -.27799861E+02 0.54280290E+01 -.29599142E+03 0.32254956E+03 0.12500000E+03 0.0000E+00 0.9000E+01
      -24  1    1    2    0    0 0.17715563E+02 -.22826968E+02 -.15465644E+03 0.17669392E+03 0.80419002E+02 0.0000E+00 0.9000E+01
       21  1    1    2  502  501 0.10084298E+02 0.17398939E+02 -.24053218E+03 0.24137255E+03 0.75000000E+00 0.0000E+00 0.9000E+01
#aMCatNLO 1  0  0  5  1 0.57118354D+01 0.00000000D+00  -5  6  0 0.00000000D+00 0.00000000D+00 0.00000000D+00 0.00000000D+00 0.00000000D+00
  <mgrwgt>
 0.5418253805D+00   15    2    0
 0.133024673748936D+03 0.000000000000000D+00 0.000000000000000D+00 0.133024673748936D+03
 0.133024673748936D+03 -.000000000000000D+00 -.000000000000000D+00 -.133024673748936D+03
 0.128931380542815D+03 -.278004820645426D+02 0.542695683556590D+01 0.139993651698927D+02
 0.900851241686473D+02 0.177151284585964D+02 -.228277174848462D+02 0.285163668835553D+02
 0.470328427864093D+02 0.100853536059462D+02 0.174007606492803D+02 -.425157320534479D+02
 0.000000000000000D+00 0.000000000000000D+00 0.000000000000000D+00 -.000000000000000D+00
 0.133024673748936D+03 0.000000000000000D+00 0.000000000000000D+00 0.133024673748936D+03
 0.133024673748936D+03 -.000000000000000D+00 -.000000000000000D+00 -.133024673748936D+03
 0.128694983062735D+03 -.273828354651712D+02 0.614754322208223D+01 0.122387376692921D+02
 0.896353704324757D+02 0.180064792829337D+02 -.223250354612555D+02 0.272881507926713D+02
 0.633392870533129D+01 0.290811599584372D+01 0.562674432149464D+01 -.355322313542272D-01
 0.413850652973287D+02 0.646824018639371D+01 0.105507479176787D+02 -.394913562306092D+02
0.127241025657D-02 0.000000000000D+00 0.000000000000D+00 0.691109539785D-04 0.000000000000D+00  6 1 -2 25 -24 21 21 2 0.38027685D-02 0.11013816D+00 0.13657885D+05 0.13657885D+05 0.13657885D+05 0.12524901D+01  1  2  2  3  6  5       21 0.278535571471D+00 0.100000000000D+01
0.170689566027D-03 0.671469339971D-04 -.488639041855D-05 0.691109539785D-04 0.000000000000D+00  6 1 -2 25 -24 21 21 4 0.38027685D-02 0.11013816D+00 0.13657885D+05 0.13657885D+05 0.13657885D+05 0.12524901D+01  1  2  3  3  6  5       21 0.586150465674D-01 0.100000000000D+01
0.436274183396D-04 0.000000000000D+00 0.000000000000D+00 0.691109539785D-04 0.000000000000D+00  6 1 -2 25 -24 21 21 4 0.38027685D-02 0.11013816D+00 0.13657885D+05 0.13657885D+05 0.13657885D+05 0.12524901D+01  1  2 15  3  6  5       21 0.149817192527D-01 0.100000000000D+01
0.459253097148D-04 0.000000000000D+00 0.000000000000D+00 0.691837311006D-04 0.000000000000D+00  6 1 -2 25 -24 21 21 4 0.38027685D-02 0.11013816D+00 0.13479424D+05 0.13479424D+05 0.13479424D+05 0.12531494D+01  1  2 12  3  6  5       21 0.157972849570D-01 0.100000000000D+01
-.315772756535D-03 0.000000000000D+00 0.000000000000D+00 0.691109539785D-04 0.000000000000D+00  6 1 -2 25 -24 21 21 4 0.38027685D-02 0.11013816D+00 0.13657885D+05 0.13657885D+05 0.13657885D+05 0.12524901D+01  1  2  4  3  6  5       21 -.108436826338D+00 0.100000000000D+01
-.779743231003D-04 0.000000000000D+00 0.000000000000D+00 0.691109539785D-04 0.000000000000D+00  6 1 -2 25 -24 21 21 4 0.38027685D-02 0.11013816D+00 0.13657885D+05 0.13657885D+05 0.13657885D+05 0.12524901D+01  1  2  5  3  6  5       21 -.267764965719D-01 0.100000000000D+01
0.957045515201D-03 0.000000000000D+00 -.000000000000D+00 0.691109539785D-04 0.000000000000D+00  6 1 -2 25 -24 21 21 4 0.38027685D-02 0.11013816D+00 0.13657885D+05 0.13657885D+05 0.13657885D+05 0.12524901D+01  1  2  6  3  6  5       21 0.328650829375D+00 0.100000000000D+01
0.177699124429D-04 0.000000000000D+00 0.000000000000D+00 0.691837311006D-04 0.000000000000D+00  6 1 -2 25 -24 1 -1 4 0.38027685D-02 0.11013816D+00 0.13479424D+05 0.13479424D+05 0.13479424D+05 0.12531494D+01  1  2 12  6  6  5       21 0.611245459782D-02 0.100000000000D+01
-.320263390165D-04 0.000000000000D+00 0.000000000000D+00 0.691109539785D-04 0.000000000000D+00  6 1 -2 25 -24 1 -1 4 0.38027685D-02 0.11013816D+00 0.13657885D+05 0.13657885D+05 0.13657885D+05 0.12524901D+01  1  2  5  6  6  5       21 -.109978916493D-01 0.100000000000D+01
0.177699124429D-04 0.000000000000D+00 0.000000000000D+00 0.691837311006D-04 0.000000000000D+00  6 1 -2 25 -24 2 -2 4 0.38027685D-02 0.11013816D+00 0.13479424D+05 0.13479424D+05 0.13479424D+05 0.12531494D+01  1  2 12  7  6  5       21 0.611245459782D-02 0.100000000000D+01
-.320263390165D-04 0.000000000000D+00 0.000000000000D+00 0.691109539785D-04 0.000000000000D+00  6 1 -2 25 -24 2 -2 4 0.38027685D-02 0.11013816D+00 0.13657885D+05 0.13657885D+05 0.13657885D+05 0.12524901D+01  1  2  5  7  6  5       21 -.109978916493D-01 0.100000000000D+01
0.177699124429D-04 0.000000000000D+00 0.000000000000D+00 0.691837311006D-04 0.000000000000D+00  6 1 -2 25 -24 3 -3 4 0.38027685D-02 0.11013816D+00 0.13479424D+05 0.13479424D+05 0.13479424D+05 0.12531494D+01  1  2 12  8  6  5       21 0.611245459782D-02 0.100000000000D+01
0.177699124429D-04 0.000000000000D+00 0.000000000000D+00 0.691837311006D-04 0.000000000000D+00  6 1 -2 25 -24 4 -4 4 0.38027685D-02 0.11013816D+00 0.13479424D+05 0.13479424D+05 0.13479424D+05 0.12531494D+01  1  2 12  8  6  5       21 0.611245459782D-02 0.100000000000D+01
-.320263390165D-04 0.000000000000D+00 0.000000000000D+00 0.691109539785D-04 0.000000000000D+00  6 1 -2 25 -24 3 -3 4 0.38027685D-02 0.11013816D+00 0.13657885D+05 0.13657885D+05 0.13657885D+05 0.12524901D+01  1  2  5  8  6  5       21 -.109978916493D-01 0.100000000000D+01
-.320263390165D-04 0.000000000000D+00 0.000000000000D+00 0.691109539785D-04 0.000000000000D+00  6 1 -2 25 -24 4 -4 4 0.38027685D-02 0.11013816D+00 0.13657885D+05 0.13657885D+05 0.13657885D+05 0.12524901D+01  1  2  5  8  6  5       21 -.109978916493D-01 0.100000000000D+01
  </mgrwgt>
  </event>
  <event>
  5     66 0.44337718E-03 0.10167962E+03 0.75467711E-02 0.11362969E+00
        1 -1    0    0  502    0 0.00000000E+00 0.00000000E+00 0.17966397E+03 0.17966425E+03 0.32000000E+00 0.0000E+00 0.9000E+01
       -2 -1    0    0    0  501 0.00000000E+00 0.00000000E+00 -.18323697E+03 0.18323725E+03 0.32000000E+00 0.0000E+00 0.9000E+01
       25  1    1    2    0    0 -.56200141E+02 0.14959900E+02 0.20091784E+02 0.13932313E+03 0.12500000E+03 0.0000E+00 0.9000E+01
      -24  1    1    2    0    0 -.38257815E+02 -.52591524E+02 0.31214678E+02 0.10803287E+03 0.80419002E+02 0.0000E+00 0.9000E+01
       21  1    1    2  502  501 0.94457955E+02 0.37631624E+02 -.54879464E+02 0.11554550E+03 0.75000000E+00 0.0000E+00 0.9000E+01
#aMCatNLO 1  0  0  2  1 0.82506529D+02 0.00000000D+00  -5  6  0 0.00000000D+00 0.00000000D+00 0.00000000D+00 0.00000000D+00 0.00000000D+00
  <mgrwgt>
 0.2459748087D-01    7    4    0
 0.181441953982796D+03 0.000000000000000D+00 0.000000000000000D+00 0.181441953982796D+03
 0.181441953982796D+03 0.000000000000000D+00 0.000000000000000D+00 -.181441953982796D+03
 0.139528053814150D+03 -.562009127917114D+02 0.149595918779963D+02 0.214649904119862D+02
 0.108345879072045D+03 -.382584143756110D+02 -.525917627855141D+02 0.322802381357391D+02
 0.115009975079395D+03 0.944593271673224D+02 0.376321709075178D+02 -.537452285477254D+02
 0.000000000000000D+00 0.000000000000000D+00 -.000000000000000D+00 -.000000000000000D+00
 0.208365871103848D+03 0.000000000000000D+00 0.000000000000000D+00 0.208365871103848D+03
 0.262410987702008D+03 0.000000000000000D+00 0.000000000000000D+00 -.262410987702008D+03
 0.155582885698391D+03 -.836569809506827D+02 0.334932537545834D+02 0.214649904119862D+02
 0.111630643597257D+03 -.587242446486538D+02 -.387767191999577D+02 0.322802381357391D+02
 0.104931681609758D+03 0.739967407005885D+02 0.514450248274246D+02 -.537452285477254D+02
 0.986316479004503D+02 0.683844848987479D+02 -.461615593820503D+02 -.540451165981605D+02
 0.181441953982796D+03 0.000000000000000D+00 0.000000000000000D+00 0.181441953982796D+03
 0.181441953982796D+03 0.000000000000000D+00 0.000000000000000D+00 -.181441953982796D+03
 0.139528053814150D+03 -.562009127917114D+02 0.149595918779963D+02 0.214649904119862D+02
 0.108345879072045D+03 -.382584143756110D+02 -.525917627855141D+02 0.322802381357391D+02
 0.000000000000000D+00 0.000000000000000D+00 -.000000000000000D+00 -.000000000000000D+00
 0.115009975079395D+03 0.944593271673224D+02 0.376321709075178D+02 -.537452285477254D+02
 0.208365871103848D+03 0.000000000000000D+00 0.000000000000000D+00 0.208365871103848D+03
 0.262410987702008D+03 0.000000000000000D+00 0.000000000000000D+00 -.262410987702008D+03
 0.155582885698391D+03 -.836569809506827D+02 0.334932537545834D+02 0.214649904119862D+02
 0.111630643597257D+03 -.587242446486538D+02 -.387767191999577D+02 0.322802381357391D+02
 0.986316479004503D+02 0.683844848987479D+02 -.461615593820503D+02 -.540451165981605D+02
 0.104931681609758D+03 0.739967407005885D+02 0.514450248274246D+02 -.537452285477254D+02
0.902439320078D-04 0.000000000000D+00 0.000000000000D+00 0.304220975004D-05 0.000000000000D+00  6 1 -2 25 -24 21 21 2 0.27640654D-01 0.28190346D-01 0.29407467D+05 0.29407467D+05 0.29407467D+05 0.12158087D+01  1  2  2  2  6  2       -2 0.222040435240D-01 0.100000000000D+01
-.677495951455D-05 0.476230312894D-05 -.346560460683D-06 0.304220975004D-05 0.000000000000D+00  6 1 -2 25 -24 21 21 4 0.27640654D-01 0.28190346D-01 0.29407467D+05 0.29407467D+05 0.29407467D+05 0.12158087D+01  1  2  3  2  6  2       -2 -.246406000802D-02 0.100000000000D+01
0.445624664492D-05 0.000000000000D+00 0.000000000000D+00 0.304220975004D-05 0.000000000000D+00  6 1 -2 25 -24 21 21 4 0.27640654D-01 0.28190346D-01 0.29407467D+05 0.29407467D+05 0.29407467D+05 0.12158087D+01  1  2 15  2  6  2       -2 0.162074166200D-02 0.100000000000D+01
-.556714534252D-04 0.000000000000D+00 0.000000000000D+00 0.304220975004D-05 0.000000000000D+00  6 1 -2 25 -24 21 21 4 0.27640654D-01 0.28190346D-01 0.29407467D+05 0.29407467D+05 0.29407467D+05 0.12158087D+01  1  2  4  2  6  2       -2 -.202477670426D-01 0.100000000000D+01
-.120700311093D-03 0.000000000000D+00 -.513609356027D-04 0.304220975004D-05 0.000000000000D+00  6 1 -2 25 -24 21 21 4 0.27640654D-01 0.46026455D-01 0.29407467D+05 0.29407467D+05 0.29407467D+05 0.12158087D+01  1  2  5  2  6  2       -2 -.175781528606D-01 0.100000000000D+01
0.134944989702D-03 0.000000000000D+00 0.457520929402D-04 0.304220975004D-05 0.000000000000D+00  6 1 -2 25 -24 21 21 4 0.27640654D-01 0.28190346D-01 0.29407467D+05 0.29407467D+05 0.29407467D+05 0.12158087D+01  1  2  6  2  6  2       -2 0.490796368145D-01 0.100000000000D+01
-.443523754031D-05 0.000000000000D+00 -.285116758337D-05 0.304220975004D-05 0.000000000000D+00  6 1 21 25 -24 2 21 4 0.27640654D-01 0.46026455D-01 0.29407467D+05 0.29407467D+05 0.29407467D+05 0.12158087D+01  3  4  5  5  5  2       -2 -.801696122024D-02 0.100000000000D+01
  </mgrwgt>
  </event>
  <event>
  5     66 -.44337718E-03 0.24371880E+02 0.75467711E-02 0.10971925E+00
        1 -1    0    0  502    0 0.00000000E+00 0.00000000E+00 0.22070839E+03 0.22070862E+03 0.32000000E+00 0.0000E+00 0.9000E+01
       -2 -1    0    0    0  501 -.00000000E+00 -.00000000E+00 -.52443991E+03 0.52444000E+03 0.32000000E+00 0.0000E+00 0.9000E+01
       25  1    1    2    0    0 0.17068368E+03 -.18401912E+03 -.49993698E+02 0.28481630E+03 0.12500000E+03 0.0000E+00 0.9000E+01
      -24  1    1    2    0    0 -.17419941E+03 0.15990246E+03 -.49470614E+02 0.25461498E+03 0.80419002E+02 0.0000E+00 0.9000E+01
       21  1    1    2  502  501 0.35157234E+01 0.24116660E+02 -.20426720E+03 0.20571735E+03 0.75000000E+00 0.0000E+00 0.9000E+01
#aMCatNLO 1  0  0  5  2 0.50489970D+01 0.00000000D+00  -5  6  0 0.00000000D+00 0.00000000D+00 0.00000000D+00 0.00000000D+00 0.00000000D+00
  <mgrwgt>
 -.5396836480D+00   20    2    0
 0.340218181929884D+03 0.000000000000000D+00 0.000000000000000D+00 0.340218181929884D+03
 0.340218181929884D+03 -.000000000000000D+00 -.000000000000000D+00 -.340218181929884D+03
 0.289587734330164D+03 0.170683661193400D+03 -.184019279767639D+03 0.723881782468220D+02
 0.256747433851835D+03 -.174199428728233D+03 0.159902316947976D+03 0.594797183967627D+02
 0.134101195677768D+03 0.351576753483274D+01 0.241169628196630D+02 -.131867896643585D+03
 0.000000000000000D+00 0.000000000000000D+00 0.000000000000000D+00 -.000000000000000D+00
 0.340218181929884D+03 0.000000000000000D+00 0.000000000000000D+00 0.340218181929884D+03
 0.340218181929884D+03 -.000000000000000D+00 -.000000000000000D+00 -.340218181929884D+03
 0.289531647697980D+03 0.170687930917835D+03 -.183989990918358D+03 0.722280312590490D+02
 0.256728183354431D+03 -.174195642981361D+03 0.159928285876713D+03 0.593377242312377D+02
 0.621673473003369D+02 0.498891741477863D+01 0.148297113567828D+02 -.601661818172279D+02
 0.720091855070204D+02 -.148120535125270D+01 0.923199368486257D+01 -.713995736730588D+02
0.700864834051D-03 0.000000000000D+00 0.000000000000D+00 0.284540532798D-04 0.000000000000D+00  6 1 -2 25 -24 21 21 2 0.33955163D-01 0.80683088D-01 0.76875592D+05 0.76875592D+05 0.76875592D+05 0.11742115D+01  1  2  2  3  6  5       21 0.154520508085D-01 0.100000000000D+01
0.229574703891D-03 0.369856534163D-04 -.269150550470D-05 0.284540532798D-04 0.000000000000D+00  6 1 -2 25 -24 21 21 4 0.33955163D-01 0.80683088D-01 0.76875592D+05 0.76875592D+05 0.76875592D+05 0.11742115D+01  1  2  3  3  6  5       21 0.697860416308D-02 0.100000000000D+01
0.200609462702D-04 0.000000000000D+00 0.000000000000D+00 0.284540532798D-04 0.000000000000D+00  6 1 -2 25 -24 21 21 4 0.33955163D-01 0.80683088D-01 0.76875592D+05 0.76875592D+05 0.76875592D+05 0.11742115D+01  1  2 15  3  6  5       21 0.609811973112D-03 0.100000000000D+01
0.442028410759D-02 0.000000000000D+00 0.000000000000D+00 0.284495958819D-04 0.000000000000D+00  6 1 -2 25 -24 21 21 4 0.33955163D-01 0.80683088D-01 0.77048131D+05 0.77048131D+05 0.77048131D+05 0.11741195D+01  1  2 12  3  6  5       21 0.134323180519D+00 0.100000000000D+01
0.410872783975D-02 0.000000000000D+00 0.000000000000D+00 0.284495958819D-04 0.000000000000D+00  6 1 -2 25 -24 21 21 4 0.33955163D-01 0.80683088D-01 0.77048131D+05 0.77048131D+05 0.77048131D+05 0.11741195D+01  1  2 12  3  6  5       21 0.124855637758D+00 0.100000000000D+01
-.496744958295D-01 0.000000000000D+00 0.000000000000D+00 0.284540532798D-04 0.000000000000D+00  6 1 -2 25 -24 21 21 4 0.33955163D-01 0.80683088D-01 0.76875592D+05 0.76875592D+05 0.76875592D+05 0.11742115D+01  1  2  4  3  6  5       21 -.151000366120D+01 0.100000000000D+01
-.216457090761D-01 0.000000000000D+00 0.000000000000D+00 0.284540532798D-04 0.000000000000D+00  6 1 -2 25 -24 21 21 4 0.33955163D-01 0.80683088D-01 0.76875592D+05 0.76875592D+05 0.76875592D+05 0.11742115D+01  1  2  5  3  6  5       21 -.657985539830D+00 0.100000000000D+01
0.454003709415D-01 0.000000000000D+00 -.000000000000D+00 0.284540532798D-04 0.000000000000D+00  6 1 -2 25 -24 21 21 4 0.33955163D-01 0.80683088D-01 0.76875592D+05 0.76875592D+05 0.76875592D+05 0.11742115D+01  1  2  6  3  6  5       21 0.138007895594D+01 0.100000000000D+01
0.164820155303D-03 0.000000000000D+00 0.000000000000D+00 0.284495958819D-04 0.000000000000D+00  6 1 -2 25 -24 1 -1 4 0.33955163D-01 0.80683088D-01 0.77048131D+05 0.77048131D+05 0.77048131D+05 0.11741195D+01  1  2 12  6  6  5       21 0.500853948189D-02 0.100000000000D+01
0.153241345013D-03 0.000000000000D+00 0.000000000000D+00 0.284495958819D-04 0.000000000000D+00  6 1 -2 25 -24 1 -1 4 0.33955163D-01 0.80683088D-01 0.77048131D+05 0.77048131D+05 0.77048131D+05 0.11741195D+01  1  2 12  6  6  5       21 0.465668367649D-02 0.100000000000D+01
-.597520073678D-03 0.000000000000D+00 0.000000000000D+00 0.284540532798D-04 0.000000000000D+00  6 1 -2 25 -24 1 -1 4 0.33955163D-01 0.80683088D-01 0.76875592D+05 0.76875592D+05 0.76875592D+05 0.11742115D+01  1  2  5  6  6  5       21 -.181633951956D-01 0.100000000000D+01
0.164820155303D-03 0.000000000000D+00 0.000000000000D+00 0.284495958819D-04 0.000000000000D+00  6 1 -2 25 -24 2 -2 4 0.33955163D-01 0.80683088D-01 0.77048131D+05 0.77048131D+05 0.77048131D+05 0.11741195D+01  1  2 12  7  6  5       21 0.500853948189D-02 0.100000000000D+01
0.153241345013D-03 0.000000000000D+00 0.000000000000D+00 0.284495958819D-04 0.000000000000D+00  6 1 -2 25 -24 2 -2 4 0.33955163D-01 0.80683088D-01 0.77048131D+05 0.77048131D+05 0.77048131D+05 0.11741195D+01  1  2 12  7  6  5       21 0.465668367649D-02 0.100000000000D+01
-.597520073678D-03 0.000000000000D+00 0.000000000000D+00 0.284540532798D-04 0.000000000000D+00  6 1 -2 25 -24 2 -2 4 0.33955163D-01 0.80683088D-01 0.76875592D+05 0.76875592D+05 0.76875592D+05 0.11742115D+01  1  2  5  7  6  5       21 -.181633951956D-01 0.100000000000D+01
0.164820155303D-03 0.000000000000D+00 0.000000000000D+00 0.284495958819D-04 0.000000000000D+00  6 1 -2 25 -24 3 -3 4 0.33955163D-01 0.80683088D-01 0.77048131D+05 0.77048131D+05 0.77048131D+05 0.11741195D+01  1  2 12  8  6  5       21 0.500853948189D-02 0.100000000000D+01
0.164820155303D-03 0.000000000000D+00 0.000000000000D+00 0.284495958819D-04 0.000000000000D+00  6 1 -2 25 -24 4 -4 4 0.33955163D-01 0.80683088D-01 0.77048131D+05 0.77048131D+05 0.77048131D+05 0.11741195D+01  1  2 12  8  6  5       21 0.500853948189D-02 0.100000000000D+01
0.153241345013D-03 0.000000000000D+00 0.000000000000D+00 0.284495958819D-04 0.000000000000D+00  6 1 -2 25 -24 3 -3 4 0.33955163D-01 0.80683088D-01 0.77048131D+05 0.77048131D+05 0.77048131D+05 0.11741195D+01  1  2 12  8  6  5       21 0.465668367649D-02 0.100000000000D+01
0.153241345013D-03 0.000000000000D+00 0.000000000000D+00 0.284495958819D-04 0.000000000000D+00  6 1 -2 25 -24 4 -4 4 0.33955163D-01 0.80683088D-01 0.77048131D+05 0.77048131D+05 0.77048131D+05 0.11741195D+01  1  2 12  8  6  5       21 0.465668367649D-02 0.100000000000D+01
-.597520073678D-03 0.000000000000D+00 0.000000000000D+00 0.284540532798D-04 0.000000000000D+00  6 1 -2 25 -24 3 -3 4 0.33955163D-01 0.80683088D-01 0.76875592D+05 0.76875592D+05 0.76875592D+05 0.11742115D+01  1  2  5  8  6  5       21 -.181633951956D-01 0.100000000000D+01
-.597520073678D-03 0.000000000000D+00 0.000000000000D+00 0.284540532798D-04 0.000000000000D+00  6 1 -2 25 -24 4 -4 4 0.33955163D-01 0.80683088D-01 0.76875592D+05 0.76875592D+05 0.76875592D+05 0.11742115D+01  1  2  5  8  6  5       21 -.181633951956D-01 0.100000000000D+01
  </mgrwgt>
  </event>
  <event>
  5     66 -.44337718E-03 0.23302451E+02 0.75467711E-02 0.12040055E+00
        3 -1    0    0  502    0 0.00000000E+00 0.00000000E+00 0.57407641E+02 0.57409818E+02 0.50000000E+00 0.0000E+00 0.9000E+01
       -4 -1    0    0    0  501 -.00000000E+00 -.00000000E+00 -.45638989E+03 0.45639252E+03 0.15500000E+01 0.0000E+00 0.9000E+01
       25  1    1    2    0    0 0.70552808E+02 0.69798093E+02 -.27833283E+03 0.32084830E+03 0.12500000E+03 0.0000E+00 0.9000E+01
      -24  1    1    2    0    0 -.59118351E+02 -.49502029E+02 -.56948572E+02 0.12512308E+03 0.80419002E+02 0.0000E+00 0.9000E+01
       21  1    1    2  502  501 -.11434457E+02 -.20296065E+02 -.63700854E+02 0.67830954E+02 0.75000000E+00 0.0000E+00 0.9000E+01
#aMCatNLO 1  0  0  5  1 0.39522431D+01 0.00000000D+00  -5  6  0 0.00000000D+00 0.00000000D+00 0.00000000D+00 0.00000000D+00 0.00000000D+00
  <mgrwgt>
 -.5087995563D-01   20    2    0
 0.161868781669898D+03 0.000000000000000D+00 0.000000000000000D+00 0.161868781669898D+03
 0.161868781669898D+03 -.000000000000000D+00 -.000000000000000D+00 -.161868781669898D+03
 0.166193938776410D+03 0.705547522495835D+02 0.698015444254178D+02 -.463162673025723D+02
 0.128396831491894D+03 -.591168488402851D+02 -.494993624959018D+02 0.638243031962080D+02
 0.291467930714932D+02 -.114379034092984D+02 -.203021819295160D+02 -.175080358936358D+02
 0.000000000000000D+00 -.000000000000000D+00 0.000000000000000D+00 0.000000000000000D+00
 0.161868781669898D+03 0.000000000000000D+00 0.000000000000000D+00 0.161868781669898D+03
 0.161868781669898D+03 -.000000000000000D+00 -.000000000000000D+00 -.161868781669898D+03
 0.165974422931750D+03 0.702573531418280D+02 0.692736635214386D+02 -.467714970826284D+02
 0.128486415134696D+03 -.593468431960124D+02 -.499076005344345D+02 0.634722500889809D+02
 0.216899679267661D+02 -.475656350483546D+01 -.157350309702010D+02 -.141505693403277D+02
 0.758675734658510D+01 -.615394644098019D+01 -.363103201680325D+01 -.255018366602484D+01
0.301945110731D-03 0.000000000000D+00 0.000000000000D+00 0.318916046360D-04 0.000000000000D+00  6 3 -4 25 -24 21 21 2 0.88323147D-02 0.70214200D-01 0.21656380D+05 0.21656380D+05 0.21656380D+05 0.12300398D+01  1  2  2  3  6  5       21 0.155908745766D-01 0.100000000000D+01
0.573098158326D-04 0.159340812574D-04 -.115954872918D-05 0.318916046360D-04 0.000000000000D+00  6 3 -4 25 -24 21 21 4 0.88323147D-02 0.70214200D-01 0.21656380D+05 0.21656380D+05 0.21656380D+05 0.12300398D+01  1  2  3  3  6  5       21 0.447723416665D-02 0.100000000000D+01
0.117593858574D-04 0.000000000000D+00 0.000000000000D+00 0.318916046360D-04 0.000000000000D+00  6 3 -4 25 -24 21 21 4 0.88323147D-02 0.70214200D-01 0.21656380D+05 0.21656380D+05 0.21656380D+05 0.12300398D+01  1  2 15  3  6  5       21 0.918682487013D-03 0.100000000000D+01
0.292414750915D-04 0.000000000000D+00 0.000000000000D+00 0.318878763956D-04 0.000000000000D+00  6 3 -4 25 -24 21 21 4 0.88323147D-02 0.70214200D-01 0.21689286D+05 0.21689286D+05 0.21689286D+05 0.12299679D+01  1  2 12  3  6  5       21 0.228418087307D-02 0.100000000000D+01
0.282626352256D-04 0.000000000000D+00 0.000000000000D+00 0.318878763956D-04 0.000000000000D+00  6 3 -4 25 -24 21 21 4 0.88323147D-02 0.70214200D-01 0.21689286D+05 0.21689286D+05 0.21689286D+05 0.12299679D+01  1  2 12  3  6  5       21 0.220771936446D-02 0.100000000000D+01
-.167682719897D-02 0.000000000000D+00 0.000000000000D+00 0.318916046360D-04 0.000000000000D+00  6 3 -4 25 -24 21 21 4 0.88323147D-02 0.70214200D-01 0.21656380D+05 0.21656380D+05 0.21656380D+05 0.12300398D+01  1  2  4  3  6  5       21 -.130999339602D+00 0.100000000000D+01
-.121947047168D-02 0.000000000000D+00 0.000000000000D+00 0.318916046360D-04 0.000000000000D+00  6 3 -4 25 -24 21 21 4 0.88323147D-02 0.70214200D-01 0.21656380D+05 0.21656380D+05 0.21656380D+05 0.12300398D+01  1  2  5  3  6  5       21 -.952691049812D-01 0.100000000000D+01
0.202895413083D-02 0.000000000000D+00 -.000000000000D+00 0.318916046360D-04 0.000000000000D+00  6 3 -4 25 -24 21 21 4 0.88323147D-02 0.70214200D-01 0.21656380D+05 0.21656380D+05 0.21656380D+05 0.12300398D+01  1  2  6  3  6  5       21 0.158508671248D+00 0.100000000000D+01
0.109761923365D-05 0.000000000000D+00 0.000000000000D+00 0.318878763956D-04 0.000000000000D+00  6 3 -4 25 -24 3 -3 4 0.88323147D-02 0.70214200D-01 0.21689286D+05 0.21689286D+05 0.21689286D+05 0.12299679D+01  1  2 12  6  6  5       21 0.857398900559D-04 0.100000000000D+01
0.107144154944D-05 0.000000000000D+00 0.000000000000D+00 0.318878763956D-04 0.000000000000D+00  6 3 -4 25 -24 3 -3 4 0.88323147D-02 0.70214200D-01 0.21689286D+05 0.21689286D+05 0.21689286D+05 0.12299679D+01  1  2 12  6  6  5       21 0.836950354311D-04 0.100000000000D+01
-.296857942446D-04 0.000000000000D+00 0.000000000000D+00 0.318916046360D-04 0.000000000000D+00  6 3 -4 25 -24 3 -3 4 0.88323147D-02 0.70214200D-01 0.21656380D+05 0.21656380D+05 0.21656380D+05 0.12300398D+01  1  2  5  6  6  5       21 -.231915336535D-02 0.100000000000D+01
0.109761923365D-05 0.000000000000D+00 0.000000000000D+00 0.318878763956D-04 0.000000000000D+00  6 3 -4 25 -24 4 -4 4 0.88323147D-02 0.70214200D-01 0.21689286D+05 0.21689286D+05 0.21689286D+05 0.12299679D+01  1  2 12  7  6  5       21 0.857398900559D-04 0.100000000000D+01
0.107144154944D-05 0.000000000000D+00 0.000000000000D+00 0.318878763956D-04 0.000000000000D+00  6 3 -4 25 -24 4 -4 4 0.88323147D-02 0.70214200D-01 0.21689286D+05 0.21689286D+05 0.21689286D+05 0.12299679D+01  1  2 12  7  6  5       21 0.836950354311D-04 0.100000000000D+01
-.296857942446D-04 0.000000000000D+00 0.000000000000D+00 0.318916046360D-04 0.000000000000D+00  6 3 -4 25 -24 4 -4 4 0.88323147D-02 0.70214200D-01 0.21656380D+05 0.21656380D+05 0.21656380D+05 0.12300398D+01  1  2  5  7  6  5       21 -.231915336535D-02 0.100000000000D+01
0.109761923365D-05 0.000000000000D+00 0.000000000000D+00 0.318878763956D-04 0.000000000000D+00  6 3 -4 25 -24 1 -1 4 0.88323147D-02 0.70214200D-01 0.21689286D+05 0.21689286D+05 0.21689286D+05 0.12299679D+01  1  2 12  8  6  5       21 0.857398900559D-04 0.100000000000D+01
0.109761923365D-05 0.000000000000D+00 0.000000000000D+00 0.318878763956D-04 0.000000000000D+00  6 3 -4 25 -24 2 -2 4 0.88323147D-02 0.70214200D-01 0.21689286D+05 0.21689286D+05 0.21689286D+05 0.12299679D+01  1  2 12  8  6  5       21 0.857398900559D-04 0.100000000000D+01
0.107144154944D-05 0.000000000000D+00 0.000000000000D+00 0.318878763956D-04 0.000000000000D+00  6 3 -4 25 -24 1 -1 4 0.88323147D-02 0.70214200D-01 0.21689286D+05 0.21689286D+05 0.21689286D+05 0.12299679D+01  1  2 12  8  6  5       21 0.836950354311D-04 0.100000000000D+01
0.107144154944D-05 0.000000000000D+00 0.000000000000D+00 0.318878763956D-04 0.000000000000D+00  6 3 -4 25 -24 2 -2 4 0.88323147D-02 0.70214200D-01 0.21689286D+05 0.21689286D+05 0.21689286D+05 0.12299679D+01  1  2 12  8  6  5       21 0.836950354311D-04 0.100000000000D+01
-.296857942446D-04 0.000000000000D+00 0.000000000000D+00 0.318916046360D-04 0.000000000000D+00  6 3 -4 25 -24 1 -1 4 0.88323147D-02 0.70214200D-01 0.21656380D+05 0.21656380D+05 0.21656380D+05 0.12300398D+01  1  2  5  8  6  5       21 -.231915336535D-02 0.100000000000D+01
-.296857942446D-04 0.000000000000D+00 0.000000000000D+00 0.318916046360D-04 0.000000000000D+00  6 3 -4 25 -24 2 -2 4 0.88323147D-02 0.70214200D-01 0.21656380D+05 0.21656380D+05 0.21656380D+05 0.12300398D+01  1  2  5  8  6  5       21 -.231915336535D-02 0.100000000000D+01
  </mgrwgt>
  </event>
  <event>
  5     66 0.44337718E-03 0.40407926E+02 0.75467711E-02 0.11935228E+00
        1 -1    0    0  502    0 0.00000000E+00 0.00000000E+00 0.88840152E+03 0.88840158E+03 0.32000000E+00 0.0000E+00 0.9000E+01
       -2 -1    0    0    0  501 0.00000000E+00 0.00000000E+00 -.31863507E+02 0.31865114E+02 0.32000000E+00 0.0000E+00 0.9000E+01
       25  1    1    2    0    0 0.50086564E+02 -.61451027E+01 0.18687812E+03 0.23042322E+03 0.12500000E+03 0.0000E+00 0.9000E+01
      -24  1    1    2    0    0 -.87396679E+02 -.93552610E+01 0.56973256E+03 0.58205507E+03 0.80419002E+02 0.0000E+00 0.9000E+01
       21  1    1    2  502  501 0.37310115E+02 0.15500364E+02 0.99927336E+02 0.10778841E+03 0.75000000E+00 0.0000E+00 0.9000E+01
#aMCatNLO 1  0  0  2  1 0.17049215D+02 0.00000000D+00  -5  6  0 0.00000000D+00 0.00000000D+00 0.00000000D+00 0.00000000D+00 0.00000000D+00
  <mgrwgt>
 0.8078785942D-01    4    2    0
 0.168250866156034D+03 0.000000000000000D+00 0.000000000000000D+00 0.168250866156034D+03
 0.168250866156034D+03 0.000000000000000D+00 0.000000000000000D+00 -.168250866156034D+03
 0.154478481248826D+03 0.500836156055771D+02 -.614632775743334D+01 -.754483616251204D+02
 0.141600758854499D+03 -.873993823392574D+02 -.935638390608733D+01 0.765334240754832D+02
 0.404224922087430D+02 0.373157667336803D+02 0.155027116635207D+02 -.108506245036287D+01
 0.000000000000000D+00 -.000000000000000D+00 -.000000000000000D+00 0.000000000000000D+00
 0.181830628447066D+03 0.000000000000000D+00 0.000000000000000D+00 0.181830628447066D+03
 0.173904366986033D+03 0.000000000000000D+00 0.000000000000000D+00 -.173904366986033D+03
 0.155244964705888D+03 0.527449743884991D+02 0.122941912056405D+01 -.754483616251204D+02
 0.139833523603426D+03 -.849811036806108D+02 -.265431450413450D+01 0.765334240754832D+02
 0.418548754046080D+02 0.380227509733091D+02 0.174620629662075D+02 -.108506245036287D+01
 0.188016317191765D+02 -.578662168119739D+01 -.160371675826370D+02 0.792626146103285D+01
0.192223750887D-03 0.000000000000D+00 0.000000000000D+00 0.928330625421D-05 0.000000000000D+00  6 1 -2 25 -24 21 21 2 0.13667729D+00 0.49022060D-02 0.21659659D+05 0.21659659D+05 0.21659659D+05 0.12300326D+01  1  2  2  2  6  2       -2 0.988419170775D-01 0.100000000000D+01
0.125726518590D-04 0.101439260230D-04 -.738189817084D-06 0.928330625421D-05 0.000000000000D+00  6 1 -2 25 -24 21 21 4 0.13667729D+00 0.49022060D-02 0.21659659D+05 0.21659659D+05 0.21659659D+05 0.12300326D+01  1  2  3  2  6  2       -2 0.978124777046D-02 0.100000000000D+01
0.697626245311D-05 0.000000000000D+00 0.000000000000D+00 0.928330625421D-05 0.000000000000D+00  6 1 -2 25 -24 21 21 4 0.13667729D+00 0.49022060D-02 0.21659659D+05 0.21659659D+05 0.21659659D+05 0.12300326D+01  1  2 15  2  6  2       -2 0.542737938906D-02 0.100000000000D+01
-.427552972745D-04 0.000000000000D+00 0.000000000000D+00 0.928330625421D-05 0.000000000000D+00  6 1 -2 25 -24 21 21 4 0.13667729D+00 0.49022060D-02 0.21659659D+05 0.21659659D+05 0.21659659D+05 0.12300326D+01  1  2  4  2  6  2       -2 -.332626848202D-01 0.100000000000D+01
  </mgrwgt>
  </event>
  <event>
  5     66 0.44337718E-03 0.31899818E+02 0.75467711E-02 0.11904480E+00
        1 -1    0    0  502    0 0.00000000E+00 0.00000000E+00 0.37141448E+04 0.37141448E+04 0.32000000E+00 0.0000E+00 0.9000E+01
       -2 -1    0    0    0  501 0.00000000E+00 0.00000000E+00 -.78701363E+01 0.78766392E+01 0.32000000E+00 0.0000E+00 0.9000E+01
       25  1    1    2    0    0 0.55681784E+02 -.59119360E+02 0.16965707E+04 0.17031068E+04 0.12500000E+03 0.0000E+00 0.9000E+01
      -24  1    1    2    0    0 -.64415779E+02 0.89796904E+02 0.10732811E+04 0.10819484E+04 0.80419002E+02 0.0000E+00 0.9000E+01
       21  1    1    2  502  501 0.87339946E+01 -.30677544E+02 0.93642287E+03 0.93696625E+03 0.75000000E+00 0.0000E+00 0.9000E+01
#aMCatNLO 1  0  0  5  2 0.47812135D+01 0.00000000D+00  -5  6  0 0.00000000D+00 0.00000000D+00 0.00000000D+00 0.00000000D+00 0.00000000D+00
  <mgrwgt>
 0.5067374972D-01   14    2    0
 0.171005711599805D+03 0.000000000000000D+00 0.000000000000000D+00 0.171005711599805D+03
 0.171005711599805D+03 -.000000000000000D+00 -.000000000000000D+00 -.171005711599805D+03
 0.149242576066568D+03 0.556813383475124D+02 -.591177929994650D+02 0.728159472146888D+01
 0.143741730673506D+03 -.644162085096930D+02 0.897984124943000D+02 -.445114185056316D+02
 0.490271164595350D+02 0.873487016218068D+01 -.306806194948350D+02 0.372298237841627D+02
 0.000000000000000D+00 0.000000000000000D+00 0.000000000000000D+00 -.000000000000000D+00
 0.171005711599805D+03 0.000000000000000D+00 0.000000000000000D+00 0.171005711599805D+03
 0.171005711599805D+03 -.000000000000000D+00 -.000000000000000D+00 -.171005711599805D+03
 0.150342776106475D+03 0.562253586141205D+02 -.610286260728115D+02 0.960032164983542D+01
 0.141702902681418D+03 -.638978665266381D+02 0.879777725929579D+02 -.423021377343358D+02
 0.449228407700175D+02 0.113622977722857D+02 -.250136409701390D+02 0.355426163583836D+02
 0.504290364169812D+01 -.368978985976815D+01 -.193550555000736D+01 -.284080027388323D+01
0.689418496677D-03 0.000000000000D+00 0.000000000000D+00 0.193332100243D-04 0.000000000000D+00  6 1 -2 25 -24 21 21 2 0.57140739D+00 0.12112915D-02 0.25223948D+05 0.25223948D+05 0.25223948D+05 0.12228826D+01  1  2  2  3  6  5       21 0.323473015108D-01 0.100000000000D+01
0.758064919780D-04 0.363816135980D-04 -.264754855530D-05 0.193332100243D-04 0.000000000000D+00  6 1 -2 25 -24 21 21 4 0.57140739D+00 0.12112915D-02 0.25223948D+05 0.25223948D+05 0.25223948D+05 0.12228826D+01  1  2  3  3  6  5       21 0.531901324049D-02 0.100000000000D+01
0.232900118013D-04 0.000000000000D+00 0.000000000000D+00 0.193332100243D-04 0.000000000000D+00  6 1 -2 25 -24 21 21 4 0.57140739D+00 0.12112915D-02 0.25223948D+05 0.25223948D+05 0.25223948D+05 0.12228826D+01  1  2 15  3  6  5       21 0.163415926407D-02 0.100000000000D+01
0.910844201711D-04 0.000000000000D+00 0.000000000000D+00 0.193399212546D-04 0.000000000000D+00  6 1 -2 25 -24 21 21 4 0.57140739D+00 0.12112915D-02 0.25109147D+05 0.25109147D+05 0.25109147D+05 0.12230949D+01  1  2 12  3  6  5       21 0.639635316771D-02 0.100000000000D+01
-.126965735733D-02 0.000000000000D+00 0.000000000000D+00 0.193332100243D-04 0.000000000000D+00  6 1 -2 25 -24 21 21 4 0.57140739D+00 0.12112915D-02 0.25223948D+05 0.25223948D+05 0.25223948D+05 0.12228826D+01  1  2  4  3  6  5       21 -.890863581514D-01 0.100000000000D+01
0.131159008748D-02 0.000000000000D+00 0.000000000000D+00 0.193332100243D-04 0.592191075360D-05  6 1 -2 25 -24 21 21 4 0.57140739D+00 0.12112915D-02 0.25109147D+05 0.25109147D+05 0.25109147D+05 0.12230949D+01  1  2 11  3  6  5       21 0.921056904687D-01 0.100000000000D+01
0.230992015428D-05 0.000000000000D+00 0.000000000000D+00 0.193399212546D-04 0.000000000000D+00  6 1 -2 25 -24 1 -1 4 0.57140739D+00 0.12112915D-02 0.25109147D+05 0.25109147D+05 0.25109147D+05 0.12230949D+01  1  2 12  6  6  5       21 0.162212868768D-03 0.100000000000D+01
0.525268996442D-05 0.000000000000D+00 0.000000000000D+00 0.193399212546D-04 0.256183373869D-07  6 1 -2 25 -24 1 -1 4 0.57140739D+00 0.12112915D-02 0.25109147D+05 0.25109147D+05 0.25109147D+05 0.12230949D+01  1  2 11  6  6  5       21 0.368867255561D-03 0.100000000000D+01
0.230992015428D-05 0.000000000000D+00 0.000000000000D+00 0.193399212546D-04 0.000000000000D+00  6 1 -2 25 -24 2 -2 4 0.57140739D+00 0.12112915D-02 0.25109147D+05 0.25109147D+05 0.25109147D+05 0.12230949D+01  1  2 12  7  6  5       21 0.162212868768D-03 0.100000000000D+01
0.306370271285D-05 0.000000000000D+00 0.000000000000D+00 0.193399212546D-04 0.245089762658D-07  6 1 -2 25 -24 2 -2 4 0.57140739D+00 0.12112915D-02 0.25109147D+05 0.25109147D+05 0.25109147D+05 0.12230949D+01  1  2 11  7  6  5       21 0.215146833184D-03 0.100000000000D+01
0.230992015428D-05 0.000000000000D+00 0.000000000000D+00 0.193399212546D-04 0.000000000000D+00  6 1 -2 25 -24 3 -3 4 0.57140739D+00 0.12112915D-02 0.25109147D+05 0.25109147D+05 0.25109147D+05 0.12230949D+01  1  2 12  8  6  5       21 0.162212868768D-03 0.100000000000D+01
0.230992015428D-05 0.000000000000D+00 0.000000000000D+00 0.193399212546D-04 0.000000000000D+00  6 1 -2 25 -24 4 -4 4 0.57140739D+00 0.12112915D-02 0.25109147D+05 0.25109147D+05 0.25109147D+05 0.12230949D+01  1  2 12  8  6  5       21 0.162212868768D-03 0.100000000000D+01
0.516005940667D-05 0.000000000000D+00 0.000000000000D+00 0.193399212546D-04 0.230985620941D-07  6 1 -2 25 -24 3 -3 4 0.57140739D+00 0.12112915D-02 0.25109147D+05 0.25109147D+05 0.25109147D+05 0.12230949D+01  1  2 11  8  6  5       21 0.362362325735D-03 0.100000000000D+01
0.516005940667D-05 0.000000000000D+00 0.000000000000D+00 0.193399212546D-04 0.230985620941D-07  6 1 -2 25 -24 4 -4 4 0.57140739D+00 0.12112915D-02 0.25109147D+05 0.25109147D+05 0.25109147D+05 0.12230949D+01  1  2 11  8  6  5       21 0.362362325735D-03 0.100000000000D+01
  </mgrwgt>
  </event>
  <event>
  5     66 -.44337718E-03 0.32834654E+02 0.75467711E-02 0.11997959E+00
        3 -1    0    0  502    0 0.00000000E+00 0.00000000E+00 0.28248285E+03 0.28248329E+03 0.50000000E+00 0.0000E+00 0.9000E+01
       -4 -1    0    0    0  501 0.00000000E+00 0.00000000E+00 -.12365199E+03 0.12366170E+03 0.15500000E+01 0.0000E+00 0.9000E+01
       25  1    1    2    0    0 -.30709094E+02 -.82665511E+02 0.20865266E+03 0.25872295E+03 0.12500000E+03 0.0000E+00 0.9000E+01
      -24  1    1    2    0    0 0.35341179E+02 0.50161347E+02 -.20109312E+02 0.10313467E+03 0.80419002E+02 0.0000E+00 0.9000E+01
       21  1    1    2  502  501 -.46320852E+01 0.32504164E+02 -.29712484E+02 0.44287370E+02 0.75000000E+00 0.0000E+00 0.9000E+01
#aMCatNLO 1  0  0  2  1 0.13996622D+02 0.00000000D+00  -5  6  0 0.00000000D+00 0.00000000D+00 0.00000000D+00 0.00000000D+00 0.00000000D+00
  <mgrwgt>
 -.2144752937D-01    7    4    0
 0.186900047943522D+03 0.000000000000000D+00 0.000000000000000D+00 0.186900047943522D+03
 0.186900047943522D+03 0.000000000000000D+00 0.000000000000000D+00 -.186900047943522D+03
 0.192453666967794D+03 -.307089122113644D+02 -.826667867278586D+02 0.116775763804979D+03
 0.120602540031464D+03 0.353412931617970D+02 0.501605477977885D+02 -.656709155558838D+02
 0.607438888877865D+02 -.463238095043262D+01 0.325062389300700D+02 -.511048482490950D+02
 0.000000000000000D+00 -.000000000000000D+00 0.000000000000000D+00 -.000000000000000D+00
 0.191997712961786D+03 0.000000000000000D+00 0.000000000000000D+00 0.191997712961786D+03
 0.196891993318500D+03 0.000000000000000D+00 0.000000000000000D+00 -.196891993318500D+03
 0.191496148813564D+03 -.235243261632616D+02 -.827997709945804D+02 0.116775763804979D+03
 0.121975394934377D+03 0.398804854611512D+02 0.500765288779235D+02 -.656709155558838D+02
 0.605905060534396D+02 -.236193474830148D+01 0.324642137359530D+02 -.511048482490950D+02
 0.148276564789054D+02 -.139942245495881D+02 0.259028380703885D+00 -.489428035671439D+01
 0.186900047943522D+03 0.000000000000000D+00 0.000000000000000D+00 0.186900047943522D+03
 0.186900047943522D+03 0.000000000000000D+00 0.000000000000000D+00 -.186900047943522D+03
 0.192453666967794D+03 -.307089122113644D+02 -.826667867278586D+02 0.116775763804979D+03
 0.120602540031464D+03 0.353412931617970D+02 0.501605477977885D+02 -.656709155558838D+02
 0.000000000000000D+00 -.000000000000000D+00 0.000000000000000D+00 -.000000000000000D+00
 0.607438888877865D+02 -.463238095043262D+01 0.325062389300700D+02 -.511048482490950D+02
 0.191997712961786D+03 0.000000000000000D+00 0.000000000000000D+00 0.191997712961786D+03
 0.196891993318500D+03 0.000000000000000D+00 0.000000000000000D+00 -.196891993318500D+03
 0.191496148813564D+03 -.235243261632616D+02 -.827997709945804D+02 0.116775763804979D+03
 0.121975394934377D+03 0.398804854611512D+02 0.500765288779235D+02 -.656709155558838D+02
 0.148276564789054D+02 -.139942245495881D+02 0.259028380703885D+00 -.489428035671439D+01
 0.605905060534396D+02 -.236193474830148D+01 0.324642137359530D+02 -.511048482490950D+02
0.177626665427D-03 0.000000000000D+00 0.000000000000D+00 0.133076925335D-04 0.000000000000D+00  6 3 -4 25 -24 21 21 2 0.43459681D-01 0.19024164D-01 0.20587384D+05 0.20587384D+05 0.20587384D+05 0.12324445D+01  1  2  2  2  6  2       -4 0.700424912594D-02 0.100000000000D+01
0.102692244267D-04 0.937361666018D-05 -.682133165416D-06 0.133076925335D-04 0.000000000000D+00  6 3 -4 25 -24 21 21 4 0.43459681D-01 0.19024164D-01 0.20587384D+05 0.20587384D+05 0.20587384D+05 0.12324445D+01  1  2  3  2  6  2       -4 0.615071757227D-03 0.100000000000D+01
0.390312251720D-05 0.000000000000D+00 0.000000000000D+00 0.133076925335D-04 0.000000000000D+00  6 3 -4 25 -24 21 21 4 0.43459681D-01 0.19024164D-01 0.20587384D+05 0.20587384D+05 0.20587384D+05 0.12324445D+01  1  2 15  2  6  2       -4 0.233776215767D-03 0.100000000000D+01
-.152350514045D-03 0.000000000000D+00 0.000000000000D+00 0.133076925335D-04 0.000000000000D+00  6 3 -4 25 -24 21 21 4 0.43459681D-01 0.19024164D-01 0.20587384D+05 0.20587384D+05 0.20587384D+05 0.12324445D+01  1  2  4  2  6  2       -4 -.912498300697D-02 0.100000000000D+01
-.253811979915D-02 0.000000000000D+00 -.473755438990D-03 0.133076925335D-04 0.000000000000D+00  6 3 -4 25 -24 21 21 4 0.43459681D-01 0.20557320D-01 0.20587384D+05 0.20587384D+05 0.20587384D+05 0.12324445D+01  1  2  5  2  6  2       -4 -.132234833663D+00 0.100000000000D+01
0.256853974337D-02 0.000000000000D+00 0.472335984443D-03 0.133076925335D-04 0.000000000000D+00  6 3 -4 25 -24 21 21 4 0.43459681D-01 0.19024164D-01 0.20587384D+05 0.20587384D+05 0.20587384D+05 0.12324445D+01  1  2  6  2  6  2       -4 0.153841827564D+00 0.100000000000D+01
-.319927361680D-04 0.000000000000D+00 -.615208993296D-05 0.133076925335D-04 0.000000000000D+00  6 3 21 25 -24 4 21 4 0.43459681D-01 0.20557320D-01 0.20587384D+05 0.20587384D+05 0.20587384D+05 0.12324445D+01  3  4  5  5  5  2       -4 -.417826373619D-01 0.100000000000D+01
  </mgrwgt>
  </event>
  <event>
  6     66 -.44337718E-03 0.21014906E+02 0.75467711E-02 0.12319615E+00
        1 -1    0    0  502    0 0.00000000E+00 0.00000000E+00 0.15171178E+04 0.15171178E+04 0.32000000E+00 0.0000E+00 0.9000E+01
       -2 -1    0    0    0  501 0.00000000E+00 0.00000000E+00 -.11560902E+02 0.11565329E+02 0.32000000E+00 0.0000E+00 0.9000E+01
       25  1    1    2    0    0 0.10801919E+02 0.33212029E+02 0.57490836E+03 0.58937623E+03 0.12500000E+03 0.0000E+00 0.9000E+01
      -24  1    1    2    0    0 -.31428074E+02 -.27144611E+02 0.71663023E+03 0.72232310E+03 0.80419002E+02 0.0000E+00 0.9000E+01
       21  1    1    2  503  501 0.25619763E+02 0.45197195E+00 0.12607479E+03 0.12865454E+03 0.75000000E+00 0.0000E+00 0.9000E+01
       21  1    1    2  502  503 -.49936069E+01 -.65193901E+01 0.87943475E+02 0.88329246E+02 0.75000000E+00 0.0000E+00 0.9000E+01
#aMCatNLO 2  0  0  5  1 0.99916861D+01 0.00000000D+00  -5  6  0 0.00000000D+00 0.00000000D+00 0.00000000D+00 0.00000000D+00 0.00000000D+00
  <mgrwgt>
 -.3498912205D+00    4    2    0
 0.132448703897339D+03 0.000000000000000D+00 0.000000000000000D+00 0.132448703897339D+03
 0.132448703897339D+03 -.000000000000000D+00 -.000000000000000D+00 -.132448703897339D+03
 0.133982025851735D+03 0.374494389067864D+01 0.352879186270767D+02 -.326637634935017D+02
 0.966574234141549D+02 -.364920925260296D+02 -.256549727182996D+02 0.297588827846021D+02
 0.342579585287876D+02 0.327471486353509D+02 -.963294590877710D+01 0.290488070889958D+01
 0.000000000000000D+00 -.000000000000000D+00 0.000000000000000D+00 0.000000000000000D+00
 0.132448703897339D+03 0.000000000000000D+00 0.000000000000000D+00 0.132448703897339D+03
 0.132448703897339D+03 -.000000000000000D+00 -.000000000000000D+00 -.132448703897339D+03
 0.133680300529889D+03 0.110132299277756D+02 0.331498696926638D+02 -.320190202173456D+02
 0.953837578781550D+02 -.312772748286581D+02 -.271889706050251D+02 0.302214703368255D+02
 0.255714038398069D+02 0.252466997558400D+02 0.922166001010717D+00 -.395606567735448D+01
 0.102619455468265D+02 -.498265485495751D+01 -.688306508864938D+01 0.575361555787456D+01
-.247015610333D-03 0.000000000000D+00 0.000000000000D+00 0.197890136562D-04 0.000000000000D+00  6 1 -2 25 -24 21 21 4 0.23340307D+00 0.17789434D-02 0.16131456D+05 0.16131456D+05 0.16131456D+05 0.12442381D+01  1  2 13  3  6  5       21 -.326421004998D+00 0.100000000000D+01
-.261596701333D-03 0.000000000000D+00 0.000000000000D+00 0.197890136562D-04 0.000000000000D+00  6 1 -2 25 -24 21 21 4 0.23340307D+00 0.17789434D-02 0.16131456D+05 0.16131456D+05 0.16131456D+05 0.12442381D+01  1  2 13  3  6  5       21 -.345689319140D+00 0.100000000000D+01
-.114080042603D-04 0.000000000000D+00 0.000000000000D+00 0.197643547310D-04 0.000000000000D+00  6 1 -2 25 -24 21 21 4 0.23340307D+00 0.17789434D-02 0.16388652D+05 0.16388652D+05 0.16388652D+05 0.12434627D+01  1  2  8  3  6  5       21 -.150416908507D-01 0.100000000000D+01
0.255218505326D-03 0.000000000000D+00 0.000000000000D+00 0.197643547310D-04 0.133609136266D-05  6 1 -2 25 -24 21 21 4 0.23340307D+00 0.17789434D-02 0.16131456D+05 0.16131456D+05 0.16131456D+05 0.12442381D+01  1  2  1  3  6  5       21 0.337260794531D+00 0.100000000000D+01
  </mgrwgt>
  </event>
  <event>
  5     66 0.44337718E-03 0.65960376E+02 0.75467711E-02 0.10929355E+00
        1 -1    0    0  502    0 0.00000000E+00 0.00000000E+00 0.28615785E+03 0.28615803E+03 0.32000000E+00 0.0000E+00 0.9000E+01
       -2 -1    0    0    0  501 0.00000000E+00 0.00000000E+00 -.18448558E+03 0.18448586E+03 0.32000000E+00 0.0000E+00 0.9000E+01
       25  1    1    2    0    0 0.34314686E+02 -.15294854E+03 -.32012656E+02 0.20302848E+03 0.12500000E+03 0.0000E+00 0.9000E+01
      -24  1    1    2    0    0 0.15446430E+02 0.10965651E+03 0.14643435E+03 0.20043298E+03 0.80419002E+02 0.0000E+00 0.9000E+01
       21  1    1    2  502  501 -.49761116E+02 0.43292031E+02 -.12749428E+02 0.67182431E+02 0.75000000E+00 0.0000E+00 0.9000E+01
#aMCatNLO 1  0  0  2  5 0.22850894D+02 0.00000000D+00  -5  6  0 0.00000000D+00 0.00000000D+00 0.00000000D+00 0.00000000D+00 0.00000000D+00
  <mgrwgt>
 0.1010209762D+00    7    4    0
 0.229765325707312D+03 0.000000000000000D+00 0.000000000000000D+00 0.229765325707312D+03
 0.229765325707312D+03 0.000000000000000D+00 0.000000000000000D+00 -.229765325707312D+03
 0.215022111555930D+03 0.343159624641444D+02 -.152949652799294D+03 -.777066720861585D+02
 0.172881147146070D+03 0.154474564410183D+02 0.109655618621823D+03 0.105629998004065D+03
 0.716273927126233D+02 -.497634189051628D+02 0.432940341774712D+02 -.279233259179061D+02
 0.000000000000000D+00 0.000000000000000D+00 -.000000000000000D+00 -.000000000000000D+00
 0.310045312146907D+03 0.000000000000000D+00 0.000000000000000D+00 0.310045312146907D+03
 0.314250117957900D+03 0.000000000000000D+00 0.000000000000000D+00 -.314250117957900D+03
 0.213576859529739D+03 -.308068877719566D+02 -.151666356538575D+03 -.777066720861585D+02
 0.176922516788689D+03 -.377029549114843D+02 0.110702988690808D+03 0.105629998004065D+03
 0.907595711854061D+02 -.744370710687205D+02 0.437802476255154D+02 -.279233259179061D+02
 0.143036482600972D+03 0.142946913752161D+03 -.281687977774836D+01 -.420480581099299D+01
 0.229765325707312D+03 0.000000000000000D+00 0.000000000000000D+00 0.229765325707312D+03
 0.229765325707312D+03 0.000000000000000D+00 0.000000000000000D+00 -.229765325707312D+03
 0.215022111555930D+03 0.343159624641444D+02 -.152949652799294D+03 -.777066720861585D+02
 0.172881147146070D+03 0.154474564410183D+02 0.109655618621823D+03 0.105629998004065D+03
 0.000000000000000D+00 0.000000000000000D+00 -.000000000000000D+00 -.000000000000000D+00
 0.716273927126233D+02 -.497634189051628D+02 0.432940341774712D+02 -.279233259179061D+02
 0.310045312146907D+03 0.000000000000000D+00 0.000000000000000D+00 0.310045312146907D+03
 0.314250117957900D+03 0.000000000000000D+00 0.000000000000000D+00 -.314250117957900D+03
 0.213576859529739D+03 -.308068877719566D+02 -.151666356538575D+03 -.777066720861585D+02
 0.176922516788689D+03 -.377029549114843D+02 0.110702988690808D+03 0.105629998004065D+03
 0.143036482600972D+03 0.142946913752161D+03 -.281687977774836D+01 -.420480581099299D+01
 0.907595711854061D+02 -.744370710687205D+02 0.437802476255154D+02 -.279233259179061D+02
0.438831927064D-03 0.000000000000D+00 0.000000000000D+00 0.316413281894D-05 0.000000000000D+00  6 1 -2 25 -24 21 21 2 0.44024320D-01 0.28382432D-01 0.40664443D+05 0.40664443D+05 0.40664443D+05 0.12012744D+01  1  2  2  2  6  2       -2 0.583966979357D-01 0.100000000000D+01
0.774295404657D-05 0.231577970157D-04 -.168523014703D-05 0.316413281894D-05 0.000000000000D+00  6 1 -2 25 -24 21 21 4 0.44024320D-01 0.28382432D-01 0.40664443D+05 0.40664443D+05 0.40664443D+05 0.12012744D+01  1  2  3  2  6  2       -2 0.148689799583D-02 0.100000000000D+01
0.120195267526D-04 0.000000000000D+00 0.000000000000D+00 0.316413281894D-05 0.000000000000D+00  6 1 -2 25 -24 21 21 4 0.44024320D-01 0.28382432D-01 0.40664443D+05 0.40664443D+05 0.40664443D+05 0.12012744D+01  1  2 15  2  6  2       -2 0.230813848715D-02 0.100000000000D+01
-.462866441011D-04 0.000000000000D+00 0.000000000000D+00 0.316413281894D-05 0.000000000000D+00  6 1 -2 25 -24 21 21 4 0.44024320D-01 0.28382432D-01 0.40664443D+05 0.40664443D+05 0.40664443D+05 0.12012744D+01  1  2  4  2  6  2       -2 -.888853503889D-02 0.100000000000D+01
-.214569884283D-03 0.000000000000D+00 -.227970627835D-03 0.316413281894D-05 0.000000000000D+00  6 1 -2 25 -24 21 21 4 0.44024320D-01 0.51230513D-01 0.40664443D+05 0.40664443D+05 0.40664443D+05 0.12012744D+01  1  2  5  2  6  2       -2 -.134698454870D-01 0.100000000000D+01
0.325470830844D-03 0.000000000000D+00 0.193275537286D-03 0.316413281894D-05 0.000000000000D+00  6 1 -2 25 -24 21 21 4 0.44024320D-01 0.28382432D-01 0.40664443D+05 0.40664443D+05 0.40664443D+05 0.12012744D+01  1  2  6  2  6  2       -2 0.625009425564D-01 0.100000000000D+01
-.171884248008D-05 0.000000000000D+00 -.147566307567D-04 0.316413281894D-05 0.000000000000D+00  6 1 21 25 -24 2 21 4 0.44024320D-01 0.51230513D-01 0.40664443D+05 0.40664443D+05 0.40664443D+05 0.12012744D+01  3  4  5  5  5  2       -2 -.131332025424D-02 0.100000000000D+01
  </mgrwgt>
  </event>
  <event>
  5     66 0.44337718E-03 0.34130937E+02 0.75467711E-02 0.11107243E+00
        1 -1    0    0  502    0 0.00000000E+00 0.00000000E+00 0.17663727E+04 0.17663728E+04 0.32000000E+00 0.0000E+00 0.9000E+01
       -2 -1    0    0    0  501 0.00000000E+00 0.00000000E+00 -.22390792E+02 0.22393079E+02 0.32000000E+00 0.0000E+00 0.9000E+01
       25  1    1    2    0    0 0.24729382E+02 0.12075525E+03 0.57955723E+03 0.60556168E+03 0.12500000E+03 0.0000E+00 0.9000E+01
      -24  1    1    2    0    0 -.40455675E+02 -.15103927E+03 0.97187399E+03 0.98765166E+03 0.80419002E+02 0.0000E+00 0.9000E+01
       21  1    1    2  502  501 0.15726293E+02 0.30284021E+02 0.19255071E+03 0.19555249E+03 0.75000000E+00 0.0000E+00 0.9000E+01
#aMCatNLO 1  0  0  2  1 0.10845930D+03 0.00000000D+00  -5  6  0 0.00000000D+00 0.00000000D+00 0.00000000D+00 0.00000000D+00 0.00000000D+00
  <mgrwgt>
 0.6634188240D+00    3    2    0
 0.198878243744189D+03 0.000000000000000D+00 0.000000000000000D+00 0.198878243744189D+03
 0.198878243744189D+03 0.000000000000000D+00 0.000000000000000D+00 -.198878243744189D+03
 0.182196623344525D+03 0.247277444760958D+02 0.120752092589746D+03 -.487655651712243D+02
 0.180381623982882D+03 -.404572960647234D+02 -.151042389192447D+03 0.402457224869911D+02
 0.351782401609718D+02 0.157295515886276D+02 0.302902966027015D+02 0.851984268423320D+01
 0.000000000000000D+00 -.000000000000000D+00 0.000000000000000D+00 0.000000000000000D+00
 0.729510200392272D+03 0.000000000000000D+00 0.000000000000000D+00 0.729510200392272D+03
 0.211758363286070D+03 0.000000000000000D+00 0.000000000000000D+00 -.211758363286070D+03
 0.160814037061568D+03 0.418598044820360D+02 0.781398166000922D+02 -.487655651712243D+02
 0.221065341182199D+03 -.204065679378823D+02 -.200914217824743D+03 0.402457224869911D+02
 0.303992197199916D+02 0.190048928750696D+02 0.221435969758160D+02 0.851984268423320D+01
 0.528989965714583D+03 -.404581294192233D+02 0.100630804248835D+03 0.517751837106201D+03
0.244523563551D-02 0.000000000000D+00 0.000000000000D+00 0.140973379734D-04 0.000000000000D+00  6 1 -2 25 -24 21 21 2 0.27174983D+00 0.34449154D-02 0.37155410D+05 0.37155410D+05 0.37155410D+05 0.12052674D+01  1  2  2  2  6  2       -2 0.516043941787D+00 0.100000000000D+01
0.461438577180D-03 0.129038629622D-03 -.939034868571D-05 0.140973379734D-04 0.000000000000D+00  6 1 -2 25 -24 21 21 4 0.27174983D+00 0.34449154D-02 0.37155410D+05 0.37155410D+05 0.37155410D+05 0.12052674D+01  1  2  3  2  6  2       -2 0.141464235698D+00 0.100000000000D+01
0.192797868914D-04 0.000000000000D+00 0.000000000000D+00 0.140973379734D-04 0.000000000000D+00  6 1 -2 25 -24 21 21 4 0.27174983D+00 0.34449154D-02 0.37155410D+05 0.37155410D+05 0.37155410D+05 0.12052674D+01  1  2 15  2  6  2       -2 0.591064651262D-02 0.100000000000D+01
  </mgrwgt>
  </event>
  <event>
  5     66 0.44337718E-03 0.21752344E+02 0.75467711E-02 0.10204038E+00
        3 -1    0    0  502    0 0.00000000E+00 0.00000000E+00 0.29470862E+03 0.29470904E+03 0.50000000E+00 0.0000E+00 0.9000E+01
       -4 -1    0    0    0  501 0.00000000E+00 0.00000000E+00 -.85557019E+02 0.85571059E+02 0.15500000E+01 0.0000E+00 0.9000E+01
       25  1    1    2    0    0 0.84095934E+01 0.60961199E+02 0.22464967E+03 0.26434724E+03 0.12500000E+03 0.0000E+00 0.9000E+01
      -24  1    1    2    0    0 -.16349182E+02 -.40714113E+02 -.49296746E+01 0.91741225E+02 0.80419002E+02 0.0000E+00 0.9000E+01
       21  1    1    2  502  501 0.79395890E+01 -.20247086E+02 -.10568400E+02 0.24191634E+02 0.75000000E+00 0.0000E+00 0.9000E+01
#aMCatNLO 1  0  0  1  5 0.52280802D+01 0.00000000D+00  -5  6  0 0.00000000D+00 0.00000000D+00 0.00000000D+00 0.00000000D+00 0.00000000D+00
  <mgrwgt>
 0.4314427170D-01    3    2    0
 0.158799058817868D+03 0.000000000000000D+00 0.000000000000000D+00 0.158799058817868D+03
 0.158799058817868D+03 0.000000000000000D+00 0.000000000000000D+00 -.158799058817868D+03
 0.168580986041228D+03 0.840867478914465D+01 0.609635413912479D+02 0.949067419310172D+02
 0.113092128652628D+03 -.163497987000008D+02 -.407125411109761D+02 -.663158102383477D+02
 0.359250029418792D+02 0.794112391085619D+01 -.202510002802718D+02 -.285909316926694D+02
 0.000000000000000D+00 -.000000000000000D+00 0.000000000000000D+00 -.000000000000000D+00
 0.457686049546997D+03 0.000000000000000D+00 0.000000000000000D+00 0.457686049546997D+03
 0.535294292464262D+03 0.000000000000000D+00 0.000000000000000D+00 -.535294292464262D+03
 0.225973319684198D+03 0.124089989774818D+03 -.105039640054703D+03 0.949067419310172D+02
 0.227273181912251D+03 0.834435786128123D+02 -.183916464088639D+03 -.663158102383477D+02
 0.910016767655743D+02 0.451553806107735D+02 -.736536177046814D+02 -.285909316926694D+02
 0.448732163649235D+03 -.252688948998404D+03 0.362609721848023D+03 -.776082429172649D+02
0.504097130430D-03 0.000000000000D+00 0.000000000000D+00 0.320861797474D-04 0.000000000000D+00  6 3 -4 25 -24 21 21 2 0.45340900D-01 0.13163731D-01 0.15962847D+05 0.15962847D+05 0.15962847D+05 0.12447540D+01  1  2  2  1  6  1        3 0.349065993455D-01 0.100000000000D+01
0.637836506298D-04 0.266019364197D-04 -.193586571267D-05 0.320861797474D-04 0.000000000000D+00  6 3 -4 25 -24 21 21 4 0.45340900D-01 0.13163731D-01 0.15962847D+05 0.15962847D+05 0.15962847D+05 0.12447540D+01  1  2  3  1  6  1        3 0.684336621385D-02 0.100000000000D+01
0.129956417238D-04 0.000000000000D+00 0.000000000000D+00 0.320861797474D-04 0.000000000000D+00  6 3 -4 25 -24 21 21 4 0.45340900D-01 0.13163731D-01 0.15962847D+05 0.15962847D+05 0.15962847D+05 0.12447540D+01  1  2 15  1  6  1        3 0.139430613678D-02 0.100000000000D+01
  </mgrwgt>
  </event>
  <event>
  5     66 0.44337718E-03 0.76280365E+02 0.75467711E-02 0.11978956E+00
        1 -1    0    0  502    0 0.00000000E+00 0.00000000E+00 0.33341890E+04 0.33341890E+04 0.32000000E+00 0.0000E+00 0.9000E+01
       -2 -1    0    0    0  501 0.00000000E+00 0.00000000E+00 -.97018817E+01 0.97071576E+01 0.32000000E+00 0.0000E+00 0.9000E+01
       25  1    1    2    0    0 0.12409415E+02 0.27029941E+02 0.59761839E+03 0.61127518E+03 0.12500000E+03 0.0000E+00 0.9000E+01
      -24  1    1    2    0    0 0.14577863E+02 0.48622242E+02 0.12830000E+04 0.12865197E+04 0.80419002E+02 0.0000E+00 0.9000E+01
       21  1    1    2  502  501 -.26987278E+02 -.75652182E+02 0.14438688E+04 0.14461014E+04 0.75000000E+00 0.0000E+00 0.9000E+01
#aMCatNLO 1  0  0  5  1 0.17008250D+01 0.00000000D+00  -5  6  0 0.00000000D+00 0.00000000D+00 0.00000000D+00 0.00000000D+00 0.00000000D+00
  <mgrwgt>
 0.6812674663D-01   23    2    0
 0.179879832772241D+03 0.000000000000000D+00 0.000000000000000D+00 0.179879832772241D+03
 0.179879832772241D+03 -.000000000000000D+00 -.000000000000000D+00 -.179879832772241D+03
 0.159179423148462D+03 0.124097603524948D+02 0.270309079751494D+02 -.939596541921577D+02
 0.101932698963689D+03 0.145780836833524D+02 0.486228613229862D+02 0.366927240272272D+02
 0.986475434323317D+02 -.269878440358472D+02 -.756537692981356D+02 0.572669301649305D+02
 0.000000000000000D+00 0.000000000000000D+00 0.000000000000000D+00 0.000000000000000D+00
 0.179879832772241D+03 0.000000000000000D+00 0.000000000000000D+00 0.179879832772241D+03
 0.179879832772241D+03 -.000000000000000D+00 -.000000000000000D+00 -.179879832772241D+03
 0.158897478834393D+03 0.122532599228302D+02 0.265921975918679D+02 -.936275676733352D+02
 0.101861503358538D+03 0.144778127110568D+02 0.483417763650594D+02 0.369054942937366D+02
 0.972294601094570D+02 -.275400059969288D+02 -.751789881502377D+02 0.551655302120086D+02
 0.177122324209480D+01 0.808933363041785D+00 0.245014193310415D+00 0.155654316759001D+01
0.567649388663D-03 0.000000000000D+00 0.000000000000D+00 0.344027747168D-05 0.000000000000D+00  6 1 -2 25 -24 21 21 2 0.51295256D+00 0.14930042D-02 0.23090750D+05 0.23090750D+05 0.23090750D+05 0.12270141D+01  1  2  2  3  6  5       21 0.382965737490D-01 0.100000000000D+01
-.373452865359D-04 0.299556812256D-04 -.217992311798D-05 0.344027747168D-05 0.000000000000D+00  6 1 -2 25 -24 21 21 4 0.51295256D+00 0.14930042D-02 0.23090750D+05 0.23090750D+05 0.23090750D+05 0.12270141D+01  1  2  3  3  6  5       21 -.379327755836D-02 0.100000000000D+01
0.213342802932D-04 0.000000000000D+00 0.000000000000D+00 0.344027747168D-05 0.000000000000D+00  6 1 -2 25 -24 21 21 4 0.51295256D+00 0.14930042D-02 0.23090750D+05 0.23090750D+05 0.23090750D+05 0.12270141D+01  1  2 15  3  6  5       21 0.216698957664D-02 0.100000000000D+01
-.386134069213D-02 0.000000000000D+00 0.000000000000D+00 0.344027747168D-05 0.000000000000D+00  6 1 -2 25 -24 21 21 4 0.51295256D+00 0.14930042D-02 0.23090750D+05 0.23090750D+05 0.23090750D+05 0.12270141D+01  1  2  4  3  6  5       21 -.392208451220D+00 0.100000000000D+01
-.148761500712D-01 0.000000000000D+00 0.000000000000D+00 0.344027747168D-05 0.000000000000D+00  6 1 -2 25 -24 21 21 4 0.51295256D+00 0.14930042D-02 0.23090750D+05 0.23090750D+05 0.23090750D+05 0.12270141D+01  1  2  5  3  6  5       21 -.151101709088D+01 0.100000000000D+01
0.151367113193D-01 0.000000000000D+00 -.000000000000D+00 0.344027747168D-05 0.000000000000D+00  6 1 -2 25 -24 21 21 4 0.51295256D+00 0.14930042D-02 0.23090750D+05 0.23090750D+05 0.23090750D+05 0.12270141D+01  1  2  6  3  6  5       21 0.153748311181D+01 0.100000000000D+01
0.390828021386D-02 0.000000000000D+00 0.000000000000D+00 0.344027747168D-05 0.123876692610D-04  6 1 -2 25 -24 21 21 4 0.51295256D+00 0.14930042D-02 0.23139568D+05 0.23139568D+05 0.23139568D+05 0.12269148D+01  1  2 11  3  6  5       21 0.396826857490D+00 0.100000000000D+01
0.474768910367D-08 0.000000000000D+00 0.000000000000D+00 0.343972094493D-05 0.000000000000D+00  6 1 -2 25 -24 1 -1 4 0.51295256D+00 0.14930042D-02 0.23139568D+05 0.23139568D+05 0.23139568D+05 0.12269148D+01  1  2 12  6  6  5       21 0.482056158785D-06 0.100000000000D+01
0.486881202468D-08 0.000000000000D+00 0.000000000000D+00 0.343972094493D-05 0.000000000000D+00  6 1 -2 25 -24 1 -1 4 0.51295256D+00 0.14930042D-02 0.23139568D+05 0.23139568D+05 0.23139568D+05 0.12269148D+01  1  2 12  6  6  5       21 0.494354362978D-06 0.100000000000D+01
-.214406067228D-04 0.000000000000D+00 0.000000000000D+00 0.344027747168D-05 0.000000000000D+00  6 1 -2 25 -24 1 -1 4 0.51295256D+00 0.14930042D-02 0.23090750D+05 0.23090750D+05 0.23090750D+05 0.12270141D+01  1  2  5  6  6  5       21 -.217778948465D-02 0.100000000000D+01
0.224514529398D-04 0.000000000000D+00 0.000000000000D+00 0.344027747168D-05 0.201801242086D-07  6 1 -2 25 -24 1 -1 4 0.51295256D+00 0.14930042D-02 0.23139568D+05 0.23139568D+05 0.23139568D+05 0.12269148D+01  1  2 11  6  6  5       21 0.227960612563D-02 0.100000000000D+01
0.474768910367D-08 0.000000000000D+00 0.000000000000D+00 0.343972094493D-05 0.000000000000D+00  6 1 -2 25 -24 2 -2 4 0.51295256D+00 0.14930042D-02 0.23139568D+05 0.23139568D+05 0.23139568D+05 0.12269148D+01  1  2 12  7  6  5       21 0.482056158785D-06 0.100000000000D+01
0.486881202468D-08 0.000000000000D+00 0.000000000000D+00 0.343972094493D-05 0.000000000000D+00  6 1 -2 25 -24 2 -2 4 0.51295256D+00 0.14930042D-02 0.23139568D+05 0.23139568D+05 0.23139568D+05 0.12269148D+01  1  2 12  7  6  5       21 0.494354362978D-06 0.100000000000D+01
-.214406067228D-04 0.000000000000D+00 0.000000000000D+00 0.344027747168D-05 0.000000000000D+00  6 1 -2 25 -24 2 -2 4 0.51295256D+00 0.14930042D-02 0.23090750D+05 0.23090750D+05 0.23090750D+05 0.12270141D+01  1  2  5  7  6  5       21 -.217778948465D-02 0.100000000000D+01
0.223299002773D-04 0.000000000000D+00 0.000000000000D+00 0.344027747168D-05 0.219855005078D-07  6 1 -2 25 -24 2 -2 4 0.51295256D+00 0.14930042D-02 0.23139568D+05 0.23139568D+05 0.23139568D+05 0.12269148D+01  1  2 11  7  6  5       21 0.226726428767D-02 0.100000000000D+01
0.474768910367D-08 0.000000000000D+00 0.000000000000D+00 0.343972094493D-05 0.000000000000D+00  6 1 -2 25 -24 3 -3 4 0.51295256D+00 0.14930042D-02 0.23139568D+05 0.23139568D+05 0.23139568D+05 0.12269148D+01  1  2 12  8  6  5       21 0.482056158785D-06 0.100000000000D+01
0.474768910367D-08 0.000000000000D+00 0.000000000000D+00 0.343972094493D-05 0.000000000000D+00  6 1 -2 25 -24 4 -4 4 0.51295256D+00 0.14930042D-02 0.23139568D+05 0.23139568D+05 0.23139568D+05 0.12269148D+01  1  2 12  8  6  5       21 0.482056158785D-06 0.100000000000D+01
0.486881202468D-08 0.000000000000D+00 0.000000000000D+00 0.343972094493D-05 0.000000000000D+00  6 1 -2 25 -24 3 -3 4 0.51295256D+00 0.14930042D-02 0.23139568D+05 0.23139568D+05 0.23139568D+05 0.12269148D+01  1  2 12  8  6  5       21 0.494354362978D-06 0.100000000000D+01
0.486881202468D-08 0.000000000000D+00 0.000000000000D+00 0.343972094493D-05 0.000000000000D+00  6 1 -2 25 -24 4 -4 4 0.51295256D+00 0.14930042D-02 0.23139568D+05 0.23139568D+05 0.23139568D+05 0.12269148D+01  1  2 12  8  6  5       21 0.494354362978D-06 0.100000000000D+01
-.214406067228D-04 0.000000000000D+00 0.000000000000D+00 0.344027747168D-05 0.000000000000D+00  6 1 -2 25 -24 3 -3 4 0.51295256D+00 0.14930042D-02 0.23090750D+05 0.23090750D+05 0.23090750D+05 0.12270141D+01  1  2  5  8  6  5       21 -.217778948465D-02 0.100000000000D+01
-.214406067228D-04 0.000000000000D+00 0.000000000000D+00 0.344027747168D-05 0.000000000000D+00  6 1 -2 25 -24 4 -4 4 0.51295256D+00 0.14930042D-02 0.23090750D+05 0.23090750D+05 0.23090750D+05 0.12270141D+01  1  2  5  8  6  5       21 -.217778948465D-02 0.100000000000D+01
0.223194948823D-04 0.000000000000D+00 0.000000000000D+00 0.344027747168D-05 0.200179626244D-07  6 1 -2 25 -24 3 -3 4 0.51295256D+00 0.14930042D-02 0.23139568D+05 0.23139568D+05 0.23139568D+05 0.12269148D+01  1  2 11  8  6  5       21 0.226620777689D-02 0.100000000000D+01
0.223194948823D-04 0.000000000000D+00 0.000000000000D+00 0.344027747168D-05 0.200179626244D-07  6 1 -2 25 -24 4 -4 4 0.51295256D+00 0.14930042D-02 0.23139568D+05 0.23139568D+05 0.23139568D+05 0.12269148D+01  1  2 11  8  6  5       21 0.226620777689D-02 0.100000000000D+01
  </mgrwgt>
  </event>
  <event>
  5     66 0.44337718E-03 0.23815386E+02 0.75467711E-02 0.11507674E+00
        1 -1    0    0  502    0 0.00000000E+00 0.00000000E+00 0.22891230E+02 0.22893467E+02 0.32000000E+00 0.0000E+00 0.9000E+01
       -2 -1    0    0    0  501 -.00000000E+00 -.00000000E+00 -.19627161E+04 0.19627161E+04 0.32000000E+00 0.0000E+00 0.9000E+01
       25  1    1    2    0    0 -.11023150E+03 -.11207289E+03 -.68718966E+03 0.71593711E+03 0.12500000E+03 0.0000E+00 0.9000E+01
      -24  1    1    2    0    0 0.89586503E+02 0.10020377E+03 -.73572214E+03 0.75221063E+03 0.80419002E+02 0.0000E+00 0.9000E+01
       21  1    1    2  502  501 0.20644999E+02 0.11869118E+02 -.51691307E+03 0.51746186E+03 0.75000000E+00 0.0000E+00 0.9000E+01
#aMCatNLO 1  0  0  5  1 0.12395783D+02 0.00000000D+00  -5  6  0 0.00000000D+00 0.00000000D+00 0.00000000D+00 0.00000000D+00 0.00000000D+00
  <mgrwgt>
 0.3262348099D+00    9    2    0
 0.211969886229372D+03 0.000000000000000D+00 0.000000000000000D+00 0.211969886229372D+03
 0.211969886229372D+03 -.000000000000000D+00 -.000000000000000D+00 -.211969886229372D+03
 0.208861157124518D+03 -.110232341511623D+03 -.112073374615627D+03 0.573268919663593D+02
 0.156683237772037D+03 0.895858737258450D+02 0.100203412832674D+03 -.400853212781180D+01
 0.583953775621905D+02 0.206464677857785D+02 0.118699617829528D+02 -.533183598385475D+02
 0.000000000000000D+00 -.000000000000000D+00 0.000000000000000D+00 0.000000000000000D+00
 0.211969886229372D+03 0.000000000000000D+00 0.000000000000000D+00 0.211969886229372D+03
 0.211969886229372D+03 -.000000000000000D+00 -.000000000000000D+00 -.211969886229372D+03
 0.203338586250602D+03 -.106535969541736D+03 -.109948275326325D+03 0.477812160264119D+02
 0.159712336634417D+03 0.924231286039207D+02 0.101834592912516D+03 -.113355857484372D+02
 0.472528558792870D+02 0.268841729828445D+02 0.388206390917486D+01 -.386652713889641D+02
 0.136359936944383D+02 -.127713320450297D+02 0.423161850463461D+01 0.221964111098950D+01
0.133875496851D-01 0.000000000000D+00 0.000000000000D+00 0.311239283905D-04 0.000000000000D+00  6 1 -2 25 -24 21 21 2 0.35219018D-02 0.30195650D+00 0.36344964D+05 0.36344964D+05 0.36344964D+05 0.12062494D+01  1  2  2  3  6  5       21 0.166704833799D+00 0.100000000000D+01
0.277357288122D-02 0.706480406338D-03 -.514117158137D-04 0.311239283905D-04 0.000000000000D+00  6 1 -2 25 -24 21 21 4 0.35219018D-02 0.30195650D+00 0.36344964D+05 0.36344964D+05 0.36344964D+05 0.12062494D+01  1  2  3  3  6  5       21 0.502528739082D-01 0.100000000000D+01
0.569692151817D-04 0.000000000000D+00 0.000000000000D+00 0.311239283905D-04 0.000000000000D+00  6 1 -2 25 -24 21 21 4 0.35219018D-02 0.30195650D+00 0.36344964D+05 0.36344964D+05 0.36344964D+05 0.12062494D+01  1  2 15  3  6  5       21 0.103219454104D-02 0.100000000000D+01
0.141459962668D-01 0.000000000000D+00 0.000000000000D+00 0.309326845660D-04 0.000000000000D+00  6 1 -2 25 -24 21 21 4 0.35219018D-02 0.30195650D+00 0.39515808D+05 0.39515808D+05 0.39515808D+05 0.12025377D+01  1  2 12  3  6  5       21 0.252944396117D+00 0.100000000000D+01
-.856135565170D-02 0.000000000000D+00 0.000000000000D+00 0.311239283905D-04 0.000000000000D+00  6 1 -2 25 -24 21 21 4 0.35219018D-02 0.30195650D+00 0.36344964D+05 0.36344964D+05 0.36344964D+05 0.12062494D+01  1  2  4  3  6  5       21 -.155118594128D+00 0.100000000000D+01
0.145672953813D-03 0.000000000000D+00 0.000000000000D+00 0.309326845660D-04 0.000000000000D+00  6 1 -2 25 -24 1 -1 4 0.35219018D-02 0.30195650D+00 0.39515808D+05 0.39515808D+05 0.39515808D+05 0.12025377D+01  1  2 12  6  6  5       21 0.260477640724D-02 0.100000000000D+01
0.145672953813D-03 0.000000000000D+00 0.000000000000D+00 0.309326845660D-04 0.000000000000D+00  6 1 -2 25 -24 2 -2 4 0.35219018D-02 0.30195650D+00 0.39515808D+05 0.39515808D+05 0.39515808D+05 0.12025377D+01  1  2 12  7  6  5       21 0.260477640724D-02 0.100000000000D+01
0.145672953813D-03 0.000000000000D+00 0.000000000000D+00 0.309326845660D-04 0.000000000000D+00  6 1 -2 25 -24 3 -3 4 0.35219018D-02 0.30195650D+00 0.39515808D+05 0.39515808D+05 0.39515808D+05 0.12025377D+01  1  2 12  8  6  5       21 0.260477640724D-02 0.100000000000D+01
0.145672953813D-03 0.000000000000D+00 0.000000000000D+00 0.309326845660D-04 0.000000000000D+00  6 1 -2 25 -24 4 -4 4 0.35219018D-02 0.30195650D+00 0.39515808D+05 0.39515808D+05 0.39515808D+05 0.12025377D+01  1  2 12  8  6  5       21 0.260477640724D-02 0.100000000000D+01
  </mgrwgt>
  </event>
  <event>
  6     66 0.44337718E-03 0.28199658E+02 0.75467711E-02 0.12111029E+00
        1 -1    0    0  502    0 0.00000000E+00 0.00000000E+00 0.14970351E+03 0.14970385E+03 0.32000000E+00 0.0000E+00 0.9000E+01
       -2 -1    0    0    0  503 0.00000000E+00 0.00000000E+00 -.15703414E+03 0.15703446E+03 0.32000000E+00 0.0000E+00 0.9000E+01
       25  1    1    2    0    0 0.19216283E+02 -.83733052E+02 0.37577188E+02 0.15626111E+03 0.12500000E+03 0.0000E+00 0.9000E+01
      -24  1    1    2    0    0 -.20427550E+02 0.50464971E+02 -.11079544E+02 0.97744414E+02 0.80419002E+02 0.0000E+00 0.9000E+01
       21  1    1    2  502  501 -.17588139E+01 0.30257096E+02 -.15775844E+02 0.34176382E+02 0.75000000E+00 0.0000E+00 0.9000E+01
       21  1    1    2  501  503 0.29700812E+01 0.30109840E+01 -.18052429E+02 0.18556403E+02 0.75000000E+00 0.0000E+00 0.9000E+01
#aMCatNLO 2  0  0  2  5 0.42293506D+01 0.00000000D+00  -5  6  0 0.00000000D+00 0.00000000D+00 0.00000000D+00 0.00000000D+00 0.00000000D+00
  <mgrwgt>
 0.2931909241D-01    2    2    0
 0.143975663146539D+03 0.000000000000000D+00 0.000000000000000D+00 0.143975663146539D+03
 0.143975663146539D+03 0.000000000000000D+00 0.000000000000000D+00 -.143975663146539D+03
 0.154312154786841D+03 0.208114065375104D+02 -.821198842033409D+02 0.317875933552430D+02
 0.985507454775870D+02 -.194126656425758D+02 0.514913268341455D+02 -.147249839839085D+02
 0.350884260286496D+02 -.139874089493454D+01 0.306285573691954D+02 -.170626093713346D+02
 0.000000000000000D+00 0.000000000000000D+00 0.000000000000000D+00 -.000000000000000D+00
 0.144226672582518D+03 0.000000000000000D+00 0.000000000000000D+00 0.144226672582518D+03
 0.162981528453594D+03 0.000000000000000D+00 0.000000000000000D+00 -.162981528453594D+03
 0.154972831482385D+03 0.192164286684062D+02 -.837368274750204D+02 0.317875933552430D+02
 0.982231846735138D+02 -.204274257432632D+02 0.504625918598496D+02 -.147249839839085D+02
 0.347863682372879D+02 -.175908412338134D+01 0.302632516367343D+02 -.170626093713346D+02
 0.192258166429254D+02 0.297008119823831D+01 0.301098397843650D+01 -.187548558710766D+02
-.187108651691D-03 0.000000000000D+00 0.000000000000D+00 0.230662719737D-04 0.000000000000D+00  6 1 -2 25 -24 21 21 4 0.22990113D-01 0.24466890D-01 0.20069619D+05 0.20069619D+05 0.20069619D+05 0.12336599D+01  1  2 13  2  6  2       -2 -.115882184106D+00 0.100000000000D+01
0.229824292044D-03 0.000000000000D+00 0.000000000000D+00 0.231201271458D-04 0.671885856562D-05  6 1 -2 25 -24 21 21 4 0.23030194D-01 0.24157926D-01 0.20069619D+05 0.20069619D+05 0.20069619D+05 0.12336599D+01  1  2  1  2  6  2       -2 0.145201276517D+00 0.100000000000D+01
  </mgrwgt>
  </event>
  <event>
  6     66 -.44337718E-03 0.25181763E+02 0.75467711E-02 0.12018949E+00
        1 -1    0    0  502    0 0.00000000E+00 0.00000000E+00 0.31161066E+03 0.31161083E+03 0.32000000E+00 0.0000E+00 0.9000E+01
       -2 -1    0    0    0  501 0.00000000E+00 0.00000000E+00 -.94941088E+02 0.94941627E+02 0.32000000E+00 0.0000E+00 0.9000E+01
       25  1    1    2    0    0 -.56271583E+02 -.52948014E+02 0.92635865E+02 0.17371352E+03 0.12500000E+03 0.0000E+00 0.9000E+01
      -24  1    1    2    0    0 0.48289920E+02 0.74913129E+02 0.21485878E+02 0.12195389E+03 0.80419002E+02 0.0000E+00 0.9000E+01
       21  1    1    2  503  501 -.65646391E+00 0.32948099E+01 0.63410606E+02 0.63503969E+02 0.75000000E+00 0.0000E+00 0.9000E+01
       21  1    1    2  502  503 0.86381274E+01 -.25259925E+02 0.39137226E+02 0.47381072E+02 0.75000000E+00 0.0000E+00 0.9000E+01
#aMCatNLO 2  0  0  5  2 0.17533360D+02 0.00000000D+00  -5  6  0 0.00000000D+00 0.00000000D+00 0.00000000D+00 0.00000000D+00 0.00000000D+00
  <mgrwgt>
 -.1581290341D-01    2    2    0
 0.172002320688958D+03 0.000000000000000D+00 0.000000000000000D+00 0.172002320688958D+03
 0.172002320688958D+03 -.000000000000000D+00 -.000000000000000D+00 -.172002320688958D+03
 0.146640268312861D+03 -.568864325469826D+02 -.512559811039015D+02 -.388927808492819D+01
 0.132699664191597D+03 0.477385211042478D+02 0.764305488371126D+02 -.549671695599210D+02
 0.646647088734576D+02 0.914791144273473D+01 -.251745677332111D+02 0.588564476448492D+02
 0.000000000000000D+00 0.000000000000000D+00 -.000000000000000D+00 0.000000000000000D+00
 0.172002320688958D+03 0.000000000000000D+00 0.000000000000000D+00 0.172002320688958D+03
 0.172002320688958D+03 -.000000000000000D+00 -.000000000000000D+00 -.172002320688958D+03
 0.146951982694048D+03 -.562721534179085D+02 -.529464447292631D+02 0.629122730562290D-01
 0.130596990141052D+03 0.482894131627299D+02 0.749145230724601D+02 -.514228031981584D+02
 0.345042667442600D+02 -.765436246058652D+00 0.359721852394030D+01 0.343077039424571D+02
 0.319514017985557D+02 0.874817650123726D+01 -.255652968671373D+02 0.170521869826450D+02
-.409906233679D-04 0.000000000000D+00 0.000000000000D+00 0.302200155033D-04 0.000000000000D+00  6 1 -2 25 -24 21 21 4 0.47940156D-01 0.14606375D-01 0.22155922D+05 0.22155922D+05 0.22155922D+05 0.12289612D+01  1  2 13  3  6  5       21 -.239142374542D-01 0.100000000000D+01
0.138862354722D-04 0.000000000000D+00 0.000000000000D+00 0.302757494422D-04 0.745714972017D-05  6 1 -2 25 -24 21 21 4 0.47940156D-01 0.14606375D-01 0.22155922D+05 0.22155922D+05 0.22155922D+05 0.12289612D+01  1  2  1  3  6  5       21 0.810133404041D-02 0.100000000000D+01
  </mgrwgt>
  </event>
  <event>
  5     66 0.44337718E-03 0.67297214E+02 0.75467711E-02 0.11453305E+00
        3 -1    0    0  502    0 0.00000000E+00 0.00000000E+00 0.61688767E+02 0.61690793E+02 0.50000000E+00 0.0000E+00 0.9000E+01
       -4 -1    0    0    0  501 0.00000000E+00 0.00000000E+00 -.47295440E+03 0.47295694E+03 0.15500000E+01 0.0000E+00 0.9000E+01
       25  1    1    2    0    0 -.13974750E+02 -.14774135E+02 -.28306304E+03 0.31010201E+03 0.12500000E+03 0.0000E+00 0.9000E+01
      -24  1    1    2    0    0 0.16867331E+02 0.82006607E+02 -.92020958E+02 0.14813731E+03 0.80419002E+02 0.0000E+00 0.9000E+01
       21  1    1    2  502  501 -.28925809E+01 -.67232472E+02 -.36181628E+02 0.76408409E+02 0.75000000E+00 0.0000E+00 0.9000E+01
#aMCatNLO 1  0  0  1  2 0.27558232D+01 0.00000000D+00  -5  6  0 0.00000000D+00 0.00000000D+00 0.00000000D+00 0.00000000D+00 0.00000000D+00
  <mgrwgt>
 0.3100916758D-01    3    2    0
 0.170813331000873D+03 0.000000000000000D+00 0.000000000000000D+00 0.170813331000873D+03
 0.170813331000873D+03 0.000000000000000D+00 0.000000000000000D+00 -.170813331000873D+03
 0.144547568100908D+03 -.139746900908747D+02 -.147727506387737D+02 -.696812264481271D+02
 0.121057388946412D+03 0.168673803997706D+02 0.820077664432181D+02 0.343204485051738D+02
 0.760217049544268D+02 -.289269030889588D+01 -.672350158044444D+02 0.353607779429533D+02
 0.000000000000000D+00 -.000000000000000D+00 0.000000000000000D+00 -.000000000000000D+00
 0.178336567368895D+03 0.000000000000000D+00 0.000000000000000D+00 0.178336567368895D+03
 0.117728584889423D+04 0.000000000000000D+00 0.000000000000000D+00 -.117728584889423D+04
 0.147392262940942D+03 0.202660262932191D+02 -.288668327639046D+02 -.696812264481271D+02
 0.120989588626031D+03 0.452563189050377D+02 0.703223791910870D+02 0.343204485051738D+02
 0.844159603939219D+02 0.159245453417320D+02 -.749805215249699D+02 0.353607779429533D+02
 0.100282460430223D+04 -.814468905399888D+02 0.335249750977875D+02 -.998949281525337D+03
0.743595023867D-03 0.000000000000D+00 0.000000000000D+00 0.457453794940D-05 0.000000000000D+00  6 3 -4 25 -24 21 21 2 0.94909307D-02 0.72762566D-01 0.24029804D+05 0.24029804D+05 0.24029804D+05 0.12251449D+01  1  2  2  1  6  1        3 0.315717692097D-01 0.100000000000D+01
-.258367842401D-04 0.392405874837D-04 -.285560068472D-05 0.457453794940D-05 0.000000000000D+00  6 3 -4 25 -24 21 21 4 0.94909307D-02 0.72762566D-01 0.24029804D+05 0.24029804D+05 0.24029804D+05 0.12251449D+01  1  2  3  1  6  1        3 -.164655339353D-02 0.100000000000D+01
0.170087578480D-04 0.000000000000D+00 0.000000000000D+00 0.457453794940D-05 0.000000000000D+00  6 3 -4 25 -24 21 21 4 0.94909307D-02 0.72762566D-01 0.24029804D+05 0.24029804D+05 0.24029804D+05 0.12251449D+01  1  2 15  1  6  1        3 0.108395176792D-02 0.100000000000D+01
  </mgrwgt>
  </event>
  <event>
  5     66 0.44337718E-03 0.50265885E+02 0.75467711E-02 0.11271215E+00
        1 -1    0    0  502    0 0.00000000E+00 0.00000000E+00 0.45920345E+02 0.45921460E+02 0.32000000E+00 0.0000E+00 0.9000E+01
       -2 -1    0    0    0  501 0.00000000E+00 0.00000000E+00 -.13266731E+04 0.13266731E+04 0.32000000E+00 0.0000E+00 0.9000E+01
       25  1    1    2    0    0 -.28767210E+02 -.78484357E+01 -.18768097E+03 0.22746054E+03 0.12500000E+03 0.0000E+00 0.9000E+01
      -24  1    1    2    0    0 -.73944071E+02 -.32313443E+02 -.11864619E+03 0.16448714E+03 0.80419002E+02 0.0000E+00 0.9000E+01
       21  1    1    2  502  501 0.10271128E+03 0.40161879E+02 -.97442556E+03 0.98064689E+03 0.75000000E+00 0.0000E+00 0.9000E+01
#aMCatNLO 1  0  0  1  5 0.95764249D+02 0.00000000D+00  -5  6  0 0.00000000D+00 0.00000000D+00 0.00000000D+00 0.00000000D+00 0.00000000D+00
  <mgrwgt>
 0.1133241566D-01    9    4    0
 0.246823979899782D+03 0.000000000000000D+00 0.000000000000000D+00 0.246823979899782D+03
 0.246823979899782D+03 0.000000000000000D+00 0.000000000000000D+00 -.246823979899782D+03
 0.145525347520029D+03 -.287674259241925D+02 -.784852009330436D+01 0.682895505100613D+02
 0.149535506079629D+03 -.739442925476057D+02 -.323135296932577D+02 0.968593259449874D+02
 0.198587106199907D+03 0.102711718471798D+03 0.401620497865621D+02 -.165148876455049D+03
 0.000000000000000D+00 0.000000000000000D+00 -.000000000000000D+00 0.000000000000000D+00
 0.335379436476720D+03 0.000000000000000D+00 0.000000000000000D+00 0.335379436476720D+03
 0.278734478476245D+03 0.000000000000000D+00 0.000000000000000D+00 -.278734478476245D+03
 0.150317661783371D+03 -.456095744149367D+02 0.150566748268645D+02 0.682895505100613D+02
 0.155770662362373D+03 -.913251724816893D+02 -.867566407338016D+01 0.968593259449874D+02
 0.196762647349959D+03 0.802047162926886D+02 0.707714029973169D+02 -.165148876455049D+03
 0.111262943457263D+03 0.567300306039374D+02 -.771524137508012D+02 0.566449580004755D+02
 0.246823979899782D+03 0.000000000000000D+00 0.000000000000000D+00 0.246823979899782D+03
 0.246823979899782D+03 0.000000000000000D+00 0.000000000000000D+00 -.246823979899782D+03
 0.145525347520029D+03 -.287674259241925D+02 -.784852009330436D+01 0.682895505100613D+02
 0.149535506079629D+03 -.739442925476057D+02 -.323135296932577D+02 0.968593259449874D+02
 0.000000000000000D+00 0.000000000000000D+00 -.000000000000000D+00 0.000000000000000D+00
 0.198587106199907D+03 0.102711718471798D+03 0.401620497865621D+02 -.165148876455049D+03
 0.335379436476720D+03 0.000000000000000D+00 0.000000000000000D+00 0.335379436476720D+03
 0.278734478476245D+03 0.000000000000000D+00 0.000000000000000D+00 -.278734478476245D+03
 0.150317661783371D+03 -.456095744149367D+02 0.150566748268645D+02 0.682895505100613D+02
 0.155770662362373D+03 -.913251724816893D+02 -.867566407338016D+01 0.968593259449874D+02
 0.111262943457263D+03 0.567300306039374D+02 -.771524137508012D+02 0.566449580004755D+02
 0.196762647349959D+03 0.802047162926886D+02 0.707714029973169D+02 -.165148876455049D+03
0.596429053645D-03 0.000000000000D+00 0.000000000000D+00 0.445281026778D-05 0.000000000000D+00  6 1 -2 25 -24 21 21 2 0.70647572D-02 0.20410364D+00 0.31102505D+05 0.31102505D+05 0.31102505D+05 0.12132568D+01  1  2  2  1  6  1        1 0.108279996954D-01 0.100000000000D+01
-.364533446557D-04 0.314744258719D-04 -.229044460937D-05 0.445281026778D-05 0.000000000000D+00  6 1 -2 25 -24 21 21 4 0.70647572D-02 0.20410364D+00 0.31102505D+05 0.31102505D+05 0.31102505D+05 0.12132568D+01  1  2  3  1  6  1        1 -.974164453391D-03 0.100000000000D+01
0.293495348983D-04 0.000000000000D+00 0.000000000000D+00 0.445281026778D-05 0.000000000000D+00  6 1 -2 25 -24 21 21 4 0.70647572D-02 0.20410364D+00 0.31102505D+05 0.31102505D+05 0.31102505D+05 0.12132568D+01  1  2 15  1  6  1        1 0.784325111770D-03 0.100000000000D+01
0.477890609376D-03 0.000000000000D+00 0.000000000000D+00 0.428459049529D-05 0.000000000000D+00  6 1 -2 25 -24 21 21 4 0.10096463D-01 0.20410364D+00 0.52586244D+05 0.52586244D+05 0.52586244D+05 0.11901187D+01  1  2 12  1  6  1        1 0.727339609920D-02 0.100000000000D+01
-.798373783404D-03 0.000000000000D+00 0.000000000000D+00 0.445281026778D-05 0.000000000000D+00  6 1 -2 25 -24 21 21 4 0.70647572D-02 0.20410364D+00 0.31102505D+05 0.31102505D+05 0.31102505D+05 0.12132568D+01  1  2  4  1  6  1        1 -.213354184001D-01 0.100000000000D+01
-.104740116696D-02 0.000000000000D+00 -.528762984388D-03 0.445281026778D-05 0.000000000000D+00  6 1 -2 25 -24 21 21 4 0.10898763D-01 0.20410364D+00 0.31102505D+05 0.31102505D+05 0.31102505D+05 0.12132568D+01  1  2  5  1  6  1        1 -.156269239071D-01 0.100000000000D+01
0.120745325479D-02 0.000000000000D+00 0.482687767093D-03 0.445281026778D-05 0.000000000000D+00  6 1 -2 25 -24 21 21 4 0.70647572D-02 0.20410364D+00 0.31102505D+05 0.31102505D+05 0.31102505D+05 0.12132568D+01  1  2  6  1  6  1        1 0.322674929025D-01 0.100000000000D+01
0.209443547890D-04 0.000000000000D+00 0.000000000000D+00 0.428459049529D-05 0.000000000000D+00  6 21 -2 25 -24 -1 21 4 0.10096463D-01 0.20410364D+00 0.52586244D+05 0.52586244D+05 0.52586244D+05 0.11901187D+01  3  4 12  4  5  1        1 0.375004276725D-02 0.100000000000D+01
-.328483313365D-04 0.000000000000D+00 -.267159777299D-04 0.445281026778D-05 0.000000000000D+00  6 21 -2 25 -24 -1 21 4 0.10898763D-01 0.20410364D+00 0.31102505D+05 0.31102505D+05 0.31102505D+05 0.12132568D+01  3  4  5  4  5  1        1 -.563433415273D-02 0.100000000000D+01
  </mgrwgt>
  </event>
  <event>
  6     66 0.44337718E-03 0.14853165E+02 0.75467711E-02 0.12224281E+00
        1 -1    0    0  502    0 0.00000000E+00 0.00000000E+00 0.20455205E+04 0.20455206E+04 0.32000000E+00 0.0000E+00 0.9000E+01
       -2 -1    0    0    0  503 0.00000000E+00 0.00000000E+00 -.37355597E+02 0.37356968E+02 0.32000000E+00 0.0000E+00 0.9000E+01
       25  1    1    2    0    0 -.12491863E+02 0.30881711E+02 0.15115130E+04 0.15170387E+04 0.12500000E+03 0.0000E+00 0.9000E+01
      -24  1    1    2    0    0 0.25505470E+02 -.56439369E+02 0.48024033E+03 0.49085020E+03 0.80419002E+02 0.0000E+00 0.9000E+01
       21  1    1    2  502  501 0.50590744E+01 0.13169080E+02 0.40216768E+02 0.42625929E+02 0.75000000E+00 0.0000E+00 0.9000E+01
       21  1    1    2  501  503 -.18072681E+02 0.12388578E+02 -.23805162E+02 0.32362740E+02 0.75000000E+00 0.0000E+00 0.9000E+01
#aMCatNLO 2  0  0  2  1 0.14259518D+04 0.00000000D+00  -5  6  0 0.00000000D+00 0.00000000D+00 0.00000000D+00 0.00000000D+00 0.00000000D+00
  <mgrwgt>
 0.4159185808D+00    1    2    0
 0.137138897255654D+03 0.000000000000000D+00 0.000000000000000D+00 0.137138897255654D+03
 0.137138897255654D+03 0.000000000000000D+00 0.000000000000000D+00 -.137138897255654D+03
 0.145726765186183D+03 -.219920341399675D+02 0.373883025713490D+02 0.610717230545253D+02
 0.107560406623754D+03 0.183009966306518D+02 -.515049690726840D+02 -.459819182053497D+02
 0.209906227013705D+02 0.369103750931573D+01 0.141166665013350D+02 -.150898048491756D+02
 0.000000000000000D+00 -.000000000000000D+00 0.000000000000000D+00 -.000000000000000D+00
 0.137863849435036D+03 0.000000000000000D+00 0.000000000000000D+00 0.137863849435036D+03
 0.554262210012040D+03 0.000000000000000D+00 0.000000000000000D+00 -.554262210012040D+03
 0.143053180333665D+03 -.124930376292324D+02 0.308768692959973D+02 0.610717230545253D+02
 0.111435343420703D+03 0.255045434759612D+02 -.564429027350549D+02 -.459819182053497D+02
 0.206630839894454D+02 0.506117563924363D+01 0.131774553961453D+02 -.150898048491756D+02
 0.416974451703261D+03 -.180726814859725D+02 0.123885780429124D+02 -.416398360577004D+03
0.390835827198D-02 0.000000000000D+00 0.000000000000D+00 0.819196454084D-04 0.183821652786D-05  6 1 -2 25 -24 21 21 4 0.31469481D+00 0.57471083D-02 0.17808237D+05 0.17808237D+05 0.17808237D+05 0.12394145D+01  1  2  1  2  6  2       -2 0.415918580762D+00 0.100000000000D+01
  </mgrwgt>
  </event>
  <event>
  5     66 -.44337718E-03 0.38859013E+02 0.75467711E-02 0.12289259E+00
        1 -1    0    0  502    0 0.00000000E+00 0.00000000E+00 0.13210347E+03 0.13210386E+03 0.32000000E+00 0.0000E+00 0.9000E+01
       -2 -1    0    0    0  501 0.00000000E+00 0.00000000E+00 -.14037492E+03 0.14037528E+03 0.32000000E+00 0.0000E+00 0.9000E+01
       25  1    1    2    0    0 -.44556361E+01 0.12216005E+02 -.41565086E+02 0.13236971E+03 0.12500000E+03 0.0000E+00 0.9000E+01
      -24  1    1    2    0    0 0.24259745E+01 0.26587235E+02 -.58669639E+01 0.84937646E+02 0.80419002E+02 0.0000E+00 0.9000E+01
       21  1    1    2  502  501 0.20296615E+01 -.38803241E+02 0.39160603E+02 0.55171790E+02 0.75000000E+00 0.0000E+00 0.9000E+01
#aMCatNLO 1  0  0  1  5 0.91022143D+01 0.00000000D+00  -5  6  0 0.00000000D+00 0.00000000D+00 0.00000000D+00 0.00000000D+00 0.00000000D+00
  <mgrwgt>
 -.1155873630D+00   11    4    0
 0.136176785187515D+03 0.000000000000000D+00 0.000000000000000D+00 0.136176785187515D+03
 0.136176785187515D+03 0.000000000000000D+00 0.000000000000000D+00 -.136176785187515D+03
 0.131169054016996D+03 -.445572256124391D+01 0.122176585588678D+02 -.375658899469950D+02
 0.847990039233070D+02 0.242591863888227D+01 0.265883042687426D+02 -.329121662684004D+01
 0.563855124347277D+02 0.202980392236163D+01 -.388059628276104D+02 0.408571065738350D+02
 0.000000000000000D+00 -.000000000000000D+00 -.000000000000000D+00 0.000000000000000D+00
 0.186463133058395D+03 0.000000000000000D+00 0.000000000000000D+00 0.186463133058395D+03
 0.136665330606286D+03 0.000000000000000D+00 0.000000000000000D+00 -.136665330606286D+03
 0.131539184824251D+03 -.247173554694743D+01 0.161323147782574D+02 -.375658899469950D+02
 0.856756138648930D+02 0.371335229323115D+01 0.291285729931502D+02 -.329121662684004D+01
 0.552908298772345D+02 0.287318977858121D+01 -.371418563271120D+02 0.408571065738350D+02
 0.506228350983012D+02 -.411480652486492D+01 -.811903144429558D+01 0.497978024521089D+02
 0.136176785187515D+03 0.000000000000000D+00 0.000000000000000D+00 0.136176785187515D+03
 0.136176785187515D+03 0.000000000000000D+00 0.000000000000000D+00 -.136176785187515D+03
 0.131169054016996D+03 -.445572256124391D+01 0.122176585588678D+02 -.375658899469950D+02
 0.847990039233070D+02 0.242591863888227D+01 0.265883042687426D+02 -.329121662684004D+01
 0.000000000000000D+00 -.000000000000000D+00 -.000000000000000D+00 0.000000000000000D+00
 0.563855124347277D+02 0.202980392236163D+01 -.388059628276104D+02 0.408571065738350D+02
 0.186463133058395D+03 0.000000000000000D+00 0.000000000000000D+00 0.186463133058395D+03
 0.136665330606286D+03 0.000000000000000D+00 0.000000000000000D+00 -.136665330606286D+03
 0.131539184824251D+03 -.247173554694743D+01 0.161323147782574D+02 -.375658899469950D+02
 0.856756138648930D+02 0.371335229323115D+01 0.291285729931502D+02 -.329121662684004D+01
 0.506228350983012D+02 -.411480652486492D+01 -.811903144429558D+01 0.497978024521089D+02
 0.552908298772345D+02 0.287318977858121D+01 -.371418563271120D+02 0.408571065738350D+02
0.405236993510D-05 0.000000000000D+00 0.000000000000D+00 0.192218903100D-04 0.000000000000D+00  6 1 -2 25 -24 21 21 2 0.20323669D-01 0.21596199D-01 0.15533734D+05 0.15533734D+05 0.15533734D+05 0.12460952D+01  1  2  2  1  6  1        1 0.242082643635D-02 0.100000000000D+01
0.831612610175D-07 0.213849436657D-06 -.155621675643D-07 0.192218903100D-04 0.000000000000D+00  6 1 -2 25 -24 21 21 4 0.20323669D-01 0.21596199D-01 0.15533734D+05 0.15533734D+05 0.15533734D+05 0.12460952D+01  1  2  3  1  6  1        1 0.771397217871D-04 0.100000000000D+01
0.165156920597D-06 0.000000000000D+00 0.000000000000D+00 0.192218903100D-04 0.000000000000D+00  6 1 -2 25 -24 21 21 4 0.20323669D-01 0.21596199D-01 0.15533734D+05 0.15533734D+05 0.15533734D+05 0.12460952D+01  1  2 15  1  6  1        1 0.153198240986D-03 0.100000000000D+01
0.180375922457D-03 0.000000000000D+00 0.000000000000D+00 0.191174168936D-04 0.000000000000D+00  6 1 -2 25 -24 21 21 4 0.28533719D-01 0.21596199D-01 0.16644658D+05 0.16644658D+05 0.16644658D+05 0.12427042D+01  1  2 12  1  6  1        1 0.108315700895D+00 0.100000000000D+01
-.298860916593D-03 0.000000000000D+00 0.000000000000D+00 0.192218903100D-04 0.000000000000D+00  6 1 -2 25 -24 21 21 4 0.20323669D-01 0.21596199D-01 0.15533734D+05 0.15533734D+05 0.15533734D+05 0.12460952D+01  1  2  4  1  6  1        1 -.277221000222D+00 0.100000000000D+01
-.205107400975D-03 0.000000000000D+00 -.441255063819D-05 0.192218903100D-04 0.000000000000D+00  6 1 -2 25 -24 21 21 4 0.27877153D-01 0.21596199D-01 0.15533734D+05 0.15533734D+05 0.15533734D+05 0.12460952D+01  1  2  5  1  6  1        1 -.127951926035D+00 0.100000000000D+01
0.196803976626D-03 0.000000000000D+00 0.420102207715D-05 0.192218903100D-04 0.000000000000D+00  6 1 -2 25 -24 21 21 4 0.20323669D-01 0.21596199D-01 0.15533734D+05 0.15533734D+05 0.15533734D+05 0.12460952D+01  1  2  6  1  6  1        1 0.182553797498D+00 0.100000000000D+01
0.312884061528D-07 0.000000000000D+00 0.000000000000D+00 0.192218903100D-04 0.157040395145D-05  6 1 -2 25 -24 21 21 4 0.27828642D-01 0.21673677D-01 0.16644658D+05 0.16644658D+05 0.16644658D+05 0.12427042D+01  1  2 11  1  6  1        1 0.192649598573D-04 0.100000000000D+01
0.761951288603D-05 0.000000000000D+00 0.000000000000D+00 0.191174168936D-04 0.000000000000D+00  6 21 -2 25 -24 -1 21 4 0.28533719D-01 0.21596199D-01 0.16644658D+05 0.16644658D+05 0.16644658D+05 0.12427042D+01  3  4 12  4  5  1        1 0.312520889709D-01 0.100000000000D+01
-.812458728078D-05 0.000000000000D+00 -.177092825348D-06 0.192218903100D-04 0.000000000000D+00  6 21 -2 25 -24 -1 21 4 0.27877153D-01 0.21596199D-01 0.15533734D+05 0.15533734D+05 0.15533734D+05 0.12460952D+01  3  4  5  4  5  1        1 -.352100182917D-01 0.100000000000D+01
0.833543984908D-09 0.000000000000D+00 0.000000000000D+00 0.192218903100D-04 0.835905066475D-07  6 21 -2 25 -24 -1 21 4 0.27828642D-01 0.21673677D-01 0.16644658D+05 0.16644658D+05 0.16644658D+05 0.12427042D+01  3  4 11  4  5  1        1 0.356481342929D-05 0.100000000000D+01
  </mgrwgt>
  </event>
  <event>
  5     66 0.44337718E-03 0.48195538E+02 0.75467711E-02 0.11355552E+00
        1 -1    0    0  502    0 0.00000000E+00 0.00000000E+00 0.36900867E+03 0.36900881E+03 0.32000000E+00 0.0000E+00 0.9000E+01
       -2 -1    0    0    0  501 0.00000000E+00 0.00000000E+00 -.13974036E+03 0.13974073E+03 0.32000000E+00 0.0000E+00 0.9000E+01
       25  1    1    2    0    0 -.12422385E+02 0.17934549E+03 0.49938684E+02 0.22458405E+03 0.12500000E+03 0.0000E+00 0.9000E+01
      -24  1    1    2    0    0 -.22895242E+02 -.14655868E+03 0.15904253E+03 0.23187363E+03 0.80419002E+02 0.0000E+00 0.9000E+01
       21  1    1    2  502  501 0.35317627E+02 -.32786816E+02 0.20287091E+02 0.52291861E+02 0.75000000E+00 0.0000E+00 0.9000E+01
#aMCatNLO 1  0  0  5  1 0.14334090D+02 0.00000000D+00  -5  6  0 0.00000000D+00 0.00000000D+00 0.00000000D+00 0.00000000D+00 0.00000000D+00
  <mgrwgt>
 0.1417373346D+00   20    2    0
 0.227080456530375D+03 0.000000000000000D+00 0.000000000000000D+00 0.227080456530375D+03
 0.227080456530375D+03 -.000000000000000D+00 -.000000000000000D+00 -.227080456530375D+03
 0.226370002899657D+03 -.124245046447504D+02 0.179347460643067D+03 -.574325539916750D+02
 0.179455637444680D+03 -.228969225826773D+02 -.146557117064673D+03 0.611052553406065D+02
 0.483352727164136D+02 0.353214272274276D+02 -.327903435783947D+02 -.367270134893158D+01
 0.000000000000000D+00 0.000000000000000D+00 -.000000000000000D+00 0.000000000000000D+00
 0.227080456530375D+03 0.000000000000000D+00 0.000000000000000D+00 0.227080456530375D+03
 0.227080456530375D+03 -.000000000000000D+00 -.000000000000000D+00 -.227080456530375D+03
 0.223433364982958D+03 -.852331236506266D+01 0.175725822298935D+03 -.578381976836978D+02
 0.181359115660758D+03 -.197675379899419D+02 -.149462254371951D+03 0.607798637605590D+02
 0.178616987649888D+02 0.170823330147124D+02 0.315700673205468D+01 -.415541695133352D+01
 0.315067336520456D+02 0.112085173402921D+02 -.294205746590381D+02 0.121375087447229D+01
0.577891840952D-03 0.000000000000D+00 0.000000000000D+00 0.656809333416D-05 0.000000000000D+00  6 1 -2 25 -24 21 21 2 0.56770603D-01 0.21498556D-01 0.47500173D+05 0.47500173D+05 0.47500173D+05 0.11944941D+01  1  2  2  3  6  5       21 0.900989659461D-01 0.100000000000D+01
0.730207933833D-04 0.304961902825D-04 -.221925683167D-05 0.656809333416D-05 0.000000000000D+00  6 1 -2 25 -24 21 21 4 0.56770603D-01 0.21498556D-01 0.47500173D+05 0.47500173D+05 0.47500173D+05 0.11944941D+01  1  2  3  3  6  5       21 0.162438060876D-01 0.100000000000D+01
0.781374580394D-05 0.000000000000D+00 0.000000000000D+00 0.656809333416D-05 0.000000000000D+00  6 1 -2 25 -24 21 21 4 0.56770603D-01 0.21498556D-01 0.47500173D+05 0.47500173D+05 0.47500173D+05 0.11944941D+01  1  2 15  3  6  5       21 0.173820313059D-02 0.100000000000D+01
0.101727020242D-03 0.000000000000D+00 0.000000000000D+00 0.656885130556D-05 0.000000000000D+00  6 1 -2 25 -24 21 21 4 0.56770603D-01 0.21498556D-01 0.47424559D+05 0.47424559D+05 0.47424559D+05 0.11945630D+01  1  2 12  3  6  5       21 0.226345959736D-01 0.100000000000D+01
0.100712461396D-03 0.000000000000D+00 0.000000000000D+00 0.656885130556D-05 0.000000000000D+00  6 1 -2 25 -24 21 21 4 0.56770603D-01 0.21498556D-01 0.47424559D+05 0.47424559D+05 0.47424559D+05 0.11945630D+01  1  2 12  3  6  5       21 0.224088532996D-01 0.100000000000D+01
-.487212820421D-03 0.000000000000D+00 0.000000000000D+00 0.656809333416D-05 0.000000000000D+00  6 1 -2 25 -24 21 21 4 0.56770603D-01 0.21498556D-01 0.47500173D+05 0.47500173D+05 0.47500173D+05 0.11944941D+01  1  2  4  3  6  5       21 -.108382697745D+00 0.100000000000D+01
-.129648855792D-03 0.000000000000D+00 0.000000000000D+00 0.656809333416D-05 0.000000000000D+00  6 1 -2 25 -24 21 21 4 0.56770603D-01 0.21498556D-01 0.47500173D+05 0.47500173D+05 0.47500173D+05 0.11944941D+01  1  2  5  3  6  5       21 -.288409749523D-01 0.100000000000D+01
0.584626195625D-03 0.000000000000D+00 -.000000000000D+00 0.656809333416D-05 0.000000000000D+00  6 1 -2 25 -24 21 21 4 0.56770603D-01 0.21498556D-01 0.47500173D+05 0.47500173D+05 0.47500173D+05 0.11944941D+01  1  2  6  3  6  5       21 0.130052744095D+00 0.100000000000D+01
0.722591820627D-05 0.000000000000D+00 0.000000000000D+00 0.656885130556D-05 0.000000000000D+00  6 1 -2 25 -24 1 -1 4 0.56770603D-01 0.21498556D-01 0.47424559D+05 0.47424559D+05 0.47424559D+05 0.11945630D+01  1  2 12  6  6  5       21 0.160779052358D-02 0.100000000000D+01
0.716399072870D-05 0.000000000000D+00 0.000000000000D+00 0.656885130556D-05 0.000000000000D+00  6 1 -2 25 -24 1 -1 4 0.56770603D-01 0.21498556D-01 0.47424559D+05 0.47424559D+05 0.47424559D+05 0.11945630D+01  1  2 12  6  6  5       21 0.159401145652D-02 0.100000000000D+01
-.191312909083D-04 0.000000000000D+00 0.000000000000D+00 0.656809333416D-05 0.000000000000D+00  6 1 -2 25 -24 1 -1 4 0.56770603D-01 0.21498556D-01 0.47500173D+05 0.47500173D+05 0.47500173D+05 0.11944941D+01  1  2  5  6  6  5       21 -.425584227892D-02 0.100000000000D+01
0.722591820627D-05 0.000000000000D+00 0.000000000000D+00 0.656885130556D-05 0.000000000000D+00  6 1 -2 25 -24 2 -2 4 0.56770603D-01 0.21498556D-01 0.47424559D+05 0.47424559D+05 0.47424559D+05 0.11945630D+01  1  2 12  7  6  5       21 0.160779052358D-02 0.100000000000D+01
0.716399072870D-05 0.000000000000D+00 0.000000000000D+00 0.656885130556D-05 0.000000000000D+00  6 1 -2 25 -24 2 -2 4 0.56770603D-01 0.21498556D-01 0.47424559D+05 0.47424559D+05 0.47424559D+05 0.11945630D+01  1  2 12  7  6  5       21 0.159401145652D-02 0.100000000000D+01
-.191312909083D-04 0.000000000000D+00 0.000000000000D+00 0.656809333416D-05 0.000000000000D+00  6 1 -2 25 -24 2 -2 4 0.56770603D-01 0.21498556D-01 0.47500173D+05 0.47500173D+05 0.47500173D+05 0.11944941D+01  1  2  5  7  6  5       21 -.425584227892D-02 0.100000000000D+01
0.722591820627D-05 0.000000000000D+00 0.000000000000D+00 0.656885130556D-05 0.000000000000D+00  6 1 -2 25 -24 3 -3 4 0.56770603D-01 0.21498556D-01 0.47424559D+05 0.47424559D+05 0.47424559D+05 0.11945630D+01  1  2 12  8  6  5       21 0.160779052358D-02 0.100000000000D+01
0.722591820627D-05 0.000000000000D+00 0.000000000000D+00 0.656885130556D-05 0.000000000000D+00  6 1 -2 25 -24 4 -4 4 0.56770603D-01 0.21498556D-01 0.47424559D+05 0.47424559D+05 0.47424559D+05 0.11945630D+01  1  2 12  8  6  5       21 0.160779052358D-02 0.100000000000D+01
0.716399072870D-05 0.000000000000D+00 0.000000000000D+00 0.656885130556D-05 0.000000000000D+00  6 1 -2 25 -24 3 -3 4 0.56770603D-01 0.21498556D-01 0.47424559D+05 0.47424559D+05 0.47424559D+05 0.11945630D+01  1  2 12  8  6  5       21 0.159401145652D-02 0.100000000000D+01
0.716399072870D-05 0.000000000000D+00 0.000000000000D+00 0.656885130556D-05 0.000000000000D+00  6 1 -2 25 -24 4 -4 4 0.56770603D-01 0.21498556D-01 0.47424559D+05 0.47424559D+05 0.47424559D+05 0.11945630D+01  1  2 12  8  6  5       21 0.159401145652D-02 0.100000000000D+01
-.191312909083D-04 0.000000000000D+00 0.000000000000D+00 0.656809333416D-05 0.000000000000D+00  6 1 -2 25 -24 3 -3 4 0.56770603D-01 0.21498556D-01 0.47500173D+05 0.47500173D+05 0.47500173D+05 0.11944941D+01  1  2  5  8  6  5       21 -.425584227892D-02 0.100000000000D+01
-.191312909083D-04 0.000000000000D+00 0.000000000000D+00 0.656809333416D-05 0.000000000000D+00  6 1 -2 25 -24 4 -4 4 0.56770603D-01 0.21498556D-01 0.47500173D+05 0.47500173D+05 0.47500173D+05 0.11944941D+01  1  2  5  8  6  5       21 -.425584227892D-02 0.100000000000D+01
  </mgrwgt>
  </event>
  <event>
  6     66 0.44337718E-03 0.20637151E+02 0.75467711E-02 0.12337907E+00
        1 -1    0    0  502    0 0.00000000E+00 0.00000000E+00 0.29158500E+03 0.29158517E+03 0.32000000E+00 0.0000E+00 0.9000E+01
       21 -1    0    0  503  501 0.00000000E+00 0.00000000E+00 -.61605986E+02 0.61610551E+02 0.75000000E+00 0.0000E+00 0.9000E+01
       25  1    1    2    0    0 -.20427358E+02 0.20623833E+02 0.13672713E+03 0.18751514E+03 0.12500000E+03 0.0000E+00 0.9000E+01
      -24  1    1    2    0    0 0.88825368E+01 -.30631724E+02 0.95420234E+02 0.12880000E+03 0.80419002E+02 0.0000E+00 0.9000E+01
        2  1    1    2  503    0 -.88435465E+01 -.61610161E+01 -.79484632E+00 0.10812059E+02 0.32000000E+00 0.0000E+00 0.9000E+01
       21  1    1    2  502  501 0.20388368E+02 0.16168906E+02 -.13735095E+01 0.26068527E+02 0.75000000E+00 0.0000E+00 0.9000E+01
#aMCatNLO 2  0  0  2  5 0.10778053D+02 0.00000000D+00  -5  6  0 0.00000000D+00 0.00000000D+00 0.00000000D+00 0.00000000D+00 0.00000000D+00
  <mgrwgt>
 0.5573989349D-01    1    2    0
 0.126346581136718D+03 0.000000000000000D+00 0.000000000000000D+00 0.126346581136718D+03
 0.126346581136718D+03 0.000000000000000D+00 0.000000000000000D+00 -.126346581136718D+03
 0.129416985459435D+03 -.249509405208278D+02 0.174721732006729D+02 0.139974946393797D+02
 0.878094302267607D+02 0.581839979317623D+01 -.327665626571910D+02 0.116524108173784D+02
 0.000000000000000D+00 -.000000000000000D+00 -.000000000000000D+00 -.000000000000000D+00
 0.354667465872404D+02 0.191325407276516D+02 0.152943894565181D+02 -.256499054567581D+02
 0.128670008146168D+03 0.000000000000000D+00 0.000000000000000D+00 0.128670008146168D+03
 0.139611078804318D+03 0.000000000000000D+00 0.000000000000000D+00 -.139611078804318D+03
 0.129087437098393D+03 -.204295339150889D+02 0.206220926305804D+02 0.139974946393797D+02
 0.872940003079476D+02 0.888107005495898D+01 -.306328982013679D+02 0.116524108173784D+02
 0.153581724235602D+02 -.884354645461262D+01 -.616101608099473D+01 -.109410706581504D+02
 0.365414771205851D+02 0.203920103147425D+02 0.161718216517822D+02 -.256499054567581D+02
0.264591857679D-05 0.000000000000D+00 0.000000000000D+00 0.447416423516D-04 0.693330379029D-07  6 1 21 25 -24 2 21 4 0.44859021D-01 0.94780874D-02 0.15831090D+05 0.15831090D+05 0.15831090D+05 0.12451615D+01  1  2  1  5  5  2       -2 0.557398934895D-01 0.100000000000D+01
  </mgrwgt>
  </event>
  <event>
  5     66 -.44337718E-03 0.35413425E+02 0.75467711E-02 0.12067439E+00
        1 -1    0    0  502    0 0.00000000E+00 0.00000000E+00 0.74451099E+02 0.74451786E+02 0.32000000E+00 0.0000E+00 0.9000E+01
       -2 -1    0    0    0  501 -.00000000E+00 -.00000000E+00 -.29927303E+03 0.29927321E+03 0.32000000E+00 0.0000E+00 0.9000E+01
       25  1    1    2    0    0 -.61542309E+02 -.23110762E+02 -.86180540E+02 0.16544984E+03 0.12500000E+03 0.0000E+00 0.9000E+01
      -24  1    1    2    0    0 0.55950610E+02 0.58075092E+02 -.77962118E+02 0.13801629E+03 0.80419002E+02 0.0000E+00 0.9000E+01
       21  1    1    2  502  501 0.55916989E+01 -.34964330E+02 -.60679278E+02 0.70258870E+02 0.75000000E+00 0.0000E+00 0.9000E+01
#aMCatNLO 1  0  0  5  2 0.38342492D+01 0.00000000D+00  -5  6  0 0.00000000D+00 0.00000000D+00 0.00000000D+00 0.00000000D+00 0.00000000D+00
  <mgrwgt>
 -.1246256580D+00   25    2    0
 0.149269443171475D+03 0.000000000000000D+00 0.000000000000000D+00 0.149269443171475D+03
 0.149269443171475D+03 -.000000000000000D+00 -.000000000000000D+00 -.149269443171475D+03
 0.142217489156034D+03 -.615427289543131D+02 -.231081378447081D+02 0.167128902363610D+02
 0.114064987501871D+03 0.559502738514379D+02 0.580771967731881D+02 0.634125305826334D+01
 0.422564096850437D+02 0.559245510287519D+01 -.349690589284800D+02 -.230541432946244D+02
 0.000000000000000D+00 0.000000000000000D+00 0.000000000000000D+00 -.000000000000000D+00
 0.149269443171475D+03 0.000000000000000D+00 0.000000000000000D+00 0.149269443171475D+03
 0.149269443171475D+03 -.000000000000000D+00 -.000000000000000D+00 -.149269443171475D+03
 0.142222247778981D+03 -.614985387767961D+02 -.233844545773822D+02 0.165307221785131D+02
 0.113961726726888D+03 0.559856997771155D+02 0.578556820252241D+02 0.619521444876344D+01
 0.209410539005992D+02 0.402079909410129D+01 -.188761080884415D+02 -.812732776170318D+01
 0.214138579364808D+02 0.149203990557933D+01 -.155951193594004D+02 -.145986088655733D+02
0.531442210124D-04 0.000000000000D+00 0.000000000000D+00 0.178338225981D-04 0.000000000000D+00  6 1 -2 25 -24 21 21 2 0.11454081D-01 0.46042071D-01 0.21102511D+05 0.21102511D+05 0.21102511D+05 0.12312687D+01  1  2  2  3  6  5       21 0.165757950418D-01 0.100000000000D+01
0.443744405628D-05 0.280449759205D-05 -.204087801883D-06 0.178338225981D-04 0.000000000000D+00  6 1 -2 25 -24 21 21 4 0.11454081D-01 0.46042071D-01 0.21102511D+05 0.21102511D+05 0.21102511D+05 0.12312687D+01  1  2  3  3  6  5       21 0.209824830771D-02 0.100000000000D+01
0.193114139508D-05 0.000000000000D+00 0.000000000000D+00 0.178338225981D-04 0.000000000000D+00  6 1 -2 25 -24 21 21 4 0.11454081D-01 0.46042071D-01 0.21102511D+05 0.21102511D+05 0.21102511D+05 0.12312687D+01  1  2 15  3  6  5       21 0.913141464497D-03 0.100000000000D+01
0.128478212302D-04 0.000000000000D+00 0.000000000000D+00 0.178387227297D-04 0.000000000000D+00  6 1 -2 25 -24 21 21 4 0.11454081D-01 0.46042071D-01 0.21027526D+05 0.21027526D+05 0.21027526D+05 0.12314378D+01  1  2 12  3  6  5       21 0.607788158641D-02 0.100000000000D+01
0.127538175208D-04 0.000000000000D+00 0.000000000000D+00 0.178387227297D-04 0.000000000000D+00  6 1 -2 25 -24 21 21 4 0.11454081D-01 0.46042071D-01 0.21027526D+05 0.21027526D+05 0.21027526D+05 0.12314378D+01  1  2 12  3  6  5       21 0.603341152381D-02 0.100000000000D+01
-.108589530470D-02 0.000000000000D+00 0.000000000000D+00 0.178338225981D-04 0.000000000000D+00  6 1 -2 25 -24 21 21 4 0.11454081D-01 0.46042071D-01 0.21102511D+05 0.21102511D+05 0.21102511D+05 0.12312687D+01  1  2  4  3  6  5       21 -.513466300993D+00 0.100000000000D+01
-.342416390903D-03 0.000000000000D+00 0.000000000000D+00 0.178338225981D-04 0.000000000000D+00  6 1 -2 25 -24 21 21 4 0.11454081D-01 0.46042071D-01 0.21102511D+05 0.21102511D+05 0.21102511D+05 0.12312687D+01  1  2  5  3  6  5       21 -.161911813114D+00 0.100000000000D+01
0.727669271566D-03 0.000000000000D+00 -.000000000000D+00 0.178338225981D-04 0.000000000000D+00  6 1 -2 25 -24 21 21 4 0.11454081D-01 0.46042071D-01 0.21102511D+05 0.21102511D+05 0.21102511D+05 0.12312687D+01  1  2  6  3  6  5       21 0.344078888267D+00 0.100000000000D+01
0.366732453230D-03 0.000000000000D+00 0.000000000000D+00 0.178338225981D-04 0.787909318933D-05  6 1 -2 25 -24 21 21 4 0.11454081D-01 0.46042071D-01 0.21027526D+05 0.21027526D+05 0.21027526D+05 0.12314378D+01  1  2 11  3  6  5       21 0.173489059715D+00 0.100000000000D+01
0.392311015383D-06 0.000000000000D+00 0.000000000000D+00 0.178387227297D-04 0.000000000000D+00  6 1 -2 25 -24 1 -1 4 0.11454081D-01 0.46042071D-01 0.21027526D+05 0.21027526D+05 0.21027526D+05 0.12314378D+01  1  2 12  6  6  5       21 0.185589436046D-03 0.100000000000D+01
0.389440723308D-06 0.000000000000D+00 0.000000000000D+00 0.178387227297D-04 0.000000000000D+00  6 1 -2 25 -24 1 -1 4 0.11454081D-01 0.46042071D-01 0.21027526D+05 0.21027526D+05 0.21027526D+05 0.12314378D+01  1  2 12  6  6  5       21 0.184231595286D-03 0.100000000000D+01
-.192446935184D-05 0.000000000000D+00 0.000000000000D+00 0.178338225981D-04 0.000000000000D+00  6 1 -2 25 -24 1 -1 4 0.11454081D-01 0.46042071D-01 0.21102511D+05 0.21102511D+05 0.21102511D+05 0.12312687D+01  1  2  5  6  6  5       21 -.909986584512D-03 0.100000000000D+01
0.191925329099D-05 0.000000000000D+00 0.000000000000D+00 0.178338225981D-04 0.400061901667D-07  6 1 -2 25 -24 1 -1 4 0.11454081D-01 0.46042071D-01 0.21027526D+05 0.21027526D+05 0.21027526D+05 0.12314378D+01  1  2 11  6  6  5       21 0.907935596856D-03 0.100000000000D+01
0.392311015383D-06 0.000000000000D+00 0.000000000000D+00 0.178387227297D-04 0.000000000000D+00  6 1 -2 25 -24 2 -2 4 0.11454081D-01 0.46042071D-01 0.21027526D+05 0.21027526D+05 0.21027526D+05 0.12314378D+01  1  2 12  7  6  5       21 0.185589436046D-03 0.100000000000D+01
0.389440723308D-06 0.000000000000D+00 0.000000000000D+00 0.178387227297D-04 0.000000000000D+00  6 1 -2 25 -24 2 -2 4 0.11454081D-01 0.46042071D-01 0.21027526D+05 0.21027526D+05 0.21027526D+05 0.12314378D+01  1  2 12  7  6  5       21 0.184231595286D-03 0.100000000000D+01
-.192446935184D-05 0.000000000000D+00 0.000000000000D+00 0.178338225981D-04 0.000000000000D+00  6 1 -2 25 -24 2 -2 4 0.11454081D-01 0.46042071D-01 0.21102511D+05 0.21102511D+05 0.21102511D+05 0.12312687D+01  1  2  5  7  6  5       21 -.909986584512D-03 0.100000000000D+01
0.195580103991D-05 0.000000000000D+00 0.000000000000D+00 0.178338225981D-04 0.409455306215D-07  6 1 -2 25 -24 2 -2 4 0.11454081D-01 0.46042071D-01 0.21027526D+05 0.21027526D+05 0.21027526D+05 0.12314378D+01  1  2 11  7  6  5       21 0.925225134608D-03 0.100000000000D+01
0.392311015383D-06 0.000000000000D+00 0.000000000000D+00 0.178387227297D-04 0.000000000000D+00  6 1 -2 25 -24 3 -3 4 0.11454081D-01 0.46042071D-01 0.21027526D+05 0.21027526D+05 0.21027526D+05 0.12314378D+01  1  2 12  8  6  5       21 0.185589436046D-03 0.100000000000D+01
0.392311015383D-06 0.000000000000D+00 0.000000000000D+00 0.178387227297D-04 0.000000000000D+00  6 1 -2 25 -24 4 -4 4 0.11454081D-01 0.46042071D-01 0.21027526D+05 0.21027526D+05 0.21027526D+05 0.12314378D+01  1  2 12  8  6  5       21 0.185589436046D-03 0.100000000000D+01
0.389440723308D-06 0.000000000000D+00 0.000000000000D+00 0.178387227297D-04 0.000000000000D+00  6 1 -2 25 -24 3 -3 4 0.11454081D-01 0.46042071D-01 0.21027526D+05 0.21027526D+05 0.21027526D+05 0.12314378D+01  1  2 12  8  6  5       21 0.184231595286D-03 0.100000000000D+01
0.389440723308D-06 0.000000000000D+00 0.000000000000D+00 0.178387227297D-04 0.000000000000D+00  6 1 -2 25 -24 4 -4 4 0.11454081D-01 0.46042071D-01 0.21027526D+05 0.21027526D+05 0.21027526D+05 0.12314378D+01  1  2 12  8  6  5       21 0.184231595286D-03 0.100000000000D+01
-.192446935184D-05 0.000000000000D+00 0.000000000000D+00 0.178338225981D-04 0.000000000000D+00  6 1 -2 25 -24 3 -3 4 0.11454081D-01 0.46042071D-01 0.21102511D+05 0.21102511D+05 0.21102511D+05 0.12312687D+01  1  2  5  8  6  5       21 -.909986584512D-03 0.100000000000D+01
-.192446935184D-05 0.000000000000D+00 0.000000000000D+00 0.178338225981D-04 0.000000000000D+00  6 1 -2 25 -24 4 -4 4 0.11454081D-01 0.46042071D-01 0.21102511D+05 0.21102511D+05 0.21102511D+05 0.12312687D+01  1  2  5  8  6  5       21 -.909986584512D-03 0.100000000000D+01
0.191678055575D-05 0.000000000000D+00 0.000000000000D+00 0.178338225981D-04 0.399323672333D-07  6 1 -2 25 -24 3 -3 4 0.11454081D-01 0.46042071D-01 0.21027526D+05 0.21027526D+05 0.21027526D+05 0.12314378D+01  1  2 11  8  6  5       21 0.906765827154D-03 0.100000000000D+01
0.191678055575D-05 0.000000000000D+00 0.000000000000D+00 0.178338225981D-04 0.399323672333D-07  6 1 -2 25 -24 4 -4 4 0.11454081D-01 0.46042071D-01 0.21027526D+05 0.21027526D+05 0.21027526D+05 0.12314378D+01  1  2 11  8  6  5       21 0.906765827154D-03 0.100000000000D+01
  </mgrwgt>
  </event>
  <event>
  5     66 0.44337718E-03 0.51832227E+02 0.75467711E-02 0.10565742E+00
        1 -1    0    0  502    0 0.00000000E+00 0.00000000E+00 0.47036408E+03 0.47036418E+03 0.32000000E+00 0.0000E+00 0.9000E+01
       -2 -1    0    0    0  501 0.00000000E+00 0.00000000E+00 -.28768520E+03 0.28768538E+03 0.32000000E+00 0.0000E+00 0.9000E+01
       25  1    1    2    0    0 -.25025917E+03 0.72954521E+02 0.17495418E+03 0.33791416E+03 0.12500000E+03 0.0000E+00 0.9000E+01
      -24  1    1    2    0    0 0.23819163E+03 -.22547660E+02 -.12206571E+03 0.28037636E+03 0.80419002E+02 0.0000E+00 0.9000E+01
       21  1    1    2  502  501 0.12067539E+02 -.50406861E+02 0.12979041E+03 0.13975904E+03 0.75000000E+00 0.0000E+00 0.9000E+01
#aMCatNLO 1  0  0  1  1 0.22813654D+02 0.00000000D+00  -5  6  0 0.00000000D+00 0.00000000D+00 0.00000000D+00 0.00000000D+00 0.00000000D+00
  <mgrwgt>
 0.4714499129D+00    7    4    0
 0.367854443197001D+03 0.000000000000000D+00 0.000000000000000D+00 0.367854443197001D+03
 0.367854443197001D+03 0.000000000000000D+00 0.000000000000000D+00 -.367854443197001D+03
 0.304733555224222D+03 -.250259284992793D+03 0.729549913576199D+02 0.963607762032857D+02
 0.319200099007531D+03 0.238191515684976D+03 -.225471678985331D+02 -.195391694622613D+03
 0.111775232162248D+03 0.120677693078163D+02 -.504078234590868D+02 0.990309184193271D+02
 0.000000000000000D+00 0.000000000000000D+00 0.000000000000000D+00 0.000000000000000D+00
 0.616447078842057D+03 0.000000000000000D+00 0.000000000000000D+00 0.616447078842057D+03
 0.387016839782042D+03 0.000000000000000D+00 0.000000000000000D+00 -.387016839782042D+03
 0.303210171348165D+03 -.257698546674235D+03 0.248489005887819D+02 0.963607762032857D+02
 0.321043701287046D+03 0.230357005742476D+03 -.732091371317817D+02 -.195391694622613D+03
 0.120949387365931D+03 0.921997391375031D+01 -.688231326099625D+02 0.990309184193271D+02
 0.258260658622957D+03 0.181215670180088D+02 0.117183369152962D+03 0.229430239060015D+03
 0.367854443197001D+03 0.000000000000000D+00 0.000000000000000D+00 0.367854443197001D+03
 0.367854443197001D+03 0.000000000000000D+00 0.000000000000000D+00 -.367854443197001D+03
 0.304733555224222D+03 -.250259284992793D+03 0.729549913576199D+02 0.963607762032857D+02
 0.319200099007531D+03 0.238191515684976D+03 -.225471678985331D+02 -.195391694622613D+03
 0.000000000000000D+00 0.000000000000000D+00 0.000000000000000D+00 0.000000000000000D+00
 0.111775232162248D+03 0.120677693078163D+02 -.504078234590868D+02 0.990309184193271D+02
 0.616447078842057D+03 0.000000000000000D+00 0.000000000000000D+00 0.616447078842057D+03
 0.387016839782042D+03 0.000000000000000D+00 0.000000000000000D+00 -.387016839782042D+03
 0.303210171348165D+03 -.257698546674235D+03 0.248489005887819D+02 0.963607762032857D+02
 0.321043701287046D+03 0.230357005742476D+03 -.732091371317817D+02 -.195391694622613D+03
 0.258260658622957D+03 0.181215670180088D+02 0.117183369152962D+03 0.229430239060015D+03
 0.120949387365931D+03 0.921997391375031D+01 -.688231326099625D+02 0.990309184193271D+02
0.599933936333D-02 0.000000000000D+00 0.000000000000D+00 0.452050270762D-05 0.000000000000D+00  6 1 -2 25 -24 21 21 2 0.72363726D-01 0.44259283D-01 0.88012882D+05 0.88012882D+05 0.88012882D+05 0.11687004D+01  1  2  2  1  6  1        1 0.173755164374D+00 0.100000000000D+01
0.697394228614D-03 0.316593836128D-03 -.230390428175D-04 0.452050270762D-05 0.000000000000D+00  6 1 -2 25 -24 21 21 4 0.72363726D-01 0.44259283D-01 0.88012882D+05 0.88012882D+05 0.88012882D+05 0.11687004D+01  1  2  3  1  6  1        1 0.275879242647D-01 0.100000000000D+01
0.240472785737D-03 0.000000000000D+00 0.000000000000D+00 0.452050270762D-05 0.000000000000D+00  6 1 -2 25 -24 21 21 4 0.72363726D-01 0.44259283D-01 0.88012882D+05 0.88012882D+05 0.88012882D+05 0.11687004D+01  1  2 15  1  6  1        1 0.951276154639D-02 0.100000000000D+01
-.512112812984D-02 0.000000000000D+00 0.000000000000D+00 0.452050270762D-05 0.000000000000D+00  6 1 -2 25 -24 21 21 4 0.72363726D-01 0.44259283D-01 0.88012882D+05 0.88012882D+05 0.88012882D+05 0.11687004D+01  1  2  4  1  6  1        1 -.202584548595D+00 0.100000000000D+01
-.252905143944D-01 0.000000000000D+00 -.439078623888D-02 0.452050270762D-05 0.000000000000D+00  6 1 -2 25 -24 21 21 4 0.12432444D+00 0.44259283D-01 0.88012882D+05 0.88012882D+05 0.88012882D+05 0.11687004D+01  1  2  5  1  6  1        1 -.463982243835D+00 0.100000000000D+01
0.245550966205D-01 0.000000000000D+00 0.381790117445D-02 0.452050270762D-05 0.000000000000D+00  6 1 -2 25 -24 21 21 4 0.72363726D-01 0.44259283D-01 0.88012882D+05 0.88012882D+05 0.88012882D+05 0.11687004D+01  1  2  6  1  6  1        1 0.971364714657D+00 0.100000000000D+01
-.130457153169D-02 0.000000000000D+00 -.263931989224D-03 0.452050270762D-05 0.000000000000D+00  6 21 -2 25 -24 -1 21 4 0.12432444D+00 0.44259283D-01 0.88012882D+05 0.88012882D+05 0.88012882D+05 0.11687004D+01  3  4  5  4  5  1        1 -.442038595484D-01 0.100000000000D+01
  </mgrwgt>
  </event>
  <event>
  5     66 -.44337718E-03 0.23874741E+02 0.75467711E-02 0.12119157E+00
        1 -1    0    0  502    0 0.00000000E+00 0.00000000E+00 0.18389890E+03 0.18389918E+03 0.32000000E+00 0.0000E+00 0.9000E+01
       -2 -1    0    0    0  501 0.00000000E+00 0.00000000E+00 -.12544681E+03 0.12544722E+03 0.32000000E+00 0.0000E+00 0.9000E+01
       25  1    1    2    0    0 -.41208315E+02 0.42233538E+02 0.92663345E+01 0.13853758E+03 0.12500000E+03 0.0000E+00 0.9000E+01
      -24  1    1    2    0    0 0.23752168E+02 -.25948647E+02 0.88602557E+02 0.12472019E+03 0.80419002E+02 0.0000E+00 0.9000E+01
       21  1    1    2  502  501 0.17456147E+02 -.16284890E+02 -.39416799E+02 0.46088624E+02 0.75000000E+00 0.0000E+00 0.9000E+01
#aMCatNLO 1  0  0  1  1 0.22813654D+02 0.00000000D+00  -5  6  0 0.00000000D+00 0.00000000D+00 0.00000000D+00 0.00000000D+00 0.00000000D+00
  <mgrwgt>
 -.6029258049D+00    5    4    0
 0.151886922406980D+03 0.000000000000000D+00 0.000000000000000D+00 0.151886922406980D+03
 0.151886922406980D+03 0.000000000000000D+00 0.000000000000000D+00 -.151886922406980D+03
 0.139296124778957D+03 -.412090730320786D+02 0.422342442449829D+02 -.172189224786737D+02
 0.109959981288216D+03 0.237515703590920D+02 -.259480891934979D+02 0.662309678565671D+02
 0.545177387467880D+02 0.174575026729866D+02 -.162861550514850D+02 -.490120453778935D+02
 0.000000000000000D+00 -.000000000000000D+00 0.000000000000000D+00 0.000000000000000D+00
 0.363590073734089D+03 0.000000000000000D+00 0.000000000000000D+00 0.363590073734089D+03
 0.153438962974927D+03 0.000000000000000D+00 0.000000000000000D+00 -.153438962974927D+03
 0.135129850145715D+03 -.377939676024952D+02 0.301695396374936D+02 -.172189224786737D+02
 0.113298755494582D+03 0.265299229709326D+02 -.357633069806080D+02 0.662309678565671D+02
 0.566162388889344D+02 0.188405140680964D+02 -.211719848727997D+02 -.490120453778935D+02
 0.211984192179785D+03 -.757646943653384D+01 0.267657522159141D+02 0.210151110759162D+03
 0.151886922406980D+03 0.000000000000000D+00 0.000000000000000D+00 0.151886922406980D+03
 0.151886922406980D+03 0.000000000000000D+00 0.000000000000000D+00 -.151886922406980D+03
 0.139296124778957D+03 -.412090730320786D+02 0.422342442449829D+02 -.172189224786737D+02
 0.109959981288216D+03 0.237515703590920D+02 -.259480891934979D+02 0.662309678565671D+02
 0.000000000000000D+00 -.000000000000000D+00 0.000000000000000D+00 0.000000000000000D+00
 0.545177387467880D+02 0.174575026729866D+02 -.162861550514850D+02 -.490120453778935D+02
 0.363590073734089D+03 0.000000000000000D+00 0.000000000000000D+00 0.363590073734089D+03
 0.153438962974927D+03 0.000000000000000D+00 0.000000000000000D+00 -.153438962974927D+03
 0.135129850145715D+03 -.377939676024952D+02 0.301695396374936D+02 -.172189224786737D+02
 0.113298755494582D+03 0.265299229709326D+02 -.357633069806080D+02 0.662309678565671D+02
 0.211984192179785D+03 -.757646943653384D+01 0.267657522159141D+02 0.210151110759162D+03
 0.566162388889344D+02 0.188405140680964D+02 -.211719848727997D+02 -.490120453778935D+02
0.598699314507D-04 0.000000000000D+00 0.000000000000D+00 0.387064044212D-04 0.000000000000D+00  6 1 -2 25 -24 21 21 2 0.28292192D-01 0.19299562D-01 0.15609840D+05 0.15609840D+05 0.15609840D+05 0.12458543D+01  1  2  2  1  6  1        1 0.285614192758D-01 0.100000000000D+01
0.619191022309D-05 0.315942308290D-05 -.229916300886D-06 0.387064044212D-04 0.000000000000D+00  6 1 -2 25 -24 21 21 4 0.28292192D-01 0.19299562D-01 0.15609840D+05 0.15609840D+05 0.15609840D+05 0.12458543D+01  1  2  3  1  6  1        1 0.458490342888D-02 0.100000000000D+01
0.328020038786D-05 0.000000000000D+00 0.000000000000D+00 0.387064044212D-04 0.000000000000D+00  6 1 -2 25 -24 21 21 4 0.28292192D-01 0.19299562D-01 0.15609840D+05 0.15609840D+05 0.15609840D+05 0.12458543D+01  1  2 15  1  6  1        1 0.242887920914D-02 0.100000000000D+01
-.192971530318D-02 0.000000000000D+00 -.402709530074D-04 0.387064044212D-04 0.000000000000D+00  6 1 -2 25 -24 21 21 4 0.67956761D-01 0.19299562D-01 0.15609840D+05 0.15609840D+05 0.15609840D+05 0.12458543D+01  1  2  5  1  6  1        1 -.481367927743D+00 0.100000000000D+01
-.182499491664D-03 0.000000000000D+00 -.386135041317D-05 0.387064044212D-04 0.000000000000D+00  6 21 -2 25 -24 -1 21 4 0.67956761D-01 0.19299562D-01 0.15609840D+05 0.15609840D+05 0.15609840D+05 0.12458543D+01  3  4  5  4  5  1        1 -.157133079029D+00 0.100000000000D+01
  </mgrwgt>
  </event>
  <event>
  5     66 0.44337718E-03 0.24174252E+02 0.75467711E-02 0.11149641E+00
        1 -1    0    0  502    0 0.00000000E+00 0.00000000E+00 0.14684567E+03 0.14684601E+03 0.32000000E+00 0.0000E+00 0.9000E+01
       -2 -1    0    0    0  501 -.00000000E+00 -.00000000E+00 -.78164300E+03 0.78164307E+03 0.32000000E+00 0.0000E+00 0.9000E+01
       25  1    1    2    0    0 -.11491333E+03 0.88504295E+02 -.74152553E+02 0.20533311E+03 0.12500000E+03 0.0000E+00 0.9000E+01
      -24  1    1    2    0    0 0.92087751E+02 -.96465704E+02 0.61406316E+01 0.15585477E+03 0.80419002E+02 0.0000E+00 0.9000E+01
       21  1    1    2  502  501 0.22825577E+02 0.79614091E+01 -.56678541E+03 0.56730121E+03 0.75000000E+00 0.0000E+00 0.9000E+01
#aMCatNLO 1  0  0  5  1 0.13745511D+01 0.00000000D+00  -5  6  0 0.00000000D+00 0.00000000D+00 0.00000000D+00 0.00000000D+00 0.00000000D+00
  <mgrwgt>
 0.3228872315D+00   10    2    0
 0.338793564637543D+03 0.000000000000000D+00 0.000000000000000D+00 0.338793564637543D+03
 0.338793564637543D+03 -.000000000000000D+00 -.000000000000000D+00 -.338793564637543D+03
 0.211895724387632D+03 -.114913361077825D+03 0.885042830315226D+02 0.907563184832480D+02
 0.219318920262758D+03 0.920877167764447D+02 -.964657156143389D+02 0.154427299920598D+03
 0.246372484624697D+03 0.228256443013802D+02 0.796143258281627D+01 -.245183618403846D+03
 0.000000000000000D+00 0.000000000000000D+00 0.000000000000000D+00 -.000000000000000D+00
 0.338793564637543D+03 0.000000000000000D+00 0.000000000000000D+00 0.338793564637543D+03
 0.338793564637543D+03 -.000000000000000D+00 -.000000000000000D+00 -.338793564637543D+03
 0.205348581139954D+03 -.113516064590244D+03 0.889916507323945D+02 0.757471382697689D+02
 0.209160015724315D+03 0.935226365688198D+02 -.959652251555415D+02 0.139013985747795D+03
 0.123673256596640D+03 0.719065615754810D+02 0.436113850145525D+02 -.906783761253050D+02
 0.139405275814177D+03 -.519131335540573D+02 -.366378105914056D+02 -.124082747892258D+03
0.119871130016D-01 0.000000000000D+00 0.000000000000D+00 0.570225165904D-04 0.000000000000D+00  6 1 -2 25 -24 21 21 2 0.22591673D-01 0.12025280D+00 0.34481532D+05 0.34481532D+05 0.34481532D+05 0.12086031D+01  1  2  2  3  6  5       21 0.187446852623D+00 0.100000000000D+01
0.404249902401D-02 0.632577332176D-03 -.460336702056D-04 0.570225165904D-04 0.000000000000D+00  6 1 -2 25 -24 21 21 4 0.22591673D-01 0.12025280D+00 0.34481532D+05 0.34481532D+05 0.34481532D+05 0.12086031D+01  1  2  3  3  6  5       21 0.923380899450D-01 0.100000000000D+01
0.421717131976D-03 0.000000000000D+00 0.000000000000D+00 0.570225165904D-04 0.000000000000D+00  6 1 -2 25 -24 21 21 4 0.22591673D-01 0.12025280D+00 0.34481532D+05 0.34481532D+05 0.34481532D+05 0.12086031D+01  1  2 15  3  6  5       21 0.963279254552D-02 0.100000000000D+01
-.355206981346D-02 0.000000000000D+00 0.000000000000D+00 0.570225165904D-04 0.000000000000D+00  6 1 -2 25 -24 21 21 4 0.22591673D-01 0.12025280D+00 0.34481532D+05 0.34481532D+05 0.34481532D+05 0.12086031D+01  1  2  4  3  6  5       21 -.811357875358D-01 0.100000000000D+01
-.575731733744D-02 0.000000000000D+00 0.000000000000D+00 0.570225165904D-04 0.000000000000D+00  6 1 -2 25 -24 21 21 4 0.22591673D-01 0.12025280D+00 0.34481532D+05 0.34481532D+05 0.34481532D+05 0.12086031D+01  1  2  5  3  6  5       21 -.131507684477D+00 0.100000000000D+01
0.113964665818D-01 0.000000000000D+00 -.000000000000D+00 0.570225165904D-04 0.000000000000D+00  6 1 -2 25 -24 21 21 4 0.22591673D-01 0.12025280D+00 0.34481532D+05 0.34481532D+05 0.34481532D+05 0.12086031D+01  1  2  6  3  6  5       21 0.260316193037D+00 0.100000000000D+01
-.155451887714D-03 0.000000000000D+00 0.000000000000D+00 0.570225165904D-04 0.000000000000D+00  6 1 -2 25 -24 1 -1 4 0.22591673D-01 0.12025280D+00 0.34481532D+05 0.34481532D+05 0.34481532D+05 0.12086031D+01  1  2  5  6  6  5       21 -.355080614851D-02 0.100000000000D+01
-.155451887714D-03 0.000000000000D+00 0.000000000000D+00 0.570225165904D-04 0.000000000000D+00  6 1 -2 25 -24 2 -2 4 0.22591673D-01 0.12025280D+00 0.34481532D+05 0.34481532D+05 0.34481532D+05 0.12086031D+01  1  2  5  7  6  5       21 -.355080614851D-02 0.100000000000D+01
-.155451887714D-03 0.000000000000D+00 0.000000000000D+00 0.570225165904D-04 0.000000000000D+00  6 1 -2 25 -24 3 -3 4 0.22591673D-01 0.12025280D+00 0.34481532D+05 0.34481532D+05 0.34481532D+05 0.12086031D+01  1  2  5  8  6  5       21 -.355080614851D-02 0.100000000000D+01
-.155451887714D-03 0.000000000000D+00 0.000000000000D+00 0.570225165904D-04 0.000000000000D+00  6 1 -2 25 -24 4 -4 4 0.22591673D-01 0.12025280D+00 0.34481532D+05 0.34481532D+05 0.34481532D+05 0.12086031D+01  1  2  5  8  6  5       21 -.355080614851D-02 0.100000000000D+01
  </mgrwgt>
  </event>
  <event>
  6     66 -.44337718E-03 0.16157197E+02 0.75467711E-02 0.12018020E+00
        3 -1    0    0  502    0 0.00000000E+00 0.00000000E+00 0.37804028E+03 0.37804061E+03 0.50000000E+00 0.0000E+00 0.9000E+01
       -4 -1    0    0    0  501 0.00000000E+00 0.00000000E+00 -.63364754E+02 0.63383709E+02 0.15500000E+01 0.0000E+00 0.9000E+01
       25  1    1    2    0    0 -.84542810E+02 -.28857178E+02 0.12218538E+03 0.19630204E+03 0.12500000E+03 0.0000E+00 0.9000E+01
      -24  1    1    2    0    0 0.74379339E+02 0.31550654E+02 0.17496765E+03 0.20882678E+03 0.80419002E+02 0.0000E+00 0.9000E+01
       21  1    1    2  502  503 -.10282224E+02 0.10198923E+01 0.93439981E+01 0.13951241E+02 0.75000000E+00 0.0000E+00 0.9000E+01
       21  1    1    2  503  501 0.20445696E+02 -.37133683E+01 0.81784964E+01 0.22344258E+02 0.75000000E+00 0.0000E+00 0.9000E+01
#aMCatNLO 2  0  0  5  1 0.71854323D+01 0.00000000D+00  -5  6  0 0.00000000D+00 0.00000000D+00 0.00000000D+00 0.00000000D+00 0.00000000D+00
  <mgrwgt>
 -.1173339576D-01    2    2    0
 0.154785935698393D+03 0.000000000000000D+00 0.000000000000000D+00 0.154785935698393D+03
 0.154785935698393D+03 -.000000000000000D+00 -.000000000000000D+00 -.154785935698393D+03
 0.157809763570604D+03 -.905686466564035D+02 -.272602390910240D+02 -.182516050181293D+02
 0.119272306521446D+03 0.697821299207075D+02 0.327689852808313D+02 0.426065147127693D+02
 0.324898013047349D+02 0.207865167356960D+02 -.550874618980729D+01 -.243549096946400D+02
 0.000000000000000D+00 0.000000000000000D+00 0.000000000000000D+00 0.000000000000000D+00
 0.154785935698393D+03 0.000000000000000D+00 0.000000000000000D+00 0.154785935698393D+03
 0.154785935698393D+03 -.000000000000000D+00 -.000000000000000D+00 -.154785935698393D+03
 0.155883785692234D+03 -.851045245887880D+02 -.287083153610095D+02 -.246537454637546D+02
 0.119838927179149D+03 0.739471278039871D+02 0.316651968726142D+02 0.377265173271831D+02
 0.934993706978597D+01 -.929451387253551D+01 0.100077689423701D+01 -.178271394688617D+00
 0.244992214556163D+02 0.204519106573363D+02 -.395765840584164D+01 -.128945004687398D+02
-.133805467047D-03 0.000000000000D+00 0.000000000000D+00 0.428347094368D-04 0.000000000000D+00  6 3 -4 25 -24 21 21 4 0.58161527D-01 0.97499072D-02 0.22178226D+05 0.22178226D+05 0.22178226D+05 0.12289137D+01  1  2 13  3  6  5       21 -.141838253612D-01 0.100000000000D+01
0.231165337656D-04 0.000000000000D+00 0.000000000000D+00 0.430190957262D-04 0.109008272983D-05  6 3 -4 25 -24 21 21 4 0.58161527D-01 0.97499072D-02 0.22178226D+05 0.22178226D+05 0.22178226D+05 0.12289137D+01  1  2  1  3  6  5       21 0.245042960592D-02 0.100000000000D+01
  </mgrwgt>
  </event>
  <event>
  5     66 0.44337718E-03 0.20939842E+02 0.75467711E-02 0.88376203E-01
        1 -1    0    0  502    0 0.00000000E+00 0.00000000E+00 0.96550937E+03 0.96550943E+03 0.32000000E+00 0.0000E+00 0.9000E+01
       -2 -1    0    0    0  501 0.00000000E+00 0.00000000E+00 -.87719397E+02 0.87719981E+02 0.32000000E+00 0.0000E+00 0.9000E+01
       25  1    1    2    0    0 -.11385060E+03 -.12999253E+03 0.25600197E+03 0.33319968E+03 0.12500000E+03 0.0000E+00 0.9000E+01
      -24  1    1    2    0    0 0.12029198E+03 0.14991677E+03 0.17317599E+03 0.27092866E+03 0.80419002E+02 0.0000E+00 0.9000E+01
       21  1    1    2  502  501 -.64413792E+01 -.19924241E+02 0.44861201E+03 0.44910106E+03 0.75000000E+00 0.0000E+00 0.9000E+01
#aMCatNLO 1  0  0  1  5 0.31755422D+02 0.00000000D+00  -5  6  0 0.00000000D+00 0.00000000D+00 0.00000000D+00 0.00000000D+00 0.00000000D+00
  <mgrwgt>
 0.3731129384D+01    3    2    0
 0.291022739961751D+03 0.000000000000000D+00 0.000000000000000D+00 0.291022739961751D+03
 0.291022739961751D+03 0.000000000000000D+00 0.000000000000000D+00 -.291022739961751D+03
 0.216855506008142D+03 -.113850563130967D+03 -.129992420498005D+03 -.392597806142502D+02
 0.229085422103192D+03 0.120292017309716D+03 0.149916893671525D+03 -.952243153257968D+02
 0.136104551812168D+03 -.644145417874937D+01 -.199244731735195D+02 0.134484095940047D+03
 0.000000000000000D+00 0.000000000000000D+00 0.000000000000000D+00 -.000000000000000D+00
 0.106711047289401D+04 0.000000000000000D+00 0.000000000000000D+00 0.106711047289401D+04
 0.325124788646648D+04 0.000000000000000D+00 0.000000000000000D+00 -.325124788646648D+04
 0.957712512639749D+03 -.115351297039346D+03 -.941669265062953D+03 -.392597806142502D+02
 0.250695519296465D+03 0.119679005959227D+03 -.181632300938733D+03 -.952243153257968D+02
 0.437650312014697D+03 -.717453507791580D+01 -.416413676038823D+03 0.134484095940047D+03
 0.267230001540958D+04 0.284682615803480D+01 0.153971524204051D+04 -.218413741357247D+04
0.285118100431D-01 0.000000000000D+00 0.000000000000D+00 0.433855795943D-04 0.000000000000D+00  6 1 -2 25 -24 21 21 2 0.14853995D+00 0.13495341D-01 0.48966717D+05 0.48966717D+05 0.48966717D+05 0.11931810D+01  1  2  2  1  6  1        1 0.248714773219D+01 0.100000000000D+01
0.940734070015D-02 0.150460955279D-02 -.109492857897D-03 0.433855795943D-04 0.000000000000D+00  6 1 -2 25 -24 21 21 4 0.14853995D+00 0.13495341D-01 0.48966717D+05 0.48966717D+05 0.48966717D+05 0.11931810D+01  1  2  3  1  6  1        1 0.116830516369D+01 0.100000000000D+01
0.609356641155D-03 0.000000000000D+00 0.000000000000D+00 0.433855795943D-04 0.000000000000D+00  6 1 -2 25 -24 21 21 4 0.14853995D+00 0.13495341D-01 0.48966717D+05 0.48966717D+05 0.48966717D+05 0.11931810D+01  1  2 15  1  6  1        1 0.756764885087D-01 0.100000000000D+01
  </mgrwgt>
  </event>
  <event>
  5     66 0.44337718E-03 0.24790129E+02 0.75467711E-02 0.11234348E+00
        1 -1    0    0  502    0 0.00000000E+00 0.00000000E+00 0.68632334E+03 0.68632342E+03 0.32000000E+00 0.0000E+00 0.9000E+01
       -2 -1    0    0    0  501 0.00000000E+00 0.00000000E+00 -.10014713E+03 0.10014764E+03 0.32000000E+00 0.0000E+00 0.9000E+01
       25  1    1    2    0    0 0.12131767E+03 0.12318297E+03 0.24596304E+03 0.32559920E+03 0.12500000E+03 0.0000E+00 0.9000E+01
      -24  1    1    2    0    0 -.14399121E+03 -.13320388E+03 0.12890610E+03 0.24811437E+03 0.80419002E+02 0.0000E+00 0.9000E+01
       21  1    1    2  502  501 0.22673543E+02 0.10020907E+02 0.21130707E+03 0.21275749E+03 0.75000000E+00 0.0000E+00 0.9000E+01
#aMCatNLO 1  0  0  5  2 0.19391694D+02 0.00000000D+00  -5  6  0 0.00000000D+00 0.00000000D+00 0.00000000D+00 0.00000000D+00 0.00000000D+00
  <mgrwgt>
 0.9933226210D+00   15    2    0
 0.262170828224863D+03 0.000000000000000D+00 0.000000000000000D+00 0.262170828224863D+03
 0.262170828224863D+03 -.000000000000000D+00 -.000000000000000D+00 -.262170828224863D+03
 0.213403765590089D+03 0.121317291032355D+03 0.123182804229084D+03 0.492735292622930D+01
 0.228045093103673D+03 -.143991615632996D+03 -.133204056635147D+03 -.840264390393436D+02
 0.828927977559639D+02 0.226743246006410D+02 0.100212524060631D+02 0.790990861131143D+02
 0.000000000000000D+00 0.000000000000000D+00 0.000000000000000D+00 0.000000000000000D+00
 0.262170828224863D+03 0.000000000000000D+00 0.000000000000000D+00 0.262170828224863D+03
 0.262170828224863D+03 -.000000000000000D+00 -.000000000000000D+00 -.262170828224863D+03
 0.214470667612663D+03 0.122455388624975D+03 0.123685803257248D+03 0.889759155822319D+01
 0.225449428644923D+03 -.142785371502900D+03 -.132670939238977D+03 -.798184720987466D+02
 0.329745446627226D+02 -.479898575164400D+01 -.109891421103941D+02 0.307169185815728D+02
 0.514470155294170D+02 0.251289686295688D+02 0.199742780921232D+02 0.402039619589506D+02
0.460428632237D-02 0.000000000000D+00 0.000000000000D+00 0.266415635732D-04 0.000000000000D+00  6 1 -2 25 -24 21 21 2 0.10558825D+00 0.15407296D-01 0.50655895D+05 0.50655895D+05 0.50655895D+05 0.11917216D+01  1  2  2  3  6  5       21 0.547181117351D+00 0.100000000000D+01
0.109540955890D-02 0.242974864589D-03 -.176816718143D-04 0.266415635732D-04 0.000000000000D+00  6 1 -2 25 -24 21 21 4 0.10558825D+00 0.15407296D-01 0.50655895D+05 0.50655895D+05 0.50655895D+05 0.11917216D+01  1  2  3  3  6  5       21 0.184882133599D+00 0.100000000000D+01
0.526871612787D-04 0.000000000000D+00 0.000000000000D+00 0.266415635732D-04 0.000000000000D+00  6 1 -2 25 -24 21 21 4 0.10558825D+00 0.15407296D-01 0.50655895D+05 0.50655895D+05 0.50655895D+05 0.11917216D+01  1  2 15  3  6  5       21 0.889248656933D-02 0.100000000000D+01
0.141128200155D-02 0.000000000000D+00 0.000000000000D+00 0.264830387022D-04 0.000000000000D+00  6 1 -2 25 -24 21 21 4 0.10558825D+00 0.15407296D-01 0.55042966D+05 0.55042966D+05 0.55042966D+05 0.11881708D+01  1  2 12  3  6  5       21 0.235354880763D+00 0.100000000000D+01
-.466701982618D-02 0.000000000000D+00 0.000000000000D+00 0.266415635732D-04 0.000000000000D+00  6 1 -2 25 -24 21 21 4 0.10558825D+00 0.15407296D-01 0.50655895D+05 0.50655895D+05 0.50655895D+05 0.11917216D+01  1  2  4  3  6  5       21 -.787694954823D+00 0.100000000000D+01
-.242076138298D-02 0.000000000000D+00 0.000000000000D+00 0.266415635732D-04 0.000000000000D+00  6 1 -2 25 -24 21 21 4 0.10558825D+00 0.15407296D-01 0.50655895D+05 0.50655895D+05 0.50655895D+05 0.11917216D+01  1  2  5  3  6  5       21 -.408573693538D+00 0.100000000000D+01
0.712269984700D-02 0.000000000000D+00 -.000000000000D+00 0.266415635732D-04 0.000000000000D+00  6 1 -2 25 -24 21 21 4 0.10558825D+00 0.15407296D-01 0.50655895D+05 0.50655895D+05 0.50655895D+05 0.11917216D+01  1  2  6  3  6  5       21 0.120216218125D+01 0.100000000000D+01
0.871500492218D-04 0.000000000000D+00 0.000000000000D+00 0.264830387022D-04 0.000000000000D+00  6 1 -2 25 -24 1 -1 4 0.10558825D+00 0.15407296D-01 0.55042966D+05 0.55042966D+05 0.55042966D+05 0.11881708D+01  1  2 12  6  6  5       21 0.145337284969D-01 0.100000000000D+01
-.696420218882D-04 0.000000000000D+00 0.000000000000D+00 0.266415635732D-04 0.000000000000D+00  6 1 -2 25 -24 1 -1 4 0.10558825D+00 0.15407296D-01 0.50655895D+05 0.50655895D+05 0.50655895D+05 0.11917216D+01  1  2  5  6  6  5       21 -.117541110447D-01 0.100000000000D+01
0.871500492218D-04 0.000000000000D+00 0.000000000000D+00 0.264830387022D-04 0.000000000000D+00  6 1 -2 25 -24 2 -2 4 0.10558825D+00 0.15407296D-01 0.55042966D+05 0.55042966D+05 0.55042966D+05 0.11881708D+01  1  2 12  7  6  5       21 0.145337284969D-01 0.100000000000D+01
-.696420218882D-04 0.000000000000D+00 0.000000000000D+00 0.266415635732D-04 0.000000000000D+00  6 1 -2 25 -24 2 -2 4 0.10558825D+00 0.15407296D-01 0.50655895D+05 0.50655895D+05 0.50655895D+05 0.11917216D+01  1  2  5  7  6  5       21 -.117541110447D-01 0.100000000000D+01
0.871500492218D-04 0.000000000000D+00 0.000000000000D+00 0.264830387022D-04 0.000000000000D+00  6 1 -2 25 -24 3 -3 4 0.10558825D+00 0.15407296D-01 0.55042966D+05 0.55042966D+05 0.55042966D+05 0.11881708D+01  1  2 12  8  6  5       21 0.145337284969D-01 0.100000000000D+01
0.871500492218D-04 0.000000000000D+00 0.000000000000D+00 0.264830387022D-04 0.000000000000D+00  6 1 -2 25 -24 4 -4 4 0.10558825D+00 0.15407296D-01 0.55042966D+05 0.55042966D+05 0.55042966D+05 0.11881708D+01  1  2 12  8  6  5       21 0.145337284969D-01 0.100000000000D+01
-.696420218882D-04 0.000000000000D+00 0.000000000000D+00 0.266415635732D-04 0.000000000000D+00  6 1 -2 25 -24 3 -3 4 0.10558825D+00 0.15407296D-01 0.50655895D+05 0.50655895D+05 0.50655895D+05 0.11917216D+01  1  2  5  8  6  5       21 -.117541110447D-01 0.100000000000D+01
-.696420218882D-04 0.000000000000D+00 0.000000000000D+00 0.266415635732D-04 0.000000000000D+00  6 1 -2 25 -24 4 -4 4 0.10558825D+00 0.15407296D-01 0.50655895D+05 0.50655895D+05 0.50655895D+05 0.11917216D+01  1  2  5  8  6  5       21 -.117541110447D-01 0.100000000000D+01
  </mgrwgt>
  </event>
  <event>
  5     66 0.44337718E-03 0.42998682E+02 0.75467711E-02 0.11576356E+00
        3 -1    0    0  502    0 0.00000000E+00 0.00000000E+00 0.15996111E+04 0.15996112E+04 0.50000000E+00 0.0000E+00 0.9000E+01
       -4 -1    0    0    0  501 0.00000000E+00 0.00000000E+00 -.27521113E+02 0.27564727E+02 0.15500000E+01 0.0000E+00 0.9000E+01
       25  1    1    2    0    0 -.13314067E+03 0.62516540E+02 0.64335339E+03 0.67168693E+03 0.12500000E+03 0.0000E+00 0.9000E+01
      -24  1    1    2    0    0 0.92369946E+02 -.76170368E+02 0.87430010E+03 0.88611625E+03 0.80419002E+02 0.0000E+00 0.9000E+01
       21  1    1    2  502  501 0.40770722E+02 0.13653829E+02 0.54436490E+02 0.69372709E+02 0.75000000E+00 0.0000E+00 0.9000E+01
#aMCatNLO 1  0  0  5  1 0.97825699D+01 0.00000000D+00  -5  6  0 0.00000000D+00 0.00000000D+00 0.00000000D+00 0.00000000D+00 0.00000000D+00
  <mgrwgt>
 0.4749122093D-02   25    2    0
 0.209901462531443D+03 0.000000000000000D+00 0.000000000000000D+00 0.209901462531443D+03
 0.209901462531443D+03 -.000000000000000D+00 -.000000000000000D+00 -.209901462531443D+03
 0.194242591965326D+03 -.133141922417950D+03 0.625161195147887D+02 -.216828925439747D+02
 0.160524438656863D+03 0.923689088203412D+02 -.761707156242631D+02 0.704761393406137D+02
 0.650358944406962D+02 0.407730135976085D+02 0.136545961094744D+02 -.487932467966391D+02
 0.000000000000000D+00 0.000000000000000D+00 0.000000000000000D+00 -.000000000000000D+00
 0.209901462531443D+03 0.000000000000000D+00 0.000000000000000D+00 0.209901462531443D+03
 0.209901462531443D+03 -.000000000000000D+00 -.000000000000000D+00 -.209901462531443D+03
 0.193799572362761D+03 -.132130338351461D+03 0.628548919193750D+02 -.228934596975060D+02
 0.160438855281826D+03 0.932056255071437D+02 -.758905050779175D+02 0.694748367584467D+02
 0.212710221918155D+02 0.121902875416507D+02 0.133007591552329D+02 -.112669019979349D+02
 0.442934752264831D+02 0.267344253026663D+02 -.265145996690421D+00 -.353144750630058D+02
0.300618882842D-03 0.000000000000D+00 0.000000000000D+00 0.932692352293D-05 0.000000000000D+00  6 3 -4 25 -24 21 21 2 0.24609737D+00 0.42373783D-02 0.36148184D+05 0.36148184D+05 0.36148184D+05 0.12064915D+01  1  2  2  3  6  5       21 0.249390510432D-02 0.100000000000D+01
0.244711823777D-04 0.158640942890D-04 -.115445566488D-05 0.932692352293D-05 0.000000000000D+00  6 3 -4 25 -24 21 21 4 0.24609737D+00 0.42373783D-02 0.36148184D+05 0.36148184D+05 0.36148184D+05 0.12064915D+01  1  2  3  3  6  5       21 0.295506594973D-03 0.100000000000D+01
0.114386737973D-04 0.000000000000D+00 0.000000000000D+00 0.932692352293D-05 0.000000000000D+00  6 3 -4 25 -24 21 21 4 0.24609737D+00 0.42373783D-02 0.36148184D+05 0.36148184D+05 0.36148184D+05 0.12064915D+01  1  2 15  3  6  5       21 0.138129964163D-03 0.100000000000D+01
0.124305519606D-03 0.000000000000D+00 0.000000000000D+00 0.932119545705D-05 0.000000000000D+00  6 3 -4 25 -24 21 21 4 0.24609737D+00 0.42373783D-02 0.36449807D+05 0.36449807D+05 0.36449807D+05 0.12061210D+01  1  2 12  3  6  5       21 0.149974870479D-02 0.100000000000D+01
0.113862134939D-03 0.000000000000D+00 0.000000000000D+00 0.932119545705D-05 0.000000000000D+00  6 3 -4 25 -24 21 21 4 0.24609737D+00 0.42373783D-02 0.36449807D+05 0.36449807D+05 0.36449807D+05 0.12061210D+01  1  2 12  3  6  5       21 0.137374904945D-02 0.100000000000D+01
-.716140703448D-03 0.000000000000D+00 0.000000000000D+00 0.932692352293D-05 0.000000000000D+00  6 3 -4 25 -24 21 21 4 0.24609737D+00 0.42373783D-02 0.36148184D+05 0.36148184D+05 0.36148184D+05 0.12064915D+01  1  2  4  3  6  5       21 -.864789847631D-02 0.100000000000D+01
-.212193567369D-03 0.000000000000D+00 0.000000000000D+00 0.932692352293D-05 0.000000000000D+00  6 3 -4 25 -24 21 21 4 0.24609737D+00 0.42373783D-02 0.36148184D+05 0.36148184D+05 0.36148184D+05 0.12064915D+01  1  2  5  3  6  5       21 -.256238532331D-02 0.100000000000D+01
0.877662571183D-03 0.000000000000D+00 -.000000000000D+00 0.932692352293D-05 0.000000000000D+00  6 3 -4 25 -24 21 21 4 0.24609737D+00 0.42373783D-02 0.36148184D+05 0.36148184D+05 0.36148184D+05 0.12064915D+01  1  2  6  3  6  5       21 0.105983876849D-01 0.100000000000D+01
0.623679616659D-10 0.000000000000D+00 0.000000000000D+00 0.932692352293D-05 0.487247167843D-06  6 3 -4 25 -24 21 21 4 0.24609737D+00 0.42373783D-02 0.36449807D+05 0.36449807D+05 0.36449807D+05 0.12061210D+01  1  2 11  3  6  5       21 0.752470767390D-09 0.100000000000D+01
0.113431355465D-04 0.000000000000D+00 0.000000000000D+00 0.932119545705D-05 0.000000000000D+00  6 3 -4 25 -24 3 -3 4 0.24609737D+00 0.42373783D-02 0.36449807D+05 0.36449807D+05 0.36449807D+05 0.12061210D+01  1  2 12  6  6  5       21 0.136855168604D-03 0.100000000000D+01
0.105343642742D-04 0.000000000000D+00 0.000000000000D+00 0.932119545705D-05 0.000000000000D+00  6 3 -4 25 -24 3 -3 4 0.24609737D+00 0.42373783D-02 0.36449807D+05 0.36449807D+05 0.36449807D+05 0.12061210D+01  1  2 12  6  6  5       21 0.127097326218D-03 0.100000000000D+01
-.309678247340D-04 0.000000000000D+00 0.000000000000D+00 0.932692352293D-05 0.000000000000D+00  6 3 -4 25 -24 3 -3 4 0.24609737D+00 0.42373783D-02 0.36148184D+05 0.36148184D+05 0.36148184D+05 0.12064915D+01  1  2  5  6  6  5       21 -.373958082598D-03 0.100000000000D+01
0.802794976421D-11 0.000000000000D+00 0.000000000000D+00 0.932692352293D-05 0.212735494096D-07  6 3 -4 25 -24 3 -3 4 0.24609737D+00 0.42373783D-02 0.36449807D+05 0.36449807D+05 0.36449807D+05 0.12061210D+01  1  2 11  6  6  5       21 0.968573825133D-10 0.100000000000D+01
0.113431355465D-04 0.000000000000D+00 0.000000000000D+00 0.932119545705D-05 0.000000000000D+00  6 3 -4 25 -24 4 -4 4 0.24609737D+00 0.42373783D-02 0.36449807D+05 0.36449807D+05 0.36449807D+05 0.12061210D+01  1  2 12  7  6  5       21 0.136855168604D-03 0.100000000000D+01
0.105343642742D-04 0.000000000000D+00 0.000000000000D+00 0.932119545705D-05 0.000000000000D+00  6 3 -4 25 -24 4 -4 4 0.24609737D+00 0.42373783D-02 0.36449807D+05 0.36449807D+05 0.36449807D+05 0.12061210D+01  1  2 12  7  6  5       21 0.127097326218D-03 0.100000000000D+01
-.309678247340D-04 0.000000000000D+00 0.000000000000D+00 0.932692352293D-05 0.000000000000D+00  6 3 -4 25 -24 4 -4 4 0.24609737D+00 0.42373783D-02 0.36148184D+05 0.36148184D+05 0.36148184D+05 0.12064915D+01  1  2  5  7  6  5       21 -.373958082598D-03 0.100000000000D+01
0.810398396809D-11 0.000000000000D+00 0.000000000000D+00 0.932692352293D-05 0.222125658354D-07  6 3 -4 25 -24 4 -4 4 0.24609737D+00 0.42373783D-02 0.36449807D+05 0.36449807D+05 0.36449807D+05 0.12061210D+01  1  2 11  7  6  5       21 0.977747367800D-10 0.100000000000D+01
0.113431355465D-04 0.000000000000D+00 0.000000000000D+00 0.932119545705D-05 0.000000000000D+00  6 3 -4 25 -24 1 -1 4 0.24609737D+00 0.42373783D-02 0.36449807D+05 0.36449807D+05 0.36449807D+05 0.12061210D+01  1  2 12  8  6  5       21 0.136855168604D-03 0.100000000000D+01
0.113431355465D-04 0.000000000000D+00 0.000000000000D+00 0.932119545705D-05 0.000000000000D+00  6 3 -4 25 -24 2 -2 4 0.24609737D+00 0.42373783D-02 0.36449807D+05 0.36449807D+05 0.36449807D+05 0.12061210D+01  1  2 12  8  6  5       21 0.136855168604D-03 0.100000000000D+01
0.105343642742D-04 0.000000000000D+00 0.000000000000D+00 0.932119545705D-05 0.000000000000D+00  6 3 -4 25 -24 1 -1 4 0.24609737D+00 0.42373783D-02 0.36449807D+05 0.36449807D+05 0.36449807D+05 0.12061210D+01  1  2 12  8  6  5       21 0.127097326218D-03 0.100000000000D+01
0.105343642742D-04 0.000000000000D+00 0.000000000000D+00 0.932119545705D-05 0.000000000000D+00  6 3 -4 25 -24 2 -2 4 0.24609737D+00 0.42373783D-02 0.36449807D+05 0.36449807D+05 0.36449807D+05 0.12061210D+01  1  2 12  8  6  5       21 0.127097326218D-03 0.100000000000D+01
-.309678247340D-04 0.000000000000D+00 0.000000000000D+00 0.932692352293D-05 0.000000000000D+00  6 3 -4 25 -24 1 -1 4 0.24609737D+00 0.42373783D-02 0.36148184D+05 0.36148184D+05 0.36148184D+05 0.12064915D+01  1  2  5  8  6  5       21 -.373958082598D-03 0.100000000000D+01
-.309678247340D-04 0.000000000000D+00 0.000000000000D+00 0.932692352293D-05 0.000000000000D+00  6 3 -4 25 -24 2 -2 4 0.24609737D+00 0.42373783D-02 0.36148184D+05 0.36148184D+05 0.36148184D+05 0.12064915D+01  1  2  5  8  6  5       21 -.373958082598D-03 0.100000000000D+01
0.804773397268D-11 0.000000000000D+00 0.000000000000D+00 0.932692352293D-05 0.212018032118D-07  6 3 -4 25 -24 1 -1 4 0.24609737D+00 0.42373783D-02 0.36449807D+05 0.36449807D+05 0.36449807D+05 0.12061210D+01  1  2 11  8  6  5       21 0.970960794040D-10 0.100000000000D+01
0.804773397268D-11 0.000000000000D+00 0.000000000000D+00 0.932692352293D-05 0.212018032118D-07  6 3 -4 25 -24 2 -2 4 0.24609737D+00 0.42373783D-02 0.36449807D+05 0.36449807D+05 0.36449807D+05 0.12061210D+01  1  2 11  8  6  5       21 0.970960794040D-10 0.100000000000D+01
  </mgrwgt>
  </event>
  <event>
  6     66 0.44337718E-03 0.16499681E+03 0.75467711E-02 0.10735896E+00
        1 -1    0    0  502    0 0.00000000E+00 0.00000000E+00 0.21560684E+04 0.21560684E+04 0.32000000E+00 0.0000E+00 0.9000E+01
       21 -1    0    0  503  501 0.00000000E+00 0.00000000E+00 -.11995951E+03 0.11996185E+03 0.75000000E+00 0.0000E+00 0.9000E+01
       25  1    1    2    0    0 -.60978496E+02 0.39069324E+02 0.38772004E+03 0.41375913E+03 0.12500000E+03 0.0000E+00 0.9000E+01
      -24  1    1    2    0    0 0.16458065E+02 0.37846707E+02 0.21055931E+03 0.22914118E+03 0.80419002E+02 0.0000E+00 0.9000E+01
        2  1    1    2  503    0 -.14118057E+03 0.87543836E+02 -.78669886E+01 0.16630655E+03 0.32000000E+00 0.0000E+00 0.9000E+01
       21  1    1    2  502  501 0.18570100E+03 -.16445987E+03 0.14456965E+04 0.14668234E+04 0.75000000E+00 0.0000E+00 0.9000E+01
#aMCatNLO 2  0  0  2  5 0.16612006D+03 0.00000000D+00  -5  6  0 0.00000000D+00 0.00000000D+00 0.00000000D+00 0.00000000D+00 0.00000000D+00
  <mgrwgt>
 0.1915111972D-01    2    2    0
 0.247740245794826D+03 0.000000000000000D+00 0.000000000000000D+00 0.247740245794826D+03
 0.247740245794826D+03 0.000000000000000D+00 0.000000000000000D+00 -.247740245794826D+03
 0.186599657876151D+03 -.108197845097194D+03 0.683494262257642D+02 -.530661339314380D+02
 0.109058200006368D+03 -.127423092805354D+02 0.559534735356646D+02 -.461878489188573D+02
 0.000000000000000D+00 -.000000000000000D+00 0.000000000000000D+00 -.000000000000000D+00
 0.199822633707134D+03 0.120940154377729D+03 -.124302899761429D+03 0.992539828502952D+02
 0.271260108651434D+03 0.000000000000000D+00 0.000000000000000D+00 0.271260108651434D+03
 0.953488973665059D+03 0.000000000000000D+00 0.000000000000000D+00 -.953488973665059D+03
 0.153902090900782D+03 -.609787291325014D+02 0.390695995191682D+02 -.530661339314380D+02
 0.101507548110800D+03 0.164579180729231D+02 0.378468745611777D+02 -.461878489188573D+02
 0.702162445426714D+03 -.141180566538012D+03 0.875438355445503D+02 -.682228865013624D+03
 0.267176997878198D+03 0.185701377597591D+03 -.164460309624896D+03 0.992539828502952D+02
-.131589272964D-04 0.000000000000D+00 0.000000000000D+00 0.148271804968D-05 0.000000000000D+00  6 1 21 25 -24 2 21 4 0.30294235D+00 0.18093031D-01 0.10531047D+06 0.10531047D+06 0.10531047D+06 0.11615130D+01  1  2 13  5  5  2       -2 -.252094031683D-02 0.100000000000D+01
0.155587980487D-03 0.000000000000D+00 0.000000000000D+00 0.156035605092D-05 0.254968176810D-09  6 1 21 25 -24 2 21 4 0.33170296D+00 0.18455488D-01 0.10531047D+06 0.10531047D+06 0.10531047D+06 0.11615130D+01  1  2  1  5  5  2       -2 0.216720600388D-01 0.100000000000D+01
  </mgrwgt>
  </event>
  <event>
  5     66 0.44337718E-03 0.88024119E+02 0.75467711E-02 0.11761075E+00
        1 -1    0    0  502    0 0.00000000E+00 0.00000000E+00 0.14814106E+04 0.14814106E+04 0.32000000E+00 0.0000E+00 0.9000E+01
       -2 -1    0    0    0  501 0.00000000E+00 0.00000000E+00 -.28345741E+02 0.28347547E+02 0.32000000E+00 0.0000E+00 0.9000E+01
       25  1    1    2    0    0 0.22073478E+02 0.91604399E+01 0.28109550E+03 0.30856252E+03 0.12500000E+03 0.0000E+00 0.9000E+01
      -24  1    1    2    0    0 -.78565291E+02 0.58343350E+02 0.31197079E+03 0.33670379E+03 0.80419002E+02 0.0000E+00 0.9000E+01
       21  1    1    2  502  501 0.56491813E+02 -.67503790E+02 0.85999859E+03 0.86449188E+03 0.75000000E+00 0.0000E+00 0.9000E+01
#aMCatNLO 1  0  0  1  2 0.15562603D+01 0.00000000D+00  -5  6  0 0.00000000D+00 0.00000000D+00 0.00000000D+00 0.00000000D+00 0.00000000D+00
  <mgrwgt>
 0.1801479507D+00    9    4    0
 0.204922108995956D+03 0.000000000000000D+00 0.000000000000000D+00 0.204922108995956D+03
 0.204922108995956D+03 0.000000000000000D+00 0.000000000000000D+00 -.204922108995956D+03
 0.140065139705287D+03 0.220731822749576D+02 0.916079321920400D+01 -.584986995796748D+02
 0.134264933020347D+03 -.785655742236331D+02 0.583436891678090D+02 -.445344896208388D+02
 0.135514145266279D+03 0.564923919486755D+02 -.675044823870130D+02 0.103033189200514D+03
 0.000000000000000D+00 0.000000000000000D+00 -.000000000000000D+00 0.000000000000000D+00
 0.206233603447147D+03 0.000000000000000D+00 0.000000000000000D+00 0.206233603447147D+03
 0.205385783773064D+03 0.000000000000000D+00 0.000000000000000D+00 -.205385783773064D+03
 0.140009875037442D+03 0.216087171743653D+02 0.941969201011104D+01 -.584986995796748D+02
 0.134634347013287D+03 -.790115059368376D+02 0.585922572114113D+02 -.445344896208388D+02
 0.135202950646021D+03 0.560434456429850D+02 -.672542339709808D+02 0.103033189200514D+03
 0.177221452346015D+01 0.135934311948729D+01 -.757715250541516D+00 0.847819674083152D+00
 0.204922108995956D+03 0.000000000000000D+00 0.000000000000000D+00 0.204922108995956D+03
 0.204922108995956D+03 0.000000000000000D+00 0.000000000000000D+00 -.204922108995956D+03
 0.140065139705287D+03 0.220731822749576D+02 0.916079321920400D+01 -.584986995796748D+02
 0.134264933020347D+03 -.785655742236331D+02 0.583436891678090D+02 -.445344896208388D+02
 0.000000000000000D+00 0.000000000000000D+00 -.000000000000000D+00 0.000000000000000D+00
 0.135514145266279D+03 0.564923919486755D+02 -.675044823870130D+02 0.103033189200514D+03
 0.206233603447147D+03 0.000000000000000D+00 0.000000000000000D+00 0.206233603447147D+03
 0.205385783773064D+03 0.000000000000000D+00 0.000000000000000D+00 -.205385783773064D+03
 0.140009875037442D+03 0.216087171743653D+02 0.941969201011104D+01 -.584986995796748D+02
 0.134634347013287D+03 -.790115059368376D+02 0.585922572114113D+02 -.445344896208388D+02
 0.177221452346015D+01 0.135934311948729D+01 -.757715250541516D+00 0.847819674083152D+00
 0.135202950646021D+03 0.560434456429850D+02 -.672542339709808D+02 0.103033189200514D+03
0.111606540602D-03 0.000000000000D+00 0.000000000000D+00 0.423435819552D-05 0.000000000000D+00  6 1 -2 25 -24 21 21 2 0.22790947D+00 0.43610248D-02 0.29232814D+05 0.29232814D+05 0.29232814D+05 0.12160810D+01  1  2  2  1  6  1        1 0.258099350968D-01 0.100000000000D+01
-.572399835179D-05 0.588963895628D-05 -.428598502590D-06 0.423435819552D-05 0.000000000000D+00  6 1 -2 25 -24 21 21 4 0.22790947D+00 0.43610248D-02 0.29232814D+05 0.29232814D+05 0.29232814D+05 0.12160810D+01  1  2  3  1  6  1        1 -.195759005087D-02 0.100000000000D+01
0.403030959680D-05 0.000000000000D+00 0.000000000000D+00 0.423435819552D-05 0.000000000000D+00  6 1 -2 25 -24 21 21 4 0.22790947D+00 0.43610248D-02 0.29232814D+05 0.29232814D+05 0.29232814D+05 0.12160810D+01  1  2 15  1  6  1        1 0.137835364088D-02 0.100000000000D+01
-.260085360620D-02 0.000000000000D+00 0.000000000000D+00 0.423435819552D-05 0.000000000000D+00  6 1 -2 25 -24 21 21 4 0.22790947D+00 0.43610248D-02 0.29232814D+05 0.29232814D+05 0.29232814D+05 0.12160810D+01  1  2  4  1  6  1        1 -.889484033772D+00 0.100000000000D+01
-.349973643772D-01 0.000000000000D+00 -.329157002981D-02 0.423435819552D-05 0.000000000000D+00  6 1 -2 25 -24 21 21 4 0.22963317D+00 0.43610248D-02 0.29232814D+05 0.29232814D+05 0.29232814D+05 0.12160810D+01  1  2  5  1  6  1        1 -.117685569846D+02 0.100000000000D+01
0.350212646029D-01 0.000000000000D+00 0.329147659870D-02 0.423435819552D-05 0.000000000000D+00  6 1 -2 25 -24 21 21 4 0.22790947D+00 0.43610248D-02 0.29232814D+05 0.29232814D+05 0.29232814D+05 0.12160810D+01  1  2  6  1  6  1        1 0.119771661244D+02 0.100000000000D+01
0.254170186325D-02 0.000000000000D+00 0.000000000000D+00 0.423435819552D-05 0.454768732458D-04  6 1 -2 25 -24 21 21 4 0.22936808D+00 0.43708924D-02 0.29473891D+05 0.29473891D+05 0.29473891D+05 0.12157057D+01  1  2 11  1  6  1        1 0.852956826596D+00 0.100000000000D+01
-.488190141854D-04 0.000000000000D+00 -.459805180130D-05 0.423435819552D-05 0.000000000000D+00  6 21 -2 25 -24 -1 21 4 0.22963317D+00 0.43610248D-02 0.29232814D+05 0.29232814D+05 0.29232814D+05 0.12160810D+01  3  4  5  4  5  1        1 -.177799553632D-01 0.100000000000D+01
0.169175056622D-05 0.000000000000D+00 0.000000000000D+00 0.423435819552D-05 0.599617879918D-07  6 21 -2 25 -24 -1 21 4 0.22936808D+00 0.43708924D-02 0.29473891D+05 0.29473891D+05 0.29473891D+05 0.12157057D+01  3  4 11  4  5  1        1 0.615274684646D-03 0.100000000000D+01
  </mgrwgt>
  </event>
  <event>
  5     66 0.44337718E-03 0.84117142E+02 0.75467711E-02 0.10942627E+00
        3 -1    0    0  502    0 0.00000000E+00 0.00000000E+00 0.38823076E+03 0.38823108E+03 0.50000000E+00 0.0000E+00 0.9000E+01
       -4 -1    0    0    0  501 0.00000000E+00 0.00000000E+00 -.20258899E+03 0.20259492E+03 0.15500000E+01 0.0000E+00 0.9000E+01
       25  1    1    2    0    0 0.26745305E+02 -.79854711E+02 0.29645753E+03 0.33257203E+03 0.12500000E+03 0.0000E+00 0.9000E+01
      -24  1    1    2    0    0 0.51488945E+02 0.48951135E+02 0.13500318E+02 0.10815174E+03 0.80419002E+02 0.0000E+00 0.9000E+01
       21  1    1    2  502  501 -.78234250E+02 0.30903577E+02 -.12431608E+03 0.15010223E+03 0.75000000E+00 0.0000E+00 0.9000E+01
#aMCatNLO 1  0  0  2  2 0.21436111D+03 0.00000000D+00  -5  6  0 0.00000000D+00 0.00000000D+00 0.00000000D+00 0.00000000D+00 0.00000000D+00
  <mgrwgt>
 0.3521517212D-02    3    2    0
 0.280451643176994D+03 0.000000000000000D+00 0.000000000000000D+00 0.280451643176994D+03
 0.280451643176994D+03 0.000000000000000D+00 0.000000000000000D+00 -.280451643176994D+03
 0.252196047333132D+03 0.267455546069151D+02 -.798548095127391D+02 0.202202203244446D+03
 0.109453145593027D+03 0.514890528828463D+02 0.489510918543301D+02 -.215741318558651D+02
 0.199254093427828D+03 -.782346074897614D+02 0.309037176584090D+02 -.180628071388580D+03
 0.000000000000000D+00 -.000000000000000D+00 0.000000000000000D+00 0.000000000000000D+00
 0.960296450530996D+03 0.000000000000000D+00 0.000000000000000D+00 0.960296450530996D+03
 0.317638498782969D+03 0.000000000000000D+00 0.000000000000000D+00 -.317638498782969D+03
 0.287575706157413D+03 0.123151758976499D+03 -.104989047219320D+03 0.202202203244446D+03
 0.131495512159658D+03 0.945238085766514D+02 0.377314220589493D+02 -.215741318558651D+02
 0.181397917142331D+03 -.102480644974506D+02 0.131788218014309D+02 -.180628071388580D+03
 0.677465813854564D+03 -.207427503055700D+03 0.540788033589400D+02 0.642657951748026D+03
0.426168959077D-03 0.000000000000D+00 0.000000000000D+00 0.336215489703D-05 0.000000000000D+00  6 3 -4 25 -24 21 21 2 0.59728290D-01 0.31168018D-01 0.29265797D+05 0.29265797D+05 0.29265797D+05 0.12160294D+01  1  2  2  2  6  2       -4 0.355104774529D-02 0.100000000000D+01
-.135939727388D-04 0.224895538361D-04 -.163660101572D-05 0.336215489703D-05 0.000000000000D+00  6 3 -4 25 -24 21 21 4 0.59728290D-01 0.31168018D-01 0.29265797D+05 0.29265797D+05 0.29265797D+05 0.12160294D+01  1  2  3  2  6  2       -4 -.167497857020D-03 0.100000000000D+01
0.111973016778D-04 0.000000000000D+00 0.000000000000D+00 0.336215489703D-05 0.000000000000D+00  6 3 -4 25 -24 21 21 4 0.59728290D-01 0.31168018D-01 0.29265797D+05 0.29265797D+05 0.29265797D+05 0.12160294D+01  1  2 15  2  6  2       -4 0.137967323568D-03 0.100000000000D+01
  </mgrwgt>
  </event>
  <event>
  5     66 -.44337718E-03 0.36562741E+02 0.75467711E-02 0.12265917E+00
        1 -1    0    0  502    0 0.00000000E+00 0.00000000E+00 0.15962005E+04 0.15962005E+04 0.32000000E+00 0.0000E+00 0.9000E+01
       -2 -1    0    0    0  501 0.00000000E+00 0.00000000E+00 -.12456007E+02 0.12460117E+02 0.32000000E+00 0.0000E+00 0.9000E+01
       25  1    1    2    0    0 0.13135239E+02 0.17279462E+02 0.10715488E+04 0.10790334E+04 0.12500000E+03 0.0000E+00 0.9000E+01
      -24  1    1    2    0    0 -.14009489E+02 -.54021370E+02 0.38190661E+03 0.39425176E+03 0.80419002E+02 0.0000E+00 0.9000E+01
       21  1    1    2  502  501 0.87424946E+00 0.36741907E+02 0.13028905E+03 0.13537552E+03 0.75000000E+00 0.0000E+00 0.9000E+01
#aMCatNLO 1  0  0  5  2 0.25822953D+01 0.00000000D+00  -5  6  0 0.00000000D+00 0.00000000D+00 0.00000000D+00 0.00000000D+00 0.00000000D+00
  <mgrwgt>
 -.2251501400D+00   25    2    0
 0.141016365799281D+03 0.000000000000000D+00 0.000000000000000D+00 0.141016365799281D+03
 0.141016365799281D+03 -.000000000000000D+00 -.000000000000000D+00 -.141016365799281D+03
 0.137356403819139D+03 0.131351662372148D+02 0.172763965609454D+02 0.526381534622575D+02
 0.104154707331237D+03 -.140095439574719D+02 -.540236942721893D+02 -.355831454508146D+02
 0.405216204481861D+02 0.874377720257136D+00 0.367472977112439D+02 -.170550080114428D+02
 0.000000000000000D+00 0.000000000000000D+00 0.000000000000000D+00 -.000000000000000D+00
 0.141016365799281D+03 0.000000000000000D+00 0.000000000000000D+00 0.141016365799281D+03
 0.141016365799281D+03 -.000000000000000D+00 -.000000000000000D+00 -.141016365799281D+03
 0.137347820120223D+03 0.131393316348286D+02 0.174514548940392D+02 0.525569060928088D+02
 0.104106579270435D+03 -.140063860480163D+02 -.538909774425838D+02 -.356447414519672D+02
 0.284794947503368D+02 0.270935373179492D+00 0.268046866580735D+02 -.961857517621600D+01
 0.120988374575687D+02 0.596119040008172D+00 0.963483589047106D+01 -.729358946462565D+01
0.588764444787D-04 0.000000000000D+00 0.000000000000D+00 0.157212815757D-04 0.000000000000D+00  6 1 -2 25 -24 21 21 2 0.24556962D+00 0.19166273D-02 0.17097608D+05 0.17097608D+05 0.17097608D+05 0.12413939D+01  1  2  2  3  6  5       21 0.399813195357D-01 0.100000000000D+01
0.310930853574D-05 0.310699533502D-05 -.226101049322D-06 0.157212815757D-04 0.000000000000D+00  6 1 -2 25 -24 21 21 4 0.24556962D+00 0.19166273D-02 0.17097608D+05 0.17097608D+05 0.17097608D+05 0.12413939D+01  1  2  3  3  6  5       21 0.325385766504D-02 0.100000000000D+01
0.284474595217D-05 0.000000000000D+00 0.000000000000D+00 0.157212815757D-04 0.000000000000D+00  6 1 -2 25 -24 21 21 4 0.24556962D+00 0.19166273D-02 0.17097608D+05 0.17097608D+05 0.17097608D+05 0.12413939D+01  1  2 15  3  6  5       21 0.297699579027D-02 0.100000000000D+01
0.359626330192D-05 0.000000000000D+00 0.000000000000D+00 0.157245654892D-04 0.000000000000D+00  6 1 -2 25 -24 21 21 4 0.24556962D+00 0.19166273D-02 0.17052183D+05 0.17052183D+05 0.17052183D+05 0.12415235D+01  1  2 12  3  6  5       21 0.376489277304D-02 0.100000000000D+01
0.358002984030D-05 0.000000000000D+00 0.000000000000D+00 0.157245654892D-04 0.000000000000D+00  6 1 -2 25 -24 21 21 4 0.24556962D+00 0.19166273D-02 0.17052183D+05 0.17052183D+05 0.17052183D+05 0.12415235D+01  1  2 12  3  6  5       21 0.374789812132D-02 0.100000000000D+01
-.224874039136D-02 0.000000000000D+00 0.000000000000D+00 0.157212815757D-04 0.000000000000D+00  6 1 -2 25 -24 21 21 4 0.24556962D+00 0.19166273D-02 0.17097608D+05 0.17097608D+05 0.17097608D+05 0.12413939D+01  1  2  4  3  6  5       21 -.235328243401D+01 0.100000000000D+01
-.121179408554D-02 0.000000000000D+00 0.000000000000D+00 0.157212815757D-04 0.000000000000D+00  6 1 -2 25 -24 21 21 4 0.24556962D+00 0.19166273D-02 0.17097608D+05 0.17097608D+05 0.17097608D+05 0.12413939D+01  1  2  5  3  6  5       21 -.126812936971D+01 0.100000000000D+01
0.174842497445D-02 0.000000000000D+00 -.000000000000D+00 0.157212815757D-04 0.000000000000D+00  6 1 -2 25 -24 21 21 4 0.24556962D+00 0.19166273D-02 0.17097608D+05 0.17097608D+05 0.17097608D+05 0.12413939D+01  1  2  6  3  6  5       21 0.182970777568D+01 0.100000000000D+01
0.143873875232D-02 0.000000000000D+00 0.000000000000D+00 0.157212815757D-04 0.172856177580D-04  6 1 -2 25 -24 21 21 4 0.24556962D+00 0.19166273D-02 0.17052183D+05 0.17052183D+05 0.17052183D+05 0.12415235D+01  1  2 11  3  6  5       21 0.150620148642D+01 0.100000000000D+01
0.426245940518D-07 0.000000000000D+00 0.000000000000D+00 0.157245654892D-04 0.000000000000D+00  6 1 -2 25 -24 1 -1 4 0.24556962D+00 0.19166273D-02 0.17052183D+05 0.17052183D+05 0.17052183D+05 0.12415235D+01  1  2 12  6  6  5       21 0.446232693846D-04 0.100000000000D+01
0.424182339997D-07 0.000000000000D+00 0.000000000000D+00 0.157245654892D-04 0.000000000000D+00  6 1 -2 25 -24 1 -1 4 0.24556962D+00 0.19166273D-02 0.17052183D+05 0.17052183D+05 0.17052183D+05 0.12415235D+01  1  2 12  6  6  5       21 0.444072330704D-04 0.100000000000D+01
-.735184640683D-05 0.000000000000D+00 0.000000000000D+00 0.157212815757D-04 0.000000000000D+00  6 1 -2 25 -24 1 -1 4 0.24556962D+00 0.19166273D-02 0.17097608D+05 0.17097608D+05 0.17097608D+05 0.12413939D+01  1  2  5  6  6  5       21 -.769362754067D-02 0.100000000000D+01
0.893480154243D-05 0.000000000000D+00 0.000000000000D+00 0.157212815757D-04 0.182126946629D-06  6 1 -2 25 -24 1 -1 4 0.24556962D+00 0.19166273D-02 0.17052183D+05 0.17052183D+05 0.17052183D+05 0.12415235D+01  1  2 11  6  6  5       21 0.935375608837D-02 0.100000000000D+01
0.426245940518D-07 0.000000000000D+00 0.000000000000D+00 0.157245654892D-04 0.000000000000D+00  6 1 -2 25 -24 2 -2 4 0.24556962D+00 0.19166273D-02 0.17052183D+05 0.17052183D+05 0.17052183D+05 0.12415235D+01  1  2 12  7  6  5       21 0.446232693846D-04 0.100000000000D+01
0.424182339997D-07 0.000000000000D+00 0.000000000000D+00 0.157245654892D-04 0.000000000000D+00  6 1 -2 25 -24 2 -2 4 0.24556962D+00 0.19166273D-02 0.17052183D+05 0.17052183D+05 0.17052183D+05 0.12415235D+01  1  2 12  7  6  5       21 0.444072330704D-04 0.100000000000D+01
-.735184640683D-05 0.000000000000D+00 0.000000000000D+00 0.157212815757D-04 0.000000000000D+00  6 1 -2 25 -24 2 -2 4 0.24556962D+00 0.19166273D-02 0.17097608D+05 0.17097608D+05 0.17097608D+05 0.12413939D+01  1  2  5  7  6  5       21 -.769362754067D-02 0.100000000000D+01
0.866945221591D-05 0.000000000000D+00 0.000000000000D+00 0.157212815757D-04 0.177330119565D-06  6 1 -2 25 -24 2 -2 4 0.24556962D+00 0.19166273D-02 0.17052183D+05 0.17052183D+05 0.17052183D+05 0.12415235D+01  1  2 11  7  6  5       21 0.907596448140D-02 0.100000000000D+01
0.426245940518D-07 0.000000000000D+00 0.000000000000D+00 0.157245654892D-04 0.000000000000D+00  6 1 -2 25 -24 3 -3 4 0.24556962D+00 0.19166273D-02 0.17052183D+05 0.17052183D+05 0.17052183D+05 0.12415235D+01  1  2 12  8  6  5       21 0.446232693846D-04 0.100000000000D+01
0.426245940518D-07 0.000000000000D+00 0.000000000000D+00 0.157245654892D-04 0.000000000000D+00  6 1 -2 25 -24 4 -4 4 0.24556962D+00 0.19166273D-02 0.17052183D+05 0.17052183D+05 0.17052183D+05 0.12415235D+01  1  2 12  8  6  5       21 0.446232693846D-04 0.100000000000D+01
0.424182339997D-07 0.000000000000D+00 0.000000000000D+00 0.157245654892D-04 0.000000000000D+00  6 1 -2 25 -24 3 -3 4 0.24556962D+00 0.19166273D-02 0.17052183D+05 0.17052183D+05 0.17052183D+05 0.12415235D+01  1  2 12  8  6  5       21 0.444072330704D-04 0.100000000000D+01
0.424182339997D-07 0.000000000000D+00 0.000000000000D+00 0.157245654892D-04 0.000000000000D+00  6 1 -2 25 -24 4 -4 4 0.24556962D+00 0.19166273D-02 0.17052183D+05 0.17052183D+05 0.17052183D+05 0.12415235D+01  1  2 12  8  6  5       21 0.444072330704D-04 0.100000000000D+01
-.735184640683D-05 0.000000000000D+00 0.000000000000D+00 0.157212815757D-04 0.000000000000D+00  6 1 -2 25 -24 3 -3 4 0.24556962D+00 0.19166273D-02 0.17097608D+05 0.17097608D+05 0.17097608D+05 0.12413939D+01  1  2  5  8  6  5       21 -.769362754067D-02 0.100000000000D+01
-.735184640683D-05 0.000000000000D+00 0.000000000000D+00 0.157212815757D-04 0.000000000000D+00  6 1 -2 25 -24 4 -4 4 0.24556962D+00 0.19166273D-02 0.17097608D+05 0.17097608D+05 0.17097608D+05 0.12413939D+01  1  2  5  8  6  5       21 -.769362754067D-02 0.100000000000D+01
0.889114517595D-05 0.000000000000D+00 0.000000000000D+00 0.157212815757D-04 0.181207619633D-06  6 1 -2 25 -24 3 -3 4 0.24556962D+00 0.19166273D-02 0.17052183D+05 0.17052183D+05 0.17052183D+05 0.12415235D+01  1  2 11  8  6  5       21 0.930805266655D-02 0.100000000000D+01
0.889114517595D-05 0.000000000000D+00 0.000000000000D+00 0.157212815757D-04 0.181207619633D-06  6 1 -2 25 -24 4 -4 4 0.24556962D+00 0.19166273D-02 0.17052183D+05 0.17052183D+05 0.17052183D+05 0.12415235D+01  1  2 11  8  6  5       21 0.930805266655D-02 0.100000000000D+01
  </mgrwgt>
  </event>
  <event>
  5     66 0.44337718E-03 0.23020739E+02 0.75467711E-02 0.11542444E+00
        3 -1    0    0  502    0 0.00000000E+00 0.00000000E+00 0.14941634E+03 0.14941717E+03 0.50000000E+00 0.0000E+00 0.9000E+01
       -4 -1    0    0    0  501 0.00000000E+00 0.00000000E+00 -.24441141E+03 0.24441633E+03 0.15500000E+01 0.0000E+00 0.9000E+01
       25  1    1    2    0    0 0.49613370E+01 -.15334965E+03 -.61307912E+02 0.20718202E+03 0.12500000E+03 0.0000E+00 0.9000E+01
      -24  1    1    2    0    0 -.18586872E+02 0.13480678E+03 -.18677316E+02 0.15916783E+03 0.80419002E+02 0.0000E+00 0.9000E+01
       21  1    1    2  502  501 0.13625535E+02 0.18542866E+02 -.15009846E+02 0.27483651E+02 0.75000000E+00 0.0000E+00 0.9000E+01
#aMCatNLO 1  0  0  2  1 0.10393703D+02 0.00000000D+00  -5  6  0 0.00000000D+00 0.00000000D+00 0.00000000D+00 0.00000000D+00 0.00000000D+00
  <mgrwgt>
 0.4091302951D-01    4    2    0
 0.191102563828049D+03 0.000000000000000D+00 0.000000000000000D+00 0.191102563828049D+03
 0.191102563828049D+03 0.000000000000000D+00 0.000000000000000D+00 -.191102563828049D+03
 0.198250910268864D+03 0.495804712010344D+01 -.153354122548801D+03 -.116770839028932D+02
 0.159365746807837D+03 -.185895162245293D+02 0.134803180374339D+03 0.203164403562838D+02
 0.245884705793974D+02 0.136314691044259D+02 0.185509421744619D+02 -.863935645339066D+01
 0.000000000000000D+00 -.000000000000000D+00 0.000000000000000D+00 0.000000000000000D+00
 0.232237174240078D+03 0.000000000000000D+00 0.000000000000000D+00 0.232237174240078D+03
 0.191830900262529D+03 0.000000000000000D+00 0.000000000000000D+00 -.191830900262529D+03
 0.201390256497158D+03 0.877004705698440D+01 -.157225212348828D+03 -.116770839028932D+02
 0.156457961260374D+03 -.155770138715713D+02 0.131743981181215D+03 0.203164403562838D+02
 0.244982071915372D+02 0.140996851645447D+02 0.180754682907928D+02 -.863935645339066D+01
 0.417216495535387D+02 -.729271834995788D+01 0.740576287681993D+01 0.404062739775496D+02
0.831372170498D-03 0.000000000000D+00 0.000000000000D+00 0.327203712532D-04 0.000000000000D+00  6 3 -4 25 -24 21 21 2 0.22987571D-01 0.37602198D-01 0.35908904D+05 0.35908904D+05 0.35908904D+05 0.12067879D+01  1  2  2  2  6  2       -4 0.300923256601D-01 0.100000000000D+01
0.258188293726D-03 0.438727147720D-04 -.319268804003D-05 0.327203712532D-04 0.000000000000D+00  6 3 -4 25 -24 21 21 4 0.22987571D-01 0.37602198D-01 0.35908904D+05 0.35908904D+05 0.35908904D+05 0.12067879D+01  1  2  3  2  6  2       -4 0.136100193048D-01 0.100000000000D+01
0.895950461037D-05 0.000000000000D+00 0.000000000000D+00 0.327203712532D-04 0.000000000000D+00  6 3 -4 25 -24 21 21 4 0.22987571D-01 0.37602198D-01 0.35908904D+05 0.35908904D+05 0.35908904D+05 0.12067879D+01  1  2 15  2  6  2       -4 0.472287217011D-03 0.100000000000D+01
-.618740951186D-04 0.000000000000D+00 0.000000000000D+00 0.327203712532D-04 0.000000000000D+00  6 3 -4 25 -24 21 21 4 0.22987571D-01 0.37602198D-01 0.35908904D+05 0.35908904D+05 0.35908904D+05 0.12067879D+01  1  2  4  2  6  2       -4 -.326160267330D-02 0.100000000000D+01
  </mgrwgt>
  </event>
  <event>
  5     66 0.44337718E-03 0.21609316E+02 0.75467711E-02 0.11918514E+00
        1 -1    0    0  502    0 0.00000000E+00 0.00000000E+00 0.15772306E+02 0.15775552E+02 0.32000000E+00 0.0000E+00 0.9000E+01
       -2 -1    0    0    0  501 0.00000000E+00 0.00000000E+00 -.15517500E+04 0.15517501E+04 0.32000000E+00 0.0000E+00 0.9000E+01
       25  1    1    2    0    0 0.45788585E+02 -.68889262E+02 -.51467886E+03 0.53606125E+03 0.12500000E+03 0.0000E+00 0.9000E+01
      -24  1    1    2    0    0 -.32906687E+02 0.86224544E+02 -.89448697E+03 0.90282428E+03 0.80419002E+02 0.0000E+00 0.9000E+01
       21  1    1    2  502  501 -.12881898E+02 -.17335281E+02 -.12681190E+03 0.12864011E+03 0.75000000E+00 0.0000E+00 0.9000E+01
#aMCatNLO 1  0  0  1  5 0.19787842D+02 0.00000000D+00  -5  6  0 0.00000000D+00 0.00000000D+00 0.00000000D+00 0.00000000D+00 0.00000000D+00
  <mgrwgt>
 0.1240057249D+00    4    2    0
 0.156452056919099D+03 0.000000000000000D+00 0.000000000000000D+00 0.156452056919099D+03
 0.156452056919099D+03 0.000000000000000D+00 0.000000000000000D+00 -.156452056919099D+03
 0.159007903448847D+03 0.457924120131724D+02 -.688841125770808D+02 0.530711540828134D+02
 0.131953003606073D+03 -.329035117581992D+02 0.862288171606709D+02 -.492577832564898D+02
 0.219432067832784D+02 -.128889002549732D+02 -.173447045835901D+02 -.381337082632359D+01
 0.000000000000000D+00 0.000000000000000D+00 -.000000000000000D+00 -.000000000000000D+00
 0.162069489394625D+03 0.000000000000000D+00 0.000000000000000D+00 0.162069489394625D+03
 0.175217268217660D+03 0.000000000000000D+00 0.000000000000000D+00 -.175217268217660D+03
 0.154496833134171D+03 0.439028393216031D+02 -.591630353540761D+02 0.530711540828134D+02
 0.137966490829972D+03 -.345303851227535D+02 0.945984139903901D+02 -.492577832564898D+02
 0.210658503306519D+02 -.131481267684173D+02 -.160110903930995D+02 -.381337082632359D+01
 0.237575833174904D+02 0.377567256956771D+01 -.194242882432145D+02 -.131477788230344D+02
0.191440590088D-02 0.000000000000D+00 0.000000000000D+00 0.378671363410D-04 0.000000000000D+00  6 1 -2 25 -24 21 21 2 0.24267608D-02 0.23873103D+00 0.21596284D+05 0.21596284D+05 0.21596284D+05 0.12301714D+01  1  2  2  1  6  1        1 0.965197451757D-01 0.100000000000D+01
0.479569904261D-03 0.101025974921D-03 -.735182273402D-05 0.378671363410D-04 0.000000000000D+00  6 1 -2 25 -24 21 21 4 0.24267608D-02 0.23873103D+00 0.21596284D+05 0.21596284D+05 0.21596284D+05 0.12301714D+01  1  2  3  1  6  1        1 0.365902458188D-01 0.100000000000D+01
0.275012937676D-04 0.000000000000D+00 0.000000000000D+00 0.378671363410D-04 0.000000000000D+00  6 1 -2 25 -24 21 21 4 0.24267608D-02 0.23873103D+00 0.21596284D+05 0.21596284D+05 0.21596284D+05 0.12301714D+01  1  2 15  1  6  1        1 0.209829493125D-02 0.100000000000D+01
-.146826318953D-03 0.000000000000D+00 0.000000000000D+00 0.378671363410D-04 0.000000000000D+00  6 1 -2 25 -24 21 21 4 0.24267608D-02 0.23873103D+00 0.21596284D+05 0.21596284D+05 0.21596284D+05 0.12301714D+01  1  2  4  1  6  1        1 -.112025609935D-01 0.100000000000D+01
  </mgrwgt>
  </event>
  <event>
  5     66 0.44337718E-03 0.23422438E+02 0.75467711E-02 0.11640035E+00
        1 -1    0    0  502    0 0.00000000E+00 0.00000000E+00 0.96175342E+02 0.96175874E+02 0.32000000E+00 0.0000E+00 0.9000E+01
       -2 -1    0    0    0  501 -.00000000E+00 -.00000000E+00 -.44568263E+03 0.44568275E+03 0.32000000E+00 0.0000E+00 0.9000E+01
       25  1    1    2    0    0 -.10415052E+03 -.76285405E+02 -.19252483E+03 0.26335832E+03 0.12500000E+03 0.0000E+00 0.9000E+01
      -24  1    1    2    0    0 0.10375669E+03 0.99702302E+02 -.54872208E+02 0.17373593E+03 0.80419002E+02 0.0000E+00 0.9000E+01
       21  1    1    2  502  501 0.39383122E+00 -.23416897E+02 -.10211026E+03 0.10476437E+03 0.75000000E+00 0.0000E+00 0.9000E+01
#aMCatNLO 1  0  0  5  2 0.78118983D+01 0.00000000D+00  -5  6  0 0.00000000D+00 0.00000000D+00 0.00000000D+00 0.00000000D+00 0.00000000D+00
  <mgrwgt>
 0.2440089282D+00   20    2    0
 0.207035878478093D+03 0.000000000000000D+00 0.000000000000000D+00 0.207035878478093D+03
 0.207035878478093D+03 -.000000000000000D+00 -.000000000000000D+00 -.207035878478093D+03
 0.182127392493043D+03 -.104150541099538D+03 -.762842872852787D+02 -.296438762371828D+02
 0.181037930265886D+03 0.103756672389273D+03 0.997034132193083D+02 0.748418236530221D+02
 0.509064341972588D+02 0.393868710264732D+00 -.234191259340296D+02 -.451979474158393D+02
 0.000000000000000D+00 0.000000000000000D+00 0.000000000000000D+00 -.000000000000000D+00
 0.207035878478093D+03 0.000000000000000D+00 0.000000000000000D+00 0.207035878478093D+03
 0.207035878478093D+03 -.000000000000000D+00 -.000000000000000D+00 -.207035878478093D+03
 0.182573418169319D+03 -.104140270728844D+03 -.768949555064510D+02 -.308224407244663D+02
 0.180230949471589D+03 0.103766846113067D+03 0.990984915473397D+02 0.736743497687552D+02
 0.152993547109369D+02 0.277374672850538D+01 -.125599165897857D+02 -.828402552596252D+01
 0.359680346043417D+02 -.240032211272867D+01 -.964361945110302D+01 -.345678835183264D+02
0.739763562775D-03 0.000000000000D+00 0.000000000000D+00 0.301002956637D-04 0.000000000000D+00  6 1 -2 25 -24 21 21 2 0.14796256D-01 0.68566609D-01 0.33849526D+05 0.33849526D+05 0.33849526D+05 0.12094337D+01  1  2  2  3  6  5       21 0.713943700887D-01 0.100000000000D+01
0.149145878238D-03 0.390383957270D-04 -.284088686527D-05 0.301002956637D-04 0.000000000000D+00  6 1 -2 25 -24 21 21 4 0.14796256D-01 0.68566609D-01 0.33849526D+05 0.33849526D+05 0.33849526D+05 0.12094337D+01  1  2  3  3  6  5       21 0.210545737298D-01 0.100000000000D+01
0.108659198836D-04 0.000000000000D+00 0.000000000000D+00 0.301002956637D-04 0.000000000000D+00  6 1 -2 25 -24 21 21 4 0.14796256D-01 0.68566609D-01 0.33849526D+05 0.33849526D+05 0.33849526D+05 0.12094337D+01  1  2 15  3  6  5       21 0.153391641816D-02 0.100000000000D+01
0.233957835195D-03 0.000000000000D+00 0.000000000000D+00 0.301091439335D-04 0.000000000000D+00  6 1 -2 25 -24 21 21 4 0.14796256D-01 0.68566609D-01 0.33715968D+05 0.33715968D+05 0.33715968D+05 0.12096115D+01  1  2 12  3  6  5       21 0.330451445909D-01 0.100000000000D+01
0.188182553974D-03 0.000000000000D+00 0.000000000000D+00 0.301091439335D-04 0.000000000000D+00  6 1 -2 25 -24 21 21 4 0.14796256D-01 0.68566609D-01 0.33715968D+05 0.33715968D+05 0.33715968D+05 0.12096115D+01  1  2 12  3  6  5       21 0.265796599647D-01 0.100000000000D+01
-.106853411998D-02 0.000000000000D+00 0.000000000000D+00 0.301002956637D-04 0.000000000000D+00  6 1 -2 25 -24 21 21 4 0.14796256D-01 0.68566609D-01 0.33849526D+05 0.33849526D+05 0.33849526D+05 0.12094337D+01  1  2  4  3  6  5       21 -.150842454901D+00 0.100000000000D+01
-.436167562188D-03 0.000000000000D+00 0.000000000000D+00 0.301002956637D-04 0.000000000000D+00  6 1 -2 25 -24 21 21 4 0.14796256D-01 0.68566609D-01 0.33849526D+05 0.33849526D+05 0.33849526D+05 0.12094337D+01  1  2  5  3  6  5       21 -.615727514908D-01 0.100000000000D+01
0.204435212106D-02 0.000000000000D+00 -.000000000000D+00 0.301002956637D-04 0.000000000000D+00  6 1 -2 25 -24 21 21 4 0.14796256D-01 0.68566609D-01 0.33849526D+05 0.33849526D+05 0.33849526D+05 0.12094337D+01  1  2  6  3  6  5       21 0.288596392813D+00 0.100000000000D+01
0.251661396625D-04 0.000000000000D+00 0.000000000000D+00 0.301091439335D-04 0.000000000000D+00  6 1 -2 25 -24 1 -1 4 0.14796256D-01 0.68566609D-01 0.33715968D+05 0.33715968D+05 0.33715968D+05 0.12096115D+01  1  2 12  6  6  5       21 0.355456667331D-02 0.100000000000D+01
0.211073061813D-04 0.000000000000D+00 0.000000000000D+00 0.301091439335D-04 0.000000000000D+00  6 1 -2 25 -24 1 -1 4 0.14796256D-01 0.68566609D-01 0.33715968D+05 0.33715968D+05 0.33715968D+05 0.12096115D+01  1  2 12  6  6  5       21 0.298128072567D-02 0.100000000000D+01
-.211155180141D-04 0.000000000000D+00 0.000000000000D+00 0.301002956637D-04 0.000000000000D+00  6 1 -2 25 -24 1 -1 4 0.14796256D-01 0.68566609D-01 0.33849526D+05 0.33849526D+05 0.33849526D+05 0.12094337D+01  1  2  5  6  6  5       21 -.298082814036D-02 0.100000000000D+01
0.251661396625D-04 0.000000000000D+00 0.000000000000D+00 0.301091439335D-04 0.000000000000D+00  6 1 -2 25 -24 2 -2 4 0.14796256D-01 0.68566609D-01 0.33715968D+05 0.33715968D+05 0.33715968D+05 0.12096115D+01  1  2 12  7  6  5       21 0.355456667331D-02 0.100000000000D+01
0.211073061813D-04 0.000000000000D+00 0.000000000000D+00 0.301091439335D-04 0.000000000000D+00  6 1 -2 25 -24 2 -2 4 0.14796256D-01 0.68566609D-01 0.33715968D+05 0.33715968D+05 0.33715968D+05 0.12096115D+01  1  2 12  7  6  5       21 0.298128072567D-02 0.100000000000D+01
-.211155180141D-04 0.000000000000D+00 0.000000000000D+00 0.301002956637D-04 0.000000000000D+00  6 1 -2 25 -24 2 -2 4 0.14796256D-01 0.68566609D-01 0.33849526D+05 0.33849526D+05 0.33849526D+05 0.12094337D+01  1  2  5  7  6  5       21 -.298082814036D-02 0.100000000000D+01
0.251661396625D-04 0.000000000000D+00 0.000000000000D+00 0.301091439335D-04 0.000000000000D+00  6 1 -2 25 -24 3 -3 4 0.14796256D-01 0.68566609D-01 0.33715968D+05 0.33715968D+05 0.33715968D+05 0.12096115D+01  1  2 12  8  6  5       21 0.355456667331D-02 0.100000000000D+01
0.251661396625D-04 0.000000000000D+00 0.000000000000D+00 0.301091439335D-04 0.000000000000D+00  6 1 -2 25 -24 4 -4 4 0.14796256D-01 0.68566609D-01 0.33715968D+05 0.33715968D+05 0.33715968D+05 0.12096115D+01  1  2 12  8  6  5       21 0.355456667331D-02 0.100000000000D+01
0.211073061813D-04 0.000000000000D+00 0.000000000000D+00 0.301091439335D-04 0.000000000000D+00  6 1 -2 25 -24 3 -3 4 0.14796256D-01 0.68566609D-01 0.33715968D+05 0.33715968D+05 0.33715968D+05 0.12096115D+01  1  2 12  8  6  5       21 0.298128072567D-02 0.100000000000D+01
0.211073061813D-04 0.000000000000D+00 0.000000000000D+00 0.301091439335D-04 0.000000000000D+00  6 1 -2 25 -24 4 -4 4 0.14796256D-01 0.68566609D-01 0.33715968D+05 0.33715968D+05 0.33715968D+05 0.12096115D+01  1  2 12  8  6  5       21 0.298128072567D-02 0.100000000000D+01
-.211155180141D-04 0.000000000000D+00 0.000000000000D+00 0.301002956637D-04 0.000000000000D+00  6 1 -2 25 -24 3 -3 4 0.14796256D-01 0.68566609D-01 0.33849526D+05 0.33849526D+05 0.33849526D+05 0.12094337D+01  1  2  5  8  6  5       21 -.298082814036D-02 0.100000000000D+01
-.211155180141D-04 0.000000000000D+00 0.000000000000D+00 0.301002956637D-04 0.000000000000D+00  6 1 -2 25 -24 4 -4 4 0.14796256D-01 0.68566609D-01 0.33849526D+05 0.33849526D+05 0.33849526D+05 0.12094337D+01  1  2  5  8  6  5       21 -.298082814036D-02 0.100000000000D+01
  </mgrwgt>
  </event>
  <event>
  5     66 0.44337718E-03 0.30895940E+02 0.75467711E-02 0.10174107E+00
        1 -1    0    0  502    0 0.00000000E+00 0.00000000E+00 0.16514358E+03 0.16514389E+03 0.32000000E+00 0.0000E+00 0.9000E+01
       -2 -1    0    0    0  501 0.00000000E+00 0.00000000E+00 -.16095440E+04 0.16095441E+04 0.32000000E+00 0.0000E+00 0.9000E+01
       25  1    1    2    0    0 0.34590048E+03 0.69525233E+02 -.14015624E+03 0.39968696E+03 0.12500000E+03 0.0000E+00 0.9000E+01
      -24  1    1    2    0    0 -.37268174E+03 -.84913507E+02 -.12707786E+04 0.13294538E+04 0.80419002E+02 0.0000E+00 0.9000E+01
       21  1    1    2  502  501 0.26781262E+02 0.15388274E+02 -.33465615E+02 0.45547172E+02 0.75000000E+00 0.0000E+00 0.9000E+01
#aMCatNLO 1  0  0  2  5 0.75641235D+01 0.00000000D+00  -5  6  0 0.00000000D+00 0.00000000D+00 0.00000000D+00 0.00000000D+00 0.00000000D+00
  <mgrwgt>
 0.2025134169D+01    4    2    0
 0.515563925253175D+03 0.000000000000000D+00 0.000000000000000D+00 0.515563925253175D+03
 0.515563925253175D+03 0.000000000000000D+00 0.000000000000000D+00 -.515563925253175D+03
 0.491572807026623D+03 0.345896859118075D+03 0.695231544193834D+02 0.318654544075340D+03
 0.508041991294279D+03 -.372685476646967D+03 -.849156553496477D+02 -.324860456098997D+03
 0.315130521854483D+02 0.267886175288913D+02 0.153925009302643D+02 0.620591202365767D+01
 0.000000000000000D+00 -.000000000000000D+00 0.000000000000000D+00 0.000000000000000D+00
 0.709467376431755D+03 0.000000000000000D+00 0.000000000000000D+00 0.709467376431755D+03
 0.557234061173897D+03 0.000000000000000D+00 0.000000000000000D+00 -.557234061173897D+03
 0.532868645913492D+03 0.407970034232314D+03 0.185398626289587D+02 0.318654544075340D+03
 0.477388884945437D+03 -.312976038720326D+03 -.133957511044216D+03 -.324860456098997D+03
 0.336278376011097D+02 0.307356482227525D+02 0.121506397365918D+02 0.620591202365767D+01
 0.222816069145613D+03 -.125729643734741D+03 0.103267008678666D+03 0.152233315257858D+03
0.784358974076D+00 0.000000000000D+00 0.000000000000D+00 0.835804652147D-05 0.000000000000D+00  6 1 -2 25 -24 21 21 2 0.25406731D-01 0.24762218D+00 0.15832622D+06 0.15832622D+06 0.15832622D+06 0.11456736D+01  1  2  2  2  6  2       -2 0.122798082853D+01 0.100000000000D+01
0.385775648013D+00 0.413917602364D-01 -.301214498691D-02 0.835804652147D-05 0.000000000000D+00  6 1 -2 25 -24 21 21 4 0.25406731D-01 0.24762218D+00 0.15832622D+06 0.15832622D+06 0.15832622D+06 0.11456736D+01  1  2  3  2  6  2       -2 0.792744705855D+00 0.100000000000D+01
0.115484530880D-01 0.000000000000D+00 0.000000000000D+00 0.835804652147D-05 0.000000000000D+00  6 1 -2 25 -24 21 21 4 0.25406731D-01 0.24762218D+00 0.15832622D+06 0.15832622D+06 0.15832622D+06 0.11456736D+01  1  2 15  2  6  2       -2 0.237313451314D-01 0.100000000000D+01
-.940306633564D-02 0.000000000000D+00 0.000000000000D+00 0.835804652147D-05 0.000000000000D+00  6 1 -2 25 -24 21 21 4 0.25406731D-01 0.24762218D+00 0.15832622D+06 0.15832622D+06 0.15832622D+06 0.11456736D+01  1  2  4  2  6  2       -2 -.193227102197D-01 0.100000000000D+01
  </mgrwgt>
  </event>
  <event>
  5     66 -.44337718E-03 0.15164990E+03 0.75467711E-02 0.10805637E+00
        1 -1    0    0  502    0 0.00000000E+00 0.00000000E+00 0.88145059E+03 0.88145065E+03 0.32000000E+00 0.0000E+00 0.9000E+01
       -2 -1    0    0    0  501 0.00000000E+00 0.00000000E+00 -.10985115E+03 0.10985162E+03 0.32000000E+00 0.0000E+00 0.9000E+01
       25  1    1    2    0    0 -.15698186E+03 -.21378740E+02 0.41863542E+03 0.46473753E+03 0.12500000E+03 0.0000E+00 0.9000E+01
      -24  1    1    2    0    0 -.59496377E+02 -.10251193E+02 0.27746593E+03 0.29512618E+03 0.80419002E+02 0.0000E+00 0.9000E+01
       21  1    1    2  502  501 0.21647824E+03 0.31629933E+02 0.75498087E+02 0.23143856E+03 0.75000000E+00 0.0000E+00 0.9000E+01
#aMCatNLO 1  0  0  1  5 0.94835119D+02 0.00000000D+00  -5  6  0 0.00000000D+00 0.00000000D+00 0.00000000D+00 0.00000000D+00 0.00000000D+00
  <mgrwgt>
 -.6039993730D-02    9    4    0
 0.311172980011686D+03 0.000000000000000D+00 0.000000000000000D+00 0.311172980011686D+03
 0.311172980011686D+03 0.000000000000000D+00 0.000000000000000D+00 -.311172980011686D+03
 0.221222126240044D+03 -.156982149261574D+03 -.213787817361283D+02 0.906299158272915D+02
 0.126082277076536D+03 -.594965402417210D+02 -.102512169863823D+02 0.760565505922875D+02
 0.275041556706792D+03 0.216478689503295D+03 0.316299987225106D+02 -.166686466419579D+03
 0.000000000000000D+00 0.000000000000000D+00 0.000000000000000D+00 0.000000000000000D+00
 0.589121272501755D+03 0.000000000000000D+00 0.000000000000000D+00 0.589121272501755D+03
 0.322960345236863D+03 0.000000000000000D+00 0.000000000000000D+00 -.322960345236863D+03
 0.246483890408552D+03 -.188379940490269D+03 -.377958279305513D+02 0.906299158272915D+02
 0.136295834189521D+03 -.771103678754596D+02 -.194610056564662D+02 0.760565505922875D+02
 0.246750412747977D+03 0.181450028894767D+03 0.133144702463097D+02 -.166686466419579D+03
 0.282551480392568D+03 0.840402794709614D+02 0.439423633407078D+02 0.266160927264893D+03
 0.311172980011686D+03 0.000000000000000D+00 0.000000000000000D+00 0.311172980011686D+03
 0.311172980011686D+03 0.000000000000000D+00 0.000000000000000D+00 -.311172980011686D+03
 0.221222126240044D+03 -.156982149261574D+03 -.213787817361283D+02 0.906299158272915D+02
 0.126082277076536D+03 -.594965402417210D+02 -.102512169863823D+02 0.760565505922875D+02
 0.000000000000000D+00 0.000000000000000D+00 0.000000000000000D+00 0.000000000000000D+00
 0.275041556706792D+03 0.216478689503295D+03 0.316299987225106D+02 -.166686466419579D+03
 0.589121272501755D+03 0.000000000000000D+00 0.000000000000000D+00 0.589121272501755D+03
 0.322960345236863D+03 0.000000000000000D+00 0.000000000000000D+00 -.322960345236863D+03
 0.246483890408552D+03 -.188379940490269D+03 -.377958279305513D+02 0.906299158272915D+02
 0.136295834189521D+03 -.771103678754596D+02 -.194610056564662D+02 0.760565505922875D+02
 0.282551480392568D+03 0.840402794709614D+02 0.439423633407078D+02 0.266160927264893D+03
 0.246750412747977D+03 0.181450028894767D+03 0.133144702463097D+02 -.166686466419579D+03
0.640283022196D-04 0.000000000000D+00 0.000000000000D+00 0.159162607666D-05 0.000000000000D+00  6 1 -2 25 -24 21 21 2 0.13560782D+00 0.16900218D-01 0.67897208D+05 0.67897208D+05 0.67897208D+05 0.11793417D+01  1  2  2  1  6  1        1 0.435517985479D-02 0.100000000000D+01
-.656445111454D-05 0.337886633724D-05 -.245885539562D-06 0.159162607666D-05 0.000000000000D+00  6 1 -2 25 -24 21 21 4 0.13560782D+00 0.16900218D-01 0.67897208D+05 0.67897208D+05 0.67897208D+05 0.11793417D+01  1  2  3  1  6  1        1 -.621028893203D-03 0.100000000000D+01
0.308010677866D-05 0.000000000000D+00 0.000000000000D+00 0.159162607666D-05 0.000000000000D+00  6 1 -2 25 -24 21 21 4 0.13560782D+00 0.16900218D-01 0.67897208D+05 0.67897208D+05 0.67897208D+05 0.11793417D+01  1  2 15  1  6  1        1 0.291393030479D-03 0.100000000000D+01
0.332017634632D-03 0.000000000000D+00 0.000000000000D+00 0.155389625424D-05 0.000000000000D+00  6 1 -2 25 -24 21 21 4 0.25848359D+00 0.16900218D-01 0.95818639D+05 0.95818639D+05 0.95818639D+05 0.11652796D+01  1  2 12  1  6  1        1 0.819157277778D-02 0.100000000000D+01
-.425402490233D-03 0.000000000000D+00 0.000000000000D+00 0.159162607666D-05 0.000000000000D+00  6 1 -2 25 -24 21 21 4 0.13560782D+00 0.16900218D-01 0.67897208D+05 0.67897208D+05 0.67897208D+05 0.11793417D+01  1  2  4  1  6  1        1 -.402451374937D-01 0.100000000000D+01
-.375465354922D-03 0.000000000000D+00 -.404744098772D-04 0.159162607666D-05 0.000000000000D+00  6 1 -2 25 -24 21 21 4 0.25965697D+00 0.16900218D-01 0.67897208D+05 0.67897208D+05 0.67897208D+05 0.11793417D+01  1  2  5  1  6  1        1 -.971313297811D-02 0.100000000000D+01
0.335668286031D-03 0.000000000000D+00 0.332162923881D-04 0.159162607666D-05 0.000000000000D+00  6 1 -2 25 -24 21 21 4 0.13560782D+00 0.16900218D-01 0.67897208D+05 0.67897208D+05 0.67897208D+05 0.11793417D+01  1  2  6  1  6  1        1 0.317558468362D-01 0.100000000000D+01
0.232625818913D-04 0.000000000000D+00 0.000000000000D+00 0.155389625424D-05 0.000000000000D+00  6 21 -2 25 -24 -1 21 4 0.25848359D+00 0.16900218D-01 0.95818639D+05 0.95818639D+05 0.95818639D+05 0.11652796D+01  3  4 12  4  5  1        1 0.518471050930D-03 0.100000000000D+01
-.241466038120D-04 0.000000000000D+00 -.285424478189D-05 0.159162607666D-05 0.000000000000D+00  6 21 -2 25 -24 -1 21 4 0.25965697D+00 0.16900218D-01 0.67897208D+05 0.67897208D+05 0.67897208D+05 0.11793417D+01  3  4  5  4  5  1        1 -.573157915166D-03 0.100000000000D+01
  </mgrwgt>
  </event>
  <event>
  5     66 0.44337718E-03 0.21905708E+02 0.75467711E-02 0.11349056E+00
        1 -1    0    0  502    0 0.00000000E+00 0.00000000E+00 0.18337223E+04 0.18337223E+04 0.32000000E+00 0.0000E+00 0.9000E+01
       -2 -1    0    0    0  501 0.00000000E+00 0.00000000E+00 -.14807761E+02 0.14811219E+02 0.32000000E+00 0.0000E+00 0.9000E+01
       25  1    1    2    0    0 0.52418575E+02 0.64446823E+02 0.12639483E+04 0.12728281E+04 0.12500000E+03 0.0000E+00 0.9000E+01
      -24  1    1    2    0    0 -.72877430E+02 -.72254120E+02 0.49421587E+03 0.51112457E+03 0.80419002E+02 0.0000E+00 0.9000E+01
       21  1    1    2  502  501 0.20458854E+02 0.78072968E+01 0.60750317E+02 0.64580818E+02 0.75000000E+00 0.0000E+00 0.9000E+01
#aMCatNLO 1  0  0  2  5 0.51076439D+02 0.00000000D+00  -5  6  0 0.00000000D+00 0.00000000D+00 0.00000000D+00 0.00000000D+00 0.00000000D+00
  <mgrwgt>
 0.2425159305D+00    3    2    0
 0.164792424668920D+03 0.000000000000000D+00 0.000000000000000D+00 0.164792424668920D+03
 0.164792424668920D+03 0.000000000000000D+00 0.000000000000000D+00 -.164792424668920D+03
 0.163391336430267D+03 0.524146434242149D+02 0.644453226824199D+02 0.645850939423327D+02
 0.139250850137282D+03 -.728807804704210D+02 -.722553986126380D+02 -.488992077536684D+02
 0.269426627702903D+02 0.204661370462061D+02 0.781007593021803D+01 -.156858861886643D+02
 0.000000000000000D+00 -.000000000000000D+00 0.000000000000000D+00 0.000000000000000D+00
 0.285810213875363D+03 0.000000000000000D+00 0.000000000000000D+00 0.285810213875363D+03
 0.203287268087039D+03 0.000000000000000D+00 0.000000000000000D+00 -.203287268087039D+03
 0.179379667891083D+03 0.104083569311971D+03 0.393375328719969D+02 0.645850939423327D+02
 0.135583720488812D+03 -.314525182135585D+02 -.923868815704222D+02 -.488992077536684D+02
 0.336710820176048D+02 0.296029865688950D+02 0.337015206101490D+01 -.156858861886643D+02
 0.140463011564901D+03 -.102234037667308D+03 0.496791966374103D+02 0.825229457883238D+02
0.486923684752D-03 0.000000000000D+00 0.000000000000D+00 0.355919527054D-04 0.000000000000D+00  6 1 -2 25 -24 21 21 2 0.28211139D+00 0.22783852D-02 0.22857424D+05 0.22857424D+05 0.22857424D+05 0.12274917D+01  1  2  2  2  6  2       -2 0.177654075905D+00 0.100000000000D+01
0.107212579758D-03 0.256956687930D-04 -.186991515940D-05 0.355919527054D-04 0.000000000000D+00  6 1 -2 25 -24 21 21 4 0.28211139D+00 0.22783852D-02 0.22857424D+05 0.22857424D+05 0.22857424D+05 0.12274917D+01  1  2  3  2  6  2       -2 0.589382375687D-01 0.100000000000D+01
0.107754538991D-04 0.000000000000D+00 0.000000000000D+00 0.355919527054D-04 0.000000000000D+00  6 1 -2 25 -24 21 21 4 0.28211139D+00 0.22783852D-02 0.22857424D+05 0.22857424D+05 0.22857424D+05 0.12274917D+01  1  2 15  2  6  2       -2 0.592361701629D-02 0.100000000000D+01
  </mgrwgt>
  </event>
  <event>
  5     66 0.44337718E-03 0.36775561E+02 0.75467711E-02 0.12044159E+00
        3 -1    0    0  502    0 0.00000000E+00 0.00000000E+00 0.51830562E+02 0.51832973E+02 0.50000000E+00 0.0000E+00 0.9000E+01
       -4 -1    0    0    0  501 -.00000000E+00 -.00000000E+00 -.49475684E+03 0.49475927E+03 0.15500000E+01 0.0000E+00 0.9000E+01
       25  1    1    2    0    0 0.79757523E+02 -.51942822E+02 -.33313830E+03 0.36832791E+03 0.12500000E+03 0.0000E+00 0.9000E+01
      -24  1    1    2    0    0 -.60455259E+02 0.20647613E+02 -.71286216E+02 0.12502041E+03 0.80419002E+02 0.0000E+00 0.9000E+01
       21  1    1    2  502  501 -.19302264E+02 0.31295209E+02 -.38501764E+02 0.53243927E+02 0.75000000E+00 0.0000E+00 0.9000E+01
#aMCatNLO 1  0  0  5  2 0.10336216D+02 0.00000000D+00  -5  6  0 0.00000000D+00 0.00000000D+00 0.00000000D+00 0.00000000D+00 0.00000000D+00
  <mgrwgt>
 0.3031396728D-01   20    2    0
 0.160140088055799D+03 0.000000000000000D+00 0.000000000000000D+00 0.160140088055799D+03
 0.160140088055799D+03 -.000000000000000D+00 -.000000000000000D+00 -.160140088055799D+03
 0.167884854962786D+03 0.797595344414674D+02 -.519460830402013D+02 -.591637190204981D+02
 0.114775154781322D+03 -.604538842499676D+02 0.206453841399395D+02 0.512368636189981D+02
 0.376201663674909D+02 -.193056501914997D+02 0.313006989002617D+02 0.792685540149998D+01
 0.000000000000000D+00 -.000000000000000D+00 0.000000000000000D+00 0.000000000000000D+00
 0.160140088055799D+03 0.000000000000000D+00 0.000000000000000D+00 0.160140088055799D+03
 0.160140088055799D+03 -.000000000000000D+00 -.000000000000000D+00 -.160140088055799D+03
 0.165227182855219D+03 0.773498702247077D+02 -.480392384972115D+02 -.581743164558110D+02
 0.116484365527305D+03 -.621267682277516D+02 0.233576697746779D+02 0.519237459184204D+02
 0.273621262991061D+02 -.531827190327143D+01 0.242632153995925D+02 0.114759887610649D+02
 0.112065014299684D+02 -.990483009368461D+01 0.418353322941134D+00 -.522541822367441D+01
0.325617068562D-03 0.000000000000D+00 0.000000000000D+00 0.130606389650D-04 0.000000000000D+00  6 3 -4 25 -24 21 21 2 0.79743049D-02 0.76116810D-01 0.21992021D+05 0.21992021D+05 0.21992021D+05 0.12293121D+01  1  2  2  3  6  5       21 0.166661993585D-01 0.100000000000D+01
0.296471990504D-04 0.171832847921D-04 -.125045528022D-05 0.130606389650D-04 0.000000000000D+00  6 3 -4 25 -24 21 21 4 0.79743049D-02 0.76116810D-01 0.21992021D+05 0.21992021D+05 0.21992021D+05 0.12293121D+01  1  2  3  3  6  5       21 0.229317595373D-02 0.100000000000D+01
0.126382080579D-04 0.000000000000D+00 0.000000000000D+00 0.130606389650D-04 0.000000000000D+00  6 3 -4 25 -24 21 21 4 0.79743049D-02 0.76116810D-01 0.21992021D+05 0.21992021D+05 0.21992021D+05 0.12293121D+01  1  2 15  3  6  5       21 0.977550518933D-03 0.100000000000D+01
0.185554237622D-03 0.000000000000D+00 0.000000000000D+00 0.130805642305D-04 0.000000000000D+00  6 3 -4 25 -24 21 21 4 0.79743049D-02 0.76116810D-01 0.21560749D+05 0.21560749D+05 0.21560749D+05 0.12302494D+01  1  2 12  3  6  5       21 0.143738033853D-01 0.100000000000D+01
0.195243069875D-03 0.000000000000D+00 0.000000000000D+00 0.130805642305D-04 0.000000000000D+00  6 3 -4 25 -24 21 21 4 0.79743049D-02 0.76116810D-01 0.21560749D+05 0.21560749D+05 0.21560749D+05 0.12302494D+01  1  2 12  3  6  5       21 0.151243406494D-01 0.100000000000D+01
-.437910257157D-03 0.000000000000D+00 0.000000000000D+00 0.130606389650D-04 0.000000000000D+00  6 3 -4 25 -24 21 21 4 0.79743049D-02 0.76116810D-01 0.21992021D+05 0.21992021D+05 0.21992021D+05 0.12293121D+01  1  2  4  3  6  5       21 -.338718429993D-01 0.100000000000D+01
-.290008514660D-03 0.000000000000D+00 0.000000000000D+00 0.130606389650D-04 0.000000000000D+00  6 3 -4 25 -24 21 21 4 0.79743049D-02 0.76116810D-01 0.21992021D+05 0.21992021D+05 0.21992021D+05 0.12293121D+01  1  2  5  3  6  5       21 -.224318172878D-01 0.100000000000D+01
0.477413371324D-03 0.000000000000D+00 -.000000000000D+00 0.130606389650D-04 0.000000000000D+00  6 3 -4 25 -24 21 21 4 0.79743049D-02 0.76116810D-01 0.21992021D+05 0.21992021D+05 0.21992021D+05 0.12293121D+01  1  2  6  3  6  5       21 0.369273623875D-01 0.100000000000D+01
0.373511762764D-05 0.000000000000D+00 0.000000000000D+00 0.130805642305D-04 0.000000000000D+00  6 3 -4 25 -24 3 -3 4 0.79743049D-02 0.76116810D-01 0.21560749D+05 0.21560749D+05 0.21560749D+05 0.12302494D+01  1  2 12  6  6  5       21 0.289337754226D-03 0.100000000000D+01
0.386928249269D-05 0.000000000000D+00 0.000000000000D+00 0.130805642305D-04 0.000000000000D+00  6 3 -4 25 -24 3 -3 4 0.79743049D-02 0.76116810D-01 0.21560749D+05 0.21560749D+05 0.21560749D+05 0.12302494D+01  1  2 12  6  6  5       21 0.299730722967D-03 0.100000000000D+01
-.679091973484D-05 0.000000000000D+00 0.000000000000D+00 0.130606389650D-04 0.000000000000D+00  6 3 -4 25 -24 3 -3 4 0.79743049D-02 0.76116810D-01 0.21992021D+05 0.21992021D+05 0.21992021D+05 0.12293121D+01  1  2  5  6  6  5       21 -.525269649021D-03 0.100000000000D+01
0.373511762764D-05 0.000000000000D+00 0.000000000000D+00 0.130805642305D-04 0.000000000000D+00  6 3 -4 25 -24 4 -4 4 0.79743049D-02 0.76116810D-01 0.21560749D+05 0.21560749D+05 0.21560749D+05 0.12302494D+01  1  2 12  7  6  5       21 0.289337754226D-03 0.100000000000D+01
0.386928249269D-05 0.000000000000D+00 0.000000000000D+00 0.130805642305D-04 0.000000000000D+00  6 3 -4 25 -24 4 -4 4 0.79743049D-02 0.76116810D-01 0.21560749D+05 0.21560749D+05 0.21560749D+05 0.12302494D+01  1  2 12  7  6  5       21 0.299730722967D-03 0.100000000000D+01
-.679091973484D-05 0.000000000000D+00 0.000000000000D+00 0.130606389650D-04 0.000000000000D+00  6 3 -4 25 -24 4 -4 4 0.79743049D-02 0.76116810D-01 0.21992021D+05 0.21992021D+05 0.21992021D+05 0.12293121D+01  1  2  5  7  6  5       21 -.525269649021D-03 0.100000000000D+01
0.373511762764D-05 0.000000000000D+00 0.000000000000D+00 0.130805642305D-04 0.000000000000D+00  6 3 -4 25 -24 1 -1 4 0.79743049D-02 0.76116810D-01 0.21560749D+05 0.21560749D+05 0.21560749D+05 0.12302494D+01  1  2 12  8  6  5       21 0.289337754226D-03 0.100000000000D+01
0.373511762764D-05 0.000000000000D+00 0.000000000000D+00 0.130805642305D-04 0.000000000000D+00  6 3 -4 25 -24 2 -2 4 0.79743049D-02 0.76116810D-01 0.21560749D+05 0.21560749D+05 0.21560749D+05 0.12302494D+01  1  2 12  8  6  5       21 0.289337754226D-03 0.100000000000D+01
0.386928249269D-05 0.000000000000D+00 0.000000000000D+00 0.130805642305D-04 0.000000000000D+00  6 3 -4 25 -24 1 -1 4 0.79743049D-02 0.76116810D-01 0.21560749D+05 0.21560749D+05 0.21560749D+05 0.12302494D+01  1  2 12  8  6  5       21 0.299730722967D-03 0.100000000000D+01
0.386928249269D-05 0.000000000000D+00 0.000000000000D+00 0.130805642305D-04 0.000000000000D+00  6 3 -4 25 -24 2 -2 4 0.79743049D-02 0.76116810D-01 0.21560749D+05 0.21560749D+05 0.21560749D+05 0.12302494D+01  1  2 12  8  6  5       21 0.299730722967D-03 0.100000000000D+01
-.679091973484D-05 0.000000000000D+00 0.000000000000D+00 0.130606389650D-04 0.000000000000D+00  6 3 -4 25 -24 1 -1 4 0.79743049D-02 0.76116810D-01 0.21992021D+05 0.21992021D+05 0.21992021D+05 0.12293121D+01  1  2  5  8  6  5       21 -.525269649021D-03 0.100000000000D+01
-.679091973484D-05 0.000000000000D+00 0.000000000000D+00 0.130606389650D-04 0.000000000000D+00  6 3 -4 25 -24 2 -2 4 0.79743049D-02 0.76116810D-01 0.21992021D+05 0.21992021D+05 0.21992021D+05 0.12293121D+01  1  2  5  8  6  5       21 -.525269649021D-03 0.100000000000D+01
  </mgrwgt>
  </event>
  <event>
  5     66 -.44337718E-03 0.31488413E+02 0.75467711E-02 0.10869669E+00
        3 -1    0    0  502    0 0.00000000E+00 0.00000000E+00 0.37804480E+03 0.37804513E+03 0.50000000E+00 0.0000E+00 0.9000E+01
       -4 -1    0    0    0  501 0.00000000E+00 0.00000000E+00 -.31033973E+03 0.31034360E+03 0.15500000E+01 0.0000E+00 0.9000E+01
       25  1    1    2    0    0 0.20870211E+03 0.15866705E+03 0.20451036E+03 0.35522006E+03 0.12500000E+03 0.0000E+00 0.9000E+01
      -24  1    1    2    0    0 -.22351344E+03 -.13088500E+03 -.11356617E+03 0.29402999E+03 0.80419002E+02 0.0000E+00 0.9000E+01
       21  1    1    2  502  501 0.14811332E+02 -.27782050E+02 -.23239110E+02 0.39138684E+02 0.75000000E+00 0.0000E+00 0.9000E+01
#aMCatNLO 1  0  0  1  1 0.42524180D+02 0.00000000D+00  -5  6  0 0.00000000D+00 0.00000000D+00 0.00000000D+00 0.00000000D+00 0.00000000D+00
  <mgrwgt>
 -.9662192805D-02    1    2    0
 0.342525569777592D+03 0.000000000000000D+00 0.000000000000000D+00 0.342525569777592D+03
 0.342525569777592D+03 0.000000000000000D+00 0.000000000000000D+00 -.342525569777592D+03
 0.336739913443086D+03 0.208700927606491D+03 0.158669264431152D+03 0.170401750714963D+03
 0.306685496757498D+03 -.223514518035066D+03 -.130882977987662D+03 -.143177108043347D+03
 0.416257293546007D+02 0.148135904285748D+02 -.277862864434906D+02 -.272246426716166D+02
 0.000000000000000D+00 -.000000000000000D+00 -.000000000000000D+00 -.000000000000000D+00
 0.673988092625281D+03 0.000000000000000D+00 0.000000000000000D+00 0.673988092625281D+03
 0.694496198379767D+03 0.000000000000000D+00 0.000000000000000D+00 -.694496198379767D+03
 0.602940983392419D+03 0.370516194974201D+03 0.426138266375284D+03 0.170401750714963D+03
 0.212676577809065D+03 -.134079143494991D+03 0.169472654489779D+02 -.143177108043347D+03
 0.399361895880353D+02 0.288587452946276D+02 -.457065533967565D+01 -.272246426716166D+02
 0.512930540215529D+03 -.265295796773838D+03 -.438514876484586D+03 -.205081057544860D+02
-.192658531451D-02 0.000000000000D+00 0.000000000000D+00 0.113157370638D-04 0.000000000000D+00  6 3 -4 25 -24 21 21 4 0.58161062D-01 0.47744896D-01 0.87954911D+05 0.87954911D+05 0.87954911D+05 0.11687270D+01  1  2 14  1  6  1        3 -.966219280460D-02 0.100000000000D+01
  </mgrwgt>
  </event>
  <event>
  5     66 -.44337718E-03 0.24852385E+02 0.75467711E-02 0.11576318E+00
        1 -1    0    0  502    0 0.00000000E+00 0.00000000E+00 0.37184291E+03 0.37184304E+03 0.32000000E+00 0.0000E+00 0.9000E+01
       -2 -1    0    0    0  501 0.00000000E+00 0.00000000E+00 -.13528753E+03 0.13528790E+03 0.32000000E+00 0.0000E+00 0.9000E+01
       25  1    1    2    0    0 0.15554769E+03 -.26992086E+02 0.11342988E+02 0.20168619E+03 0.12500000E+03 0.0000E+00 0.9000E+01
      -24  1    1    2    0    0 -.13073477E+03 0.25702324E+02 0.23228610E+03 0.27960014E+03 0.80419002E+02 0.0000E+00 0.9000E+01
       21  1    1    2  502  501 -.24812920E+02 0.12897615E+01 -.70737025E+01 0.25844618E+02 0.75000000E+00 0.0000E+00 0.9000E+01
#aMCatNLO 1  0  0  2  5 0.51076439D+02 0.00000000D+00  -5  6  0 0.00000000D+00 0.00000000D+00 0.00000000D+00 0.00000000D+00 0.00000000D+00
  <mgrwgt>
 -.3811369187D-01    1    2    0
 0.224289628721312D+03 0.000000000000000D+00 0.000000000000000D+00 0.224289628721312D+03
 0.224289628721312D+03 0.000000000000000D+00 0.000000000000000D+00 -.224289628721312D+03
 0.222031111110527D+03 0.155550875830180D+03 -.269922513930651D+02 -.935315866120789D+02
 0.193600464414061D+03 -.130731996763832D+03 0.257021801267503D+02 0.115162784031314D+03
 0.329476819180368D+02 -.248188790663487D+02 0.129007126631478D+01 -.216311974192351D+02
 0.000000000000000D+00 -.000000000000000D+00 -.000000000000000D+00 -.000000000000000D+00
 0.342926704238428D+03 0.000000000000000D+00 0.000000000000000D+00 0.342926704238428D+03
 0.347346200714303D+03 0.000000000000000D+00 0.000000000000000D+00 -.347346200714303D+03
 0.295521427552401D+03 0.249041629672936D+03 0.306271634057817D+02 -.935315866120789D+02
 0.168391256043802D+03 -.653417681353080D+02 0.660029216682655D+02 0.115162784031314D+03
 0.269659940312825D+02 -.139960653198190D+02 0.796029445866176D+01 -.216311974192351D+02
 0.199394227325246D+03 -.169703796217809D+03 -.104590379532709D+03 -.441949647587454D+01
-.157731895109D-03 0.000000000000D+00 0.000000000000D+00 0.205708746540D-04 0.000000000000D+00  6 1 -2 25 -24 21 21 4 0.57206641D-01 0.20813505D-01 0.36451465D+05 0.36451465D+05 0.36451465D+05 0.12061190D+01  1  2 14  2  6  2       -2 -.381136918688D-01 0.100000000000D+01
  </mgrwgt>
  </event>
  <event>
  5     66 0.44337718E-03 0.20445148E+02 0.75467711E-02 0.11422418E+00
        1 -1    0    0  502    0 0.00000000E+00 0.00000000E+00 0.93496614E+02 0.93497161E+02 0.32000000E+00 0.0000E+00 0.9000E+01
       -2 -1    0    0    0  501 0.00000000E+00 0.00000000E+00 -.33155475E+03 0.33155491E+03 0.32000000E+00 0.0000E+00 0.9000E+01
       25  1    1    2    0    0 -.70670824E+02 0.23629260E+02 -.23183504E+03 0.27372466E+03 0.12500000E+03 0.0000E+00 0.9000E+01
      -24  1    1    2    0    0 0.56200863E+02 -.91950431E+01 0.35597635E+02 0.10477353E+03 0.80419002E+02 0.0000E+00 0.9000E+01
       21  1    1    2  502  501 0.14469960E+02 -.14434217E+02 -.41820737E+02 0.46553871E+02 0.75000000E+00 0.0000E+00 0.9000E+01
#aMCatNLO 1  0  0  2  2 0.13225994D+03 0.00000000D+00  -5  6  0 0.00000000D+00 0.00000000D+00 0.00000000D+00 0.00000000D+00 0.00000000D+00
  <mgrwgt>
 0.1970165664D+00    5    4    0
 0.176066453054592D+03 0.000000000000000D+00 0.000000000000000D+00 0.176066453054592D+03
 0.176066453054592D+03 0.000000000000000D+00 0.000000000000000D+00 -.176066453054592D+03
 0.173675501485267D+03 -.706733996413694D+02 0.236318295305095D+02 -.947891714930097D+02
 0.150536778977789D+03 0.561986304271016D+02 -.919281581151166D+01 0.113803830982138D+03
 0.279206256461277D+02 0.144747692142678D+02 -.144390137189979D+02 -.190146594891280D+02
 0.000000000000000D+00 0.000000000000000D+00 -.000000000000000D+00 -.000000000000000D+00
 0.232774978888936D+03 0.000000000000000D+00 0.000000000000000D+00 0.232774978888936D+03
 0.285911963137707D+03 0.000000000000000D+00 0.000000000000000D+00 -.285911963137707D+03
 0.211808374808317D+03 -.125400844046712D+03 0.672861718258787D+02 -.947891714930097D+02
 0.142150462916918D+03 0.146455960616737D+02 0.239527184868621D+02 0.113803830982138D+03
 0.221930919668291D+02 0.736008592069369D+01 -.876385707326737D+01 -.190146594891280D+02
 0.142535012334579D+03 0.103395162064345D+03 -.824750332394734D+02 -.531369842487707D+02
 0.176066453054592D+03 0.000000000000000D+00 0.000000000000000D+00 0.176066453054592D+03
 0.176066453054592D+03 0.000000000000000D+00 0.000000000000000D+00 -.176066453054592D+03
 0.173675501485267D+03 -.706733996413694D+02 0.236318295305095D+02 -.947891714930097D+02
 0.150536778977789D+03 0.561986304271016D+02 -.919281581151166D+01 0.113803830982138D+03
 0.000000000000000D+00 0.000000000000000D+00 -.000000000000000D+00 -.000000000000000D+00
 0.279206256461277D+02 0.144747692142678D+02 -.144390137189979D+02 -.190146594891280D+02
 0.232774978888936D+03 0.000000000000000D+00 0.000000000000000D+00 0.232774978888936D+03
 0.285911963137707D+03 0.000000000000000D+00 0.000000000000000D+00 -.285911963137707D+03
 0.211808374808317D+03 -.125400844046712D+03 0.672861718258787D+02 -.947891714930097D+02
 0.142150462916918D+03 0.146455960616737D+02 0.239527184868621D+02 0.113803830982138D+03
 0.142535012334579D+03 0.103395162064345D+03 -.824750332394734D+02 -.531369842487707D+02
 0.221930919668291D+02 0.736008592069369D+01 -.876385707326737D+01 -.190146594891280D+02
0.812263442685D-03 0.000000000000D+00 0.000000000000D+00 0.282590321431D-04 0.000000000000D+00  6 1 -2 25 -24 21 21 2 0.14384148D-01 0.51008478D-01 0.17491626D+05 0.17491626D+05 0.17491626D+05 0.12402853D+01  1  2  2  2  6  2       -2 0.155377839889D+00 0.100000000000D+01
0.139257800460D-03 0.428643195012D-04 -.311930549379D-05 0.282590321431D-04 0.000000000000D+00  6 1 -2 25 -24 21 21 4 0.14384148D-01 0.51008478D-01 0.17491626D+05 0.17491626D+05 0.17491626D+05 0.12402853D+01  1  2  3  2  6  2       -2 0.409783876182D-01 0.100000000000D+01
0.305199695309D-04 0.000000000000D+00 0.000000000000D+00 0.282590321431D-04 0.000000000000D+00  6 1 -2 25 -24 21 21 4 0.14384148D-01 0.51008478D-01 0.17491626D+05 0.17491626D+05 0.17491626D+05 0.12402853D+01  1  2 15  2  6  2       -2 0.898089110557D-02 0.100000000000D+01
-.214297489127D-03 0.000000000000D+00 -.386844419971D-03 0.282590321431D-04 0.000000000000D+00  6 1 -2 25 -24 21 21 4 0.14384148D-01 0.10395354D+00 0.17491626D+05 0.17491626D+05 0.17491626D+05 0.12402853D+01  1  2  5  2  6  2       -2 -.136934442483D-01 0.100000000000D+01
0.703731372677D-05 0.000000000000D+00 -.297839617478D-04 0.282590321431D-04 0.000000000000D+00  6 1 21 25 -24 2 21 4 0.14384148D-01 0.10395354D+00 0.17491626D+05 0.17491626D+05 0.17491626D+05 0.12402853D+01  3  4  5  5  5  2       -2 0.537289204770D-02 0.100000000000D+01
  </mgrwgt>
  </event>
  <event>
  6     66 0.44337718E-03 0.52719151E+02 0.75467711E-02 0.11688630E+00
        1 -1    0    0  503    0 0.00000000E+00 0.00000000E+00 0.36699008E+03 0.36699022E+03 0.32000000E+00 0.0000E+00 0.9000E+01
       -2 -1    0    0    0  501 0.00000000E+00 0.00000000E+00 -.10697368E+03 0.10697416E+03 0.32000000E+00 0.0000E+00 0.9000E+01
       25  1    1    2    0    0 0.96166373E+02 0.94960090E+02 0.12724835E+03 0.22379127E+03 0.12500000E+03 0.0000E+00 0.9000E+01
      -24  1    1    2    0    0 -.53574310E+02 -.48790143E+02 0.91915842E+01 0.10863879E+03 0.80419002E+02 0.0000E+00 0.9000E+01
       21  1    1    2  502  501 -.22486543E+02 -.37175174E+02 0.10116393E+03 0.11010151E+03 0.75000000E+00 0.0000E+00 0.9000E+01
       21  1    1    2  503  502 -.20105519E+02 -.89947732E+01 0.22412530E+02 0.31432815E+02 0.75000000E+00 0.0000E+00 0.9000E+01
#aMCatNLO 2  0  0  1  1 0.22025845D+02 0.00000000D+00  -5  6  0 0.00000000D+00 0.00000000D+00 0.00000000D+00 0.00000000D+00 0.00000000D+00
  <mgrwgt>
 0.2353203395D-01    1    2    0
 0.186342057527231D+03 0.000000000000000D+00 0.000000000000000D+00 0.186342057527231D+03
 0.186342057527231D+03 0.000000000000000D+00 0.000000000000000D+00 -.186342057527231D+03
 0.177127763029342D+03 0.864269093484609D+02 0.906036413245175D+02 0.840321099282137D+01
 0.127207167795345D+03 -.603149459934946D+02 -.518052000553167D+02 -.582475417607727D+02
 0.683491842297747D+02 -.261119633549663D+02 -.387984412692009D+02 0.498443307679514D+02
 0.000000000000000D+00 -.000000000000000D+00 -.000000000000000D+00 0.000000000000000D+00
 0.201439135663637D+03 0.000000000000000D+00 0.000000000000000D+00 0.201439135663637D+03
 0.194877678743204D+03 0.000000000000000D+00 0.000000000000000D+00 -.194877678743204D+03
 0.184286114098775D+03 0.961671681521776D+02 0.949612218972977D+02 0.840321099282137D+01
 0.122924945678452D+03 -.535737783888767D+02 -.487893478501854D+02 -.582475417607727D+02
 0.661233579429599D+02 -.224878707408030D+02 -.371771008215109D+02 0.498443307679514D+02
 0.229823966866537D+02 -.201055190224978D+02 -.899477322560140D+01 0.656145692043273D+01
0.633072801780D-04 0.000000000000D+00 0.000000000000D+00 0.897334247563D-05 0.187898052290D-06  6 1 -2 25 -24 21 21 4 0.56458309D-01 0.16457027D-01 0.32008465D+05 0.32008465D+05 0.32008465D+05 0.12119557D+01  1  2  1  1  6  1        1 0.235320339487D-01 0.100000000000D+01
  </mgrwgt>
  </event>
  <event>
  5     66 -.44337718E-03 0.28230959E+02 0.75467711E-02 0.12237372E+00
        3 -1    0    0  502    0 0.00000000E+00 0.00000000E+00 0.67385707E+02 0.67387562E+02 0.50000000E+00 0.0000E+00 0.9000E+01
       -4 -1    0    0    0  501 0.00000000E+00 0.00000000E+00 -.24171679E+03 0.24172176E+03 0.15500000E+01 0.0000E+00 0.9000E+01
       25  1    1    2    0    0 -.42699744E+02 0.21729967E+02 -.70594775E+02 0.15134095E+03 0.12500000E+03 0.0000E+00 0.9000E+01
      -24  1    1    2    0    0 0.17341755E+02 -.93331066E+01 -.49079430E+02 0.96248895E+02 0.80419002E+02 0.0000E+00 0.9000E+01
       21  1    1    2  502  501 0.25357989E+02 -.12396861E+02 -.54656881E+02 0.61519484E+02 0.75000000E+00 0.0000E+00 0.9000E+01
#aMCatNLO 1  0  0  2  1 0.19859676D+02 0.00000000D+00  -5  6  0 0.00000000D+00 0.00000000D+00 0.00000000D+00 0.00000000D+00 0.00000000D+00
  <mgrwgt>
 -.1332642179D-01    7    4    0
 0.127629587904756D+03 0.000000000000000D+00 0.000000000000000D+00 0.127629587904756D+03
 0.127629587904756D+03 0.000000000000000D+00 0.000000000000000D+00 -.127629587904756D+03
 0.135056445702161D+03 -.427024758148358D+02 0.217313030484142D+02 0.178743546121822D+02
 0.830343446983625D+02 0.173400748480218D+02 -.933228543670980D+01 0.630211852544186D+01
 0.371683854089879D+02 0.253624009668141D+02 -.123990176117044D+02 -.241764731376241D+02
 0.000000000000000D+00 0.000000000000000D+00 -.000000000000000D+00 -.000000000000000D+00
 0.131414276194683D+03 0.000000000000000D+00 0.000000000000000D+00 0.131414276194683D+03
 0.157024394411892D+03 0.000000000000000D+00 0.000000000000000D+00 -.157024394411892D+03
 0.138083659376005D+03 -.459214847731422D+02 0.318405664223566D+02 0.178743546121822D+02
 0.821841021104924D+02 0.153929435023595D+02 -.321734016879892D+01 0.630211852544186D+01
 0.357628100567296D+02 0.245028927247822D+02 -.969974112527110D+01 -.241764731376241D+02
 0.324080990633490D+02 0.602564854600057D+01 -.189234851282866D+02 -.256101182172094D+02
 0.127629587904756D+03 0.000000000000000D+00 0.000000000000000D+00 0.127629587904756D+03
 0.127629587904756D+03 0.000000000000000D+00 0.000000000000000D+00 -.127629587904756D+03
 0.135056445702161D+03 -.427024758148358D+02 0.217313030484142D+02 0.178743546121822D+02
 0.830343446983625D+02 0.173400748480218D+02 -.933228543670980D+01 0.630211852544186D+01
 0.000000000000000D+00 0.000000000000000D+00 -.000000000000000D+00 -.000000000000000D+00
 0.371683854089879D+02 0.253624009668141D+02 -.123990176117044D+02 -.241764731376241D+02
 0.131414276194683D+03 0.000000000000000D+00 0.000000000000000D+00 0.131414276194683D+03
 0.157024394411892D+03 0.000000000000000D+00 0.000000000000000D+00 -.157024394411892D+03
 0.138083659376005D+03 -.459214847731422D+02 0.318405664223566D+02 0.178743546121822D+02
 0.821841021104924D+02 0.153929435023595D+02 -.321734016879892D+01 0.630211852544186D+01
 0.324080990633490D+02 0.602564854600057D+01 -.189234851282866D+02 -.256101182172094D+02
 0.357628100567296D+02 0.245028927247822D+02 -.969974112527110D+01 -.241764731376241D+02
0.662694776531D-04 0.000000000000D+00 0.000000000000D+00 0.334430848500D-04 0.000000000000D+00  6 3 -4 25 -24 21 21 2 0.10367557D-01 0.37187724D-01 0.14993293D+05 0.14993293D+05 0.14993293D+05 0.12478447D+01  1  2  2  2  6  2       -4 0.961883783271D-02 0.100000000000D+01
0.589825352679D-05 0.349713641415D-05 -.254492243342D-06 0.334430848500D-04 0.000000000000D+00  6 3 -4 25 -24 21 21 4 0.10367557D-01 0.37187724D-01 0.14993293D+05 0.14993293D+05 0.14993293D+05 0.12478447D+01  1  2  3  2  6  2       -4 0.133307183217D-02 0.100000000000D+01
0.355653754228D-05 0.000000000000D+00 0.000000000000D+00 0.334430848500D-04 0.000000000000D+00  6 3 -4 25 -24 21 21 4 0.10367557D-01 0.37187724D-01 0.14993293D+05 0.14993293D+05 0.14993293D+05 0.12478447D+01  1  2 15  2  6  2       -4 0.803817603998D-03 0.100000000000D+01
-.776160173960D-04 0.000000000000D+00 0.000000000000D+00 0.334430848500D-04 0.000000000000D+00  6 3 -4 25 -24 21 21 4 0.10367557D-01 0.37187724D-01 0.14993293D+05 0.14993293D+05 0.14993293D+05 0.12478447D+01  1  2  4  2  6  2       -4 -.175420954773D-01 0.100000000000D+01
-.401890663300D-03 0.000000000000D+00 -.646824596425D-04 0.334430848500D-04 0.000000000000D+00  6 3 -4 25 -24 21 21 4 0.10367557D-01 0.46757833D-01 0.14993293D+05 0.14993293D+05 0.14993293D+05 0.12478447D+01  1  2  5  2  6  2       -4 -.577709417399D-01 0.100000000000D+01
0.407627630603D-03 0.000000000000D+00 0.630226937960D-04 0.334430848500D-04 0.000000000000D+00  6 3 -4 25 -24 21 21 4 0.10367557D-01 0.37187724D-01 0.14993293D+05 0.14993293D+05 0.14993293D+05 0.12478447D+01  1  2  6  2  6  2       -4 0.921284427508D-01 0.100000000000D+01
-.118057433946D-04 0.000000000000D+00 -.205095265946D-05 0.334430848500D-04 0.000000000000D+00  6 3 21 25 -24 4 21 4 0.10367557D-01 0.46757833D-01 0.14993293D+05 0.14993293D+05 0.14993293D+05 0.12478447D+01  3  4  5  5  5  2       -4 -.418975545903D-01 0.100000000000D+01
  </mgrwgt>
  </event>
  <event>
  5     66 0.44337718E-03 0.31137825E+02 0.75467711E-02 0.99568307E-01
        1 -1    0    0  502    0 0.00000000E+00 0.00000000E+00 0.12211363E+04 0.12211363E+04 0.32000000E+00 0.0000E+00 0.9000E+01
       -2 -1    0    0    0  501 0.00000000E+00 0.00000000E+00 -.12742348E+02 0.12746365E+02 0.32000000E+00 0.0000E+00 0.9000E+01
       25  1    1    2    0    0 -.10478928E+02 -.20265346E+02 0.77699455E+03 0.78731570E+03 0.12500000E+03 0.0000E+00 0.9000E+01
      -24  1    1    2    0    0 0.22802737E+02 -.83214731E+01 0.30107667E+03 0.31257573E+03 0.80419002E+02 0.0000E+00 0.9000E+01
       21  1    1    2  502  501 -.12323808E+02 0.28586819E+02 0.13032270E+03 0.13399123E+03 0.75000000E+00 0.0000E+00 0.9000E+01
#aMCatNLO 1  0  0  2  5 0.28408152D+02 0.00000000D+00  -5  6  0 0.00000000D+00 0.00000000D+00 0.00000000D+00 0.00000000D+00 0.00000000D+00
  <mgrwgt>
 0.1598003052D+00    5    4    0
 0.124750341332252D+03 0.000000000000000D+00 0.000000000000000D+00 0.124750341332252D+03
 0.124750341332252D+03 0.000000000000000D+00 0.000000000000000D+00 -.124750341332252D+03
 0.130420029413958D+03 -.104770964249864D+02 -.202695948660104D+02 0.293897609178275D+02
 0.876257329051847D+02 0.228039672823184D+02 -.832432810049160D+01 -.249346696521641D+02
 0.314549203453606D+02 -.123268708573320D+02 0.285939229665020D+02 -.445509126566341D+01
 0.000000000000000D+00 0.000000000000000D+00 -.000000000000000D+00 -.000000000000000D+00
 0.433939934948272D+03 0.000000000000000D+00 0.000000000000000D+00 0.433939934948272D+03
 0.877567035600631D+03 0.000000000000000D+00 0.000000000000000D+00 -.877567035600631D+03
 0.335318359185326D+03 -.309725069854518D+03 0.447493726733272D+01 0.293897609178275D+02
 0.160624650920360D+03 -.136702798922463D+03 0.486513566297581D+01 -.249346696521641D+02
 0.108512839393772D+03 -.102259479963008D+03 0.360303654270717D+02 -.445509126566341D+01
 0.707051121049445D+03 0.548687348739989D+03 -.453704383573802D+02 -.443627100652358D+03
 0.124750341332252D+03 0.000000000000000D+00 0.000000000000000D+00 0.124750341332252D+03
 0.124750341332252D+03 0.000000000000000D+00 0.000000000000000D+00 -.124750341332252D+03
 0.130420029413958D+03 -.104770964249864D+02 -.202695948660104D+02 0.293897609178275D+02
 0.876257329051847D+02 0.228039672823184D+02 -.832432810049160D+01 -.249346696521641D+02
 0.000000000000000D+00 0.000000000000000D+00 -.000000000000000D+00 -.000000000000000D+00
 0.314549203453606D+02 -.123268708573320D+02 0.285939229665020D+02 -.445509126566341D+01
 0.433939934948272D+03 0.000000000000000D+00 0.000000000000000D+00 0.433939934948272D+03
 0.877567035600631D+03 0.000000000000000D+00 0.000000000000000D+00 -.877567035600631D+03
 0.335318359185326D+03 -.309725069854518D+03 0.447493726733272D+01 0.293897609178275D+02
 0.160624650920360D+03 -.136702798922463D+03 0.486513566297581D+01 -.249346696521641D+02
 0.707051121049445D+03 0.548687348739989D+03 -.453704383573802D+02 -.443627100652358D+03
 0.108512839393772D+03 -.102259479963008D+03 0.360303654270717D+02 -.445509126566341D+01
0.968107267601D-04 0.000000000000D+00 0.000000000000D+00 0.255836829610D-04 0.000000000000D+00  6 1 -2 25 -24 21 21 2 0.18786743D+00 0.19606735D-02 0.14665988D+05 0.14665988D+05 0.14665988D+05 0.12489390D+01  1  2  2  2  6  2       -2 0.113116535790D+00 0.100000000000D+01
0.826365040396D-05 0.510884240865D-05 -.371778681609D-06 0.255836829610D-04 0.000000000000D+00  6 1 -2 25 -24 21 21 4 0.18786743D+00 0.19606735D-02 0.14665988D+05 0.14665988D+05 0.14665988D+05 0.12489390D+01  1  2  3  2  6  2       -2 0.150611108482D-01 0.100000000000D+01
0.323296717373D-05 0.000000000000D+00 0.000000000000D+00 0.255836829610D-04 0.000000000000D+00  6 1 -2 25 -24 21 21 4 0.18786743D+00 0.19606735D-02 0.14665988D+05 0.14665988D+05 0.14665988D+05 0.12489390D+01  1  2 15  2  6  2       -2 0.589232053534D-02 0.100000000000D+01
0.140791757483D-02 0.000000000000D+00 -.380404955997D-03 0.255836829610D-04 0.000000000000D+00  6 1 -2 25 -24 21 21 4 0.18786743D+00 0.74300086D-01 0.14665988D+05 0.14665988D+05 0.14665988D+05 0.12489390D+01  1  2  5  2  6  2       -2 0.612117190547D-02 0.100000000000D+01
0.369700231135D-03 0.000000000000D+00 -.131659142057D-03 0.255836829610D-04 0.000000000000D+00  6 1 21 25 -24 2 21 4 0.18786743D+00 0.74300086D-01 0.14665988D+05 0.14665988D+05 0.14665988D+05 0.12489390D+01  3  4  5  5  5  2       -2 0.196091661325D-01 0.100000000000D+01
  </mgrwgt>
  </event>
  <event>
  5     66 -.44337718E-03 0.51707107E+02 0.75467711E-02 0.12020560E+00
        1 -1    0    0  502    0 0.00000000E+00 0.00000000E+00 0.36751872E+04 0.36751872E+04 0.32000000E+00 0.0000E+00 0.9000E+01
       -2 -1    0    0    0  501 0.00000000E+00 0.00000000E+00 -.12724885E+02 0.12728908E+02 0.32000000E+00 0.0000E+00 0.9000E+01
       25  1    1    2    0    0 -.10292066E+02 -.66200445E+02 0.12210505E+04 0.12292590E+04 0.12500000E+03 0.0000E+00 0.9000E+01
      -24  1    1    2    0    0 0.52374731E+02 0.31401684E+02 0.23500416E+04 0.23522101E+04 0.80419002E+02 0.0000E+00 0.9000E+01
       21  1    1    2  502  501 -.42082665E+02 0.34798761E+02 0.91370215E+02 0.10644709E+03 0.75000000E+00 0.0000E+00 0.9000E+01
#aMCatNLO 1  0  0  5  2 0.88837876D+00 0.00000000D+00  -5  6  0 0.00000000D+00 0.00000000D+00 0.00000000D+00 0.00000000D+00 0.00000000D+00
  <mgrwgt>
 -.3309651646D-01   25    2    0
 0.216272464134810D+03 0.000000000000000D+00 0.000000000000000D+00 0.216272464134810D+03
 0.216272464134810D+03 -.000000000000000D+00 -.000000000000000D+00 -.216272464134810D+03
 0.141841374660451D+03 -.102918495774572D+02 -.662006239641202D+02 0.235176202082030D+01
 0.156780606262028D+03 0.523749699544873D+02 0.314014866621743D+02 0.119932279654772D+03
 0.133922947347141D+03 -.420831203770302D+02 0.347991373019459D+02 -.122284041675592D+03
 0.000000000000000D+00 0.000000000000000D+00 0.000000000000000D+00 -.000000000000000D+00
 0.216272464134810D+03 0.000000000000000D+00 0.000000000000000D+00 0.216272464134810D+03
 0.216272464134810D+03 -.000000000000000D+00 -.000000000000000D+00 -.216272464134810D+03
 0.141840355022813D+03 -.102946704637256D+02 -.661982913327068D+02 0.234356516253322D+01
 0.156773150589050D+03 0.523718520255037D+02 0.314040649224798D+02 0.119923219657453D+03
 0.117488289435343D+03 -.369023507037532D+02 0.313835153388360D+02 -.107036393959985D+03
 0.164431332224149D+02 -.517483085802488D+01 0.341071107139098D+01 -.152303908600012D+02
0.310630998206D-04 0.000000000000D+00 0.000000000000D+00 0.837719057553D-05 0.000000000000D+00  6 1 -2 25 -24 21 21 2 0.56541373D+00 0.19579852D-02 0.22112663D+05 0.22112663D+05 0.22112663D+05 0.12290535D+01  1  2  2  3  6  5       21 0.791090890856D-03 0.100000000000D+01
0.812333167809D-07 0.163924481324D-05 -.119290482413D-06 0.837719057553D-05 0.000000000000D+00  6 1 -2 25 -24 21 21 4 0.56541373D+00 0.19579852D-02 0.22112663D+05 0.22112663D+05 0.22112663D+05 0.12290535D+01  1  2  3  3  6  5       21 0.312505299770D-05 0.100000000000D+01
0.144572592095D-05 0.000000000000D+00 0.000000000000D+00 0.837719057553D-05 0.000000000000D+00  6 1 -2 25 -24 21 21 4 0.56541373D+00 0.19579852D-02 0.22112663D+05 0.22112663D+05 0.22112663D+05 0.12290535D+01  1  2 15  3  6  5       21 0.556172061190D-04 0.100000000000D+01
0.629997965452D-07 0.000000000000D+00 0.000000000000D+00 0.837705434692D-05 0.000000000000D+00  6 1 -2 25 -24 21 21 4 0.56541373D+00 0.19579852D-02 0.22117341D+05 0.22117341D+05 0.22117341D+05 0.12290436D+01  1  2 12  3  6  5       21 0.242350990784D-05 0.100000000000D+01
0.626249437921D-07 0.000000000000D+00 0.000000000000D+00 0.837705434692D-05 0.000000000000D+00  6 1 -2 25 -24 21 21 4 0.56541373D+00 0.19579852D-02 0.22117341D+05 0.22117341D+05 0.22117341D+05 0.12290436D+01  1  2 12  3  6  5       21 0.240908987141D-05 0.100000000000D+01
-.515550259189D-01 0.000000000000D+00 0.000000000000D+00 0.837719057553D-05 0.000000000000D+00  6 1 -2 25 -24 21 21 4 0.56541373D+00 0.19579852D-02 0.22112663D+05 0.22112663D+05 0.22112663D+05 0.12290535D+01  1  2  4  3  6  5       21 -.198332648080D+01 0.100000000000D+01
-.420111271272D-01 0.000000000000D+00 0.000000000000D+00 0.837719057553D-05 0.000000000000D+00  6 1 -2 25 -24 21 21 4 0.56541373D+00 0.19579852D-02 0.22112663D+05 0.22112663D+05 0.22112663D+05 0.12290535D+01  1  2  5  3  6  5       21 -.161617183649D+01 0.100000000000D+01
0.470905630363D-01 0.000000000000D+00 -.000000000000D+00 0.837719057553D-05 0.000000000000D+00  6 1 -2 25 -24 21 21 4 0.56541373D+00 0.19579852D-02 0.22112663D+05 0.22112663D+05 0.22112663D+05 0.12290535D+01  1  2  6  3  6  5       21 0.181157819244D+01 0.100000000000D+01
0.455684344115D-01 0.000000000000D+00 0.000000000000D+00 0.837719057553D-05 0.831312736328D-04  6 1 -2 25 -24 21 21 4 0.56541373D+00 0.19579852D-02 0.22117341D+05 0.22117341D+05 0.22117341D+05 0.12290436D+01  1  2 11  3  6  5       21 0.175295093535D+01 0.100000000000D+01
0.650159972565D-09 0.000000000000D+00 0.000000000000D+00 0.837705434692D-05 0.000000000000D+00  6 1 -2 25 -24 1 -1 4 0.56541373D+00 0.19579852D-02 0.22117341D+05 0.22117341D+05 0.22117341D+05 0.12290436D+01  1  2 12  6  6  5       21 0.250107019641D-07 0.100000000000D+01
0.648722333811D-09 0.000000000000D+00 0.000000000000D+00 0.837705434692D-05 0.000000000000D+00  6 1 -2 25 -24 1 -1 4 0.56541373D+00 0.19579852D-02 0.22117341D+05 0.22117341D+05 0.22117341D+05 0.12290436D+01  1  2 12  6  6  5       21 0.249553981067D-07 0.100000000000D+01
-.381211733437D-03 0.000000000000D+00 0.000000000000D+00 0.837719057553D-05 0.000000000000D+00  6 1 -2 25 -24 1 -1 4 0.56541373D+00 0.19579852D-02 0.22112663D+05 0.22112663D+05 0.22112663D+05 0.12290535D+01  1  2  5  6  6  5       21 -.146652496481D-01 0.100000000000D+01
0.387781797061D-03 0.000000000000D+00 0.000000000000D+00 0.837719057553D-05 0.138894324547D-05  6 1 -2 25 -24 1 -1 4 0.56541373D+00 0.19579852D-02 0.22117341D+05 0.22117341D+05 0.22117341D+05 0.12290436D+01  1  2 11  6  6  5       21 0.149173978139D-01 0.100000000000D+01
0.650159972565D-09 0.000000000000D+00 0.000000000000D+00 0.837705434692D-05 0.000000000000D+00  6 1 -2 25 -24 2 -2 4 0.56541373D+00 0.19579852D-02 0.22117341D+05 0.22117341D+05 0.22117341D+05 0.12290436D+01  1  2 12  7  6  5       21 0.250107019641D-07 0.100000000000D+01
0.648722333811D-09 0.000000000000D+00 0.000000000000D+00 0.837705434692D-05 0.000000000000D+00  6 1 -2 25 -24 2 -2 4 0.56541373D+00 0.19579852D-02 0.22117341D+05 0.22117341D+05 0.22117341D+05 0.12290436D+01  1  2 12  7  6  5       21 0.249553981067D-07 0.100000000000D+01
-.381211733437D-03 0.000000000000D+00 0.000000000000D+00 0.837719057553D-05 0.000000000000D+00  6 1 -2 25 -24 2 -2 4 0.56541373D+00 0.19579852D-02 0.22112663D+05 0.22112663D+05 0.22112663D+05 0.12290535D+01  1  2  5  7  6  5       21 -.146652496481D-01 0.100000000000D+01
0.388072073093D-03 0.000000000000D+00 0.000000000000D+00 0.837719057553D-05 0.139227889562D-05  6 1 -2 25 -24 2 -2 4 0.56541373D+00 0.19579852D-02 0.22117341D+05 0.22117341D+05 0.22117341D+05 0.12290436D+01  1  2 11  7  6  5       21 0.149285643077D-01 0.100000000000D+01
0.650159972565D-09 0.000000000000D+00 0.000000000000D+00 0.837705434692D-05 0.000000000000D+00  6 1 -2 25 -24 3 -3 4 0.56541373D+00 0.19579852D-02 0.22117341D+05 0.22117341D+05 0.22117341D+05 0.12290436D+01  1  2 12  8  6  5       21 0.250107019641D-07 0.100000000000D+01
0.650159972565D-09 0.000000000000D+00 0.000000000000D+00 0.837705434692D-05 0.000000000000D+00  6 1 -2 25 -24 4 -4 4 0.56541373D+00 0.19579852D-02 0.22117341D+05 0.22117341D+05 0.22117341D+05 0.12290436D+01  1  2 12  8  6  5       21 0.250107019641D-07 0.100000000000D+01
0.648722333811D-09 0.000000000000D+00 0.000000000000D+00 0.837705434692D-05 0.000000000000D+00  6 1 -2 25 -24 3 -3 4 0.56541373D+00 0.19579852D-02 0.22117341D+05 0.22117341D+05 0.22117341D+05 0.12290436D+01  1  2 12  8  6  5       21 0.249553981067D-07 0.100000000000D+01
0.648722333811D-09 0.000000000000D+00 0.000000000000D+00 0.837705434692D-05 0.000000000000D+00  6 1 -2 25 -24 4 -4 4 0.56541373D+00 0.19579852D-02 0.22117341D+05 0.22117341D+05 0.22117341D+05 0.12290436D+01  1  2 12  8  6  5       21 0.249553981067D-07 0.100000000000D+01
-.381211733437D-03 0.000000000000D+00 0.000000000000D+00 0.837719057553D-05 0.000000000000D+00  6 1 -2 25 -24 3 -3 4 0.56541373D+00 0.19579852D-02 0.22112663D+05 0.22112663D+05 0.22112663D+05 0.12290535D+01  1  2  5  8  6  5       21 -.146652496481D-01 0.100000000000D+01
-.381211733437D-03 0.000000000000D+00 0.000000000000D+00 0.837719057553D-05 0.000000000000D+00  6 1 -2 25 -24 4 -4 4 0.56541373D+00 0.19579852D-02 0.22112663D+05 0.22112663D+05 0.22112663D+05 0.12290535D+01  1  2  5  8  6  5       21 -.146652496481D-01 0.100000000000D+01
0.387756429012D-03 0.000000000000D+00 0.000000000000D+00 0.837719057553D-05 0.138885147204D-05  6 1 -2 25 -24 3 -3 4 0.56541373D+00 0.19579852D-02 0.22117341D+05 0.22117341D+05 0.22117341D+05 0.12290436D+01  1  2 11  8  6  5       21 0.149164219422D-01 0.100000000000D+01
0.387756429012D-03 0.000000000000D+00 0.000000000000D+00 0.837719057553D-05 0.138885147204D-05  6 1 -2 25 -24 4 -4 4 0.56541373D+00 0.19579852D-02 0.22117341D+05 0.22117341D+05 0.22117341D+05 0.12290436D+01  1  2 11  8  6  5       21 0.149164219422D-01 0.100000000000D+01
  </mgrwgt>
  </event>
  <event>
  6     66 0.44337718E-03 0.23962137E+02 0.75467711E-02 0.12142776E+00
        3 -1    0    0  502    0 0.00000000E+00 0.00000000E+00 0.91726094E+02 0.91727456E+02 0.50000000E+00 0.0000E+00 0.9000E+01
       21 -1    0    0  503  501 0.00000000E+00 0.00000000E+00 -.80032911E+03 0.80032946E+03 0.75000000E+00 0.0000E+00 0.9000E+01
       25  1    1    2    0    0 0.35091006E+02 -.77820460E+01 0.25865290E+02 0.13261204E+03 0.12500000E+03 0.0000E+00 0.9000E+01
      -24  1    1    2    0    0 -.43302838E+02 -.27135168E+02 -.28443173E+03 0.29996680E+03 0.80419002E+02 0.0000E+00 0.9000E+01
        4  1    1    2  503    0 0.24097900E+02 0.23591876E+02 -.43062493E+03 0.43194619E+03 0.15500000E+01 0.0000E+00 0.9000E+01
       21  1    1    2  502  501 -.15886067E+02 0.11325338E+02 -.19411651E+02 0.27531893E+02 0.75000000E+00 0.0000E+00 0.9000E+01
#aMCatNLO 2  0  0  2  5 0.87768656D+01 0.00000000D+00  -5  6  0 0.00000000D+00 0.00000000D+00 0.00000000D+00 0.00000000D+00 0.00000000D+00
  <mgrwgt>
 0.6307205755D-01    1    2    0
 0.182546415394354D+03 0.000000000000000D+00 0.000000000000000D+00 0.182546415394354D+03
 0.182546415394354D+03 0.000000000000000D+00 0.000000000000000D+00 -.182546415394354D+03
 0.188634321334883D+03 0.474349232567922D+02 0.429248782550933D+01 0.133001540552589D+03
 0.156858592352792D+03 -.328373817383403D+02 -.168979349657324D+02 -.129512810930013D+03
 0.000000000000000D+00 0.000000000000000D+00 0.000000000000000D+00 -.000000000000000D+00
 0.195999171010320D+02 -.145975415184519D+02 0.126054471402231D+02 -.348872962257613D+01
 0.184650666781011D+03 0.000000000000000D+00 0.000000000000000D+00 0.184650666781011D+03
 0.397559506157601D+03 0.000000000000000D+00 0.000000000000000D+00 -.397559506157601D+03
 0.186029037463142D+03 0.350963857263904D+02 -.778695698237998D+01 0.133001540552589D+03
 0.160785699896139D+03 -.432981485285728D+02 -.271390396979154D+02 -.129512810930013D+03
 0.215563121301773D+03 0.240978995938233D+02 0.235918760560084D+02 -.212908839376590D+03
 0.198323142775594D+02 -.158961367916409D+02 0.113341206242870D+02 -.348872962257613D+01
0.266917290787D-03 0.000000000000D+00 0.000000000000D+00 0.229568167340D-04 0.213230349602D-07  6 3 21 25 -24 4 21 4 0.14111627D-01 0.12312584D+00 0.19403739D+05 0.19403739D+05 0.19403739D+05 0.12352758D+01  1  2  1  5  5  2       -4 0.630720575463D-01 0.100000000000D+01
  </mgrwgt>
  </event>
  <event>
  5     66 0.44337718E-03 0.25581964E+02 0.75467711E-02 0.11050213E+00
        1 -1    0    0  502    0 0.00000000E+00 0.00000000E+00 0.11822475E+04 0.11822476E+04 0.32000000E+00 0.0000E+00 0.9000E+01
       -2 -1    0    0    0  501 0.00000000E+00 0.00000000E+00 -.60352532E+02 0.60353380E+02 0.32000000E+00 0.0000E+00 0.9000E+01
       25  1    1    2    0    0 0.63438669E+02 0.21404704E+03 0.55514334E+03 0.61126895E+03 0.12500000E+03 0.0000E+00 0.9000E+01
      -24  1    1    2    0    0 -.38340462E+02 -.20910999E+03 0.56072359E+03 0.60504144E+03 0.80419002E+02 0.0000E+00 0.9000E+01
       21  1    1    2  502  501 -.25098208E+02 -.49370536E+01 0.60280864E+01 0.26290585E+02 0.75000000E+00 0.0000E+00 0.9000E+01
#aMCatNLO 1  0  0  5  1 0.23069598D+02 0.00000000D+00  -5  6  0 0.00000000D+00 0.00000000D+00 0.00000000D+00 0.00000000D+00 0.00000000D+00
  <mgrwgt>
 0.3441398519D+00    9    2    0
 0.267118301255361D+03 0.000000000000000D+00 0.000000000000000D+00 0.267118301255361D+03
 0.267118301255361D+03 -.000000000000000D+00 -.000000000000000D+00 -.267118301255361D+03
 0.255974972746480D+03 0.634401078548237D+02 0.214047327600059D+03 0.756841695485104D+01
 0.229770858306295D+03 -.383391701980083D+02 -.209109736952876D+03 0.336252481398742D+02
 0.484907714579472D+02 -.251009376568154D+02 -.493759064718283D+01 -.411936650947253D+02
 0.000000000000000D+00 0.000000000000000D+00 0.000000000000000D+00 0.000000000000000D+00
 0.267118301255361D+03 0.000000000000000D+00 0.000000000000000D+00 0.267118301255361D+03
 0.267118301255361D+03 -.000000000000000D+00 -.000000000000000D+00 -.267118301255361D+03
 0.252769318527643D+03 0.555406212944387D+02 0.212493424256233D+03 -.539559292549007D+01
 0.230939717163945D+03 -.454928170527764D+02 -.210516926607951D+03 0.218852511417445D+02
 0.238309078979584D+02 0.117824816094014D+02 0.133759421274465D+02 -.158167465228566D+02
 0.266966589211763D+02 -.218302858510637D+02 -.153524397757280D+02 -.672911693397799D+00
0.342810644878D-02 0.000000000000D+00 0.000000000000D+00 0.239197698664D-04 0.000000000000D+00  6 1 -2 25 -24 21 21 2 0.18188431D+00 0.92850735D-02 0.64704648D+05 0.64704648D+05 0.64704648D+05 0.11813498D+01  1  2  2  3  6  5       21 0.371187269980D+00 0.100000000000D+01
0.976238137053D-03 0.180906147418D-03 -.131648314045D-04 0.239197698664D-04 0.000000000000D+00  6 1 -2 25 -24 21 21 4 0.18188431D+00 0.92850735D-02 0.64704648D+05 0.64704648D+05 0.64704648D+05 0.11813498D+01  1  2  3  3  6  5       21 0.147520225802D+00 0.100000000000D+01
0.180678886137D-04 0.000000000000D+00 0.000000000000D+00 0.239197698664D-04 0.000000000000D+00  6 1 -2 25 -24 21 21 4 0.18188431D+00 0.92850735D-02 0.64704648D+05 0.64704648D+05 0.64704648D+05 0.11813498D+01  1  2 15  3  6  5       21 0.273025495205D-02 0.100000000000D+01
0.948498234410D-03 0.000000000000D+00 0.000000000000D+00 0.238001935404D-04 0.000000000000D+00  6 1 -2 25 -24 21 21 4 0.18188431D+00 0.92850735D-02 0.69465357D+05 0.69465357D+05 0.69465357D+05 0.11783933D+01  1  2 12  3  6  5       21 0.141815784248D+00 0.100000000000D+01
-.226683405763D-02 0.000000000000D+00 0.000000000000D+00 0.239197698664D-04 0.000000000000D+00  6 1 -2 25 -24 21 21 4 0.18188431D+00 0.92850735D-02 0.64704648D+05 0.64704648D+05 0.64704648D+05 0.11813498D+01  1  2  4  3  6  5       21 -.342543339934D+00 0.100000000000D+01
0.391758016040D-04 0.000000000000D+00 0.000000000000D+00 0.238001935404D-04 0.000000000000D+00  6 1 -2 25 -24 1 -1 4 0.18188431D+00 0.92850735D-02 0.69465357D+05 0.69465357D+05 0.69465357D+05 0.11783933D+01  1  2 12  6  6  5       21 0.585741420117D-02 0.100000000000D+01
0.391758016040D-04 0.000000000000D+00 0.000000000000D+00 0.238001935404D-04 0.000000000000D+00  6 1 -2 25 -24 2 -2 4 0.18188431D+00 0.92850735D-02 0.69465357D+05 0.69465357D+05 0.69465357D+05 0.11783933D+01  1  2 12  7  6  5       21 0.585741420117D-02 0.100000000000D+01
0.391758016040D-04 0.000000000000D+00 0.000000000000D+00 0.238001935404D-04 0.000000000000D+00  6 1 -2 25 -24 3 -3 4 0.18188431D+00 0.92850735D-02 0.69465357D+05 0.69465357D+05 0.69465357D+05 0.11783933D+01  1  2 12  8  6  5       21 0.585741420117D-02 0.100000000000D+01
0.391758016040D-04 0.000000000000D+00 0.000000000000D+00 0.238001935404D-04 0.000000000000D+00  6 1 -2 25 -24 4 -4 4 0.18188431D+00 0.92850735D-02 0.69465357D+05 0.69465357D+05 0.69465357D+05 0.11783933D+01  1  2 12  8  6  5       21 0.585741420117D-02 0.100000000000D+01
  </mgrwgt>
  </event>
  <event>
  6     66 0.44337718E-03 0.52624285E+02 0.75467711E-02 0.11658102E+00
        1 -1    0    0  502    0 0.00000000E+00 0.00000000E+00 0.32529899E+03 0.32529915E+03 0.32000000E+00 0.0000E+00 0.9000E+01
       -2 -1    0    0    0  503 0.00000000E+00 0.00000000E+00 -.14067489E+03 0.14067526E+03 0.32000000E+00 0.0000E+00 0.9000E+01
       25  1    1    2    0    0 -.36063690E+02 -.29993207E+02 -.38938921E+02 0.13907344E+03 0.12500000E+03 0.0000E+00 0.9000E+01
      -24  1    1    2    0    0 0.11042352E+03 0.16531858E+02 0.11874794E+03 0.18175518E+03 0.80419002E+02 0.0000E+00 0.9000E+01
       21  1    1    2  502  501 -.17596132E+02 -.20398264E+02 0.58577342E+02 0.64479303E+02 0.75000000E+00 0.0000E+00 0.9000E+01
       21  1    1    2  501  503 -.56763700E+02 0.33859613E+02 0.46237739E+02 0.80666486E+02 0.75000000E+00 0.0000E+00 0.9000E+01
#aMCatNLO 2  0  0  2  1 0.66095317D+02 0.00000000D+00  -5  6  0 0.00000000D+00 0.00000000D+00 0.00000000D+00 0.00000000D+00 0.00000000D+00
  <mgrwgt>
 0.4479690939D-02    1    2    0
 0.176736257862445D+03 0.000000000000000D+00 0.000000000000000D+00 0.176736257862445D+03
 0.176736257862445D+03 0.000000000000000D+00 0.000000000000000D+00 -.176736257862445D+03
 0.169762797787309D+03 -.626313084706282D+02 -.141437969084259D+02 -.952453658759581D+02
 0.135485475849827D+03 0.877743094903005D+02 0.300435720079808D+02 0.572900740651099D+02
 0.482242420877541D+02 -.251430010196723D+02 -.158997750995550D+02 0.379552918108483D+02
 0.000000000000000D+00 -.000000000000000D+00 0.000000000000000D+00 0.000000000000000D+00
 0.223367228211668D+03 0.000000000000000D+00 0.000000000000000D+00 0.223367228211668D+03
 0.204867281516679D+03 0.000000000000000D+00 0.000000000000000D+00 -.204867281516679D+03
 0.164002125339051D+03 -.360621178631579D+02 -.299923498596600D+02 -.952453658759581D+02
 0.149051381345196D+03 0.110424724407637D+03 0.165325732919000D+02 0.572900740651099D+02
 0.465454509789455D+02 -.175989067652041D+02 -.203998360546457D+02 0.379552918108483D+02
 0.686355520651545D+02 -.567636997792755D+02 0.338596126224057D+02 0.184999466949889D+02
0.165322542029D-04 0.000000000000D+00 0.000000000000D+00 0.179553860859D-04 0.196697766989D-07  6 1 -2 25 -24 21 21 4 0.50045554D-01 0.21642122D-01 0.33151161D+05 0.33151161D+05 0.33151161D+05 0.12103720D+01  1  2  1  2  6  2       -2 0.447969093886D-02 0.100000000000D+01
  </mgrwgt>
  </event>
  <event>
  6     66 0.44337718E-03 0.48005350E+02 0.75467711E-02 0.11886852E+00
        1 -1    0    0  502    0 0.00000000E+00 0.00000000E+00 0.41273563E+03 0.41273575E+03 0.32000000E+00 0.0000E+00 0.9000E+01
       -2 -1    0    0    0  503 0.00000000E+00 0.00000000E+00 -.13629160E+03 0.13629197E+03 0.32000000E+00 0.0000E+00 0.9000E+01
       25  1    1    2    0    0 0.51117004E+02 0.54856322E+02 0.16454785E+03 0.21982529E+03 0.12500000E+03 0.0000E+00 0.9000E+01
      -24  1    1    2    0    0 0.35792336E+00 0.15047868E+02 0.18814442E+03 0.20516361E+03 0.80419002E+02 0.0000E+00 0.9000E+01
       21  1    1    2  502  501 -.24399680E+02 -.57884166E+02 -.69428597E+02 0.93631264E+02 0.75000000E+00 0.0000E+00 0.9000E+01
       21  1    1    2  501  503 -.27075247E+02 -.12020025E+02 -.68196382E+01 0.30407564E+02 0.75000000E+00 0.0000E+00 0.9000E+01
#aMCatNLO 2  0  0  2  1 0.29623471D+02 0.00000000D+00  -5  6  0 0.00000000D+00 0.00000000D+00 0.00000000D+00 0.00000000D+00 0.00000000D+00
  <mgrwgt>
 0.2758250644D-01    1    2    0
 0.216708914331397D+03 0.000000000000000D+00 0.000000000000000D+00 0.216708914331397D+03
 0.216708914331397D+03 0.000000000000000D+00 0.000000000000000D+00 -.216708914331397D+03
 0.150783260764882D+03 0.415730303705473D+02 0.506194644362003D+02 0.531031514403074D+02
 0.122092543091889D+03 -.726490110318567D+01 0.116638689457887D+02 0.908325299518331D+02
 0.160542024806023D+03 -.343081292673616D+02 -.622833333819890D+02 -.143935681392140D+03
 0.000000000000000D+00 -.000000000000000D+00 -.000000000000000D+00 -.000000000000000D+00
 0.223600623290529D+03 0.000000000000000D+00 0.000000000000000D+00 0.223600623290529D+03
 0.251568314275086D+03 0.000000000000000D+00 0.000000000000000D+00 -.251568314275086D+03
 0.155135911460667D+03 0.511171536946681D+02 0.548565668812352D+02 0.531031514403074D+02
 0.122247032871743D+03 0.358050505224608D+00 0.150480694429416D+02 0.908325299518331D+02
 0.157046065070155D+03 -.243999568765988D+02 -.578846117773941D+02 -.143935681392140D+03
 0.407399281630499D+02 -.270752473232939D+02 -.120200245467828D+02 -.279676909845570D+02
0.125506357120D-03 0.000000000000D+00 0.000000000000D+00 0.898097269810D-05 0.101592894357D-06  6 1 -2 25 -24 21 21 4 0.63496866D-01 0.20967659D-01 0.25603256D+05 0.25603256D+05 0.25603256D+05 0.12221890D+01  1  2  1  2  6  2       -2 0.275825064365D-01 0.100000000000D+01
  </mgrwgt>
  </event>
  <event>
  5     66 0.44337718E-03 0.10223598E+03 0.75467711E-02 0.10893200E+00
        1 -1    0    0  502    0 0.00000000E+00 0.00000000E+00 0.70137589E+03 0.70137597E+03 0.32000000E+00 0.0000E+00 0.9000E+01
       -2 -1    0    0    0  501 0.00000000E+00 0.00000000E+00 -.14991472E+03 0.14991506E+03 0.32000000E+00 0.0000E+00 0.9000E+01
       25  1    1    2    0    0 0.17873973E+03 0.88222899E+02 0.42638195E+03 0.48698843E+03 0.12500000E+03 0.0000E+00 0.9000E+01
      -24  1    1    2    0    0 -.17251277E+03 0.55005509E+02 0.83747581E+02 0.21509797E+03 0.80419002E+02 0.0000E+00 0.9000E+01
       21  1    1    2  502  501 -.62269523E+01 -.14322841E+03 0.41331650E+02 0.14920462E+03 0.75000000E+00 0.0000E+00 0.9000E+01
#aMCatNLO 1  0  0  1  5 0.69728021D+01 0.00000000D+00  -5  6  0 0.00000000D+00 0.00000000D+00 0.00000000D+00 0.00000000D+00 0.00000000D+00
  <mgrwgt>
 0.1080201642D+00   11    4    0
 0.324263388644658D+03 0.000000000000000D+00 0.000000000000000D+00 0.324263388644658D+03
 0.324263388644658D+03 0.000000000000000D+00 0.000000000000000D+00 -.324263388644658D+03
 0.276682573215562D+03 0.178739755303354D+03 0.882235645523201D+02 0.145591719726654D+03
 0.211136151745737D+03 -.172512751994750D+03 0.550060168757761D+02 -.729722353110286D+02
 0.160708052328016D+03 -.622700330860395D+01 -.143229581428096D+03 -.726194844156255D+02
 0.000000000000000D+00 -.000000000000000D+00 0.000000000000000D+00 0.000000000000000D+00
 0.335196799809885D+03 0.000000000000000D+00 0.000000000000000D+00 0.335196799809885D+03
 0.325395768740572D+03 0.000000000000000D+00 0.000000000000000D+00 -.325395768740572D+03
 0.278003842525000D+03 0.181415043433876D+03 0.869066719048981D+02 0.145591719726654D+03
 0.209223037460289D+03 -.170485332686244D+03 0.540080333127522D+02 -.729722353110286D+02
 0.161337381156475D+03 -.467375754443762D+01 -.143994156242724D+03 -.726194844156255D+02
 0.120283074086929D+02 -.625595320319365D+01 0.307945102507402D+01 0.980103106931302D+01
 0.324263388644658D+03 0.000000000000000D+00 0.000000000000000D+00 0.324263388644658D+03
 0.324263388644658D+03 0.000000000000000D+00 0.000000000000000D+00 -.324263388644658D+03
 0.276682573215562D+03 0.178739755303354D+03 0.882235645523201D+02 0.145591719726654D+03
 0.211136151745737D+03 -.172512751994750D+03 0.550060168757761D+02 -.729722353110286D+02
 0.000000000000000D+00 -.000000000000000D+00 0.000000000000000D+00 0.000000000000000D+00
 0.160708052328016D+03 -.622700330860395D+01 -.143229581428096D+03 -.726194844156255D+02
 0.335196799809885D+03 0.000000000000000D+00 0.000000000000000D+00 0.335196799809885D+03
 0.325395768740572D+03 0.000000000000000D+00 0.000000000000000D+00 -.325395768740572D+03
 0.278003842525000D+03 0.181415043433876D+03 0.869066719048981D+02 0.145591719726654D+03
 0.209223037460289D+03 -.170485332686244D+03 0.540080333127522D+02 -.729722353110286D+02
 0.120283074086929D+02 -.625595320319365D+01 0.307945102507402D+01 0.980103106931302D+01
 0.161337381156475D+03 -.467375754443762D+01 -.143994156242724D+03 -.726194844156255D+02
0.267731983132D-03 0.000000000000D+00 0.000000000000D+00 0.690323295528D-06 0.000000000000D+00  6 1 -2 25 -24 21 21 2 0.10790402D+00 0.23063835D-01 0.83165649D+05 0.83165649D+05 0.83165649D+05 0.11709982D+01  1  2  2  1  6  1        1 0.149337631274D-01 0.100000000000D+01
-.150934457459D-04 0.141286049114D-04 -.102816131068D-05 0.690323295528D-06 0.000000000000D+00  6 1 -2 25 -24 21 21 4 0.10790402D+00 0.23063835D-01 0.83165649D+05 0.83165649D+05 0.83165649D+05 0.11709982D+01  1  2  3  1  6  1        1 -.115443602122D-02 0.100000000000D+01
0.883632395163D-05 0.000000000000D+00 0.000000000000D+00 0.690323295528D-06 0.000000000000D+00  6 1 -2 25 -24 21 21 4 0.10790402D+00 0.23063835D-01 0.83165649D+05 0.83165649D+05 0.83165649D+05 0.11709982D+01  1  2 15  1  6  1        1 0.675854330192D-03 0.100000000000D+01
0.230110917437D-02 0.000000000000D+00 0.000000000000D+00 0.689136751586D-06 0.000000000000D+00  6 1 -2 25 -24 21 21 4 0.11206570D+00 0.23063835D-01 0.85252134D+05 0.85252134D+05 0.85252134D+05 0.11699914D+01  1  2 12  1  6  1        1 0.165804648065D+00 0.100000000000D+01
-.233742283760D-02 0.000000000000D+00 0.000000000000D+00 0.690323295528D-06 0.000000000000D+00  6 1 -2 25 -24 21 21 4 0.10790402D+00 0.23063835D-01 0.83165649D+05 0.83165649D+05 0.83165649D+05 0.11709982D+01  1  2  4  1  6  1        1 -.178779926463D+00 0.100000000000D+01
-.219500924227D-01 0.000000000000D+00 -.198983731176D-02 0.690323295528D-06 0.000000000000D+00  6 1 -2 25 -24 21 21 4 0.11175241D+00 0.23063835D-01 0.83165649D+05 0.83165649D+05 0.83165649D+05 0.11709982D+01  1  2  5  1  6  1        1 -.159409835139D+01 0.100000000000D+01
0.220075302554D-01 0.000000000000D+00 0.198861611313D-02 0.690323295528D-06 0.000000000000D+00  6 1 -2 25 -24 21 21 4 0.10790402D+00 0.23063835D-01 0.83165649D+05 0.83165649D+05 0.83165649D+05 0.11709982D+01  1  2  6  1  6  1        1 0.168326610719D+01 0.100000000000D+01
0.384843400433D-03 0.000000000000D+00 0.000000000000D+00 0.690323295528D-06 0.437618141569D-07  6 1 -2 25 -24 21 21 4 0.11154229D+00 0.23144377D-01 0.85252134D+05 0.85252134D+05 0.85252134D+05 0.11699914D+01  1  2 11  1  6  1        1 0.277533353989D-01 0.100000000000D+01
0.643023310318D-04 0.000000000000D+00 0.000000000000D+00 0.689136751586D-06 0.000000000000D+00  6 21 -2 25 -24 -1 21 4 0.11206570D+00 0.23063835D-01 0.85252134D+05 0.85252134D+05 0.85252134D+05 0.11699914D+01  3  4 12  4  5  1        1 0.947675718579D-02 0.100000000000D+01
-.136062148657D-03 0.000000000000D+00 -.124138934922D-04 0.690323295528D-06 0.000000000000D+00  6 21 -2 25 -24 -1 21 4 0.11175241D+00 0.23063835D-01 0.83165649D+05 0.83165649D+05 0.83165649D+05 0.11709982D+01  3  4  5  4  5  1        1 -.202832986860D-01 0.100000000000D+01
0.287303553282D-05 0.000000000000D+00 0.000000000000D+00 0.690323295528D-06 0.634199334908D-09  6 21 -2 25 -24 -1 21 4 0.11154229D+00 0.23144377D-01 0.85252134D+05 0.85252134D+05 0.85252134D+05 0.11699914D+01  3  4 11  4  5  1        1 0.425711498201D-03 0.100000000000D+01
  </mgrwgt>
  </event>
  <event>
  5     66 0.44337718E-03 0.21542415E+02 0.75467711E-02 0.12038613E+00
        1 -1    0    0  502    0 0.00000000E+00 0.00000000E+00 0.42321024E+03 0.42321036E+03 0.32000000E+00 0.0000E+00 0.9000E+01
       -2 -1    0    0    0  501 0.00000000E+00 0.00000000E+00 -.57502420E+02 0.57503310E+02 0.32000000E+00 0.0000E+00 0.9000E+01
       25  1    1    2    0    0 -.43640855E+02 -.81365821E+02 0.16021584E+03 0.22320179E+03 0.12500000E+03 0.0000E+00 0.9000E+01
      -24  1    1    2    0    0 0.22104346E+02 0.81557303E+02 0.20510675E+03 0.23595803E+03 0.80419002E+02 0.0000E+00 0.9000E+01
       21  1    1    2  502  501 0.21536509E+02 -.19148201E+00 0.38522694E+00 0.21553858E+02 0.75000000E+00 0.0000E+00 0.9000E+01
#aMCatNLO 1  0  0  5  1 0.21240922D+01 0.00000000D+00  -5  6  0 0.00000000D+00 0.00000000D+00 0.00000000D+00 0.00000000D+00 0.00000000D+00
  <mgrwgt>
 0.3154583774D+00   25    2    0
 0.155999538743790D+03 0.000000000000000D+00 0.000000000000000D+00 0.155999538743790D+03
 0.155999538743790D+03 -.000000000000000D+00 -.000000000000000D+00 -.155999538743790D+03
 0.156103379186915D+03 -.436436799363961D+02 -.813657959548879D+02 -.147682579815861D+02
 0.123138959165934D+03 0.221021167889047D+02 0.815573229059322D+02 0.394447312573695D+02
 0.327567391347305D+02 0.215415631474914D+02 -.191526951044333D+00 -.246764732757833D+02
 0.000000000000000D+00 0.000000000000000D+00 -.000000000000000D+00 0.000000000000000D+00
 0.155999538743790D+03 0.000000000000000D+00 0.000000000000000D+00 0.155999538743790D+03
 0.155999538743790D+03 -.000000000000000D+00 -.000000000000000D+00 -.155999538743790D+03
 0.156040250238509D+03 -.432581644291894D+02 -.813692235896036D+02 -.152098769600165D+02
 0.123081018907585D+03 0.224062127587830D+02 0.815546191757741D+02 0.390963806747031D+02
 0.260753511795066D+01 0.468822853127100D+00 0.199368691973076D+01 -.161389497484392D+01
 0.302702732235348D+02 0.203831288172793D+02 -.217908250590120D+01 -.222726087398427D+02
0.300210815516D-03 0.000000000000D+00 0.000000000000D+00 0.430357938708D-04 0.000000000000D+00  6 1 -2 25 -24 21 21 2 0.65109346D-01 0.88466039D-02 0.21549660D+05 0.21549660D+05 0.21549660D+05 0.12302738D+01  1  2  2  3  6  5       21 0.175827253877D+00 0.100000000000D+01
0.577918671622D-04 0.158425599845D-04 -.115288857890D-05 0.430357938708D-04 0.000000000000D+00  6 1 -2 25 -24 21 21 4 0.65109346D-01 0.88466039D-02 0.21549660D+05 0.21549660D+05 0.21549660D+05 0.12302738D+01  1  2  3  3  6  5       21 0.512306834246D-01 0.100000000000D+01
0.525146190005D-05 0.000000000000D+00 0.000000000000D+00 0.430357938708D-04 0.000000000000D+00  6 1 -2 25 -24 21 21 4 0.65109346D-01 0.88466039D-02 0.21549660D+05 0.21549660D+05 0.21549660D+05 0.12302738D+01  1  2 15  3  6  5       21 0.465525679180D-02 0.100000000000D+01
0.178486258931D-07 0.000000000000D+00 0.000000000000D+00 0.430142718953D-04 0.000000000000D+00  6 1 -2 25 -24 21 21 4 0.65109346D-01 0.88466039D-02 0.21690081D+05 0.21690081D+05 0.21690081D+05 0.12299662D+01  1  2 12  3  6  5       21 0.158088891596D-04 0.100000000000D+01
0.146732336261D-07 0.000000000000D+00 0.000000000000D+00 0.430142718953D-04 0.000000000000D+00  6 1 -2 25 -24 21 21 4 0.65109346D-01 0.88466039D-02 0.21690081D+05 0.21690081D+05 0.21690081D+05 0.12299662D+01  1  2 12  3  6  5       21 0.129963799677D-04 0.100000000000D+01
-.334807109275D-03 0.000000000000D+00 0.000000000000D+00 0.430357938708D-04 0.000000000000D+00  6 1 -2 25 -24 21 21 4 0.65109346D-01 0.88466039D-02 0.21549660D+05 0.21549660D+05 0.21549660D+05 0.12302738D+01  1  2  4  3  6  5       21 -.296796034906D+00 0.100000000000D+01
-.140631518490D-04 0.000000000000D+00 0.000000000000D+00 0.430357938708D-04 0.000000000000D+00  6 1 -2 25 -24 21 21 4 0.65109346D-01 0.88466039D-02 0.21549660D+05 0.21549660D+05 0.21549660D+05 0.12302738D+01  1  2  5  3  6  5       21 -.124665444414D-01 0.100000000000D+01
0.432005100584D-03 0.000000000000D+00 -.000000000000D+00 0.430357938708D-04 0.000000000000D+00  6 1 -2 25 -24 21 21 4 0.65109346D-01 0.88466039D-02 0.21549660D+05 0.21549660D+05 0.21549660D+05 0.12302738D+01  1  2  6  3  6  5       21 0.382959015387D+00 0.100000000000D+01
0.108264023559D-04 0.000000000000D+00 0.000000000000D+00 0.430357938708D-04 0.477374367985D-04  6 1 -2 25 -24 21 21 4 0.65109346D-01 0.88466039D-02 0.21690081D+05 0.21690081D+05 0.21690081D+05 0.12299662D+01  1  2 11  3  6  5       21 0.958916366265D-02 0.100000000000D+01
0.157713284541D-07 0.000000000000D+00 0.000000000000D+00 0.430142718953D-04 0.000000000000D+00  6 1 -2 25 -24 1 -1 4 0.65109346D-01 0.88466039D-02 0.21690081D+05 0.21690081D+05 0.21690081D+05 0.12299662D+01  1  2 12  6  6  5       21 0.139689847793D-04 0.100000000000D+01
0.150132461378D-07 0.000000000000D+00 0.000000000000D+00 0.430142718953D-04 0.000000000000D+00  6 1 -2 25 -24 1 -1 4 0.65109346D-01 0.88466039D-02 0.21690081D+05 0.21690081D+05 0.21690081D+05 0.12299662D+01  1  2 12  6  6  5       21 0.132975359302D-04 0.100000000000D+01
-.178536265403D-04 0.000000000000D+00 0.000000000000D+00 0.430357938708D-04 0.000000000000D+00  6 1 -2 25 -24 1 -1 4 0.65109346D-01 0.88466039D-02 0.21549660D+05 0.21549660D+05 0.21549660D+05 0.12302738D+01  1  2  5  6  6  5       21 -.158266817492D-01 0.100000000000D+01
0.178884167555D-04 0.000000000000D+00 0.000000000000D+00 0.430357938708D-04 0.808137253187D-06  6 1 -2 25 -24 1 -1 4 0.65109346D-01 0.88466039D-02 0.21690081D+05 0.21690081D+05 0.21690081D+05 0.12299662D+01  1  2 11  6  6  5       21 0.158441327317D-01 0.100000000000D+01
0.157713284541D-07 0.000000000000D+00 0.000000000000D+00 0.430142718953D-04 0.000000000000D+00  6 1 -2 25 -24 2 -2 4 0.65109346D-01 0.88466039D-02 0.21690081D+05 0.21690081D+05 0.21690081D+05 0.12299662D+01  1  2 12  7  6  5       21 0.139689847793D-04 0.100000000000D+01
0.150132461378D-07 0.000000000000D+00 0.000000000000D+00 0.430142718953D-04 0.000000000000D+00  6 1 -2 25 -24 2 -2 4 0.65109346D-01 0.88466039D-02 0.21690081D+05 0.21690081D+05 0.21690081D+05 0.12299662D+01  1  2 12  7  6  5       21 0.132975359302D-04 0.100000000000D+01
-.178536265403D-04 0.000000000000D+00 0.000000000000D+00 0.430357938708D-04 0.000000000000D+00  6 1 -2 25 -24 2 -2 4 0.65109346D-01 0.88466039D-02 0.21549660D+05 0.21549660D+05 0.21549660D+05 0.12302738D+01  1  2  5  7  6  5       21 -.158266817492D-01 0.100000000000D+01
0.180240155925D-04 0.000000000000D+00 0.000000000000D+00 0.430357938708D-04 0.807460285139D-06  6 1 -2 25 -24 2 -2 4 0.65109346D-01 0.88466039D-02 0.21690081D+05 0.21690081D+05 0.21690081D+05 0.12299662D+01  1  2 11  7  6  5       21 0.159642353657D-01 0.100000000000D+01
0.157713284541D-07 0.000000000000D+00 0.000000000000D+00 0.430142718953D-04 0.000000000000D+00  6 1 -2 25 -24 3 -3 4 0.65109346D-01 0.88466039D-02 0.21690081D+05 0.21690081D+05 0.21690081D+05 0.12299662D+01  1  2 12  8  6  5       21 0.139689847793D-04 0.100000000000D+01
0.157713284541D-07 0.000000000000D+00 0.000000000000D+00 0.430142718953D-04 0.000000000000D+00  6 1 -2 25 -24 4 -4 4 0.65109346D-01 0.88466039D-02 0.21690081D+05 0.21690081D+05 0.21690081D+05 0.12299662D+01  1  2 12  8  6  5       21 0.139689847793D-04 0.100000000000D+01
0.150132461378D-07 0.000000000000D+00 0.000000000000D+00 0.430142718953D-04 0.000000000000D+00  6 1 -2 25 -24 3 -3 4 0.65109346D-01 0.88466039D-02 0.21690081D+05 0.21690081D+05 0.21690081D+05 0.12299662D+01  1  2 12  8  6  5       21 0.132975359302D-04 0.100000000000D+01
0.150132461378D-07 0.000000000000D+00 0.000000000000D+00 0.430142718953D-04 0.000000000000D+00  6 1 -2 25 -24 4 -4 4 0.65109346D-01 0.88466039D-02 0.21690081D+05 0.21690081D+05 0.21690081D+05 0.12299662D+01  1  2 12  8  6  5       21 0.132975359302D-04 0.100000000000D+01
-.178536265403D-04 0.000000000000D+00 0.000000000000D+00 0.430357938708D-04 0.000000000000D+00  6 1 -2 25 -24 3 -3 4 0.65109346D-01 0.88466039D-02 0.21549660D+05 0.21549660D+05 0.21549660D+05 0.12302738D+01  1  2  5  8  6  5       21 -.158266817492D-01 0.100000000000D+01
-.178536265403D-04 0.000000000000D+00 0.000000000000D+00 0.430357938708D-04 0.000000000000D+00  6 1 -2 25 -24 4 -4 4 0.65109346D-01 0.88466039D-02 0.21549660D+05 0.21549660D+05 0.21549660D+05 0.12302738D+01  1  2  5  8  6  5       21 -.158266817492D-01 0.100000000000D+01
0.179628227055D-04 0.000000000000D+00 0.000000000000D+00 0.430357938708D-04 0.800501804740D-06  6 1 -2 25 -24 3 -3 4 0.65109346D-01 0.88466039D-02 0.21690081D+05 0.21690081D+05 0.21690081D+05 0.12299662D+01  1  2 11  8  6  5       21 0.159100355874D-01 0.100000000000D+01
0.179628227055D-04 0.000000000000D+00 0.000000000000D+00 0.430357938708D-04 0.800501804740D-06  6 1 -2 25 -24 4 -4 4 0.65109346D-01 0.88466039D-02 0.21690081D+05 0.21690081D+05 0.21690081D+05 0.12299662D+01  1  2 11  8  6  5       21 0.159100355874D-01 0.100000000000D+01
  </mgrwgt>
  </event>
  <event>
  5     66 0.44337718E-03 0.37683644E+02 0.75467711E-02 0.11445299E+00
        3 -1    0    0  502    0 0.00000000E+00 0.00000000E+00 0.16696976E+03 0.16697051E+03 0.50000000E+00 0.0000E+00 0.9000E+01
       -4 -1    0    0    0  501 0.00000000E+00 0.00000000E+00 -.16372386E+03 0.16373120E+03 0.15500000E+01 0.0000E+00 0.9000E+01
       25  1    1    2    0    0 0.68578288E+02 0.77271449E+02 -.55313549E+02 0.17134307E+03 0.12500000E+03 0.0000E+00 0.9000E+01
      -24  1    1    2    0    0 -.54371344E+02 -.42372290E+02 0.24850336E+02 0.10879526E+03 0.80419002E+02 0.0000E+00 0.9000E+01
       21  1    1    2  502  501 -.14206944E+02 -.34899159E+02 0.33709111E+02 0.50563378E+02 0.75000000E+00 0.0000E+00 0.9000E+01
#aMCatNLO 1  0  0  1  1 0.30014898D+02 0.00000000D+00  -5  6  0 0.00000000D+00 0.00000000D+00 0.00000000D+00 0.00000000D+00 0.00000000D+00
  <mgrwgt>
 0.1723898758D-01    7    4    0
 0.165342889533791D+03 0.000000000000000D+00 0.000000000000000D+00 0.165342889533791D+03
 0.165342889533791D+03 0.000000000000000D+00 0.000000000000000D+00 -.165342889533791D+03
 0.171896136777136D+03 0.685791109275008D+02 0.772734711700921D+02 -.569999827773875D+02
 0.108555555829629D+03 -.543708237363030D+02 -.423710129148009D+02 0.237824207749913D+02
 0.502340864608179D+02 -.142082871911978D+02 -.349024582552911D+02 0.332175620023962D+02
 0.000000000000000D+00 -.000000000000000D+00 0.000000000000000D+00 0.000000000000000D+00
 0.257240046709064D+03 0.000000000000000D+00 0.000000000000000D+00 0.257240046709064D+03
 0.196329147887109D+03 0.000000000000000D+00 0.000000000000000D+00 -.196329147887109D+03
 0.163142796914766D+03 0.814091964555757D+02 0.333783894309992D+02 -.569999827773875D+02
 0.119747427370824D+03 -.456281180199874D+02 -.722820981681888D+02 0.237824207749913D+02
 0.603517384386178D+02 -.997347908690380D+01 -.493908455291403D+02 0.332175620023962D+02
 0.110327231871966D+03 -.258075993486846D+02 0.882945542663298D+02 0.609108988219550D+02
 0.165342889533791D+03 0.000000000000000D+00 0.000000000000000D+00 0.165342889533791D+03
 0.165342889533791D+03 0.000000000000000D+00 0.000000000000000D+00 -.165342889533791D+03
 0.171896136777136D+03 0.685791109275008D+02 0.772734711700921D+02 -.569999827773875D+02
 0.108555555829629D+03 -.543708237363030D+02 -.423710129148009D+02 0.237824207749913D+02
 0.000000000000000D+00 -.000000000000000D+00 0.000000000000000D+00 0.000000000000000D+00
 0.502340864608179D+02 -.142082871911978D+02 -.349024582552911D+02 0.332175620023962D+02
 0.257240046709064D+03 0.000000000000000D+00 0.000000000000000D+00 0.257240046709064D+03
 0.196329147887109D+03 0.000000000000000D+00 0.000000000000000D+00 -.196329147887109D+03
 0.163142796914766D+03 0.814091964555757D+02 0.333783894309992D+02 -.569999827773875D+02
 0.119747427370824D+03 -.456281180199874D+02 -.722820981681888D+02 0.237824207749913D+02
 0.110327231871966D+03 -.258075993486846D+02 0.882945542663298D+02 0.609108988219550D+02
 0.603517384386178D+02 -.997347908690380D+01 -.493908455291403D+02 0.332175620023962D+02
0.131321653133D-03 0.000000000000D+00 0.000000000000D+00 0.137919599653D-04 0.000000000000D+00  6 3 -4 25 -24 21 21 2 0.25688278D-01 0.25188908D-01 0.23374216D+05 0.23374216D+05 0.23374216D+05 0.12264410D+01  1  2  2  1  6  1        3 0.835264504655D-02 0.100000000000D+01
0.917510546146D-05 0.693003402775D-05 -.504309725815D-06 0.137919599653D-04 0.000000000000D+00  6 3 -4 25 -24 21 21 4 0.25688278D-01 0.25188908D-01 0.23374216D+05 0.23374216D+05 0.23374216D+05 0.12264410D+01  1  2  3  1  6  1        3 0.877792916385D-03 0.100000000000D+01
0.631147114408D-05 0.000000000000D+00 0.000000000000D+00 0.137919599653D-04 0.000000000000D+00  6 3 -4 25 -24 21 21 4 0.25688278D-01 0.25188908D-01 0.23374216D+05 0.23374216D+05 0.23374216D+05 0.12264410D+01  1  2 15  1  6  1        3 0.603825720098D-03 0.100000000000D+01
-.353474636504D-04 0.000000000000D+00 0.000000000000D+00 0.137919599653D-04 0.000000000000D+00  6 3 -4 25 -24 21 21 4 0.25688278D-01 0.25188908D-01 0.23374216D+05 0.23374216D+05 0.23374216D+05 0.12264410D+01  1  2  4  1  6  1        3 -.338173259532D-02 0.100000000000D+01
-.177428126069D-03 0.000000000000D+00 -.968134598338D-04 0.137919599653D-04 0.000000000000D+00  6 3 -4 25 -24 21 21 4 0.46510050D-01 0.25188908D-01 0.23374216D+05 0.23374216D+05 0.23374216D+05 0.12264410D+01  1  2  5  1  6  1        3 -.552048834302D-02 0.100000000000D+01
0.211410287387D-03 0.000000000000D+00 0.819455773842D-04 0.137919599653D-04 0.000000000000D+00  6 3 -4 25 -24 21 21 4 0.25688278D-01 0.25188908D-01 0.23374216D+05 0.23374216D+05 0.23374216D+05 0.12264410D+01  1  2  6  1  6  1        3 0.202258659041D-01 0.100000000000D+01
-.634499089552D-05 0.000000000000D+00 -.629518337963D-05 0.137919599653D-04 0.000000000000D+00  6 21 -4 25 -24 -3 21 4 0.46510050D-01 0.25188908D-01 0.23374216D+05 0.23374216D+05 0.23374216D+05 0.12264410D+01  3  4  5  4  5  1        3 -.391892106423D-02 0.100000000000D+01
  </mgrwgt>
  </event>
  <event>
  5     66 0.44337718E-03 0.69857578E+02 0.75467711E-02 0.11043685E+00
        1 -1    0    0  502    0 0.00000000E+00 0.00000000E+00 0.53388175E+03 0.53388184E+03 0.32000000E+00 0.0000E+00 0.9000E+01
       -2 -1    0    0    0  501 0.00000000E+00 0.00000000E+00 -.11669039E+03 0.11669082E+03 0.32000000E+00 0.0000E+00 0.9000E+01
       25  1    1    2    0    0 0.10569781E+03 -.12472514E+03 0.14629656E+03 0.25249965E+03 0.12500000E+03 0.0000E+00 0.9000E+01
      -24  1    1    2    0    0 -.52651134E+02 0.17017700E+03 0.11384492E+03 0.22618629E+03 0.80419002E+02 0.0000E+00 0.9000E+01
       21  1    1    2  502  501 -.53046675E+02 -.45451861E+02 0.15704988E+03 0.17188673E+03 0.75000000E+00 0.0000E+00 0.9000E+01
#aMCatNLO 1  0  0  2  5 0.57068187D+02 0.00000000D+00  -5  6  0 0.00000000D+00 0.00000000D+00 0.00000000D+00 0.00000000D+00 0.00000000D+00
  <mgrwgt>
 0.7151917117D-01    4    2    0
 0.249597758066802D+03 0.000000000000000D+00 0.000000000000000D+00 0.249597758066802D+03
 0.249597758066802D+03 0.000000000000000D+00 0.000000000000000D+00 -.249597758066802D+03
 0.206804233725968D+03 0.105698527651538D+03 -.124724527305114D+03 -.203618424460470D+02
 0.199632685359234D+03 -.526504404775288D+02 0.170177597940508D+03 -.406633666349598D+02
 0.927585970484033D+02 -.530480871740094D+02 -.454530706353944D+02 0.610252090810069D+02
 0.000000000000000D+00 -.000000000000000D+00 -.000000000000000D+00 0.000000000000000D+00
 0.308139809591044D+03 0.000000000000000D+00 0.000000000000000D+00 0.308139809591044D+03
 0.265528588590515D+03 0.000000000000000D+00 0.000000000000000D+00 -.265528588590515D+03
 0.199371653141013D+03 0.114255986274888D+03 -.103223161396730D+03 -.203618424460470D+02
 0.216782973620522D+03 -.438772466788497D+02 0.192221017412715D+03 -.406633666349598D+02
 0.862923269771373D+02 -.492757783704516D+02 -.359748136580957D+02 0.610252090810069D+02
 0.712214444428862D+02 -.211029612255870D+02 -.530230423578899D+02 0.426112210005288D+02
0.554488757142D-03 0.000000000000D+00 0.000000000000D+00 0.359279803053D-05 0.000000000000D+00  6 1 -2 25 -24 21 21 2 0.82135694D-01 0.17952408D-01 0.55484838D+05 0.55484838D+05 0.55484838D+05 0.11878307D+01  1  2  2  2  6  2       -2 0.719311140156D-01 0.100000000000D+01
0.184388874191D-04 0.292611756198D-04 -.212938282767D-05 0.359279803053D-05 0.000000000000D+00  6 1 -2 25 -24 21 21 4 0.82135694D-01 0.17952408D-01 0.55484838D+05 0.55484838D+05 0.55484838D+05 0.11878307D+01  1  2  3  2  6  2       -2 0.337495383654D-02 0.100000000000D+01
0.100084700990D-04 0.000000000000D+00 0.000000000000D+00 0.359279803053D-05 0.000000000000D+00  6 1 -2 25 -24 21 21 4 0.82135694D-01 0.17952408D-01 0.55484838D+05 0.55484838D+05 0.55484838D+05 0.11878307D+01  1  2 15  2  6  2       -2 0.183189602447D-02 0.100000000000D+01
-.306979861323D-04 0.000000000000D+00 0.000000000000D+00 0.359279803053D-05 0.000000000000D+00  6 1 -2 25 -24 21 21 4 0.82135694D-01 0.17952408D-01 0.55484838D+05 0.55484838D+05 0.55484838D+05 0.11878307D+01  1  2  4  2  6  2       -2 -.561879270243D-02 0.100000000000D+01
  </mgrwgt>
  </event>
  <event>
  5     66 0.44337718E-03 0.21465756E+02 0.75467711E-02 0.11546999E+00
        1 -1    0    0  502    0 0.00000000E+00 0.00000000E+00 0.41009978E+02 0.41011226E+02 0.32000000E+00 0.0000E+00 0.9000E+01
       -2 -1    0    0    0  501 0.00000000E+00 0.00000000E+00 -.52086440E+03 0.52086450E+03 0.32000000E+00 0.0000E+00 0.9000E+01
       25  1    1    2    0    0 0.64244922E+02 -.42184314E+02 -.33142058E+03 0.36245211E+03 0.12500000E+03 0.0000E+00 0.9000E+01
      -24  1    1    2    0    0 -.43339922E+02 0.47016429E+02 -.87960107E+02 0.13525195E+03 0.80419002E+02 0.0000E+00 0.9000E+01
       21  1    1    2  502  501 -.20905000E+02 -.48321154E+01 -.60473735E+02 0.64171672E+02 0.75000000E+00 0.0000E+00 0.9000E+01
#aMCatNLO 1  0  0  2  2 0.10056647D+03 0.00000000D+00  -5  6  0 0.00000000D+00 0.00000000D+00 0.00000000D+00 0.00000000D+00 0.00000000D+00
  <mgrwgt>
 0.2829737090D+00    3    2    0
 0.146154083054346D+03 0.000000000000000D+00 0.000000000000000D+00 0.146154083054346D+03
 0.146154083054346D+03 0.000000000000000D+00 0.000000000000000D+00 -.146154083054346D+03
 0.152646225012645D+03 0.642502226032475D+02 -.421830884361288D+02 -.420519435464502D+02
 0.115585862491920D+03 -.433359083822890D+02 0.470173567421863D+02 0.529551023348112D+02
 0.240760786041280D+02 -.209143142209585D+02 -.483426830605751D+01 -.109031587883610D+02
 0.000000000000000D+00 -.000000000000000D+00 -.000000000000000D+00 0.000000000000000D+00
 0.280799047307358D+03 0.000000000000000D+00 0.000000000000000D+00 0.280799047307358D+03
 0.174591044284287D+03 0.000000000000000D+00 0.000000000000000D+00 -.174591044284287D+03
 0.171820012019131D+03 0.109454841082268D+03 -.121814751929269D+02 -.420519435464502D+02
 0.118757810583851D+03 -.106871606072621D+02 0.686858308180332D+02 0.529551023348112D+02
 0.185462281679669D+02 -.149761767618686D+02 -.893217381907677D+00 -.109031587883610D+02
 0.146266040820696D+03 -.837915037131372D+02 -.556111382431986D+02 0.106208003023071D+03
0.918049317812D-03 0.000000000000D+00 0.000000000000D+00 0.408041953000D-04 0.000000000000D+00  6 1 -2 25 -24 21 21 2 0.63093310D-02 0.80133089D-01 0.18353069D+05 0.18353069D+05 0.18353069D+05 0.12379561D+01  1  2  2  2  6  2       -2 0.204134840347D+00 0.100000000000D+01
0.190313848078D-03 0.484467935014D-04 -.352555110833D-05 0.408041953000D-04 0.000000000000D+00  6 1 -2 25 -24 21 21 4 0.63093310D-02 0.80133089D-01 0.18353069D+05 0.18353069D+05 0.18353069D+05 0.12379561D+01  1  2  3  2  6  2       -2 0.648532855592D-01 0.100000000000D+01
0.410410992913D-04 0.000000000000D+00 0.000000000000D+00 0.408041953000D-04 0.000000000000D+00  6 1 -2 25 -24 21 21 4 0.63093310D-02 0.80133089D-01 0.18353069D+05 0.18353069D+05 0.18353069D+05 0.12379561D+01  1  2 15  2  6  2       -2 0.139855830718D-01 0.100000000000D+01
  </mgrwgt>
  </event>
  <event>
  5     66 0.44337718E-03 0.27992665E+02 0.75467711E-02 0.11905580E+00
        1 -1    0    0  502    0 0.00000000E+00 0.00000000E+00 0.10196406E+04 0.10196407E+04 0.32000000E+00 0.0000E+00 0.9000E+01
       -2 -1    0    0    0  501 0.00000000E+00 0.00000000E+00 -.16904544E+02 0.16907572E+02 0.32000000E+00 0.0000E+00 0.9000E+01
       25  1    1    2    0    0 -.12423467E+02 -.94091586E+00 0.55375376E+03 0.56782344E+03 0.12500000E+03 0.0000E+00 0.9000E+01
      -24  1    1    2    0    0 -.98723604E+01 -.15980715E+02 0.42141807E+03 0.42943364E+03 0.80419002E+02 0.0000E+00 0.9000E+01
       21  1    1    2  502  501 0.22295827E+02 0.16921631E+02 0.27564248E+02 0.39291167E+02 0.75000000E+00 0.0000E+00 0.9000E+01
#aMCatNLO 1  0  0  1  1 0.17238666D+03 0.00000000D+00  -5  6  0 0.00000000D+00 0.00000000D+00 0.00000000D+00 0.00000000D+00 0.00000000D+00
  <mgrwgt>
 0.2118890465D+00    3    2    0
 0.131294154840161D+03 0.000000000000000D+00 0.000000000000000D+00 0.131294154840161D+03
 0.131294154840161D+03 0.000000000000000D+00 0.000000000000000D+00 -.131294154840161D+03
 0.126843527423387D+03 -.124246864728077D+02 -.941841495334568D+00 0.175789803418041D+02
 0.859053868509636D+02 -.987318635591469D+01 -.159813423050790D+02 0.236566359601794D+02
 0.498393954059724D+02 0.222978728287223D+02 0.169231838004136D+02 -.412356163019835D+02
 0.000000000000000D+00 -.000000000000000D+00 -.000000000000000D+00 -.000000000000000D+00
 0.143113475223232D+03 0.000000000000000D+00 0.000000000000000D+00 0.143113475223232D+03
 0.287367205046121D+03 0.000000000000000D+00 0.000000000000000D+00 -.287367205046121D+03
 0.127781600298259D+03 0.198395296236072D+02 -.714065291498420D+00 0.175789803418041D+02
 0.861371475139721D+02 0.119267732796217D+02 -.158274407804077D+02 0.236566359601794D+02
 0.572398762542936D+02 0.358661674868612D+02 0.170189721078228D+02 -.412356163019835D+02
 0.159322056202828D+03 -.676324703900900D+02 -.477466035916712D+00 -.144253729822890D+03
0.166480045610D-03 0.000000000000D+00 0.000000000000D+00 0.374963856524D-04 0.000000000000D+00  6 1 -2 25 -24 21 21 2 0.15686802D+00 0.26009359D-02 0.13947145D+05 0.13947145D+05 0.13947145D+05 0.12514418D+01  1  2  2  1  6  1        1 0.178852156495D+00 0.100000000000D+01
0.116223178873D-04 0.878539337190D-05 -.639327210346D-06 0.374963856524D-04 0.000000000000D+00  6 1 -2 25 -24 21 21 4 0.15686802D+00 0.26009359D-02 0.13947145D+05 0.13947145D+05 0.13947145D+05 0.12514418D+01  1  2  3  1  6  1        1 0.195544711297D-01 0.100000000000D+01
0.801335701357D-05 0.000000000000D+00 0.000000000000D+00 0.374963856524D-04 0.000000000000D+00  6 1 -2 25 -24 21 21 4 0.15686802D+00 0.26009359D-02 0.13947145D+05 0.13947145D+05 0.13947145D+05 0.12514418D+01  1  2 15  1  6  1        1 0.134824189024D-01 0.100000000000D+01
  </mgrwgt>
  </event>
  <event>
  5     66 -.44337718E-03 0.23149307E+02 0.75467711E-02 0.11384452E+00
        3 -1    0    0  502    0 0.00000000E+00 0.00000000E+00 0.15511390E+03 0.15511471E+03 0.50000000E+00 0.0000E+00 0.9000E+01
       -4 -1    0    0    0  501 0.00000000E+00 0.00000000E+00 -.50465397E+03 0.50465635E+03 0.15500000E+01 0.0000E+00 0.9000E+01
       25  1    1    2    0    0 0.18262370E+03 -.75683040E+01 -.10879256E+03 0.24671748E+03 0.12500000E+03 0.0000E+00 0.9000E+01
      -24  1    1    2    0    0 -.16352322E+03 0.20646830E+02 -.12700268E+02 0.18383320E+03 0.80419002E+02 0.0000E+00 0.9000E+01
       21  1    1    2  502  501 -.19100480E+02 -.13078526E+02 -.22804723E+03 0.22922037E+03 0.75000000E+00 0.0000E+00 0.9000E+01
#aMCatNLO 1  0  0  1  1 0.17238666D+03 0.00000000D+00  -5  6  0 0.00000000D+00 0.00000000D+00 0.00000000D+00 0.00000000D+00 0.00000000D+00
  <mgrwgt>
 -.1911991476D-01    1    2    0
 0.279785448767647D+03 0.000000000000000D+00 0.000000000000000D+00 0.279785448767647D+03
 0.279785448767647D+03 0.000000000000000D+00 0.000000000000000D+00 -.279785448767647D+03
 0.222938340897344D+03 0.182623826987809D+03 -.756821433473672D+01 0.258411259462690D+02
 0.208818473406179D+03 -.163523092811891D+03 0.206469136090048D+02 0.998591105356569D+02
 0.127814083231770D+03 -.191007341759177D+02 -.130786992742681D+02 -.125700236481926D+03
 0.000000000000000D+00 -.000000000000000D+00 0.000000000000000D+00 -.000000000000000D+00
 0.381451549810170D+03 0.000000000000000D+00 0.000000000000000D+00 0.381451549810170D+03
 0.570858539152702D+03 0.000000000000000D+00 0.000000000000000D+00 -.570858539152702D+03
 0.333660645619827D+03 0.305257841590135D+03 -.430617323502089D+02 0.258411259462690D+02
 0.153172549831648D+03 -.837665472467669D+02 -.243673407265446D+01 0.998591105356569D+02
 0.134886085390508D+03 0.387793142884972D+02 -.298307117527795D+02 -.125700236481926D+03
 0.330590808120887D+03 -.260270608631865D+03 0.753291781756428D+02 -.189406989342532D+03
-.179685126667D-02 0.000000000000D+00 0.000000000000D+00 0.352036843044D-04 0.000000000000D+00  6 3 -4 25 -24 21 21 4 0.23863922D-01 0.77639317D-01 0.45791466D+05 0.45791466D+05 0.45791466D+05 0.11960821D+01  1  2 14  1  6  1        3 -.191199147578D-01 0.100000000000D+01
  </mgrwgt>
  </event>
  <event>
  6     66 -.44337718E-03 0.20372431E+02 0.75467711E-02 0.12220374E+00
        1 -1    0    0  503    0 0.00000000E+00 0.00000000E+00 0.28526096E+03 0.28526114E+03 0.32000000E+00 0.0000E+00 0.9000E+01
       -2 -1    0    0    0  501 0.00000000E+00 0.00000000E+00 -.16274800E+03 0.16274831E+03 0.32000000E+00 0.0000E+00 0.9000E+01
       25  1    1    2    0    0 -.37918531E+02 -.43651532E+02 0.15560074E+03 0.20779765E+03 0.12500000E+03 0.0000E+00 0.9000E+01
      -24  1    1    2    0    0 0.15066106E+02 0.56174553E+02 0.56446504E+02 0.11417527E+03 0.80419002E+02 0.0000E+00 0.9000E+01
       21  1    1    2  502  501 0.17270645E+02 -.16285305E+02 -.10579165E+03 0.10842473E+03 0.75000000E+00 0.0000E+00 0.9000E+01
       21  1    1    2  503  502 0.55817803E+01 0.37622843E+01 0.16257374E+02 0.17611807E+02 0.75000000E+00 0.0000E+00 0.9000E+01
#aMCatNLO 2  0  0  1  5 0.67313486D+01 0.00000000D+00  -5  6  0 0.00000000D+00 0.00000000D+00 0.00000000D+00 0.00000000D+00 0.00000000D+00
  <mgrwgt>
 -.9995743985D+00    3    2    0
 0.208510534727346D+03 0.000000000000000D+00 0.000000000000000D+00 0.208510534727346D+03
 0.208510534727346D+03 0.000000000000000D+00 0.000000000000000D+00 -.208510534727346D+03
 0.173915678376658D+03 -.355850841321082D+02 -.420785505508562D+02 0.107632525549032D+03
 0.104163839909398D+03 0.164553333062422D+02 0.571110346369415D+02 0.291623270467014D+02
 0.138941551168636D+03 0.191297508258660D+02 -.150324840860853D+02 -.136794852595734D+03
 0.000000000000000D+00 0.000000000000000D+00 0.000000000000000D+00 0.000000000000000D+00
 0.221688318276715D+03 0.000000000000000D+00 0.000000000000000D+00 0.221688318276715D+03
 0.209399082633975D+03 0.000000000000000D+00 0.000000000000000D+00 -.209399082633975D+03
 0.174794260605082D+03 -.379186538560519D+02 -.436514452699932D+02 0.107632525549032D+03
 0.103441911263355D+03 0.150660339450941D+02 0.561746059517264D+02 0.291623270467014D+02
 0.138839221103770D+03 0.172708396575711D+02 -.162854449597011D+02 -.136794852595734D+03
 0.140120079384834D+02 0.558178025338666D+01 0.376228427796789D+01 0.122892356427395D+02
-.618155665463D-02 0.000000000000D+00 0.000000000000D+00 0.613164771426D-04 0.000000000000D+00  6 1 -2 25 -24 21 21 4 0.44015197D-01 0.24930756D-01 0.17881159D+05 0.17881159D+05 0.17881159D+05 0.12392165D+01  1  2 13  1  6  1        1 -.167762377144D+01 0.100000000000D+01
-.208874977323D-02 0.000000000000D+00 0.000000000000D+00 0.615535723269D-04 0.000000000000D+00  6 1 -2 25 -24 21 21 4 0.41275642D-01 0.24930756D-01 0.17021946D+05 0.17021946D+05 0.17021946D+05 0.12416100D+01  1  2  8  1  6  1        1 -.618008705536D+00 0.100000000000D+01
0.479349421592D-02 0.000000000000D+00 0.000000000000D+00 0.615535723269D-04 0.580469004365D-05  6 1 -2 25 -24 21 21 4 0.43884246D-01 0.25036996D-01 0.17881159D+05 0.17881159D+05 0.17881159D+05 0.12392165D+01  1  2  1  1  6  1        1 0.129605807852D+01 0.100000000000D+01
  </mgrwgt>
  </event>
  <event>
  5     66 0.44337718E-03 0.68148188E+02 0.75467711E-02 0.11102997E+00
        1 -1    0    0  502    0 0.00000000E+00 0.00000000E+00 0.73619160E+02 0.73619856E+02 0.32000000E+00 0.0000E+00 0.9000E+01
       -2 -1    0    0    0  501 -.00000000E+00 -.00000000E+00 -.10402484E+04 0.10402484E+04 0.32000000E+00 0.0000E+00 0.9000E+01
       25  1    1    2    0    0 -.15070168E+03 -.88799860E+02 -.37935350E+03 0.43603955E+03 0.12500000E+03 0.0000E+00 0.9000E+01
      -24  1    1    2    0    0 0.20972625E+03 0.54740413E+02 -.28011586E+03 0.36319928E+03 0.80419002E+02 0.0000E+00 0.9000E+01
       21  1    1    2  502  501 -.59024565E+02 0.34059447E+02 -.30715986E+03 0.31462944E+03 0.75000000E+00 0.0000E+00 0.9000E+01
#aMCatNLO 1  0  0  5  1 0.50798207D+02 0.00000000D+00  -5  6  0 0.00000000D+00 0.00000000D+00 0.00000000D+00 0.00000000D+00 0.00000000D+00
  <mgrwgt>
 0.5994216439D-01    9    2    0
 0.276735661970677D+03 0.000000000000000D+00 0.000000000000000D+00 0.276735661970677D+03
 0.276735661970677D+03 -.000000000000000D+00 -.000000000000000D+00 -.276735661970677D+03
 0.214999881343032D+03 -.150700994175181D+03 -.888002575073112D+02 -.191666344600963D+01
 0.241726082686400D+03 0.209727023147055D+03 0.547399656689973D+02 0.705860823177862D+02
 0.967453599119214D+02 -.590260289718746D+02 0.340602918383139D+02 -.686694188717766D+02
 0.000000000000000D+00 0.000000000000000D+00 0.000000000000000D+00 0.000000000000000D+00
 0.276735661970677D+03 0.000000000000000D+00 0.000000000000000D+00 0.276735661970677D+03
 0.276735661970677D+03 -.000000000000000D+00 -.000000000000000D+00 -.276735661970677D+03
 0.227164176748662D+03 -.171456790339912D+03 -.768233638042947D+02 -.260634421753106D+02
 0.220025672168693D+03 0.188051753239677D+03 0.672474311309094D+02 0.453696106297139D+02
 0.511154506986513D+02 -.420341455075340D+02 0.182831126862698D+01 0.290271801848324D+02
 0.551660243253475D+02 0.254391826077698D+02 0.774762140475834D+01 -.483333486392357D+02
0.236040565115D-02 0.000000000000D+00 0.000000000000D+00 0.347995926776D-05 0.000000000000D+00  6 1 -2 25 -24 21 21 2 0.11326082D-01 0.16003827D+00 0.66133876D+05 0.66133876D+05 0.66133876D+05 0.11804375D+01  1  2  2  3  6  5       21 0.420011996809D-01 0.100000000000D+01
0.124290276855D-03 0.124562028360D-03 -.906457920949D-05 0.347995926776D-05 0.000000000000D+00  6 1 -2 25 -24 21 21 4 0.11326082D-01 0.16003827D+00 0.66133876D+05 0.66133876D+05 0.66133876D+05 0.11804375D+01  1  2  3  3  6  5       21 0.308175577039D-02 0.100000000000D+01
0.144208751097D-04 0.000000000000D+00 0.000000000000D+00 0.347995926776D-05 0.000000000000D+00  6 1 -2 25 -24 21 21 4 0.11326082D-01 0.16003827D+00 0.66133876D+05 0.66133876D+05 0.66133876D+05 0.11804375D+01  1  2 15  3  6  5       21 0.357563087058D-03 0.100000000000D+01
0.898739542859D-03 0.000000000000D+00 0.000000000000D+00 0.348448212977D-05 0.000000000000D+00  6 1 -2 25 -24 21 21 4 0.11326082D-01 0.16003827D+00 0.64930166D+05 0.64930166D+05 0.64930166D+05 0.11812044D+01  1  2 12  3  6  5       21 0.223439227508D-01 0.100000000000D+01
-.459357809517D-03 0.000000000000D+00 0.000000000000D+00 0.347995926776D-05 0.000000000000D+00  6 1 -2 25 -24 21 21 4 0.11326082D-01 0.16003827D+00 0.66133876D+05 0.66133876D+05 0.66133876D+05 0.11804375D+01  1  2  4  3  6  5       21 -.113896968932D-01 0.100000000000D+01
0.356719661754D-04 0.000000000000D+00 0.000000000000D+00 0.348448212977D-05 0.000000000000D+00  6 1 -2 25 -24 1 -1 4 0.11326082D-01 0.16003827D+00 0.64930166D+05 0.64930166D+05 0.64930166D+05 0.11812044D+01  1  2 12  6  6  5       21 0.886854999234D-03 0.100000000000D+01
0.356719661754D-04 0.000000000000D+00 0.000000000000D+00 0.348448212977D-05 0.000000000000D+00  6 1 -2 25 -24 2 -2 4 0.11326082D-01 0.16003827D+00 0.64930166D+05 0.64930166D+05 0.64930166D+05 0.11812044D+01  1  2 12  7  6  5       21 0.886854999234D-03 0.100000000000D+01
0.356719661754D-04 0.000000000000D+00 0.000000000000D+00 0.348448212977D-05 0.000000000000D+00  6 1 -2 25 -24 3 -3 4 0.11326082D-01 0.16003827D+00 0.64930166D+05 0.64930166D+05 0.64930166D+05 0.11812044D+01  1  2 12  8  6  5       21 0.886854999234D-03 0.100000000000D+01
0.356719661754D-04 0.000000000000D+00 0.000000000000D+00 0.348448212977D-05 0.000000000000D+00  6 1 -2 25 -24 4 -4 4 0.11326082D-01 0.16003827D+00 0.64930166D+05 0.64930166D+05 0.64930166D+05 0.11812044D+01  1  2 12  8  6  5       21 0.886854999234D-03 0.100000000000D+01
  </mgrwgt>
  </event>
  <event>
  6     66 0.44337718E-03 0.31660874E+02 0.75467711E-02 0.11808600E+00
        1 -1    0    0  503    0 0.00000000E+00 0.00000000E+00 0.26797519E+03 0.26797538E+03 0.32000000E+00 0.0000E+00 0.9000E+01
       -2 -1    0    0    0  501 0.00000000E+00 0.00000000E+00 -.14221510E+03 0.14221546E+03 0.32000000E+00 0.0000E+00 0.9000E+01
       25  1    1    2    0    0 0.36976584E+02 0.36045462E+02 0.19358834E+02 0.13662470E+03 0.12500000E+03 0.0000E+00 0.9000E+01
      -24  1    1    2    0    0 -.32083157E+02 -.47783720E+02 0.13681958E+03 0.16881773E+03 0.80419002E+02 0.0000E+00 0.9000E+01
       21  1    1    2  502  501 0.43912561E+02 -.12492141E+02 -.15934506E+02 0.48361530E+02 0.75000000E+00 0.0000E+00 0.9000E+01
       21  1    1    2  503  502 -.48805988E+02 0.24230399E+02 -.14483826E+02 0.56386882E+02 0.75000000E+00 0.0000E+00 0.9000E+01
#aMCatNLO 2  0  0  1  2 0.54339689D+02 0.00000000D+00  -5  6  0 0.00000000D+00 0.00000000D+00 0.00000000D+00 0.00000000D+00 0.00000000D+00
  <mgrwgt>
 0.1981639859D-02    1    2    0
 0.160109143275841D+03 0.000000000000000D+00 0.000000000000000D+00 0.160109143275841D+03
 0.160109143275841D+03 0.000000000000000D+00 0.000000000000000D+00 -.160109143275841D+03
 0.139567148888900D+03 0.157873708512821D+02 0.465647265342051D+02 -.379008471326847D+02
 0.127877600602069D+03 -.512035636348951D+02 -.382915090266151D+02 0.761407918853200D+02
 0.527735370607138D+02 0.354161927836130D+02 -.827321750758996D+01 -.382399447526353D+02
 0.000000000000000D+00 -.000000000000000D+00 0.000000000000000D+00 -.000000000000000D+00
 0.176183658951609D+03 0.000000000000000D+00 0.000000000000000D+00 0.176183658951609D+03
 0.216304810009461D+03 0.000000000000000D+00 0.000000000000000D+00 -.216304810009461D+03
 0.140456130330211D+03 0.369749270878165D+02 0.360458749486383D+02 -.379008471326847D+02
 0.124809076522924D+03 -.320843918405403D+02 -.477834829144290D+02 0.761407918853200D+02
 0.595561098370425D+02 0.439154529783841D+02 -.124927912789980D+02 -.382399447526353D+02
 0.676671522708921D+02 -.488059882256604D+02 0.242303992447887D+02 -.401211510578516D+02
0.571515641872D-05 0.000000000000D+00 0.000000000000D+00 0.140106457008D-04 0.698377183037D-08  6 1 -2 25 -24 21 21 4 0.41226530D-01 0.21879042D-01 0.27936916D+05 0.27936916D+05 0.27936916D+05 0.12181594D+01  1  2  1  1  6  1        1 0.198163985919D-02 0.100000000000D+01
  </mgrwgt>
  </event>
  <event>
  5     66 0.44337718E-03 0.27925823E+02 0.75467711E-02 0.11848073E+00
        1 -1    0    0  502    0 0.00000000E+00 0.00000000E+00 0.32524653E+04 0.32524653E+04 0.32000000E+00 0.0000E+00 0.9000E+01
       -2 -1    0    0    0  501 0.00000000E+00 0.00000000E+00 -.87070638E+01 0.87129421E+01 0.32000000E+00 0.0000E+00 0.9000E+01
       25  1    1    2    0    0 0.73548100E+02 0.25500759E+02 0.16547330E+04 0.16612724E+04 0.12500000E+03 0.0000E+00 0.9000E+01
      -24  1    1    2    0    0 -.49487146E+02 -.11329169E+02 0.42354396E+03 0.43408989E+03 0.80419002E+02 0.0000E+00 0.9000E+01
       21  1    1    2  502  501 -.24060954E+02 -.14171590E+02 0.11654812E+04 0.11658159E+04 0.75000000E+00 0.0000E+00 0.9000E+01
#aMCatNLO 1  0  0  2  2 0.60224155D+02 0.00000000D+00  -5  6  0 0.00000000D+00 0.00000000D+00 0.00000000D+00 0.00000000D+00 0.00000000D+00
  <mgrwgt>
 0.1176709396D+00    4    2    0
 0.168312309628327D+03 0.000000000000000D+00 0.000000000000000D+00 0.168312309628327D+03
 0.168312309628327D+03 0.000000000000000D+00 0.000000000000000D+00 -.168312309628327D+03
 0.148983814252222D+03 0.735488417574717D+02 0.255011957400560D+02 0.226149021908614D+02
 0.124086331143962D+03 -.494865285203140D+02 -.113288050440336D+02 -.797053529800904D+02
 0.635544738604701D+02 -.240623132371578D+02 -.141723906960223D+02 0.570904507892290D+02
 0.000000000000000D+00 -.000000000000000D+00 -.000000000000000D+00 0.000000000000000D+00
 0.234845196272245D+03 0.000000000000000D+00 0.000000000000000D+00 0.234845196272245D+03
 0.185183429936246D+03 0.000000000000000D+00 0.000000000000000D+00 -.185183429936246D+03
 0.164743222868363D+03 0.963495761492556D+02 0.414807769432034D+02 0.226149021908614D+02
 0.117643140165919D+03 -.319183599601893D+02 0.983604340387531D+00 -.797053529800904D+02
 0.595830554334879D+02 -.151130491735288D+02 -.790042202361413D+01 0.570904507892290D+02
 0.780592077407217D+02 -.493181670155375D+02 -.345639592599768D+02 0.496617663359988D+02
0.108137705419D-02 0.000000000000D+00 0.000000000000D+00 0.257425938235D-04 0.000000000000D+00  6 1 -2 25 -24 21 21 2 0.50037973D+00 0.13400017D-02 0.18263586D+05 0.18263586D+05 0.18263586D+05 0.12381923D+01  1  2  2  2  6  2       -2 0.998936017587D-01 0.100000000000D+01
0.931099202776D-04 0.570658349449D-04 -.415277262121D-05 0.257425938235D-04 0.000000000000D+00  6 1 -2 25 -24 21 21 4 0.50037973D+00 0.13400017D-02 0.18263586D+05 0.18263586D+05 0.18263586D+05 0.12381923D+01  1  2  3  2  6  2       -2 0.131865943071D-01 0.100000000000D+01
0.569812166285D-04 0.000000000000D+00 0.000000000000D+00 0.257425938235D-04 0.000000000000D+00  6 1 -2 25 -24 21 21 4 0.50037973D+00 0.13400017D-02 0.18263586D+05 0.18263586D+05 0.18263586D+05 0.12381923D+01  1  2 15  2  6  2       -2 0.806990473801D-02 0.100000000000D+01
-.245661932989D-04 0.000000000000D+00 0.000000000000D+00 0.257425938235D-04 0.000000000000D+00  6 1 -2 25 -24 21 21 4 0.50037973D+00 0.13400017D-02 0.18263586D+05 0.18263586D+05 0.18263586D+05 0.12381923D+01  1  2  4  2  6  2       -2 -.347916122939D-02 0.100000000000D+01
  </mgrwgt>
  </event>
  <event>
  5     66 0.44337718E-03 0.24802563E+02 0.75467711E-02 0.11746154E+00
        1 -1    0    0  502    0 0.00000000E+00 0.00000000E+00 0.41406606E+03 0.41406618E+03 0.32000000E+00 0.0000E+00 0.9000E+01
       -2 -1    0    0    0  501 0.00000000E+00 0.00000000E+00 -.59935271E+02 0.59936125E+02 0.32000000E+00 0.0000E+00 0.9000E+01
       25  1    1    2    0    0 -.31828608E+02 0.45602953E+02 0.68238289E+02 0.15288608E+03 0.12500000E+03 0.0000E+00 0.9000E+01
      -24  1    1    2    0    0 0.47425473E+02 -.64875107E+02 0.26614821E+03 0.28941327E+03 0.80419002E+02 0.0000E+00 0.9000E+01
       21  1    1    2  502  501 -.15596866E+02 0.19272154E+02 0.19744294E+02 0.31702962E+02 0.75000000E+00 0.0000E+00 0.9000E+01
#aMCatNLO 1  0  0  1  2 0.54339689D+02 0.00000000D+00  -5  6  0 0.00000000D+00 0.00000000D+00 0.00000000D+00 0.00000000D+00 0.00000000D+00
  <mgrwgt>
 0.2141892388D+00    7    4    0
 0.157535371439043D+03 0.000000000000000D+00 0.000000000000000D+00 0.157535371439043D+03
 0.157535371439043D+03 0.000000000000000D+00 0.000000000000000D+00 -.157535371439043D+03
 0.153306217092141D+03 -.318253238777119D+02 0.455988956666712D+02 -.691786504144266D+02
 0.136262528273313D+03 0.474283922234738D+02 -.648787136993096D+02 0.751103240366077D+02
 0.255019975126312D+02 -.156030683457620D+02 0.192798180326384D+02 -.593167362218111D+01
 0.000000000000000D+00 0.000000000000000D+00 0.000000000000000D+00 0.000000000000000D+00
 0.243142013597714D+03 0.000000000000000D+00 0.000000000000000D+00 0.243142013597714D+03
 0.172950438123315D+03 0.000000000000000D+00 0.000000000000000D+00 -.172950438123315D+03
 0.154702003262406D+03 -.540981948836024D+02 0.244010133104337D+02 -.691786504144266D+02
 0.141097483985837D+03 0.273717724094662D+02 -.839673110861788D+02 0.751103240366077D+02
 0.256142310528968D+02 -.192994150336429D+02 0.157618736142092D+02 -.593167362218111D+01
 0.946787334198888D+02 0.460258375077792D+02 0.438044241615359D+02 0.701915754743981D+02
 0.157535371439043D+03 0.000000000000000D+00 0.000000000000000D+00 0.157535371439043D+03
 0.157535371439043D+03 0.000000000000000D+00 0.000000000000000D+00 -.157535371439043D+03
 0.153306217092141D+03 -.318253238777119D+02 0.455988956666712D+02 -.691786504144266D+02
 0.136262528273313D+03 0.474283922234738D+02 -.648787136993096D+02 0.751103240366077D+02
 0.000000000000000D+00 0.000000000000000D+00 0.000000000000000D+00 0.000000000000000D+00
 0.255019975126312D+02 -.156030683457620D+02 0.192798180326384D+02 -.593167362218111D+01
 0.243142013597714D+03 0.000000000000000D+00 0.000000000000000D+00 0.243142013597714D+03
 0.172950438123315D+03 0.000000000000000D+00 0.000000000000000D+00 -.172950438123315D+03
 0.154702003262406D+03 -.540981948836024D+02 0.244010133104337D+02 -.691786504144266D+02
 0.141097483985837D+03 0.273717724094662D+02 -.839673110861788D+02 0.751103240366077D+02
 0.946787334198888D+02 0.460258375077792D+02 0.438044241615359D+02 0.701915754743981D+02
 0.256142310528968D+02 -.192994150336429D+02 0.157618736142092D+02 -.593167362218111D+01
0.175954504884D-03 0.000000000000D+00 0.000000000000D+00 0.253233228458D-04 0.000000000000D+00  6 1 -2 25 -24 21 21 2 0.63702546D-01 0.92208861D-02 0.18948245D+05 0.18948245D+05 0.18948245D+05 0.12364173D+01  1  2  2  1  6  1        1 0.100003922336D+00 0.100000000000D+01
0.314870265332D-04 0.928537432398D-05 -.675711628639D-06 0.253233228458D-04 0.000000000000D+00  6 1 -2 25 -24 21 21 4 0.63702546D-01 0.92208861D-02 0.18948245D+05 0.18948245D+05 0.18948245D+05 0.12364173D+01  1  2  3  1  6  1        1 0.273576274139D-01 0.100000000000D+01
0.421763741188D-05 0.000000000000D+00 0.000000000000D+00 0.253233228458D-04 0.000000000000D+00  6 1 -2 25 -24 21 21 4 0.63702546D-01 0.92208861D-02 0.18948245D+05 0.18948245D+05 0.18948245D+05 0.12364173D+01  1  2 15  1  6  1        1 0.366451092989D-02 0.100000000000D+01
-.117367103892D-03 0.000000000000D+00 0.000000000000D+00 0.253233228458D-04 0.000000000000D+00  6 1 -2 25 -24 21 21 4 0.63702546D-01 0.92208861D-02 0.18948245D+05 0.18948245D+05 0.18948245D+05 0.12364173D+01  1  2  4  1  6  1        1 -.101974871954D+00 0.100000000000D+01
-.435880413671D-03 0.000000000000D+00 -.136035452844D-03 0.253233228458D-04 0.000000000000D+00  6 1 -2 25 -24 21 21 4 0.10455808D+00 0.92208861D-02 0.18948245D+05 0.18948245D+05 0.18948245D+05 0.12364173D+01  1  2  5  1  6  1        1 -.196168219599D+00 0.100000000000D+01
0.460708340807D-03 0.000000000000D+00 0.120887970091D-03 0.253233228458D-04 0.000000000000D+00  6 1 -2 25 -24 21 21 4 0.63702546D-01 0.92208861D-02 0.18948245D+05 0.18948245D+05 0.18948245D+05 0.12364173D+01  1  2  6  1  6  1        1 0.400288262245D+00 0.100000000000D+01
-.183281797237D-04 0.000000000000D+00 -.761561127931D-05 0.253233228458D-04 0.000000000000D+00  6 21 -2 25 -24 -1 21 4 0.10455808D+00 0.92208861D-02 0.18948245D+05 0.18948245D+05 0.18948245D+05 0.12364173D+01  3  4  5  4  5  1        1 -.189819925703D-01 0.100000000000D+01
  </mgrwgt>
  </event>
  <event>
  5     66 0.44337718E-03 0.31724080E+02 0.75467711E-02 0.11076880E+00
        1 -1    0    0  502    0 0.00000000E+00 0.00000000E+00 0.42858509E+02 0.42859704E+02 0.32000000E+00 0.0000E+00 0.9000E+01
       -2 -1    0    0    0  501 0.00000000E+00 0.00000000E+00 -.54277486E+03 0.54277496E+03 0.32000000E+00 0.0000E+00 0.9000E+01
       25  1    1    2    0    0 0.59624459E+02 -.34951044E+02 -.21945602E+03 0.26184460E+03 0.12500000E+03 0.0000E+00 0.9000E+01
      -24  1    1    2    0    0 -.88497942E+02 0.48076542E+02 -.20805823E+03 0.24474208E+03 0.80419002E+02 0.0000E+00 0.9000E+01
       21  1    1    2  502  501 0.28873483E+02 -.13125498E+02 -.72402098E+02 0.79047979E+02 0.75000000E+00 0.0000E+00 0.9000E+01
#aMCatNLO 1  0  0  1  2 0.54339689D+02 0.00000000D+00  -5  6  0 0.00000000D+00 0.00000000D+00 0.00000000D+00 0.00000000D+00 0.00000000D+00
  <mgrwgt>
 0.1029894214D+00    3    2    0
 0.152521798027665D+03 0.000000000000000D+00 0.000000000000000D+00 0.152521798027665D+03
 0.152521798027665D+03 0.000000000000000D+00 0.000000000000000D+00 -.152521798027665D+03
 0.143045393831136D+03 0.596209828066898D+02 -.349494633297821D+02 0.780116135132653D+01
 0.128894860443945D+03 -.885010742122061D+02 0.480779659485721D+02 0.165473503227924D+01
 0.331033417802499D+02 0.288800914055163D+02 -.131285026187900D+02 -.945589638360576D+01
 0.000000000000000D+00 -.000000000000000D+00 0.000000000000000D+00 -.000000000000000D+00
 0.222287696974545D+03 0.000000000000000D+00 0.000000000000000D+00 0.222287696974545D+03
 0.326071413128347D+03 0.000000000000000D+00 0.000000000000000D+00 -.326071413128347D+03
 0.199248600831937D+03 0.147777365905665D+03 -.466475823707750D+02 0.780116135132653D+01
 0.951446886344934D+02 -.308006277368852D+02 0.404212692028705D+02 0.165473503227924D+01
 0.548105828980233D+02 0.515219540864579D+02 -.161330179543852D+02 -.945589638360576D+01
 0.199155237738439D+03 -.168498692255237D+03 0.223593311222896D+02 -.103783716153802D+03
0.431588396838D-03 0.000000000000D+00 0.000000000000D+00 0.206323550288D-04 0.000000000000D+00  6 1 -2 25 -24 21 21 2 0.65937160D-02 0.83503924D-01 0.23019084D+05 0.23019084D+05 0.23019084D+05 0.12271602D+01  1  2  2  1  6  1        1 0.816042636131D-01 0.100000000000D+01
0.599276681201D-04 0.227755454239D-04 -.165741308369D-05 0.206323550288D-04 0.000000000000D+00  6 1 -2 25 -24 21 21 4 0.65937160D-02 0.83503924D-01 0.23019084D+05 0.23019084D+05 0.23019084D+05 0.12271602D+01  1  2  3  1  6  1        1 0.170636911971D-01 0.100000000000D+01
0.151769867933D-04 0.000000000000D+00 0.000000000000D+00 0.206323550288D-04 0.000000000000D+00  6 1 -2 25 -24 21 21 4 0.65937160D-02 0.83503924D-01 0.23019084D+05 0.23019084D+05 0.23019084D+05 0.12271602D+01  1  2 15  1  6  1        1 0.432146659578D-02 0.100000000000D+01
  </mgrwgt>
  </event>
  <event>
  5     66 -.44337718E-03 0.22558170E+02 0.75467711E-02 0.12310440E+00
        3 -1    0    0  502    0 0.00000000E+00 0.00000000E+00 0.20384236E+03 0.20384297E+03 0.50000000E+00 0.0000E+00 0.9000E+01
       -4 -1    0    0    0  501 0.00000000E+00 0.00000000E+00 -.11879492E+03 0.11880503E+03 0.15500000E+01 0.0000E+00 0.9000E+01
       25  1    1    2    0    0 0.40851685E+01 0.21313463E+02 0.16853372E+02 0.12798433E+03 0.12500000E+03 0.0000E+00 0.9000E+01
      -24  1    1    2    0    0 0.17035756E+02 -.13393373E+02 0.11541365E+03 0.14232753E+03 0.80419002E+02 0.0000E+00 0.9000E+01
       21  1    1    2  502  501 -.21120924E+02 -.79200903E+01 -.47219577E+02 0.52336147E+02 0.75000000E+00 0.0000E+00 0.9000E+01
#aMCatNLO 1  0  0  2  2 0.20120922D+02 0.00000000D+00  -5  6  0 0.00000000D+00 0.00000000D+00 0.00000000D+00 0.00000000D+00 0.00000000D+00
  <mgrwgt>
 -.4695419522D-01    7    4    0
 0.155618658061399D+03 0.000000000000000D+00 0.000000000000000D+00 0.155618658061399D+03
 0.155618658061399D+03 0.000000000000000D+00 0.000000000000000D+00 -.155618658061399D+03
 0.128071079080658D+03 0.408571047542495D+01 0.213136660242568D+02 -.174995973497022D+02
 0.116009199139350D+03 0.170362465568020D+02 -.133931884035464D+02 0.807546106313806D+02
 0.671570379027897D+02 -.211219570322270D+02 -.792047762071034D+01 -.632550132816784D+02
 0.000000000000000D+00 0.000000000000000D+00 0.000000000000000D+00 -.000000000000000D+00
 0.157537301721395D+03 0.000000000000000D+00 0.000000000000000D+00 0.157537301721395D+03
 0.219448136034323D+03 0.000000000000000D+00 0.000000000000000D+00 -.219448136034323D+03
 0.126949164214407D+03 0.367850958224899D+01 0.130890394830222D+02 -.174995973497022D+02
 0.117061694106962D+03 0.166640930576251D+02 -.209099291524953D+02 0.807546106313806D+02
 0.678761700235387D+02 -.213375698877617D+02 -.122754170228108D+02 -.632550132816784D+02
 0.650984094108100D+02 0.994967247887666D+00 0.200963066922839D+02 -.619108343129273D+02
 0.155618658061399D+03 0.000000000000000D+00 0.000000000000000D+00 0.155618658061399D+03
 0.155618658061399D+03 0.000000000000000D+00 0.000000000000000D+00 -.155618658061399D+03
 0.128071079080658D+03 0.408571047542495D+01 0.213136660242568D+02 -.174995973497022D+02
 0.116009199139350D+03 0.170362465568020D+02 -.133931884035464D+02 0.807546106313806D+02
 0.000000000000000D+00 0.000000000000000D+00 0.000000000000000D+00 -.000000000000000D+00
 0.671570379027897D+02 -.211219570322270D+02 -.792047762071034D+01 -.632550132816784D+02
 0.157537301721395D+03 0.000000000000000D+00 0.000000000000000D+00 0.157537301721395D+03
 0.219448136034323D+03 0.000000000000000D+00 0.000000000000000D+00 -.219448136034323D+03
 0.126949164214407D+03 0.367850958224899D+01 0.130890394830222D+02 -.174995973497022D+02
 0.117061694106962D+03 0.166640930576251D+02 -.209099291524953D+02 0.807546106313806D+02
 0.650984094108100D+02 0.994967247887666D+00 0.200963066922839D+02 -.619108343129273D+02
 0.678761700235387D+02 -.213375698877617D+02 -.122754170228108D+02 -.632550132816784D+02
0.899719604422D-04 0.000000000000D+00 0.000000000000D+00 0.446805317574D-04 0.000000000000D+00  6 3 -4 25 -24 21 21 2 0.31361188D-01 0.18276966D-01 0.13539145D+05 0.13539145D+05 0.13539145D+05 0.12529277D+01  1  2  2  2  6  2       -4 0.707591376883D-02 0.100000000000D+01
0.936989556839D-05 0.474795079512D-05 -.345516018259D-06 0.446805317574D-04 0.000000000000D+00  6 3 -4 25 -24 21 21 4 0.31361188D-01 0.18276966D-01 0.13539145D+05 0.13539145D+05 0.13539145D+05 0.12529277D+01  1  2  3  2  6  2       -4 0.115681026843D-02 0.100000000000D+01
0.500470839342D-05 0.000000000000D+00 0.000000000000D+00 0.446805317574D-04 0.000000000000D+00  6 3 -4 25 -24 21 21 4 0.31361188D-01 0.18276966D-01 0.13539145D+05 0.13539145D+05 0.13539145D+05 0.12529277D+01  1  2 15  2  6  2       -4 0.617882880097D-03 0.100000000000D+01
-.332456769648D-03 0.000000000000D+00 0.000000000000D+00 0.446805317574D-04 0.000000000000D+00  6 3 -4 25 -24 21 21 4 0.31361188D-01 0.18276966D-01 0.13539145D+05 0.13539145D+05 0.13539145D+05 0.12529277D+01  1  2  4  2  6  2       -4 -.410452178608D-01 0.100000000000D+01
-.995445806903D-03 0.000000000000D+00 -.640172321823D-04 0.446805317574D-04 0.000000000000D+00  6 3 -4 25 -24 21 21 4 0.31361188D-01 0.25974190D-01 0.13539145D+05 0.13539145D+05 0.13539145D+05 0.12529277D+01  1  2  5  2  6  2       -4 -.650307521628D-01 0.100000000000D+01
0.961694733264D-03 0.000000000000D+00 0.602571224662D-04 0.446805317574D-04 0.000000000000D+00  6 3 -4 25 -24 21 21 4 0.31361188D-01 0.18276966D-01 0.13539145D+05 0.13539145D+05 0.13539145D+05 0.12529277D+01  1  2  6  2  6  2       -4 0.118731135733D+00 0.100000000000D+01
-.413100416043D-04 0.000000000000D+00 -.277379137852D-05 0.446805317574D-04 0.000000000000D+00  6 3 21 25 -24 4 21 4 0.31361188D-01 0.25974190D-01 0.13539145D+05 0.13539145D+05 0.13539145D+05 0.12529277D+01  3  4  5  5  5  2       -4 -.684599678485D-01 0.100000000000D+01
  </mgrwgt>
  </event>
  <event>
  5     66 -.44337718E-03 0.21987379E+02 0.75467711E-02 0.11813876E+00
        3 -1    0    0  502    0 0.00000000E+00 0.00000000E+00 0.29488654E+02 0.29492893E+02 0.50000000E+00 0.0000E+00 0.9000E+01
       -4 -1    0    0    0  501 0.00000000E+00 0.00000000E+00 -.19569942E+04 0.19569948E+04 0.15500000E+01 0.0000E+00 0.9000E+01
       25  1    1    2    0    0 -.82161522E+02 0.79599951E+02 -.31157659E+03 0.35467117E+03 0.12500000E+03 0.0000E+00 0.9000E+01
      -24  1    1    2    0    0 0.97736881E+02 -.64080955E+02 -.63556502E+03 0.65120579E+03 0.80419002E+02 0.0000E+00 0.9000E+01
       21  1    1    2  502  501 -.15575359E+02 -.15518996E+02 -.98036394E+03 0.98061076E+03 0.75000000E+00 0.0000E+00 0.9000E+01
#aMCatNLO 1  0  0  1  2 0.54339689D+02 0.00000000D+00  -5  6  0 0.00000000D+00 0.00000000D+00 0.00000000D+00 0.00000000D+00 0.00000000D+00
  <mgrwgt>
 -.9953461915D-02    1    2    0
 0.240237268943489D+03 0.000000000000000D+00 0.000000000000000D+00 0.240237268943489D+03
 0.240237268943489D+03 0.000000000000000D+00 0.000000000000000D+00 -.240237268943489D+03
 0.216420672091823D+03 -.821613880541225D+02 0.796000842415076D+02 0.134633726125518D+03
 0.142686365739334D+03 0.977369695083282D+02 -.640808668881707D+02 -.152744984767809D+02
 0.121367500055822D+03 -.155755814542057D+02 -.155192173533370D+02 -.119359227648737D+03
 0.000000000000000D+00 0.000000000000000D+00 -.000000000000000D+00 -.000000000000000D+00
 0.242698945107354D+03 0.000000000000000D+00 0.000000000000000D+00 0.242698945107354D+03
 0.256463305699882D+03 0.000000000000000D+00 0.000000000000000D+00 -.256463305699882D+03
 0.219144243507179D+03 -.840647878926766D+02 0.848885780800467D+02 0.134633726125518D+03
 0.140323179080880D+03 0.965002300405057D+02 -.606446529498392D+02 -.152744984767809D+02
 0.121167156439260D+03 -.166354474109980D+02 -.125744369300963D+02 -.119359227648737D+03
 0.185276717799169D+02 0.420000526316900D+01 -.116694882001112D+02 -.137643605925284D+02
-.225963206827D-02 0.000000000000D+00 0.000000000000D+00 0.402979158663D-04 0.000000000000D+00  6 3 -4 25 -24 21 21 4 0.45370893D-02 0.30107640D+00 0.27772056D+05 0.27772056D+05 0.27772056D+05 0.12184315D+01  1  2 14  1  6  1        3 -.995346191476D-02 0.100000000000D+01
  </mgrwgt>
  </event>
  <event>
  6     66 0.44337718E-03 0.21553241E+02 0.75467711E-02 0.11956562E+00
        1 -1    0    0  503    0 0.00000000E+00 0.00000000E+00 0.50954447E+02 0.50955452E+02 0.32000000E+00 0.0000E+00 0.9000E+01
       -2 -1    0    0    0  501 0.00000000E+00 0.00000000E+00 -.51372730E+03 0.51372740E+03 0.32000000E+00 0.0000E+00 0.9000E+01
       25  1    1    2    0    0 -.81982019E+02 -.50398071E+02 -.27304633E+03 0.31534158E+03 0.12500000E+03 0.0000E+00 0.9000E+01
      -24  1    1    2    0    0 0.76290274E+02 0.32845361E+02 -.10565425E+03 0.15661756E+03 0.80419002E+02 0.0000E+00 0.9000E+01
       21  1    1    2  502  501 0.27654316E+01 0.25750968E+02 -.77709905E+02 0.81915516E+02 0.75000000E+00 0.0000E+00 0.9000E+01
       21  1    1    2  503  502 0.29263132E+01 -.81982588E+01 -.63623681E+01 0.10808191E+02 0.75000000E+00 0.0000E+00 0.9000E+01
#aMCatNLO 2  0  0  1  2 0.87048697D+01 0.00000000D+00  -5  6  0 0.00000000D+00 0.00000000D+00 0.00000000D+00 0.00000000D+00 0.00000000D+00
  <mgrwgt>
 0.1463766901D+00    2    2    0
 0.156836567072949D+03 0.000000000000000D+00 0.000000000000000D+00 0.156836567072949D+03
 0.156836567072949D+03 0.000000000000000D+00 0.000000000000000D+00 -.156836567072949D+03
 0.160077867664586D+03 -.804922427830336D+02 -.545768062539334D+02 -.232872236842086D+02
 0.122671318669885D+03 0.774345906824514D+02 0.296356283805273D+02 0.413116226523523D+02
 0.309239478114276D+02 0.305765210058227D+01 0.249411778734061D+02 -.180243989681437D+02
 0.000000000000000D+00 0.000000000000000D+00 -.000000000000000D+00 0.000000000000000D+00
 0.164039165140502D+03 0.000000000000000D+00 0.000000000000000D+00 0.164039165140502D+03
 0.159549302850155D+03 0.000000000000000D+00 0.000000000000000D+00 -.159549302850155D+03
 0.159463987253298D+03 -.819824877117871D+02 -.504017871943889D+02 -.232872236842086D+02
 0.122770711402271D+03 0.762899245456413D+02 0.328424857539624D+02 0.413116226523523D+02
 0.315591984185500D+02 0.276624992472110D+01 0.257575602107919D+02 -.180243989681437D+02
 0.979457091653776D+01 0.292631324142467D+01 -.819825877036538D+01 0.448986229034667D+01
-.290224293891D-03 0.000000000000D+00 0.000000000000D+00 0.307072117652D-04 0.000000000000D+00  6 1 -2 25 -24 21 21 4 0.74943590D-02 0.77684334D-01 0.22351554D+05 0.22351554D+05 0.22351554D+05 0.12285462D+01  1  2  8  1  6  1        1 -.817466380329D-01 0.100000000000D+01
0.900137034540D-03 0.000000000000D+00 0.000000000000D+00 0.307072117652D-04 0.103450484521D-05  6 1 -2 25 -24 21 21 4 0.78385317D-02 0.79028007D-01 0.23712367D+05 0.23712367D+05 0.23712367D+05 0.12257675D+01  1  2  1  1  6  1        1 0.228123328097D+00 0.100000000000D+01
  </mgrwgt>
  </event>
  <event>
  6     66 0.44337718E-03 0.34733122E+02 0.75467711E-02 0.11543438E+00
        1 -1    0    0  502    0 0.00000000E+00 0.00000000E+00 0.92378293E+02 0.92378847E+02 0.32000000E+00 0.0000E+00 0.9000E+01
       -2 -1    0    0    0  501 -.00000000E+00 -.00000000E+00 -.43086364E+03 0.43086375E+03 0.32000000E+00 0.0000E+00 0.9000E+01
       25  1    1    2    0    0 -.85231902E+02 0.12347326E+03 -.14112950E+03 0.24094119E+03 0.12500000E+03 0.0000E+00 0.9000E+01
      -24  1    1    2    0    0 0.40456012E+02 -.11480164E+03 -.12148032E+03 0.18984412E+03 0.80419002E+02 0.0000E+00 0.9000E+01
       21  1    1    2  502  503 0.37228163E+02 -.13012431E+02 -.73477242E+02 0.83395007E+02 0.75000000E+00 0.0000E+00 0.9000E+01
       21  1    1    2  503  501 0.75477262E+01 0.43408032E+01 -.23982818E+01 0.90622844E+01 0.75000000E+00 0.0000E+00 0.9000E+01
#aMCatNLO 2  0  0  5  2 0.91293856D+01 0.00000000D+00  -5  6  0 0.00000000D+00 0.00000000D+00 0.00000000D+00 0.00000000D+00 0.00000000D+00
  <mgrwgt>
 0.2054047006D-01    4    2    0
 0.199505947877719D+03 0.000000000000000D+00 0.000000000000000D+00 0.199505947877719D+03
 0.199505947877719D+03 -.000000000000000D+00 -.000000000000000D+00 -.199505947877719D+03
 0.198031759131215D+03 -.881799708400195D+02 0.124044207873465D+03 0.207100183558931D+02
 0.144993706408392D+03 0.382809156542909D+02 -.114380389818551D+03 0.276710413569710D+01
 0.559864302158300D+02 0.498990551857286D+02 -.966381805491392D+01 -.234771224915902D+02
 0.000000000000000D+00 0.000000000000000D+00 0.000000000000000D+00 0.000000000000000D+00
 0.199505947877719D+03 0.000000000000000D+00 0.000000000000000D+00 0.199505947877719D+03
 0.199505947877719D+03 -.000000000000000D+00 -.000000000000000D+00 -.199505947877719D+03
 0.196206851652681D+03 -.851837970762008D+02 0.123463946824300D+03 0.193003415955327D+02
 0.145913634080268D+03 0.404917821636400D+02 -.114808562488566D+03 0.172690841136227D+01
 0.468421220175662D+02 0.369461076578707D+02 -.130831709429712D+02 -.256515138367812D+02
 0.100492880049226D+02 0.774590725469002D+01 0.442778660723707D+01 0.462426382988629D+01
-.238141390324D-03 0.000000000000D+00 0.000000000000D+00 0.701132215534D-05 0.000000000000D+00  6 1 -2 25 -24 21 21 4 0.14212097D-01 0.66286765D-01 0.37883759D+05 0.37883759D+05 0.37883759D+05 0.12044049D+01  1  2 13  3  6  5       21 -.374933580728D-01 0.100000000000D+01
-.209883968787D-03 0.000000000000D+00 0.000000000000D+00 0.701132215534D-05 0.000000000000D+00  6 1 -2 25 -24 21 21 4 0.14212097D-01 0.66286765D-01 0.37883759D+05 0.37883759D+05 0.37883759D+05 0.12044049D+01  1  2 13  3  6  5       21 -.330444648230D-01 0.100000000000D+01
-.469405049970D-03 0.000000000000D+00 0.000000000000D+00 0.700217904581D-05 0.000000000000D+00  6 1 -2 25 -24 21 21 4 0.14212097D-01 0.66286765D-01 0.38561056D+05 0.38561056D+05 0.38561056D+05 0.12036194D+01  1  2  8  3  6  5       21 -.737266465896D-01 0.100000000000D+01
0.104676879996D-02 0.000000000000D+00 0.000000000000D+00 0.700217904581D-05 0.825536250916D-06  6 1 -2 25 -24 21 21 4 0.14212097D-01 0.66286765D-01 0.37883759D+05 0.37883759D+05 0.37883759D+05 0.12044049D+01  1  2  1  3  6  5       21 0.164804939549D+00 0.100000000000D+01
  </mgrwgt>
  </event>
  <event>
  5     66 0.44337718E-03 0.35100510E+02 0.75467711E-02 0.11937865E+00
        1 -1    0    0  502    0 0.00000000E+00 0.00000000E+00 0.12774264E+04 0.12774264E+04 0.32000000E+00 0.0000E+00 0.9000E+01
       -2 -1    0    0    0  501 0.00000000E+00 0.00000000E+00 -.95180735E+02 0.95181273E+02 0.32000000E+00 0.0000E+00 0.9000E+01
       25  1    1    2    0    0 -.78549846E+02 0.69030280E+02 0.88509226E+02 0.18545657E+03 0.12500000E+03 0.0000E+00 0.9000E+01
      -24  1    1    2    0    0 0.43724924E+02 -.64642727E+02 0.11306606E+04 0.11362003E+04 0.80419002E+02 0.0000E+00 0.9000E+01
       21  1    1    2  502  501 0.34824922E+02 -.43875527E+01 -.36924186E+02 0.50950798E+02 0.75000000E+00 0.0000E+00 0.9000E+01
#aMCatNLO 1  0  0  5  1 0.25879071D+02 0.00000000D+00  -5  6  0 0.00000000D+00 0.00000000D+00 0.00000000D+00 0.00000000D+00 0.00000000D+00
  <mgrwgt>
 0.1473416284D+00   15    2    0
 0.348692958726258D+03 0.000000000000000D+00 0.000000000000000D+00 0.348692958726258D+03
 0.348692958726258D+03 -.000000000000000D+00 -.000000000000000D+00 -.348692958726258D+03
 0.214973182694428D+03 -.785499595596781D+02 0.690302938899893D+02 -.140189841487915D+03
 0.319535006140698D+03 0.437247549267996D+02 -.646427055108698D+02 0.299240489616281D+03
 0.162877728617389D+03 0.348252046328785D+02 -.438758837911947D+01 -.159050648128366D+03
 0.000000000000000D+00 0.000000000000000D+00 0.000000000000000D+00 -.000000000000000D+00
 0.348692958726258D+03 0.000000000000000D+00 0.000000000000000D+00 0.348692958726258D+03
 0.348692958726258D+03 -.000000000000000D+00 -.000000000000000D+00 -.348692958726258D+03
 0.216918095852703D+03 -.778015727333103D+02 0.689360054751164D+02 -.143607808763035D+03
 0.315020092604224D+03 0.448243202574606D+02 -.647812385106827D+02 0.294218650395385D+03
 0.439609302167464D+02 0.321110049505222D+02 -.713611945736720D+01 -.291637196818129D+02
 0.121486798778842D+03 0.866247525327481D+00 0.298135249293351D+01 -.121447121950537D+03
0.120782959150D-02 0.000000000000D+00 0.000000000000D+00 0.535841943665D-05 0.000000000000D+00  6 1 -2 25 -24 21 21 2 0.19652718D+00 0.14643234D-01 0.24045948D+05 0.24045948D+05 0.24045948D+05 0.12251135D+01  1  2  2  3  6  5       21 0.588692214153D-01 0.100000000000D+01
0.717829824678D-04 0.637389186715D-04 -.463838366020D-05 0.535841943665D-05 0.000000000000D+00  6 1 -2 25 -24 21 21 4 0.19652718D+00 0.14643234D-01 0.24045948D+05 0.24045948D+05 0.24045948D+05 0.12251135D+01  1  2  3  3  6  5       21 0.525117833017D-02 0.100000000000D+01
0.346305826940D-04 0.000000000000D+00 0.000000000000D+00 0.535841943665D-05 0.000000000000D+00  6 1 -2 25 -24 21 21 4 0.19652718D+00 0.14643234D-01 0.24045948D+05 0.24045948D+05 0.24045948D+05 0.12251135D+01  1  2 15  3  6  5       21 0.253334925844D-02 0.100000000000D+01
0.269104175917D-03 0.000000000000D+00 0.000000000000D+00 0.535575374662D-05 0.000000000000D+00  6 1 -2 25 -24 21 21 4 0.19652718D+00 0.14643234D-01 0.24203193D+05 0.24203193D+05 0.24203193D+05 0.12248087D+01  1  2 12  3  6  5       21 0.196641293348D-01 0.100000000000D+01
-.506646579787D-03 0.000000000000D+00 0.000000000000D+00 0.535841943665D-05 0.000000000000D+00  6 1 -2 25 -24 21 21 4 0.19652718D+00 0.14643234D-01 0.24045948D+05 0.24045948D+05 0.24045948D+05 0.12251135D+01  1  2  4  3  6  5       21 -.370629841415D-01 0.100000000000D+01
-.455169025149D-03 0.000000000000D+00 0.000000000000D+00 0.535841943665D-05 0.000000000000D+00  6 1 -2 25 -24 21 21 4 0.19652718D+00 0.14643234D-01 0.24045948D+05 0.24045948D+05 0.24045948D+05 0.12251135D+01  1  2  5  3  6  5       21 -.332972194698D-01 0.100000000000D+01
0.179083278880D-02 0.000000000000D+00 -.000000000000D+00 0.535841943665D-05 0.000000000000D+00  6 1 -2 25 -24 21 21 4 0.19652718D+00 0.14643234D-01 0.24045948D+05 0.24045948D+05 0.24045948D+05 0.12251135D+01  1  2  6  3  6  5       21 0.131005734370D+00 0.100000000000D+01
0.361417368785D-04 0.000000000000D+00 0.000000000000D+00 0.535575374662D-05 0.000000000000D+00  6 1 -2 25 -24 1 -1 4 0.19652718D+00 0.14643234D-01 0.24203193D+05 0.24203193D+05 0.24203193D+05 0.12248087D+01  1  2 12  6  6  5       21 0.264096900742D-02 0.100000000000D+01
-.348091786703D-04 0.000000000000D+00 0.000000000000D+00 0.535841943665D-05 0.000000000000D+00  6 1 -2 25 -24 1 -1 4 0.19652718D+00 0.14643234D-01 0.24045948D+05 0.24045948D+05 0.24045948D+05 0.12251135D+01  1  2  5  6  6  5       21 -.254641418398D-02 0.100000000000D+01
0.361417368785D-04 0.000000000000D+00 0.000000000000D+00 0.535575374662D-05 0.000000000000D+00  6 1 -2 25 -24 2 -2 4 0.19652718D+00 0.14643234D-01 0.24203193D+05 0.24203193D+05 0.24203193D+05 0.12248087D+01  1  2 12  7  6  5       21 0.264096900742D-02 0.100000000000D+01
-.348091786703D-04 0.000000000000D+00 0.000000000000D+00 0.535841943665D-05 0.000000000000D+00  6 1 -2 25 -24 2 -2 4 0.19652718D+00 0.14643234D-01 0.24045948D+05 0.24045948D+05 0.24045948D+05 0.12251135D+01  1  2  5  7  6  5       21 -.254641418398D-02 0.100000000000D+01
0.361417368785D-04 0.000000000000D+00 0.000000000000D+00 0.535575374662D-05 0.000000000000D+00  6 1 -2 25 -24 3 -3 4 0.19652718D+00 0.14643234D-01 0.24203193D+05 0.24203193D+05 0.24203193D+05 0.12248087D+01  1  2 12  8  6  5       21 0.264096900742D-02 0.100000000000D+01
0.361417368785D-04 0.000000000000D+00 0.000000000000D+00 0.535575374662D-05 0.000000000000D+00  6 1 -2 25 -24 4 -4 4 0.19652718D+00 0.14643234D-01 0.24203193D+05 0.24203193D+05 0.24203193D+05 0.12248087D+01  1  2 12  8  6  5       21 0.264096900742D-02 0.100000000000D+01
-.348091786703D-04 0.000000000000D+00 0.000000000000D+00 0.535841943665D-05 0.000000000000D+00  6 1 -2 25 -24 3 -3 4 0.19652718D+00 0.14643234D-01 0.24045948D+05 0.24045948D+05 0.24045948D+05 0.12251135D+01  1  2  5  8  6  5       21 -.254641418398D-02 0.100000000000D+01
-.348091786703D-04 0.000000000000D+00 0.000000000000D+00 0.535841943665D-05 0.000000000000D+00  6 1 -2 25 -24 4 -4 4 0.19652718D+00 0.14643234D-01 0.24045948D+05 0.24045948D+05 0.24045948D+05 0.12251135D+01  1  2  5  8  6  5       21 -.254641418398D-02 0.100000000000D+01
  </mgrwgt>
  </event>
  <event>
  5     66 -.44337718E-03 0.59234637E+02 0.75467711E-02 0.11776500E+00
        1 -1    0    0  502    0 0.00000000E+00 0.00000000E+00 0.24270248E+04 0.24270248E+04 0.32000000E+00 0.0000E+00 0.9000E+01
       -2 -1    0    0    0  501 0.00000000E+00 0.00000000E+00 -.14219886E+02 0.14223486E+02 0.32000000E+00 0.0000E+00 0.9000E+01
       25  1    1    2    0    0 0.34249376E+02 0.98754973E+02 0.14961817E+04 0.15050283E+04 0.12500000E+03 0.0000E+00 0.9000E+01
      -24  1    1    2    0    0 -.65576916E+02 -.48486707E+02 0.39580008E+03 0.41203909E+03 0.80419002E+02 0.0000E+00 0.9000E+01
       21  1    1    2  502  501 0.31327540E+02 -.50268266E+02 0.52082316E+03 0.52418092E+03 0.75000000E+00 0.0000E+00 0.9000E+01
#aMCatNLO 1  0  0  1  5 0.37331548D+01 0.00000000D+00  -5  6  0 0.00000000D+00 0.00000000D+00 0.00000000D+00 0.00000000D+00 0.00000000D+00
  <mgrwgt>
 -.6087879124D-01   11    4    0
 0.185785995273203D+03 0.000000000000000D+00 0.000000000000000D+00 0.185785995273203D+03
 0.185785995273203D+03 0.000000000000000D+00 0.000000000000000D+00 -.185785995273203D+03
 0.172654267090441D+03 0.342483079757100D+02 0.987566861520209D+02 0.570847290053091D+02
 0.136989402493270D+03 -.655777630688033D+02 -.484853475100791D+02 -.751505722454020D+02
 0.619283209626948D+02 0.313294550930933D+02 -.502713386419418D+02 0.180658432400929D+02
 0.000000000000000D+00 -.000000000000000D+00 -.000000000000000D+00 0.000000000000000D+00
 0.202134037450603D+03 0.000000000000000D+00 0.000000000000000D+00 0.202134037450603D+03
 0.186008615029969D+03 0.000000000000000D+00 0.000000000000000D+00 -.186008615029969D+03
 0.173713084537906D+03 0.348370359613358D+02 0.100393975812759D+03 0.570847290053091D+02
 0.136314987568217D+03 -.651132217595051D+02 -.471934288290077D+02 -.751505722454020D+02
 0.615626713248215D+02 0.315393553703295D+02 -.496875927319533D+02 0.180658432400929D+02
 0.165519090496274D+02 -.126316957216024D+01 -.351295425179758D+01 0.161254224206340D+02
 0.185785995273203D+03 0.000000000000000D+00 0.000000000000000D+00 0.185785995273203D+03
 0.185785995273203D+03 0.000000000000000D+00 0.000000000000000D+00 -.185785995273203D+03
 0.172654267090441D+03 0.342483079757100D+02 0.987566861520209D+02 0.570847290053091D+02
 0.136989402493270D+03 -.655777630688033D+02 -.484853475100791D+02 -.751505722454020D+02
 0.000000000000000D+00 -.000000000000000D+00 -.000000000000000D+00 0.000000000000000D+00
 0.619283209626948D+02 0.313294550930933D+02 -.502713386419418D+02 0.180658432400929D+02
 0.202134037450603D+03 0.000000000000000D+00 0.000000000000000D+00 0.202134037450603D+03
 0.186008615029969D+03 0.000000000000000D+00 0.000000000000000D+00 -.186008615029969D+03
 0.173713084537906D+03 0.348370359613358D+02 0.100393975812759D+03 0.570847290053091D+02
 0.136314987568217D+03 -.651132217595051D+02 -.471934288290077D+02 -.751505722454020D+02
 0.165519090496274D+02 -.126316957216024D+01 -.351295425179758D+01 0.161254224206340D+02
 0.615626713248215D+02 0.315393553703295D+02 -.496875927319533D+02 0.180658432400929D+02
0.444104392222D-04 0.000000000000D+00 0.000000000000D+00 0.467632081159D-05 0.000000000000D+00  6 1 -2 25 -24 21 21 2 0.37338871D+00 0.21879533D-02 0.28344224D+05 0.28344224D+05 0.28344224D+05 0.12174948D+01  1  2  2  1  6  1        1 0.702308635535D-02 0.100000000000D+01
0.290110919658D-06 0.234360326462D-05 -.170547780150D-06 0.467632081159D-05 0.000000000000D+00  6 1 -2 25 -24 21 21 4 0.37338871D+00 0.21879533D-02 0.28344224D+05 0.28344224D+05 0.28344224D+05 0.12174948D+01  1  2  3  1  6  1        1 0.680050576294D-04 0.100000000000D+01
0.215925199597D-05 0.000000000000D+00 0.000000000000D+00 0.467632081159D-05 0.000000000000D+00  6 1 -2 25 -24 21 21 4 0.37338871D+00 0.21879533D-02 0.28344224D+05 0.28344224D+05 0.28344224D+05 0.12174948D+01  1  2 15  1  6  1        1 0.506151428548D-03 0.100000000000D+01
0.211999982327D-03 0.000000000000D+00 0.000000000000D+00 0.466870261074D-05 0.000000000000D+00  6 1 -2 25 -24 21 21 4 0.40818965D+00 0.21879533D-02 0.28964574D+05 0.28964574D+05 0.28964574D+05 0.12165026D+01  1  2 12  1  6  1        1 0.351348459369D-01 0.100000000000D+01
-.427230285076D-02 0.000000000000D+00 0.000000000000D+00 0.467632081159D-05 0.000000000000D+00  6 1 -2 25 -24 21 21 4 0.37338871D+00 0.21879533D-02 0.28344224D+05 0.28344224D+05 0.28344224D+05 0.12174948D+01  1  2  4  1  6  1        1 -.100147282260D+01 0.100000000000D+01
-.391560384422D-02 0.000000000000D+00 -.986239168543D-04 0.467632081159D-05 0.000000000000D+00  6 1 -2 25 -24 21 21 4 0.40638425D+00 0.21879533D-02 0.28344224D+05 0.28344224D+05 0.28344224D+05 0.12174948D+01  1  2  5  1  6  1        1 -.663084775240D+00 0.100000000000D+01
0.391027995021D-02 0.000000000000D+00 0.982713759613D-04 0.467632081159D-05 0.000000000000D+00  6 1 -2 25 -24 21 21 4 0.37338871D+00 0.21879533D-02 0.28344224D+05 0.28344224D+05 0.28344224D+05 0.12174948D+01  1  2  6  1  6  1        1 0.916610838621D+00 0.100000000000D+01
0.382417721720D-02 0.000000000000D+00 0.000000000000D+00 0.467632081159D-05 0.160822404507D-05  6 1 -2 25 -24 21 21 4 0.40624465D+00 0.21905751D-02 0.28964574D+05 0.28964574D+05 0.28964574D+05 0.12165026D+01  1  2 11  1  6  1        1 0.645040925878D+00 0.100000000000D+01
0.326512155135D-05 0.000000000000D+00 0.000000000000D+00 0.466870261074D-05 0.000000000000D+00  6 21 -2 25 -24 -1 21 4 0.40818965D+00 0.21879533D-02 0.28964574D+05 0.28964574D+05 0.28964574D+05 0.12165026D+01  3  4 12  4  5  1        1 0.296184518818D-03 0.100000000000D+01
-.548936796263D-04 0.000000000000D+00 -.138531706526D-05 0.467632081159D-05 0.000000000000D+00  6 21 -2 25 -24 -1 21 4 0.40638425D+00 0.21879533D-02 0.28344224D+05 0.28344224D+05 0.28344224D+05 0.12174948D+01  3  4  5  4  5  1        1 -.513876431633D-02 0.100000000000D+01
0.444322184022D-04 0.000000000000D+00 0.000000000000D+00 0.467632081159D-05 0.373115244759D-07  6 21 -2 25 -24 -1 21 4 0.40624465D+00 0.21905751D-02 0.28964574D+05 0.28964574D+05 0.28964574D+05 0.12165026D+01  3  4 11  4  5  1        1 0.413753311760D-02 0.100000000000D+01
  </mgrwgt>
  </event>
  <event>
  6     66 -.44337718E-03 0.37967250E+02 0.75467711E-02 0.12096470E+00
        1 -1    0    0  503    0 0.00000000E+00 0.00000000E+00 0.47487837E+03 0.47487848E+03 0.32000000E+00 0.0000E+00 0.9000E+01
       -2 -1    0    0    0  501 0.00000000E+00 0.00000000E+00 -.10145910E+03 0.10145961E+03 0.32000000E+00 0.0000E+00 0.9000E+01
       25  1    1    2    0    0 0.52607656E+02 0.13425628E+02 0.33078294E+03 0.35775714E+03 0.12500000E+03 0.0000E+00 0.9000E+01
      -24  1    1    2    0    0 -.37348033E+02 0.17859363E+02 0.82354200E+02 0.12232442E+03 0.80419002E+02 0.0000E+00 0.9000E+01
       21  1    1    2  502  501 -.28784343E+02 -.34479708E+02 -.57948404E+02 0.73320997E+02 0.75000000E+00 0.0000E+00 0.9000E+01
       21  1    1    2  503  502 0.13524720E+02 0.31947170E+01 0.18230524E+02 0.22935535E+02 0.75000000E+00 0.0000E+00 0.9000E+01
#aMCatNLO 2  0  0  1  5 0.13896916D+02 0.00000000D+00  -5  6  0 0.00000000D+00 0.00000000D+00 0.00000000D+00 0.00000000D+00 0.00000000D+00
  <mgrwgt>
 -.1962705612D+00    3    2    0
 0.212074406866168D+03 0.000000000000000D+00 0.000000000000000D+00 0.212074406866168D+03
 0.212074406866168D+03 0.000000000000000D+00 0.000000000000000D+00 -.212074406866168D+03
 0.191555419942082D+03 0.586842518335567D+02 0.148611718172694D+02 0.131923398486170D+03
 0.895801141418453D+02 -.344762487130676D+02 0.185377963391020D+02 0.501191349288678D+01
 0.143013279648407D+03 -.242080031204891D+02 -.333989681563713D+02 -.136935311979057D+03
 0.000000000000000D+00 0.000000000000000D+00 0.000000000000000D+00 0.000000000000000D+00
 0.221792200808830D+03 0.000000000000000D+00 0.000000000000000D+00 0.221792200808830D+03
 0.217215392937065D+03 0.000000000000000D+00 0.000000000000000D+00 -.217215392937065D+03
 0.189675024955697D+03 0.526077855632164D+02 0.134258304003239D+02 0.131923398486170D+03
 0.905878901844275D+02 -.373479627011166D+02 0.178594596477938D+02 0.501191349288678D+01
 0.144113498497136D+03 -.287845426022209D+02 -.344800070977836D+02 -.136935311979057D+03
 0.146311801086344D+02 0.135247197401212D+02 0.319471704966589D+01 0.457680787176495D+01
-.783922650661D-03 0.000000000000D+00 0.000000000000D+00 0.191577017584D-04 0.000000000000D+00  6 1 -2 25 -24 21 21 4 0.74304998D-01 0.15239039D-01 0.20383835D+05 0.20383835D+05 0.20383835D+05 0.12329182D+01  1  2 13  1  6  1        1 -.248102434732D+00 0.100000000000D+01
-.122826990426D-03 0.000000000000D+00 0.000000000000D+00 0.193298838592D-04 0.000000000000D+00  6 1 -2 25 -24 21 21 4 0.69854154D-01 0.15239039D-01 0.18167888D+05 0.18167888D+05 0.18167888D+05 0.12384463D+01  1  2  8  1  6  1        1 -.428005060980D-01 0.100000000000D+01
0.304230304200D-03 0.000000000000D+00 0.000000000000D+00 0.193298838592D-04 0.320139076544D-06  6 1 -2 25 -24 21 21 4 0.73055050D-01 0.15608455D-01 0.20383835D+05 0.20383835D+05 0.20383835D+05 0.12329182D+01  1  2  1  1  6  1        1 0.946323796768D-01 0.100000000000D+01
  </mgrwgt>
  </event>
  <event>
  6     66 0.44337718E-03 0.21316137E+02 0.75467711E-02 0.12317638E+00
        1 -1    0    0  502    0 0.00000000E+00 0.00000000E+00 0.15743401E+04 0.15743401E+04 0.32000000E+00 0.0000E+00 0.9000E+01
       -2 -1    0    0    0  501 0.00000000E+00 0.00000000E+00 -.17149923E+02 0.17152908E+02 0.32000000E+00 0.0000E+00 0.9000E+01
       25  1    1    2    0    0 0.21354575E+02 0.25295730E+02 0.84020841E+03 0.85010062E+03 0.12500000E+03 0.0000E+00 0.9000E+01
      -24  1    1    2    0    0 -.37147836E+02 -.35059988E+02 0.68785507E+03 0.69442133E+03 0.80419002E+02 0.0000E+00 0.9000E+01
       21  1    1    2  503  501 -.41387928E+01 -.35371017E+01 -.34757693E+01 0.65026276E+01 0.75000000E+00 0.0000E+00 0.9000E+01
       21  1    1    2  502  503 0.19932054E+02 0.13301360E+02 0.32602432E+02 0.40468432E+02 0.75000000E+00 0.0000E+00 0.9000E+01
#aMCatNLO 2  0  0  5  1 0.98737716D+00 0.00000000D+00  -5  6  0 0.00000000D+00 0.00000000D+00 0.00000000D+00 0.00000000D+00 0.00000000D+00
  <mgrwgt>
 0.2139994542D-01    1    2    0
 0.164323496981384D+03 0.000000000000000D+00 0.000000000000000D+00 0.164323496981384D+03
 0.164323496981384D+03 -.000000000000000D+00 -.000000000000000D+00 -.164323496981384D+03
 0.136213069897771D+03 0.208930723798382D+02 0.250104038953099D+02 0.432083283002179D+02
 0.104522619008778D+03 -.375011873291284D+02 -.352784494922482D+02 0.425071038817292D+02
 0.879113050562192D+02 0.166081149492902D+02 0.102680455969384D+02 -.857154321819472D+02
 0.000000000000000D+00 0.000000000000000D+00 0.000000000000000D+00 0.000000000000000D+00
 0.164323496981384D+03 0.000000000000000D+00 0.000000000000000D+00 0.164323496981384D+03
 0.164323496981384D+03 -.000000000000000D+00 -.000000000000000D+00 -.164323496981384D+03
 0.135602547951570D+03 0.213535471060933D+02 0.252950945721183D+02 0.408317918726742D+02
 0.103595099935451D+03 -.371486213124369D+02 -.350604738853613D+02 0.406874904827582D+02
 0.474035124798388D+02 -.426206914014156D+01 -.361426686831505D+01 -.470729735312683D+02
 0.420458335959084D+02 0.200571433464852D+02 0.133796461815581D+02 -.344463088241641D+02
0.312642978628D-04 0.000000000000D+00 0.000000000000D+00 0.756250792135D-04 0.514480433155D-05  6 1 -2 25 -24 21 21 4 0.24220640D+00 0.26386818D-02 0.16164323D+05 0.16164323D+05 0.16164323D+05 0.12441382D+01  1  2  1  3  6  5       21 0.213999454218D-01 0.100000000000D+01
  </mgrwgt>
  </event>
</LesHouchesEvents>
