<event>
 5    0  0.2159162E+000  0.2364318E+03  0.7546771E-02  0.1122193E+00
         21   -1    0    0  502  501  0.00000000000E+00  0.00000000000E+00  0.16671942991E+03  0.16671942991E+03  0.00000000000E+00 0. -1.
         21   -1    0    0  503  502 -0.00000000000E+00 -0.00000000000E+00 -0.35120454946E+03  0.35120454946E+03  0.00000000000E+00 0. -1.
         25    1    1    2    0    0 -0.15695153333E+03 -0.12506483498E+03  0.88686890376E+01  0.23659807777E+03  0.12500000000E+03 0.  0.
         21    1    1    2  503  504  0.11176321245E+03  0.10506711551E+03 -0.13066881175E+03  0.20150546589E+03  0.00000000000E+00 0. -1.
         21    1    1    2  504  501  0.45188320873E+02  0.19997719469E+02 -0.62684996841E+02  0.79820435706E+02  0.00000000000E+00 0. -1.
<mgrwt>
<rscale>  4 0.23643180E+03</rscale>
<asrwt>0</asrwt>
<pdfrwt beam="1">  1       21 0.25649143E-01 0.23643180E+03</pdfrwt>
<pdfrwt beam="2">  1       21 0.54031469E-01 0.23643180E+03</pdfrwt>
<totfact> 0.45757588E+04</totfact>
</mgrwt>
</event>
<event>
 5    0  0.2159162E+000  0.2999781E+03  0.7546771E-02  0.1085252E+00
         21   -1    0    0  502  501  0.00000000000E+00  0.00000000000E+00  0.66375387812E+02  0.66375387812E+02  0.00000000000E+00 0. -1.
         21   -1    0    0  503  502 -0.00000000000E+00 -0.00000000000E+00 -0.17140061872E+04  0.17140061872E+04  0.00000000000E+00 0.  1.
         25    1    1    2    0    0  0.21574697247E+03  0.16677864345E+03 -0.39814098101E+03  0.49850086539E+03  0.12500000000E+03 0.  0.
         21    1    1    2  503  504 -0.11798226005E+02 -0.46705559518E+02 -0.26499746069E+03  0.26934041954E+03  0.00000000000E+00 0.  1.
         21    1    1    2  504  501 -0.20394874647E+03 -0.12007308393E+03 -0.98449235769E+03  0.10125402901E+04  0.00000000000E+00 0.  1.
<mgrwt>
<rscale>  4 0.29997812E+03</rscale>
<asrwt>0</asrwt>
<pdfrwt beam="1">  1       21 0.10211601E-01 0.29997812E+03</pdfrwt>
<pdfrwt beam="2">  1       21 0.26369319E+00 0.29997812E+03</pdfrwt>
<totfact> 0.39363157E+03</totfact>
</mgrwt>
</event>
<event>
 5    0  0.2159162E+000  0.2405972E+03  0.7546771E-02  0.1119396E+00
         21   -1    0    0  502  501  0.00000000000E+00  0.00000000000E+00  0.29184290768E+03  0.29184290768E+03  0.00000000000E+00 0. -1.
         21   -1    0    0  503  502 -0.00000000000E+00 -0.00000000000E+00 -0.19495615277E+03  0.19495615277E+03  0.00000000000E+00 0. -1.
         25    1    1    2    0    0 -0.17790304357E+03 -0.10301706343E+03  0.11465420043E+03  0.26651940632E+03  0.12500000000E+03 0.  0.
         21    1    1    2  503  504  0.10544662694E+03  0.52375957464E+02  0.27583496408E+02  0.12092593323E+03  0.00000000000E+00 0. -1.
         21    1    1    2  504  501  0.72456416631E+02  0.50641105962E+02 -0.45350941918E+02  0.99353720901E+02  0.00000000000E+00 0. -1.
<mgrwt>
<rscale>  4 0.24059719E+03</rscale>
<asrwt>0</asrwt>
<pdfrwt beam="1">  1       21 0.44898909E-01 0.24059719E+03</pdfrwt>
<pdfrwt beam="2">  1       21 0.29993254E-01 0.24059719E+03</pdfrwt>
<totfact> 0.49659371E+04</totfact>
</mgrwt>
</event>
<event>
 5    0  0.2159162E+000  0.2763152E+03  0.7546771E-02  0.1097719E+00
         21   -1    0    0  502  501  0.00000000000E+00  0.00000000000E+00  0.20244651749E+03  0.20244651749E+03  0.00000000000E+00 0. -1.
         21   -1    0    0  503  502 -0.00000000000E+00 -0.00000000000E+00 -0.38675529234E+03  0.38675529234E+03  0.00000000000E+00 0. -1.
         25    1    1    2    0    0  0.62441323764E+02 -0.23838238563E+03 -0.13058731561E+02  0.27662359111E+03  0.12500000000E+03 0.  0.
         21    1    1    2  503  504 -0.53683490301E+02  0.65841255897E+02 -0.32356991365E+02  0.90906341909E+02  0.00000000000E+00 0.  1.
         21    1    1    2  504  501 -0.87578334627E+01  0.17254112973E+03 -0.13889305193E+03  0.22167187681E+03  0.00000000000E+00 0. -1.
<mgrwt>
<rscale>  4 0.27631518E+03</rscale>
<asrwt>0</asrwt>
<pdfrwt beam="1">  1       21 0.31145618E-01 0.27631518E+03</pdfrwt>
<pdfrwt beam="2">  1       21 0.59500814E-01 0.27631518E+03</pdfrwt>
<totfact> 0.25069366E+04</totfact>
</mgrwt>
</event>
<event>
 5    0  0.2159162E+000  0.2372541E+03  0.7546771E-02  0.1121636E+00
         21   -1    0    0  502  501  0.00000000000E+00  0.00000000000E+00  0.74565743321E+03  0.74565743321E+03  0.00000000000E+00 0. -1.
         21   -1    0    0  503  502 -0.00000000000E+00 -0.00000000000E+00 -0.22439034002E+03  0.22439034002E+03  0.00000000000E+00 0.  1.
         25    1    1    2    0    0  0.99271913415E+01  0.20140988336E+03  0.66888711195E+03  0.70971787267E+03  0.12500000000E+03 0.  0.
         21    1    1    2  503  504 -0.37737379290E+02 -0.11155174950E+03 -0.61767842392E+02  0.13297807701E+03  0.00000000000E+00 0.  1.
         21    1    1    2  504  501  0.27810187949E+02 -0.89858133860E+02 -0.85852176367E+02  0.12735182355E+03  0.00000000000E+00 0.  1.
<mgrwt>
<rscale>  4 0.23725406E+03</rscale>
<asrwt>0</asrwt>
<pdfrwt beam="1">  1       21 0.11471653E+00 0.23725406E+03</pdfrwt>
<pdfrwt beam="2">  1       21 0.34521591E-01 0.23725406E+03</pdfrwt>
<totfact> 0.46119453E+03</totfact>
</mgrwt>
</event>
<event>
 5    0  0.2159162E+000  0.2748244E+03  0.7546771E-02  0.1098550E+00
         21   -1    0    0  502  501  0.00000000000E+00  0.00000000000E+00  0.32284212143E+03  0.32284212143E+03  0.00000000000E+00 0.  1.
         21   -1    0    0  503  502 -0.00000000000E+00 -0.00000000000E+00 -0.23949185068E+03  0.23949185068E+03  0.00000000000E+00 0. -1.
         25    1    1    2    0    0  0.19696855900E+03 -0.16362584001E+03  0.32469713771E+02  0.28679140689E+03  0.12500000000E+03 0.  0.
         21    1    1    2  503  504 -0.19162302724E+03  0.13744274756E+03  0.23021233497E+02  0.23693853764E+03  0.00000000000E+00 0. -1.
         21    1    1    2  504  501 -0.53455317604E+01  0.26183092451E+02  0.27859323482E+02  0.38604027575E+02  0.00000000000E+00 0.  1.
<mgrwt>
<rscale>  4 0.27482437E+03</rscale>
<asrwt>0</asrwt>
<pdfrwt beam="1">  1       21 0.49668019E-01 0.27482437E+03</pdfrwt>
<pdfrwt beam="2">  1       21 0.36844900E-01 0.27482437E+03</pdfrwt>
<totfact> 0.26367879E+04</totfact>
</mgrwt>
</event>
<event>
 5    0  0.2159162E+000  0.2418407E+03  0.7546771E-02  0.1118573E+00
         21   -1    0    0  502  501  0.00000000000E+00  0.00000000000E+00  0.24485763869E+03  0.24485763869E+03  0.00000000000E+00 0. -1.
         21   -1    0    0  503  502 -0.00000000000E+00 -0.00000000000E+00 -0.16207929057E+04  0.16207929057E+04  0.00000000000E+00 0.  1.
         25    1    1    2    0    0 -0.20699259890E+03 -0.39981335836E+01  0.17585739429E+03  0.29901963848E+03  0.12500000000E+03 0.  0.
         21    1    1    2  503  504  0.55461281818E+02 -0.11525758950E+02 -0.27423098438E+03  0.28002040942E+03  0.00000000000E+00 0. -1.
         21    1    1    2  504  501  0.15153131708E+03  0.15523892533E+02 -0.12775616770E+04  0.12866104965E+04  0.00000000000E+00 0.  1.
<mgrwt>
<rscale>  4 0.24184069E+03</rscale>
<asrwt>0</asrwt>
<pdfrwt beam="1">  1       21 0.37670405E-01 0.24184069E+03</pdfrwt>
<pdfrwt beam="2">  1       21 0.24935276E+00 0.24184069E+03</pdfrwt>
<totfact> 0.42964724E+02</totfact>
</mgrwt>
</event>
<event>
 5    0  0.2159162E+000  0.4349433E+03  0.7546771E-02  0.1032310E+00
         21   -1    0    0  502  501  0.00000000000E+00  0.00000000000E+00  0.81162374941E+03  0.81162374941E+03  0.00000000000E+00 0. -1.
         21   -1    0    0  503  502 -0.00000000000E+00 -0.00000000000E+00 -0.55917580149E+03  0.55917580149E+03  0.00000000000E+00 0. -1.
         25    1    1    2    0    0 -0.36547576224E+03  0.19994544805E+03  0.65085643645E+03  0.78280892678E+03  0.12500000000E+03 0.  0.
         21    1    1    2  503  504  0.22992012605E+03 -0.10391395122E+03 -0.16490175217E+03  0.30141990891E+03  0.00000000000E+00 0. -1.
         21    1    1    2  504  501  0.13555563619E+03 -0.96031496834E+02 -0.23350673636E+03  0.28657071521E+03  0.00000000000E+00 0. -1.
<mgrwt>
<rscale>  4 0.43494335E+03</rscale>
<asrwt>0</asrwt>
<pdfrwt beam="1">  1       21 0.12486519E+00 0.43494335E+03</pdfrwt>
<pdfrwt beam="2">  1       21 0.86027046E-01 0.43494335E+03</pdfrwt>
<totfact> 0.46860792E+02</totfact>
</mgrwt>
</event>
<event>
 5    0  0.2159162E+000  0.2717635E+03  0.7546771E-02  0.1100275E+00
         21   -1    0    0  502  501  0.00000000000E+00  0.00000000000E+00  0.22502210627E+03  0.22502210627E+03  0.00000000000E+00 0.  1.
         21   -1    0    0  503  502 -0.00000000000E+00 -0.00000000000E+00 -0.15580714133E+04  0.15580714133E+04  0.00000000000E+00 0.  1.
         25    1    1    2    0    0  0.15392230171E+03 -0.22422852780E+03  0.92623546122E+02  0.31332830855E+03  0.12500000000E+03 0.  0.
         21    1    1    2  503  504 -0.13617059841E+03  0.19737115411E+03 -0.14159860486E+04  0.14361456382E+04  0.00000000000E+00 0.  1.
         21    1    1    2  504  501 -0.17751703302E+02  0.26857373692E+02 -0.96868045416E+01  0.33619572781E+02  0.00000000000E+00 0.  1.
<mgrwt>
<rscale>  4 0.27176354E+03</rscale>
<asrwt>0</asrwt>
<pdfrwt beam="1">  1       21 0.34618787E-01 0.27176354E+03</pdfrwt>
<pdfrwt beam="2">  1       21 0.23970329E+00 0.27176354E+03</pdfrwt>
<totfact> 0.56480676E+02</totfact>
</mgrwt>
</event>
