<event>
 5    0  0.4025551E-002  0.1032613E+04  0.7546771E-02  0.9273482E-01
         -1   -1    0    0    0  501 -0.00000000000E+00  0.00000000000E+00  0.60150900758E+03  0.60150900758E+03  0.00000000000E+00 0. -1.
          1   -1    0    0  503    0  0.00000000000E+00 -0.00000000000E+00 -0.60556813052E+03  0.60556813052E+03  0.00000000000E+00 0.  1.
         25    1    1    2    0    0  0.42941933388E+03  0.17995131675E+03 -0.33389012006E+03  0.58642224803E+03  0.12500000000E+03 0.  0.
         21    1    1    2  502  501 -0.32074937059E+03 -0.23650728241E+03  0.21533545714E+03  0.45297374369E+03  0.00000000000E+00 0. -1.
         21    1    1    2  503  502 -0.10866996330E+03  0.56555965667E+02  0.11449553998E+03  0.16768114638E+03  0.00000000000E+00 0. -1.
<mgrwt>
<rscale>  4 0.10326126E+04</rscale>
<asrwt>0</asrwt>
<pdfrwt beam="1">  1        1 0.93164328E-01 0.10326126E+04</pdfrwt>
<pdfrwt beam="2">  1       -1 0.92539847E-01 0.10326126E+04</pdfrwt>
<totfact> 0.38394217E+01</totfact>
</mgrwt>
</event>
<event>
 5    0  0.4025551E-002  0.5292847E+03  0.7546771E-02  0.1006406E+00
          2   -1    0    0  503    0  0.00000000000E+00  0.00000000000E+00  0.25484247533E+04  0.25484247533E+04  0.00000000000E+00 0.  1.
         -2   -1    0    0    0  501 -0.00000000000E+00 -0.00000000000E+00 -0.44103800912E+02  0.44103800912E+02  0.00000000000E+00 0. -1.
         25    1    1    2    0    0  0.26547054621E+02  0.23707319345E+03  0.91729697443E+03  0.95601630972E+03  0.12500000000E+03 0.  0.
         21    1    1    2  502  501 -0.56970163102E+02 -0.22303979070E+03  0.15863872343E+04  0.16030024345E+04  0.00000000000E+00 0.  1.
         21    1    1    2  503  502  0.30423108481E+02 -0.14033402746E+02  0.63674360287E+00  0.33509809977E+02  0.00000000000E+00 0. -1.
<mgrwt>
<rscale>  4 0.52928472E+03</rscale>
<asrwt>0</asrwt>
<pdfrwt beam="1">  1        2 0.39206523E+00 0.52928472E+03</pdfrwt>
<pdfrwt beam="2">  1       -2 0.67852021E-02 0.52928472E+03</pdfrwt>
<totfact> 0.44330360E+02</totfact>
</mgrwt>
</event>
<event>
 5    0  0.4025551E-002  0.5055962E+03  0.7546771E-02  0.1012328E+00
         -2   -1    0    0    0  501 -0.00000000000E+00  0.00000000000E+00  0.18307056527E+03  0.18307056527E+03  0.00000000000E+00 0.  1.
          2   -1    0    0  503    0  0.00000000000E+00 -0.00000000000E+00 -0.43532246083E+03  0.43532246083E+03  0.00000000000E+00 0. -1.
         25    1    1    2    0    0 -0.23606093644E+03  0.66505805067E+02 -0.12259362889E+03  0.30133367827E+03  0.12500000000E+03 0.  0.
         21    1    1    2  502  501  0.21613394763E+03 -0.69274768899E+02 -0.16208498418E+03  0.27889858196E+03  0.00000000000E+00 0.  1.
         21    1    1    2  503  502  0.19926988808E+02  0.27689638314E+01  0.32426717503E+02  0.38160765869E+02  0.00000000000E+00 0.  1.
<mgrwt>
<rscale>  4 0.50559625E+03</rscale>
<asrwt>0</asrwt>
<pdfrwt beam="1">  1        2 0.66972686E-01 0.50559625E+03</pdfrwt>
<pdfrwt beam="2">  1       -2 0.28164703E-01 0.50559625E+03</pdfrwt>
<totfact> 0.83636845E+02</totfact>
</mgrwt>
</event>
<event>
 5    0  0.4025551E-002  0.5064549E+03  0.7546771E-02  0.1012108E+00
          1   -1    0    0  502    0  0.00000000000E+00  0.00000000000E+00  0.66358069898E+03  0.66358069898E+03  0.00000000000E+00 0. -1.
         -1   -1    0    0    0  501 -0.00000000000E+00 -0.00000000000E+00 -0.16058418314E+03  0.16058418314E+03  0.00000000000E+00 0.  1.
         25    1    1    2    0    0 -0.11237576812E+03  0.20104535864E+03  0.26007772408E+03  0.36920586677E+03  0.12500000000E+03 0.  0.
         21    1    1    2  502  503 -0.36076420327E+02 -0.90457379892E+01 -0.57669782538E+02  0.68623154237E+02  0.00000000000E+00 0.  1.
         21    1    1    2  503  501  0.14845218845E+03 -0.19199962065E+03  0.30058857430E+03  0.38633586112E+03  0.00000000000E+00 0.  1.
<mgrwt>
<rscale>  4 0.50645494E+03</rscale>
<asrwt>0</asrwt>
<pdfrwt beam="1">  1        1 0.10208934E+00 0.50645494E+03</pdfrwt>
<pdfrwt beam="2">  1       -1 0.24705259E-01 0.50645494E+03</pdfrwt>
<totfact> 0.42947342E+02</totfact>
</mgrwt>
</event>
<event>
 5    0  0.4025551E-002  0.4833606E+03  0.7546771E-02  0.1018216E+00
          1   -1    0    0  503    0  0.00000000000E+00  0.00000000000E+00  0.21916104347E+04  0.21916104347E+04  0.00000000000E+00 0.  1.
         -1   -1    0    0    0  501 -0.00000000000E+00 -0.00000000000E+00 -0.52978430567E+02  0.52978430567E+02  0.00000000000E+00 0. -1.
         25    1    1    2    0    0 -0.17294594686E+03  0.11733135712E+03  0.10139849732E+04  0.10428170854E+04  0.12500000000E+03 0.  0.
         21    1    1    2  502  501  0.10279190279E+03  0.15710897415E+00  0.10306376570E+04  0.10357510222E+04  0.00000000000E+00 0. -1.
         21    1    1    2  503  502  0.70154044062E+02 -0.11748846610E+03  0.94009373958E+02  0.16602075761E+03  0.00000000000E+00 0. -1.
<mgrwt>
<rscale>  4 0.48336059E+03</rscale>
<asrwt>0</asrwt>
<pdfrwt beam="1">  1        1 0.33717077E+00 0.48336059E+03</pdfrwt>
<pdfrwt beam="2">  1       -1 0.81505295E-02 0.48336059E+03</pdfrwt>
<totfact> 0.20445613E+02</totfact>
</mgrwt>
</event>
<event>
 5    0  0.4025551E-002  0.4764246E+03  0.7546771E-02  0.1020122E+00
         -2   -1    0    0    0  501 -0.00000000000E+00  0.00000000000E+00  0.25350658420E+03  0.25350658420E+03  0.00000000000E+00 0. -1.
          2   -1    0    0  502    0  0.00000000000E+00 -0.00000000000E+00 -0.22384077764E+03  0.22384077764E+03  0.00000000000E+00 0.  1.
         25    1    1    2    0    0 -0.16657020275E+03  0.11427596413E+03 -0.46350605389E+02  0.24202893844E+03  0.12500000000E+03 0.  0.
         21    1    1    2  502  503  0.52810407626E+02 -0.87321476629E+02  0.14079234168E+02  0.10301555353E+03  0.00000000000E+00 0.  1.
         21    1    1    2  503  501  0.11375979513E+03 -0.26954487502E+02  0.61937177778E+02  0.13230286987E+03  0.00000000000E+00 0.  1.
<mgrwt>
<rscale>  4 0.47642465E+03</rscale>
<asrwt>0</asrwt>
<pdfrwt beam="1">  1        2 0.34437043E-01 0.47642465E+03</pdfrwt>
<pdfrwt beam="2">  1       -2 0.39001013E-01 0.47642465E+03</pdfrwt>
<totfact> 0.94817760E+02</totfact>
</mgrwt>
</event>
<event>
 5    0  0.4025551E-002  0.4352476E+03  0.7546771E-02  0.1032215E+00
          2   -1    0    0  503    0  0.00000000000E+00  0.00000000000E+00  0.88281168336E+03  0.88281168336E+03  0.00000000000E+00 0.  1.
         -2   -1    0    0    0  501 -0.00000000000E+00 -0.00000000000E+00 -0.91433962191E+02  0.91433962191E+02  0.00000000000E+00 0. -1.
         25    1    1    2    0    0 -0.20324123606E+03  0.60173913184E+02  0.54499229880E+03  0.59797115784E+03  0.12500000000E+03 0.  0.
         21    1    1    2  502  501  0.17996851943E+03 -0.33877976739E+02  0.27539602252E+03  0.33072549723E+03  0.00000000000E+00 0. -1.
         21    1    1    2  503  502  0.23272716629E+02 -0.26295936445E+02 -0.29010600150E+02  0.45548990481E+02  0.00000000000E+00 0. -1.
<mgrwt>
<rscale>  4 0.43524761E+03</rscale>
<asrwt>0</asrwt>
<pdfrwt beam="1">  1        2 0.13581718E+00 0.43524761E+03</pdfrwt>
<pdfrwt beam="2">  1       -2 0.14066764E-01 0.43524761E+03</pdfrwt>
<totfact> 0.11858348E+03</totfact>
</mgrwt>
</event>
<event>
 5    0  0.4025551E-002  0.5544387E+03  0.7546771E-02  0.1000472E+00
         -2   -1    0    0    0  501 -0.00000000000E+00  0.00000000000E+00  0.17096968884E+03  0.17096968884E+03  0.00000000000E+00 0.  1.
          2   -1    0    0  503    0  0.00000000000E+00 -0.00000000000E+00 -0.80975670753E+03  0.80975670753E+03  0.00000000000E+00 0. -1.
         25    1    1    2    0    0 -0.22213663252E+03 -0.43959355383E+02 -0.66816722418E+03  0.71648415747E+03  0.12500000000E+03 0.  0.
         21    1    1    2  502  501  0.16909705464E+03  0.49394268321E+02 -0.36075596408E+02  0.17981951031E+03  0.00000000000E+00 0.  1.
         21    1    1    2  503  502  0.53039577875E+02 -0.54349129379E+01  0.65455801905E+02  0.84422728591E+02  0.00000000000E+00 0. -1.
<mgrwt>
<rscale>  4 0.55443874E+03</rscale>
<asrwt>0</asrwt>
<pdfrwt beam="1">  1        2 0.12457795E+00 0.55443874E+03</pdfrwt>
<pdfrwt beam="2">  1       -2 0.26303029E-01 0.55443874E+03</pdfrwt>
<totfact> 0.44873276E+02</totfact>
</mgrwt>
</event>
<event>
 5    0  0.4025551E-002  0.4606695E+03  0.7546771E-02  0.1024587E+00
          1   -1    0    0  503    0  0.00000000000E+00  0.00000000000E+00  0.85109760876E+02  0.85109760876E+02  0.00000000000E+00 0. -1.
         -1   -1    0    0    0  501 -0.00000000000E+00 -0.00000000000E+00 -0.11712697295E+04  0.11712697295E+04  0.00000000000E+00 0.  1.
         25    1    1    2    0    0  0.22355161042E+03  0.26251027643E+02 -0.33593284588E+03  0.42324970870E+03  0.12500000000E+03 0.  0.
         21    1    1    2  502  501 -0.19723527395E+03 -0.40140400964E+02 -0.20571403240E+03  0.28780421854E+03  0.00000000000E+00 0. -1.
         21    1    1    2  503  502 -0.26316336472E+02  0.13889373321E+02 -0.54451309031E+03  0.54532556311E+03  0.00000000000E+00 0.  1.
<mgrwt>
<rscale>  4 0.46066945E+03</rscale>
<asrwt>0</asrwt>
<pdfrwt beam="1">  1        1 0.13093809E-01 0.46066945E+03</pdfrwt>
<pdfrwt beam="2">  1       -1 0.18019535E+00 0.46066945E+03</pdfrwt>
<totfact> 0.10006072E+02</totfact>
</mgrwt>
</event>
<event>
 5    0  0.4025551E-002  0.5628150E+03  0.7546771E-02  0.9985705E-01
         -2   -1    0    0    0  501 -0.00000000000E+00  0.00000000000E+00  0.55812812393E+02  0.55812812393E+02  0.00000000000E+00 0.  1.
          2   -1    0    0  502    0  0.00000000000E+00 -0.00000000000E+00 -0.21507258779E+04  0.21507258779E+04  0.00000000000E+00 0. -1.
         25    1    1    2    0    0  0.26015176349E+03 -0.15847606178E+02 -0.12230230069E+04  0.12567180918E+04  0.12500000000E+03 0.  0.
         21    1    1    2  502  503 -0.18388023949E+03  0.44478298356E+02 -0.20885406365E+03  0.28179829915E+03  0.00000000000E+00 0.  1.
         21    1    1    2  503  501 -0.76271524000E+02 -0.28630692178E+02 -0.66303599496E+03  0.66802229942E+03  0.00000000000E+00 0.  1.
<mgrwt>
<rscale>  4 0.56281501E+03</rscale>
<asrwt>0</asrwt>
<pdfrwt beam="1">  1        2 0.33088089E+00 0.56281501E+03</pdfrwt>
<pdfrwt beam="2">  1       -2 0.85865869E-02 0.56281501E+03</pdfrwt>
<totfact> 0.50443812E+02</totfact>
</mgrwt>
</event>
<event>
 5    0  0.4025551E-002  0.4912373E+03  0.7546771E-02  0.1016092E+00
          1   -1    0    0  503    0  0.00000000000E+00  0.00000000000E+00  0.44444270194E+03  0.44444270194E+03  0.00000000000E+00 0. -1.
         -1   -1    0    0    0  501 -0.00000000000E+00 -0.00000000000E+00 -0.15647817793E+03  0.15647817793E+03  0.00000000000E+00 0.  1.
         25    1    1    2    0    0 -0.11596134684E+03 -0.21014396708E+03  0.14148091585E+03  0.30536759882E+03  0.12500000000E+03 0.  0.
         21    1    1    2  502  501  0.10480658064E+03  0.19204502176E+03  0.15938652840E+03  0.27068390267E+03  0.00000000000E+00 0. -1.
         21    1    1    2  503  502  0.11154766198E+02  0.18098945317E+02 -0.12902920235E+02  0.24869378382E+02  0.00000000000E+00 0.  1.
<mgrwt>
<rscale>  4 0.49123733E+03</rscale>
<asrwt>0</asrwt>
<pdfrwt beam="1">  1        1 0.68375800E-01 0.49123733E+03</pdfrwt>
<pdfrwt beam="2">  1       -1 0.24073566E-01 0.49123733E+03</pdfrwt>
<totfact> 0.78343329E+02</totfact>
</mgrwt>
</event>
<event>
 5    0  0.4025551E-002  0.6727631E+03  0.7546771E-02  0.9764979E-01
         -2   -1    0    0    0  501 -0.00000000000E+00  0.00000000000E+00  0.10278455449E+04  0.10278455449E+04  0.00000000000E+00 0. -1.
          2   -1    0    0  503    0  0.00000000000E+00 -0.00000000000E+00 -0.21853443297E+03  0.21853443297E+03  0.00000000000E+00 0.  1.
         25    1    1    2    0    0 -0.24498364416E+03  0.21426691322E+03 -0.37511749202E+01  0.34866368799E+03  0.12500000000E+03 0.  0.
         21    1    1    2  502  501  0.20287980167E+03 -0.88051524806E+02  0.33450768875E+03  0.40100957443E+03  0.00000000000E+00 0. -1.
         21    1    1    2  503  502  0.42103842490E+02 -0.12621538841E+03  0.47855459812E+03  0.49670671548E+03  0.00000000000E+00 0. -1.
<mgrwt>
<rscale>  4 0.67276306E+03</rscale>
<asrwt>0</asrwt>
<pdfrwt beam="1">  1        2 0.33620683E-01 0.67276306E+03</pdfrwt>
<pdfrwt beam="2">  1       -2 0.15813008E+00 0.67276306E+03</pdfrwt>
<totfact> 0.41371795E+01</totfact>
</mgrwt>
</event>
<event>
 5    0  0.4025551E-002  0.5067665E+03  0.7546771E-02  0.1012028E+00
         -1   -1    0    0    0  501 -0.00000000000E+00  0.00000000000E+00  0.23173045622E+03  0.23173045622E+03  0.00000000000E+00 0. -1.
          1   -1    0    0  503    0  0.00000000000E+00 -0.00000000000E+00 -0.27705927896E+03  0.27705927896E+03  0.00000000000E+00 0.  1.
         25    1    1    2    0    0  0.88340408388E+02 -0.21378208637E+03  0.15003105504E+02  0.26335698468E+03  0.12500000000E+03 0.  0.
         21    1    1    2  502  501 -0.18714667550E+02  0.10128846236E+03 -0.44453569566E+02  0.11218605634E+03  0.00000000000E+00 0.  1.
         21    1    1    2  503  502 -0.69625740838E+02  0.11249362401E+03 -0.15878358679E+02  0.13324669416E+03  0.00000000000E+00 0. -1.
<mgrwt>
<rscale>  4 0.50676651E+03</rscale>
<asrwt>0</asrwt>
<pdfrwt beam="1">  1        1 0.42624504E-01 0.50676651E+03</pdfrwt>
<pdfrwt beam="2">  1       -1 0.35650839E-01 0.50676651E+03</pdfrwt>
<totfact> 0.73506191E+02</totfact>
</mgrwt>
</event>
<event>
 5    0  0.4025551E-002  0.1127690E+04  0.7546771E-02  0.9178616E-01
          1   -1    0    0  503    0  0.00000000000E+00  0.00000000000E+00  0.58862988923E+03  0.58862988923E+03  0.00000000000E+00 0. -1.
         -1   -1    0    0    0  501 -0.00000000000E+00 -0.00000000000E+00 -0.11351602896E+04  0.11351602896E+04  0.00000000000E+00 0.  1.
         25    1    1    2    0    0  0.21279950268E+03  0.21133601110E+03  0.43826208174E+03  0.54556868515E+03  0.12500000000E+03 0.  0.
         21    1    1    2  502  501 -0.29010436870E+03 -0.30624564738E+03 -0.40199132551E+03  0.58270401325E+03  0.00000000000E+00 0.  1.
         21    1    1    2  503  502  0.77304866021E+02  0.94909636279E+02 -0.58280115663E+03  0.59551748046E+03  0.00000000000E+00 0. -1.
<mgrwt>
<rscale>  4 0.11276895E+04</rscale>
<asrwt>0</asrwt>
<pdfrwt beam="1">  1        1 0.90558445E-01 0.11276895E+04</pdfrwt>
<pdfrwt beam="2">  1       -1 0.17464004E+00 0.11276895E+04</pdfrwt>
<totfact> 0.79440011E+00</totfact>
</mgrwt>
</event>
<event>
 5    0  0.4025551E-002  0.5347433E+03  0.7546771E-02  0.1005088E+00
          1   -1    0    0  502    0  0.00000000000E+00  0.00000000000E+00  0.11044178176E+04  0.11044178176E+04  0.00000000000E+00 0. -1.
         -1   -1    0    0    0  501 -0.00000000000E+00 -0.00000000000E+00 -0.64728759093E+02  0.64728759093E+02  0.00000000000E+00 0.  1.
         25    1    1    2    0    0 -0.61599230668E+02  0.21968853686E+03  0.39246803537E+03  0.47086481843E+03  0.12500000000E+03 0.  0.
         21    1    1    2  502  503  0.93371315518E+02 -0.94114094086E+02  0.32984727624E+03  0.35549246252E+03  0.00000000000E+00 0. -1.
         21    1    1    2  503  501 -0.31772084850E+02 -0.12557444278E+03  0.31737374689E+03  0.34278929574E+03  0.00000000000E+00 0. -1.
<mgrwt>
<rscale>  4 0.53474328E+03</rscale>
<asrwt>0</asrwt>
<pdfrwt beam="1">  1        1 0.16991042E+00 0.53474328E+03</pdfrwt>
<pdfrwt beam="2">  1       -1 0.99582714E-02 0.53474328E+03</pdfrwt>
<totfact> 0.81306087E+02</totfact>
</mgrwt>
</event>
<event>
 5    0  0.4025551E-002  0.5302637E+03  0.7546771E-02  0.1006168E+00
         -3   -1    0    0    0  501 -0.00000000000E+00  0.00000000000E+00  0.58366135043E+02  0.58366135043E+02  0.00000000000E+00 0. -1.
          3   -1    0    0  503    0  0.00000000000E+00 -0.00000000000E+00 -0.12043781450E+04  0.12043781450E+04  0.00000000000E+00 0.  1.
         25    1    1    2    0    0  0.29035635696E+02 -0.21841022480E+03 -0.85278531584E+03  0.88961446107E+03  0.12500000000E+03 0.  0.
         21    1    1    2  502  501 -0.19840651110E+02  0.17902095292E+03 -0.27506774954E+03  0.32879236588E+03  0.00000000000E+00 0. -1.
         21    1    1    2  503  502 -0.91949845868E+01  0.39389271873E+02 -0.18158944607E+02  0.44337453123E+02  0.00000000000E+00 0.  1.
<mgrwt>
<rscale>  4 0.53026370E+03</rscale>
<asrwt>0</asrwt>
<pdfrwt beam="1">  1        3 0.18528892E+00 0.53026370E+03</pdfrwt>
<pdfrwt beam="2">  1       -3 0.89794065E-02 0.53026370E+03</pdfrwt>
<totfact> 0.44824257E+01</totfact>
</mgrwt>
</event>
<event>
 5    0  0.4025551E-002  0.4929838E+03  0.7546771E-02  0.1015627E+00
         -1   -1    0    0    0  501 -0.00000000000E+00  0.00000000000E+00  0.45166077942E+02  0.45166077942E+02  0.00000000000E+00 0. -1.
          1   -1    0    0  503    0  0.00000000000E+00 -0.00000000000E+00 -0.13452185506E+04  0.13452185506E+04  0.00000000000E+00 0.  1.
         25    1    1    2    0    0  0.19563354128E+02 -0.22309842222E+03 -0.80169609858E+03  0.84172279600E+03  0.12500000000E+03 0.  0.
         21    1    1    2  502  501 -0.48402874294E+01  0.20899087774E+03 -0.45028815770E+03  0.49644741950E+03  0.00000000000E+00 0. -1.
         21    1    1    2  503  502 -0.14723066698E+02  0.14107544480E+02 -0.48068216395E+02  0.52214413065E+02  0.00000000000E+00 0.  1.
<mgrwt>
<rscale>  4 0.49298376E+03</rscale>
<asrwt>0</asrwt>
<pdfrwt beam="1">  1        1 0.20695669E+00 0.49298376E+03</pdfrwt>
<pdfrwt beam="2">  1       -1 0.69486278E-02 0.49298376E+03</pdfrwt>
<totfact> 0.96114577E+02</totfact>
</mgrwt>
</event>
<event>
 5    0  0.4025551E-002  0.7223224E+03  0.7546771E-02  0.9679802E-01
          1   -1    0    0  502    0  0.00000000000E+00  0.00000000000E+00  0.29505172796E+03  0.29505172796E+03  0.00000000000E+00 0. -1.
         -1   -1    0    0    0  501 -0.00000000000E+00 -0.00000000000E+00 -0.68428084731E+03  0.68428084731E+03  0.00000000000E+00 0.  1.
         25    1    1    2    0    0 -0.31450187434E+03  0.11478328801E+03 -0.21098964201E+03  0.41500392914E+03  0.12500000000E+03 0.  0.
         21    1    1    2  502  503  0.28265678690E+03 -0.23063642385E+03 -0.23238685837E+03  0.43254094735E+03  0.00000000000E+00 0.  1.
         21    1    1    2  503  501  0.31845087445E+02  0.11585313584E+03  0.54147381030E+02  0.13178769879E+03  0.00000000000E+00 0. -1.
<mgrwt>
<rscale>  4 0.72232236E+03</rscale>
<asrwt>0</asrwt>
<pdfrwt beam="1">  1        1 0.45392574E-01 0.72232236E+03</pdfrwt>
<pdfrwt beam="2">  1       -1 0.10527398E+00 0.72232236E+03</pdfrwt>
<totfact> 0.77315261E+01</totfact>
</mgrwt>
</event>
<event>
 5    0  0.4025551E-002  0.4846439E+03  0.7546771E-02  0.1017867E+00
          1   -1    0    0  503    0  0.00000000000E+00  0.00000000000E+00  0.27331479433E+03  0.27331479433E+03  0.00000000000E+00 0. -1.
         -1   -1    0    0    0  501 -0.00000000000E+00 -0.00000000000E+00 -0.46719681337E+03  0.46719681337E+03  0.00000000000E+00 0.  1.
         25    1    1    2    0    0 -0.20118357406E+03 -0.29383329764E+02  0.16177043280E+03  0.28832773621E+03  0.12500000000E+03 0.  0.
         21    1    1    2  502  501  0.16873831040E+03  0.14400717885E+02 -0.10557273082E+03  0.19956352264E+03  0.00000000000E+00 0. -1.
         21    1    1    2  503  502  0.32445263657E+02  0.14982611879E+02 -0.25007972101E+03  0.25262034885E+03  0.00000000000E+00 0. -1.
<mgrwt>
<rscale>  4 0.48464389E+03</rscale>
<asrwt>0</asrwt>
<pdfrwt beam="1">  1        1 0.42048430E-01 0.48464389E+03</pdfrwt>
<pdfrwt beam="2">  1       -1 0.71876433E-01 0.48464389E+03</pdfrwt>
<totfact> 0.19864319E+02</totfact>
</mgrwt>
</event>
<event>
 5    0  0.4025551E-002  0.6466376E+03  0.7546771E-02  0.9813109E-01
         -1   -1    0    0    0  501 -0.00000000000E+00  0.00000000000E+00  0.15777285658E+03  0.15777285658E+03  0.00000000000E+00 0. -1.
          1   -1    0    0  502    0  0.00000000000E+00 -0.00000000000E+00 -0.83678829414E+03  0.83678829414E+03  0.00000000000E+00 0.  1.
         25    1    1    2    0    0  0.11152799075E+03 -0.25022757401E+03 -0.23015074485E+03  0.37900751559E+03  0.12500000000E+03 0.  0.
         21    1    1    2  502  503  0.73072466203E+01 -0.61454080652E+02 -0.75327041101E+01  0.62343736760E+02  0.00000000000E+00 0.  1.
         21    1    1    2  503  501 -0.11883523737E+03  0.31168165467E+03 -0.44133198860E+03  0.55320989837E+03  0.00000000000E+00 0. -1.
<mgrwt>
<rscale>  4 0.64663765E+03</rscale>
<asrwt>0</asrwt>
<pdfrwt beam="1">  1        1 0.12873666E+00 0.64663765E+03</pdfrwt>
<pdfrwt beam="2">  1       -1 0.24272747E-01 0.64663765E+03</pdfrwt>
<totfact> 0.30741744E+02</totfact>
</mgrwt>
</event>
<event>
 5    0  0.4025551E-002  0.6422512E+03  0.7546771E-02  0.9821429E-01
          2   -1    0    0  502    0  0.00000000000E+00  0.00000000000E+00  0.17716767848E+03  0.17716767848E+03  0.00000000000E+00 0. -1.
         -2   -1    0    0    0  501 -0.00000000000E+00 -0.00000000000E+00 -0.62862496798E+03  0.62862496798E+03  0.00000000000E+00 0.  1.
         25    1    1    2    0    0 -0.87915622751E+02  0.21830107402E+03 -0.47248164469E+03  0.54244669804E+03  0.12500000000E+03 0.  0.
         21    1    1    2  502  503  0.24829672192E+01 -0.19969267237E+02 -0.34888051810E+02  0.40275462993E+02  0.00000000000E+00 0. -1.
         21    1    1    2  503  501  0.85432655532E+02 -0.19833180678E+03  0.55912407001E+02  0.22307048543E+03  0.00000000000E+00 0. -1.
<mgrwt>
<rscale>  4 0.64225122E+03</rscale>
<asrwt>0</asrwt>
<pdfrwt beam="1">  1        2 0.27256567E-01 0.64225122E+03</pdfrwt>
<pdfrwt beam="2">  1       -2 0.96711531E-01 0.64225122E+03</pdfrwt>
<totfact> 0.17947242E+02</totfact>
</mgrwt>
</event>
<event>
 5    0  0.4025551E-002  0.4398845E+03  0.7546771E-02  0.1030782E+00
          1   -1    0    0  503    0  0.00000000000E+00  0.00000000000E+00  0.77382805240E+02  0.77382805240E+02  0.00000000000E+00 0. -1.
         -1   -1    0    0    0  501 -0.00000000000E+00 -0.00000000000E+00 -0.76177577784E+03  0.76177577784E+03  0.00000000000E+00 0.  1.
         25    1    1    2    0    0 -0.20228273616E+03 -0.63876563832E+02 -0.33700849912E+03  0.41737063772E+03  0.12500000000E+03 0.  0.
         21    1    1    2  502  501  0.18175249214E+03  0.63413169567E+02 -0.21817269402E+03  0.29095450313E+03  0.00000000000E+00 0.  1.
         21    1    1    2  503  502  0.20530244021E+02  0.46339426457E+00 -0.12921177946E+03  0.13083344223E+03  0.00000000000E+00 0.  1.
<mgrwt>
<rscale>  4 0.43988447E+03</rscale>
<asrwt>0</asrwt>
<pdfrwt beam="1">  1        1 0.11905047E-01 0.43988447E+03</pdfrwt>
<pdfrwt beam="2">  1       -1 0.11719628E+00 0.43988447E+03</pdfrwt>
<totfact> 0.35352072E+02</totfact>
</mgrwt>
</event>
<event>
 5    0  0.4025551E-002  0.1401234E+04  0.7546771E-02  0.8952926E-01
         -1   -1    0    0    0  501 -0.00000000000E+00  0.00000000000E+00  0.13234514037E+04  0.13234514037E+04  0.00000000000E+00 0. -1.
          1   -1    0    0  503    0  0.00000000000E+00 -0.00000000000E+00 -0.60282736151E+03  0.60282736151E+03  0.00000000000E+00 0.  1.
         25    1    1    2    0    0  0.31516225172E+03  0.53212527742E+03  0.62069664460E+03  0.88508410922E+03  0.12500000000E+03 0.  0.
         21    1    1    2  502  501 -0.36153042265E+03  0.11627459639E+03  0.93491937594E+02  0.39110710894E+03  0.00000000000E+00 0.  1.
         21    1    1    2  503  502  0.46368170938E+02 -0.64839987381E+03  0.64354599585E+01  0.65008754701E+03  0.00000000000E+00 0.  1.
<mgrwt>
<rscale>  4 0.14012342E+04</rscale>
<asrwt>0</asrwt>
<pdfrwt beam="1">  1        1 0.92742672E-01 0.14012342E+04</pdfrwt>
<pdfrwt beam="2">  1       -1 0.20360791E+00 0.14012342E+04</pdfrwt>
<totfact> 0.46850703E+00</totfact>
</mgrwt>
</event>
<event>
 5    0  0.4025551E-002  0.7066859E+03  0.7546771E-02  0.9705866E-01
         -1   -1    0    0    0  501 -0.00000000000E+00  0.00000000000E+00  0.49963816609E+03  0.49963816609E+03  0.00000000000E+00 0.  1.
          1   -1    0    0  502    0  0.00000000000E+00 -0.00000000000E+00 -0.32544044794E+03  0.32544044794E+03  0.00000000000E+00 0. -1.
         25    1    1    2    0    0 -0.19289290573E+03  0.10334273986E+03 -0.22625649751E+03  0.33868037680E+03  0.12500000000E+03 0.  0.
         21    1    1    2  502  503  0.11667834441E+03 -0.42135964280E+02  0.35970436243E+03  0.38049507735E+03  0.00000000000E+00 0.  1.
         21    1    1    2  503  501  0.76214561325E+02 -0.61206775582E+02  0.40749853225E+02  0.10590315988E+03  0.00000000000E+00 0.  1.
<mgrwt>
<rscale>  4 0.70668593E+03</rscale>
<asrwt>0</asrwt>
<pdfrwt beam="1">  1        1 0.50067761E-01 0.70668593E+03</pdfrwt>
<pdfrwt beam="2">  1       -1 0.76867410E-01 0.70668593E+03</pdfrwt>
<totfact> 0.13617773E+02</totfact>
</mgrwt>
</event>
<event>
 5    0  0.4025551E-002  0.4486244E+03  0.7546771E-02  0.1028133E+00
          2   -1    0    0  502    0  0.00000000000E+00  0.00000000000E+00  0.87983718521E+03  0.87983718521E+03  0.00000000000E+00 0.  1.
         -2   -1    0    0    0  501 -0.00000000000E+00 -0.00000000000E+00 -0.71579433168E+02  0.71579433168E+02  0.00000000000E+00 0. -1.
         25    1    1    2    0    0  0.20216912395E+03  0.31027295567E+02  0.27111671446E+03  0.36188992886E+03  0.12500000000E+03 0.  0.
         21    1    1    2  502  503 -0.25188668759E+02 -0.39806836839E+02  0.40165437850E+02  0.61905699985E+02  0.00000000000E+00 0.  1.
         21    1    1    2  503  501 -0.17698045520E+03  0.87795412717E+01  0.49697559973E+03  0.52762098953E+03  0.00000000000E+00 0.  1.
<mgrwt>
<rscale>  4 0.44862442E+03</rscale>
<asrwt>0</asrwt>
<pdfrwt beam="1">  1        2 0.13535956E+00 0.44862442E+03</pdfrwt>
<pdfrwt beam="2">  1       -2 0.11012221E-01 0.44862442E+03</pdfrwt>
<totfact> 0.17814109E+03</totfact>
</mgrwt>
</event>
<event>
 5    0  0.4025551E-002  0.4948033E+03  0.7546771E-02  0.1015144E+00
         -2   -1    0    0    0  501 -0.00000000000E+00  0.00000000000E+00  0.33253939707E+02  0.33253939707E+02  0.00000000000E+00 0.  1.
          2   -1    0    0  502    0  0.00000000000E+00 -0.00000000000E+00 -0.20982365238E+04  0.20982365238E+04  0.00000000000E+00 0. -1.
         25    1    1    2    0    0  0.13204749673E+03 -0.18297394217E+03 -0.78252271511E+03  0.82394344744E+03  0.12500000000E+03 0.  0.
         21    1    1    2  502  503  0.20639429498E+02  0.26008927465E+02 -0.11363785972E+03  0.11838924579E+03  0.00000000000E+00 0.  1.
         21    1    1    2  503  501 -0.15268692623E+03  0.15696501470E+03 -0.11688220092E+04  0.11891577703E+04  0.00000000000E+00 0. -1.
<mgrwt>
<rscale>  4 0.49480327E+03</rscale>
<asrwt>0</asrwt>
<pdfrwt beam="1">  1        2 0.32280571E+00 0.49480327E+03</pdfrwt>
<pdfrwt beam="2">  1       -2 0.51159892E-02 0.49480327E+03</pdfrwt>
<totfact> 0.12226367E+03</totfact>
</mgrwt>
</event>
<event>
 5    0  0.4025551E-002  0.6578676E+03  0.7546771E-02  0.9792127E-01
         -2   -1    0    0    0  501 -0.00000000000E+00  0.00000000000E+00  0.11405062600E+03  0.11405062600E+03  0.00000000000E+00 0. -1.
          2   -1    0    0  503    0  0.00000000000E+00 -0.00000000000E+00 -0.14535707967E+04  0.14535707967E+04  0.00000000000E+00 0.  1.
         25    1    1    2    0    0 -0.24449108059E+03  0.16917123559E+03 -0.40070537012E+03  0.51437786605E+03  0.12500000000E+03 0.  0.
         21    1    1    2  502  501  0.23805929371E+03 -0.12352367584E+03 -0.96406994263E+03  0.10006803586E+04  0.00000000000E+00 0.  1.
         21    1    1    2  503  502  0.64317868787E+01 -0.45647559746E+02  0.25255142021E+02  0.52563198074E+02  0.00000000000E+00 0. -1.
<mgrwt>
<rscale>  4 0.65786759E+03</rscale>
<asrwt>0</asrwt>
<pdfrwt beam="1">  1        2 0.22362626E+00 0.65786759E+03</pdfrwt>
<pdfrwt beam="2">  1       -2 0.17546251E-01 0.65786759E+03</pdfrwt>
<totfact> 0.36795867E+02</totfact>
</mgrwt>
</event>
<event>
 5    0  0.4025551E-002  0.4824288E+03  0.7546771E-02  0.1018470E+00
         -4   -1    0    0    0  501 -0.00000000000E+00  0.00000000000E+00  0.52591116194E+03  0.52591116194E+03  0.00000000000E+00 0.  1.
          4   -1    0    0  503    0  0.00000000000E+00 -0.00000000000E+00 -0.20714255839E+03  0.20714255839E+03  0.00000000000E+00 0. -1.
         25    1    1    2    0    0  0.12585237137E+03 -0.19273227497E+03  0.31943520917E+02  0.26387485239E+03  0.12500000000E+03 0.  0.
         21    1    1    2  502  501 -0.14407325006E+03  0.16643194924E+03  0.44287152628E+02  0.22453963347E+03  0.00000000000E+00 0. -1.
         21    1    1    2  503  502  0.18220878688E+02  0.26300325734E+02  0.24253793000E+03  0.24463923447E+03  0.00000000000E+00 0.  1.
<mgrwt>
<rscale>  4 0.48242885E+03</rscale>
<asrwt>0</asrwt>
<pdfrwt beam="1">  1        4 0.31868086E-01 0.48242885E+03</pdfrwt>
<pdfrwt beam="2">  1       -4 0.80909409E-01 0.48242885E+03</pdfrwt>
<totfact> 0.25123237E+01</totfact>
</mgrwt>
</event>
