<event>
 5    0  0.3040647E+000  0.2608502E+03  0.7546771E-02  0.1106633E+00
         -2   -1    0    0    0  501 -0.00000000000E+00  0.00000000000E+00  0.62645957182E+03  0.62645957182E+03  0.00000000000E+00 0. -1.
         21   -1    0    0  501  502  0.00000000000E+00 -0.00000000000E+00 -0.15722331635E+03  0.15722331635E+03  0.00000000000E+00 0.  1.
         25    1    1    2    0    0  0.23867089194E+03 -0.82015155819E+02  0.18447615927E+03  0.33667006666E+03  0.12500000000E+03 0.  0.
         21    1    1    2  503  502 -0.57760506542E+02 -0.44622015440E+02 -0.15177738700E+02  0.74550413346E+02  0.00000000000E+00 0. -1.
         -2    1    1    2    0  503 -0.18091038540E+03  0.12663717126E+03  0.29993783490E+03  0.37246240816E+03  0.00000000000E+00 0. -1.
<mgrwt>
<rscale>  4 0.26085021E+03</rscale>
<asrwt>0</asrwt>
<pdfrwt beam="1">  1       21 0.24188203E-01 0.26085021E+03</pdfrwt>
<pdfrwt beam="2">  1       -2 0.96378394E-01 0.26085021E+03</pdfrwt>
<totfact> 0.12153499E+03</totfact>
</mgrwt>
</event>
<event>
 5    0  0.3040647E+000  0.2401237E+03  0.7546771E-02  0.1119710E+00
          2   -1    0    0  502    0 -0.00000000000E+00  0.00000000000E+00  0.20245884960E+04  0.20245884960E+04  0.00000000000E+00 0. -1.
         21   -1    0    0  503  502  0.00000000000E+00 -0.00000000000E+00 -0.34271689766E+03  0.34271689766E+03  0.00000000000E+00 0. -1.
         25    1    1    2    0    0  0.21618686576E+03  0.92891296997E+01 -0.21173598453E+03  0.32753652621E+03  0.12500000000E+03 0.  0.
         21    1    1    2  503  501 -0.20258646660E+02  0.50790440722E+02 -0.56672190462E+02  0.78751627317E+02  0.00000000000E+00 0.  1.
          2    1    1    2  501    0 -0.19592821910E+03 -0.60079570422E+02  0.19502797734E+04  0.19610172402E+04  0.00000000000E+00 0. -1.
<mgrwt>
<rscale>  4 0.24012371E+03</rscale>
<asrwt>0</asrwt>
<pdfrwt beam="1">  1       21 0.52725677E-01 0.24012371E+03</pdfrwt>
<pdfrwt beam="2">  1        2 0.31147515E+00 0.24012371E+03</pdfrwt>
<totfact> 0.30743034E+02</totfact>
</mgrwt>
</event>
<event>
 5    0  0.3040647E+000  0.2995805E+03  0.7546771E-02  0.1085451E+00
         21   -1    0    0  503  502  0.00000000000E+00  0.00000000000E+00  0.21888372887E+03  0.21888372887E+03  0.00000000000E+00 0. -1.
          1   -1    0    0  502    0 -0.00000000000E+00 -0.00000000000E+00 -0.63785710115E+03  0.63785710115E+03  0.00000000000E+00 0. -1.
         25    1    1    2    0    0  0.56181127549E+02 -0.28184105235E+03 -0.36535649071E+03  0.48135336624E+03  0.12500000000E+03 0.  0.
         21    1    1    2  503  501 -0.83808858587E+01  0.33865124330E+02  0.81729715131E+02  0.88864122283E+02  0.00000000000E+00 0. -1.
          1    1    1    2  501    0 -0.47800241691E+02  0.24797592802E+03 -0.13534659670E+03  0.28652334149E+03  0.00000000000E+00 0. -1.
<mgrwt>
<rscale>  4 0.29958047E+03</rscale>
<asrwt>0</asrwt>
<pdfrwt beam="1">  1       21 0.33674421E-01 0.29958047E+03</pdfrwt>
<pdfrwt beam="2">  1        1 0.98131859E-01 0.29958047E+03</pdfrwt>
<totfact> 0.29396014E+03</totfact>
</mgrwt>
</event>
<event>
 5    0  0.3040647E+000  0.3427380E+03  0.7546771E-02  0.1065636E+00
         21   -1    0    0  503  502  0.00000000000E+00  0.00000000000E+00  0.51428030573E+03  0.51428030573E+03  0.00000000000E+00 0. -1.
          2   -1    0    0  502    0 -0.00000000000E+00 -0.00000000000E+00 -0.23123141125E+04  0.23123141125E+04  0.00000000000E+00 0. -1.
         25    1    1    2    0    0 -0.25277034708E+03 -0.19888556458E+03  0.43224880997E+03  0.55309343684E+03  0.12500000000E+03 0.  0.
         21    1    1    2  503  501  0.50775380711E+02  0.80417079807E+02 -0.13479172978E+03  0.16496622814E+03  0.00000000000E+00 0. -1.
          2    1    1    2  501    0  0.20199496637E+03  0.11846848478E+03 -0.20954908870E+04  0.21085347533E+04  0.00000000000E+00 0. -1.
<mgrwt>
<rscale>  4 0.34273802E+03</rscale>
<asrwt>0</asrwt>
<pdfrwt beam="1">  1       21 0.79120050E-01 0.34273802E+03</pdfrwt>
<pdfrwt beam="2">  1        2 0.35574062E+00 0.34273802E+03</pdfrwt>
<totfact> 0.82970595E+01</totfact>
</mgrwt>
</event>
<event>
 5    0  0.3040647E+000  0.3335809E+03  0.7546771E-02  0.1069563E+00
          2   -1    0    0  502    0 -0.00000000000E+00  0.00000000000E+00  0.86346415638E+03  0.86346415638E+03  0.00000000000E+00 0. -1.
         21   -1    0    0  503  502  0.00000000000E+00 -0.00000000000E+00 -0.29176037517E+03  0.29176037517E+03  0.00000000000E+00 0.  1.
         25    1    1    2    0    0 -0.27039362091E+03 -0.56086429309E+02  0.48264697910E+02  0.30694116512E+03  0.12500000000E+03 0.  0.
         21    1    1    2  503  501 -0.44461153743E+02  0.55166837162E+01 -0.12112725761E+03  0.12914735974E+03  0.00000000000E+00 0.  1.
          2    1    1    2  501    0  0.31485477465E+03  0.50569745593E+02  0.64456634091E+03  0.71913600669E+03  0.00000000000E+00 0. -1.
<mgrwt>
<rscale>  4 0.33358092E+03</rscale>
<asrwt>0</asrwt>
<pdfrwt beam="1">  1       21 0.44886212E-01 0.33358092E+03</pdfrwt>
<pdfrwt beam="2">  1        2 0.13284064E+00 0.33358092E+03</pdfrwt>
<totfact> 0.18359252E+03</totfact>
</mgrwt>
</event>
<event>
 5    0  0.3040647E+000  0.6721421E+03  0.7546771E-02  0.9766096E-01
         21   -1    0    0  503  502  0.00000000000E+00  0.00000000000E+00  0.70244637072E+03  0.70244637072E+03  0.00000000000E+00 0.  1.
          2   -1    0    0  502    0 -0.00000000000E+00 -0.00000000000E+00 -0.20561057106E+04  0.20561057106E+04  0.00000000000E+00 0.  1.
         25    1    1    2    0    0  0.33020044288E+03  0.60136897186E+03 -0.80001774268E+01  0.69739943765E+03  0.12500000000E+03 0.  0.
         21    1    1    2  503  501  0.10678134274E+02 -0.41098847120E+02  0.29303599335E+03  0.29609665852E+03  0.00000000000E+00 0. -1.
          2    1    1    2  501    0 -0.34087857716E+03 -0.56027012474E+03 -0.16386951558E+04  0.17650559851E+04  0.00000000000E+00 0.  1.
<mgrwt>
<rscale>  4 0.67214210E+03</rscale>
<asrwt>0</asrwt>
<pdfrwt beam="1">  1       21 0.10806868E+00 0.67214210E+03</pdfrwt>
<pdfrwt beam="2">  1        2 0.31632395E+00 0.67214210E+03</pdfrwt>
<totfact> 0.47531746E+01</totfact>
</mgrwt>
</event>
<event>
 5    0  0.3040647E+000  0.2533591E+03  0.7546771E-02  0.1111200E+00
         21   -1    0    0  503  502  0.00000000000E+00  0.00000000000E+00  0.10126084572E+03  0.10126084572E+03  0.00000000000E+00 0. -1.
          2   -1    0    0  502    0 -0.00000000000E+00 -0.00000000000E+00 -0.12566833527E+04  0.12566833527E+04  0.00000000000E+00 0. -1.
         25    1    1    2    0    0 -0.12948107264E+03 -0.18835142026E+03 -0.10283220172E+04  0.10608076059E+04  0.12500000000E+03 0.  0.
         21    1    1    2  503  501 -0.10511586793E+02  0.48818802045E+02  0.16756126560E+02  0.52673870821E+02  0.00000000000E+00 0.  1.
          2    1    1    2  501    0  0.13999265943E+03  0.13953261822E+03 -0.14385661635E+03  0.24446272172E+03  0.00000000000E+00 0. -1.
<mgrwt>
<rscale>  4 0.25335912E+03</rscale>
<asrwt>0</asrwt>
<pdfrwt beam="1">  1       21 0.15578592E-01 0.25335912E+03</pdfrwt>
<pdfrwt beam="2">  1        2 0.19333589E+00 0.25335912E+03</pdfrwt>
<totfact> 0.85225612E+03</totfact>
</mgrwt>
</event>
<event>
 5    0  0.3040647E+000  0.3211804E+03  0.7546771E-02  0.1075107E+00
         21   -1    0    0  503  502  0.00000000000E+00  0.00000000000E+00  0.78570103079E+03  0.78570103079E+03  0.00000000000E+00 0. -1.
          1   -1    0    0  502    0 -0.00000000000E+00 -0.00000000000E+00 -0.74735011708E+03  0.74735011708E+03  0.00000000000E+00 0. -1.
         25    1    1    2    0    0  0.20681981804E+03  0.26032287956E+03 -0.36318981521E+03  0.50801011863E+03  0.12500000000E+03 0.  0.
         21    1    1    2  503  501 -0.32358524983E+02 -0.58313854323E+02  0.65415051947E+03  0.65754123967E+03  0.00000000000E+00 0. -1.
          1    1    1    2  501    0 -0.17446129306E+03 -0.20200902524E+03 -0.25260979055E+03  0.36749978957E+03  0.00000000000E+00 0. -1.
<mgrwt>
<rscale>  4 0.32118038E+03</rscale>
<asrwt>0</asrwt>
<pdfrwt beam="1">  1       21 0.12087708E+00 0.32118038E+03</pdfrwt>
<pdfrwt beam="2">  1        1 0.11497694E+00 0.32118038E+03</pdfrwt>
<totfact> 0.13623302E+02</totfact>
</mgrwt>
</event>
<event>
 5    0  0.3040647E+000  0.3683341E+03  0.7546771E-02  0.1055332E+00
          1   -1    0    0  502    0 -0.00000000000E+00  0.00000000000E+00  0.85161470400E+03  0.85161470400E+03  0.00000000000E+00 0.  1.
         21   -1    0    0  503  502  0.00000000000E+00 -0.00000000000E+00 -0.27766434739E+03  0.27766434739E+03  0.00000000000E+00 0.  1.
         25    1    1    2    0    0  0.24800772125E+03 -0.15540399926E+03 -0.88036754005E+02  0.33020251792E+03  0.12500000000E+03 0.  0.
         21    1    1    2  503  501  0.62424214271E+02 -0.24376409664E+02  0.32344877933E+02  0.74412250362E+02  0.00000000000E+00 0.  1.
          1    1    1    2  501    0 -0.31043193552E+03  0.17978040893E+03  0.62964223268E+03  0.72466428310E+03  0.00000000000E+00 0.  1.
<mgrwt>
<rscale>  4 0.36833412E+03</rscale>
<asrwt>0</asrwt>
<pdfrwt beam="1">  1       21 0.42717592E-01 0.36833412E+03</pdfrwt>
<pdfrwt beam="2">  1        1 0.13101765E+00 0.36833412E+03</pdfrwt>
<totfact> 0.11502953E+03</totfact>
</mgrwt>
</event>
<event>
 5    0  0.3040647E+000  0.3224710E+03  0.7546771E-02  0.1074518E+00
         21   -1    0    0  503  502  0.00000000000E+00  0.00000000000E+00  0.76964706211E+03  0.76964706211E+03  0.00000000000E+00 0. -1.
          2   -1    0    0  502    0 -0.00000000000E+00 -0.00000000000E+00 -0.20756300751E+04  0.20756300751E+04  0.00000000000E+00 0.  1.
         25    1    1    2    0    0  0.24536080653E+03  0.23195456222E+03  0.61094105045E+03  0.70913948659E+03  0.12500000000E+03 0.  0.
         21    1    1    2  503  501 -0.33813856105E+02 -0.24070320328E+02  0.94369109461E+02  0.10309357888E+03  0.00000000000E+00 0.  1.
          2    1    1    2  501    0 -0.21154695042E+03 -0.20788424190E+03 -0.20112931729E+04  0.20330440717E+04  0.00000000000E+00 0.  1.
<mgrwt>
<rscale>  4 0.32247101E+03</rscale>
<asrwt>0</asrwt>
<pdfrwt beam="1">  1       21 0.11840724E+00 0.32247101E+03</pdfrwt>
<pdfrwt beam="2">  1        2 0.31932770E+00 0.32247101E+03</pdfrwt>
<totfact> 0.42918172E+01</totfact>
</mgrwt>
</event>
<event>
 5    0  0.3040647E+000  0.2921268E+03  0.7546771E-02  0.1089244E+00
         21   -1    0    0  503  502  0.00000000000E+00  0.00000000000E+00  0.44111587977E+03  0.44111587977E+03  0.00000000000E+00 0.  1.
          2   -1    0    0  502    0 -0.00000000000E+00 -0.00000000000E+00 -0.36909684585E+03  0.36909684585E+03  0.00000000000E+00 0.  1.
         25    1    1    2    0    0  0.26156947041E+03  0.15723742534E+03 -0.65963899241E+00  0.32979937978E+03  0.12500000000E+03 0.  0.
         21    1    1    2  503  501 -0.65125345086E+02 -0.99835269034E+01  0.19520852193E+03  0.20602754286E+03  0.00000000000E+00 0.  1.
          2    1    1    2  501    0 -0.19644412533E+03 -0.14725389844E+03 -0.12252984901E+03  0.27438580298E+03  0.00000000000E+00 0.  1.
<mgrwt>
<rscale>  4 0.29212679E+03</rscale>
<asrwt>0</asrwt>
<pdfrwt beam="1">  1       21 0.67863982E-01 0.29212679E+03</pdfrwt>
<pdfrwt beam="2">  1        2 0.56784130E-01 0.29212679E+03</pdfrwt>
<totfact> 0.20779917E+03</totfact>
</mgrwt>
</event>
<event>
 5    0  0.3040647E+000  0.2622470E+03  0.7546771E-02  0.1105801E+00
         21   -1    0    0  501  502  0.00000000000E+00  0.00000000000E+00  0.50941497157E+03  0.50941497157E+03  0.00000000000E+00 0. -1.
         -2   -1    0    0    0  501 -0.00000000000E+00 -0.00000000000E+00 -0.18785024654E+03  0.18785024654E+03  0.00000000000E+00 0.  1.
         25    1    1    2    0    0  0.28167436721E+02 -0.22881232382E+03 -0.40727567412E+02  0.26539069081E+03  0.12500000000E+03 0.  0.
         21    1    1    2  503  502 -0.40769202146E+01  0.21818915657E+02  0.66037533543E+02  0.69668085917E+02  0.00000000000E+00 0.  1.
         -2    1    1    2    0  503 -0.24090516507E+02  0.20699340816E+03  0.29625475890E+03  0.36220644138E+03  0.00000000000E+00 0.  1.
<mgrwt>
<rscale>  4 0.26224699E+03</rscale>
<asrwt>0</asrwt>
<pdfrwt beam="1">  1       21 0.78371534E-01 0.26224699E+03</pdfrwt>
<pdfrwt beam="2">  1       -2 0.28900038E-01 0.26224699E+03</pdfrwt>
<totfact> 0.12360530E+03</totfact>
</mgrwt>
</event>
<event>
 5    0  0.3040647E+000  0.1825026E+03  0.7546771E-02  0.1165403E+00
         21   -1    0    0  503  502  0.00000000000E+00  0.00000000000E+00  0.11310359917E+03  0.11310359917E+03  0.00000000000E+00 0. -1.
          2   -1    0    0  502    0 -0.00000000000E+00 -0.00000000000E+00 -0.21512442972E+04  0.21512442972E+04  0.00000000000E+00 0.  1.
         25    1    1    2    0    0 -0.19119263317E+03  0.63048028639E+02 -0.53334828111E+03  0.58362236580E+03  0.12500000000E+03 0.  0.
         21    1    1    2  503  501  0.68809648772E+02 -0.32424209336E+02  0.68511659178E+02  0.10237160035E+03  0.00000000000E+00 0. -1.
          2    1    1    2  501    0  0.12238298440E+03 -0.30623819303E+02 -0.15733040761E+04  0.15783539302E+04  0.00000000000E+00 0.  1.
<mgrwt>
<rscale>  4 0.18250265E+03</rscale>
<asrwt>0</asrwt>
<pdfrwt beam="1">  1       21 0.17400555E-01 0.18250265E+03</pdfrwt>
<pdfrwt beam="2">  1        2 0.33096064E+00 0.18250265E+03</pdfrwt>
<totfact> 0.24171638E+03</totfact>
</mgrwt>
</event>
<event>
 5    0  0.3040647E+000  0.3752074E+03  0.7546771E-02  0.1052719E+00
         21   -1    0    0  501  502  0.00000000000E+00  0.00000000000E+00  0.27996311831E+03  0.27996311831E+03  0.00000000000E+00 0. -1.
         -3   -1    0    0    0  501 -0.00000000000E+00 -0.00000000000E+00 -0.76715176576E+03  0.76715176576E+03  0.00000000000E+00 0. -1.
         25    1    1    2    0    0 -0.25468287395E+03  0.21317224003E+03  0.63264855268E+02  0.36046249751E+03  0.12500000000E+03 0.  0.
         21    1    1    2  503  502 -0.30114594534E+01  0.37554653602E+02 -0.12665338742E+02  0.39747096758E+02  0.00000000000E+00 0. -1.
         -3    1    1    2    0  503  0.25769433340E+03 -0.25072689363E+03 -0.53778816398E+03  0.64690528980E+03  0.00000000000E+00 0. -1.
<mgrwt>
<rscale>  4 0.37520739E+03</rscale>
<asrwt>0</asrwt>
<pdfrwt beam="1">  1       21 0.43071250E-01 0.37520739E+03</pdfrwt>
<pdfrwt beam="2">  1       -3 0.11802335E+00 0.37520739E+03</pdfrwt>
<totfact> 0.15102011E+02</totfact>
</mgrwt>
</event>
<event>
 5    0  0.3040647E+000  0.3304243E+03  0.7546771E-02  0.1070949E+00
         21   -1    0    0  503  502  0.00000000000E+00  0.00000000000E+00  0.66506522274E+03  0.66506522274E+03  0.00000000000E+00 0. -1.
          1   -1    0    0  502    0 -0.00000000000E+00 -0.00000000000E+00 -0.31315635967E+03  0.31315635967E+03  0.00000000000E+00 0. -1.
         25    1    1    2    0    0  0.33756095675E+03  0.10317454589E+02  0.43529615616E+03  0.56494388479E+03  0.12500000000E+03 0.  0.
         21    1    1    2  503  501 -0.40522906430E+02  0.33143542830E+02  0.60810998171E+02  0.80240749469E+02  0.00000000000E+00 0. -1.
          1    1    1    2  501    0 -0.29703805032E+03 -0.43460997419E+02 -0.14419829125E+03  0.33303694816E+03  0.00000000000E+00 0. -1.
<mgrwt>
<rscale>  4 0.33042431E+03</rscale>
<asrwt>0</asrwt>
<pdfrwt beam="1">  1       21 0.10231773E+00 0.33042431E+03</pdfrwt>
<pdfrwt beam="2">  1        1 0.48177902E-01 0.33042431E+03</pdfrwt>
<totfact> 0.66428942E+02</totfact>
</mgrwt>
</event>
<event>
 5    0  0.3040647E+000  0.2080050E+03  0.7546771E-02  0.1143156E+00
         21   -1    0    0  503  502  0.00000000000E+00  0.00000000000E+00  0.71640843570E+03  0.71640843570E+03  0.00000000000E+00 0. -1.
          1   -1    0    0  502    0 -0.00000000000E+00 -0.00000000000E+00 -0.10330564290E+03  0.10330564290E+03  0.00000000000E+00 0. -1.
         25    1    1    2    0    0 -0.20292952252E+03 -0.25912077358E+02  0.19793458969E+03  0.31089375783E+03  0.12500000000E+03 0.  0.
         21    1    1    2  503  501  0.15307357274E+03  0.34836441641E+02  0.42857911024E+03  0.45642650018E+03  0.00000000000E+00 0. -1.
          1    1    1    2  501    0  0.49855949778E+02 -0.89243642838E+01 -0.13410907122E+02  0.52393820589E+02  0.00000000000E+00 0. -1.
<mgrwt>
<rscale>  4 0.20800501E+03</rscale>
<asrwt>0</asrwt>
<pdfrwt beam="1">  1       21 0.11021668E+00 0.20800501E+03</pdfrwt>
<pdfrwt beam="2">  1        1 0.15893176E-01 0.20800501E+03</pdfrwt>
<totfact> 0.23895686E+03</totfact>
</mgrwt>
</event>
<event>
 5    0  0.3040647E+000  0.2560488E+03  0.7546771E-02  0.1109541E+00
         21   -1    0    0  501  502  0.00000000000E+00  0.00000000000E+00  0.57413006549E+02  0.57413006549E+02  0.00000000000E+00 0.  1.
         -2   -1    0    0    0  501 -0.00000000000E+00 -0.00000000000E+00 -0.12471726633E+04  0.12471726633E+04  0.00000000000E+00 0.  1.
         25    1    1    2    0    0  0.16831722427E+03  0.13587669060E+03 -0.38017722787E+03  0.45492074873E+03  0.12500000000E+03 0.  0.
         21    1    1    2  503  502 -0.42361956193E+01  0.20630265595E+02 -0.23616274979E+02  0.31643034869E+02  0.00000000000E+00 0. -1.
         -2    1    1    2    0  503 -0.16408102865E+03 -0.15650695619E+03 -0.78596615388E+03  0.81802188623E+03  0.00000000000E+00 0.  1.
<mgrwt>
<rscale>  4 0.25604881E+03</rscale>
<asrwt>0</asrwt>
<pdfrwt beam="1">  1       21 0.88327709E-02 0.25604881E+03</pdfrwt>
<pdfrwt beam="2">  1       -2 0.19187270E+00 0.25604881E+03</pdfrwt>
<totfact> 0.13439725E+03</totfact>
</mgrwt>
</event>
<event>
 5    0  0.3040647E+000  0.1998865E+03  0.7546771E-02  0.1149835E+00
          2   -1    0    0  502    0 -0.00000000000E+00  0.00000000000E+00  0.19561262512E+04  0.19561262512E+04  0.00000000000E+00 0.  1.
         21   -1    0    0  503  502  0.00000000000E+00 -0.00000000000E+00 -0.34912932762E+02  0.34912932762E+02  0.00000000000E+00 0. -1.
         25    1    1    2    0    0  0.10727529434E+02  0.21146553274E+03  0.98794321139E+03  0.10180813034E+04  0.12500000000E+03 0.  0.
         21    1    1    2  503  501 -0.12498855433E+02 -0.75486972225E+02  0.87121916728E+02  0.11595142404E+03  0.00000000000E+00 0. -1.
          2    1    1    2  501    0  0.17713259990E+01 -0.13597856052E+03  0.84614819036E+03  0.85700645655E+03  0.00000000000E+00 0.  1.
<mgrwt>
<rscale>  4 0.19988654E+03</rscale>
<asrwt>0</asrwt>
<pdfrwt beam="1">  1       21 0.53712219E-02 0.19988654E+03</pdfrwt>
<pdfrwt beam="2">  1        2 0.30094242E+00 0.19988654E+03</pdfrwt>
<totfact> 0.24130021E+04</totfact>
</mgrwt>
</event>
<event>
 5    0  0.3040647E+000  0.2366682E+03  0.7546771E-02  0.1122032E+00
         21   -1    0    0  503  502  0.00000000000E+00  0.00000000000E+00  0.11548611630E+04  0.11548611630E+04  0.00000000000E+00 0. -1.
          2   -1    0    0  502    0 -0.00000000000E+00 -0.00000000000E+00 -0.24496583223E+03  0.24496583223E+03  0.00000000000E+00 0.  1.
         25    1    1    2    0    0 -0.10100434951E+03  0.17842957178E+03 -0.79256006141E+02  0.25287448510E+03  0.12500000000E+03 0.  0.
         21    1    1    2  503  501  0.30094555518E+02  0.47853348855E+01  0.94513175090E+03  0.94562286788E+03  0.00000000000E+00 0. -1.
          2    1    1    2  501    0  0.70909793989E+02 -0.18321490667E+03  0.44019586043E+02  0.20132964229E+03  0.00000000000E+00 0.  1.
<mgrwt>
<rscale>  4 0.23666822E+03</rscale>
<asrwt>0</asrwt>
<pdfrwt beam="1">  1       21 0.17767094E+00 0.23666822E+03</pdfrwt>
<pdfrwt beam="2">  1        2 0.37687052E-01 0.23666822E+03</pdfrwt>
<totfact> 0.30851388E+02</totfact>
</mgrwt>
</event>
<event>
 5    0  0.3040647E+000  0.4265420E+03  0.7546771E-02  0.1034958E+00
         21   -1    0    0  503  502  0.00000000000E+00  0.00000000000E+00  0.82873553779E+03  0.82873553779E+03  0.00000000000E+00 0. -1.
          1   -1    0    0  502    0 -0.00000000000E+00 -0.00000000000E+00 -0.58038734830E+03  0.58038734830E+03  0.00000000000E+00 0.  1.
         25    1    1    2    0    0 -0.37701815140E+02  0.38099802579E+03  0.53255709894E+03  0.66769977247E+03  0.12500000000E+03 0.  0.
         21    1    1    2  503  501 -0.39658695944E+02  0.23128052333E+02  0.14186241377E+03  0.14910621520E+03  0.00000000000E+00 0. -1.
          1    1    1    2  501    0  0.77360511085E+02 -0.40412607812E+03 -0.42607132322E+03  0.59231689843E+03  0.00000000000E+00 0.  1.
<mgrwt>
<rscale>  4 0.42654197E+03</rscale>
<asrwt>0</asrwt>
<pdfrwt beam="1">  1       21 0.12749778E+00 0.42654197E+03</pdfrwt>
<pdfrwt beam="2">  1        1 0.89290361E-01 0.42654197E+03</pdfrwt>
<totfact> 0.16430383E+02</totfact>
</mgrwt>
</event>
<event>
 5    0  0.3040647E+000  0.2701140E+03  0.7546771E-02  0.1101214E+00
         21   -1    0    0  501  502  0.00000000000E+00  0.00000000000E+00  0.85413827182E+03  0.85413827182E+03  0.00000000000E+00 0.  1.
         -3   -1    0    0    0  501 -0.00000000000E+00 -0.00000000000E+00 -0.51147861906E+03  0.51147861906E+03  0.00000000000E+00 0.  1.
         25    1    1    2    0    0  0.23285670900E+03 -0.62321196631E+02  0.70542109369E+03  0.75587703887E+03  0.12500000000E+03 0.  0.
         21    1    1    2  503  502  0.65217169041E+01  0.51814042807E+02  0.86231649367E+02  0.10081232651E+03  0.00000000000E+00 0. -1.
         -3    1    1    2    0  503 -0.23937842590E+03  0.10507153824E+02 -0.44899309030E+03  0.50892752549E+03  0.00000000000E+00 0.  1.
<mgrwt>
<rscale>  4 0.27011395E+03</rscale>
<asrwt>0</asrwt>
<pdfrwt beam="1">  1       21 0.13140589E+00 0.27011395E+03</pdfrwt>
<pdfrwt beam="2">  1       -3 0.78689018E-01 0.27011395E+03</pdfrwt>
<totfact> 0.30921496E+01</totfact>
</mgrwt>
</event>
<event>
 5    0  0.3040647E+000  0.2603289E+03  0.7546771E-02  0.1106946E+00
          2   -1    0    0  502    0 -0.00000000000E+00  0.00000000000E+00  0.27698057026E+04  0.27698057026E+04  0.00000000000E+00 0. -1.
         21   -1    0    0  503  502  0.00000000000E+00 -0.00000000000E+00 -0.33341569697E+03  0.33341569697E+03  0.00000000000E+00 0.  1.
         25    1    1    2    0    0 -0.11073620516E+03 -0.24601994643E+03  0.13295826316E+04  0.13624255192E+04  0.12500000000E+03 0.  0.
         21    1    1    2  503  501  0.14420747934E+03  0.17578811485E+03 -0.27498734076E+03  0.35681269035E+03  0.00000000000E+00 0.  1.
          2    1    1    2  501    0 -0.33471274179E+02  0.70231831583E+02  0.13817947148E+04  0.13839831900E+04  0.00000000000E+00 0. -1.
<mgrwt>
<rscale>  4 0.26032890E+03</rscale>
<asrwt>0</asrwt>
<pdfrwt beam="1">  1       21 0.51294725E-01 0.26032890E+03</pdfrwt>
<pdfrwt beam="2">  1        2 0.42612394E+00 0.26032890E+03</pdfrwt>
<totfact> 0.12660615E+02</totfact>
</mgrwt>
</event>
<event>
 5    0  0.3040647E+000  0.3467432E+03  0.7546771E-02  0.1063960E+00
          2   -1    0    0  502    0 -0.00000000000E+00  0.00000000000E+00  0.28037455070E+04  0.28037455070E+04  0.00000000000E+00 0.  1.
         21   -1    0    0  503  502  0.00000000000E+00 -0.00000000000E+00 -0.69397194068E+02  0.69397194068E+02  0.00000000000E+00 0.  1.
         25    1    1    2    0    0  0.30039068861E+03 -0.51654381717E+02  0.90562628726E+03  0.96368392803E+03  0.12500000000E+03 0.  0.
         21    1    1    2  503  501  0.25801342426E+02 -0.15600682326E+02 -0.16533996540E+02  0.34386968485E+02  0.00000000000E+00 0.  1.
          2    1    1    2  501    0 -0.32619203103E+03  0.67255064043E+02  0.18452560222E+04  0.18750718046E+04  0.00000000000E+00 0.  1.
<mgrwt>
<rscale>  4 0.34674319E+03</rscale>
<asrwt>0</asrwt>
<pdfrwt beam="1">  1       21 0.10676494E-01 0.34674319E+03</pdfrwt>
<pdfrwt beam="2">  1        2 0.43134538E+00 0.34674319E+03</pdfrwt>
<totfact> 0.23837534E+03</totfact>
</mgrwt>
</event>
<event>
 5    0  0.3040647E+000  0.2671145E+03  0.7546771E-02  0.1102943E+00
          2   -1    0    0  502    0 -0.00000000000E+00  0.00000000000E+00  0.12650717347E+04  0.12650717347E+04  0.00000000000E+00 0.  1.
         21   -1    0    0  503  502  0.00000000000E+00 -0.00000000000E+00 -0.94131717310E+02  0.94131717310E+02  0.00000000000E+00 0. -1.
         25    1    1    2    0    0 -0.56253797628E+02  0.25024961240E+03  0.20088588781E+03  0.34895486553E+03  0.12500000000E+03 0.  0.
         21    1    1    2  503  501  0.14187884555E+02 -0.21866068135E+02  0.21822872527E+02  0.33994981529E+02  0.00000000000E+00 0. -1.
          2    1    1    2  501    0  0.42065913073E+02 -0.22838354427E+03  0.94823125706E+03  0.97625360496E+03  0.00000000000E+00 0.  1.
<mgrwt>
<rscale>  4 0.26711447E+03</rscale>
<asrwt>0</asrwt>
<pdfrwt beam="1">  1       21 0.14481804E-01 0.26711447E+03</pdfrwt>
<pdfrwt beam="2">  1        2 0.19462641E+00 0.26711447E+03</pdfrwt>
<totfact> 0.96020883E+03</totfact>
</mgrwt>
</event>
<event>
 5    0  0.3040647E+000  0.2388778E+03  0.7546771E-02  0.1120543E+00
         21   -1    0    0  503  502  0.00000000000E+00  0.00000000000E+00  0.26154768467E+03  0.26154768467E+03  0.00000000000E+00 0.  1.
          2   -1    0    0  502    0 -0.00000000000E+00 -0.00000000000E+00 -0.19426191981E+04  0.19426191981E+04  0.00000000000E+00 0. -1.
         25    1    1    2    0    0  0.19295414287E+03 -0.23310820603E+03 -0.28553483146E+03  0.43442591652E+03  0.12500000000E+03 0.  0.
         21    1    1    2  503  501 -0.10450449060E+03  0.15903478420E+03  0.13597780613E+03  0.23388718413E+03  0.00000000000E+00 0.  1.
          2    1    1    2  501    0 -0.88449652265E+02  0.74073421832E+02 -0.15315144881E+04  0.15358537821E+04  0.00000000000E+00 0. -1.
<mgrwt>
<rscale>  4 0.23887777E+03</rscale>
<asrwt>0</asrwt>
<pdfrwt beam="1">  1       21 0.40238103E-01 0.23887777E+03</pdfrwt>
<pdfrwt beam="2">  1        2 0.29886451E+00 0.23887777E+03</pdfrwt>
<totfact> 0.59465955E+02</totfact>
</mgrwt>
</event>
<event>
 5    0  0.3040647E+000  0.3730660E+03  0.7546771E-02  0.1053527E+00
         21   -1    0    0  503  502  0.00000000000E+00  0.00000000000E+00  0.30624267124E+03  0.30624267124E+03  0.00000000000E+00 0.  1.
          1   -1    0    0  502    0 -0.00000000000E+00 -0.00000000000E+00 -0.10281337676E+04  0.10281337676E+04  0.00000000000E+00 0. -1.
         25    1    1    2    0    0 -0.15910426043E+03  0.35187439254E+03  0.93372377652E+02  0.41650108610E+03  0.12500000000E+03 0.  0.
         21    1    1    2  503  501  0.19583466792E+02 -0.34544124575E+02 -0.96751539291E+01  0.40870739139E+02  0.00000000000E+00 0.  1.
          1    1    1    2  501    0  0.13952079364E+03 -0.31733026797E+03 -0.80558832012E+03  0.87700461364E+03  0.00000000000E+00 0. -1.
<mgrwt>
<rscale>  4 0.37306600E+03</rscale>
<asrwt>0</asrwt>
<pdfrwt beam="1">  1       21 0.47114258E-01 0.37306600E+03</pdfrwt>
<pdfrwt beam="2">  1        1 0.15817442E+00 0.37306600E+03</pdfrwt>
<totfact> 0.68159817E+02</totfact>
</mgrwt>
</event>
<event>
 5    0  0.3040647E+000  0.2611099E+03  0.7546771E-02  0.1106478E+00
         -3   -1    0    0    0  501 -0.00000000000E+00  0.00000000000E+00  0.32315983771E+03  0.32315983771E+03  0.00000000000E+00 0.  1.
         21   -1    0    0  501  502  0.00000000000E+00 -0.00000000000E+00 -0.77229421759E+03  0.77229421759E+03  0.00000000000E+00 0. -1.
         25    1    1    2    0    0 -0.19619674545E+03 -0.50414245461E+02 -0.62992175949E+03  0.67339526443E+03  0.12500000000E+03 0.  0.
         21    1    1    2  503  502 -0.34137039762E+02  0.80463192106E+02 -0.44835943750E+02  0.98234029845E+02  0.00000000000E+00 0. -1.
         -3    1    1    2    0  503  0.23033378521E+03 -0.30048946646E+02  0.22562332336E+03  0.32382476102E+03  0.00000000000E+00 0.  1.
<mgrwt>
<rscale>  4 0.26110994E+03</rscale>
<asrwt>0</asrwt>
<pdfrwt beam="1">  1       21 0.11881449E+00 0.26110994E+03</pdfrwt>
<pdfrwt beam="2">  1       -3 0.49716899E-01 0.26110994E+03</pdfrwt>
<totfact> 0.10521271E+02</totfact>
</mgrwt>
</event>
<event>
 5    0  0.3040647E+000  0.3140471E+03  0.7546771E-02  0.1078422E+00
         21   -1    0    0  501  502  0.00000000000E+00  0.00000000000E+00  0.12362778725E+04  0.12362778725E+04  0.00000000000E+00 0. -1.
         -2   -1    0    0    0  501 -0.00000000000E+00 -0.00000000000E+00 -0.41554046070E+03  0.41554046070E+03  0.00000000000E+00 0.  1.
         25    1    1    2    0    0 -0.14998309962E+03  0.26495856517E+03  0.21279553063E+03  0.39192462195E+03  0.12500000000E+03 0.  0.
         21    1    1    2  503  502  0.12801013487E+02 -0.15448135403E+02  0.87160213591E+03  0.87183300818E+03  0.00000000000E+00 0. -1.
         -2    1    1    2    0  503  0.13718208614E+03 -0.24951042977E+03 -0.26366025475E+03  0.38806070305E+03  0.00000000000E+00 0.  1.
<mgrwt>
<rscale>  4 0.31404714E+03</rscale>
<asrwt>0</asrwt>
<pdfrwt beam="1">  1       21 0.19019659E+00 0.31404714E+03</pdfrwt>
<pdfrwt beam="2">  1       -2 0.63929302E-01 0.31404714E+03</pdfrwt>
<totfact> 0.26871481E+01</totfact>
</mgrwt>
</event>
<event>
 5    0  0.3040647E+000  0.3498186E+03  0.7546771E-02  0.1062690E+00
          2   -1    0    0  502    0 -0.00000000000E+00  0.00000000000E+00  0.23778421309E+04  0.23778421309E+04  0.00000000000E+00 0. -1.
         21   -1    0    0  503  502  0.00000000000E+00 -0.00000000000E+00 -0.10903628226E+03  0.10903628226E+03  0.00000000000E+00 0. -1.
         25    1    1    2    0    0  0.35609432688E+03 -0.73230687095E+02  0.44989390125E+03  0.59177312000E+03  0.12500000000E+03 0.  0.
         21    1    1    2  503  501 -0.36471611429E+02  0.56671233273E+02  0.23473333094E+02  0.71363887839E+02  0.00000000000E+00 0. -1.
          2    1    1    2  501    0 -0.31962271546E+03  0.16559453822E+02  0.17954386143E+04  0.18237414054E+04  0.00000000000E+00 0. -1.
<mgrwt>
<rscale>  4 0.34981858E+03</rscale>
<asrwt>0</asrwt>
<pdfrwt beam="1">  1       21 0.16774814E-01 0.34981858E+03</pdfrwt>
<pdfrwt beam="2">  1        2 0.36582183E+00 0.34981858E+03</pdfrwt>
<totfact> 0.18048896E+03</totfact>
</mgrwt>
</event>
<event>
 5    0  0.3040647E+000  0.3354612E+03  0.7546771E-02  0.1068746E+00
          1   -1    0    0  502    0 -0.00000000000E+00  0.00000000000E+00  0.82001280479E+03  0.82001280479E+03  0.00000000000E+00 0.  1.
         21   -1    0    0  503  502  0.00000000000E+00 -0.00000000000E+00 -0.14113495318E+03  0.14113495318E+03  0.00000000000E+00 0.  1.
         25    1    1    2    0    0  0.25897480154E+03  0.18879254396E+03  0.39991326610E+03  0.52750942446E+03  0.12500000000E+03 0.  0.
         21    1    1    2  503  501 -0.84832584409E+01 -0.20227305137E+02 -0.90109462548E+00  0.21952710958E+02  0.00000000000E+00 0.  1.
          1    1    1    2  501    0 -0.25049154310E+03 -0.16856523883E+03  0.27986568013E+03  0.41168562256E+03  0.00000000000E+00 0.  1.
<mgrwt>
<rscale>  4 0.33546117E+03</rscale>
<asrwt>0</asrwt>
<pdfrwt beam="1">  1       21 0.21713070E-01 0.33546117E+03</pdfrwt>
<pdfrwt beam="2">  1        1 0.12615581E+00 0.33546117E+03</pdfrwt>
<totfact> 0.47106885E+03</totfact>
</mgrwt>
</event>
<event>
 5    0  0.3040647E+000  0.3423377E+03  0.7546771E-02  0.1065805E+00
          1   -1    0    0  502    0 -0.00000000000E+00  0.00000000000E+00  0.79201181210E+03  0.79201181210E+03  0.00000000000E+00 0. -1.
         21   -1    0    0  503  502  0.00000000000E+00 -0.00000000000E+00 -0.23356423685E+03  0.23356423685E+03  0.00000000000E+00 0. -1.
         25    1    1    2    0    0  0.12841680284E+02 -0.30536039671E+03  0.10902244381E+02  0.33038423020E+03  0.12500000000E+03 0.  0.
         21    1    1    2  503  501  0.59400373337E+02 -0.99176506574E+01  0.11453961516E+01  0.60233512927E+02  0.00000000000E+00 0.  1.
          1    1    1    2  501    0 -0.72242053621E+02  0.31527804737E+03  0.54639993472E+03  0.63495830582E+03  0.00000000000E+00 0. -1.
<mgrwt>
<rscale>  4 0.34233767E+03</rscale>
<asrwt>0</asrwt>
<pdfrwt beam="1">  1       21 0.35932960E-01 0.34233767E+03</pdfrwt>
<pdfrwt beam="2">  1        1 0.12184797E+00 0.34233767E+03</pdfrwt>
<totfact> 0.18500726E+03</totfact>
</mgrwt>
</event>
<event>
 5    0  0.3040647E+000  0.2122331E+03  0.7546771E-02  0.1139810E+00
         21   -1    0    0  503  502  0.00000000000E+00  0.00000000000E+00  0.34593082425E+02  0.34593082425E+02  0.00000000000E+00 0.  1.
          1   -1    0    0  502    0 -0.00000000000E+00 -0.00000000000E+00 -0.24589848139E+04  0.24589848139E+04  0.00000000000E+00 0.  1.
         25    1    1    2    0    0 -0.20884942594E+03 -0.63320195489E+02 -0.16117942367E+04  0.16312980081E+04  0.12500000000E+03 0.  0.
         21    1    1    2  503  501  0.15979229593E+03 -0.45400389292E+02 -0.40965001862E+03  0.44204967022E+03  0.00000000000E+00 0.  1.
          1    1    1    2  501    0  0.49057130015E+02  0.10872058478E+03 -0.40294747619E+03  0.42023021801E+03  0.00000000000E+00 0.  1.
<mgrwt>
<rscale>  4 0.21223307E+03</rscale>
<asrwt>0</asrwt>
<pdfrwt beam="1">  1       21 0.53220132E-02 0.21223307E+03</pdfrwt>
<pdfrwt beam="2">  1        1 0.37830532E+00 0.21223307E+03</pdfrwt>
<totfact> 0.46639430E+03</totfact>
</mgrwt>
</event>
<event>
 5    0  0.3040647E+000  0.2928403E+03  0.7546771E-02  0.1088875E+00
         21   -1    0    0  503  502  0.00000000000E+00  0.00000000000E+00  0.24772114005E+03  0.24772114005E+03  0.00000000000E+00 0. -1.
          1   -1    0    0  502    0 -0.00000000000E+00 -0.00000000000E+00 -0.43226037804E+03  0.43226037804E+03  0.00000000000E+00 0. -1.
         25    1    1    2    0    0 -0.14029882226E+03 -0.23971673373E+03 -0.70314242868E+02  0.31259712844E+03  0.12500000000E+03 0.  0.
         21    1    1    2  503  501  0.57136643724E+01  0.20261322311E+02  0.55281059887E+02  0.59153721139E+02  0.00000000000E+00 0. -1.
          1    1    1    2  501    0  0.13458515789E+03  0.21945541142E+03 -0.16950605501E+03  0.30823066851E+03  0.00000000000E+00 0. -1.
<mgrwt>
<rscale>  4 0.29284034E+03</rscale>
<asrwt>0</asrwt>
<pdfrwt beam="1">  1       21 0.38110945E-01 0.29284034E+03</pdfrwt>
<pdfrwt beam="2">  1        1 0.66501596E-01 0.29284034E+03</pdfrwt>
<totfact> 0.38920117E+03</totfact>
</mgrwt>
</event>
<event>
 5    0  0.3040647E+000  0.3019601E+03  0.7546771E-02  0.1084265E+00
          2   -1    0    0  502    0 -0.00000000000E+00  0.00000000000E+00  0.10680567247E+04  0.10680567247E+04  0.00000000000E+00 0. -1.
         21   -1    0    0  503  502  0.00000000000E+00 -0.00000000000E+00 -0.13904553464E+03  0.13904553464E+03  0.00000000000E+00 0.  1.
         25    1    1    2    0    0 -0.45363655679E+01 -0.27836606708E+03  0.15934782659E+03  0.34427456449E+03  0.12500000000E+03 0.  0.
         21    1    1    2  503  501  0.61242328165E+02  0.88776036525E+01  0.21370729639E+02  0.65468638989E+02  0.00000000000E+00 0.  1.
          2    1    1    2  501    0 -0.56705962597E+02  0.26948846343E+03  0.74829263387E+03  0.79735905590E+03  0.00000000000E+00 0. -1.
<mgrwt>
<rscale>  4 0.30196007E+03</rscale>
<asrwt>0</asrwt>
<pdfrwt beam="1">  1       21 0.21391621E-01 0.30196007E+03</pdfrwt>
<pdfrwt beam="2">  1        2 0.16431641E+00 0.30196007E+03</pdfrwt>
<totfact> 0.59793350E+03</totfact>
</mgrwt>
</event>
<event>
 5    0  0.3040647E+000  0.3797368E+03  0.7546771E-02  0.1051031E+00
         21   -1    0    0  503  502  0.00000000000E+00  0.00000000000E+00  0.22555323317E+03  0.22555323317E+03  0.00000000000E+00 0. -1.
          2   -1    0    0  502    0 -0.00000000000E+00 -0.00000000000E+00 -0.13428978527E+04  0.13428978527E+04  0.00000000000E+00 0. -1.
         25    1    1    2    0    0 -0.15973416976E+03 -0.25278678179E+03  0.18624891440E+02  0.32463525474E+03  0.12500000000E+03 0.  0.
         21    1    1    2  503  501 -0.11282360052E+02 -0.74401789866E+02 -0.35761719869E+02  0.83317576726E+02  0.00000000000E+00 0. -1.
          2    1    1    2  501    0  0.17101652981E+03  0.32718857165E+03 -0.11002077911E+04  0.11604982544E+04  0.00000000000E+00 0. -1.
<mgrwt>
<rscale>  4 0.37973685E+03</rscale>
<asrwt>0</asrwt>
<pdfrwt beam="1">  1       21 0.34700497E-01 0.37973685E+03</pdfrwt>
<pdfrwt beam="2">  1        2 0.20659967E+00 0.37973685E+03</pdfrwt>
<totfact> 0.15796495E+03</totfact>
</mgrwt>
</event>
<event>
 5    0  0.3040647E+000  0.3004785E+03  0.7546771E-02  0.1085002E+00
          1   -1    0    0  502    0 -0.00000000000E+00  0.00000000000E+00  0.13511193532E+03  0.13511193532E+03  0.00000000000E+00 0. -1.
         21   -1    0    0  503  502  0.00000000000E+00 -0.00000000000E+00 -0.10515518604E+04  0.10515518604E+04  0.00000000000E+00 0. -1.
         25    1    1    2    0    0 -0.16509315172E+03 -0.24270297881E+03 -0.40992200925E+03  0.51944348907E+03  0.12500000000E+03 0.  0.
         21    1    1    2  503  501  0.65331309806E+02 -0.32341524819E+01 -0.35630406528E+03  0.36225850814E+03  0.00000000000E+00 0.  1.
          1    1    1    2  501    0  0.99761841917E+02  0.24593713129E+03 -0.15021385053E+03  0.30496179850E+03  0.00000000000E+00 0. -1.
<mgrwt>
<rscale>  4 0.30047850E+03</rscale>
<asrwt>0</asrwt>
<pdfrwt beam="1">  1       21 0.16177721E+00 0.30047850E+03</pdfrwt>
<pdfrwt beam="2">  1        1 0.20786451E-01 0.30047850E+03</pdfrwt>
<totfact> 0.60485815E+02</totfact>
</mgrwt>
</event>
<event>
 5    0  0.3040647E+000  0.4694593E+03  0.7546771E-02  0.1022073E+00
         21   -1    0    0  503  502  0.00000000000E+00  0.00000000000E+00  0.70950204390E+03  0.70950204390E+03  0.00000000000E+00 0.  1.
          2   -1    0    0  502    0 -0.00000000000E+00 -0.00000000000E+00 -0.33126518002E+03  0.33126518002E+03  0.00000000000E+00 0.  1.
         25    1    1    2    0    0 -0.42633787032E+03  0.69407901584E+02  0.19500633839E+03  0.49013662226E+03  0.12500000000E+03 0.  0.
         21    1    1    2  503  501 -0.40536772019E+02 -0.29950495200E+01  0.41799014438E+02  0.58304012001E+02  0.00000000000E+00 0.  1.
          2    1    1    2  501    0  0.46687464234E+03 -0.66412852064E+02  0.14143151106E+03  0.49232658967E+03  0.00000000000E+00 0.  1.
<mgrwt>
<rscale>  4 0.46945927E+03</rscale>
<asrwt>0</asrwt>
<pdfrwt beam="1">  1       21 0.10915416E+00 0.46945927E+03</pdfrwt>
<pdfrwt beam="2">  1        2 0.50963874E-01 0.46945927E+03</pdfrwt>
<totfact> 0.73476409E+02</totfact>
</mgrwt>
</event>
<event>
 5    0  0.3040647E+000  0.2407536E+03  0.7546771E-02  0.1119292E+00
          2   -1    0    0  502    0 -0.00000000000E+00  0.00000000000E+00  0.84601382513E+03  0.84601382513E+03  0.00000000000E+00 0.  1.
         21   -1    0    0  503  502  0.00000000000E+00 -0.00000000000E+00 -0.61211194495E+03  0.61211194495E+03  0.00000000000E+00 0.  1.
         25    1    1    2    0    0 -0.16427884973E+03 -0.14351234065E+03 -0.45536920186E+03  0.52016289986E+03  0.12500000000E+03 0.  0.
         21    1    1    2  503  501  0.13047912874E+03  0.12503099839E+03 -0.57927968199E+02  0.18977144963E+03  0.00000000000E+00 0.  1.
          2    1    1    2  501    0  0.33799720991E+02  0.18481342258E+02  0.74719905024E+03  0.74819142058E+03  0.00000000000E+00 0.  1.
<mgrwt>
<rscale>  4 0.24075360E+03</rscale>
<asrwt>0</asrwt>
<pdfrwt beam="1">  1       21 0.94171068E-01 0.24075360E+03</pdfrwt>
<pdfrwt beam="2">  1        2 0.13015597E+00 0.24075360E+03</pdfrwt>
<totfact> 0.38289426E+02</totfact>
</mgrwt>
</event>
<event>
 5    0  0.3040647E+000  0.2548120E+03  0.7546771E-02  0.1110301E+00
         -1   -1    0    0    0  501 -0.00000000000E+00  0.00000000000E+00  0.48323050030E+03  0.48323050030E+03  0.00000000000E+00 0.  1.
         21   -1    0    0  501  502  0.00000000000E+00 -0.00000000000E+00 -0.22074710923E+03  0.22074710923E+03  0.00000000000E+00 0.  1.
         25    1    1    2    0    0 -0.17492891393E+03 -0.17772295569E+03 -0.35626509225E+01  0.27896821752E+03  0.12500000000E+03 0.  0.
         21    1    1    2  503  502  0.40110550726E+02  0.94701931427E+01 -0.35444966377E+02  0.54358867531E+02  0.00000000000E+00 0.  1.
         -1    1    1    2    0  503  0.13481836320E+03  0.16825276255E+03  0.30149100837E+03  0.37065052447E+03  0.00000000000E+00 0.  1.
<mgrwt>
<rscale>  4 0.25481200E+03</rscale>
<asrwt>0</asrwt>
<pdfrwt beam="1">  1       21 0.33961094E-01 0.25481200E+03</pdfrwt>
<pdfrwt beam="2">  1       -1 0.74343154E-01 0.25481200E+03</pdfrwt>
<totfact> 0.14489624E+03</totfact>
</mgrwt>
</event>
<event>
 5    0  0.3040647E+000  0.3209352E+03  0.7546771E-02  0.1075220E+00
         -1   -1    0    0    0  501 -0.00000000000E+00  0.00000000000E+00  0.10550481474E+03  0.10550481474E+03  0.00000000000E+00 0.  1.
         21   -1    0    0  501  502  0.00000000000E+00 -0.00000000000E+00 -0.18612513319E+04  0.18612513319E+04  0.00000000000E+00 0.  1.
         25    1    1    2    0    0 -0.20376948146E+03  0.15076082079E+03 -0.12032333772E+04  0.12359799297E+04  0.12500000000E+03 0.  0.
         21    1    1    2  503  502 -0.37038756463E+02  0.36067195373E+02 -0.37401195604E+03  0.37756808038E+03  0.00000000000E+00 0.  1.
         -1    1    1    2    0  503  0.24080823792E+03 -0.18682801616E+03 -0.17850118397E+03  0.35320813659E+03  0.00000000000E+00 0.  1.
<mgrwt>
<rscale>  4 0.32093521E+03</rscale>
<asrwt>0</asrwt>
<pdfrwt beam="1">  1       21 0.28634633E+00 0.32093521E+03</pdfrwt>
<pdfrwt beam="2">  1       -1 0.16231512E-01 0.32093521E+03</pdfrwt>
<totfact> 0.94268585E+01</totfact>
</mgrwt>
</event>
<event>
 5    0  0.3040647E+000  0.3805274E+03  0.7546771E-02  0.1050739E+00
          1   -1    0    0  502    0 -0.00000000000E+00  0.00000000000E+00  0.14517351139E+04  0.14517351139E+04  0.00000000000E+00 0.  1.
         21   -1    0    0  503  502  0.00000000000E+00 -0.00000000000E+00 -0.52488922455E+03  0.52488922455E+03  0.00000000000E+00 0.  1.
         25    1    1    2    0    0  0.13042848444E+03 -0.15408443801E+03 -0.32413920309E+01  0.23746391349E+03  0.12500000000E+03 0.  0.
         21    1    1    2  503  501  0.58664975518E+02 -0.19913665177E+03 -0.34498094944E+03  0.40262742195E+03  0.00000000000E+00 0.  1.
          1    1    1    2  501    0 -0.18909345996E+03  0.35322108978E+03  0.12750682308E+04  0.13365330030E+04  0.00000000000E+00 0.  1.
<mgrwt>
<rscale>  4 0.38052743E+03</rscale>
<asrwt>0</asrwt>
<pdfrwt beam="1">  1       21 0.80752189E-01 0.38052743E+03</pdfrwt>
<pdfrwt beam="2">  1        1 0.22334386E+00 0.38052743E+03</pdfrwt>
<totfact> 0.10462679E+02</totfact>
</mgrwt>
</event>
<event>
 5    0  0.3040647E+000  0.2404387E+03  0.7546771E-02  0.1119501E+00
          1   -1    0    0  502    0 -0.00000000000E+00  0.00000000000E+00  0.41303920592E+03  0.41303920592E+03  0.00000000000E+00 0.  1.
         21   -1    0    0  503  502  0.00000000000E+00 -0.00000000000E+00 -0.16556161345E+03  0.16556161345E+03  0.00000000000E+00 0.  1.
         25    1    1    2    0    0 -0.11246787542E+03 -0.20064803679E+03  0.73954695763E+02  0.27203484096E+03  0.12500000000E+03 0.  0.
         21    1    1    2  503  501  0.48014607433E+01  0.38001304177E+02 -0.90934135719E+01  0.39368049416E+02  0.00000000000E+00 0.  1.
          1    1    1    2  501    0  0.10766641468E+03  0.16264673261E+03  0.18261631027E+03  0.26719792899E+03  0.00000000000E+00 0.  1.
<mgrwt>
<rscale>  4 0.24043867E+03</rscale>
<asrwt>0</asrwt>
<pdfrwt beam="1">  1       21 0.25471018E-01 0.24043867E+03</pdfrwt>
<pdfrwt beam="2">  1        1 0.63544493E-01 0.24043867E+03</pdfrwt>
<totfact> 0.92502935E+03</totfact>
</mgrwt>
</event>
<event>
 5    0  0.3040647E+000  0.3303052E+03  0.7546771E-02  0.1071002E+00
          2   -1    0    0  502    0 -0.00000000000E+00  0.00000000000E+00  0.49438112275E+03  0.49438112275E+03  0.00000000000E+00 0. -1.
         21   -1    0    0  503  502  0.00000000000E+00 -0.00000000000E+00 -0.92692526429E+03  0.92692526429E+03  0.00000000000E+00 0. -1.
         25    1    1    2    0    0 -0.33787310952E+03  0.18343783268E+02 -0.73232610200E+03  0.81634628203E+03  0.12500000000E+03 0.  0.
         21    1    1    2  503  501  0.23313847629E+03  0.87751510395E+01 -0.50195197648E+02  0.23864222231E+03  0.00000000000E+00 0. -1.
          2    1    1    2  501    0  0.10473463323E+03 -0.27118934307E+02  0.34997715810E+03  0.36631788270E+03  0.00000000000E+00 0. -1.
<mgrwt>
<rscale>  4 0.33030516E+03</rscale>
<asrwt>0</asrwt>
<pdfrwt beam="1">  1       21 0.14260389E+00 0.33030516E+03</pdfrwt>
<pdfrwt beam="2">  1        2 0.76058635E-01 0.33030516E+03</pdfrwt>
<totfact> 0.24858658E+02</totfact>
</mgrwt>
</event>
<event>
 5    0  0.3040647E+000  0.2527675E+03  0.7546771E-02  0.1111568E+00
          4   -1    0    0  502    0 -0.00000000000E+00  0.00000000000E+00  0.21932374819E+04  0.21932374819E+04  0.00000000000E+00 0. -1.
         21   -1    0    0  503  502  0.00000000000E+00 -0.00000000000E+00 -0.99371025433E+02  0.99371025433E+02  0.00000000000E+00 0.  1.
         25    1    1    2    0    0  0.16460704519E+03  0.14616421168E+03  0.98628058791E+02  0.27168354769E+03  0.12500000000E+03 0.  0.
         21    1    1    2  503  501  0.18341469581E+02 -0.24328549829E+02  0.27795363533E+02  0.41241606142E+02  0.00000000000E+00 0. -1.
          4    1    1    2  501    0 -0.18294851477E+03 -0.12183566185E+03  0.19674430342E+04  0.19796833535E+04  0.00000000000E+00 0. -1.
<mgrwt>
<rscale>  4 0.25276752E+03</rscale>
<asrwt>0</asrwt>
<pdfrwt beam="1">  1       21 0.15287852E-01 0.25276752E+03</pdfrwt>
<pdfrwt beam="2">  1        4 0.33742111E+00 0.25276752E+03</pdfrwt>
<totfact> 0.34333746E+01</totfact>
</mgrwt>
</event>
<event>
 5    0  0.3040647E+000  0.2438841E+03  0.7546771E-02  0.1117232E+00
          2   -1    0    0  502    0 -0.00000000000E+00  0.00000000000E+00  0.10222274908E+04  0.10222274908E+04  0.00000000000E+00 0.  1.
         21   -1    0    0  503  502  0.00000000000E+00 -0.00000000000E+00 -0.19007661606E+03  0.19007661606E+03  0.00000000000E+00 0.  1.
         25    1    1    2    0    0  0.23324926277E+03 -0.93480196823E+02  0.49074852089E+03  0.56533430511E+03  0.12500000000E+03 0.  0.
         21    1    1    2  503  501 -0.18819000941E+03  0.78672119723E+02 -0.82790047887E+02  0.22013399122E+03  0.00000000000E+00 0.  1.
          2    1    1    2  501    0 -0.45059253359E+02  0.14808077100E+02  0.42419240177E+03  0.42683581057E+03  0.00000000000E+00 0.  1.
<mgrwt>
<rscale>  4 0.24388413E+03</rscale>
<asrwt>0</asrwt>
<pdfrwt beam="1">  1       21 0.29242557E-01 0.24388413E+03</pdfrwt>
<pdfrwt beam="2">  1        2 0.15726577E+00 0.24388413E+03</pdfrwt>
<totfact> 0.35518641E+03</totfact>
</mgrwt>
</event>
<event>
 5    0  0.3040647E+000  0.2268232E+03  0.7546771E-02  0.1128896E+00
         21   -1    0    0  503  502  0.00000000000E+00  0.00000000000E+00  0.48860761093E+02  0.48860761093E+02  0.00000000000E+00 0. -1.
          2   -1    0    0  502    0 -0.00000000000E+00 -0.00000000000E+00 -0.39353762733E+04  0.39353762733E+04  0.00000000000E+00 0.  1.
         25    1    1    2    0    0  0.20922779503E+03  0.80235017741E+02 -0.43765280500E+03  0.50732524677E+03  0.12500000000E+03 0.  0.
         21    1    1    2  503  501 -0.45040865565E+02  0.89575744976E+01 -0.34495218917E+02  0.57435510269E+02  0.00000000000E+00 0.  1.
          2    1    1    2  501    0 -0.16418692946E+03 -0.89192592238E+02 -0.34143674883E+04  0.34194762774E+04  0.00000000000E+00 0.  1.
<mgrwt>
<rscale>  4 0.22682320E+03</rscale>
<asrwt>0</asrwt>
<pdfrwt beam="1">  1       21 0.75170354E-02 0.22682320E+03</pdfrwt>
<pdfrwt beam="2">  1        2 0.60544289E+00 0.22682320E+03</pdfrwt>
<totfact> 0.87201680E+02</totfact>
</mgrwt>
</event>
<event>
 5    0  0.3040647E+000  0.2741621E+03  0.7546771E-02  0.1098921E+00
         21   -1    0    0  503  502  0.00000000000E+00  0.00000000000E+00  0.94052114860E+03  0.94052114860E+03  0.00000000000E+00 0.  1.
          1   -1    0    0  502    0 -0.00000000000E+00 -0.00000000000E+00 -0.10894552068E+04  0.10894552068E+04  0.00000000000E+00 0.  1.
         25    1    1    2    0    0  0.29454812984E+03 -0.19324239763E+03  0.74299619051E+03  0.83172685670E+03  0.12500000000E+03 0.  0.
         21    1    1    2  503  501 -0.14023660352E+03  0.64455447139E+01  0.10307975193E+03  0.17416453505E+03  0.00000000000E+00 0.  1.
          1    1    1    2  501    0 -0.15431152632E+03  0.18679685292E+03 -0.99501000067E+03  0.10240849637E+04  0.00000000000E+00 0.  1.
<mgrwt>
<rscale>  4 0.27416211E+03</rscale>
<asrwt>0</asrwt>
<pdfrwt beam="1">  1       21 0.14469556E+00 0.27416211E+03</pdfrwt>
<pdfrwt beam="2">  1        1 0.16760849E+00 0.27416211E+03</pdfrwt>
<totfact> 0.47343336E+01</totfact>
</mgrwt>
</event>
<event>
 5    0  0.3040647E+000  0.3226151E+03  0.7546771E-02  0.1074452E+00
         21   -1    0    0  501  502  0.00000000000E+00  0.00000000000E+00  0.83296869136E+03  0.83296869136E+03  0.00000000000E+00 0.  1.
         -1   -1    0    0    0  501 -0.00000000000E+00 -0.00000000000E+00 -0.23605277650E+03  0.23605277650E+03  0.00000000000E+00 0.  1.
         25    1    1    2    0    0 -0.10630814634E+03 -0.27188014218E+03  0.46169425814E+02  0.32090006165E+03  0.12500000000E+03 0.  0.
         21    1    1    2  503  502 -0.23403598916E+02 -0.40041777201E+01  0.41284285515E+03  0.41352507171E+03  0.00000000000E+00 0.  1.
         -1    1    1    2    0  503  0.12971174526E+03  0.27588431990E+03  0.13790363390E+03  0.33459633451E+03  0.00000000000E+00 0.  1.
<mgrwt>
<rscale>  4 0.32261510E+03</rscale>
<asrwt>0</asrwt>
<pdfrwt beam="1">  1       21 0.12814903E+00 0.32261510E+03</pdfrwt>
<pdfrwt beam="2">  1       -1 0.36315812E-01 0.32261510E+03</pdfrwt>
<totfact> 0.28338093E+02</totfact>
</mgrwt>
</event>
<event>
 5    0  0.3040647E+000  0.2434263E+03  0.7546771E-02  0.1117531E+00
          1   -1    0    0  502    0 -0.00000000000E+00  0.00000000000E+00  0.83417359645E+03  0.83417359645E+03  0.00000000000E+00 0. -1.
         21   -1    0    0  503  502  0.00000000000E+00 -0.00000000000E+00 -0.20210664982E+03  0.20210664982E+03  0.00000000000E+00 0. -1.
         25    1    1    2    0    0 -0.52866998590E+01 -0.21870853314E+03 -0.63101403044E+02  0.25974633535E+03  0.12500000000E+03 0.  0.
         21    1    1    2  503  501 -0.63732755596E+02  0.21585914264E+02  0.20598289061E+02  0.70371196826E+02  0.00000000000E+00 0.  1.
          1    1    1    2  501    0  0.69019455455E+02  0.19712261887E+03  0.67457006062E+03  0.70616271410E+03  0.00000000000E+00 0. -1.
<mgrwt>
<rscale>  4 0.24342630E+03</rscale>
<asrwt>0</asrwt>
<pdfrwt beam="1">  1       21 0.31093331E-01 0.24342630E+03</pdfrwt>
<pdfrwt beam="2">  1        1 0.12833440E+00 0.24342630E+03</pdfrwt>
<totfact> 0.23490837E+03</totfact>
</mgrwt>
</event>
<event>
 5    0  0.3040647E+000  0.2371042E+03  0.7546771E-02  0.1121737E+00
         21   -1    0    0  503  502  0.00000000000E+00  0.00000000000E+00  0.12466018718E+03  0.12466018718E+03  0.00000000000E+00 0.  1.
          2   -1    0    0  502    0 -0.00000000000E+00 -0.00000000000E+00 -0.19341807389E+04  0.19341807389E+04  0.00000000000E+00 0.  1.
         25    1    1    2    0    0 -0.90989043666E+02 -0.27061313091E+03 -0.66201951498E+03  0.73171395429E+03  0.12500000000E+03 0.  0.
         21    1    1    2  503  501  0.49094624932E+02  0.18275960326E+03 -0.14326838920E+02  0.18978043391E+03  0.00000000000E+00 0.  1.
          2    1    1    2  501    0  0.41894418734E+02  0.87853527656E+02 -0.11331741978E+04  0.11373465378E+04  0.00000000000E+00 0.  1.
<mgrwt>
<rscale>  4 0.23710418E+03</rscale>
<asrwt>0</asrwt>
<pdfrwt beam="1">  1       21 0.19178492E-01 0.23710418E+03</pdfrwt>
<pdfrwt beam="2">  1        2 0.29756623E+00 0.23710418E+03</pdfrwt>
<totfact> 0.25403003E+03</totfact>
</mgrwt>
</event>
<event>
 5    0  0.3040647E+000  0.3315889E+03  0.7546771E-02  0.1070436E+00
         21   -1    0    0  503  502  0.00000000000E+00  0.00000000000E+00  0.14848627929E+03  0.14848627929E+03  0.00000000000E+00 0. -1.
          2   -1    0    0  502    0 -0.00000000000E+00 -0.00000000000E+00 -0.81748928081E+03  0.81748928081E+03  0.00000000000E+00 0. -1.
         25    1    1    2    0    0 -0.17867163385E+03 -0.26996565803E+03 -0.25032906116E+03  0.42789560423E+03  0.12500000000E+03 0.  0.
         21    1    1    2  503  501  0.74132643473E+01  0.25869062925E+02 -0.38166421712E+01  0.27179618510E+02  0.00000000000E+00 0.  1.
          2    1    1    2  501    0  0.17125836950E+03  0.24409659510E+03 -0.41485729818E+03  0.51090033736E+03  0.00000000000E+00 0. -1.
<mgrwt>
<rscale>  4 0.33158891E+03</rscale>
<asrwt>0</asrwt>
<pdfrwt beam="1">  1       21 0.22844043E-01 0.33158891E+03</pdfrwt>
<pdfrwt beam="2">  1        2 0.12576758E+00 0.33158891E+03</pdfrwt>
<totfact> 0.75785318E+03</totfact>
</mgrwt>
</event>
<event>
 5    0  0.3040647E+000  0.3317746E+03  0.7546771E-02  0.1070354E+00
         21   -1    0    0  503  502  0.00000000000E+00  0.00000000000E+00  0.16939369366E+03  0.16939369366E+03  0.00000000000E+00 0.  1.
          1   -1    0    0  502    0 -0.00000000000E+00 -0.00000000000E+00 -0.48420743287E+04  0.48420743287E+04  0.00000000000E+00 0.  1.
         25    1    1    2    0    0  0.16663425860E+03 -0.18631613844E+03 -0.93661750428E+03  0.97742418064E+03  0.12500000000E+03 0.  0.
         21    1    1    2  503  501 -0.26666539829E+03  0.17494715047E+03 -0.23154259715E+02  0.31977032359E+03  0.00000000000E+00 0.  1.
          1    1    1    2  501    0  0.10003113969E+03  0.11368987961E+02 -0.37129088710E+04  0.37142735181E+04  0.00000000000E+00 0.  1.
<mgrwt>
<rscale>  4 0.33177456E+03</rscale>
<asrwt>0</asrwt>
<pdfrwt beam="1">  1       21 0.26060564E-01 0.33177456E+03</pdfrwt>
<pdfrwt beam="2">  1        1 0.74493464E+00 0.33177456E+03</pdfrwt>
<totfact> 0.27856787E+00</totfact>
</mgrwt>
</event>
<event>
 5    0  0.3040647E+000  0.3753948E+03  0.7546771E-02  0.1052649E+00
         -2   -1    0    0    0  501 -0.00000000000E+00  0.00000000000E+00  0.43397147228E+03  0.43397147228E+03  0.00000000000E+00 0.  1.
         21   -1    0    0  501  502  0.00000000000E+00 -0.00000000000E+00 -0.90201434030E+03  0.90201434030E+03  0.00000000000E+00 0.  1.
         25    1    1    2    0    0 -0.29877363575E+03  0.17130163210E+03 -0.59280763777E+03  0.69689011327E+03  0.12500000000E+03 0.  0.
         21    1    1    2  503  502 -0.30187453010E+02 -0.36385963397E+02 -0.17049659730E+03  0.17693024145E+03  0.00000000000E+00 0.  1.
         -2    1    1    2    0  503  0.32896108876E+03 -0.13491566870E+03  0.29526136704E+03  0.46216545787E+03  0.00000000000E+00 0.  1.
<mgrwt>
<rscale>  4 0.37539475E+03</rscale>
<asrwt>0</asrwt>
<pdfrwt beam="1">  1       21 0.13877144E+00 0.37539475E+03</pdfrwt>
<pdfrwt beam="2">  1       -2 0.66764842E-01 0.37539475E+03</pdfrwt>
<totfact> 0.57193091E+01</totfact>
</mgrwt>
</event>
<event>
 5    0  0.3040647E+000  0.2465480E+03  0.7546771E-02  0.1115506E+00
         21   -1    0    0  503  502  0.00000000000E+00  0.00000000000E+00  0.41540026086E+02  0.41540026086E+02  0.00000000000E+00 0. -1.
          2   -1    0    0  502    0 -0.00000000000E+00 -0.00000000000E+00 -0.33569860650E+04  0.33569860650E+04  0.00000000000E+00 0. -1.
         25    1    1    2    0    0  0.20430442966E+03 -0.11674695207E+03 -0.46995033925E+03  0.54023001782E+03  0.12500000000E+03 0.  0.
         21    1    1    2  503  501 -0.14436124612E+02  0.27057982783E+02 -0.95690723687E+02  0.10048507713E+03  0.00000000000E+00 0. -1.
          2    1    1    2  501    0 -0.18986830505E+03  0.89688969285E+02 -0.27498049760E+04  0.27578109961E+04  0.00000000000E+00 0. -1.
<mgrwt>
<rscale>  4 0.24654797E+03</rscale>
<asrwt>0</asrwt>
<pdfrwt beam="1">  1       21 0.63907722E-02 0.24654797E+03</pdfrwt>
<pdfrwt beam="2">  1        2 0.51645948E+00 0.24654797E+03</pdfrwt>
<totfact> 0.28506578E+03</totfact>
</mgrwt>
</event>
<event>
 5    0  0.3040647E+000  0.3938369E+03  0.7546771E-02  0.1045935E+00
          1   -1    0    0  502    0 -0.00000000000E+00  0.00000000000E+00  0.21541011571E+04  0.21541011571E+04  0.00000000000E+00 0. -1.
         21   -1    0    0  503  502  0.00000000000E+00 -0.00000000000E+00 -0.18222278316E+03  0.18222278316E+03  0.00000000000E+00 0.  1.
         25    1    1    2    0    0  0.13275382986E+03 -0.32714718484E+03  0.98873354996E+03  0.10572927186E+04  0.12500000000E+03 0.  0.
         21    1    1    2  503  501  0.11682001183E+03  0.10411067874E+02 -0.80006995629E+02  0.14197332442E+03  0.00000000000E+00 0.  1.
          1    1    1    2  501    0 -0.24957384169E+03  0.31673611697E+03  0.10631518196E+04  0.11370578973E+04  0.00000000000E+00 0. -1.
<mgrwt>
<rscale>  4 0.39383694E+03</rscale>
<asrwt>0</asrwt>
<pdfrwt beam="1">  1       21 0.28034276E-01 0.39383694E+03</pdfrwt>
<pdfrwt beam="2">  1        1 0.33140016E+00 0.39383694E+03</pdfrwt>
<totfact> 0.33479695E+02</totfact>
</mgrwt>
</event>
<event>
 5    0  0.3040647E+000  0.2235394E+03  0.7546771E-02  0.1131272E+00
         21   -1    0    0  503  502  0.00000000000E+00  0.00000000000E+00  0.95008049452E+02  0.95008049452E+02  0.00000000000E+00 0. -1.
          1   -1    0    0  502    0 -0.00000000000E+00 -0.00000000000E+00 -0.13785993237E+04  0.13785993237E+04  0.00000000000E+00 0. -1.
         25    1    1    2    0    0  0.41581010014E+01  0.28850744587E+03 -0.35195294679E+03  0.47196367750E+03  0.12500000000E+03 0.  0.
         21    1    1    2  503  501  0.17270249907E+02 -0.11941536242E+03 -0.11252653715E+03  0.16498639907E+03  0.00000000000E+00 0. -1.
          1    1    1    2  501    0 -0.21428350908E+02 -0.16909208345E+03 -0.81911179036E+03  0.83665729663E+03  0.00000000000E+00 0. -1.
<mgrwt>
<rscale>  4 0.22353936E+03</rscale>
<asrwt>0</asrwt>
<pdfrwt beam="1">  1       21 0.14616624E-01 0.22353936E+03</pdfrwt>
<pdfrwt beam="2">  1        1 0.21209219E+00 0.22353936E+03</pdfrwt>
<totfact> 0.39689822E+03</totfact>
</mgrwt>
</event>
<event>
 5    0  0.3040647E+000  0.2577270E+03  0.7546771E-02  0.1108517E+00
         -1   -1    0    0    0  501 -0.00000000000E+00  0.00000000000E+00  0.23997239541E+03  0.23997239541E+03  0.00000000000E+00 0. -1.
         21   -1    0    0  501  502  0.00000000000E+00 -0.00000000000E+00 -0.61529579065E+03  0.61529579065E+03  0.00000000000E+00 0.  1.
         25    1    1    2    0    0  0.18947970846E+03  0.76085172695E+02 -0.38834944360E+03  0.45621464660E+03  0.12500000000E+03 0.  0.
         21    1    1    2  503  502  0.19087722920E+02  0.17521157515E+02 -0.12789923183E+03  0.13049730124E+03  0.00000000000E+00 0.  1.
         -1    1    1    2    0  503 -0.20856743138E+03 -0.93606330209E+02  0.14092528020E+03  0.26855623822E+03  0.00000000000E+00 0. -1.
<mgrwt>
<rscale>  4 0.25772695E+03</rscale>
<asrwt>0</asrwt>
<pdfrwt beam="1">  1       21 0.94660890E-01 0.25772695E+03</pdfrwt>
<pdfrwt beam="2">  1       -1 0.36918830E-01 0.25772695E+03</pdfrwt>
<totfact> 0.59358519E+02</totfact>
</mgrwt>
</event>
<event>
 5    0  0.4992461E+000  0.3601994E+03  0.7546771E-02  0.1058505E+00
         -2   -1    0    0    0  501 -0.00000000000E+00  0.00000000000E+00  0.17541730247E+04  0.17541730247E+04  0.00000000000E+00 0. -1.
         21   -1    0    0  501  502  0.00000000000E+00 -0.00000000000E+00 -0.87823966357E+03  0.87823966357E+03  0.00000000000E+00 0.  1.
         25    1    1    2    0    0  0.21307727256E+02 -0.37927951890E+03 -0.78017098806E+03  0.87669763505E+03  0.12500000000E+03 0.  0.
         21    1    1    2  503  502 -0.40552586807E+02  0.42824793296E+02 -0.64668669101E+01  0.59332078888E+02  0.00000000000E+00 0. -1.
         -2    1    1    2    0  503  0.19244859551E+02  0.33645472560E+03  0.16625712161E+04  0.16963829744E+04  0.00000000000E+00 0. -1.
<mgrwt>
<rscale>  4 0.36019944E+03</rscale>
<asrwt>0</asrwt>
<pdfrwt beam="1">  1       21 0.13511379E+00 0.36019944E+03</pdfrwt>
<pdfrwt beam="2">  1       -2 0.26987277E+00 0.36019944E+03</pdfrwt>
<totfact> 0.15700919E+00</totfact>
</mgrwt>
</event>
<event>
 5    0  0.3040647E+000  0.3189623E+03  0.7546771E-02  0.1076128E+00
          2   -1    0    0  502    0 -0.00000000000E+00  0.00000000000E+00  0.45157719787E+04  0.45157719787E+04  0.00000000000E+00 0.  1.
         21   -1    0    0  503  502  0.00000000000E+00 -0.00000000000E+00 -0.69404124359E+02  0.69404124359E+02  0.00000000000E+00 0.  1.
         25    1    1    2    0    0  0.24815326991E+02  0.30374810031E+03  0.42813252204E+03  0.54018623207E+03  0.12500000000E+03 0.  0.
         21    1    1    2  503  501 -0.46114723754E+02 -0.11849494271E+02  0.63137473457E+02  0.79077928753E+02  0.00000000000E+00 0.  1.
          2    1    1    2  501    0  0.21299396763E+02 -0.29189860604E+03  0.39550978588E+04  0.39659119422E+04  0.00000000000E+00 0.  1.
<mgrwt>
<rscale>  4 0.31896235E+03</rscale>
<asrwt>0</asrwt>
<pdfrwt beam="1">  1       21 0.10677561E-01 0.31896235E+03</pdfrwt>
<pdfrwt beam="2">  1        2 0.69473392E+00 0.31896235E+03</pdfrwt>
<totfact> 0.14403411E+02</totfact>
</mgrwt>
</event>
<event>
 5    0  0.3040647E+000  0.2159060E+03  0.7546771E-02  0.1136973E+00
         21   -1    0    0  503  502  0.00000000000E+00  0.00000000000E+00  0.47352125673E+02  0.47352125673E+02  0.00000000000E+00 0.  1.
          2   -1    0    0  502    0 -0.00000000000E+00 -0.00000000000E+00 -0.17673309955E+04  0.17673309955E+04  0.00000000000E+00 0. -1.
         25    1    1    2    0    0  0.93593921234E+02 -0.22218115223E+03 -0.71678676031E+03  0.76650671638E+03  0.12500000000E+03 0.  0.
         21    1    1    2  503  501 -0.58421691492E+02  0.67683436445E+02 -0.11350974475E+03  0.14449430355E+03  0.00000000000E+00 0. -1.
          2    1    1    2  501    0 -0.35172229742E+02  0.15449771579E+03 -0.88968236480E+03  0.90368210128E+03  0.00000000000E+00 0. -1.
<mgrwt>
<rscale>  4 0.21590598E+03</rscale>
<asrwt>0</asrwt>
<pdfrwt beam="1">  1       21 0.72849437E-02 0.21590598E+03</pdfrwt>
<pdfrwt beam="2">  1        2 0.27189703E+00 0.21590598E+03</pdfrwt>
<totfact> 0.17824123E+04</totfact>
</mgrwt>
</event>
<event>
 5    0  0.3040647E+000  0.2894114E+03  0.7546771E-02  0.1090657E+00
          2   -1    0    0  502    0 -0.00000000000E+00  0.00000000000E+00  0.25571456183E+03  0.25571456183E+03  0.00000000000E+00 0.  1.
         21   -1    0    0  503  502  0.00000000000E+00 -0.00000000000E+00 -0.50746164243E+03  0.50746164243E+03  0.00000000000E+00 0.  1.
         25    1    1    2    0    0 -0.26623864737E+03 -0.96829598216E+02 -0.32608734300E+03  0.44968538303E+03  0.12500000000E+03 0.  0.
         21    1    1    2  503  501  0.34566545230E+02 -0.12297064692E+02 -0.18506482076E+02  0.41092015381E+02  0.00000000000E+00 0. -1.
          2    1    1    2  501    0  0.23167210214E+03  0.10912666291E+03  0.92846744482E+02  0.27239880585E+03  0.00000000000E+00 0.  1.
<mgrwt>
<rscale>  4 0.28941136E+03</rscale>
<asrwt>0</asrwt>
<pdfrwt beam="1">  1       21 0.78071020E-01 0.28941136E+03</pdfrwt>
<pdfrwt beam="2">  1        2 0.39340703E-01 0.28941136E+03</pdfrwt>
<totfact> 0.22622792E+03</totfact>
</mgrwt>
</event>
<event>
 5    0  0.3040647E+000  0.2877501E+03  0.7546771E-02  0.1091530E+00
         21   -1    0    0  501  502  0.00000000000E+00  0.00000000000E+00  0.12014047871E+03  0.12014047871E+03  0.00000000000E+00 0.  1.
         -1   -1    0    0    0  501 -0.00000000000E+00 -0.00000000000E+00 -0.75583183308E+03  0.75583183308E+03  0.00000000000E+00 0.  1.
         25    1    1    2    0    0 -0.20959880662E+03 -0.15245812993E+03 -0.15928153118E+03  0.32889321563E+03  0.12500000000E+03 0.  0.
         21    1    1    2  503  502  0.21744300980E+02 -0.52479589775E+01 -0.26717827587E+02  0.34845344158E+02  0.00000000000E+00 0. -1.
         -1    1    1    2    0  503  0.18785450564E+03  0.15770608890E+03 -0.44969199561E+03  0.51223375199E+03  0.00000000000E+00 0.  1.
<mgrwt>
<rscale>  4 0.28775014E+03</rscale>
<asrwt>0</asrwt>
<pdfrwt beam="1">  1       21 0.18483151E-01 0.28775014E+03</pdfrwt>
<pdfrwt beam="2">  1       -1 0.11628182E+00 0.28775014E+03</pdfrwt>
<totfact> 0.17462654E+03</totfact>
</mgrwt>
</event>
<event>
 5    0  0.3040647E+000  0.3132096E+03  0.7546771E-02  0.1078818E+00
         21   -1    0    0  503  502  0.00000000000E+00  0.00000000000E+00  0.33417234069E+03  0.33417234069E+03  0.00000000000E+00 0.  1.
          1   -1    0    0  502    0 -0.00000000000E+00 -0.00000000000E+00 -0.70221212172E+03  0.70221212172E+03  0.00000000000E+00 0.  1.
         25    1    1    2    0    0 -0.30308882589E+03  0.63068400510E+02  0.94058068568E+02  0.34686074985E+03  0.12500000000E+03 0.  0.
         21    1    1    2  503  501  0.31955268349E+02  0.20746238450E+02  0.73837480952E+02  0.83087418894E+02  0.00000000000E+00 0.  1.
          1    1    1    2  501    0  0.27113355755E+03 -0.83814638959E+02 -0.53593533055E+03  0.60643629366E+03  0.00000000000E+00 0.  1.
<mgrwt>
<rscale>  4 0.31320958E+03</rscale>
<asrwt>0</asrwt>
<pdfrwt beam="1">  1       21 0.51411130E-01 0.31320958E+03</pdfrwt>
<pdfrwt beam="2">  1        1 0.10803263E+00 0.31320958E+03</pdfrwt>
<totfact> 0.10675996E+03</totfact>
</mgrwt>
</event>
<event>
 5    0  0.3040647E+000  0.4638694E+03  0.7546771E-02  0.1023665E+00
         21   -1    0    0  503  502  0.00000000000E+00  0.00000000000E+00  0.15458678865E+03  0.15458678865E+03  0.00000000000E+00 0.  1.
          2   -1    0    0  502    0 -0.00000000000E+00 -0.00000000000E+00 -0.23131455016E+04  0.23131455016E+04  0.00000000000E+00 0. -1.
         25    1    1    2    0    0  0.46810721158E+03  0.26339438101E+02 -0.37318496374E+03  0.61213572408E+03  0.12500000000E+03 0.  0.
         21    1    1    2  503  501 -0.27772662762E+02  0.82849102820E+01 -0.18575366137E+02  0.34423898129E+02  0.00000000000E+00 0.  1.
          2    1    1    2  501    0 -0.44033454881E+03 -0.34624348383E+02 -0.17667983831E+04  0.18211726681E+04  0.00000000000E+00 0. -1.
<mgrwt>
<rscale>  4 0.46386938E+03</rscale>
<asrwt>0</asrwt>
<pdfrwt beam="1">  1       21 0.23782582E-01 0.46386938E+03</pdfrwt>
<pdfrwt beam="2">  1        2 0.35586855E+00 0.46386938E+03</pdfrwt>
<totfact> 0.97182661E+02</totfact>
</mgrwt>
</event>
<event>
 5    0  0.3040647E+000  0.3357860E+03  0.7546771E-02  0.1068605E+00
         21   -1    0    0  503  502  0.00000000000E+00  0.00000000000E+00  0.10866286418E+03  0.10866286418E+03  0.00000000000E+00 0. -1.
          1   -1    0    0  502    0 -0.00000000000E+00 -0.00000000000E+00 -0.13108920184E+04  0.13108920184E+04  0.00000000000E+00 0.  1.
         25    1    1    2    0    0 -0.15964760753E+03 -0.27596435212E+03 -0.44646209485E+03  0.56266960498E+03  0.12500000000E+03 0.  0.
         21    1    1    2  503  501 -0.39716507927E+02  0.39233962770E+02 -0.21088517113E+02  0.59677721057E+02  0.00000000000E+00 0.  1.
          1    1    1    2  501    0  0.19936411545E+03  0.23673038935E+03 -0.73467854224E+03  0.79720755653E+03  0.00000000000E+00 0.  1.
<mgrwt>
<rscale>  4 0.33578596E+03</rscale>
<asrwt>0</asrwt>
<pdfrwt beam="1">  1       21 0.16717363E-01 0.33578596E+03</pdfrwt>
<pdfrwt beam="2">  1        1 0.20167570E+00 0.33578596E+03</pdfrwt>
<totfact> 0.33217965E+03</totfact>
</mgrwt>
</event>
<event>
 5    0  0.3040647E+000  0.3756990E+03  0.7546771E-02  0.1052535E+00
         21   -1    0    0  503  502  0.00000000000E+00  0.00000000000E+00  0.10986297251E+03  0.10986297251E+03  0.00000000000E+00 0.  1.
          1   -1    0    0  502    0 -0.00000000000E+00 -0.00000000000E+00 -0.28730656272E+04  0.28730656272E+04  0.00000000000E+00 0.  1.
         25    1    1    2    0    0  0.29680278120E+03 -0.24308844049E+03 -0.17263803232E+04  0.17729066250E+04  0.12500000000E+03 0.  0.
         21    1    1    2  503  501 -0.73797728775E+02  0.35867167932E+03 -0.52765814551E+03  0.64227299246E+03  0.00000000000E+00 0.  1.
          1    1    1    2  501    0 -0.22300505243E+03 -0.11558323883E+03 -0.50916418595E+03  0.56774898217E+03  0.00000000000E+00 0.  1.
<mgrwt>
<rscale>  4 0.37569896E+03</rscale>
<asrwt>0</asrwt>
<pdfrwt beam="1">  1       21 0.16901995E-01 0.37569896E+03</pdfrwt>
<pdfrwt beam="2">  1        1 0.44201010E+00 0.37569896E+03</pdfrwt>
<totfact> 0.29105489E+02</totfact>
</mgrwt>
</event>
<event>
 5    0  0.3040647E+000  0.2736463E+03  0.7546771E-02  0.1099211E+00
         21   -1    0    0  503  502  0.00000000000E+00  0.00000000000E+00  0.95052009132E+03  0.95052009132E+03  0.00000000000E+00 0.  1.
          2   -1    0    0  502    0 -0.00000000000E+00 -0.00000000000E+00 -0.14760027160E+04  0.14760027160E+04  0.00000000000E+00 0.  1.
         25    1    1    2    0    0  0.29517630398E+03 -0.21146396457E+03  0.23282830990E+03  0.44908805444E+03  0.12500000000E+03 0.  0.
         21    1    1    2  503  501 -0.17144005021E+03  0.13974999113E+03  0.58557772162E+03  0.62595768140E+03  0.00000000000E+00 0.  1.
          2    1    1    2  501    0 -0.12373625377E+03  0.71713973441E+02 -0.13438886562E+04  0.13514770715E+04  0.00000000000E+00 0.  1.
<mgrwt>
<rscale>  4 0.27364634E+03</rscale>
<asrwt>0</asrwt>
<pdfrwt beam="1">  1       21 0.14623386E+00 0.27364634E+03</pdfrwt>
<pdfrwt beam="2">  1        2 0.22707734E+00 0.27364634E+03</pdfrwt>
<totfact> 0.53639312E+01</totfact>
</mgrwt>
</event>
<event>
 5    0  0.3040647E+000  0.3113957E+03  0.7546771E-02  0.1079679E+00
         -1   -1    0    0    0  501 -0.00000000000E+00  0.00000000000E+00  0.16352211212E+03  0.16352211212E+03  0.00000000000E+00 0.  1.
         21   -1    0    0  501  502  0.00000000000E+00 -0.00000000000E+00 -0.80019759518E+03  0.80019759518E+03  0.00000000000E+00 0.  1.
         25    1    1    2    0    0 -0.17135437778E+03 -0.21356146705E+03 -0.15952528217E+03  0.34065251891E+03  0.12500000000E+03 0.  0.
         21    1    1    2  503  502 -0.13782323780E+02 -0.21657529801E+02 -0.23947218235E+03  0.24084419687E+03  0.00000000000E+00 0.  1.
         -1    1    1    2    0  503  0.18513670156E+03  0.23521899685E+03 -0.23767801854E+03  0.38222299152E+03  0.00000000000E+00 0.  1.
<mgrwt>
<rscale>  4 0.31139572E+03</rscale>
<asrwt>0</asrwt>
<pdfrwt beam="1">  1       21 0.12310732E+00 0.31139572E+03</pdfrwt>
<pdfrwt beam="2">  1       -1 0.25157248E-01 0.31139572E+03</pdfrwt>
<totfact> 0.59173594E+02</totfact>
</mgrwt>
</event>
<event>
 5    0  0.3040647E+000  0.2151202E+03  0.7546771E-02  0.1137574E+00
         21   -1    0    0  503  502  0.00000000000E+00  0.00000000000E+00  0.16026275590E+03  0.16026275590E+03  0.00000000000E+00 0.  1.
          2   -1    0    0  502    0 -0.00000000000E+00 -0.00000000000E+00 -0.15341473899E+04  0.15341473899E+04  0.00000000000E+00 0. -1.
         25    1    1    2    0    0  0.21806313403E+03 -0.22979035101E+02 -0.19873193002E+02  0.25317881087E+03  0.12500000000E+03 0.  0.
         21    1    1    2  503  501 -0.49866691823E+02 -0.17949485163E+02  0.19785386555E+02  0.56571481262E+02  0.00000000000E+00 0.  1.
          2    1    1    2  501    0 -0.16819644220E+03  0.40928520264E+02 -0.13737968276E+04  0.13846598537E+04  0.00000000000E+00 0. -1.
<mgrwt>
<rscale>  4 0.21512017E+03</rscale>
<asrwt>0</asrwt>
<pdfrwt beam="1">  1       21 0.24655809E-01 0.21512017E+03</pdfrwt>
<pdfrwt beam="2">  1        2 0.23602267E+00 0.21512017E+03</pdfrwt>
<totfact> 0.25879622E+03</totfact>
</mgrwt>
</event>
<event>
 5    0  0.3040647E+000  0.3900849E+03  0.7546771E-02  0.1047268E+00
         21   -1    0    0  503  502  0.00000000000E+00  0.00000000000E+00  0.48292961061E+03  0.48292961061E+03  0.00000000000E+00 0.  1.
          1   -1    0    0  502    0 -0.00000000000E+00 -0.00000000000E+00 -0.92842824216E+03  0.92842824216E+03  0.00000000000E+00 0. -1.
         25    1    1    2    0    0  0.30494063536E+03 -0.32219853928E+02  0.15465891222E+03  0.36547406092E+03  0.12500000000E+03 0.  0.
         21    1    1    2  503  501  0.73455357173E+02 -0.51071535423E+01  0.17094580638E+03  0.18612963556E+03  0.00000000000E+00 0.  1.
          1    1    1    2  501    0 -0.37839599253E+03  0.37327007471E+02 -0.77110335015E+03  0.85975415629E+03  0.00000000000E+00 0. -1.
<mgrwt>
<rscale>  4 0.39008490E+03</rscale>
<asrwt>0</asrwt>
<pdfrwt beam="1">  1       21 0.74296864E-01 0.39008490E+03</pdfrwt>
<pdfrwt beam="2">  1        1 0.14283511E+00 0.39008490E+03</pdfrwt>
<totfact> 0.29941524E+02</totfact>
</mgrwt>
</event>
<event>
 5    0  0.3040647E+000  0.2586148E+03  0.7546771E-02  0.1107978E+00
          1   -1    0    0  502    0 -0.00000000000E+00  0.00000000000E+00  0.36489006629E+03  0.36489006629E+03  0.00000000000E+00 0. -1.
         21   -1    0    0  503  502  0.00000000000E+00 -0.00000000000E+00 -0.78034540378E+03  0.78034540378E+03  0.00000000000E+00 0.  1.
         25    1    1    2    0    0  0.17997299013E+03  0.12808786100E+03  0.17578902655E+03  0.30874513626E+03  0.12500000000E+03 0.  0.
         21    1    1    2  503  501 -0.27208578663E+02  0.59404751369E+02 -0.59104162073E+03  0.59464226950E+03  0.00000000000E+00 0.  1.
          1    1    1    2  501    0 -0.15276441146E+03 -0.18749261237E+03 -0.20274331064E+00  0.24184806431E+03  0.00000000000E+00 0. -1.
<mgrwt>
<rscale>  4 0.25861481E+03</rscale>
<asrwt>0</asrwt>
<pdfrwt beam="1">  1       21 0.12005314E+00 0.25861481E+03</pdfrwt>
<pdfrwt beam="2">  1        1 0.56136934E-01 0.25861481E+03</pdfrwt>
<totfact> 0.38017458E+02</totfact>
</mgrwt>
</event>
<event>
 5    0  0.3040647E+000  0.2954596E+03  0.7546771E-02  0.1087533E+00
         21   -1    0    0  503  502  0.00000000000E+00  0.00000000000E+00  0.65523451744E+02  0.65523451744E+02  0.00000000000E+00 0.  1.
          2   -1    0    0  502    0 -0.00000000000E+00 -0.00000000000E+00 -0.20786524019E+04  0.20786524019E+04  0.00000000000E+00 0.  1.
         25    1    1    2    0    0  0.12997726284E+03  0.25333023176E+03 -0.44130984250E+03  0.53986078971E+03  0.12500000000E+03 0.  0.
         21    1    1    2  503  501 -0.79374773574E+02 -0.22287764254E+03 -0.92396816299E+03  0.95377773325E+03  0.00000000000E+00 0.  1.
          2    1    1    2  501    0 -0.50602489266E+02 -0.30452589226E+02 -0.64785094471E+03  0.65053733073E+03  0.00000000000E+00 0.  1.
<mgrwt>
<rscale>  4 0.29545959E+03</rscale>
<asrwt>0</asrwt>
<pdfrwt beam="1">  1       21 0.10080532E-01 0.29545959E+03</pdfrwt>
<pdfrwt beam="2">  1        2 0.31979263E+00 0.29545959E+03</pdfrwt>
<totfact> 0.67349055E+03</totfact>
</mgrwt>
</event>
<event>
 5    0  0.3040647E+000  0.2710303E+03  0.7546771E-02  0.1100691E+00
          2   -1    0    0  502    0 -0.00000000000E+00  0.00000000000E+00  0.17199038029E+04  0.17199038029E+04  0.00000000000E+00 0.  1.
         21   -1    0    0  503  502  0.00000000000E+00 -0.00000000000E+00 -0.44588877264E+02  0.44588877264E+02  0.00000000000E+00 0.  1.
         25    1    1    2    0    0  0.84286432133E+02  0.23727239400E+03  0.71484321652E+03  0.76813294149E+03  0.12500000000E+03 0.  0.
         21    1    1    2  503  501 -0.75422909755E+02 -0.21618519141E+03  0.73767264457E+03  0.77238952793E+03  0.00000000000E+00 0.  1.
          2    1    1    2  501    0 -0.88635223783E+01 -0.21087202589E+02  0.22279906457E+03  0.22397021078E+03  0.00000000000E+00 0.  1.
<mgrwt>
<rscale>  4 0.27103025E+03</rscale>
<asrwt>0</asrwt>
<pdfrwt beam="1">  1       21 0.68598286E-02 0.27103025E+03</pdfrwt>
<pdfrwt beam="2">  1        2 0.26460053E+00 0.27103025E+03</pdfrwt>
<totfact> 0.20639565E+04</totfact>
</mgrwt>
</event>
<event>
 5    0  0.3040647E+000  0.2207343E+03  0.7546771E-02  0.1133337E+00
         21   -1    0    0  503  502  0.00000000000E+00  0.00000000000E+00  0.53773290786E+02  0.53773290786E+02  0.00000000000E+00 0. -1.
          1   -1    0    0  502    0 -0.00000000000E+00 -0.00000000000E+00 -0.22675474308E+04  0.22675474308E+04  0.00000000000E+00 0. -1.
         25    1    1    2    0    0 -0.21174919790E+03  0.98630165555E+02 -0.18386161443E+04  0.18576059750E+04  0.12500000000E+03 0.  0.
         21    1    1    2  503  501  0.16201728239E+03 -0.70223168708E+02 -0.15095103972E+03  0.23230822114E+03  0.00000000000E+00 0. -1.
          1    1    1    2  501    0  0.49731915512E+02 -0.28406996847E+02 -0.22420695595E+03  0.23140652538E+03  0.00000000000E+00 0. -1.
<mgrwt>
<rscale>  4 0.22073429E+03</rscale>
<asrwt>0</asrwt>
<pdfrwt beam="1">  1       21 0.82728125E-02 0.22073429E+03</pdfrwt>
<pdfrwt beam="2">  1        1 0.34885351E+00 0.22073429E+03</pdfrwt>
<totfact> 0.28946394E+03</totfact>
</mgrwt>
</event>
<event>
 5    0  0.3040647E+000  0.4357245E+03  0.7546771E-02  0.1032651E+00
          2   -1    0    0  502    0 -0.00000000000E+00  0.00000000000E+00  0.61590710122E+03  0.61590710122E+03  0.00000000000E+00 0. -1.
         21   -1    0    0  503  502  0.00000000000E+00 -0.00000000000E+00 -0.30310866539E+03  0.30310866539E+03  0.00000000000E+00 0. -1.
         25    1    1    2    0    0  0.23234142225E+03  0.33735647947E+03  0.16357790962E+03  0.45844810311E+03  0.12500000000E+03 0.  0.
         21    1    1    2  503  501 -0.14754559594E+03 -0.89078273910E+02  0.74602652162E+02  0.18780361411E+03  0.00000000000E+00 0. -1.
          2    1    1    2  501    0 -0.84795826304E+02 -0.24827820556E+03  0.74617874046E+02  0.27276404939E+03  0.00000000000E+00 0. -1.
<mgrwt>
<rscale>  4 0.43384934E+03</rscale>
<asrwt>0</asrwt>
<pdfrwt beam="1">  1       21 0.46632102E-01 0.43572446E+03</pdfrwt>
<pdfrwt beam="2">  1        2 0.94754939E-01 0.43572446E+03</pdfrwt>
<totfact> 0.25282648E+03</totfact>
</mgrwt>
</event>
<event>
 5    0  0.3040647E+000  0.3515257E+03  0.7546771E-02  0.1061991E+00
          2   -1    0    0  502    0 -0.00000000000E+00  0.00000000000E+00  0.17827121244E+04  0.17827121244E+04  0.00000000000E+00 0. -1.
         21   -1    0    0  503  502  0.00000000000E+00 -0.00000000000E+00 -0.29345965828E+03  0.29345965828E+03  0.00000000000E+00 0.  1.
         25    1    1    2    0    0  0.30677489525E+03  0.41853919156E+02 -0.16530886343E+03  0.37257832362E+03  0.12500000000E+03 0.  0.
         21    1    1    2  503  501  0.20511840356E+02 -0.20321999735E+01  0.47390732577E+01  0.21150041297E+02  0.00000000000E+00 0. -1.
          2    1    1    2  501    0 -0.32728673560E+03 -0.39821719182E+02  0.16498222563E+04  0.16824434178E+04  0.00000000000E+00 0. -1.
<mgrwt>
<rscale>  4 0.35152568E+03</rscale>
<asrwt>0</asrwt>
<pdfrwt beam="1">  1       21 0.45147641E-01 0.35152568E+03</pdfrwt>
<pdfrwt beam="2">  1        2 0.27426340E+00 0.35152568E+03</pdfrwt>
<totfact> 0.53816920E+02</totfact>
</mgrwt>
</event>
<event>
 5    0  0.3040647E+000  0.2974410E+03  0.7546771E-02  0.1086527E+00
          1   -1    0    0  502    0 -0.00000000000E+00  0.00000000000E+00  0.34923651190E+03  0.34923651190E+03  0.00000000000E+00 0.  1.
         21   -1    0    0  503  502  0.00000000000E+00 -0.00000000000E+00 -0.31707589865E+03  0.31707589865E+03  0.00000000000E+00 0. -1.
         25    1    1    2    0    0 -0.14197184439E+03 -0.23325832960E+03  0.52636628693E+02  0.30489517479E+03  0.12500000000E+03 0.  0.
         21    1    1    2  503  501 -0.22005413593E+02  0.21294657879E+02 -0.81073908818E+02  0.86664175832E+02  0.00000000000E+00 0. -1.
          1    1    1    2  501    0  0.16397725798E+03  0.21196367172E+03  0.60597893375E+02  0.27475305994E+03  0.00000000000E+00 0.  1.
<mgrwt>
<rscale>  4 0.29744104E+03</rscale>
<asrwt>0</asrwt>
<pdfrwt beam="1">  1       21 0.48780907E-01 0.29744104E+03</pdfrwt>
<pdfrwt beam="2">  1        1 0.53728694E-01 0.29744104E+03</pdfrwt>
<totfact> 0.30761340E+03</totfact>
</mgrwt>
</event>
<event>
 5    0  0.3040647E+000  0.1910177E+03  0.7546771E-02  0.1157547E+00
         21   -1    0    0  501  502  0.00000000000E+00  0.00000000000E+00  0.11962019241E+04  0.11962019241E+04  0.00000000000E+00 0.  1.
         -3   -1    0    0    0  501 -0.00000000000E+00 -0.00000000000E+00 -0.89086852266E+02  0.89086852266E+02  0.00000000000E+00 0.  1.
         25    1    1    2    0    0  0.56832998028E+02 -0.19517002616E+03  0.52778994411E+03  0.57923100218E+03  0.12500000000E+03 0.  0.
         21    1    1    2  503  502 -0.35862341729E+02  0.60252515672E+02  0.56436388682E+03  0.56870297163E+03  0.00000000000E+00 0.  1.
         -3    1    1    2    0  503 -0.20970656299E+02  0.13491751049E+03  0.14961240927E+02  0.13735480258E+03  0.00000000000E+00 0.  1.
<mgrwt>
<rscale>  4 0.19101772E+03</rscale>
<asrwt>0</asrwt>
<pdfrwt beam="1">  1       21 0.18403105E+00 0.19101772E+03</pdfrwt>
<pdfrwt beam="2">  1       -3 0.13705670E-01 0.19101772E+03</pdfrwt>
<totfact> 0.36507618E+02</totfact>
</mgrwt>
</event>
<event>
 5    0  0.3040647E+000  0.3127240E+03  0.7546771E-02  0.1079048E+00
          2   -1    0    0  502    0 -0.00000000000E+00  0.00000000000E+00  0.13748045781E+04  0.13748045781E+04  0.00000000000E+00 0.  1.
         21   -1    0    0  503  502  0.00000000000E+00 -0.00000000000E+00 -0.34819371993E+03  0.34819371993E+03  0.00000000000E+00 0. -1.
         25    1    1    2    0    0  0.15794441241E+03 -0.15106511020E+03  0.11104473782E+03  0.27517819450E+03  0.12500000000E+03 0.  0.
         21    1    1    2  503  501  0.28803951536E+02 -0.88052158668E+02 -0.23780343380E+03  0.25521231044E+03  0.00000000000E+00 0. -1.
          2    1    1    2  501    0 -0.18674836394E+03  0.23911726887E+03  0.11533695542E+04  0.11926077931E+04  0.00000000000E+00 0.  1.
<mgrwt>
<rscale>  4 0.31272398E+03</rscale>
<asrwt>0</asrwt>
<pdfrwt beam="1">  1       21 0.53568266E-01 0.31272398E+03</pdfrwt>
<pdfrwt beam="2">  1        2 0.21150839E+00 0.31272398E+03</pdfrwt>
<totfact> 0.63203891E+02</totfact>
</mgrwt>
</event>
<event>
 5    0  0.3040647E+000  0.2882881E+03  0.7546771E-02  0.1091246E+00
          1   -1    0    0  502    0 -0.00000000000E+00  0.00000000000E+00  0.75915244991E+03  0.75915244991E+03  0.00000000000E+00 0.  1.
         21   -1    0    0  503  502  0.00000000000E+00 -0.00000000000E+00 -0.10907942678E+03  0.10907942678E+03  0.00000000000E+00 0.  1.
         25    1    1    2    0    0 -0.13337022964E+03  0.21261056582E+03  0.31393576280E+03  0.42091749075E+03  0.12500000000E+03 0.  0.
         21    1    1    2  503  501  0.87889471912E+01  0.25122847071E+02  0.26836708180E+02  0.37796983261E+02  0.00000000000E+00 0. -1.
          1    1    1    2  501    0  0.12458128245E+03 -0.23773341289E+03  0.30930055215E+03  0.40951740269E+03  0.00000000000E+00 0.  1.
<mgrwt>
<rscale>  4 0.28828813E+03</rscale>
<asrwt>0</asrwt>
<pdfrwt beam="1">  1       21 0.16781451E-01 0.28828813E+03</pdfrwt>
<pdfrwt beam="2">  1        1 0.11679268E+00 0.28828813E+03</pdfrwt>
<totfact> 0.86999749E+03</totfact>
</mgrwt>
</event>
<event>
 5    0  0.3040647E+000  0.2491598E+03  0.7546771E-02  0.1113837E+00
          2   -1    0    0  502    0 -0.00000000000E+00  0.00000000000E+00  0.33599308623E+03  0.33599308623E+03  0.00000000000E+00 0.  1.
         21   -1    0    0  503  502  0.00000000000E+00 -0.00000000000E+00 -0.30923308923E+03  0.30923308923E+03  0.00000000000E+00 0. -1.
         25    1    1    2    0    0 -0.23297612287E+03 -0.27663529869E+02 -0.16563728242E+03  0.31321534770E+03  0.12500000000E+03 0.  0.
         21    1    1    2  503  501  0.26594987304E+02 -0.21690628806E+02 -0.12987656423E+02  0.36694085996E+02  0.00000000000E+00 0. -1.
          2    1    1    2  501    0  0.20638113556E+03  0.49354158675E+02  0.20538493584E+03  0.29531674176E+03  0.00000000000E+00 0.  1.
<mgrwt>
<rscale>  4 0.24915976E+03</rscale>
<asrwt>0</asrwt>
<pdfrwt beam="1">  1       21 0.47574321E-01 0.24915976E+03</pdfrwt>
<pdfrwt beam="2">  1        2 0.51691244E-01 0.24915976E+03</pdfrwt>
<totfact> 0.49926569E+03</totfact>
</mgrwt>
</event>
<event>
 5    0  0.3040647E+000  0.3679109E+03  0.7546771E-02  0.1055495E+00
         21   -1    0    0  503  502  0.00000000000E+00  0.00000000000E+00  0.24294243639E+03  0.24294243639E+03  0.00000000000E+00 0.  1.
          2   -1    0    0  502    0 -0.00000000000E+00 -0.00000000000E+00 -0.12607390613E+04  0.12607390613E+04  0.00000000000E+00 0.  1.
         25    1    1    2    0    0 -0.24713430882E+03 -0.22513411002E+03 -0.62005237958E+03  0.71543740992E+03  0.12500000000E+03 0.  0.
         21    1    1    2  503  501 -0.83050031494E+01 -0.28001354470E+02  0.13907035220E+03  0.14210422861E+03  0.00000000000E+00 0.  1.
          2    1    1    2  501    0  0.25543931197E+03  0.25313546449E+03 -0.53681459757E+03  0.64613985921E+03  0.00000000000E+00 0.  1.
<mgrwt>
<rscale>  4 0.36791085E+03</rscale>
<asrwt>0</asrwt>
<pdfrwt beam="1">  1       21 0.37375761E-01 0.36791085E+03</pdfrwt>
<pdfrwt beam="2">  1        2 0.19395985E+00 0.36791085E+03</pdfrwt>
<totfact> 0.15171538E+03</totfact>
</mgrwt>
</event>
<event>
 5    0  0.3040647E+000  0.3087884E+03  0.7546771E-02  0.1080928E+00
         21   -1    0    0  503  502  0.00000000000E+00  0.00000000000E+00  0.52532095523E+03  0.52532095523E+03  0.00000000000E+00 0.  1.
          2   -1    0    0  502    0 -0.00000000000E+00 -0.00000000000E+00 -0.16647515989E+04  0.16647515989E+04  0.00000000000E+00 0. -1.
         25    1    1    2    0    0 -0.24550026017E+03 -0.16446324006E+03 -0.35167597873E+03  0.47604572164E+03  0.12500000000E+03 0.  0.
         21    1    1    2  503  501  0.49783683900E+01  0.22756110305E+02  0.44725396587E+03  0.44786017315E+03  0.00000000000E+00 0.  1.
          2    1    1    2  501    0  0.24052189178E+03  0.14170712976E+03 -0.12350086308E+04  0.12661666593E+04  0.00000000000E+00 0. -1.
<mgrwt>
<rscale>  4 0.30878843E+03</rscale>
<asrwt>0</asrwt>
<pdfrwt beam="1">  1       21 0.80818608E-01 0.30878843E+03</pdfrwt>
<pdfrwt beam="2">  1        2 0.25611563E+00 0.30878843E+03</pdfrwt>
<totfact> 0.17814127E+02</totfact>
</mgrwt>
</event>
<event>
 5    0  0.3040647E+000  0.2021292E+03  0.7546771E-02  0.1147955E+00
         21   -1    0    0  503  502  0.00000000000E+00  0.00000000000E+00  0.92651922110E+03  0.92651922110E+03  0.00000000000E+00 0. -1.
          1   -1    0    0  502    0 -0.00000000000E+00 -0.00000000000E+00 -0.18453659490E+03  0.18453659490E+03  0.00000000000E+00 0. -1.
         25    1    1    2    0    0  0.50788184990E+02  0.20329168087E+03  0.17282767539E+03  0.29900058968E+03  0.12500000000E+03 0.  0.
         21    1    1    2  503  501  0.12106817515E+02 -0.67774741637E+02  0.64211195280E+03  0.64579234322E+03  0.00000000000E+00 0. -1.
          1    1    1    2  501    0 -0.62895002505E+02 -0.13551693923E+03 -0.72957001998E+02  0.16626288311E+03  0.00000000000E+00 0. -1.
<mgrwt>
<rscale>  4 0.20212923E+03</rscale>
<asrwt>0</asrwt>
<pdfrwt beam="1">  1       21 0.14254142E+00 0.20212923E+03</pdfrwt>
<pdfrwt beam="2">  1        1 0.28390246E-01 0.20212923E+03</pdfrwt>
<totfact> 0.59767941E+02</totfact>
</mgrwt>
</event>
<event>
 5    0  0.3040647E+000  0.4894664E+03  0.7546771E-02  0.1016565E+00
         21   -1    0    0  503  502  0.00000000000E+00  0.00000000000E+00  0.55417633482E+03  0.55417633482E+03  0.00000000000E+00 0. -1.
          2   -1    0    0  502    0 -0.00000000000E+00 -0.00000000000E+00 -0.64319563616E+03  0.64319563616E+03  0.00000000000E+00 0. -1.
         25    1    1    2    0    0  0.38442988044E+02 -0.48793664278E+03  0.19130679160E+03  0.54016971334E+03  0.12500000000E+03 0.  0.
         21    1    1    2  503  501 -0.64075293835E-01  0.21472844816E+02  0.69585092618E+02  0.72822882975E+02  0.00000000000E+00 0. -1.
          2    1    1    2  501    0 -0.38378912750E+02  0.46646379796E+03 -0.34991118556E+03  0.58437937466E+03  0.00000000000E+00 0. -1.
<mgrwt>
<rscale>  4 0.48946643E+03</rscale>
<asrwt>0</asrwt>
<pdfrwt beam="1">  1       21 0.85257899E-01 0.48946643E+03</pdfrwt>
<pdfrwt beam="2">  1        2 0.98953174E-01 0.48946643E+03</pdfrwt>
<totfact> 0.62298405E+02</totfact>
</mgrwt>
</event>
<event>
 5    0  0.3040647E+000  0.3908941E+03  0.7546771E-02  0.1046979E+00
         -2   -1    0    0    0  501 -0.00000000000E+00  0.00000000000E+00  0.94609721977E+02  0.94609721977E+02  0.00000000000E+00 0. -1.
         21   -1    0    0  501  502  0.00000000000E+00 -0.00000000000E+00 -0.19850588475E+04  0.19850588475E+04  0.00000000000E+00 0. -1.
         25    1    1    2    0    0 -0.33678565980E+02 -0.34486302571E+03 -0.47037467408E+03  0.59744630414E+03  0.12500000000E+03 0.  0.
         21    1    1    2  503  502  0.16131563435E+02 -0.35146197414E+02 -0.74929181947E+02  0.84320014461E+02  0.00000000000E+00 0. -1.
         -2    1    1    2    0  503  0.17547002545E+02  0.38000922313E+03 -0.13451452695E+04  0.13979022509E+04  0.00000000000E+00 0. -1.
<mgrwt>
<rscale>  4 0.39089408E+03</rscale>
<asrwt>0</asrwt>
<pdfrwt beam="1">  1       21 0.30539365E+00 0.39089408E+03</pdfrwt>
<pdfrwt beam="2">  1       -2 0.14555343E-01 0.39089408E+03</pdfrwt>
<totfact> 0.77995944E+01</totfact>
</mgrwt>
</event>
<event>
 5    0  0.3040647E+000  0.1872093E+03  0.7546771E-02  0.1161003E+00
          1   -1    0    0  502    0 -0.00000000000E+00  0.00000000000E+00  0.23632159408E+04  0.23632159408E+04  0.00000000000E+00 0.  1.
         21   -1    0    0  503  502  0.00000000000E+00 -0.00000000000E+00 -0.22933790297E+03  0.22933790297E+03  0.00000000000E+00 0.  1.
         25    1    1    2    0    0 -0.71755044258E+02 -0.22858021685E+03  0.63979742055E+03  0.69452389538E+03  0.12500000000E+03 0.  0.
         21    1    1    2  503  501  0.50380750466E+02  0.12624149146E+03 -0.17728679352E+03  0.22339592955E+03  0.00000000000E+00 0.  1.
          1    1    1    2  501    0  0.21374293792E+02  0.10233872539E+03  0.16713674108E+04  0.16746340188E+04  0.00000000000E+00 0.  1.
<mgrwt>
<rscale>  4 0.18720933E+03</rscale>
<asrwt>0</asrwt>
<pdfrwt beam="1">  1       21 0.35282756E-01 0.18720933E+03</pdfrwt>
<pdfrwt beam="2">  1        1 0.36357167E+00 0.18720933E+03</pdfrwt>
<totfact> 0.17501571E+02</totfact>
</mgrwt>
</event>
<event>
 5    0  0.3040647E+000  0.2597967E+03  0.7546771E-02  0.1107265E+00
         21   -1    0    0  503  502  0.00000000000E+00  0.00000000000E+00  0.20482143004E+03  0.20482143004E+03  0.00000000000E+00 0.  1.
          2   -1    0    0  502    0 -0.00000000000E+00 -0.00000000000E+00 -0.53156340762E+03  0.53156340762E+03  0.00000000000E+00 0. -1.
         25    1    1    2    0    0 -0.18627621315E+03  0.12840167623E+03 -0.22389016632E+03  0.34196143732E+03  0.12500000000E+03 0.  0.
         21    1    1    2  503  501  0.23735092881E+02  0.35834811573E+02  0.85904432227E+02  0.96057586013E+02  0.00000000000E+00 0. -1.
          2    1    1    2  501    0  0.16254112027E+03 -0.16423648780E+03 -0.18875624349E+03  0.29836581433E+03  0.00000000000E+00 0. -1.
<mgrwt>
<rscale>  4 0.25979668E+03</rscale>
<asrwt>0</asrwt>
<pdfrwt beam="1">  1       21 0.31510990E-01 0.25979668E+03</pdfrwt>
<pdfrwt beam="2">  1        2 0.81778983E-01 0.25979668E+03</pdfrwt>
<totfact> 0.69222401E+03</totfact>
</mgrwt>
</event>
<event>
 5    0  0.3040647E+000  0.2568473E+03  0.7546771E-02  0.1109052E+00
          1   -1    0    0  502    0 -0.00000000000E+00  0.00000000000E+00  0.62539106827E+03  0.62539106827E+03  0.00000000000E+00 0.  1.
         21   -1    0    0  503  502  0.00000000000E+00 -0.00000000000E+00 -0.11688934086E+03  0.11688934086E+03  0.00000000000E+00 0.  1.
         25    1    1    2    0    0  0.19008006336E+03 -0.11494949052E+03  0.19535106773E+03  0.32113993137E+03  0.12500000000E+03 0.  0.
         21    1    1    2  503  501  0.19015529893E+02  0.27650812589E+02 -0.12684280690E+01  0.33582238217E+02  0.00000000000E+00 0. -1.
          1    1    1    2  501    0 -0.20909559326E+03  0.87298677931E+02  0.31441908775E+03  0.38755823953E+03  0.00000000000E+00 0.  1.
<mgrwt>
<rscale>  4 0.25684730E+03</rscale>
<asrwt>0</asrwt>
<pdfrwt beam="1">  1       21 0.17982976E-01 0.25684730E+03</pdfrwt>
<pdfrwt beam="2">  1        1 0.96214009E-01 0.25684730E+03</pdfrwt>
<totfact> 0.10215525E+04</totfact>
</mgrwt>
</event>
<event>
 5    0  0.3040647E+000  0.2435435E+03  0.7546771E-02  0.1117455E+00
          1   -1    0    0  502    0 -0.00000000000E+00  0.00000000000E+00  0.58700363652E+02  0.58700363652E+02  0.00000000000E+00 0. -1.
         21   -1    0    0  503  502  0.00000000000E+00 -0.00000000000E+00 -0.10669098320E+04  0.10669098320E+04  0.00000000000E+00 0. -1.
         25    1    1    2    0    0 -0.17522015041E+02  0.21071018325E+03 -0.69050603930E+03  0.73289111923E+03  0.12500000000E+03 0.  0.
         21    1    1    2  503  501  0.20687861588E+02 -0.24574165824E+01 -0.44898266584E+02  0.49496271129E+02  0.00000000000E+00 0. -1.
          1    1    1    2  501    0 -0.31658465471E+01 -0.20825276667E+03 -0.27280516250E+03  0.34322280533E+03  0.00000000000E+00 0. -1.
<mgrwt>
<rscale>  4 0.24354350E+03</rscale>
<asrwt>0</asrwt>
<pdfrwt beam="1">  1       21 0.16413998E+00 0.24354350E+03</pdfrwt>
<pdfrwt beam="2">  1        1 0.90308247E-02 0.24354350E+03</pdfrwt>
<totfact> 0.17959388E+03</totfact>
</mgrwt>
</event>
<event>
 5    0  0.3040647E+000  0.3220754E+03  0.7546771E-02  0.1074698E+00
         21   -1    0    0  503  502  0.00000000000E+00  0.00000000000E+00  0.13632873111E+03  0.13632873111E+03  0.00000000000E+00 0. -1.
          1   -1    0    0  502    0 -0.00000000000E+00 -0.00000000000E+00 -0.97370349142E+03  0.97370349142E+03  0.00000000000E+00 0. -1.
         25    1    1    2    0    0 -0.24803005156E+03  0.42514860113E+02 -0.29850984422E+03  0.40995066398E+03  0.12500000000E+03 0.  0.
         21    1    1    2  503  501 -0.85199607605E+02  0.51093429766E+02 -0.97664079218E+02  0.13931182316E+03  0.00000000000E+00 0. -1.
          1    1    1    2  501    0  0.33322965916E+03 -0.93608289879E+02 -0.44120083687E+03  0.56076973539E+03  0.00000000000E+00 0. -1.
<mgrwt>
<rscale>  4 0.32207539E+03</rscale>
<asrwt>0</asrwt>
<pdfrwt beam="1">  1       21 0.20973651E-01 0.32207539E+03</pdfrwt>
<pdfrwt beam="2">  1        1 0.14980054E+00 0.32207539E+03</pdfrwt>
<totfact> 0.38085101E+03</totfact>
</mgrwt>
</event>
<event>
 5    0  0.3040647E+000  0.1894817E+03  0.7546771E-02  0.1158930E+00
          2   -1    0    0  502    0 -0.00000000000E+00  0.00000000000E+00  0.21684446999E+04  0.21684446999E+04  0.00000000000E+00 0.  1.
         21   -1    0    0  503  502  0.00000000000E+00 -0.00000000000E+00 -0.21199311965E+03  0.21199311965E+03  0.00000000000E+00 0.  1.
         25    1    1    2    0    0  0.69700821868E+02 -0.18979899137E+03  0.74729646991E+03  0.78419313669E+03  0.12500000000E+03 0.  0.
         21    1    1    2  503  501  0.31027457085E+01  0.78662593817E+02 -0.18224219238E+03  0.19851863232E+03  0.00000000000E+00 0.  1.
          2    1    1    2  501    0 -0.72803567576E+02  0.11113639756E+03  0.13913973027E+04  0.13977260505E+04  0.00000000000E+00 0.  1.
<mgrwt>
<rscale>  4 0.18948172E+03</rscale>
<asrwt>0</asrwt>
<pdfrwt beam="1">  1       21 0.32614328E-01 0.18948172E+03</pdfrwt>
<pdfrwt beam="2">  1        2 0.33360686E+00 0.18948172E+03</pdfrwt>
<totfact> 0.71393244E+02</totfact>
</mgrwt>
</event>
<event>
 5    0  0.3040647E+000  0.2296869E+03  0.7546771E-02  0.1126860E+00
         21   -1    0    0  503  502  0.00000000000E+00  0.00000000000E+00  0.70864728839E+02  0.70864728839E+02  0.00000000000E+00 0.  1.
          1   -1    0    0  502    0 -0.00000000000E+00 -0.00000000000E+00 -0.11844843748E+04  0.11844843748E+04  0.00000000000E+00 0. -1.
         25    1    1    2    0    0 -0.14184993742E+03  0.14949571661E+03 -0.20952396277E+03  0.31936760168E+03  0.12500000000E+03 0.  0.
         21    1    1    2  503  501  0.26658090855E+02  0.21048628364E+01 -0.25356056426E+02  0.36851239505E+02  0.00000000000E+00 0.  1.
          1    1    1    2  501    0  0.11519184656E+03 -0.15160057945E+03 -0.87873962678E+03  0.89913026246E+03  0.00000000000E+00 0. -1.
<mgrwt>
<rscale>  4 0.22968693E+03</rscale>
<asrwt>0</asrwt>
<pdfrwt beam="1">  1       21 0.10902265E-01 0.22968693E+03</pdfrwt>
<pdfrwt beam="2">  1        1 0.18222838E+00 0.22968693E+03</pdfrwt>
<totfact> 0.91239465E+03</totfact>
</mgrwt>
</event>
<event>
 5    0  0.3040647E+000  0.2198521E+03  0.7546771E-02  0.1133993E+00
          2   -1    0    0  502    0 -0.00000000000E+00  0.00000000000E+00  0.10399714778E+04  0.10399714778E+04  0.00000000000E+00 0. -1.
         21   -1    0    0  503  502  0.00000000000E+00 -0.00000000000E+00 -0.12274990085E+04  0.12274990085E+04  0.00000000000E+00 0. -1.
         25    1    1    2    0    0 -0.22199835742E+03 -0.77617563022E+02  0.19073684057E+03  0.32758708634E+03  0.12500000000E+03 0.  0.
         21    1    1    2  503  501  0.50705988708E+02  0.49378904994E+02 -0.11483210888E+04  0.11505001941E+04  0.00000000000E+00 0. -1.
          2    1    1    2  501    0  0.17129236871E+03  0.28238658028E+02  0.77005671758E+03  0.78938320585E+03  0.00000000000E+00 0. -1.
<mgrwt>
<rscale>  4 0.21985210E+03</rscale>
<asrwt>0</asrwt>
<pdfrwt beam="1">  1       21 0.18884600E+00 0.21985210E+03</pdfrwt>
<pdfrwt beam="2">  1        2 0.15999561E+00 0.21985210E+03</pdfrwt>
<totfact> 0.48731582E+01</totfact>
</mgrwt>
</event>
<event>
 5    0  0.3040647E+000  0.2467858E+03  0.7546771E-02  0.1115353E+00
         21   -1    0    0  503  502  0.00000000000E+00  0.00000000000E+00  0.40059915092E+03  0.40059915092E+03  0.00000000000E+00 0.  1.
          2   -1    0    0  502    0 -0.00000000000E+00 -0.00000000000E+00 -0.10476453502E+04  0.10476453502E+04  0.00000000000E+00 0.  1.
         25    1    1    2    0    0  0.43836628153E+02 -0.23760155743E+03  0.19017812298E+03  0.33191696028E+03  0.12500000000E+03 0.  0.
         21    1    1    2  503  501 -0.28328281553E+02  0.26592635151E+02  0.12511234500E+03  0.13100671224E+03  0.00000000000E+00 0.  1.
          2    1    1    2  501    0 -0.15508346600E+02  0.21100892228E+03 -0.96233666730E+03  0.98532082863E+03  0.00000000000E+00 0.  1.
<mgrwt>
<rscale>  4 0.24678579E+03</rscale>
<asrwt>0</asrwt>
<pdfrwt beam="1">  1       21 0.61630639E-01 0.24678579E+03</pdfrwt>
<pdfrwt beam="2">  1        2 0.16117621E+00 0.24678579E+03</pdfrwt>
<totfact> 0.74109787E+02</totfact>
</mgrwt>
</event>
<event>
 5    0  0.3040647E+000  0.2437938E+03  0.7546771E-02  0.1117291E+00
         21   -1    0    0  501  502  0.00000000000E+00  0.00000000000E+00  0.22858846269E+02  0.22858846269E+02  0.00000000000E+00 0. -1.
         -1   -1    0    0    0  501 -0.00000000000E+00 -0.00000000000E+00 -0.28229572223E+04  0.28229572223E+04  0.00000000000E+00 0. -1.
         25    1    1    2    0    0 -0.93341392457E+02  0.18734404350E+03 -0.20826545046E+04  0.20968751016E+04  0.12500000000E+03 0.  0.
         21    1    1    2  503  502  0.14001363915E+02 -0.60225689333E+02 -0.15498614660E+03  0.16686484796E+03  0.00000000000E+00 0. -1.
         -1    1    1    2    0  503  0.79340028542E+02 -0.12711835416E+03 -0.56245772476E+03  0.58207611893E+03  0.00000000000E+00 0. -1.
<mgrwt>
<rscale>  4 0.24379378E+03</rscale>
<asrwt>0</asrwt>
<pdfrwt beam="1">  1       21 0.35167442E-02 0.24379378E+03</pdfrwt>
<pdfrwt beam="2">  1       -1 0.43430128E+00 0.24379378E+03</pdfrwt>
<totfact> 0.23835913E+02</totfact>
</mgrwt>
</event>
<event>
 5    0  0.3040647E+000  0.3106838E+03  0.7546771E-02  0.1080019E+00
         21   -1    0    0  503  502  0.00000000000E+00  0.00000000000E+00  0.13088896541E+04  0.13088896541E+04  0.00000000000E+00 0. -1.
          2   -1    0    0  502    0 -0.00000000000E+00 -0.00000000000E+00 -0.18114062975E+03  0.18114062975E+03  0.00000000000E+00 0. -1.
         25    1    1    2    0    0  0.15563855208E+03  0.25841100779E+03  0.89427381302E+03  0.95202429616E+03  0.12500000000E+03 0.  0.
         21    1    1    2  503  501  0.73881992775E+01 -0.28214450095E+02  0.25354275541E+03  0.25521475173E+03  0.00000000000E+00 0. -1.
          2    1    1    2  501    0 -0.16302675136E+03 -0.23019655769E+03 -0.20067544038E+02  0.28279123599E+03  0.00000000000E+00 0. -1.
<mgrwt>
<rscale>  4 0.31068383E+03</rscale>
<asrwt>0</asrwt>
<pdfrwt beam="1">  1       21 0.20136763E+00 0.31068383E+03</pdfrwt>
<pdfrwt beam="2">  1        2 0.27867790E-01 0.31068383E+03</pdfrwt>
<totfact> 0.28598060E+02</totfact>
</mgrwt>
</event>
<event>
 5    0  0.3040647E+000  0.1984086E+03  0.7546771E-02  0.1151089E+00
         21   -1    0    0  503  502  0.00000000000E+00  0.00000000000E+00  0.24310311265E+03  0.24310311265E+03  0.00000000000E+00 0.  1.
          1   -1    0    0  502    0 -0.00000000000E+00 -0.00000000000E+00 -0.32518737106E+03  0.32518737106E+03  0.00000000000E+00 0.  1.
         25    1    1    2    0    0 -0.14716435492E+03  0.15542215368E+03 -0.61148103865E+01  0.24794310662E+03  0.12500000000E+03 0.  0.
         21    1    1    2  503  501  0.10600750700E+03 -0.18375715847E+02  0.59802755939E+02  0.12309194974E+03  0.00000000000E+00 0.  1.
          1    1    1    2  501    0  0.41156847916E+02 -0.13704643783E+03 -0.13577220396E+03  0.19725542736E+03  0.00000000000E+00 0.  1.
<mgrwt>
<rscale>  4 0.19840865E+03</rscale>
<asrwt>0</asrwt>
<pdfrwt beam="1">  1       21 0.37400479E-01 0.19840865E+03</pdfrwt>
<pdfrwt beam="2">  1        1 0.50028826E-01 0.19840865E+03</pdfrwt>
<totfact> 0.59599790E+03</totfact>
</mgrwt>
</event>
<event>
 5    0  0.3040647E+000  0.2324865E+03  0.7546771E-02  0.1124902E+00
         -1   -1    0    0    0  501 -0.00000000000E+00  0.00000000000E+00  0.76851982642E+03  0.76851982642E+03  0.00000000000E+00 0.  1.
         21   -1    0    0  501  502  0.00000000000E+00 -0.00000000000E+00 -0.85036005184E+02  0.85036005184E+02  0.00000000000E+00 0.  1.
         25    1    1    2    0    0  0.16332947872E+03 -0.11878930044E+03  0.19020190603E+03  0.30428470480E+03  0.12500000000E+03 0.  0.
         21    1    1    2  503  502 -0.42253072375E+02 -0.26707507693E+02  0.74712307889E+02  0.89891835238E+02  0.00000000000E+00 0.  1.
         -1    1    1    2    0  503 -0.12107640634E+03  0.14549680814E+03  0.41856960732E+03  0.45937929157E+03  0.00000000000E+00 0.  1.
<mgrwt>
<rscale>  4 0.23248645E+03</rscale>
<asrwt>0</asrwt>
<pdfrwt beam="1">  1       21 0.13082463E-01 0.23248645E+03</pdfrwt>
<pdfrwt beam="2">  1       -1 0.11823382E+00 0.23248645E+03</pdfrwt>
<totfact> 0.32115613E+03</totfact>
</mgrwt>
</event>
<event>
 5    0  0.3040647E+000  0.2360407E+03  0.7546771E-02  0.1122459E+00
         -1   -1    0    0    0  501 -0.00000000000E+00  0.00000000000E+00  0.64992684693E+02  0.64992684693E+02  0.00000000000E+00 0. -1.
         21   -1    0    0  501  502  0.00000000000E+00 -0.00000000000E+00 -0.17263104660E+04  0.17263104660E+04  0.00000000000E+00 0. -1.
         25    1    1    2    0    0  0.59370186485E+02 -0.21645985069E+03 -0.11590040528E+04  0.11871373469E+04  0.12500000000E+03 0.  0.
         21    1    1    2  503  502 -0.12491939026E+02  0.25854348397E+02 -0.36139426201E+03  0.36253318260E+03  0.00000000000E+00 0. -1.
         -1    1    1    2    0  503 -0.46878247459E+02  0.19060550229E+03 -0.14091946652E+03  0.24163262121E+03  0.00000000000E+00 0. -1.
<mgrwt>
<rscale>  4 0.23604067E+03</rscale>
<asrwt>0</asrwt>
<pdfrwt beam="1">  1       21 0.26558625E+00 0.23604067E+03</pdfrwt>
<pdfrwt beam="2">  1       -1 0.99988735E-02 0.23604067E+03</pdfrwt>
<totfact> 0.28371525E+02</totfact>
</mgrwt>
</event>
<event>
 5    0  0.3040647E+000  0.3077250E+03  0.7546771E-02  0.1081441E+00
         21   -1    0    0  503  502  0.00000000000E+00  0.00000000000E+00  0.18820510367E+03  0.18820510367E+03  0.00000000000E+00 0.  1.
          2   -1    0    0  502    0 -0.00000000000E+00 -0.00000000000E+00 -0.27198916252E+04  0.27198916252E+04  0.00000000000E+00 0. -1.
         25    1    1    2    0    0  0.55597485256E+02 -0.29540288435E+03 -0.73287891337E+02  0.33369156338E+03  0.12500000000E+03 0.  0.
         21    1    1    2  503  501  0.36708721467E+02  0.30826831426E+02  0.38715752092E+02  0.61617637309E+02  0.00000000000E+00 0.  1.
          2    1    1    2  501    0 -0.92306206722E+02  0.26457605293E+03 -0.24971143823E+04  0.25127875282E+04  0.00000000000E+00 0. -1.
<mgrwt>
<rscale>  4 0.30772496E+03</rscale>
<asrwt>0</asrwt>
<pdfrwt beam="1">  1       21 0.28954630E-01 0.30772496E+03</pdfrwt>
<pdfrwt beam="2">  1        2 0.41844488E+00 0.30772496E+03</pdfrwt>
<totfact> 0.41872735E+02</totfact>
</mgrwt>
</event>
<event>
 5    0  0.3040647E+000  0.2892316E+03  0.7546771E-02  0.1090751E+00
         21   -1    0    0  503  502  0.00000000000E+00  0.00000000000E+00  0.60618698865E+03  0.60618698865E+03  0.00000000000E+00 0.  1.
          2   -1    0    0  502    0 -0.00000000000E+00 -0.00000000000E+00 -0.23882945423E+03  0.23882945423E+03  0.00000000000E+00 0.  1.
         25    1    1    2    0    0 -0.18250932072E+03  0.22179359950E+03  0.39670222022E+03  0.50546978589E+03  0.12500000000E+03 0.  0.
         21    1    1    2  503  501  0.36102337535E+02 -0.12252085786E+02  0.58004893008E+02  0.69412246718E+02  0.00000000000E+00 0. -1.
          2    1    1    2  501    0  0.14640698318E+03 -0.20954151371E+03 -0.87349578802E+02  0.27013441026E+03  0.00000000000E+00 0.  1.
<mgrwt>
<rscale>  4 0.28923159E+03</rscale>
<asrwt>0</asrwt>
<pdfrwt beam="1">  1       21 0.93259537E-01 0.28923159E+03</pdfrwt>
<pdfrwt beam="2">  1        2 0.36742993E-01 0.28923159E+03</pdfrwt>
<totfact> 0.16149180E+03</totfact>
</mgrwt>
</event>
<event>
 5    0  0.3040647E+000  0.2601799E+03  0.7546771E-02  0.1107035E+00
          2   -1    0    0  502    0 -0.00000000000E+00  0.00000000000E+00  0.15996143133E+04  0.15996143133E+04  0.00000000000E+00 0.  1.
         21   -1    0    0  503  502  0.00000000000E+00 -0.00000000000E+00 -0.96303386013E+02  0.96303386013E+02  0.00000000000E+00 0.  1.
         25    1    1    2    0    0 -0.19479866672E+03 -0.11847613436E+03  0.55599561160E+03  0.61379087243E+03  0.12500000000E+03 0.  0.
         21    1    1    2  503  501 -0.22543781707E+02  0.43501576400E+02 -0.43174237881E+02  0.65304089149E+02  0.00000000000E+00 0. -1.
          2    1    1    2  501    0  0.21734244843E+03  0.74974557959E+02  0.99048955361E+03  0.10168227378E+04  0.00000000000E+00 0.  1.
<mgrwt>
<rscale>  4 0.26017988E+03</rscale>
<asrwt>0</asrwt>
<pdfrwt beam="1">  1       21 0.14815907E-01 0.26017988E+03</pdfrwt>
<pdfrwt beam="2">  1        2 0.24609449E+00 0.26017988E+03</pdfrwt>
<totfact> 0.60779645E+03</totfact>
</mgrwt>
</event>
<event>
 5    0  0.3040647E+000  0.2521047E+03  0.7546771E-02  0.1111982E+00
         21   -1    0    0  503  502  0.00000000000E+00  0.00000000000E+00  0.16207911458E+03  0.16207911458E+03  0.00000000000E+00 0.  1.
          1   -1    0    0  502    0 -0.00000000000E+00 -0.00000000000E+00 -0.10549114682E+04  0.10549114682E+04  0.00000000000E+00 0. -1.
         25    1    1    2    0    0 -0.82203914914E+02  0.22844372721E+03 -0.59189336568E+02  0.27941438347E+03  0.12500000000E+03 0.  0.
         21    1    1    2  503  501 -0.24190657480E+02 -0.40012819788E+02  0.24348762861E+02  0.52716941390E+02  0.00000000000E+00 0.  1.
          1    1    1    2  501    0  0.10639457239E+03 -0.18843090742E+03 -0.85799177994E+03  0.88485925793E+03  0.00000000000E+00 0. -1.
<mgrwt>
<rscale>  4 0.25210472E+03</rscale>
<asrwt>0</asrwt>
<pdfrwt beam="1">  1       21 0.24935248E-01 0.25210472E+03</pdfrwt>
<pdfrwt beam="2">  1        1 0.16229407E+00 0.25210472E+03</pdfrwt>
<totfact> 0.24315681E+03</totfact>
</mgrwt>
</event>
<event>
 5    0  0.3040647E+000  0.3717674E+03  0.7546771E-02  0.1054019E+00
          3   -1    0    0  502    0 -0.00000000000E+00  0.00000000000E+00  0.33416721627E+03  0.33416721627E+03  0.00000000000E+00 0. -1.
         21   -1    0    0  503  502  0.00000000000E+00 -0.00000000000E+00 -0.43969148847E+03  0.43969148847E+03  0.00000000000E+00 0. -1.
         25    1    1    2    0    0 -0.12385105976E+03 -0.33825288826E+03 -0.83999467644E+02  0.39042926630E+03  0.12500000000E+03 0.  0.
         21    1    1    2  503  501  0.36312870977E+02  0.62561662992E+01 -0.15655652144E+02  0.40035779740E+02  0.00000000000E+00 0. -1.
          3    1    1    2  501    0  0.87538188784E+02  0.33199672196E+03 -0.58691524140E+01  0.34339365870E+03  0.00000000000E+00 0. -1.
<mgrwt>
<rscale>  4 0.37176741E+03</rscale>
<asrwt>0</asrwt>
<pdfrwt beam="1">  1       21 0.67644843E-01 0.37176741E+03</pdfrwt>
<pdfrwt beam="2">  1        3 0.51410342E-01 0.37176741E+03</pdfrwt>
<totfact> 0.36033392E+02</totfact>
</mgrwt>
</event>
<event>
 5    0  0.3040647E+000  0.2160803E+03  0.7546771E-02  0.1136840E+00
         -3   -1    0    0    0  501 -0.00000000000E+00  0.00000000000E+00  0.42991843995E+02  0.42991843995E+02  0.00000000000E+00 0.  1.
         21   -1    0    0  501  502  0.00000000000E+00 -0.00000000000E+00 -0.16465555843E+04  0.16465555843E+04  0.00000000000E+00 0.  1.
         25    1    1    2    0    0 -0.14663972164E+03 -0.17086274869E+03 -0.56221438737E+03  0.61839089920E+03  0.12500000000E+03 0.  0.
         21    1    1    2  503  502  0.94788962666E+02  0.13356472981E+03 -0.91540962946E+03  0.92994584477E+03  0.00000000000E+00 0.  1.
         -3    1    1    2    0  503  0.51850758973E+02  0.37298018880E+02 -0.12593972349E+03  0.14121068433E+03  0.00000000000E+00 0.  1.
<mgrwt>
<rscale>  4 0.21608032E+03</rscale>
<asrwt>0</asrwt>
<pdfrwt beam="1">  1       21 0.25331621E+00 0.21608032E+03</pdfrwt>
<pdfrwt beam="2">  1       -3 0.66141308E-02 0.21608032E+03</pdfrwt>
<totfact> 0.44964268E+02</totfact>
</mgrwt>
</event>
<event>
 5    0  0.3040647E+000  0.2716310E+03  0.7546771E-02  0.1100350E+00
         21   -1    0    0  503  502  0.00000000000E+00  0.00000000000E+00  0.19195301762E+03  0.19195301762E+03  0.00000000000E+00 0. -1.
          1   -1    0    0  502    0 -0.00000000000E+00 -0.00000000000E+00 -0.50011812313E+03  0.50011812313E+03  0.00000000000E+00 0.  1.
         25    1    1    2    0    0 -0.17088365473E+03  0.14765263693E+03 -0.32959762220E+03  0.41864318603E+03  0.12500000000E+03 0.  0.
         21    1    1    2  503  501  0.17894716160E+03 -0.16898014659E+03  0.65692842823E+01  0.24621034114E+03  0.00000000000E+00 0. -1.
          1    1    1    2  501    0 -0.80635068754E+01  0.21327509656E+02  0.14863232411E+02  0.27217613579E+02  0.00000000000E+00 0.  1.
<mgrwt>
<rscale>  4 0.27163104E+03</rscale>
<asrwt>0</asrwt>
<pdfrwt beam="1">  1       21 0.29531234E-01 0.27163104E+03</pdfrwt>
<pdfrwt beam="2">  1        1 0.76941249E-01 0.27163104E+03</pdfrwt>
<totfact> 0.53651080E+03</totfact>
</mgrwt>
</event>
<event>
 5    0  0.3040647E+000  0.3464178E+03  0.7546771E-02  0.1064095E+00
         -3   -1    0    0    0  501 -0.00000000000E+00  0.00000000000E+00  0.12198737253E+04  0.12198737253E+04  0.00000000000E+00 0.  1.
         21   -1    0    0  501  502  0.00000000000E+00 -0.00000000000E+00 -0.18637434992E+03  0.18637434992E+03  0.00000000000E+00 0.  1.
         25    1    1    2    0    0  0.36505281119E+03 -0.14882373973E+03  0.22508055252E+03  0.47084850599E+03  0.12500000000E+03 0.  0.
         21    1    1    2  503  502 -0.78753571190E+02  0.39560202483E+02  0.21208068090E+02  0.90647210370E+02  0.00000000000E+00 0.  1.
         -3    1    1    2    0  503 -0.28629924000E+03  0.10926353725E+03  0.78721075479E+03  0.84475235890E+03  0.00000000000E+00 0.  1.
<mgrwt>
<rscale>  4 0.34641782E+03</rscale>
<asrwt>0</asrwt>
<pdfrwt beam="1">  1       21 0.28672978E-01 0.34641782E+03</pdfrwt>
<pdfrwt beam="2">  1       -3 0.18767288E+00 0.34641782E+03</pdfrwt>
<totfact> 0.10513763E+02</totfact>
</mgrwt>
</event>
<event>
 5    0  0.3040647E+000  0.2438077E+03  0.7546771E-02  0.1117282E+00
          2   -1    0    0  502    0 -0.00000000000E+00  0.00000000000E+00  0.10576728485E+04  0.10576728485E+04  0.00000000000E+00 0.  1.
         21   -1    0    0  503  502  0.00000000000E+00 -0.00000000000E+00 -0.42254487803E+03  0.42254487803E+03  0.00000000000E+00 0.  1.
         25    1    1    2    0    0  0.47935927534E+02  0.21945584698E+03 -0.23587482376E+03  0.34888487271E+03  0.12500000000E+03 0.  0.
         21    1    1    2  503  501  0.21739072841E+02 -0.22605378389E+02 -0.11719213213E+03  0.12131605934E+03  0.00000000000E+00 0.  1.
          2    1    1    2  501    0 -0.69675000375E+02 -0.19685046859E+03  0.98819492636E+03  0.10100167945E+04  0.00000000000E+00 0.  1.
<mgrwt>
<rscale>  4 0.24380766E+03</rscale>
<asrwt>0</asrwt>
<pdfrwt beam="1">  1       21 0.65006905E-01 0.24380766E+03</pdfrwt>
<pdfrwt beam="2">  1        2 0.16271890E+00 0.24380766E+03</pdfrwt>
<totfact> 0.65170478E+02</totfact>
</mgrwt>
</event>
<event>
 5    0  0.3040647E+000  0.2562161E+03  0.7546771E-02  0.1109438E+00
         21   -1    0    0  503  502  0.00000000000E+00  0.00000000000E+00  0.20964481914E+03  0.20964481914E+03  0.00000000000E+00 0.  1.
          1   -1    0    0  502    0 -0.00000000000E+00 -0.00000000000E+00 -0.61181211458E+03  0.61181211458E+03  0.00000000000E+00 0.  1.
         25    1    1    2    0    0 -0.22736631172E+03 -0.55861533298E+02  0.47446395120E+02  0.26961474555E+03  0.12500000000E+03 0.  0.
         21    1    1    2  503  501  0.51248663607E+01  0.44407918792E+02  0.56908822379E+01  0.45063440251E+02  0.00000000000E+00 0. -1.
          1    1    1    2  501    0  0.22224144536E+03  0.11453614506E+02 -0.45530457280E+03  0.50677874791E+03  0.00000000000E+00 0.  1.
<mgrwt>
<rscale>  4 0.25621607E+03</rscale>
<asrwt>0</asrwt>
<pdfrwt beam="1">  1       21 0.32253049E-01 0.25621607E+03</pdfrwt>
<pdfrwt beam="2">  1        1 0.94124940E-01 0.25621607E+03</pdfrwt>
<totfact> 0.34387451E+03</totfact>
</mgrwt>
</event>
<event>
 5    0  0.3040647E+000  0.3034579E+03  0.7546771E-02  0.1083525E+00
         21   -1    0    0  503  502  0.00000000000E+00  0.00000000000E+00  0.63002956377E+03  0.63002956377E+03  0.00000000000E+00 0.  1.
          2   -1    0    0  502    0 -0.00000000000E+00 -0.00000000000E+00 -0.10977283873E+04  0.10977283873E+04  0.00000000000E+00 0. -1.
         25    1    1    2    0    0  0.23636190095E+03  0.14048986580E+03  0.52306969388E+03  0.60401262840E+03  0.12500000000E+03 0.  0.
         21    1    1    2  503  501 -0.10889023517E+02  0.19719704800E+02  0.45729308765E+02  0.50976536472E+02  0.00000000000E+00 0. -1.
          2    1    1    2  501    0 -0.22547287743E+03 -0.16020957060E+03 -0.10364978262E+04  0.10727687862E+04  0.00000000000E+00 0. -1.
<mgrwt>
<rscale>  4 0.30345793E+03</rscale>
<asrwt>0</asrwt>
<pdfrwt beam="1">  1       21 0.96927626E-01 0.30345793E+03</pdfrwt>
<pdfrwt beam="2">  1        2 0.16888129E+00 0.30345793E+03</pdfrwt>
<totfact> 0.24050968E+02</totfact>
</mgrwt>
</event>
<event>
 5    0  0.3040647E+000  0.2078626E+03  0.7546771E-02  0.1143270E+00
          2   -1    0    0  502    0 -0.00000000000E+00  0.00000000000E+00  0.11303747054E+04  0.11303747054E+04  0.00000000000E+00 0.  1.
         21   -1    0    0  503  502  0.00000000000E+00 -0.00000000000E+00 -0.71062722141E+03  0.71062722141E+03  0.00000000000E+00 0. -1.
         25    1    1    2    0    0 -0.85840625652E+02  0.22206805631E+03  0.84518859073E+03  0.88693381295E+03  0.12500000000E+03 0.  0.
         21    1    1    2  503  501  0.29155491910E+02 -0.16270446076E+03 -0.67313257434E+03  0.69313075743E+03  0.00000000000E+00 0. -1.
          2    1    1    2  501    0  0.56685133742E+02 -0.59363595551E+02  0.24769146761E+03  0.26093735645E+03  0.00000000000E+00 0.  1.
<mgrwt>
<rscale>  4 0.20786263E+03</rscale>
<asrwt>0</asrwt>
<pdfrwt beam="1">  1       21 0.10932726E+00 0.20786263E+03</pdfrwt>
<pdfrwt beam="2">  1        2 0.17390380E+00 0.20786263E+03</pdfrwt>
<totfact> 0.18308444E+02</totfact>
</mgrwt>
</event>
<event>
 5    0  0.3040647E+000  0.3072993E+03  0.7546771E-02  0.1081648E+00
         21   -1    0    0  503  502  0.00000000000E+00  0.00000000000E+00  0.50120295085E+03  0.50120295085E+03  0.00000000000E+00 0. -1.
          3   -1    0    0  502    0 -0.00000000000E+00 -0.00000000000E+00 -0.18592015118E+03  0.18592015118E+03  0.00000000000E+00 0. -1.
         25    1    1    2    0    0 -0.28579374013E+02 -0.27926880051E+03  0.19577091216E+03  0.36436121309E+03  0.12500000000E+03 0.  0.
         21    1    1    2  503  501  0.64812523678E+02  0.12014968796E+03  0.50050008924E+02  0.14540156167E+03  0.00000000000E+00 0. -1.
          3    1    1    2  501    0 -0.36233149664E+02  0.15911911255E+03  0.69461878584E+02  0.17736032727E+03  0.00000000000E+00 0. -1.
<mgrwt>
<rscale>  4 0.30729927E+03</rscale>
<asrwt>0</asrwt>
<pdfrwt beam="1">  1       21 0.77108146E-01 0.30729927E+03</pdfrwt>
<pdfrwt beam="2">  1        3 0.28603100E-01 0.30729927E+03</pdfrwt>
<totfact> 0.85023424E+02</totfact>
</mgrwt>
</event>
<event>
 5    0  0.3040647E+000  0.2698124E+03  0.7546771E-02  0.1101387E+00
          2   -1    0    0  502    0 -0.00000000000E+00  0.00000000000E+00  0.75173967776E+03  0.75173967776E+03  0.00000000000E+00 0. -1.
         21   -1    0    0  503  502  0.00000000000E+00 -0.00000000000E+00 -0.22675282336E+03  0.22675282336E+03  0.00000000000E+00 0. -1.
         25    1    1    2    0    0  0.21316080689E+03  0.84537760390E+02  0.87061458539E+02  0.27529776622E+03  0.12500000000E+03 0.  0.
         21    1    1    2  503  501  0.22797670502E+01  0.25721918054E+02 -0.10534071449E+03  0.10845958019E+03  0.00000000000E+00 0. -1.
          2    1    1    2  501    0 -0.21544057394E+03 -0.11025967844E+03  0.54326611035E+03  0.59473515470E+03  0.00000000000E+00 0. -1.
<mgrwt>
<rscale>  4 0.26981242E+03</rscale>
<asrwt>0</asrwt>
<pdfrwt beam="1">  1       21 0.34885050E-01 0.26981242E+03</pdfrwt>
<pdfrwt beam="2">  1        2 0.11565226E+00 0.26981242E+03</pdfrwt>
<totfact> 0.37394679E+03</totfact>
</mgrwt>
</event>
<event>
 5    0  0.3040647E+000  0.3902280E+03  0.7546771E-02  0.1047217E+00
         21   -1    0    0  503  502  0.00000000000E+00  0.00000000000E+00  0.42386386988E+03  0.42386386988E+03  0.00000000000E+00 0.  1.
          2   -1    0    0  502    0 -0.00000000000E+00 -0.00000000000E+00 -0.42484290582E+03  0.42484290582E+03  0.00000000000E+00 0.  1.
         25    1    1    2    0    0 -0.84995996127E+02 -0.36423527382E+03  0.16562923967E+03  0.42772619640E+03  0.12500000000E+03 0.  0.
         21    1    1    2  503  501  0.62730523032E+02  0.35563736700E+03 -0.14628020503E+03  0.38962925161E+03  0.00000000000E+00 0.  1.
          2    1    1    2  501    0  0.22265473094E+02  0.85979068201E+01 -0.20328070579E+02  0.31351327679E+02  0.00000000000E+00 0.  1.
<mgrwt>
<rscale>  4 0.39022795E+03</rscale>
<asrwt>0</asrwt>
<pdfrwt beam="1">  1       21 0.65209826E-01 0.39022795E+03</pdfrwt>
<pdfrwt beam="2">  1        2 0.65360447E-01 0.39022795E+03</pdfrwt>
<totfact> 0.18963484E+03</totfact>
</mgrwt>
</event>
<event>
 5    0  0.3040647E+000  0.2423748E+03  0.7546771E-02  0.1118221E+00
         -1   -1    0    0    0  501 -0.00000000000E+00  0.00000000000E+00  0.75608669215E+03  0.75608669215E+03  0.00000000000E+00 0. -1.
         21   -1    0    0  501  502  0.00000000000E+00 -0.00000000000E+00 -0.11139966439E+03  0.11139966439E+03  0.00000000000E+00 0. -1.
         25    1    1    2    0    0  0.16495072203E+03  0.14562206819E+03  0.46001638750E+03  0.52502819373E+03  0.12500000000E+03 0.  0.
         21    1    1    2  503  502 -0.12413877077E+03 -0.16321553160E+03  0.65495412223E+02  0.21526586628E+03  0.00000000000E+00 0. -1.
         -1    1    1    2    0  503 -0.40811951265E+02  0.17593463416E+02  0.11917522803E+03  0.12719229653E+03  0.00000000000E+00 0. -1.
<mgrwt>
<rscale>  4 0.24237483E+03</rscale>
<asrwt>0</asrwt>
<pdfrwt beam="1">  1       21 0.17138410E-01 0.24237483E+03</pdfrwt>
<pdfrwt beam="2">  1       -1 0.11632103E+00 0.24237483E+03</pdfrwt>
<totfact> 0.20310820E+03</totfact>
</mgrwt>
</event>
<event>
 5    0  0.3040647E+000  0.2243525E+03  0.7546771E-02  0.1130679E+00
         -1   -1    0    0    0  501 -0.00000000000E+00  0.00000000000E+00  0.36069689600E+03  0.36069689600E+03  0.00000000000E+00 0.  1.
         21   -1    0    0  501  502  0.00000000000E+00 -0.00000000000E+00 -0.67825368739E+03  0.67825368739E+03  0.00000000000E+00 0.  1.
         25    1    1    2    0    0  0.35059531992E+02  0.21123031146E+03 -0.21749384486E+03  0.32981204923E+03  0.12500000000E+03 0.  0.
         21    1    1    2  503  502 -0.19368573060E+02 -0.28356727585E+02 -0.37609145672E+03  0.37765596704E+03  0.00000000000E+00 0.  1.
         -1    1    1    2    0  503 -0.15690958931E+02 -0.18287358387E+03  0.27602851019E+03  0.33148256713E+03  0.00000000000E+00 0.  1.
<mgrwt>
<rscale>  4 0.22435246E+03</rscale>
<asrwt>0</asrwt>
<pdfrwt beam="1">  1       21 0.10434672E+00 0.22435246E+03</pdfrwt>
<pdfrwt beam="2">  1       -1 0.55491831E-01 0.22435246E+03</pdfrwt>
<totfact> 0.22779914E+02</totfact>
</mgrwt>
</event>
<event>
 5    0  0.3040647E+000  0.1898789E+03  0.7546771E-02  0.1158571E+00
         21   -1    0    0  503  502  0.00000000000E+00  0.00000000000E+00  0.54035112830E+02  0.54035112830E+02  0.00000000000E+00 0. -1.
          2   -1    0    0  502    0 -0.00000000000E+00 -0.00000000000E+00 -0.14959406352E+04  0.14959406352E+04  0.00000000000E+00 0. -1.
         25    1    1    2    0    0  0.16678936997E+03  0.11714646042E+03 -0.30942787744E+03  0.39104040515E+03  0.12500000000E+03 0.  0.
         21    1    1    2  503  501 -0.53853729668E+02 -0.41173349778E+02 -0.12405824451E+03  0.14137155641E+03  0.00000000000E+00 0. -1.
          2    1    1    2  501    0 -0.11293564030E+03 -0.75973110641E+02 -0.10084194004E+04  0.10175637864E+04  0.00000000000E+00 0. -1.
<mgrwt>
<rscale>  4 0.18987886E+03</rscale>
<asrwt>0</asrwt>
<pdfrwt beam="1">  1       21 0.83130947E-02 0.18987886E+03</pdfrwt>
<pdfrwt beam="2">  1        2 0.23014470E+00 0.18987886E+03</pdfrwt>
<totfact> 0.19811058E+04</totfact>
</mgrwt>
</event>
<event>
 5    0  0.3040647E+000  0.2640353E+03  0.7546771E-02  0.1104743E+00
         -1   -1    0    0    0  501 -0.00000000000E+00  0.00000000000E+00  0.86300918028E+03  0.86300918028E+03  0.00000000000E+00 0.  1.
         21   -1    0    0  501  502  0.00000000000E+00 -0.00000000000E+00 -0.10940217707E+03  0.10940217707E+03  0.00000000000E+00 0.  1.
         25    1    1    2    0    0  0.10365882863E+03  0.23678168744E+03  0.20569599881E+03  0.35319479637E+03  0.12500000000E+03 0.  0.
         21    1    1    2  503  502 -0.45168470338E+02 -0.19609157959E+02  0.38977419498E+02  0.62800867982E+02  0.00000000000E+00 0.  1.
         -1    1    1    2    0  503 -0.58490358296E+02 -0.21717252948E+03  0.50893358490E+03  0.55641569300E+03  0.00000000000E+00 0.  1.
<mgrwt>
<rscale>  4 0.26403534E+03</rscale>
<asrwt>0</asrwt>
<pdfrwt beam="1">  1       21 0.16831105E-01 0.26403534E+03</pdfrwt>
<pdfrwt beam="2">  1       -1 0.13277064E+00 0.26403534E+03</pdfrwt>
<totfact> 0.15164299E+03</totfact>
</mgrwt>
</event>
<event>
 5    0  0.3040647E+000  0.2115333E+03  0.7546771E-02  0.1140357E+00
         21   -1    0    0  503  502  0.00000000000E+00  0.00000000000E+00  0.46011044755E+03  0.46011044755E+03  0.00000000000E+00 0.  1.
          1   -1    0    0  502    0 -0.00000000000E+00 -0.00000000000E+00 -0.19461880555E+03  0.19461880555E+03  0.00000000000E+00 0. -1.
         25    1    1    2    0    0  0.20387656641E+03 -0.80730231000E+02  0.23400247950E+03  0.34418771759E+03  0.12500000000E+03 0.  0.
         21    1    1    2  503  501 -0.53385381619E+02  0.19925624092E+02  0.11475132869E+03  0.12812063418E+03  0.00000000000E+00 0.  1.
          1    1    1    2  501    0 -0.15049118479E+03  0.60804606908E+02 -0.83262166203E+02  0.18242090133E+03  0.00000000000E+00 0. -1.
<mgrwt>
<rscale>  4 0.21153334E+03</rscale>
<asrwt>0</asrwt>
<pdfrwt beam="1">  1       21 0.70786222E-01 0.21153334E+03</pdfrwt>
<pdfrwt beam="2">  1        1 0.29941355E-01 0.21153334E+03</pdfrwt>
<totfact> 0.29561495E+03</totfact>
</mgrwt>
</event>
<event>
 5    0  0.3040647E+000  0.2291628E+03  0.7546771E-02  0.1127230E+00
         21   -1    0    0  503  502  0.00000000000E+00  0.00000000000E+00  0.44725975751E+03  0.44725975751E+03  0.00000000000E+00 0. -1.
          2   -1    0    0  502    0 -0.00000000000E+00 -0.00000000000E+00 -0.81405914951E+03  0.81405914951E+03  0.00000000000E+00 0.  1.
         25    1    1    2    0    0 -0.11744702757E+03 -0.17597162803E+03  0.38118315206E+03  0.45352553795E+03  0.12500000000E+03 0.  0.
         21    1    1    2  503  501  0.11490473578E+02  0.16437698943E+02  0.12456261000E+02  0.23609052664E+02  0.00000000000E+00 0. -1.
          2    1    1    2  501    0  0.10595655399E+03  0.15953392909E+03 -0.76043880506E+03  0.78418431641E+03  0.00000000000E+00 0.  1.
<mgrwt>
<rscale>  4 0.22916283E+03</rscale>
<asrwt>0</asrwt>
<pdfrwt beam="1">  1       21 0.68809195E-01 0.22916283E+03</pdfrwt>
<pdfrwt beam="2">  1        2 0.12523987E+00 0.22916283E+03</pdfrwt>
<totfact> 0.82736460E+02</totfact>
</mgrwt>
</event>
<event>
 5    0  0.3040647E+000  0.2333841E+03  0.7546771E-02  0.1124280E+00
          2   -1    0    0  502    0 -0.00000000000E+00  0.00000000000E+00  0.22539948083E+04  0.22539948083E+04  0.00000000000E+00 0. -1.
         21   -1    0    0  503  502  0.00000000000E+00 -0.00000000000E+00 -0.64733334861E+02  0.64733334861E+02  0.00000000000E+00 0. -1.
         25    1    1    2    0    0 -0.19519189589E+03 -0.75849615643E+02  0.24873142515E+03  0.34834661226E+03  0.12500000000E+03 0.  0.
         21    1    1    2  503  501  0.22847474064E+02 -0.17511351860E+02  0.10835894436E+02  0.30758269186E+02  0.00000000000E+00 0. -1.
          2    1    1    2  501    0  0.17234442182E+03  0.93360967504E+02  0.19296941539E+04  0.19396232617E+04  0.00000000000E+00 0. -1.
<mgrwt>
<rscale>  4 0.23338407E+03</rscale>
<asrwt>0</asrwt>
<pdfrwt beam="1">  1       21 0.99589763E-02 0.23338407E+03</pdfrwt>
<pdfrwt beam="2">  1        2 0.34676837E+00 0.23338407E+03</pdfrwt>
<totfact> 0.56869601E+03</totfact>
</mgrwt>
</event>
<event>
 5    0  0.3040647E+000  0.2743730E+03  0.7546771E-02  0.1098803E+00
          2   -1    0    0  502    0 -0.00000000000E+00  0.00000000000E+00  0.23318541296E+03  0.23318541296E+03  0.00000000000E+00 0. -1.
         21   -1    0    0  503  502  0.00000000000E+00 -0.00000000000E+00 -0.33313698076E+03  0.33313698076E+03  0.00000000000E+00 0. -1.
         25    1    1    2    0    0  0.13218265631E+03 -0.20457906150E+03 -0.67200466567E+02  0.28189670048E+03  0.12500000000E+03 0.  0.
         21    1    1    2  503  501  0.30276723579E+02  0.19935316607E+02 -0.89357149758E+01  0.37335557328E+02  0.00000000000E+00 0.  1.
          2    1    1    2  501    0 -0.16245937989E+03  0.18464374489E+03 -0.23815386254E+02  0.24709013591E+03  0.00000000000E+00 0. -1.
<mgrwt>
<rscale>  4 0.27437301E+03</rscale>
<asrwt>0</asrwt>
<pdfrwt beam="1">  1       21 0.51251843E-01 0.27437301E+03</pdfrwt>
<pdfrwt beam="2">  1        2 0.35874679E-01 0.27437301E+03</pdfrwt>
<totfact> 0.63081055E+03</totfact>
</mgrwt>
</event>
<event>
 5    0  0.3040647E+000  0.2480434E+03  0.7546771E-02  0.1114548E+00
          2   -1    0    0  502    0 -0.00000000000E+00  0.00000000000E+00  0.10253684886E+04  0.10253684886E+04  0.00000000000E+00 0. -1.
         21   -1    0    0  503  502  0.00000000000E+00 -0.00000000000E+00 -0.16650380201E+03  0.16650380201E+03  0.00000000000E+00 0.  1.
         25    1    1    2    0    0  0.48552363114E+01  0.21164634191E+03  0.43109868371E+02  0.24960209958E+03  0.12500000000E+03 0.  0.
         21    1    1    2  503  501  0.23845442573E+02  0.11426718064E+01 -0.47259306983E+02  0.52946698923E+02  0.00000000000E+00 0.  1.
          2    1    1    2  501    0 -0.28700678885E+02 -0.21278901371E+03  0.86301412524E+03  0.88932349215E+03  0.00000000000E+00 0. -1.
<mgrwt>
<rscale>  4 0.24804340E+03</rscale>
<asrwt>0</asrwt>
<pdfrwt beam="1">  1       21 0.25615970E-01 0.24804340E+03</pdfrwt>
<pdfrwt beam="2">  1        2 0.15774899E+00 0.24804340E+03</pdfrwt>
<totfact> 0.45653708E+03</totfact>
</mgrwt>
</event>
<event>
 5    0  0.3040647E+000  0.3455220E+03  0.7546771E-02  0.1064468E+00
         21   -1    0    0  503  502  0.00000000000E+00  0.00000000000E+00  0.57319710665E+03  0.57319710665E+03  0.00000000000E+00 0.  1.
          2   -1    0    0  502    0 -0.00000000000E+00 -0.00000000000E+00 -0.10652548768E+04  0.10652548768E+04  0.00000000000E+00 0.  1.
         25    1    1    2    0    0 -0.16980128766E+03  0.18309647849E+03 -0.26025605471E+03  0.38172635715E+03  0.12500000000E+03 0.  0.
         21    1    1    2  503  501 -0.23602420436E+03 -0.71891055817E+02  0.41634841809E+03  0.48396462081E+03  0.00000000000E+00 0.  1.
          2    1    1    2  501    0  0.40582549202E+03 -0.11120542267E+03 -0.64815013350E+03  0.77276100546E+03  0.00000000000E+00 0.  1.
<mgrwt>
<rscale>  4 0.34552204E+03</rscale>
<asrwt>0</asrwt>
<pdfrwt beam="1">  1       21 0.88184170E-01 0.34552204E+03</pdfrwt>
<pdfrwt beam="2">  1        2 0.16388537E+00 0.34552204E+03</pdfrwt>
<totfact> 0.30837401E+02</totfact>
</mgrwt>
</event>
<event>
 5    0  0.3040647E+000  0.3743870E+03  0.7546771E-02  0.1053028E+00
         21   -1    0    0  503  502  0.00000000000E+00  0.00000000000E+00  0.68071595551E+03  0.68071595551E+03  0.00000000000E+00 0.  1.
          2   -1    0    0  502    0 -0.00000000000E+00 -0.00000000000E+00 -0.14127436150E+04  0.14127436150E+04  0.00000000000E+00 0. -1.
         25    1    1    2    0    0  0.21634042316E+03  0.22052192696E+03  0.48060359646E+03  0.58484007720E+03  0.12500000000E+03 0.  0.
         21    1    1    2  503  501  0.24807944462E+02  0.39762208315E+02  0.12038578918E+03  0.12918670812E+03  0.00000000000E+00 0.  1.
          2    1    1    2  501    0 -0.24114836762E+03 -0.26028413527E+03 -0.13330170451E+04  0.13794327852E+04  0.00000000000E+00 0. -1.
<mgrwt>
<rscale>  4 0.37438698E+03</rscale>
<asrwt>0</asrwt>
<pdfrwt beam="1">  1       21 0.10472553E+00 0.37438698E+03</pdfrwt>
<pdfrwt beam="2">  1        2 0.21734517E+00 0.37438698E+03</pdfrwt>
<totfact> 0.12767901E+02</totfact>
</mgrwt>
</event>
<event>
 5    0  0.3040647E+000  0.2450201E+03  0.7546771E-02  0.1116493E+00
         21   -1    0    0  503  502  0.00000000000E+00  0.00000000000E+00  0.53442727677E+02  0.53442727677E+02  0.00000000000E+00 0.  1.
          1   -1    0    0  502    0 -0.00000000000E+00 -0.00000000000E+00 -0.16146192163E+04  0.16146192163E+04  0.00000000000E+00 0.  1.
         25    1    1    2    0    0 -0.23519587286E+03  0.18355443092E+01 -0.11384641550E+04  0.11692074666E+04  0.12500000000E+03 0.  0.
         21    1    1    2  503  501  0.55492529467E+02 -0.13584943413E+02 -0.25181038632E+02  0.62434415355E+02  0.00000000000E+00 0.  1.
          1    1    1    2  501    0  0.17970334339E+03  0.11749399104E+02 -0.39753129504E+03  0.43642006203E+03  0.00000000000E+00 0.  1.
<mgrwt>
<rscale>  4 0.24502009E+03</rscale>
<asrwt>0</asrwt>
<pdfrwt beam="1">  1       21 0.82219575E-02 0.24502009E+03</pdfrwt>
<pdfrwt beam="2">  1        1 0.24840297E+00 0.24502009E+03</pdfrwt>
<totfact> 0.76844461E+03</totfact>
</mgrwt>
</event>
<event>
 5    0  0.3040647E+000  0.2027863E+03  0.7546771E-02  0.1147409E+00
          2   -1    0    0  502    0 -0.00000000000E+00  0.00000000000E+00  0.33526509159E+04  0.33526509159E+04  0.00000000000E+00 0.  1.
         21   -1    0    0  503  502  0.00000000000E+00 -0.00000000000E+00 -0.42240526196E+03  0.42240526196E+03  0.00000000000E+00 0.  1.
         25    1    1    2    0    0  0.23480850839E+03 -0.12506799871E+03 -0.28970258002E+03  0.41271009775E+03  0.12500000000E+03 0.  0.
         21    1    1    2  503  501 -0.11189308915E+03  0.24023956367E+02 -0.21963756573E+02  0.11653162868E+03  0.00000000000E+00 0.  1.
          2    1    1    2  501    0 -0.12291541924E+03  0.10104404235E+03  0.32419119905E+04  0.32458144514E+04  0.00000000000E+00 0.  1.
<mgrwt>
<rscale>  4 0.20278634E+03</rscale>
<asrwt>0</asrwt>
<pdfrwt beam="1">  1       21 0.64985427E-01 0.20278634E+03</pdfrwt>
<pdfrwt beam="2">  1        2 0.51579243E+00 0.20278634E+03</pdfrwt>
<totfact> 0.36119790E+01</totfact>
</mgrwt>
</event>
<event>
 5    0  0.3040647E+000  0.1960389E+03  0.7546771E-02  0.1153125E+00
         21   -1    0    0  503  502  0.00000000000E+00  0.00000000000E+00  0.23903078606E+03  0.23903078606E+03  0.00000000000E+00 0.  1.
          2   -1    0    0  502    0 -0.00000000000E+00 -0.00000000000E+00 -0.11188929008E+04  0.11188929008E+04  0.00000000000E+00 0.  1.
         25    1    1    2    0    0  0.15930563824E+03 -0.15909578988E+03  0.59130152018E+01  0.25758439487E+03  0.12500000000E+03 0.  0.
         21    1    1    2  503  501 -0.65800092944E+02  0.11093922430E+03  0.64533439690E+02  0.14422804359E+03  0.00000000000E+00 0.  1.
          2    1    1    2  501    0 -0.93505545293E+02  0.48156565581E+02 -0.95030856966E+03  0.95611124843E+03  0.00000000000E+00 0.  1.
<mgrwt>
<rscale>  4 0.19603893E+03</rscale>
<asrwt>0</asrwt>
<pdfrwt beam="1">  1       21 0.36773967E-01 0.19603893E+03</pdfrwt>
<pdfrwt beam="2">  1        2 0.17213737E+00 0.19603893E+03</pdfrwt>
<totfact> 0.20219614E+03</totfact>
</mgrwt>
</event>
<event>
 5    0  0.3040647E+000  0.2011406E+03  0.7546771E-02  0.1148780E+00
          3   -1    0    0  502    0 -0.00000000000E+00  0.00000000000E+00  0.14584559113E+04  0.14584559113E+04  0.00000000000E+00 0. -1.
         21   -1    0    0  503  502  0.00000000000E+00 -0.00000000000E+00 -0.17641360964E+03  0.17641360964E+03  0.00000000000E+00 0. -1.
         25    1    1    2    0    0  0.15866238418E+03  0.18919250135E+03  0.11320092813E+04  0.11653486893E+04  0.12500000000E+03 0.  0.
         21    1    1    2  503  501 -0.41495016055E+02 -0.14947157795E+03 -0.10413912061E+03  0.18683828680E+03  0.00000000000E+00 0. -1.
          3    1    1    2  501    0 -0.11716736813E+03 -0.39720923398E+02  0.25417214105E+03  0.28268254491E+03  0.00000000000E+00 0. -1.
<mgrwt>
<rscale>  4 0.20114057E+03</rscale>
<asrwt>0</asrwt>
<pdfrwt beam="1">  1       21 0.27140556E-01 0.20114057E+03</pdfrwt>
<pdfrwt beam="2">  1        3 0.22437783E+00 0.20114057E+03</pdfrwt>
<totfact> 0.74047109E+01</totfact>
</mgrwt>
</event>
<event>
 5    0  0.3040647E+000  0.2696009E+03  0.7546771E-02  0.1101508E+00
         21   -1    0    0  503  502  0.00000000000E+00  0.00000000000E+00  0.11075161692E+03  0.11075161692E+03  0.00000000000E+00 0. -1.
          2   -1    0    0  502    0 -0.00000000000E+00 -0.00000000000E+00 -0.85073679167E+03  0.85073679167E+03  0.00000000000E+00 0. -1.
         25    1    1    2    0    0  0.32053985808E+02 -0.22082883301E+03 -0.30516514836E+03  0.39817533734E+03  0.12500000000E+03 0.  0.
         21    1    1    2  503  501 -0.40998091647E+02 -0.30656087469E+02  0.10081182052E+02  0.52175372056E+02  0.00000000000E+00 0. -1.
          2    1    1    2  501    0  0.89441058391E+01  0.25148492048E+03 -0.44490120845E+03  0.51113769919E+03  0.00000000000E+00 0. -1.
<mgrwt>
<rscale>  4 0.26960089E+03</rscale>
<asrwt>0</asrwt>
<pdfrwt beam="1">  1       21 0.17038711E-01 0.26960089E+03</pdfrwt>
<pdfrwt beam="2">  1        2 0.13088258E+00 0.26960089E+03</pdfrwt>
<totfact> 0.12657669E+04</totfact>
</mgrwt>
</event>
<event>
 5    0  0.3040647E+000  0.2892157E+03  0.7546771E-02  0.1090759E+00
         -4   -1    0    0    0  501 -0.00000000000E+00  0.00000000000E+00  0.60374131326E+03  0.60374131326E+03  0.00000000000E+00 0.  1.
         21   -1    0    0  501  502  0.00000000000E+00 -0.00000000000E+00 -0.33652664542E+03  0.33652664542E+03  0.00000000000E+00 0. -1.
         25    1    1    2    0    0 -0.20153963018E+03 -0.19072212787E+02 -0.67757049250E+02  0.24738227414E+03  0.12500000000E+03 0.  0.
         21    1    1    2  503  502 -0.73358468003E+02  0.30148101948E+02 -0.13019426106E+03  0.15244972448E+03  0.00000000000E+00 0. -1.
         -4    1    1    2    0  503  0.27489809819E+03 -0.11075889161E+02  0.46516597815E+03  0.54043596007E+03  0.00000000000E+00 0.  1.
<mgrwt>
<rscale>  4 0.28921575E+03</rscale>
<asrwt>0</asrwt>
<pdfrwt beam="1">  1       21 0.51773330E-01 0.28921575E+03</pdfrwt>
<pdfrwt beam="2">  1       -4 0.92883279E-01 0.28921575E+03</pdfrwt>
<totfact> 0.14846709E+02</totfact>
</mgrwt>
</event>
<event>
 5    0  0.3040647E+000  0.2107109E+03  0.7546771E-02  0.1141004E+00
          3   -1    0    0  502    0 -0.00000000000E+00  0.00000000000E+00  0.67502967623E+03  0.67502967623E+03  0.00000000000E+00 0.  1.
         21   -1    0    0  503  502  0.00000000000E+00 -0.00000000000E+00 -0.16291449460E+03  0.16291449460E+03  0.00000000000E+00 0.  1.
         25    1    1    2    0    0  0.12153389026E+03 -0.16882730766E+03  0.13908207120E+03  0.27971765912E+03  0.12500000000E+03 0.  0.
         21    1    1    2  503  501 -0.81740742234E+02  0.98579756996E+01 -0.55591325554E+02  0.99343465325E+02  0.00000000000E+00 0.  1.
          3    1    1    2  501    0 -0.39793148024E+02  0.15896933196E+03  0.42862443599E+03  0.45888304639E+03  0.00000000000E+00 0.  1.
<mgrwt>
<rscale>  4 0.21071086E+03</rscale>
<asrwt>0</asrwt>
<pdfrwt beam="1">  1       21 0.25063769E-01 0.21071086E+03</pdfrwt>
<pdfrwt beam="2">  1        3 0.10385072E+00 0.21071086E+03</pdfrwt>
<totfact> 0.61777838E+02</totfact>
</mgrwt>
</event>
<event>
 5    0  0.3040647E+000  0.2796271E+03  0.7546771E-02  0.1095893E+00
         -2   -1    0    0    0  501 -0.00000000000E+00  0.00000000000E+00  0.36291819656E+03  0.36291819656E+03  0.00000000000E+00 0. -1.
         21   -1    0    0  501  502  0.00000000000E+00 -0.00000000000E+00 -0.35930022259E+03  0.35930022259E+03  0.00000000000E+00 0. -1.
         25    1    1    2    0    0 -0.21844129031E+03 -0.88708089319E+02  0.43814103696E+02  0.27042632658E+03  0.12500000000E+03 0.  0.
         21    1    1    2  503  502 -0.53776865273E+02  0.93227428463E+02 -0.12659006602E+03  0.16615760432E+03  0.00000000000E+00 0. -1.
         -2    1    1    2    0  503  0.27221815558E+03 -0.45193391439E+01  0.86393936289E+02  0.28563448826E+03  0.00000000000E+00 0. -1.
<mgrwt>
<rscale>  4 0.27962711E+03</rscale>
<asrwt>0</asrwt>
<pdfrwt beam="1">  1       21 0.55276957E-01 0.27962711E+03</pdfrwt>
<pdfrwt beam="2">  1       -2 0.55833569E-01 0.27962711E+03</pdfrwt>
<totfact> 0.74772934E+02</totfact>
</mgrwt>
</event>
<event>
 5    0  0.3040647E+000  0.2642782E+03  0.7546771E-02  0.1104600E+00
         21   -1    0    0  503  502  0.00000000000E+00  0.00000000000E+00  0.20529772405E+04  0.20529772405E+04  0.00000000000E+00 0. -1.
          2   -1    0    0  502    0 -0.00000000000E+00 -0.00000000000E+00 -0.14556623370E+04  0.14556623370E+04  0.00000000000E+00 0.  1.
         25    1    1    2    0    0  0.93340562322E+02 -0.21493975025E+03  0.15072219538E+04  0.15304426074E+04  0.12500000000E+03 0.  0.
         21    1    1    2  503  501  0.17586611272E+02  0.10217022005E+02  0.52456046999E+03  0.52495462957E+03  0.00000000000E+00 0. -1.
          2    1    1    2  501    0 -0.11092717359E+03  0.20472272824E+03 -0.14344675202E+04  0.14532423404E+04  0.00000000000E+00 0.  1.
<mgrwt>
<rscale>  4 0.26427822E+03</rscale>
<asrwt>0</asrwt>
<pdfrwt beam="1">  1       21 0.31584265E+00 0.26427822E+03</pdfrwt>
<pdfrwt beam="2">  1        2 0.22394805E+00 0.26427822E+03</pdfrwt>
<totfact> 0.46152595E+00</totfact>
</mgrwt>
</event>
<event>
 5    0  0.3040647E+000  0.3478563E+03  0.7546771E-02  0.1063498E+00
         21   -1    0    0  503  502  0.00000000000E+00  0.00000000000E+00  0.12667522920E+03  0.12667522920E+03  0.00000000000E+00 0.  1.
          2   -1    0    0  502    0 -0.00000000000E+00 -0.00000000000E+00 -0.26026613345E+04  0.26026613345E+04  0.00000000000E+00 0. -1.
         25    1    1    2    0    0 -0.23215031984E+03  0.27568531063E+03 -0.44881858802E+03  0.58903250034E+03  0.12500000000E+03 0.  0.
         21    1    1    2  503  501  0.24578988794E+02 -0.34265778133E+02  0.34322888129E+02  0.54372151794E+02  0.00000000000E+00 0. -1.
          2    1    1    2  501    0  0.20757133105E+03 -0.24141953249E+03 -0.20614904054E+04  0.20859319116E+04  0.00000000000E+00 0. -1.
<mgrwt>
<rscale>  4 0.34785631E+03</rscale>
<asrwt>0</asrwt>
<pdfrwt beam="1">  1       21 0.19488496E-01 0.34785631E+03</pdfrwt>
<pdfrwt beam="2">  1        2 0.40040946E+00 0.34785631E+03</pdfrwt>
<totfact> 0.10243311E+03</totfact>
</mgrwt>
</event>
<event>
 5    0  0.3040647E+000  0.2784519E+03  0.7546771E-02  0.1096537E+00
         -4   -1    0    0    0  501 -0.00000000000E+00  0.00000000000E+00  0.13367803291E+04  0.13367803291E+04  0.00000000000E+00 0.  1.
         21   -1    0    0  501  502  0.00000000000E+00 -0.00000000000E+00 -0.24733310874E+03  0.24733310874E+03  0.00000000000E+00 0.  1.
         25    1    1    2    0    0  0.29717463987E+02 -0.24141854217E+03  0.96064387583E+03  0.99881314385E+03  0.12500000000E+03 0.  0.
         21    1    1    2  503  502 -0.40984069471E+02 -0.24313830302E+02 -0.17508712011E+03  0.18145620938E+03  0.00000000000E+00 0.  1.
         -4    1    1    2    0  503  0.11266605484E+02  0.26573237247E+03  0.30389046466E+03  0.40384408463E+03  0.00000000000E+00 0.  1.
<mgrwt>
<rscale>  4 0.27845193E+03</rscale>
<asrwt>0</asrwt>
<pdfrwt beam="1">  1       21 0.38051248E-01 0.27845193E+03</pdfrwt>
<pdfrwt beam="2">  1       -4 0.20565851E+00 0.27845193E+03</pdfrwt>
<totfact> 0.36361952E+01</totfact>
</mgrwt>
</event>
<event>
 5    0  0.3040647E+000  0.2724565E+03  0.7546771E-02  0.1099882E+00
         21   -1    0    0  503  502  0.00000000000E+00  0.00000000000E+00  0.10197444047E+04  0.10197444047E+04  0.00000000000E+00 0.  1.
          1   -1    0    0  502    0 -0.00000000000E+00 -0.00000000000E+00 -0.25000277342E+03  0.25000277342E+03  0.00000000000E+00 0.  1.
         25    1    1    2    0    0  0.14177601631E+03  0.19940157614E+03  0.91693889075E+03  0.95721646284E+03  0.12500000000E+03 0.  0.
         21    1    1    2  503  501 -0.32726516758E+02 -0.14373936700E+02  0.19445445672E+02  0.40691034796E+02  0.00000000000E+00 0. -1.
          1    1    1    2  501    0 -0.10904949955E+03 -0.18502763944E+03 -0.16664270514E+03  0.27183968048E+03  0.00000000000E+00 0.  1.
<mgrwt>
<rscale>  4 0.27245646E+03</rscale>
<asrwt>0</asrwt>
<pdfrwt beam="1">  1       21 0.15688375E+00 0.27245646E+03</pdfrwt>
<pdfrwt beam="2">  1        1 0.38461966E-01 0.27245646E+03</pdfrwt>
<totfact> 0.30400119E+02</totfact>
</mgrwt>
</event>
<event>
 5    0  0.3040647E+000  0.2689491E+03  0.7546771E-02  0.1101883E+00
         21   -1    0    0  503  502  0.00000000000E+00  0.00000000000E+00  0.98153070082E+03  0.98153070082E+03  0.00000000000E+00 0.  1.
          2   -1    0    0  502    0 -0.00000000000E+00 -0.00000000000E+00 -0.51840832603E+03  0.51840832603E+03  0.00000000000E+00 0. -1.
         25    1    1    2    0    0  0.15461584610E+03  0.21595321187E+03  0.61812804845E+03  0.68428731821E+03  0.12500000000E+03 0.  0.
         21    1    1    2  503  501 -0.20861808286E+02 -0.20403616910E+02  0.30066120681E+03  0.30207397092E+03  0.00000000000E+00 0. -1.
          2    1    1    2  501    0 -0.13375403782E+03 -0.19554959496E+03 -0.45566688047E+03  0.51357773772E+03  0.00000000000E+00 0. -1.
<mgrwt>
<rscale>  4 0.26894910E+03</rscale>
<asrwt>0</asrwt>
<pdfrwt beam="1">  1       21 0.15100472E+00 0.26894910E+03</pdfrwt>
<pdfrwt beam="2">  1        2 0.79755128E-01 0.26894910E+03</pdfrwt>
<totfact> 0.20868734E+02</totfact>
</mgrwt>
</event>
<event>
 5    0  0.3040647E+000  0.3150935E+03  0.7546771E-02  0.1077930E+00
         21   -1    0    0  503  502  0.00000000000E+00  0.00000000000E+00  0.23743654242E+03  0.23743654242E+03  0.00000000000E+00 0. -1.
          2   -1    0    0  502    0 -0.00000000000E+00 -0.00000000000E+00 -0.88286762714E+03  0.88286762714E+03  0.00000000000E+00 0. -1.
         25    1    1    2    0    0  0.40047006410E+02 -0.32164022756E+03  0.35799697705E+02  0.34923175266E+03  0.12500000000E+03 0.  0.
         21    1    1    2  503  501 -0.17621199488E+01  0.40203872055E+02 -0.89085618113E+01  0.41216730444E+02  0.00000000000E+00 0.  1.
          2    1    1    2  501    0 -0.38284886461E+02  0.28143635550E+03 -0.67232222061E+03  0.72985568646E+03  0.00000000000E+00 0. -1.
<mgrwt>
<rscale>  4 0.31509351E+03</rscale>
<asrwt>0</asrwt>
<pdfrwt beam="1">  1       21 0.36528699E-01 0.31509351E+03</pdfrwt>
<pdfrwt beam="2">  1        2 0.13582579E+00 0.31509351E+03</pdfrwt>
<totfact> 0.27330320E+03</totfact>
</mgrwt>
</event>
<event>
 5    0  0.3040647E+000  0.2308852E+03  0.7546771E-02  0.1126018E+00
          2   -1    0    0  502    0 -0.00000000000E+00  0.00000000000E+00  0.15730030537E+04  0.15730030537E+04  0.00000000000E+00 0. -1.
         21   -1    0    0  503  502  0.00000000000E+00 -0.00000000000E+00 -0.68769657251E+02  0.68769657251E+02  0.00000000000E+00 0.  1.
         25    1    1    2    0    0  0.13594328856E+03 -0.15104283453E+03  0.18966713220E+03  0.30478375384E+03  0.12500000000E+03 0.  0.
         21    1    1    2  503  501 -0.42297644617E+01  0.65779494793E+02  0.18126181560E+03  0.19287477450E+03  0.00000000000E+00 0.  1.
          2    1    1    2  501    0 -0.13171352409E+03  0.85263339740E+02  0.11333044487E+04  0.11441141826E+04  0.00000000000E+00 0. -1.
<mgrwt>
<rscale>  4 0.23088524E+03</rscale>
<asrwt>0</asrwt>
<pdfrwt beam="1">  1       21 0.10579948E-01 0.23088524E+03</pdfrwt>
<pdfrwt beam="2">  1        2 0.24200044E+00 0.23088524E+03</pdfrwt>
<totfact> 0.11642782E+04</totfact>
</mgrwt>
</event>
<event>
 5    0  0.3040647E+000  0.3257541E+03  0.7546771E-02  0.1073031E+00
         21   -1    0    0  503  502  0.00000000000E+00  0.00000000000E+00  0.75515649938E+03  0.75515649938E+03  0.00000000000E+00 0. -1.
          2   -1    0    0  502    0 -0.00000000000E+00 -0.00000000000E+00 -0.22412466819E+03  0.22412466819E+03  0.00000000000E+00 0.  1.
         25    1    1    2    0    0 -0.30862931588E+03 -0.87385184604E+02  0.53522047418E+03  0.63637581749E+03  0.12500000000E+03 0.  0.
         21    1    1    2  503  501  0.18712354384E+02  0.25446331004E+02  0.31131674562E+02  0.44349172813E+02  0.00000000000E+00 0. -1.
          2    1    1    2  501    0  0.28991696150E+03  0.61938853600E+02 -0.35320317552E+02  0.29855617726E+03  0.00000000000E+00 0.  1.
<mgrwt>
<rscale>  4 0.32575408E+03</rscale>
<asrwt>0</asrwt>
<pdfrwt beam="1">  1       21 0.11617792E+00 0.32575408E+03</pdfrwt>
<pdfrwt beam="2">  1        2 0.34480719E-01 0.32575408E+03</pdfrwt>
<totfact> 0.10044522E+03</totfact>
</mgrwt>
</event>
<event>
 5    0  0.3040647E+000  0.1924093E+03  0.7546771E-02  0.1156306E+00
         21   -1    0    0  503  502  0.00000000000E+00  0.00000000000E+00  0.13656767942E+03  0.13656767942E+03  0.00000000000E+00 0. -1.
          2   -1    0    0  502    0 -0.00000000000E+00 -0.00000000000E+00 -0.76926040386E+03  0.76926040386E+03  0.00000000000E+00 0. -1.
         25    1    1    2    0    0 -0.57581851628E+02 -0.20815660565E+03 -0.17983823023E+03  0.30759003749E+03  0.12500000000E+03 0.  0.
         21    1    1    2  503  501  0.46212519118E+02  0.72143376402E+02  0.34328764743E+02  0.92296954287E+02  0.00000000000E+00 0. -1.
          2    1    1    2  501    0  0.11369332510E+02  0.13601322925E+03 -0.48718325896E+03  0.50594109150E+03  0.00000000000E+00 0. -1.
<mgrwt>
<rscale>  4 0.19240926E+03</rscale>
<asrwt>0</asrwt>
<pdfrwt beam="1">  1       21 0.21010413E-01 0.19240926E+03</pdfrwt>
<pdfrwt beam="2">  1        2 0.11834775E+00 0.19240926E+03</pdfrwt>
<totfact> 0.99214214E+03</totfact>
</mgrwt>
</event>
<event>
 5    0  0.3040647E+000  0.1822880E+03  0.7546771E-02  0.1165607E+00
         -1   -1    0    0    0  501 -0.00000000000E+00  0.00000000000E+00  0.30420361496E+03  0.30420361496E+03  0.00000000000E+00 0. -1.
         21   -1    0    0  501  502  0.00000000000E+00 -0.00000000000E+00 -0.49122439588E+03  0.49122439588E+03  0.00000000000E+00 0. -1.
         25    1    1    2    0    0 -0.17820628434E+03  0.99291629862E+02 -0.22650121956E+03  0.32946033145E+03  0.12500000000E+03 0.  0.
         21    1    1    2  503  502  0.52673628014E+02 -0.70650323344E+02 -0.18627839863E+03  0.20607188326E+03  0.00000000000E+00 0. -1.
         -1    1    1    2    0  503  0.12553265633E+03 -0.28641306517E+02  0.22575883726E+03  0.25989579613E+03  0.00000000000E+00 0. -1.
<mgrwt>
<rscale>  4 0.18228800E+03</rscale>
<asrwt>0</asrwt>
<pdfrwt beam="1">  1       21 0.75572983E-01 0.18228800E+03</pdfrwt>
<pdfrwt beam="2">  1       -1 0.46800557E-01 0.18228800E+03</pdfrwt>
<totfact> 0.67356482E+02</totfact>
</mgrwt>
</event>
<event>
 5    0  0.3040647E+000  0.3715568E+03  0.7546771E-02  0.1054099E+00
         21   -1    0    0  503  502  0.00000000000E+00  0.00000000000E+00  0.25285017538E+03  0.25285017538E+03  0.00000000000E+00 0.  1.
          1   -1    0    0  502    0 -0.00000000000E+00 -0.00000000000E+00 -0.80626989218E+03  0.80626989218E+03  0.00000000000E+00 0.  1.
         25    1    1    2    0    0  0.34781567633E+02  0.34218701181E+03 -0.53935386130E+03  0.65178930353E+03  0.12500000000E+03 0.  0.
         21    1    1    2  503  501 -0.43422188379E+01  0.23788574607E+02  0.28791462005E+02  0.37599194548E+02  0.00000000000E+00 0. -1.
          1    1    1    2  501    0 -0.30439348795E+02 -0.36597558642E+03 -0.42857317504E+02  0.36973156948E+03  0.00000000000E+00 0.  1.
<mgrwt>
<rscale>  4 0.37155676E+03</rscale>
<asrwt>0</asrwt>
<pdfrwt beam="1">  1       21 0.38900026E-01 0.37155676E+03</pdfrwt>
<pdfrwt beam="2">  1        1 0.12404152E+00 0.37155676E+03</pdfrwt>
<totfact> 0.15196775E+03</totfact>
</mgrwt>
</event>
<event>
 5    0  0.3040647E+000  0.4542509E+03  0.7546771E-02  0.1026462E+00
          2   -1    0    0  502    0 -0.00000000000E+00  0.00000000000E+00  0.83247480811E+03  0.83247480811E+03  0.00000000000E+00 0.  1.
         21   -1    0    0  503  502  0.00000000000E+00 -0.00000000000E+00 -0.35767172311E+03  0.35767172311E+03  0.00000000000E+00 0. -1.
         25    1    1    2    0    0 -0.26682708602E+03  0.36745654834E+03 -0.51431490720E+02  0.47380503057E+03  0.12500000000E+03 0.  0.
         21    1    1    2  503  501  0.10262289441E+02 -0.20276163677E+02 -0.12537159817E+02  0.25954147535E+02  0.00000000000E+00 0. -1.
          2    1    1    2  501    0  0.25656479658E+03 -0.34718038467E+03  0.53877173554E+03  0.69038735312E+03  0.00000000000E+00 0.  1.
<mgrwt>
<rscale>  4 0.45425092E+03</rscale>
<asrwt>0</asrwt>
<pdfrwt beam="1">  1       21 0.55026419E-01 0.45425092E+03</pdfrwt>
<pdfrwt beam="2">  1        2 0.12807305E+00 0.45425092E+03</pdfrwt>
<totfact> 0.12130264E+03</totfact>
</mgrwt>
</event>
<event>
 5    0  0.3040647E+000  0.2826997E+03  0.7546771E-02  0.1094224E+00
         -1   -1    0    0    0  501 -0.00000000000E+00  0.00000000000E+00  0.49823729003E+03  0.49823729003E+03  0.00000000000E+00 0. -1.
         21   -1    0    0  501  502  0.00000000000E+00 -0.00000000000E+00 -0.42942592777E+03  0.42942592777E+03  0.00000000000E+00 0. -1.
         25    1    1    2    0    0 -0.14785219448E+03  0.21360768277E+03 -0.17963587266E+03  0.33968008523E+03  0.12500000000E+03 0.  0.
         21    1    1    2  503  502 -0.26137836235E+02 -0.29892802432E+02 -0.12821500006E+03  0.13422314391E+03  0.00000000000E+00 0. -1.
         -1    1    1    2    0  503  0.17399003072E+03 -0.18371488034E+03  0.37666223498E+03  0.45375998866E+03  0.00000000000E+00 0. -1.
<mgrwt>
<rscale>  4 0.28269967E+03</rscale>
<asrwt>0</asrwt>
<pdfrwt beam="1">  1       21 0.66065527E-01 0.28269967E+03</pdfrwt>
<pdfrwt beam="2">  1       -1 0.76651891E-01 0.28269967E+03</pdfrwt>
<totfact> 0.33572067E+02</totfact>
</mgrwt>
</event>
<event>
 5    0  0.3040647E+000  0.3238528E+03  0.7546771E-02  0.1073890E+00
         -2   -1    0    0    0  501 -0.00000000000E+00  0.00000000000E+00  0.89358023961E+03  0.89358023961E+03  0.00000000000E+00 0. -1.
         21   -1    0    0  501  502  0.00000000000E+00 -0.00000000000E+00 -0.17993498684E+03  0.17993498684E+03  0.00000000000E+00 0. -1.
         25    1    1    2    0    0  0.88909047214E+02  0.26753478120E+03  0.54157649808E+03  0.62322530525E+03  0.12500000000E+03 0.  0.
         21    1    1    2  503  502  0.45433066495E+01  0.59926544418E+02 -0.14741270886E+02  0.61880024471E+02  0.00000000000E+00 0. -1.
         -2    1    1    2    0  503 -0.93452353863E+02 -0.32746132562E+03  0.18681002558E+03  0.38840989673E+03  0.00000000000E+00 0. -1.
<mgrwt>
<rscale>  4 0.32385281E+03</rscale>
<asrwt>0</asrwt>
<pdfrwt beam="1">  1       21 0.27682306E-01 0.32385281E+03</pdfrwt>
<pdfrwt beam="2">  1       -2 0.13747388E+00 0.32385281E+03</pdfrwt>
<totfact> 0.39109885E+02</totfact>
</mgrwt>
</event>
<event>
 5    0  0.3040647E+000  0.1882224E+03  0.7546771E-02  0.1160074E+00
         -1   -1    0    0    0  501 -0.00000000000E+00  0.00000000000E+00  0.10350674354E+04  0.10350674354E+04  0.00000000000E+00 0. -1.
         21   -1    0    0  501  502  0.00000000000E+00 -0.00000000000E+00 -0.90790745722E+03  0.90790745722E+03  0.00000000000E+00 0. -1.
         25    1    1    2    0    0 -0.17673261052E+03  0.13959998462E+03 -0.76226942832E+03  0.80461310745E+03  0.12500000000E+03 0.  0.
         21    1    1    2  503  502  0.66774047931E+02 -0.52635960719E+02 -0.10442858905E+03  0.13466494736E+03  0.00000000000E+00 0. -1.
         -1    1    1    2    0  503  0.10995856259E+03 -0.86964023902E+02  0.99385799555E+03  0.10036968378E+04  0.00000000000E+00 0. -1.
<mgrwt>
<rscale>  4 0.18822239E+03</rscale>
<asrwt>0</asrwt>
<pdfrwt beam="1">  1       21 0.13967807E+00 0.18822239E+03</pdfrwt>
<pdfrwt beam="2">  1       -1 0.15924114E+00 0.18822239E+03</pdfrwt>
<totfact> 0.11048269E+01</totfact>
</mgrwt>
</event>
<event>
 5    0  0.3040647E+000  0.2382144E+03  0.7546771E-02  0.1120988E+00
          2   -1    0    0  502    0 -0.00000000000E+00  0.00000000000E+00  0.28176489118E+04  0.28176489118E+04  0.00000000000E+00 0.  1.
         21   -1    0    0  503  502  0.00000000000E+00 -0.00000000000E+00 -0.40254992924E+02  0.40254992924E+02  0.00000000000E+00 0.  1.
         25    1    1    2    0    0 -0.25015696336E+02  0.23260450207E+03  0.22540321463E+04  0.22695851066E+04  0.12500000000E+03 0.  0.
         21    1    1    2  503  501  0.38551521688E+02 -0.19470275594E+03  0.28942150421E+03  0.35094186142E+03  0.00000000000E+00 0.  1.
          2    1    1    2  501    0 -0.13535825352E+02 -0.37901746132E+02  0.23394026837E+03  0.23737693673E+03  0.00000000000E+00 0.  1.
<mgrwt>
<rscale>  4 0.23821438E+03</rscale>
<asrwt>0</asrwt>
<pdfrwt beam="1">  1       21 0.61930781E-02 0.23821438E+03</pdfrwt>
<pdfrwt beam="2">  1        2 0.43348429E+00 0.23821438E+03</pdfrwt>
<totfact> 0.63823925E+03</totfact>
</mgrwt>
</event>
<event>
 5    0  0.3040647E+000  0.2645705E+03  0.7546771E-02  0.1104428E+00
         21   -1    0    0  503  502  0.00000000000E+00  0.00000000000E+00  0.15919394370E+03  0.15919394370E+03  0.00000000000E+00 0. -1.
          3   -1    0    0  502    0 -0.00000000000E+00 -0.00000000000E+00 -0.78881197703E+03  0.78881197703E+03  0.00000000000E+00 0. -1.
         25    1    1    2    0    0 -0.92436281578E+02 -0.19873251081E+03 -0.12962838389E+02  0.25265017749E+03  0.12500000000E+03 0.  0.
         21    1    1    2  503  501  0.13187566243E+02 -0.23392985824E+02  0.77057425483E+01  0.27937826641E+02  0.00000000000E+00 0. -1.
          3    1    1    2  501    0  0.79248715335E+02  0.22212549664E+03 -0.62436093749E+03  0.66741791660E+03  0.00000000000E+00 0. -1.
<mgrwt>
<rscale>  4 0.26457049E+03</rscale>
<asrwt>0</asrwt>
<pdfrwt beam="1">  1       21 0.24491376E-01 0.26457049E+03</pdfrwt>
<pdfrwt beam="2">  1        3 0.12135569E+00 0.26457049E+03</pdfrwt>
<totfact> 0.44430501E+02</totfact>
</mgrwt>
</event>
<event>
 5    0  0.3040647E+000  0.2966825E+03  0.7546771E-02  0.1086911E+00
         21   -1    0    0  503  502  0.00000000000E+00  0.00000000000E+00  0.73623024201E+02  0.73623024201E+02  0.00000000000E+00 0.  1.
          2   -1    0    0  502    0 -0.00000000000E+00 -0.00000000000E+00 -0.20643725364E+04  0.20643725364E+04  0.00000000000E+00 0.  1.
         25    1    1    2    0    0 -0.28602837111E+03  0.38578726758E+02 -0.60895867157E+03  0.68538763551E+03  0.12500000000E+03 0.  0.
         21    1    1    2  503  501  0.34562051691E+02 -0.14361198821E+03 -0.26851950483E+03  0.30646641423E+03  0.00000000000E+00 0.  1.
          2    1    1    2  501    0  0.25146631941E+03  0.10503326145E+03 -0.11132713358E+04  0.11461415109E+04  0.00000000000E+00 0.  1.
<mgrwt>
<rscale>  4 0.29668254E+03</rscale>
<asrwt>0</asrwt>
<pdfrwt beam="1">  1       21 0.11326618E-01 0.29668254E+03</pdfrwt>
<pdfrwt beam="2">  1        2 0.31759580E+00 0.29668254E+03</pdfrwt>
<totfact> 0.55594348E+03</totfact>
</mgrwt>
</event>
<event>
 5    0  0.3040647E+000  0.2450590E+03  0.7546771E-02  0.1116468E+00
         21   -1    0    0  503  502  0.00000000000E+00  0.00000000000E+00  0.49741219695E+02  0.49741219695E+02  0.00000000000E+00 0.  1.
          1   -1    0    0  502    0 -0.00000000000E+00 -0.00000000000E+00 -0.17051399657E+04  0.17051399657E+04  0.00000000000E+00 0.  1.
         25    1    1    2    0    0 -0.10731802288E+03 -0.17790406313E+03 -0.12313624318E+04  0.12550081483E+04  0.12500000000E+03 0.  0.
         21    1    1    2  503  501  0.28774328081E+02 -0.28425762055E+02 -0.39912303671E+02  0.56824096026E+02  0.00000000000E+00 0. -1.
          1    1    1    2  501    0  0.78543694802E+02  0.20632982519E+03 -0.38412401046E+03  0.44304894105E+03  0.00000000000E+00 0.  1.
<mgrwt>
<rscale>  4 0.24505904E+03</rscale>
<asrwt>0</asrwt>
<pdfrwt beam="1">  1       21 0.76524955E-02 0.24505904E+03</pdfrwt>
<pdfrwt beam="2">  1        1 0.26232922E+00 0.24505904E+03</pdfrwt>
<totfact> 0.76041076E+03</totfact>
</mgrwt>
</event>
<event>
 5    0  0.3040647E+000  0.1717954E+03  0.7546771E-02  0.1175988E+00
         -1   -1    0    0    0  501 -0.00000000000E+00  0.00000000000E+00  0.12997332858E+04  0.12997332858E+04  0.00000000000E+00 0.  1.
         21   -1    0    0  501  502  0.00000000000E+00 -0.00000000000E+00 -0.88122926492E+02  0.88122926492E+02  0.00000000000E+00 0. -1.
         25    1    1    2    0    0 -0.19369201663E+03  0.79108616854E+02  0.16961630692E+03  0.29693343049E+03  0.12500000000E+03 0.  0.
         21    1    1    2  503  502  0.80205908054E+02 -0.76559795073E+02  0.12566344566E+03  0.16758786198E+03  0.00000000000E+00 0. -1.
         -1    1    1    2    0  503  0.11348610858E+03 -0.25488217816E+01  0.91633060674E+03  0.92333491983E+03  0.00000000000E+00 0.  1.
<mgrwt>
<rscale>  4 0.17179542E+03</rscale>
<asrwt>0</asrwt>
<pdfrwt beam="1">  1       21 0.13557374E-01 0.17179542E+03</pdfrwt>
<pdfrwt beam="2">  1       -1 0.19995895E+00 0.17179542E+03</pdfrwt>
<totfact> 0.75730240E+02</totfact>
</mgrwt>
</event>
<event>
 5    0  0.3040647E+000  0.2668852E+03  0.7546771E-02  0.1103076E+00
          2   -1    0    0  502    0 -0.00000000000E+00  0.00000000000E+00  0.19365130749E+04  0.19365130749E+04  0.00000000000E+00 0.  1.
         21   -1    0    0  503  502  0.00000000000E+00 -0.00000000000E+00 -0.60618955220E+02  0.60618955220E+02  0.00000000000E+00 0.  1.
         25    1    1    2    0    0 -0.59914435587E+02  0.23527874966E+03  0.36461304230E+03  0.45553649716E+03  0.12500000000E+03 0.  0.
         21    1    1    2  503  501  0.20871022437E+02 -0.40146283694E+01  0.12671977725E+02  0.24744612302E+02  0.00000000000E+00 0.  1.
          2    1    1    2  501    0  0.39043413150E+02 -0.23126412130E+03  0.14986090997E+04  0.15168509207E+04  0.00000000000E+00 0.  1.
<mgrwt>
<rscale>  4 0.26688522E+03</rscale>
<asrwt>0</asrwt>
<pdfrwt beam="1">  1       21 0.93259946E-02 0.26688522E+03</pdfrwt>
<pdfrwt beam="2">  1        2 0.29792504E+00 0.26688522E+03</pdfrwt>
<totfact> 0.92768416E+03</totfact>
</mgrwt>
</event>
<event>
 5    0  0.3040647E+000  0.2823065E+03  0.7546771E-02  0.1094436E+00
          1   -1    0    0  502    0 -0.00000000000E+00  0.00000000000E+00  0.51878053341E+03  0.51878053341E+03  0.00000000000E+00 0.  1.
         21   -1    0    0  503  502  0.00000000000E+00 -0.00000000000E+00 -0.19192734866E+03  0.19192734866E+03  0.00000000000E+00 0.  1.
         25    1    1    2    0    0  0.16320808721E+03 -0.20830895761E+03  0.28269474334E+03  0.40690394378E+03  0.12500000000E+03 0.  0.
         21    1    1    2  503  501 -0.76937440724E+01  0.28385718198E+02 -0.41643632310E+02  0.50981710519E+02  0.00000000000E+00 0. -1.
          1    1    1    2  501    0 -0.15551434313E+03  0.17992323942E+03  0.85802073718E+02  0.25282222777E+03  0.00000000000E+00 0.  1.
<mgrwt>
<rscale>  4 0.28230650E+03</rscale>
<asrwt>0</asrwt>
<pdfrwt beam="1">  1       21 0.29527285E-01 0.28230650E+03</pdfrwt>
<pdfrwt beam="2">  1        1 0.79812389E-01 0.28230650E+03</pdfrwt>
<totfact> 0.50966492E+03</totfact>
</mgrwt>
</event>
<event>
 5    0  0.3159782E+000  0.2206302E+03  0.7546771E-02  0.1133414E+00
         21   -1    0    0  503  502  0.00000000000E+00  0.00000000000E+00  0.13784895068E+03  0.13784895068E+03  0.00000000000E+00 0. -1.
          2   -1    0    0  502    0 -0.00000000000E+00 -0.00000000000E+00 -0.25307730201E+04  0.25307730201E+04  0.00000000000E+00 0. -1.
         25    1    1    2    0    0 -0.19997846824E+03 -0.80264579116E+02 -0.14693356298E+04  0.14903039903E+04  0.12500000000E+03 0.  0.
         21    1    1    2  503  501  0.16736467294E+03  0.67187949133E+02  0.63052349115E+02  0.19105170239E+03  0.00000000000E+00 0. -1.
          2    1    1    2  501    0  0.32613795293E+02  0.13076629983E+02 -0.98664078870E+03  0.98726627807E+03  0.00000000000E+00 0. -1.
<mgrwt>
<rscale>  4 0.22063019E+03</rscale>
<asrwt>0</asrwt>
<pdfrwt beam="1">  1       21 0.21207532E-01 0.22063019E+03</pdfrwt>
<pdfrwt beam="2">  1        2 0.38934968E+00 0.22063019E+03</pdfrwt>
<totfact> 0.10230864E+03</totfact>
</mgrwt>
</event>
<event>
 5    0  0.3040647E+000  0.2709269E+03  0.7546771E-02  0.1100750E+00
          1   -1    0    0  502    0 -0.00000000000E+00  0.00000000000E+00  0.65500378588E+03  0.65500378588E+03  0.00000000000E+00 0.  1.
         21   -1    0    0  503  502  0.00000000000E+00 -0.00000000000E+00 -0.10663021041E+04  0.10663021041E+04  0.00000000000E+00 0.  1.
         25    1    1    2    0    0  0.10362414763E+03 -0.18127154666E+03 -0.21510787275E+03  0.32479799032E+03  0.12500000000E+03 0.  0.
         21    1    1    2  503  501  0.21263329039E+02 -0.27477306524E+02 -0.77129314862E+03  0.77207528949E+03  0.00000000000E+00 0.  1.
          1    1    1    2  501    0 -0.12488747667E+03  0.20874885318E+03  0.57510270312E+03  0.62443261019E+03  0.00000000000E+00 0.  1.
<mgrwt>
<rscale>  4 0.27092693E+03</rscale>
<asrwt>0</asrwt>
<pdfrwt beam="1">  1       21 0.16404648E+00 0.27092693E+03</pdfrwt>
<pdfrwt beam="2">  1        1 0.10076981E+00 0.27092693E+03</pdfrwt>
<totfact> 0.76271954E+01</totfact>
</mgrwt>
</event>
<event>
 5    0  0.3040647E+000  0.2920467E+03  0.7546771E-02  0.1089285E+00
         21   -1    0    0  503  502  0.00000000000E+00  0.00000000000E+00  0.11107218462E+04  0.11107218462E+04  0.00000000000E+00 0.  1.
          2   -1    0    0  502    0 -0.00000000000E+00 -0.00000000000E+00 -0.23311560182E+03  0.23311560182E+03  0.00000000000E+00 0. -1.
         25    1    1    2    0    0  0.23391842742E+03  0.15955844722E+03  0.93776783859E+03  0.98752734031E+03  0.12500000000E+03 0.  0.
         21    1    1    2  503  501 -0.20780813396E+02 -0.66963298479E+01  0.62905108989E+02  0.66586303215E+02  0.00000000000E+00 0. -1.
          2    1    1    2  501    0 -0.21313761402E+03 -0.15286211737E+03 -0.12306670323E+03  0.28972380448E+03  0.00000000000E+00 0. -1.
<mgrwt>
<rscale>  4 0.29204674E+03</rscale>
<asrwt>0</asrwt>
<pdfrwt beam="1">  1       21 0.17088028E+00 0.29204674E+03</pdfrwt>
<pdfrwt beam="2">  1        2 0.35863939E-01 0.29204674E+03</pdfrwt>
<totfact> 0.35254207E+02</totfact>
</mgrwt>
</event>
