<event>
 5    0  0.1856407E+000  0.2629467E+03  0.7546771E-02  0.1105386E+00
         21   -1    0    0  502  501  0.00000000000E+00  0.00000000000E+00  0.10266453469E+04  0.10266453469E+04  0.00000000000E+00 0. -1.
         21   -1    0    0  503  502 -0.00000000000E+00 -0.00000000000E+00 -0.74238993251E+02  0.74238993251E+02  0.00000000000E+00 0. -1.
         25    1    1    2    0    0  0.13092370127E+03 -0.19072213996E+03  0.71227739308E+03  0.75926282335E+03  0.12500000000E+03 0.  0.
         21    1    1    2  503  504 -0.63035057962E+02  0.10270348894E+03  0.72966079120E+02  0.14087396451E+03  0.00000000000E+00 0. -1.
         21    1    1    2  504  501 -0.67888643307E+02  0.88018651018E+02  0.16716288142E+03  0.20074755227E+03  0.00000000000E+00 0. -1.
<mgrwt>
<rscale>  4 0.26294667E+03</rscale>
<asrwt>0</asrwt>
<pdfrwt beam="1">  1       21 0.15794543E+00 0.26294667E+03</pdfrwt>
<pdfrwt beam="2">  1       21 0.11421384E-01 0.26294667E+03</pdfrwt>
<totfact> 0.15983508E+04</totfact>
</mgrwt>
</event>
<event>
 5    0  0.2080994E+001  0.3237446E+03  0.7546771E-02  0.1073939E+00
         21   -1    0    0  502  501  0.00000000000E+00  0.00000000000E+00  0.29808836483E+03  0.29808836483E+03  0.00000000000E+00 0.  1.
         21   -1    0    0  503  502 -0.00000000000E+00 -0.00000000000E+00 -0.36749918731E+03  0.36749918731E+03  0.00000000000E+00 0.  1.
         25    1    1    2    0    0  0.29107185439E+03 -0.82301718525E+02  0.18462409321E+02  0.32781436492E+03  0.12500000000E+03 0.  0.
         21    1    1    2  503  504 -0.27832711613E+03  0.10248778495E+03 -0.97237516249E+02  0.31212956317E+03  0.00000000000E+00 0.  1.
         21    1    1    2  504  501 -0.12744738263E+02 -0.20186066426E+02  0.93642844528E+01  0.25643624051E+02  0.00000000000E+00 0. -1.
<mgrwt>
<rscale>  4 0.32374458E+03</rscale>
<asrwt>0</asrwt>
<pdfrwt beam="1">  1       21 0.45859748E-01 0.32374458E+03</pdfrwt>
<pdfrwt beam="2">  1       21 0.56538336E-01 0.32374458E+03</pdfrwt>
<totfact> 0.12531379E+04</totfact>
</mgrwt>
</event>
<event>
 5    0  0.2456542E+000  0.2840368E+03  0.7546771E-02  0.1093504E+00
         21   -1    0    0  502  501  0.00000000000E+00  0.00000000000E+00  0.22599948385E+03  0.22599948385E+03  0.00000000000E+00 0.  1.
         21   -1    0    0  503  502 -0.00000000000E+00 -0.00000000000E+00 -0.42474717414E+03  0.42474717414E+03  0.00000000000E+00 0.  1.
         25    1    1    2    0    0  0.23694117569E+03 -0.94396833290E+02  0.51481635564E+02  0.28866458334E+03  0.12500000000E+03 0.  0.
         21    1    1    2  503  504 -0.19854346713E+03  0.53752574524E+02 -0.20076901040E+03  0.28743180607E+03  0.00000000000E+00 0.  1.
         21    1    1    2  504  501 -0.38397708565E+02  0.40644258766E+02 -0.49460315457E+02  0.74650268578E+02  0.00000000000E+00 0.  1.
<mgrwt>
<rscale>  4 0.28403676E+03</rscale>
<asrwt>0</asrwt>
<pdfrwt beam="1">  1       21 0.34769151E-01 0.28403676E+03</pdfrwt>
<pdfrwt beam="2">  1       21 0.65345719E-01 0.28403676E+03</pdfrwt>
<totfact> 0.16364616E+04</totfact>
</mgrwt>
</event>
<event>
 5    0  0.2154475E+000  0.2859105E+03  0.7546771E-02  0.1092504E+00
         21   -1    0    0  502  501  0.00000000000E+00  0.00000000000E+00  0.14511537933E+03  0.14511537933E+03  0.00000000000E+00 0. -1.
         21   -1    0    0  503  502 -0.00000000000E+00 -0.00000000000E+00 -0.53405177995E+03  0.53405177995E+03  0.00000000000E+00 0. -1.
         25    1    1    2    0    0  0.81879726666E+01  0.25700739193E+03 -0.17007339310E+03  0.33267071023E+03  0.12500000000E+03 0.  0.
         21    1    1    2  503  504  0.10023085284E+02 -0.19421937889E+03 -0.19881252238E+03  0.27811517116E+03  0.00000000000E+00 0. -1.
         21    1    1    2  504  501 -0.18211057951E+02 -0.62788013033E+02 -0.20050485139E+02  0.68381277896E+02  0.00000000000E+00 0. -1.
<mgrwt>
<rscale>  4 0.28591055E+03</rscale>
<asrwt>0</asrwt>
<pdfrwt beam="1">  1       21 0.22325443E-01 0.28591055E+03</pdfrwt>
<pdfrwt beam="2">  1       21 0.82161814E-01 0.28591055E+03</pdfrwt>
<totfact> 0.23201908E+04</totfact>
</mgrwt>
</event>
<event>
 5    0  0.1982740E+000  0.3227905E+03  0.7546771E-02  0.1074372E+00
         21   -1    0    0  502  501  0.00000000000E+00  0.00000000000E+00  0.96565822009E+03  0.96565822009E+03  0.00000000000E+00 0. -1.
         21   -1    0    0  503  502 -0.00000000000E+00 -0.00000000000E+00 -0.11275262457E+03  0.11275262457E+03  0.00000000000E+00 0. -1.
         25    1    1    2    0    0 -0.26962570350E+03  0.12597884854E+03  0.56698212901E+03  0.65242809940E+03  0.12500000000E+03 0.  0.
         21    1    1    2  503  504  0.23405835311E+03 -0.89845762977E+02  0.27852850936E+03  0.37474485228E+03  0.00000000000E+00 0. -1.
         21    1    1    2  504  501  0.35567350386E+02 -0.36133085560E+02  0.73949571596E+01  0.51237892980E+02  0.00000000000E+00 0.  1.
<mgrwt>
<rscale>  4 0.32279047E+03</rscale>
<asrwt>0</asrwt>
<pdfrwt beam="1">  1       21 0.14856280E+00 0.32279047E+03</pdfrwt>
<pdfrwt beam="2">  1       21 0.17346558E-01 0.32279047E+03</pdfrwt>
<totfact> 0.85175687E+03</totfact>
</mgrwt>
</event>
<event>
 5    0  0.1856407E+000  0.2105583E+03  0.7546771E-02  0.1141125E+00
         21   -1    0    0  502  501  0.00000000000E+00  0.00000000000E+00  0.12433967025E+04  0.12433967025E+04  0.00000000000E+00 0.  1.
         21   -1    0    0  503  502 -0.00000000000E+00 -0.00000000000E+00 -0.17442040205E+03  0.17442040205E+03  0.00000000000E+00 0. -1.
         25    1    1    2    0    0  0.19817554784E+03  0.36449405542E+02  0.99189808123E+03  0.10198474937E+04  0.12500000000E+03 0.  0.
         21    1    1    2  503  504 -0.15678099986E+03 -0.60804965999E+02 -0.11255326105E+03  0.20235059273E+03  0.00000000000E+00 0. -1.
         21    1    1    2  504  501 -0.41394547987E+02  0.24355560457E+02  0.18963148031E+03  0.19561901813E+03  0.00000000000E+00 0. -1.
<mgrwt>
<rscale>  4 0.21055829E+03</rscale>
<asrwt>0</asrwt>
<pdfrwt beam="1">  1       21 0.19129179E+00 0.21055829E+03</pdfrwt>
<pdfrwt beam="2">  1       21 0.26833909E-01 0.21055829E+03</pdfrwt>
<totfact> 0.19870142E+03</totfact>
</mgrwt>
</event>
<event>
 5    0  0.1856407E+000  0.2695604E+03  0.7546771E-02  0.1101531E+00
         21   -1    0    0  502  501  0.00000000000E+00  0.00000000000E+00  0.43571813204E+03  0.43571813204E+03  0.00000000000E+00 0.  1.
         21   -1    0    0  503  502 -0.00000000000E+00 -0.00000000000E+00 -0.46485861617E+03  0.46485861617E+03  0.00000000000E+00 0.  1.
         25    1    1    2    0    0  0.10753197232E+03 -0.21324794810E+03  0.35415695751E+03  0.44507298614E+03  0.12500000000E+03 0.  0.
         21    1    1    2  503  504 -0.20835285941E+02  0.19116029091E+02 -0.82045466804E+02  0.86781278693E+02  0.00000000000E+00 0. -1.
         21    1    1    2  504  501 -0.86696686383E+02  0.19413191901E+03 -0.30125197483E+03  0.36872248338E+03  0.00000000000E+00 0.  1.
<mgrwt>
<rscale>  4 0.26956041E+03</rscale>
<asrwt>0</asrwt>
<pdfrwt beam="1">  1       21 0.67033559E-01 0.26956041E+03</pdfrwt>
<pdfrwt beam="2">  1       21 0.71516710E-01 0.26956041E+03</pdfrwt>
<totfact> 0.34082873E+03</totfact>
</mgrwt>
</event>
<event>
 5    0  0.1856407E+000  0.3145870E+03  0.7546771E-02  0.1078168E+00
         21   -1    0    0  502  501  0.00000000000E+00  0.00000000000E+00  0.47903832555E+03  0.47903832555E+03  0.00000000000E+00 0. -1.
         21   -1    0    0  503  502 -0.00000000000E+00 -0.00000000000E+00 -0.60450892446E+03  0.60450892446E+03  0.00000000000E+00 0. -1.
         25    1    1    2    0    0 -0.15862550962E+03  0.27379633639E+03  0.34436839396E+03  0.48408788136E+03  0.12500000000E+03 0.  0.
         21    1    1    2  503  504  0.12939197696E+03 -0.16646520130E+03 -0.14443602249E+03  0.25556743052E+03  0.00000000000E+00 0. -1.
         21    1    1    2  504  501  0.29233532658E+02 -0.10733113509E+03 -0.32540297038E+03  0.34389193814E+03  0.00000000000E+00 0. -1.
<mgrwt>
<rscale>  4 0.31458699E+03</rscale>
<asrwt>0</asrwt>
<pdfrwt beam="1">  1       21 0.73698204E-01 0.31458699E+03</pdfrwt>
<pdfrwt beam="2">  1       21 0.93001372E-01 0.31458699E+03</pdfrwt>
<totfact> 0.14699478E+03</totfact>
</mgrwt>
</event>
<event>
 5    0  0.1856407E+000  0.2663666E+03  0.7546771E-02  0.1103377E+00
         21   -1    0    0  502  501  0.00000000000E+00  0.00000000000E+00  0.27662488788E+03  0.27662488788E+03  0.00000000000E+00 0.  1.
         21   -1    0    0  503  502 -0.00000000000E+00 -0.00000000000E+00 -0.67455967638E+03  0.67455967638E+03  0.00000000000E+00 0. -1.
         25    1    1    2    0    0  0.23112885974E+03  0.46064120697E+02  0.11236232361E+03  0.28946976489E+03  0.12500000000E+03 0.  0.
         21    1    1    2  503  504 -0.33665720922E+02  0.11786553495E+03 -0.31864717203E+03  0.34141131402E+03  0.00000000000E+00 0.  1.
         21    1    1    2  504  501 -0.19746313882E+03 -0.16392965565E+03 -0.19164994007E+03  0.32030348534E+03  0.00000000000E+00 0. -1.
<mgrwt>
<rscale>  4 0.26636660E+03</rscale>
<asrwt>0</asrwt>
<pdfrwt beam="1">  1       21 0.42557675E-01 0.26636660E+03</pdfrwt>
<pdfrwt beam="2">  1       21 0.10377841E+00 0.26636660E+03</pdfrwt>
<totfact> 0.37848140E+03</totfact>
</mgrwt>
</event>
<event>
 5    0  0.1856407E+000  0.2601714E+03  0.7546771E-02  0.1107040E+00
         21   -1    0    0  502  501  0.00000000000E+00  0.00000000000E+00  0.29485212227E+03  0.29485212227E+03  0.00000000000E+00 0. -1.
         21   -1    0    0  503  502 -0.00000000000E+00 -0.00000000000E+00 -0.20629673735E+03  0.20629673735E+03  0.00000000000E+00 0. -1.
         25    1    1    2    0    0  0.22564725325E+03  0.33874363193E+02  0.69571744877E+02  0.26931279781E+03  0.12500000000E+03 0.  0.
         21    1    1    2  503  504 -0.19460123187E+03 -0.26971387438E+02  0.35705463660E+01  0.19649387774E+03  0.00000000000E+00 0. -1.
         21    1    1    2  504  501 -0.31046021379E+02 -0.69029757558E+01  0.15413093680E+02  0.35342184066E+02  0.00000000000E+00 0. -1.
<mgrwt>
<rscale>  4 0.26017140E+03</rscale>
<asrwt>0</asrwt>
<pdfrwt beam="1">  1       21 0.45361865E-01 0.26017140E+03</pdfrwt>
<pdfrwt beam="2">  1       21 0.31737959E-01 0.26017140E+03</pdfrwt>
<totfact> 0.43159322E+04</totfact>
</mgrwt>
</event>
<event>
 5    0  0.1856407E+000  0.4401444E+03  0.7546771E-02  0.1030703E+00
         21   -1    0    0  502  501  0.00000000000E+00  0.00000000000E+00  0.21043120690E+03  0.21043120690E+03  0.00000000000E+00 0.  1.
         21   -1    0    0  503  502 -0.00000000000E+00 -0.00000000000E+00 -0.89625833985E+03  0.89625833985E+03  0.00000000000E+00 0.  1.
         25    1    1    2    0    0  0.27344083119E+03 -0.32145324647E+03 -0.37628494029E+03  0.57906600152E+03  0.12500000000E+03 0.  0.
         21    1    1    2  503  504 -0.25244111111E+03  0.29560669174E+03 -0.25904529450E+03  0.46713412997E+03  0.00000000000E+00 0.  1.
         21    1    1    2  504  501 -0.20999720084E+02  0.25846554728E+02 -0.50496898163E+02  0.60489415264E+02  0.00000000000E+00 0.  1.
<mgrwt>
<rscale>  4 0.44014438E+03</rscale>
<asrwt>0</asrwt>
<pdfrwt beam="1">  1       21 0.32374032E-01 0.44014438E+03</pdfrwt>
<pdfrwt beam="2">  1       21 0.13788590E+00 0.44014438E+03</pdfrwt>
<totfact> 0.29649444E+03</totfact>
</mgrwt>
</event>
<event>
 5    0  0.1856407E+000  0.3278456E+03  0.7546771E-02  0.1072094E+00
         21   -1    0    0  502  501  0.00000000000E+00  0.00000000000E+00  0.97810955916E+02  0.97810955916E+02  0.00000000000E+00 0. -1.
         21   -1    0    0  503  502 -0.00000000000E+00 -0.00000000000E+00 -0.12303510643E+04  0.12303510643E+04  0.00000000000E+00 0. -1.
         25    1    1    2    0    0 -0.23823303936E+03  0.18735732855E+03 -0.34827919721E+03  0.47831072412E+03  0.12500000000E+03 0.  0.
         21    1    1    2  503  504  0.71551764528E+02 -0.11310370987E+03 -0.22746002052E+03  0.26391317725E+03  0.00000000000E+00 0. -1.
         21    1    1    2  504  501  0.16668127483E+03 -0.74253618683E+02 -0.55680089062E+03  0.58593811880E+03  0.00000000000E+00 0. -1.
<mgrwt>
<rscale>  4 0.32784562E+03</rscale>
<asrwt>0</asrwt>
<pdfrwt beam="1">  1       21 0.15047840E-01 0.32784562E+03</pdfrwt>
<pdfrwt beam="2">  1       21 0.18928477E+00 0.32784562E+03</pdfrwt>
<totfact> 0.56058202E+03</totfact>
</mgrwt>
</event>
<event>
 5    0  0.1856407E+000  0.2486963E+03  0.7546771E-02  0.1114131E+00
         21   -1    0    0  502  501  0.00000000000E+00  0.00000000000E+00  0.69469505004E+02  0.69469505004E+02  0.00000000000E+00 0.  1.
         21   -1    0    0  503  502 -0.00000000000E+00 -0.00000000000E+00 -0.11691672831E+04  0.11691672831E+04  0.00000000000E+00 0.  1.
         25    1    1    2    0    0  0.14744115458E+03  0.15818836539E+03 -0.33780955053E+03  0.42012229819E+03  0.12500000000E+03 0.  0.
         21    1    1    2  503  504  0.49144419130E+02 -0.57366272059E+02 -0.24524539817E+03  0.25661521472E+03  0.00000000000E+00 0.  1.
         21    1    1    2  504  501 -0.19658557371E+03 -0.10082209333E+03 -0.51664282939E+03  0.56189927519E+03  0.00000000000E+00 0.  1.
<mgrwt>
<rscale>  4 0.24869633E+03</rscale>
<asrwt>0</asrwt>
<pdfrwt beam="1">  1       21 0.10687617E-01 0.24869633E+03</pdfrwt>
<pdfrwt beam="2">  1       21 0.17987188E+00 0.24869633E+03</pdfrwt>
<totfact> 0.12644070E+04</totfact>
</mgrwt>
</event>
<event>
 5    0  0.1856407E+000  0.3121935E+03  0.7546771E-02  0.1079299E+00
         21   -1    0    0  502  501  0.00000000000E+00  0.00000000000E+00  0.12413482223E+04  0.12413482223E+04  0.00000000000E+00 0. -1.
         21   -1    0    0  503  502 -0.00000000000E+00 -0.00000000000E+00 -0.22118964098E+03  0.22118964098E+03  0.00000000000E+00 0. -1.
         25    1    1    2    0    0  0.19601640754E+03  0.21569603038E+03  0.59438707043E+03  0.67369740911E+03  0.12500000000E+03 0.  0.
         21    1    1    2  503  504 -0.36864625968E+03  0.22784404775E+02  0.22482993182E+03  0.43239760883E+03  0.00000000000E+00 0. -1.
         21    1    1    2  504  501  0.17262985214E+03 -0.23848043515E+03  0.20094157907E+03  0.35644284535E+03  0.00000000000E+00 0. -1.
<mgrwt>
<rscale>  4 0.31219348E+03</rscale>
<asrwt>0</asrwt>
<pdfrwt beam="1">  1       21 0.19097665E+00 0.31219348E+03</pdfrwt>
<pdfrwt beam="2">  1       21 0.34029176E-01 0.31219348E+03</pdfrwt>
<totfact> 0.11546981E+03</totfact>
</mgrwt>
</event>
<event>
 5    0  0.2002252E+000  0.2374160E+03  0.7546771E-02  0.1121526E+00
         21   -1    0    0  502  501  0.00000000000E+00  0.00000000000E+00  0.81740607486E+03  0.81740607486E+03  0.00000000000E+00 0. -1.
         21   -1    0    0  503  502 -0.00000000000E+00 -0.00000000000E+00 -0.66710640058E+02  0.66710640058E+02  0.00000000000E+00 0. -1.
         25    1    1    2    0    0  0.92635352921E+02 -0.17933227725E+03  0.52552895673E+03  0.57666893330E+03  0.12500000000E+03 0.  0.
         21    1    1    2  503  504 -0.18024208673E+02  0.36906233303E+02  0.83922503318E+02  0.93434087559E+02  0.00000000000E+00 0. -1.
         21    1    1    2  504  501 -0.74611144248E+02  0.14242604394E+03  0.14124397476E+03  0.21401369406E+03  0.00000000000E+00 0. -1.
<mgrwt>
<rscale>  4 0.23741604E+03</rscale>
<asrwt>0</asrwt>
<pdfrwt beam="1">  1       21 0.12575477E+00 0.23741604E+03</pdfrwt>
<pdfrwt beam="2">  1       21 0.10263176E-01 0.23741604E+03</pdfrwt>
<totfact> 0.35547621E+04</totfact>
</mgrwt>
</event>
