<event>
 5    0  0.1972558E-002  0.4089850E+03  0.7546771E-02  0.1041603E+00
         21   -1    0    0  501  502  0.00000000000E+00  0.00000000000E+00  0.15933893298E+03  0.15933893298E+03  0.00000000000E+00 0.  1.
         21   -1    0    0  502  503 -0.00000000000E+00 -0.00000000000E+00 -0.11774781347E+04  0.11774781347E+04  0.00000000000E+00 0. -1.
         25    1    1    2    0    0 -0.37477170546E+03  0.52521738341E+02 -0.74532654715E+03  0.84519170968E+03  0.12500000000E+03 0.  0.
          4    1    1    2  501    0  0.89202208092E+02 -0.36047480463E+02  0.19181877024E+00  0.96210662459E+02  0.00000000000E+00 0.  1.
         -4    1    1    2    0  503  0.28556949737E+03 -0.16474257878E+02 -0.27300447335E+03  0.39541469557E+03  0.00000000000E+00 0. -1.
<mgrwt>
<rscale>  4 0.40634941E+03</rscale>
<asrwt>0</asrwt>
<pdfrwt beam="1">  1       21 0.24513682E-01 0.40898502E+03</pdfrwt>
<pdfrwt beam="2">  1       21 0.18115048E+00 0.40898502E+03</pdfrwt>
<totfact> 0.24388120E+03</totfact>
</mgrwt>
</event>
<event>
 5    0  0.1972558E-002  0.2796512E+03  0.7546771E-02  0.1095880E+00
         21   -1    0    0  501  502  0.00000000000E+00  0.00000000000E+00  0.78072125815E+03  0.78072125815E+03  0.00000000000E+00 0.  1.
         21   -1    0    0  502  503 -0.00000000000E+00 -0.00000000000E+00 -0.30148895791E+03  0.30148895791E+03  0.00000000000E+00 0. -1.
         25    1    1    2    0    0 -0.75866959840E+02  0.23699217752E+03 -0.53634013064E+02  0.28358895458E+03  0.12500000000E+03 0.  0.
          2    1    1    2  501    0  0.18873706229E+02 -0.25451881609E+03 -0.71550825531E+01  0.25531791895E+03  0.00000000000E+00 0. -1.
         -2    1    1    2    0  503  0.56993253612E+02  0.17526638570E+02  0.54002139586E+03  0.54330334253E+03  0.00000000000E+00 0.  1.
<mgrwt>
<rscale>  4 0.27965118E+03</rscale>
<asrwt>0</asrwt>
<pdfrwt beam="1">  1       21 0.12011096E+00 0.27965118E+03</pdfrwt>
<pdfrwt beam="2">  1       21 0.46382917E-01 0.27965118E+03</pdfrwt>
<totfact> 0.21942965E+03</totfact>
</mgrwt>
</event>
<event>
 5    0  0.1972558E-002  0.3272938E+03  0.7546771E-02  0.1072341E+00
         21   -1    0    0  501  502  0.00000000000E+00  0.00000000000E+00  0.11925942497E+04  0.11925942497E+04  0.00000000000E+00 0. -1.
         21   -1    0    0  502  503 -0.00000000000E+00 -0.00000000000E+00 -0.24558208178E+03  0.24558208178E+03  0.00000000000E+00 0. -1.
         25    1    1    2    0    0 -0.30545107639E+03 -0.12851243178E+03  0.12103276813E+03  0.37428563445E+03  0.12500000000E+03 0.  0.
          1    1    1    2  501    0  0.24930910898E+03  0.13438602120E+03  0.52122951470E+02  0.28797818768E+03  0.00000000000E+00 0.  1.
         -1    1    1    2    0  503  0.56141967417E+02 -0.58735894161E+01  0.77385644835E+03  0.77591250938E+03  0.00000000000E+00 0. -1.
<mgrwt>
<rscale>  4 0.32729380E+03</rscale>
<asrwt>0</asrwt>
<pdfrwt beam="1">  1       21 0.18347604E+00 0.32729380E+03</pdfrwt>
<pdfrwt beam="2">  1       21 0.37781859E-01 0.32729380E+03</pdfrwt>
<totfact> 0.10414023E+03</totfact>
</mgrwt>
</event>
<event>
 5    0  0.1972558E-002  0.1933278E+03  0.7546771E-02  0.1155494E+00
         21   -1    0    0  503  502  0.00000000000E+00  0.00000000000E+00  0.20258278154E+03  0.20258278154E+03  0.00000000000E+00 0. -1.
         21   -1    0    0  501  503 -0.00000000000E+00 -0.00000000000E+00 -0.95588168331E+03  0.95588168331E+03  0.00000000000E+00 0. -1.
         25    1    1    2    0    0  0.22691327076E+03  0.14127230653E+03 -0.69439334062E+03  0.75448963448E+03  0.12500000000E+03 0.  0.
          3    1    1    2  501    0 -0.90776233529E+02 -0.99936469574E+02 -0.17452125611E+03  0.22064743678E+03  0.00000000000E+00 0.  1.
         -3    1    1    2    0  502 -0.13613703723E+03 -0.41335836956E+02  0.11561569495E+03  0.18332739359E+03  0.00000000000E+00 0. -1.
<mgrwt>
<rscale>  4 0.19332783E+03</rscale>
<asrwt>0</asrwt>
<pdfrwt beam="1">  1       21 0.31166582E-01 0.19332783E+03</pdfrwt>
<pdfrwt beam="2">  1       21 0.14705872E+00 0.19332783E+03</pdfrwt>
<totfact> 0.31124691E+03</totfact>
</mgrwt>
</event>
<event>
 5    0  0.1972558E-002  0.2091002E+03  0.7546771E-02  0.1142281E+00
         21   -1    0    0  501  502  0.00000000000E+00  0.00000000000E+00  0.19139868812E+04  0.19139868812E+04  0.00000000000E+00 0.  1.
         21   -1    0    0  502  503 -0.00000000000E+00 -0.00000000000E+00 -0.39447655945E+02  0.39447655945E+02  0.00000000000E+00 0.  1.
         25    1    1    2    0    0 -0.12610360599E+03 -0.16062009967E+03  0.70112378955E+03  0.74087819791E+03  0.12500000000E+03 0.  0.
          2    1    1    2  501    0  0.36697793024E+02  0.37628124851E+02  0.88459606465E+03  0.88615619469E+03  0.00000000000E+00 0. -1.
         -2    1    1    2    0  503  0.89405812962E+02  0.12299197482E+03  0.28881937100E+03  0.32640014449E+03  0.00000000000E+00 0.  1.
<mgrwt>
<rscale>  4 0.20910020E+03</rscale>
<asrwt>0</asrwt>
<pdfrwt beam="1">  1       21 0.29445945E+00 0.20910020E+03</pdfrwt>
<pdfrwt beam="2">  1       21 0.60688716E-02 0.20910020E+03</pdfrwt>
<totfact> 0.69795407E+03</totfact>
</mgrwt>
</event>
<event>
 5    0  0.1972558E-002  0.2634326E+03  0.7546771E-02  0.1105098E+00
         21   -1    0    0  501  502  0.00000000000E+00  0.00000000000E+00  0.12538968525E+03  0.12538968525E+03  0.00000000000E+00 0. -1.
         21   -1    0    0  502  503 -0.00000000000E+00 -0.00000000000E+00 -0.17008821347E+04  0.17008821347E+04  0.00000000000E+00 0. -1.
         25    1    1    2    0    0  0.58000882380E+02  0.23484907927E+03 -0.36005330018E+03  0.45142172230E+03  0.12500000000E+03 0.  0.
          2    1    1    2  501    0  0.35743614440E+02 -0.23033710658E+03 -0.12524552683E+04  0.12739611406E+04  0.00000000000E+00 0. -1.
         -2    1    1    2    0  503 -0.93744496820E+02 -0.45119726868E+01  0.37016119059E+02  0.10088895704E+03  0.00000000000E+00 0.  1.
<mgrwt>
<rscale>  4 0.26343259E+03</rscale>
<asrwt>0</asrwt>
<pdfrwt beam="1">  1       21 0.19290723E-01 0.26343259E+03</pdfrwt>
<pdfrwt beam="2">  1       21 0.26167414E+00 0.26343259E+03</pdfrwt>
<totfact> 0.13021451E+03</totfact>
</mgrwt>
</event>
<event>
 5    0  0.1972558E-002  0.2659767E+03  0.7546771E-02  0.1103605E+00
         21   -1    0    0  501  502  0.00000000000E+00  0.00000000000E+00  0.28004226188E+04  0.28004226188E+04  0.00000000000E+00 0. -1.
         21   -1    0    0  502  503 -0.00000000000E+00 -0.00000000000E+00 -0.27514419777E+02  0.27514419777E+02  0.00000000000E+00 0.  1.
         25    1    1    2    0    0 -0.95223867017E+02  0.20705847335E+03  0.99616676924E+03  0.10295212617E+04  0.12500000000E+03 0.  0.
          4    1    1    2  501    0  0.78093385489E+02 -0.23326360446E+03  0.15206541201E+04  0.15404218380E+04  0.00000000000E+00 0. -1.
         -4    1    1    2    0  503  0.17130481527E+02  0.26205131105E+02  0.25608730963E+03  0.25799393878E+03  0.00000000000E+00 0.  1.
<mgrwt>
<rscale>  4 0.26597668E+03</rscale>
<asrwt>0</asrwt>
<pdfrwt beam="1">  1       21 0.43083402E+00 0.26597668E+03</pdfrwt>
<pdfrwt beam="2">  1       21 0.42329899E-02 0.26597668E+03</pdfrwt>
<totfact> 0.18027318E+03</totfact>
</mgrwt>
</event>
<event>
 5    0  0.1972558E-002  0.2490480E+03  0.7546771E-02  0.1113908E+00
         21   -1    0    0  501  502  0.00000000000E+00  0.00000000000E+00  0.11075421101E+03  0.11075421101E+03  0.00000000000E+00 0.  1.
         21   -1    0    0  502  503 -0.00000000000E+00 -0.00000000000E+00 -0.18945924398E+04  0.18945924398E+04  0.00000000000E+00 0. -1.
         25    1    1    2    0    0  0.13815981438E+03 -0.16526266852E+03 -0.17680946579E+04  0.17855485440E+04  0.12500000000E+03 0.  0.
          3    1    1    2  501    0 -0.24795234808E+02  0.51506162285E+02 -0.15387899881E+02  0.59198613880E+02  0.00000000000E+00 0. -1.
         -3    1    1    2    0  503 -0.11336457957E+03  0.11375650624E+03 -0.35567102197E+00  0.16059949289E+03  0.00000000000E+00 0.  1.
<mgrwt>
<rscale>  4 0.24904796E+03</rscale>
<asrwt>0</asrwt>
<pdfrwt beam="1">  1       21 0.17039111E-01 0.24904796E+03</pdfrwt>
<pdfrwt beam="2">  1       21 0.29147573E+00 0.24904796E+03</pdfrwt>
<totfact> 0.11118780E+03</totfact>
</mgrwt>
</event>
<event>
 5    0  0.1972558E-002  0.3177112E+03  0.7546771E-02  0.1076708E+00
         21   -1    0    0  501  502  0.00000000000E+00  0.00000000000E+00  0.11969047800E+04  0.11969047800E+04  0.00000000000E+00 0.  1.
         21   -1    0    0  502  503 -0.00000000000E+00 -0.00000000000E+00 -0.22187518906E+03  0.22187518906E+03  0.00000000000E+00 0.  1.
         25    1    1    2    0    0  0.32423347100E+02 -0.30169931064E+03 -0.49253920303E+02  0.33185041230E+03  0.12500000000E+03 0.  0.
          2    1    1    2  501    0 -0.44554109433E+02  0.24639235000E+03  0.49596719864E+03  0.55558772569E+03  0.00000000000E+00 0. -1.
         -2    1    1    2    0  503  0.12130762333E+02  0.55306960645E+02  0.52831631256E+03  0.53134183104E+03  0.00000000000E+00 0.  1.
<mgrwt>
<rscale>  4 0.31771121E+03</rscale>
<asrwt>0</asrwt>
<pdfrwt beam="1">  1       21 0.18413919E+00 0.31771121E+03</pdfrwt>
<pdfrwt beam="2">  1       21 0.34134645E-01 0.31771121E+03</pdfrwt>
<totfact> 0.12723253E+03</totfact>
</mgrwt>
</event>
<event>
 5    0  0.1972558E-002  0.2545323E+03  0.7546771E-02  0.1110474E+00
         21   -1    0    0  501  502  0.00000000000E+00  0.00000000000E+00  0.13995762351E+03  0.13995762351E+03  0.00000000000E+00 0.  1.
         21   -1    0    0  502  503 -0.00000000000E+00 -0.00000000000E+00 -0.44769548920E+03  0.44769548920E+03  0.00000000000E+00 0. -1.
         25    1    1    2    0    0 -0.14514246923E+03 -0.16761667963E+03 -0.24145209144E+03  0.35083585924E+03  0.12500000000E+03 0.  0.
          4    1    1    2  501    0  0.27990869130E+02  0.76368902311E+01 -0.68213645277E+01  0.29805064353E+02  0.00000000000E+00 0. -1.
         -4    1    1    2    0  503  0.11715160010E+03  0.15997978940E+03 -0.59464409713E+02  0.20701218912E+03  0.00000000000E+00 0.  1.
<mgrwt>
<rscale>  4 0.25453229E+03</rscale>
<asrwt>0</asrwt>
<pdfrwt beam="1">  1       21 0.21531942E-01 0.25453229E+03</pdfrwt>
<pdfrwt beam="2">  1       21 0.68876229E-01 0.25453229E+03</pdfrwt>
<totfact> 0.37474598E+04</totfact>
</mgrwt>
</event>
<event>
 5    0  0.1972558E-002  0.3152874E+03  0.7546771E-02  0.1077839E+00
         21   -1    0    0  501  502  0.00000000000E+00  0.00000000000E+00  0.96038514205E+02  0.96038514205E+02  0.00000000000E+00 0. -1.
         21   -1    0    0  502  503 -0.00000000000E+00 -0.00000000000E+00 -0.96995186716E+03  0.96995186716E+03  0.00000000000E+00 0. -1.
         25    1    1    2    0    0  0.10882025386E+03  0.26821503966E+03 -0.39546720225E+03  0.50576720258E+03  0.12500000000E+03 0.  0.
          1    1    1    2  501    0 -0.10153932672E+03 -0.24364749920E+03 -0.45179306930E+03  0.52325072022E+03  0.00000000000E+00 0. -1.
         -1    1    1    2    0  503 -0.72809271322E+01 -0.24567540458E+02 -0.26653081402E+02  0.36972458564E+02  0.00000000000E+00 0.  1.
<mgrwt>
<rscale>  4 0.31528742E+03</rscale>
<asrwt>0</asrwt>
<pdfrwt beam="1">  1       21 0.14775156E-01 0.31528742E+03</pdfrwt>
<pdfrwt beam="2">  1       21 0.14922336E+00 0.31528742E+03</pdfrwt>
<totfact> 0.11368714E+04</totfact>
</mgrwt>
</event>
<event>
 5    0  0.1972558E-002  0.2344077E+03  0.7546771E-02  0.1123575E+00
         21   -1    0    0  501  502  0.00000000000E+00  0.00000000000E+00  0.29418817275E+03  0.29418817275E+03  0.00000000000E+00 0. -1.
         21   -1    0    0  502  503 -0.00000000000E+00 -0.00000000000E+00 -0.25001099591E+03  0.25001099591E+03  0.00000000000E+00 0.  1.
         25    1    1    2    0    0  0.18322222636E+03  0.83689570347E+02 -0.10171202082E+03  0.25796252363E+03  0.12500000000E+03 0.  0.
          3    1    1    2  501    0 -0.16335046892E+03 -0.10457803153E+03  0.71947283715E+02  0.20687279185E+03  0.00000000000E+00 0. -1.
         -3    1    1    2    0  503 -0.19871757438E+02  0.20888461185E+02  0.73941913945E+02  0.79363853184E+02  0.00000000000E+00 0.  1.
<mgrwt>
<rscale>  4 0.23440773E+03</rscale>
<asrwt>0</asrwt>
<pdfrwt beam="1">  1       21 0.45259719E-01 0.23440773E+03</pdfrwt>
<pdfrwt beam="2">  1       21 0.38463230E-01 0.23440773E+03</pdfrwt>
<totfact> 0.29870977E+04</totfact>
</mgrwt>
</event>
<event>
 5    0  0.1972558E-002  0.2507918E+03  0.7546771E-02  0.1112805E+00
         21   -1    0    0  501  502  0.00000000000E+00  0.00000000000E+00  0.87924027698E+02  0.87924027698E+02  0.00000000000E+00 0.  1.
         21   -1    0    0  502  503 -0.00000000000E+00 -0.00000000000E+00 -0.16836872770E+04  0.16836872770E+04  0.00000000000E+00 0. -1.
         25    1    1    2    0    0 -0.21000164996E+03  0.44596458807E+02 -0.13637243059E+04  0.13861668440E+04  0.12500000000E+03 0.  0.
          1    1    1    2  501    0 -0.19435405484E+02 -0.28870685623E+02  0.23241966989E+02  0.41850215104E+02  0.00000000000E+00 0. -1.
         -1    1    1    2    0  503  0.22943705544E+03 -0.15725773184E+02 -0.25528091046E+03  0.34359424558E+03  0.00000000000E+00 0.  1.
<mgrwt>
<rscale>  4 0.25079184E+03</rscale>
<asrwt>0</asrwt>
<pdfrwt beam="1">  1       21 0.13526775E-01 0.25079184E+03</pdfrwt>
<pdfrwt beam="2">  1       21 0.25902878E+00 0.25079184E+03</pdfrwt>
<totfact> 0.26276565E+03</totfact>
</mgrwt>
</event>
<event>
 5    0  0.1972558E-002  0.2608614E+03  0.7546771E-02  0.1106627E+00
         21   -1    0    0  501  502  0.00000000000E+00  0.00000000000E+00  0.79428019304E+03  0.79428019304E+03  0.00000000000E+00 0. -1.
         21   -1    0    0  502  503 -0.00000000000E+00 -0.00000000000E+00 -0.10791635727E+03  0.10791635727E+03  0.00000000000E+00 0. -1.
         25    1    1    2    0    0 -0.15815884277E+03  0.15059225592E+03  0.40345281910E+03  0.47549071950E+03  0.12500000000E+03 0.  0.
          3    1    1    2  501    0  0.18081153794E+03 -0.14818087960E+03  0.12106127938E+03  0.26326074280E+03  0.00000000000E+00 0. -1.
         -3    1    1    2    0  503 -0.22652695173E+02 -0.24113763137E+01  0.16184973730E+03  0.16344508802E+03  0.00000000000E+00 0.  1.
<mgrwt>
<rscale>  4 0.26086140E+03</rscale>
<asrwt>0</asrwt>
<pdfrwt beam="1">  1       21 0.12219695E+00 0.26086140E+03</pdfrwt>
<pdfrwt beam="2">  1       21 0.16602517E-01 0.26086140E+03</pdfrwt>
<totfact> 0.15797638E+04</totfact>
</mgrwt>
</event>
<event>
 5    0  0.1972558E-002  0.2748880E+03  0.7546771E-02  0.1098514E+00
         21   -1    0    0  501  502  0.00000000000E+00  0.00000000000E+00  0.21059663719E+03  0.21059663719E+03  0.00000000000E+00 0.  1.
         21   -1    0    0  502  503 -0.00000000000E+00 -0.00000000000E+00 -0.20842839411E+04  0.20842839411E+04  0.00000000000E+00 0. -1.
         25    1    1    2    0    0 -0.23751334974E+02 -0.26864192794E+03 -0.18533138734E+04  0.18770002464E+04  0.12500000000E+03 0.  0.
          4    1    1    2  501    0 -0.23481010543E+02  0.16987726237E+03 -0.16399927232E+03  0.23728759649E+03  0.00000000000E+00 0. -1.
         -4    1    1    2    0  503  0.47232345517E+02  0.98764665573E+02  0.14362584187E+03  0.18059273541E+03  0.00000000000E+00 0.  1.
<mgrwt>
<rscale>  4 0.27488802E+03</rscale>
<asrwt>0</asrwt>
<pdfrwt beam="1">  1       21 0.32399482E-01 0.27488802E+03</pdfrwt>
<pdfrwt beam="2">  1       21 0.32065907E+00 0.27488802E+03</pdfrwt>
<totfact> 0.21335857E+02</totfact>
</mgrwt>
</event>
<event>
 5    0  0.1972558E-002  0.3491867E+03  0.7546771E-02  0.1062949E+00
         21   -1    0    0  501  502  0.00000000000E+00  0.00000000000E+00  0.52303905364E+03  0.52303905364E+03  0.00000000000E+00 0. -1.
         21   -1    0    0  502  503 -0.00000000000E+00 -0.00000000000E+00 -0.41478121833E+03  0.41478121833E+03  0.00000000000E+00 0. -1.
         25    1    1    2    0    0  0.25565482983E+03  0.20417001699E+03 -0.19916474663E+03  0.40290989583E+03  0.12500000000E+03 0.  0.
          3    1    1    2  501    0 -0.37140287055E+02  0.38326977423E+02  0.17446575254E+03  0.18244631246E+03  0.00000000000E+00 0.  1.
         -3    1    1    2    0  503 -0.21851454278E+03 -0.24249699442E+03  0.13295682941E+03  0.35246406369E+03  0.00000000000E+00 0. -1.
<mgrwt>
<rscale>  4 0.34918674E+03</rscale>
<asrwt>0</asrwt>
<pdfrwt beam="1">  1       21 0.80467547E-01 0.34918674E+03</pdfrwt>
<pdfrwt beam="2">  1       21 0.63812495E-01 0.34918674E+03</pdfrwt>
<totfact> 0.27878739E+03</totfact>
</mgrwt>
</event>
<event>
 5    0  0.1972558E-002  0.2973684E+03  0.7546771E-02  0.1086564E+00
         21   -1    0    0  503  502  0.00000000000E+00  0.00000000000E+00  0.19442642347E+03  0.19442642347E+03  0.00000000000E+00 0. -1.
         21   -1    0    0  501  503 -0.00000000000E+00 -0.00000000000E+00 -0.58124408645E+03  0.58124408645E+03  0.00000000000E+00 0. -1.
         25    1    1    2    0    0 -0.10865058423E+02  0.26960137250E+03 -0.40045136054E+03  0.49878777221E+03  0.12500000000E+03 0.  0.
          4    1    1    2  501    0  0.19581586180E+02 -0.32379935608E+02  0.11293171173E+02  0.39489675390E+02  0.00000000000E+00 0.  1.
         -4    1    1    2    0  502 -0.87165277566E+01 -0.23722143689E+03  0.23405263764E+01  0.23739306232E+03  0.00000000000E+00 0. -1.
<mgrwt>
<rscale>  4 0.29736837E+03</rscale>
<asrwt>0</asrwt>
<pdfrwt beam="1">  1       21 0.29911758E-01 0.29736837E+03</pdfrwt>
<pdfrwt beam="2">  1       21 0.89422166E-01 0.29736837E+03</pdfrwt>
<totfact> 0.10770744E+04</totfact>
</mgrwt>
</event>
<event>
 5    0  0.1972558E-002  0.3180786E+03  0.7546771E-02  0.1076537E+00
         21   -1    0    0  501  502  0.00000000000E+00  0.00000000000E+00  0.39142553415E+03  0.39142553415E+03  0.00000000000E+00 0.  1.
         21   -1    0    0  502  503 -0.00000000000E+00 -0.00000000000E+00 -0.37533493842E+03  0.37533493842E+03  0.00000000000E+00 0. -1.
         25    1    1    2    0    0  0.23160074350E+03 -0.18981624456E+03 -0.14377620368E+03  0.35491648008E+03  0.12500000000E+03 0.  0.
          1    1    1    2  501    0 -0.22717981578E+03  0.16743029958E+03  0.34378745998E+02  0.28429820979E+03  0.00000000000E+00 0.  1.
         -1    1    1    2    0  503 -0.44209277223E+01  0.22385944987E+02  0.12548805341E+03  0.12754578270E+03  0.00000000000E+00 0. -1.
<mgrwt>
<rscale>  4 0.31807857E+03</rscale>
<asrwt>0</asrwt>
<pdfrwt beam="1">  1       21 0.60219313E-01 0.31807857E+03</pdfrwt>
<pdfrwt beam="2">  1       21 0.57743837E-01 0.31807857E+03</pdfrwt>
<totfact> 0.67224046E+03</totfact>
</mgrwt>
</event>
<event>
 5    0  0.1972558E-002  0.2799660E+03  0.7546771E-02  0.1095708E+00
         21   -1    0    0  501  502  0.00000000000E+00  0.00000000000E+00  0.92672087220E+03  0.92672087220E+03  0.00000000000E+00 0.  1.
         21   -1    0    0  502  503 -0.00000000000E+00 -0.00000000000E+00 -0.34962493195E+03  0.34962493195E+03  0.00000000000E+00 0. -1.
         25    1    1    2    0    0 -0.12371691962E+03  0.21967457806E+03 -0.25106316171E+03  0.37712134335E+03  0.12500000000E+03 0.  0.
          4    1    1    2  501    0  0.90749269921E+02  0.27400989457E+02  0.15858568796E+03  0.18475839532E+03  0.00000000000E+00 0. -1.
         -4    1    1    2    0  503  0.32967649694E+02 -0.24707556752E+03  0.66957341400E+03  0.71446606548E+03  0.00000000000E+00 0.  1.
<mgrwt>
<rscale>  4 0.27996595E+03</rscale>
<asrwt>0</asrwt>
<pdfrwt beam="1">  1       21 0.14257244E+00 0.27996595E+03</pdfrwt>
<pdfrwt beam="2">  1       21 0.53788451E-01 0.27996595E+03</pdfrwt>
<totfact> 0.10348063E+03</totfact>
</mgrwt>
</event>
<event>
 5    0  0.1972558E-002  0.2405986E+03  0.7546771E-02  0.1119395E+00
         21   -1    0    0  501  502  0.00000000000E+00  0.00000000000E+00  0.68468282982E+03  0.68468282982E+03  0.00000000000E+00 0.  1.
         21   -1    0    0  502  503 -0.00000000000E+00 -0.00000000000E+00 -0.27646684007E+04  0.27646684007E+04  0.00000000000E+00 0.  1.
         25    1    1    2    0    0  0.13863234248E+03 -0.15048576446E+03 -0.25925462948E+04  0.26036102209E+04  0.12500000000E+03 0.  0.
          4    1    1    2  501    0  0.50091961445E+02  0.27177364241E+02  0.60091268348E+03  0.60360903481E+03  0.00000000000E+00 0.  1.
         -4    1    1    2    0  503 -0.18872430392E+03  0.12330840022E+03 -0.88351959520E+02  0.24213197477E+03  0.00000000000E+00 0. -1.
<mgrwt>
<rscale>  4 0.24059864E+03</rscale>
<asrwt>0</asrwt>
<pdfrwt beam="1">  1       21 0.10533582E+00 0.24059864E+03</pdfrwt>
<pdfrwt beam="2">  1       21 0.42533360E+00 0.24059864E+03</pdfrwt>
<totfact> 0.39626922E+00</totfact>
</mgrwt>
</event>
<event>
 5    0  0.1972558E-002  0.2449597E+03  0.7546771E-02  0.1116532E+00
         21   -1    0    0  501  502  0.00000000000E+00  0.00000000000E+00  0.24043830927E+03  0.24043830927E+03  0.00000000000E+00 0. -1.
         21   -1    0    0  502  503 -0.00000000000E+00 -0.00000000000E+00 -0.62790680707E+03  0.62790680707E+03  0.00000000000E+00 0. -1.
         25    1    1    2    0    0  0.20989262362E+03  0.69993320873E+02 -0.39858523793E+03  0.47270410439E+03  0.12500000000E+03 0.  0.
          4    1    1    2  501    0 -0.18984775616E+03 -0.50530073839E+02 -0.14046396206E+03  0.24150690160E+03  0.00000000000E+00 0. -1.
         -4    1    1    2    0  503 -0.20044867461E+02 -0.19463247034E+02  0.15158070219E+03  0.15413411034E+03  0.00000000000E+00 0.  1.
<mgrwt>
<rscale>  4 0.24495975E+03</rscale>
<asrwt>0</asrwt>
<pdfrwt beam="1">  1       21 0.36990509E-01 0.24495975E+03</pdfrwt>
<pdfrwt beam="2">  1       21 0.96601047E-01 0.24495975E+03</pdfrwt>
<totfact> 0.60531258E+03</totfact>
</mgrwt>
</event>
<event>
 5    0  0.1972558E-002  0.3308761E+03  0.7546771E-02  0.1070750E+00
         21   -1    0    0  501  502  0.00000000000E+00  0.00000000000E+00  0.19889780038E+03  0.19889780038E+03  0.00000000000E+00 0. -1.
         21   -1    0    0  502  503 -0.00000000000E+00 -0.00000000000E+00 -0.12265934784E+04  0.12265934784E+04  0.00000000000E+00 0. -1.
         25    1    1    2    0    0 -0.28811661784E+03  0.15160012677E+03 -0.99578715837E+03  0.10550880763E+04  0.12500000000E+03 0.  0.
          1    1    1    2  501    0  0.26463020073E+03 -0.14918404860E+03  0.28915386058E+02  0.30515753808E+03  0.00000000000E+00 0. -1.
         -1    1    1    2    0  503  0.23486417119E+02 -0.24160781699E+01 -0.60823905744E+02  0.65245664475E+02  0.00000000000E+00 0.  1.
<mgrwt>
<rscale>  4 0.33087613E+03</rscale>
<asrwt>0</asrwt>
<pdfrwt beam="1">  1       21 0.30599662E-01 0.33087613E+03</pdfrwt>
<pdfrwt beam="2">  1       21 0.18870669E+00 0.33087613E+03</pdfrwt>
<totfact> 0.14599899E+03</totfact>
</mgrwt>
</event>
<event>
 5    0  0.1972558E-002  0.2236395E+03  0.7546771E-02  0.1131198E+00
         21   -1    0    0  501  502  0.00000000000E+00  0.00000000000E+00  0.88028850597E+03  0.88028850597E+03  0.00000000000E+00 0.  1.
         21   -1    0    0  502  503 -0.00000000000E+00 -0.00000000000E+00 -0.11480443461E+03  0.11480443461E+03  0.00000000000E+00 0.  1.
         25    1    1    2    0    0  0.17335626591E+03 -0.14004852229E+03  0.48419507518E+03  0.54748137352E+03  0.12500000000E+03 0.  0.
          1    1    1    2  501    0 -0.37467833951E+02  0.24523502097E+02  0.26472505378E+03  0.26848574419E+03  0.00000000000E+00 0. -1.
         -1    1    1    2    0  503 -0.13588843196E+03  0.11552502019E+03  0.16563942413E+02  0.17912582287E+03  0.00000000000E+00 0.  1.
<mgrwt>
<rscale>  4 0.22363949E+03</rscale>
<asrwt>0</asrwt>
<pdfrwt beam="1">  1       21 0.13542900E+00 0.22363949E+03</pdfrwt>
<pdfrwt beam="2">  1       21 0.17662221E-01 0.22363949E+03</pdfrwt>
<totfact> 0.11088242E+04</totfact>
</mgrwt>
</event>
<event>
 5    0  0.1972558E-002  0.3023863E+03  0.7546771E-02  0.1084054E+00
         21   -1    0    0  501  502  0.00000000000E+00  0.00000000000E+00  0.92893493769E+03  0.92893493769E+03  0.00000000000E+00 0.  1.
         21   -1    0    0  502  503 -0.00000000000E+00 -0.00000000000E+00 -0.17092678306E+03  0.17092678306E+03  0.00000000000E+00 0.  1.
         25    1    1    2    0    0 -0.18964058323E+03  0.19864375026E+03  0.51682426241E+02  0.30613553127E+03  0.12500000000E+03 0.  0.
          1    1    1    2  501    0  0.20753725525E+03 -0.18460877543E+03  0.40243004318E+03  0.48898062532E+03  0.00000000000E+00 0.  1.
         -1    1    1    2    0  503 -0.17896672018E+02 -0.14034974828E+02  0.30389568521E+03  0.30474556417E+03  0.00000000000E+00 0. -1.
<mgrwt>
<rscale>  4 0.30238629E+03</rscale>
<asrwt>0</asrwt>
<pdfrwt beam="1">  1       21 0.14291306E+00 0.30238629E+03</pdfrwt>
<pdfrwt beam="2">  1       21 0.26296429E-01 0.30238629E+03</pdfrwt>
<totfact> 0.43260650E+03</totfact>
</mgrwt>
</event>
<event>
 5    0  0.1972558E-002  0.2432075E+03  0.7546771E-02  0.1117674E+00
         21   -1    0    0  501  502  0.00000000000E+00  0.00000000000E+00  0.38575647312E+03  0.38575647312E+03  0.00000000000E+00 0.  1.
         21   -1    0    0  502  503 -0.00000000000E+00 -0.00000000000E+00 -0.21340639663E+03  0.21340639663E+03  0.00000000000E+00 0.  1.
         25    1    1    2    0    0 -0.15570549062E+03  0.13885495440E+03 -0.86152856300E+02  0.25801591583E+03  0.12500000000E+03 0.  0.
          3    1    1    2  501    0  0.10696087567E+03 -0.11247642631E+03  0.13473595328E+03  0.20553674247E+03  0.00000000000E+00 0.  1.
         -3    1    1    2    0  503  0.48744614958E+02 -0.26378528085E+02  0.12376697951E+03  0.13561021145E+03  0.00000000000E+00 0. -1.
<mgrwt>
<rscale>  4 0.24320752E+03</rscale>
<asrwt>0</asrwt>
<pdfrwt beam="1">  1       21 0.59347149E-01 0.24320752E+03</pdfrwt>
<pdfrwt beam="2">  1       21 0.32831753E-01 0.24320752E+03</pdfrwt>
<totfact> 0.23052769E+04</totfact>
</mgrwt>
</event>
<event>
 5    0  0.1972558E-002  0.2088877E+03  0.7546771E-02  0.1142450E+00
         21   -1    0    0  501  502  0.00000000000E+00  0.00000000000E+00  0.18434961500E+03  0.18434961500E+03  0.00000000000E+00 0. -1.
         21   -1    0    0  502  503 -0.00000000000E+00 -0.00000000000E+00 -0.38404794068E+03  0.38404794068E+03  0.00000000000E+00 0. -1.
         25    1    1    2    0    0 -0.30806408502E+02  0.20725646786E+03 -0.23488481074E+02  0.24511423259E+03  0.12500000000E+03 0.  0.
          4    1    1    2  501    0  0.17698539115E+02 -0.50412650426E+02  0.32000173737E+02  0.62279087413E+02  0.00000000000E+00 0.  1.
         -4    1    1    2    0  503  0.13107869387E+02 -0.15684381743E+03 -0.20821001834E+03  0.26100423569E+03  0.00000000000E+00 0. -1.
<mgrwt>
<rscale>  4 0.20888767E+03</rscale>
<asrwt>0</asrwt>
<pdfrwt beam="1">  1       21 0.28361480E-01 0.20888767E+03</pdfrwt>
<pdfrwt beam="2">  1       21 0.59084298E-01 0.20888767E+03</pdfrwt>
<totfact> 0.31549723E+04</totfact>
</mgrwt>
</event>
<event>
 5    0  0.1972558E-002  0.2544683E+03  0.7546771E-02  0.1110513E+00
         21   -1    0    0  501  502  0.00000000000E+00  0.00000000000E+00  0.11701016725E+04  0.11701016725E+04  0.00000000000E+00 0. -1.
         21   -1    0    0  502  503 -0.00000000000E+00 -0.00000000000E+00 -0.97950784099E+02  0.97950784099E+02  0.00000000000E+00 0.  1.
         25    1    1    2    0    0 -0.17657572866E+03 -0.12024117144E+03  0.12867100263E+03  0.27895905466E+03  0.12500000000E+03 0.  0.
          2    1    1    2  501    0 -0.37189103957E+02 -0.12100105345E+02  0.21294263484E+03  0.21650405940E+03  0.00000000000E+00 0.  1.
         -2    1    1    2    0  503  0.21376483262E+03  0.13234127678E+03  0.73053725091E+03  0.77258934251E+03  0.00000000000E+00 0. -1.
<mgrwt>
<rscale>  4 0.25446829E+03</rscale>
<asrwt>0</asrwt>
<pdfrwt beam="1">  1       21 0.18001563E+00 0.25446829E+03</pdfrwt>
<pdfrwt beam="2">  1       21 0.15069352E-01 0.25446829E+03</pdfrwt>
<totfact> 0.67526772E+03</totfact>
</mgrwt>
</event>
<event>
 5    0  0.1972558E-002  0.2591870E+03  0.7546771E-02  0.1107633E+00
         21   -1    0    0  501  502  0.00000000000E+00  0.00000000000E+00  0.39801682980E+03  0.39801682980E+03  0.00000000000E+00 0.  1.
         21   -1    0    0  502  503 -0.00000000000E+00 -0.00000000000E+00 -0.21450441781E+03  0.21450441781E+03  0.00000000000E+00 0.  1.
         25    1    1    2    0    0 -0.24806015178E+03 -0.28465424390E+02  0.91391700039E+02  0.29380531330E+03  0.12500000000E+03 0.  0.
          4    1    1    2  501    0  0.48264485874E+02 -0.54979379155E+02  0.69685096019E+02  0.10103566368E+03  0.00000000000E+00 0. -1.
         -4    1    1    2    0  503  0.19979566591E+03  0.83444803545E+02  0.22435615931E+02  0.21768027062E+03  0.00000000000E+00 0.  1.
<mgrwt>
<rscale>  4 0.25918704E+03</rscale>
<asrwt>0</asrwt>
<pdfrwt beam="1">  1       21 0.61233358E-01 0.25918704E+03</pdfrwt>
<pdfrwt beam="2">  1       21 0.33000680E-01 0.25918704E+03</pdfrwt>
<totfact> 0.21166418E+04</totfact>
</mgrwt>
</event>
<event>
 5    0  0.1972558E-002  0.2129130E+03  0.7546771E-02  0.1139280E+00
         21   -1    0    0  501  502  0.00000000000E+00  0.00000000000E+00  0.24019967102E+03  0.24019967102E+03  0.00000000000E+00 0.  1.
         21   -1    0    0  502  503 -0.00000000000E+00 -0.00000000000E+00 -0.70992039802E+03  0.70992039802E+03  0.00000000000E+00 0. -1.
         25    1    1    2    0    0 -0.83896626300E+02  0.21649673075E+03 -0.43696371684E+03  0.51036434845E+03  0.12500000000E+03 0.  0.
          4    1    1    2  501    0  0.11661954684E+03 -0.12217639125E+03  0.15362762382E+03  0.22831696408E+03  0.00000000000E+00 0.  1.
         -4    1    1    2    0  503 -0.32722920543E+02 -0.94320339497E+02 -0.18638463398E+03  0.21143875651E+03  0.00000000000E+00 0. -1.
<mgrwt>
<rscale>  4 0.21291305E+03</rscale>
<asrwt>0</asrwt>
<pdfrwt beam="1">  1       21 0.36953796E-01 0.21291305E+03</pdfrwt>
<pdfrwt beam="2">  1       21 0.10921852E+00 0.21291305E+03</pdfrwt>
<totfact> 0.46181494E+03</totfact>
</mgrwt>
</event>
<event>
 5    0  0.1972558E-002  0.2805762E+03  0.7546771E-02  0.1095375E+00
         21   -1    0    0  501  502  0.00000000000E+00  0.00000000000E+00  0.32201695378E+03  0.32201695378E+03  0.00000000000E+00 0.  1.
         21   -1    0    0  502  503 -0.00000000000E+00 -0.00000000000E+00 -0.60914383266E+03  0.60914383266E+03  0.00000000000E+00 0.  1.
         25    1    1    2    0    0 -0.21150323264E+03 -0.12058437367E+03 -0.41603141784E+03  0.49797725774E+03  0.12500000000E+03 0.  0.
          1    1    1    2  501    0  0.26092415434E+03  0.97900280659E+02 -0.15260834495E+02  0.27910351546E+03  0.00000000000E+00 0.  1.
         -1    1    1    2    0  503 -0.49420921701E+02  0.22684093015E+02  0.14416537345E+03  0.15408001324E+03  0.00000000000E+00 0. -1.
<mgrwt>
<rscale>  4 0.28057624E+03</rscale>
<asrwt>0</asrwt>
<pdfrwt beam="1">  1       21 0.49541070E-01 0.28057624E+03</pdfrwt>
<pdfrwt beam="2">  1       21 0.93714435E-01 0.28057624E+03</pdfrwt>
<totfact> 0.34918891E+03</totfact>
</mgrwt>
</event>
<event>
 5    0  0.1972558E-002  0.2772127E+03  0.7546771E-02  0.1097221E+00
         21   -1    0    0  501  502  0.00000000000E+00  0.00000000000E+00  0.75665588243E+03  0.75665588243E+03  0.00000000000E+00 0.  1.
         21   -1    0    0  502  503 -0.00000000000E+00 -0.00000000000E+00 -0.14720891495E+03  0.14720891495E+03  0.00000000000E+00 0.  1.
         25    1    1    2    0    0  0.52465087684E+02  0.24180419597E+03  0.41485018732E+02  0.28029959221E+03  0.12500000000E+03 0.  0.
          2    1    1    2  501    0 -0.41609382394E+02 -0.21994341961E+03  0.54826821875E+03  0.59220308022E+03  0.00000000000E+00 0.  1.
         -2    1    1    2    0  503 -0.10855705290E+02 -0.21860776354E+02  0.19693729995E+02  0.31362124948E+02  0.00000000000E+00 0. -1.
<mgrwt>
<rscale>  4 0.27721265E+03</rscale>
<asrwt>0</asrwt>
<pdfrwt beam="1">  1       21 0.11640860E+00 0.27721265E+03</pdfrwt>
<pdfrwt beam="2">  1       21 0.22647526E-01 0.27721265E+03</pdfrwt>
<totfact> 0.98727208E+03</totfact>
</mgrwt>
</event>
<event>
 5    0  0.1972558E-002  0.2338456E+03  0.7546771E-02  0.1123962E+00
         21   -1    0    0  501  502  0.00000000000E+00  0.00000000000E+00  0.15420245880E+04  0.15420245880E+04  0.00000000000E+00 0.  1.
         21   -1    0    0  502  503 -0.00000000000E+00 -0.00000000000E+00 -0.73856192075E+02  0.73856192075E+02  0.00000000000E+00 0. -1.
         25    1    1    2    0    0 -0.18915729202E+03 -0.11558488879E+03  0.23088409118E+03  0.34361724521E+03  0.12500000000E+03 0.  0.
          1    1    1    2  501    0  0.15915251695E+03  0.44761126166E+02  0.42000436826E+03  0.45137207648E+03  0.00000000000E+00 0.  1.
         -1    1    1    2    0  503  0.30004775073E+02  0.70823762624E+02  0.81727993646E+03  0.82089145836E+03  0.00000000000E+00 0. -1.
<mgrwt>
<rscale>  4 0.23384565E+03</rscale>
<asrwt>0</asrwt>
<pdfrwt beam="1">  1       21 0.23723453E+00 0.23384565E+03</pdfrwt>
<pdfrwt beam="2">  1       21 0.11362492E-01 0.23384565E+03</pdfrwt>
<totfact> 0.49254738E+03</totfact>
</mgrwt>
</event>
<event>
 5    0  0.1972558E-002  0.2298224E+03  0.7546771E-02  0.1126765E+00
         21   -1    0    0  501  502  0.00000000000E+00  0.00000000000E+00  0.37187351352E+02  0.37187351352E+02  0.00000000000E+00 0.  1.
         21   -1    0    0  502  503 -0.00000000000E+00 -0.00000000000E+00 -0.24725734113E+04  0.24725734113E+04  0.00000000000E+00 0.  1.
         25    1    1    2    0    0  0.15952908960E+03  0.13895192979E+03 -0.15931293692E+04  0.16119687826E+04  0.12500000000E+03 0.  0.
          4    1    1    2  501    0 -0.14882795521E+03 -0.93504668256E+02 -0.83150687938E+03  0.84988032904E+03  0.00000000000E+00 0. -1.
         -4    1    1    2    0  503 -0.10701134392E+02 -0.45447261538E+02 -0.10749811439E+02  0.47911651031E+02  0.00000000000E+00 0.  1.
<mgrwt>
<rscale>  4 0.22982236E+03</rscale>
<asrwt>0</asrwt>
<pdfrwt beam="1">  1       21 0.57211306E-02 0.22982236E+03</pdfrwt>
<pdfrwt beam="2">  1       21 0.38039593E+00 0.22982236E+03</pdfrwt>
<totfact> 0.23429464E+03</totfact>
</mgrwt>
</event>
<event>
 5    0  0.1972558E-002  0.2606323E+03  0.7546771E-02  0.1106764E+00
         21   -1    0    0  501  502  0.00000000000E+00  0.00000000000E+00  0.54612618576E+03  0.54612618576E+03  0.00000000000E+00 0.  1.
         21   -1    0    0  502  503 -0.00000000000E+00 -0.00000000000E+00 -0.54015441544E+03  0.54015441544E+03  0.00000000000E+00 0. -1.
         25    1    1    2    0    0  0.23417642168E+03  0.59193934699E+02 -0.43204893252E+03  0.51052306360E+03  0.12500000000E+03 0.  0.
          2    1    1    2  501    0 -0.18163516913E+03 -0.41280078742E+02  0.62972985682E+02  0.19662394690E+03  0.00000000000E+00 0. -1.
         -2    1    1    2    0  503 -0.52541252544E+02 -0.17913855957E+02  0.37504771716E+03  0.37913359070E+03  0.00000000000E+00 0.  1.
<mgrwt>
<rscale>  4 0.26063234E+03</rscale>
<asrwt>0</asrwt>
<pdfrwt beam="1">  1       21 0.84019414E-01 0.26063234E+03</pdfrwt>
<pdfrwt beam="2">  1       21 0.83100678E-01 0.26063234E+03</pdfrwt>
<totfact> 0.14674142E+03</totfact>
</mgrwt>
</event>
<event>
 5    0  0.1972558E-002  0.3328635E+03  0.7546771E-02  0.1069877E+00
         21   -1    0    0  501  502  0.00000000000E+00  0.00000000000E+00  0.49928861320E+03  0.49928861320E+03  0.00000000000E+00 0. -1.
         21   -1    0    0  502  503 -0.00000000000E+00 -0.00000000000E+00 -0.78087972667E+03  0.78087972667E+03  0.00000000000E+00 0.  1.
         25    1    1    2    0    0 -0.15448580400E+03  0.21223622650E+03 -0.35446701426E+02  0.29290194284E+03  0.12500000000E+03 0.  0.
          2    1    1    2  501    0  0.22305754331E+03 -0.23556797644E+03 -0.56975813278E+03  0.65564568863E+03  0.00000000000E+00 0.  1.
         -2    1    1    2    0  503 -0.68571739310E+02  0.23331749947E+02  0.32361372074E+03  0.33162070839E+03  0.00000000000E+00 0. -1.
<mgrwt>
<rscale>  4 0.33286353E+03</rscale>
<asrwt>0</asrwt>
<pdfrwt beam="1">  1       21 0.76813633E-01 0.33286353E+03</pdfrwt>
<pdfrwt beam="2">  1       21 0.12013534E+00 0.33286353E+03</pdfrwt>
<totfact> 0.70929530E+02</totfact>
</mgrwt>
</event>
<event>
 5    0  0.1972558E-002  0.2630237E+03  0.7546771E-02  0.1105340E+00
         21   -1    0    0  501  502  0.00000000000E+00  0.00000000000E+00  0.25648154129E+03  0.25648154129E+03  0.00000000000E+00 0. -1.
         21   -1    0    0  502  503 -0.00000000000E+00 -0.00000000000E+00 -0.10587406323E+04  0.10587406323E+04  0.00000000000E+00 0.  1.
         25    1    1    2    0    0 -0.15194428340E+03 -0.18779393309E+03 -0.92630794739E+03  0.96541443949E+03  0.12500000000E+03 0.  0.
          2    1    1    2  501    0  0.85501294511E+02  0.94117402243E+02  0.18132810878E+03  0.22146882355E+03  0.00000000000E+00 0. -1.
         -2    1    1    2    0  503  0.66442988888E+02  0.93676530850E+02 -0.57279252369E+02  0.12833891053E+03  0.00000000000E+00 0.  1.
<mgrwt>
<rscale>  4 0.26302372E+03</rscale>
<asrwt>0</asrwt>
<pdfrwt beam="1">  1       21 0.39458699E-01 0.26302372E+03</pdfrwt>
<pdfrwt beam="2">  1       21 0.16288317E+00 0.26302372E+03</pdfrwt>
<totfact> 0.13952036E+03</totfact>
</mgrwt>
</event>
<event>
 5    0  0.1972558E-002  0.2718501E+03  0.7546771E-02  0.1100225E+00
         21   -1    0    0  501  502  0.00000000000E+00  0.00000000000E+00  0.14021547030E+04  0.14021547030E+04  0.00000000000E+00 0.  1.
         21   -1    0    0  502  503 -0.00000000000E+00 -0.00000000000E+00 -0.68273707341E+02  0.68273707341E+02  0.00000000000E+00 0.  1.
         25    1    1    2    0    0 -0.16404144525E+03  0.19719692266E+03  0.45130166646E+03  0.53394233417E+03  0.12500000000E+03 0.  0.
          3    1    1    2  501    0  0.28442022267E+02 -0.15617309428E+02  0.42125795539E+03  0.42250575613E+03  0.00000000000E+00 0. -1.
         -3    1    1    2    0  503  0.13559942298E+03 -0.18157961323E+03  0.46132137378E+03  0.51398032001E+03  0.00000000000E+00 0.  1.
<mgrwt>
<rscale>  4 0.27185010E+03</rscale>
<asrwt>0</asrwt>
<pdfrwt beam="1">  1       21 0.21571609E+00 0.27185010E+03</pdfrwt>
<pdfrwt beam="2">  1       21 0.10503648E-01 0.27185010E+03</pdfrwt>
<totfact> 0.74773500E+03</totfact>
</mgrwt>
</event>
<event>
 5    0  0.1972558E-002  0.2055052E+03  0.7546771E-02  0.1145176E+00
         21   -1    0    0  501  502  0.00000000000E+00  0.00000000000E+00  0.63601274360E+02  0.63601274360E+02  0.00000000000E+00 0. -1.
         21   -1    0    0  502  503 -0.00000000000E+00 -0.00000000000E+00 -0.11607498962E+04  0.11607498962E+04  0.00000000000E+00 0. -1.
         25    1    1    2    0    0  0.23788014629E+01 -0.20951831341E+03 -0.35906463284E+03  0.43411518392E+03  0.12500000000E+03 0.  0.
          1    1    1    2  501    0  0.81349876105E+02  0.77638501987E+02 -0.19467984927E+03  0.22482389340E+03  0.00000000000E+00 0.  1.
         -1    1    1    2    0  503 -0.83728677568E+02  0.13187981142E+03 -0.54340413975E+03  0.56541209326E+03  0.00000000000E+00 0. -1.
<mgrwt>
<rscale>  4 0.20550518E+03</rscale>
<asrwt>0</asrwt>
<pdfrwt beam="1">  1       21 0.97848115E-02 0.20550518E+03</pdfrwt>
<pdfrwt beam="2">  1       21 0.17857691E+00 0.20550518E+03</pdfrwt>
<totfact> 0.15540773E+04</totfact>
</mgrwt>
</event>
<event>
 5    0  0.1972558E-002  0.2043896E+03  0.7546771E-02  0.1146087E+00
         21   -1    0    0  501  502  0.00000000000E+00  0.00000000000E+00  0.35386259733E+03  0.35386259733E+03  0.00000000000E+00 0.  1.
         21   -1    0    0  502  503 -0.00000000000E+00 -0.00000000000E+00 -0.47353496148E+03  0.47353496148E+03  0.00000000000E+00 0. -1.
         25    1    1    2    0    0 -0.14256064264E+03 -0.19376906119E+03 -0.24785861344E+03  0.36732666411E+03  0.12500000000E+03 0.  0.
          2    1    1    2  501    0  0.55335099252E+02  0.10104737063E+03  0.25535059588E+03  0.28013652232E+03  0.00000000000E+00 0.  1.
         -2    1    1    2    0  503  0.87225543386E+02  0.92721690566E+02 -0.12716434659E+03  0.17993437238E+03  0.00000000000E+00 0. -1.
<mgrwt>
<rscale>  4 0.20438962E+03</rscale>
<asrwt>0</asrwt>
<pdfrwt beam="1">  1       21 0.54440399E-01 0.20438962E+03</pdfrwt>
<pdfrwt beam="2">  1       21 0.72851533E-01 0.20438962E+03</pdfrwt>
<totfact> 0.53579455E+03</totfact>
</mgrwt>
</event>
<event>
 5    0  0.1972558E-002  0.3450334E+03  0.7546771E-02  0.1064672E+00
         21   -1    0    0  501  502  0.00000000000E+00  0.00000000000E+00  0.50367368497E+03  0.50367368497E+03  0.00000000000E+00 0. -1.
         21   -1    0    0  502  503 -0.00000000000E+00 -0.00000000000E+00 -0.96367707585E+03  0.96367707585E+03  0.00000000000E+00 0.  1.
         25    1    1    2    0    0 -0.15111059021E+03  0.27778961642E+03 -0.60206266231E+03  0.69145204520E+03  0.12500000000E+03 0.  0.
          3    1    1    2  501    0  0.14292986501E+03 -0.30007719052E+03 -0.22928859972E+03  0.40379268015E+03  0.00000000000E+00 0.  1.
         -3    1    1    2    0  503  0.81807252034E+01  0.22287574107E+02  0.37134787114E+03  0.37210603546E+03  0.00000000000E+00 0. -1.
<mgrwt>
<rscale>  4 0.34503339E+03</rscale>
<asrwt>0</asrwt>
<pdfrwt beam="1">  1       21 0.77488259E-01 0.34503339E+03</pdfrwt>
<pdfrwt beam="2">  1       21 0.14825801E+00 0.34503339E+03</pdfrwt>
<totfact> 0.39964068E+02</totfact>
</mgrwt>
</event>
<event>
 5    0  0.1972558E-002  0.2592142E+03  0.7546771E-02  0.1107616E+00
         21   -1    0    0  501  502  0.00000000000E+00  0.00000000000E+00  0.34119543999E+03  0.34119543999E+03  0.00000000000E+00 0.  1.
         21   -1    0    0  502  503 -0.00000000000E+00 -0.00000000000E+00 -0.25315088142E+03  0.25315088142E+03  0.00000000000E+00 0.  1.
         25    1    1    2    0    0 -0.10824938064E+03  0.18602811583E+03  0.10806635882E+03  0.27134429457E+03  0.12500000000E+03 0.  0.
          3    1    1    2  501    0  0.12843478139E+03 -0.19338815786E+03 -0.90616357066E+02  0.24921034658E+03  0.00000000000E+00 0.  1.
         -3    1    1    2    0  503 -0.20185400752E+02  0.73600420289E+01  0.70594556826E+02  0.73791680260E+02  0.00000000000E+00 0. -1.
<mgrwt>
<rscale>  4 0.25921417E+03</rscale>
<asrwt>0</asrwt>
<pdfrwt beam="1">  1       21 0.52491606E-01 0.25921417E+03</pdfrwt>
<pdfrwt beam="2">  1       21 0.38946289E-01 0.25921417E+03</pdfrwt>
<totfact> 0.21121478E+04</totfact>
</mgrwt>
</event>
<event>
 5    0  0.1972558E-002  0.2295476E+03  0.7546771E-02  0.1126959E+00
         21   -1    0    0  501  502  0.00000000000E+00  0.00000000000E+00  0.15770464236E+03  0.15770464236E+03  0.00000000000E+00 0.  1.
         21   -1    0    0  502  503 -0.00000000000E+00 -0.00000000000E+00 -0.82556690447E+03  0.82556690447E+03  0.00000000000E+00 0. -1.
         25    1    1    2    0    0  0.14210232318E+03 -0.14687907889E+03 -0.66157621920E+03  0.70361539770E+03  0.12500000000E+03 0.  0.
          4    1    1    2  501    0  0.21256536938E+02  0.10971582489E+03 -0.88277655858E+01  0.11210411249E+03  0.00000000000E+00 0. -1.
         -4    1    1    2    0  503 -0.16335886012E+03  0.37163254008E+02  0.25417226678E+01  0.16755203664E+03  0.00000000000E+00 0.  1.
<mgrwt>
<rscale>  4 0.22954763E+03</rscale>
<asrwt>0</asrwt>
<pdfrwt beam="1">  1       21 0.24262253E-01 0.22954763E+03</pdfrwt>
<pdfrwt beam="2">  1       21 0.12701029E+00 0.22954763E+03</pdfrwt>
<totfact> 0.71550203E+03</totfact>
</mgrwt>
</event>
<event>
 5    0  0.1972558E-002  0.4314954E+03  0.7546771E-02  0.1033389E+00
         21   -1    0    0  501  502  0.00000000000E+00  0.00000000000E+00  0.28971082824E+03  0.28971082824E+03  0.00000000000E+00 0. -1.
         21   -1    0    0  502  503 -0.00000000000E+00 -0.00000000000E+00 -0.15079735739E+04  0.15079735739E+04  0.00000000000E+00 0.  1.
         25    1    1    2    0    0  0.11106995366E+02  0.39043817408E+03 -0.40451886080E+03  0.57604326388E+03  0.12500000000E+03 0.  0.
          1    1    1    2  501    0  0.49263762673E+02  0.30823599154E+02  0.15392399834E+03  0.16452844691E+03  0.00000000000E+00 0. -1.
         -1    1    1    2    0  503 -0.60370758040E+02 -0.42126177323E+03 -0.96766788318E+03  0.10571126913E+04  0.00000000000E+00 0.  1.
<mgrwt>
<rscale>  4 0.43149540E+03</rscale>
<asrwt>0</asrwt>
<pdfrwt beam="1">  1       21 0.44570896E-01 0.43149540E+03</pdfrwt>
<pdfrwt beam="2">  1       21 0.23199594E+00 0.43149540E+03</pdfrwt>
<totfact> 0.33595737E+02</totfact>
</mgrwt>
</event>
<event>
 5    0  0.1972558E-002  0.2397965E+03  0.7546771E-02  0.1119928E+00
         21   -1    0    0  501  502  0.00000000000E+00  0.00000000000E+00  0.33237069312E+03  0.33237069312E+03  0.00000000000E+00 0. -1.
         21   -1    0    0  502  503 -0.00000000000E+00 -0.00000000000E+00 -0.59307486563E+03  0.59307486563E+03  0.00000000000E+00 0. -1.
         25    1    1    2    0    0  0.16738809398E+03  0.15179283087E+03 -0.45689963922E+03  0.52482579760E+03  0.12500000000E+03 0.  0.
          1    1    1    2  501    0 -0.29852097686E+02 -0.64004304281E+02  0.22420728771E+03  0.23506723839E+03  0.00000000000E+00 0. -1.
         -1    1    1    2    0  503 -0.13753599629E+03 -0.87788526593E+02 -0.28011820993E+02  0.16555252276E+03  0.00000000000E+00 0.  1.
<mgrwt>
<rscale>  4 0.23979651E+03</rscale>
<asrwt>0</asrwt>
<pdfrwt beam="1">  1       21 0.51133954E-01 0.23979651E+03</pdfrwt>
<pdfrwt beam="2">  1       21 0.91242285E-01 0.23979651E+03</pdfrwt>
<totfact> 0.35694947E+03</totfact>
</mgrwt>
</event>
<event>
 5    0  0.1972558E-002  0.2358976E+03  0.7546771E-02  0.1122556E+00
         21   -1    0    0  501  502  0.00000000000E+00  0.00000000000E+00  0.69187427539E+03  0.69187427539E+03  0.00000000000E+00 0. -1.
         21   -1    0    0  502  503 -0.00000000000E+00 -0.00000000000E+00 -0.40464160865E+03  0.40464160865E+03  0.00000000000E+00 0.  1.
         25    1    1    2    0    0  0.10500234497E+03  0.17730472292E+03 -0.31011444375E+03  0.39275746389E+03  0.12500000000E+03 0.  0.
          3    1    1    2  501    0 -0.89684856078E+02 -0.15399419822E+03  0.97502603439E+02  0.20313626996E+03  0.00000000000E+00 0.  1.
         -3    1    1    2    0  503 -0.15317488896E+02 -0.23310524696E+02  0.49984450705E+03  0.50062215019E+03  0.00000000000E+00 0. -1.
<mgrwt>
<rscale>  4 0.23589764E+03</rscale>
<asrwt>0</asrwt>
<pdfrwt beam="1">  1       21 0.10644220E+00 0.23589764E+03</pdfrwt>
<pdfrwt beam="2">  1       21 0.62252555E-01 0.23589764E+03</pdfrwt>
<totfact> 0.16296057E+03</totfact>
</mgrwt>
</event>
<event>
 5    0  0.1972558E-002  0.2606738E+03  0.7546771E-02  0.1106739E+00
         21   -1    0    0  501  502  0.00000000000E+00  0.00000000000E+00  0.20978780081E+03  0.20978780081E+03  0.00000000000E+00 0.  1.
         21   -1    0    0  502  503 -0.00000000000E+00 -0.00000000000E+00 -0.38927770369E+03  0.38927770369E+03  0.00000000000E+00 0.  1.
         25    1    1    2    0    0 -0.72668368708E+02 -0.22677769221E+03 -0.12054420375E+03  0.29472821133E+03  0.12500000000E+03 0.  0.
          4    1    1    2  501    0  0.11291671173E+03  0.19263483437E+03 -0.92612726145E+02  0.24173431747E+03  0.00000000000E+00 0.  1.
         -4    1    1    2    0  503 -0.40248343020E+02  0.34142857836E+02  0.33667027023E+02  0.62602975693E+02  0.00000000000E+00 0. -1.
<mgrwt>
<rscale>  4 0.26067381E+03</rscale>
<asrwt>0</asrwt>
<pdfrwt beam="1">  1       21 0.32275046E-01 0.26067381E+03</pdfrwt>
<pdfrwt beam="2">  1       21 0.59888877E-01 0.26067381E+03</pdfrwt>
<totfact> 0.23194732E+04</totfact>
</mgrwt>
</event>
<event>
 5    0  0.1972558E-002  0.2667505E+03  0.7546771E-02  0.1103154E+00
         21   -1    0    0  503  502  0.00000000000E+00  0.00000000000E+00  0.67015300926E+03  0.67015300926E+03  0.00000000000E+00 0. -1.
         21   -1    0    0  501  503 -0.00000000000E+00 -0.00000000000E+00 -0.72475942795E+03  0.72475942795E+03  0.00000000000E+00 0.  1.
         25    1    1    2    0    0  0.14294981909E+03 -0.18781545702E+03 -0.67461430630E+03  0.72556099601E+03  0.12500000000E+03 0.  0.
          4    1    1    2  501    0  0.10267928112E+02  0.18730504392E+02  0.86459909071E+02  0.89059407246E+02  0.00000000000E+00 0.  1.
         -4    1    1    2    0  502 -0.15321774720E+03  0.16908495263E+03  0.53354797854E+03  0.58029203395E+03  0.00000000000E+00 0. -1.
<mgrwt>
<rscale>  4 0.26675051E+03</rscale>
<asrwt>0</asrwt>
<pdfrwt beam="1">  1       21 0.10310046E+00 0.26675051E+03</pdfrwt>
<pdfrwt beam="2">  1       21 0.11150145E+00 0.26675051E+03</pdfrwt>
<totfact> 0.44901697E+02</totfact>
</mgrwt>
</event>
<event>
 5    0  0.1972558E-002  0.2668401E+03  0.7546771E-02  0.1103102E+00
         21   -1    0    0  501  502  0.00000000000E+00  0.00000000000E+00  0.15189882947E+03  0.15189882947E+03  0.00000000000E+00 0. -1.
         21   -1    0    0  502  503 -0.00000000000E+00 -0.00000000000E+00 -0.14250324476E+04  0.14250324476E+04  0.00000000000E+00 0.  1.
         25    1    1    2    0    0  0.20200163731E+03  0.88019517271E+02 -0.96346259546E+03  0.99621145835E+03  0.12500000000E+03 0.  0.
          3    1    1    2  501    0  0.19042991856E+02  0.14089758409E+03 -0.82676324383E+01  0.14241881367E+03  0.00000000000E+00 0.  1.
         -3    1    1    2    0  503 -0.22104462917E+03 -0.22891710136E+03 -0.30140339019E+03  0.43830100502E+03  0.00000000000E+00 0. -1.
<mgrwt>
<rscale>  4 0.26684015E+03</rscale>
<asrwt>0</asrwt>
<pdfrwt beam="1">  1       21 0.23369051E-01 0.26684015E+03</pdfrwt>
<pdfrwt beam="2">  1       21 0.21923576E+00 0.26684015E+03</pdfrwt>
<totfact> 0.16326552E+03</totfact>
</mgrwt>
</event>
<event>
 5    0  0.1972558E-002  0.2505340E+03  0.7546771E-02  0.1112968E+00
         21   -1    0    0  501  502  0.00000000000E+00  0.00000000000E+00  0.16401787767E+03  0.16401787767E+03  0.00000000000E+00 0. -1.
         21   -1    0    0  502  503 -0.00000000000E+00 -0.00000000000E+00 -0.34602790946E+03  0.34602790946E+03  0.00000000000E+00 0. -1.
         25    1    1    2    0    0 -0.31320956985E+02 -0.21485174101E+03 -0.68514098582E+02  0.25973343001E+03  0.12500000000E+03 0.  0.
          3    1    1    2  501    0  0.10108510441E+02  0.50020479756E+02 -0.37789656714E+01  0.51171388098E+02  0.00000000000E+00 0.  1.
         -3    1    1    2    0  503  0.21212446544E+02  0.16483126126E+03 -0.10971696754E+03  0.19914096902E+03  0.00000000000E+00 0. -1.
<mgrwt>
<rscale>  4 0.25053398E+03</rscale>
<asrwt>0</asrwt>
<pdfrwt beam="1">  1       21 0.25233520E-01 0.25053398E+03</pdfrwt>
<pdfrwt beam="2">  1       21 0.53235063E-01 0.25053398E+03</pdfrwt>
<totfact> 0.48446711E+04</totfact>
</mgrwt>
</event>
<event>
 5    0  0.1972558E-002  0.3589032E+03  0.7546771E-02  0.1059019E+00
         21   -1    0    0  501  502  0.00000000000E+00  0.00000000000E+00  0.12552105872E+04  0.12552105872E+04  0.00000000000E+00 0. -1.
         21   -1    0    0  502  503 -0.00000000000E+00 -0.00000000000E+00 -0.34683646273E+03  0.34683646273E+03  0.00000000000E+00 0. -1.
         25    1    1    2    0    0  0.33668824511E+03  0.26199517436E+02 -0.20794446609E+03  0.41582603344E+03  0.12500000000E+03 0.  0.
          2    1    1    2  501    0 -0.91239271385E+01 -0.22989248921E+02  0.37423001746E+03  0.37504647389E+03  0.00000000000E+00 0.  1.
         -2    1    1    2    0  503 -0.32756431797E+03 -0.32102685145E+01  0.74208857314E+03  0.81117454263E+03  0.00000000000E+00 0. -1.
<mgrwt>
<rscale>  4 0.35890322E+03</rscale>
<asrwt>0</asrwt>
<pdfrwt beam="1">  1       21 0.19310932E+00 0.35890322E+03</pdfrwt>
<pdfrwt beam="2">  1       21 0.53359456E-01 0.35890322E+03</pdfrwt>
<totfact> 0.42781874E+02</totfact>
</mgrwt>
</event>
<event>
 5    0  0.1972558E-002  0.2352717E+03  0.7546771E-02  0.1122983E+00
         21   -1    0    0  501  502  0.00000000000E+00  0.00000000000E+00  0.23571872822E+03  0.23571872822E+03  0.00000000000E+00 0. -1.
         21   -1    0    0  502  503 -0.00000000000E+00 -0.00000000000E+00 -0.71779911587E+03  0.71779911587E+03  0.00000000000E+00 0.  1.
         25    1    1    2    0    0  0.10601588478E+03 -0.18986373466E+03 -0.54365339841E+03  0.59872499794E+03  0.12500000000E+03 0.  0.
          2    1    1    2  501    0 -0.52746343471E+02  0.15982428495E+03 -0.90351168782E+02  0.19102175925E+03  0.00000000000E+00 0.  1.
         -2    1    1    2    0  503 -0.53269541308E+02  0.30039449710E+02  0.15192417954E+03  0.16377108689E+03  0.00000000000E+00 0. -1.
<mgrwt>
<rscale>  4 0.23527172E+03</rscale>
<asrwt>0</asrwt>
<pdfrwt beam="1">  1       21 0.36264420E-01 0.23527172E+03</pdfrwt>
<pdfrwt beam="2">  1       21 0.11043063E+00 0.23527172E+03</pdfrwt>
<totfact> 0.45937690E+03</totfact>
</mgrwt>
</event>
<event>
 5    0  0.1972558E-002  0.3675551E+03  0.7546771E-02  0.1055632E+00
         21   -1    0    0  501  502  0.00000000000E+00  0.00000000000E+00  0.36066932521E+03  0.36066932521E+03  0.00000000000E+00 0. -1.
         21   -1    0    0  502  503 -0.00000000000E+00 -0.00000000000E+00 -0.30524817480E+04  0.30524817480E+04  0.00000000000E+00 0.  1.
         25    1    1    2    0    0  0.30447593581E+03  0.15469547974E+03 -0.96078092656E+03  0.10273077805E+04  0.12500000000E+03 0.  0.
          1    1    1    2  501    0 -0.29518166099E+03 -0.18407603537E+03 -0.20429752034E+04  0.20723812105E+04  0.00000000000E+00 0.  1.
         -1    1    1    2    0  503 -0.92942748166E+01  0.29380555630E+02  0.31194370717E+03  0.31346208229E+03  0.00000000000E+00 0. -1.
<mgrwt>
<rscale>  4 0.36755514E+03</rscale>
<asrwt>0</asrwt>
<pdfrwt beam="1">  1       21 0.55487590E-01 0.36755514E+03</pdfrwt>
<pdfrwt beam="2">  1       21 0.46961256E+00 0.36755514E+03</pdfrwt>
<totfact> 0.72320096E+00</totfact>
</mgrwt>
</event>
<event>
 5    0  0.1972558E-002  0.2669976E+03  0.7546771E-02  0.1103010E+00
         21   -1    0    0  501  502  0.00000000000E+00  0.00000000000E+00  0.20407374640E+04  0.20407374640E+04  0.00000000000E+00 0. -1.
         21   -1    0    0  502  503 -0.00000000000E+00 -0.00000000000E+00 -0.10673843848E+03  0.10673843848E+03  0.00000000000E+00 0.  1.
         25    1    1    2    0    0 -0.23094324922E+03  0.39775984237E+02  0.10070570616E+03  0.28404850384E+03  0.12500000000E+03 0.  0.
          3    1    1    2  501    0 -0.18871814860E+02 -0.51507671118E+02  0.73391109602E+03  0.73595834287E+03  0.00000000000E+00 0.  1.
         -3    1    1    2    0  503  0.24981506408E+03  0.11731686881E+02  0.10993822234E+04  0.11274690558E+04  0.00000000000E+00 0. -1.
<mgrwt>
<rscale>  4 0.26699763E+03</rscale>
<asrwt>0</asrwt>
<pdfrwt beam="1">  1       21 0.31395958E+00 0.26699763E+03</pdfrwt>
<pdfrwt beam="2">  1       21 0.16421300E-01 0.26699763E+03</pdfrwt>
<totfact> 0.86347466E+02</totfact>
</mgrwt>
</event>
<event>
 5    0  0.1972558E-002  0.2708905E+03  0.7546771E-02  0.1100771E+00
         21   -1    0    0  501  502  0.00000000000E+00  0.00000000000E+00  0.18860924854E+04  0.18860924854E+04  0.00000000000E+00 0. -1.
         21   -1    0    0  502  503 -0.00000000000E+00 -0.00000000000E+00 -0.33934922019E+03  0.33934922019E+03  0.00000000000E+00 0. -1.
         25    1    1    2    0    0 -0.10734776385E+03  0.21258877128E+03 -0.26205114978E+03  0.37551742060E+03  0.12500000000E+03 0.  0.
          1    1    1    2  501    0  0.10933544396E+03 -0.25521839632E+03  0.94166118755E+03  0.98174154504E+03  0.00000000000E+00 0.  1.
         -1    1    1    2    0  503 -0.19876801132E+01  0.42629625041E+02  0.86713322748E+03  0.86818273998E+03  0.00000000000E+00 0. -1.
<mgrwt>
<rscale>  4 0.27089045E+03</rscale>
<asrwt>0</asrwt>
<pdfrwt beam="1">  1       21 0.29016807E+00 0.27089045E+03</pdfrwt>
<pdfrwt beam="2">  1       21 0.52207573E-01 0.27089045E+03</pdfrwt>
<totfact> 0.12194172E+02</totfact>
</mgrwt>
</event>
<event>
 5    0  0.1972558E-002  0.3406664E+03  0.7546771E-02  0.1066512E+00
         21   -1    0    0  501  502  0.00000000000E+00  0.00000000000E+00  0.12765151354E+04  0.12765151354E+04  0.00000000000E+00 0.  1.
         21   -1    0    0  502  503 -0.00000000000E+00 -0.00000000000E+00 -0.48786023792E+03  0.48786023792E+03  0.00000000000E+00 0. -1.
         25    1    1    2    0    0  0.31451858465E+03 -0.75408921562E+02 -0.33462550985E+03  0.48187931828E+03  0.12500000000E+03 0.  0.
          3    1    1    2  501    0 -0.28936525083E+03  0.48458694964E+02  0.19232821215E+03  0.35081424528E+03  0.00000000000E+00 0. -1.
         -3    1    1    2    0  503 -0.25153333818E+02  0.26950226598E+02  0.93095219517E+03  0.93168180975E+03  0.00000000000E+00 0.  1.
<mgrwt>
<rscale>  4 0.34066641E+03</rscale>
<asrwt>0</asrwt>
<pdfrwt beam="1">  1       21 0.19638694E+00 0.34066641E+03</pdfrwt>
<pdfrwt beam="2">  1       21 0.75055422E-01 0.34066641E+03</pdfrwt>
<totfact> 0.19440048E+02</totfact>
</mgrwt>
</event>
<event>
 5    0  0.1972558E-002  0.2275743E+03  0.7546771E-02  0.1128359E+00
         21   -1    0    0  501  502  0.00000000000E+00  0.00000000000E+00  0.31100078229E+03  0.31100078229E+03  0.00000000000E+00 0. -1.
         21   -1    0    0  502  503 -0.00000000000E+00 -0.00000000000E+00 -0.53259459905E+03  0.53259459905E+03  0.00000000000E+00 0.  1.
         25    1    1    2    0    0 -0.12187496118E+03 -0.16694530984E+03 -0.38805829310E+03  0.45709789048E+03  0.12500000000E+03 0.  0.
          3    1    1    2  501    0 -0.50131442305E+02  0.12267022608E+03  0.16137215293E+03  0.20881120089E+03  0.00000000000E+00 0. -1.
         -3    1    1    2    0  503  0.17200640348E+03  0.44275083759E+02  0.50923234113E+01  0.17768628996E+03  0.00000000000E+00 0.  1.
<mgrwt>
<rscale>  4 0.22757430E+03</rscale>
<asrwt>0</asrwt>
<pdfrwt beam="1">  1       21 0.47846275E-01 0.22757430E+03</pdfrwt>
<pdfrwt beam="2">  1       21 0.81937630E-01 0.22757430E+03</pdfrwt>
<totfact> 0.53017781E+03</totfact>
</mgrwt>
</event>
<event>
 5    0  0.1972558E-002  0.4355805E+03  0.7546771E-02  0.1032111E+00
         21   -1    0    0  501  502  0.00000000000E+00  0.00000000000E+00  0.40447464072E+03  0.40447464072E+03  0.00000000000E+00 0.  1.
         21   -1    0    0  502  503 -0.00000000000E+00 -0.00000000000E+00 -0.94896632722E+03  0.94896632722E+03  0.00000000000E+00 0.  1.
         25    1    1    2    0    0 -0.24149105379E+03  0.33644968532E+03 -0.69968128657E+03  0.82261486894E+03  0.12500000000E+03 0.  0.
          3    1    1    2  501    0 -0.19860231353E+02  0.49625223079E+01  0.94393515859E+02  0.96587738628E+02  0.00000000000E+00 0. -1.
         -3    1    1    2    0  503  0.26135128514E+03 -0.34141220763E+03  0.60796084216E+02  0.43423836037E+03  0.00000000000E+00 0.  1.
<mgrwt>
<rscale>  4 0.43558050E+03</rscale>
<asrwt>0</asrwt>
<pdfrwt beam="1">  1       21 0.62226869E-01 0.43558050E+03</pdfrwt>
<pdfrwt beam="2">  1       21 0.14599482E+00 0.43558050E+03</pdfrwt>
<totfact> 0.64833480E+02</totfact>
</mgrwt>
</event>
<event>
 5    0  0.1972558E-002  0.2528055E+03  0.7546771E-02  0.1111545E+00
         21   -1    0    0  501  502  0.00000000000E+00  0.00000000000E+00  0.13529512230E+04  0.13529512230E+04  0.00000000000E+00 0. -1.
         21   -1    0    0  502  503 -0.00000000000E+00 -0.00000000000E+00 -0.79365795720E+02  0.79365795720E+02  0.00000000000E+00 0.  1.
         25    1    1    2    0    0 -0.55090028822E+02  0.20561436574E+03  0.32930841251E+03  0.41155948443E+03  0.12500000000E+03 0.  0.
          1    1    1    2  501    0 -0.31205141262E+02  0.42501093362E+01  0.64207792067E+03  0.64284981176E+03  0.00000000000E+00 0. -1.
         -1    1    1    2    0  503  0.86295170085E+02 -0.20986447507E+03  0.30219909414E+03  0.37790772257E+03  0.00000000000E+00 0.  1.
<mgrwt>
<rscale>  4 0.25280555E+03</rscale>
<asrwt>0</asrwt>
<pdfrwt beam="1">  1       21 0.20814633E+00 0.25280555E+03</pdfrwt>
<pdfrwt beam="2">  1       21 0.12210123E-01 0.25280555E+03</pdfrwt>
<totfact> 0.64576188E+03</totfact>
</mgrwt>
</event>
<event>
 5    0  0.1972558E-002  0.2725514E+03  0.7546771E-02  0.1099828E+00
         21   -1    0    0  501  502  0.00000000000E+00  0.00000000000E+00  0.95635638012E+03  0.95635638012E+03  0.00000000000E+00 0. -1.
         21   -1    0    0  502  503 -0.00000000000E+00 -0.00000000000E+00 -0.19531731698E+03  0.19531731698E+03  0.00000000000E+00 0.  1.
         25    1    1    2    0    0  0.10552568443E+03 -0.21799912479E+03 -0.70755962709E+02  0.28158603436E+03  0.12500000000E+03 0.  0.
          4    1    1    2  501    0 -0.69990135051E+02  0.17591236505E+03  0.51842157918E+03  0.55191005874E+03  0.00000000000E+00 0. -1.
         -4    1    1    2    0  503 -0.35535549383E+02  0.42086759742E+02  0.31337344667E+03  0.31817760400E+03  0.00000000000E+00 0.  1.
<mgrwt>
<rscale>  4 0.27255144E+03</rscale>
<asrwt>0</asrwt>
<pdfrwt beam="1">  1       21 0.14713175E+00 0.27255144E+03</pdfrwt>
<pdfrwt beam="2">  1       21 0.30048818E-01 0.27255144E+03</pdfrwt>
<totfact> 0.31418342E+03</totfact>
</mgrwt>
</event>
<event>
 5    0  0.1972558E-002  0.2454032E+03  0.7546771E-02  0.1116245E+00
         21   -1    0    0  501  502  0.00000000000E+00  0.00000000000E+00  0.11162938193E+04  0.11162938193E+04  0.00000000000E+00 0. -1.
         21   -1    0    0  502  503 -0.00000000000E+00 -0.00000000000E+00 -0.24158967095E+03  0.24158967095E+03  0.00000000000E+00 0. -1.
         25    1    1    2    0    0  0.20115363187E+03 -0.66894042227E+02 -0.16353660444E+03  0.29547727069E+03  0.12500000000E+03 0.  0.
          1    1    1    2  501    0 -0.18281687319E+03  0.81897526549E+02  0.95901133179E+03  0.97971013492E+03  0.00000000000E+00 0. -1.
         -1    1    1    2    0  503 -0.18336758680E+02 -0.15003484322E+02  0.79229421035E+02  0.82696084661E+02  0.00000000000E+00 0.  1.
<mgrwt>
<rscale>  4 0.24540318E+03</rscale>
<asrwt>0</asrwt>
<pdfrwt beam="1">  1       21 0.17173751E+00 0.24540318E+03</pdfrwt>
<pdfrwt beam="2">  1       21 0.37167642E-01 0.24540318E+03</pdfrwt>
<totfact> 0.13789001E+03</totfact>
</mgrwt>
</event>
<event>
 5    0  0.1972558E-002  0.2048247E+03  0.7546771E-02  0.1145731E+00
         21   -1    0    0  501  502  0.00000000000E+00  0.00000000000E+00  0.58509646652E+03  0.58509646652E+03  0.00000000000E+00 0.  1.
         21   -1    0    0  502  503 -0.00000000000E+00 -0.00000000000E+00 -0.15581430355E+03  0.15581430355E+03  0.00000000000E+00 0.  1.
         25    1    1    2    0    0  0.12312125710E+03  0.19598542443E+03  0.54977150624E+02  0.26873149728E+03  0.12500000000E+03 0.  0.
          2    1    1    2  501    0 -0.57675973023E+02 -0.92750818152E+02  0.32055618316E+03  0.33865247481E+03  0.00000000000E+00 0.  1.
         -2    1    1    2    0  503 -0.65445284073E+02 -0.10323460628E+03  0.53748829189E+02  0.13352679799E+03  0.00000000000E+00 0. -1.
<mgrwt>
<rscale>  4 0.20482471E+03</rscale>
<asrwt>0</asrwt>
<pdfrwt beam="1">  1       21 0.90014840E-01 0.20482471E+03</pdfrwt>
<pdfrwt beam="2">  1       21 0.23971432E-01 0.20482471E+03</pdfrwt>
<totfact> 0.17100235E+04</totfact>
</mgrwt>
</event>
<event>
 5    0  0.1972558E-002  0.2785292E+03  0.7546771E-02  0.1096495E+00
         21   -1    0    0  501  502  0.00000000000E+00  0.00000000000E+00  0.27681801377E+03  0.27681801377E+03  0.00000000000E+00 0. -1.
         21   -1    0    0  502  503 -0.00000000000E+00 -0.00000000000E+00 -0.48530799079E+03  0.48530799079E+03  0.00000000000E+00 0. -1.
         25    1    1    2    0    0  0.16825673375E+03  0.19307792663E+03 -0.30428468182E+03  0.41689756751E+03  0.12500000000E+03 0.  0.
          2    1    1    2  501    0 -0.14297319161E+03 -0.18637116353E+03 -0.11122449585E+02  0.23515793204E+03  0.00000000000E+00 0. -1.
         -2    1    1    2    0  503 -0.25283542146E+02 -0.67067630993E+01  0.10691715438E+03  0.11007050502E+03  0.00000000000E+00 0.  1.
<mgrwt>
<rscale>  4 0.27852923E+03</rscale>
<asrwt>0</asrwt>
<pdfrwt beam="1">  1       21 0.42587387E-01 0.27852923E+03</pdfrwt>
<pdfrwt beam="2">  1       21 0.74662767E-01 0.27852923E+03</pdfrwt>
<totfact> 0.80823059E+03</totfact>
</mgrwt>
</event>
<event>
 5    0  0.1972558E-002  0.2404857E+03  0.7546771E-02  0.1119470E+00
         21   -1    0    0  501  502  0.00000000000E+00  0.00000000000E+00  0.65985633652E+03  0.65985633652E+03  0.00000000000E+00 0. -1.
         21   -1    0    0  502  503 -0.00000000000E+00 -0.00000000000E+00 -0.20253991835E+03  0.20253991835E+03  0.00000000000E+00 0. -1.
         25    1    1    2    0    0 -0.99568919481E+02 -0.18560235297E+03 -0.93190112063E+02  0.26205266673E+03  0.12500000000E+03 0.  0.
          3    1    1    2  501    0  0.73099391354E+01  0.26424199740E+02  0.22315343013E+03  0.22483132994E+03  0.00000000000E+00 0.  1.
         -3    1    1    2    0  503  0.92258980346E+02  0.15917815323E+03  0.32735310010E+03  0.37551225821E+03  0.00000000000E+00 0. -1.
<mgrwt>
<rscale>  4 0.24048569E+03</rscale>
<asrwt>0</asrwt>
<pdfrwt beam="1">  1       21 0.10151636E+00 0.24048569E+03</pdfrwt>
<pdfrwt beam="2">  1       21 0.31159988E-01 0.24048569E+03</pdfrwt>
<totfact> 0.75853676E+03</totfact>
</mgrwt>
</event>
<event>
 5    0  0.1972558E-002  0.2498752E+03  0.7546771E-02  0.1113384E+00
         21   -1    0    0  501  502  0.00000000000E+00  0.00000000000E+00  0.36995197862E+03  0.36995197862E+03  0.00000000000E+00 0. -1.
         21   -1    0    0  502  503 -0.00000000000E+00 -0.00000000000E+00 -0.34036762770E+03  0.34036762770E+03  0.00000000000E+00 0. -1.
         25    1    1    2    0    0  0.10605424985E+03  0.18929278235E+03 -0.22344950943E+03  0.33560981009E+03  0.12500000000E+03 0.  0.
          3    1    1    2  501    0 -0.41018001896E+02  0.18494469762E+02  0.96743438784E+02  0.10669496164E+03  0.00000000000E+00 0.  1.
         -3    1    1    2    0  503 -0.65036247951E+02 -0.20778725211E+03  0.15629042157E+03  0.26801483459E+03  0.00000000000E+00 0. -1.
<mgrwt>
<rscale>  4 0.24987525E+03</rscale>
<asrwt>0</asrwt>
<pdfrwt beam="1">  1       21 0.56915689E-01 0.24987525E+03</pdfrwt>
<pdfrwt beam="2">  1       21 0.52364250E-01 0.24987525E+03</pdfrwt>
<totfact> 0.96810520E+03</totfact>
</mgrwt>
</event>
<event>
 5    0  0.1972558E-002  0.3817890E+03  0.7546771E-02  0.1050275E+00
         21   -1    0    0  501  502  0.00000000000E+00  0.00000000000E+00  0.37490853464E+03  0.37490853464E+03  0.00000000000E+00 0.  1.
         21   -1    0    0  502  503 -0.00000000000E+00 -0.00000000000E+00 -0.50284693483E+03  0.50284693483E+03  0.00000000000E+00 0. -1.
         25    1    1    2    0    0 -0.30530932115E+03 -0.21703132265E+03 -0.20567807221E+03  0.44524694943E+03  0.12500000000E+03 0.  0.
          2    1    1    2  501    0  0.24473068631E+02  0.22852326917E+02  0.84625554433E+02  0.91009034698E+02  0.00000000000E+00 0.  1.
         -2    1    1    2    0  503  0.28083625252E+03  0.19417899574E+03 -0.68858824236E+01  0.34149948534E+03  0.00000000000E+00 0. -1.
<mgrwt>
<rscale>  4 0.38178898E+03</rscale>
<asrwt>0</asrwt>
<pdfrwt beam="1">  1       21 0.57678236E-01 0.38178898E+03</pdfrwt>
<pdfrwt beam="2">  1       21 0.77361067E-01 0.38178898E+03</pdfrwt>
<totfact> 0.37514377E+03</totfact>
</mgrwt>
</event>
<event>
 5    0  0.1972558E-002  0.2643710E+03  0.7546771E-02  0.1104545E+00
         21   -1    0    0  503  502  0.00000000000E+00  0.00000000000E+00  0.34737899179E+03  0.34737899179E+03  0.00000000000E+00 0. -1.
         21   -1    0    0  501  503 -0.00000000000E+00 -0.00000000000E+00 -0.23608957866E+03  0.23608957866E+03  0.00000000000E+00 0. -1.
         25    1    1    2    0    0 -0.13905334437E+03  0.18234341416E+03  0.34206867893E+01  0.26119275328E+03  0.12500000000E+03 0.  0.
          4    1    1    2  501    0 -0.47065370547E+02 -0.34511410136E+02 -0.60970417120E+01  0.58680153816E+02  0.00000000000E+00 0.  1.
         -4    1    1    2    0  502  0.18611871491E+03 -0.14783200402E+03  0.11396576805E+03  0.26359566336E+03  0.00000000000E+00 0. -1.
<mgrwt>
<rscale>  4 0.26437104E+03</rscale>
<asrwt>0</asrwt>
<pdfrwt beam="1">  1       21 0.53442922E-01 0.26437104E+03</pdfrwt>
<pdfrwt beam="2">  1       21 0.36321473E-01 0.26437104E+03</pdfrwt>
<totfact> 0.23352182E+04</totfact>
</mgrwt>
</event>
<event>
 5    0  0.1972558E-002  0.3247658E+03  0.7546771E-02  0.1073477E+00
         21   -1    0    0  501  502  0.00000000000E+00  0.00000000000E+00  0.85218140884E+03  0.85218140884E+03  0.00000000000E+00 0. -1.
         21   -1    0    0  502  503 -0.00000000000E+00 -0.00000000000E+00 -0.17816036195E+03  0.17816036195E+03  0.00000000000E+00 0. -1.
         25    1    1    2    0    0 -0.28665887038E+02  0.33017817131E+03  0.22889552421E+03  0.42173157208E+03  0.12500000000E+03 0.  0.
          1    1    1    2  501    0 -0.76870744175E+00 -0.55481153508E+02  0.28277844728E+03  0.28817078191E+03  0.00000000000E+00 0.  1.
         -1    1    1    2    0  503  0.29434594480E+02 -0.27469701780E+03  0.16234707540E+03  0.32043941679E+03  0.00000000000E+00 0. -1.
<mgrwt>
<rscale>  4 0.32476578E+03</rscale>
<asrwt>0</asrwt>
<pdfrwt beam="1">  1       21 0.13110483E+00 0.32476578E+03</pdfrwt>
<pdfrwt beam="2">  1       21 0.27409287E-01 0.32476578E+03</pdfrwt>
<totfact> 0.49389819E+03</totfact>
</mgrwt>
</event>
<event>
 5    0  0.1972558E-002  0.2640344E+03  0.7546771E-02  0.1104743E+00
         21   -1    0    0  501  502  0.00000000000E+00  0.00000000000E+00  0.40131526920E+03  0.40131526920E+03  0.00000000000E+00 0. -1.
         21   -1    0    0  502  503 -0.00000000000E+00 -0.00000000000E+00 -0.30538743241E+03  0.30538743241E+03  0.00000000000E+00 0. -1.
         25    1    1    2    0    0  0.71712158815E+02  0.22221817821E+03 -0.15418935144E+03  0.30646844625E+03  0.12500000000E+03 0.  0.
          4    1    1    2  501    0  0.38339336428E+02 -0.16909165067E+02  0.13312015610E+03  0.13955930833E+03  0.00000000000E+00 0.  1.
         -4    1    1    2    0  503 -0.11005149524E+03 -0.20530901315E+03  0.11699703214E+03  0.26067494704E+03  0.00000000000E+00 0. -1.
<mgrwt>
<rscale>  4 0.26403440E+03</rscale>
<asrwt>0</asrwt>
<pdfrwt beam="1">  1       21 0.61740810E-01 0.26403440E+03</pdfrwt>
<pdfrwt beam="2">  1       21 0.46982682E-01 0.26403440E+03</pdfrwt>
<totfact> 0.10119227E+04</totfact>
</mgrwt>
</event>
<event>
 5    0  0.1972558E-002  0.2433010E+03  0.7546771E-02  0.1117613E+00
         21   -1    0    0  501  502  0.00000000000E+00  0.00000000000E+00  0.68823129181E+03  0.68823129181E+03  0.00000000000E+00 0. -1.
         21   -1    0    0  502  503 -0.00000000000E+00 -0.00000000000E+00 -0.11259998039E+04  0.11259998039E+04  0.00000000000E+00 0.  1.
         25    1    1    2    0    0  0.13973844513E+03 -0.15782848440E+03 -0.10778352397E+04  0.11053463111E+04  0.12500000000E+03 0.  0.
          2    1    1    2  501    0 -0.14546365423E+03  0.10130695441E+03  0.20882562228E+03  0.27391771435E+03  0.00000000000E+00 0.  1.
         -2    1    1    2    0  503  0.57252090928E+01  0.56521529982E+02  0.43124110528E+03  0.43496707031E+03  0.00000000000E+00 0. -1.
<mgrwt>
<rscale>  4 0.24330099E+03</rscale>
<asrwt>0</asrwt>
<pdfrwt beam="1">  1       21 0.10588174E+00 0.24330099E+03</pdfrwt>
<pdfrwt beam="2">  1       21 0.17323074E+00 0.24330099E+03</pdfrwt>
<totfact> 0.13636338E+02</totfact>
</mgrwt>
</event>
<event>
 5    0  0.1972558E-002  0.3085590E+03  0.7546771E-02  0.1081039E+00
         21   -1    0    0  501  502  0.00000000000E+00  0.00000000000E+00  0.11945894965E+04  0.11945894965E+04  0.00000000000E+00 0.  1.
         21   -1    0    0  502  503 -0.00000000000E+00 -0.00000000000E+00 -0.42093014237E+03  0.42093014237E+03  0.00000000000E+00 0.  1.
         25    1    1    2    0    0  0.28036580273E+03 -0.87287659203E+02 -0.32766215351E+03  0.45739655184E+03  0.12500000000E+03 0.  0.
          2    1    1    2  501    0 -0.19306631610E+03  0.77039101833E+02  0.39503551279E+03  0.44638848775E+03  0.00000000000E+00 0. -1.
         -2    1    1    2    0  503 -0.87299486624E+02  0.10248557370E+02  0.70628599488E+03  0.71173459931E+03  0.00000000000E+00 0.  1.
<mgrwt>
<rscale>  4 0.30855904E+03</rscale>
<asrwt>0</asrwt>
<pdfrwt beam="1">  1       21 0.18378300E+00 0.30855904E+03</pdfrwt>
<pdfrwt beam="2">  1       21 0.64758484E-01 0.30855904E+03</pdfrwt>
<totfact> 0.33681591E+02</totfact>
</mgrwt>
</event>
<event>
 5    0  0.1972558E-002  0.2994514E+03  0.7546771E-02  0.1085515E+00
         21   -1    0    0  501  502  0.00000000000E+00  0.00000000000E+00  0.29362887303E+03  0.29362887303E+03  0.00000000000E+00 0. -1.
         21   -1    0    0  502  503 -0.00000000000E+00 -0.00000000000E+00 -0.44902795857E+03  0.44902795857E+03  0.00000000000E+00 0.  1.
         25    1    1    2    0    0 -0.29873635258E+03  0.10073233268E+03 -0.19027230864E+03  0.38886882445E+03  0.12500000000E+03 0.  0.
          2    1    1    2  501    0  0.20425179313E+03 -0.10831988991E+03 -0.37903600232E+02  0.23428332518E+03  0.00000000000E+00 0. -1.
         -2    1    1    2    0  503  0.94484559451E+02  0.75875572331E+01  0.72776823322E+02  0.11950468197E+03  0.00000000000E+00 0.  1.
<mgrwt>
<rscale>  4 0.29945139E+03</rscale>
<asrwt>0</asrwt>
<pdfrwt beam="1">  1       21 0.45173673E-01 0.29945139E+03</pdfrwt>
<pdfrwt beam="2">  1       21 0.69081224E-01 0.29945139E+03</pdfrwt>
<totfact> 0.84285637E+03</totfact>
</mgrwt>
</event>
<event>
 5    0  0.1972558E-002  0.2670972E+03  0.7546771E-02  0.1102953E+00
         21   -1    0    0  501  502  0.00000000000E+00  0.00000000000E+00  0.39680130796E+03  0.39680130796E+03  0.00000000000E+00 0. -1.
         21   -1    0    0  502  503 -0.00000000000E+00 -0.00000000000E+00 -0.13292188838E+04  0.13292188838E+04  0.00000000000E+00 0. -1.
         25    1    1    2    0    0  0.10290749180E+03  0.21195882513E+03 -0.11542037188E+04  0.11846213404E+04  0.12500000000E+03 0.  0.
          2    1    1    2  501    0 -0.17321064204E+03 -0.17955839946E+03 -0.53737344455E+02  0.25520745977E+03  0.00000000000E+00 0.  1.
         -2    1    1    2    0  503  0.70303150232E+02 -0.32400425669E+02  0.27552348745E+03  0.28619139164E+03  0.00000000000E+00 0. -1.
<mgrwt>
<rscale>  4 0.26709723E+03</rscale>
<asrwt>0</asrwt>
<pdfrwt beam="1">  1       21 0.61046355E-01 0.26709723E+03</pdfrwt>
<pdfrwt beam="2">  1       21 0.20449521E+00 0.26709723E+03</pdfrwt>
<totfact> 0.28904031E+02</totfact>
</mgrwt>
</event>
<event>
 5    0  0.1972558E-002  0.2438577E+03  0.7546771E-02  0.1117249E+00
         21   -1    0    0  503  502  0.00000000000E+00  0.00000000000E+00  0.14278350582E+04  0.14278350582E+04  0.00000000000E+00 0. -1.
         21   -1    0    0  501  503 -0.00000000000E+00 -0.00000000000E+00 -0.37111678396E+03  0.37111678396E+03  0.00000000000E+00 0.  1.
         25    1    1    2    0    0  0.18708665893E+03 -0.95433314698E+02 -0.32019641155E+03  0.40281469372E+03  0.12500000000E+03 0.  0.
          2    1    1    2  501    0 -0.72049941031E+01  0.31032085805E+02  0.98494449703E+02  0.10351839890E+03  0.00000000000E+00 0.  1.
         -2    1    1    2    0  502 -0.17988166483E+03  0.64401228893E+02  0.12784202361E+04  0.12926187495E+04  0.00000000000E+00 0. -1.
<mgrwt>
<rscale>  4 0.24385771E+03</rscale>
<asrwt>0</asrwt>
<pdfrwt beam="1">  1       21 0.21966693E+00 0.24385771E+03</pdfrwt>
<pdfrwt beam="2">  1       21 0.57094890E-01 0.24385771E+03</pdfrwt>
<totfact> 0.27393441E+02</totfact>
</mgrwt>
</event>
<event>
 5    0  0.1972558E-002  0.3131201E+03  0.7546771E-02  0.1078860E+00
         21   -1    0    0  501  502  0.00000000000E+00  0.00000000000E+00  0.14688888392E+04  0.14688888392E+04  0.00000000000E+00 0. -1.
         21   -1    0    0  502  503 -0.00000000000E+00 -0.00000000000E+00 -0.16521826844E+03  0.16521826844E+03  0.00000000000E+00 0. -1.
         25    1    1    2    0    0 -0.24258450925E+03 -0.19866336863E+03  0.21928872456E+03  0.40252567978E+03  0.12500000000E+03 0.  0.
          1    1    1    2  501    0  0.21541233073E+03  0.15700341250E+03  0.17066273826E+03  0.31650957963E+03  0.00000000000E+00 0.  1.
         -1    1    1    2    0  503  0.27172178518E+02  0.41659956128E+02  0.91371910792E+03  0.91507184823E+03  0.00000000000E+00 0. -1.
<mgrwt>
<rscale>  4 0.31312007E+03</rscale>
<asrwt>0</asrwt>
<pdfrwt beam="1">  1       21 0.22598289E+00 0.31312007E+03</pdfrwt>
<pdfrwt beam="2">  1       21 0.25418196E-01 0.31312007E+03</pdfrwt>
<totfact> 0.12180131E+03</totfact>
</mgrwt>
</event>
<event>
 5    0  0.1972558E-002  0.2462114E+03  0.7546771E-02  0.1115723E+00
         21   -1    0    0  501  502  0.00000000000E+00  0.00000000000E+00  0.93257817281E+03  0.93257817281E+03  0.00000000000E+00 0.  1.
         21   -1    0    0  502  503 -0.00000000000E+00 -0.00000000000E+00 -0.55456333254E+03  0.55456333254E+03  0.00000000000E+00 0.  1.
         25    1    1    2    0    0  0.12822977797E+03  0.17327148865E+03 -0.48149117864E+03  0.54214817149E+03  0.12500000000E+03 0.  0.
          1    1    1    2  501    0 -0.96156912817E+02 -0.16280300534E+03  0.16880296415E+03  0.25346678508E+03  0.00000000000E+00 0. -1.
         -1    1    1    2    0  503 -0.32072865152E+02 -0.10468483302E+02  0.69070305476E+03  0.69152654879E+03  0.00000000000E+00 0.  1.
<mgrwt>
<rscale>  4 0.24621139E+03</rscale>
<asrwt>0</asrwt>
<pdfrwt beam="1">  1       21 0.14347357E+00 0.24621139E+03</pdfrwt>
<pdfrwt beam="2">  1       21 0.85317436E-01 0.24621139E+03</pdfrwt>
<totfact> 0.37711485E+02</totfact>
</mgrwt>
</event>
<event>
 5    0  0.1972558E-002  0.2235449E+03  0.7546771E-02  0.1131267E+00
         21   -1    0    0  501  502  0.00000000000E+00  0.00000000000E+00  0.16017234045E+04  0.16017234045E+04  0.00000000000E+00 0.  1.
         21   -1    0    0  502  503 -0.00000000000E+00 -0.00000000000E+00 -0.14424507794E+03  0.14424507794E+03  0.00000000000E+00 0.  1.
         25    1    1    2    0    0  0.15315334830E+03 -0.19146419122E+03  0.10095772800E+03  0.29314151439E+03  0.12500000000E+03 0.  0.
          3    1    1    2  501    0 -0.13026217887E+03  0.12668301530E+03  0.13706841473E+04  0.13826756139E+04  0.00000000000E+00 0.  1.
         -3    1    1    2    0  503 -0.22891169429E+02  0.64781175916E+02 -0.14163548659E+02  0.70151354239E+02  0.00000000000E+00 0. -1.
<mgrwt>
<rscale>  4 0.22354493E+03</rscale>
<asrwt>0</asrwt>
<pdfrwt beam="1">  1       21 0.24641897E+00 0.22354493E+03</pdfrwt>
<pdfrwt beam="2">  1       21 0.22191552E-01 0.22354493E+03</pdfrwt>
<totfact> 0.12802682E+03</totfact>
</mgrwt>
</event>
<event>
 5    0  0.1972558E-002  0.4576094E+03  0.7546771E-02  0.1025477E+00
         21   -1    0    0  501  502  0.00000000000E+00  0.00000000000E+00  0.13693691687E+04  0.13693691687E+04  0.00000000000E+00 0. -1.
         21   -1    0    0  502  503 -0.00000000000E+00 -0.00000000000E+00 -0.45594716709E+03  0.45594716709E+03  0.00000000000E+00 0. -1.
         25    1    1    2    0    0  0.20312103241E+03  0.38478620251E+03 -0.24909342228E+03  0.51671182343E+03  0.12500000000E+03 0.  0.
          2    1    1    2  501    0 -0.20645557319E+03 -0.42156883217E+03  0.68932143620E+03  0.83397135824E+03  0.00000000000E+00 0. -1.
         -2    1    1    2    0  503  0.33345407749E+01  0.36782629659E+02  0.47319398764E+03  0.47463315408E+03  0.00000000000E+00 0.  1.
<mgrwt>
<rscale>  4 0.45760944E+03</rscale>
<asrwt>0</asrwt>
<pdfrwt beam="1">  1       21 0.21067218E+00 0.45760944E+03</pdfrwt>
<pdfrwt beam="2">  1       21 0.70145719E-01 0.45760944E+03</pdfrwt>
<totfact> 0.16955445E+02</totfact>
</mgrwt>
</event>
<event>
 5    0  0.1972558E-002  0.2559258E+03  0.7546771E-02  0.1109616E+00
         21   -1    0    0  501  502  0.00000000000E+00  0.00000000000E+00  0.10106643876E+04  0.10106643876E+04  0.00000000000E+00 0. -1.
         21   -1    0    0  502  503 -0.00000000000E+00 -0.00000000000E+00 -0.14296896745E+03  0.14296896745E+03  0.00000000000E+00 0.  1.
         25    1    1    2    0    0  0.18593028136E+03  0.15327595144E+03  0.47384814953E+02  0.27556107763E+03  0.12500000000E+03 0.  0.
          4    1    1    2  501    0 -0.14918576330E+03 -0.11481420331E+03  0.29416422698E+03  0.34924387709E+03  0.00000000000E+00 0.  1.
         -4    1    1    2    0  503 -0.36744518060E+02 -0.38461748124E+02  0.52614637818E+03  0.52882840029E+03  0.00000000000E+00 0. -1.
<mgrwt>
<rscale>  4 0.25592576E+03</rscale>
<asrwt>0</asrwt>
<pdfrwt beam="1">  1       21 0.15548682E+00 0.25592576E+03</pdfrwt>
<pdfrwt beam="2">  1       21 0.21995226E-01 0.25592576E+03</pdfrwt>
<totfact> 0.50042303E+03</totfact>
</mgrwt>
</event>
<event>
 5    0  0.1972558E-002  0.2462744E+03  0.7546771E-02  0.1115682E+00
         21   -1    0    0  501  502  0.00000000000E+00  0.00000000000E+00  0.19576413863E+03  0.19576413863E+03  0.00000000000E+00 0. -1.
         21   -1    0    0  502  503 -0.00000000000E+00 -0.00000000000E+00 -0.10401789829E+04  0.10401789829E+04  0.00000000000E+00 0. -1.
         25    1    1    2    0    0  0.12993308487E+03 -0.24561995182E+03 -0.78796114758E+03  0.84481923355E+03  0.12500000000E+03 0.  0.
          4    1    1    2  501    0 -0.96438726866E+02  0.11219531897E+03 -0.16076713166E+03  0.21848178015E+03  0.00000000000E+00 0.  1.
         -4    1    1    2    0  503 -0.33494358006E+02  0.13342463285E+03  0.10431343498E+03  0.17264210781E+03  0.00000000000E+00 0. -1.
<mgrwt>
<rscale>  4 0.24627436E+03</rscale>
<asrwt>0</asrwt>
<pdfrwt beam="1">  1       21 0.30117560E-01 0.24627436E+03</pdfrwt>
<pdfrwt beam="2">  1       21 0.16002753E+00 0.24627436E+03</pdfrwt>
<totfact> 0.25420517E+03</totfact>
</mgrwt>
</event>
<event>
 5    0  0.1972558E-002  0.4749339E+03  0.7546771E-02  0.1020537E+00
         21   -1    0    0  501  502  0.00000000000E+00  0.00000000000E+00  0.19002520453E+04  0.19002520453E+04  0.00000000000E+00 0.  1.
         21   -1    0    0  502  503 -0.00000000000E+00 -0.00000000000E+00 -0.35638710601E+03  0.35638710601E+03  0.00000000000E+00 0. -1.
         25    1    1    2    0    0  0.29745259070E+03  0.34441025466E+03 -0.77575784302E+02  0.47826715289E+03  0.12500000000E+03 0.  0.
          3    1    1    2  501    0 -0.26710855897E+03 -0.38854649710E+03  0.63721796774E+03  0.79269294250E+03  0.00000000000E+00 0. -1.
         -3    1    1    2    0  503 -0.30344031729E+02  0.44136242439E+02  0.98422275588E+03  0.98567905595E+03  0.00000000000E+00 0.  1.
<mgrwt>
<rscale>  4 0.47493386E+03</rscale>
<asrwt>0</asrwt>
<pdfrwt beam="1">  1       21 0.29234646E+00 0.47493386E+03</pdfrwt>
<pdfrwt beam="2">  1       21 0.54828787E-01 0.47493386E+03</pdfrwt>
<totfact> 0.90312402E+01</totfact>
</mgrwt>
</event>
<event>
 5    0  0.1972558E-002  0.2693205E+03  0.7546771E-02  0.1101669E+00
         21   -1    0    0  501  502  0.00000000000E+00  0.00000000000E+00  0.23521325466E+03  0.23521325466E+03  0.00000000000E+00 0. -1.
         21   -1    0    0  502  503 -0.00000000000E+00 -0.00000000000E+00 -0.69194264136E+03  0.69194264136E+03  0.00000000000E+00 0. -1.
         25    1    1    2    0    0  0.24328877140E+03  0.32409170610E+02 -0.42615764457E+03  0.50742006135E+03  0.12500000000E+03 0.  0.
          3    1    1    2  501    0 -0.13263926907E+02 -0.36569624444E+02  0.13227136801E+03  0.13787307200E+03  0.00000000000E+00 0.  1.
         -3    1    1    2    0  503 -0.23002484449E+03  0.41604538340E+01 -0.16284311013E+03  0.28186276267E+03  0.00000000000E+00 0. -1.
<mgrwt>
<rscale>  4 0.26932049E+03</rscale>
<asrwt>0</asrwt>
<pdfrwt beam="1">  1       21 0.36186656E-01 0.26932049E+03</pdfrwt>
<pdfrwt beam="2">  1       21 0.10645271E+00 0.26932049E+03</pdfrwt>
<totfact> 0.49375968E+03</totfact>
</mgrwt>
</event>
<event>
 5    0  0.1972558E-002  0.2812389E+03  0.7546771E-02  0.1095014E+00
         21   -1    0    0  501  502  0.00000000000E+00  0.00000000000E+00  0.18968276329E+03  0.18968276329E+03  0.00000000000E+00 0.  1.
         21   -1    0    0  502  503 -0.00000000000E+00 -0.00000000000E+00 -0.12980383711E+04  0.12980383711E+04  0.00000000000E+00 0.  1.
         25    1    1    2    0    0  0.13190489141E+03  0.21464255276E+03 -0.11864796438E+04  0.12193560887E+04  0.12500000000E+03 0.  0.
          2    1    1    2  501    0 -0.11425652475E+03 -0.20042042807E+03  0.57588422854E+02  0.23777999891E+03  0.00000000000E+00 0.  1.
         -2    1    1    2    0  503 -0.17648366664E+02 -0.14222124685E+02  0.20535613189E+02  0.30585046763E+02  0.00000000000E+00 0. -1.
<mgrwt>
<rscale>  4 0.28123891E+03</rscale>
<asrwt>0</asrwt>
<pdfrwt beam="1">  1       21 0.29181964E-01 0.28123891E+03</pdfrwt>
<pdfrwt beam="2">  1       21 0.19969821E+00 0.28123891E+03</pdfrwt>
<totfact> 0.14000627E+03</totfact>
</mgrwt>
</event>
<event>
 5    0  0.1972558E-002  0.3427919E+03  0.7546771E-02  0.1065613E+00
         21   -1    0    0  503  502  0.00000000000E+00  0.00000000000E+00  0.84705105420E+03  0.84705105420E+03  0.00000000000E+00 0.  1.
         21   -1    0    0  501  503 -0.00000000000E+00 -0.00000000000E+00 -0.18083406155E+03  0.18083406155E+03  0.00000000000E+00 0.  1.
         25    1    1    2    0    0  0.31296840713E+03  0.34465574327E+02  0.22661037447E+03  0.40757129621E+03  0.12500000000E+03 0.  0.
          4    1    1    2  501    0  0.86527721771E+01 -0.10075602141E+03  0.56908940501E+02  0.11603996650E+03  0.00000000000E+00 0. -1.
         -4    1    1    2    0  502 -0.32162117931E+03  0.66290447079E+02  0.38269767768E+03  0.50427385304E+03  0.00000000000E+00 0.  1.
<mgrwt>
<rscale>  4 0.34279194E+03</rscale>
<asrwt>0</asrwt>
<pdfrwt beam="1">  1       21 0.13031555E+00 0.34279194E+03</pdfrwt>
<pdfrwt beam="2">  1       21 0.27820625E-01 0.34279194E+03</pdfrwt>
<totfact> 0.48303641E+03</totfact>
</mgrwt>
</event>
<event>
 5    0  0.1972558E-002  0.2653235E+03  0.7546771E-02  0.1103986E+00
         21   -1    0    0  501  502  0.00000000000E+00  0.00000000000E+00  0.22635506719E+03  0.22635506719E+03  0.00000000000E+00 0.  1.
         21   -1    0    0  502  503 -0.00000000000E+00 -0.00000000000E+00 -0.63225050683E+03  0.63225050683E+03  0.00000000000E+00 0. -1.
         25    1    1    2    0    0  0.61305396972E+00 -0.27317947057E+03 -0.27034425635E+03  0.40415147645E+03  0.12500000000E+03 0.  0.
          2    1    1    2  501    0  0.24308919241E+02  0.21029730542E+03 -0.24624210030E+03  0.32473227770E+03  0.00000000000E+00 0. -1.
         -2    1    1    2    0  503 -0.24921973211E+02  0.62882165151E+02  0.11069091700E+03  0.12972181987E+03  0.00000000000E+00 0.  1.
<mgrwt>
<rscale>  4 0.26532353E+03</rscale>
<asrwt>0</asrwt>
<pdfrwt beam="1">  1       21 0.34823857E-01 0.26532353E+03</pdfrwt>
<pdfrwt beam="2">  1       21 0.97269307E-01 0.26532353E+03</pdfrwt>
<totfact> 0.66406713E+03</totfact>
</mgrwt>
</event>
<event>
 5    0  0.1972558E-002  0.2514194E+03  0.7546771E-02  0.1112411E+00
         21   -1    0    0  501  502  0.00000000000E+00  0.00000000000E+00  0.26692452530E+03  0.26692452530E+03  0.00000000000E+00 0. -1.
         21   -1    0    0  502  503 -0.00000000000E+00 -0.00000000000E+00 -0.13392782425E+04  0.13392782425E+04  0.00000000000E+00 0.  1.
         25    1    1    2    0    0  0.11731046669E+03  0.18113053144E+03 -0.12123725146E+04  0.12377568942E+04  0.12500000000E+03 0.  0.
          4    1    1    2  501    0 -0.15986237161E+03 -0.18610866780E+03  0.26085969487E+02  0.24672432368E+03  0.00000000000E+00 0.  1.
         -4    1    1    2    0  503  0.42551904927E+02  0.49781363658E+01  0.11393282788E+03  0.12172154995E+03  0.00000000000E+00 0. -1.
<mgrwt>
<rscale>  4 0.25141938E+03</rscale>
<asrwt>0</asrwt>
<pdfrwt beam="1">  1       21 0.41065311E-01 0.25141938E+03</pdfrwt>
<pdfrwt beam="2">  1       21 0.20604281E+00 0.25141938E+03</pdfrwt>
<totfact> 0.65974276E+02</totfact>
</mgrwt>
</event>
<event>
 5    0  0.1972558E-002  0.4458580E+03  0.7546771E-02  0.1028964E+00
         21   -1    0    0  501  502  0.00000000000E+00  0.00000000000E+00  0.91686622780E+03  0.91686622780E+03  0.00000000000E+00 0. -1.
         21   -1    0    0  502  503 -0.00000000000E+00 -0.00000000000E+00 -0.33932547166E+03  0.33932547166E+03  0.00000000000E+00 0.  1.
         25    1    1    2    0    0  0.18090065710E+03 -0.35875626053E+03  0.41161368203E+03  0.58862715317E+03  0.12500000000E+03 0.  0.
          3    1    1    2  501    0  0.13189705515E+02 -0.33956111767E+02  0.22286504704E+03  0.22582252999E+03  0.00000000000E+00 0.  1.
         -3    1    1    2    0  503 -0.19409036262E+03  0.39271237230E+03 -0.56937972927E+02  0.44174201631E+03  0.00000000000E+00 0. -1.
<mgrwt>
<rscale>  4 0.44585801E+03</rscale>
<asrwt>0</asrwt>
<pdfrwt beam="1">  1       21 0.14105634E+00 0.44585801E+03</pdfrwt>
<pdfrwt beam="2">  1       21 0.52203919E-01 0.44585801E+03</pdfrwt>
<totfact> 0.10362946E+03</totfact>
</mgrwt>
</event>
<event>
 5    0  0.1972558E-002  0.3050953E+03  0.7546771E-02  0.1082721E+00
         21   -1    0    0  501  502  0.00000000000E+00  0.00000000000E+00  0.58465501053E+03  0.58465501053E+03  0.00000000000E+00 0.  1.
         21   -1    0    0  502  503 -0.00000000000E+00 -0.00000000000E+00 -0.23976492320E+03  0.23976492320E+03  0.00000000000E+00 0.  1.
         25    1    1    2    0    0  0.15601848467E+03 -0.22139186084E+03 -0.15370634343E+02  0.29869278533E+03  0.12500000000E+03 0.  0.
          2    1    1    2  501    0 -0.11660641032E+03  0.27453543371E+03  0.21995399621E+03  0.37060291383E+03  0.00000000000E+00 0.  1.
         -2    1    1    2    0  503 -0.39412074355E+02 -0.53143572872E+02  0.14030672546E+03  0.15512423458E+03  0.00000000000E+00 0. -1.
<mgrwt>
<rscale>  4 0.30509534E+03</rscale>
<asrwt>0</asrwt>
<pdfrwt beam="1">  1       21 0.89946924E-01 0.30509534E+03</pdfrwt>
<pdfrwt beam="2">  1       21 0.36886911E-01 0.30509534E+03</pdfrwt>
<totfact> 0.69703904E+03</totfact>
</mgrwt>
</event>
<event>
 5    0  0.1972558E-002  0.5282121E+03  0.7546771E-02  0.1006667E+00
         21   -1    0    0  501  502  0.00000000000E+00  0.00000000000E+00  0.20080356156E+04  0.20080356156E+04  0.00000000000E+00 0.  1.
         21   -1    0    0  502  503 -0.00000000000E+00 -0.00000000000E+00 -0.76629447330E+03  0.76629447330E+03  0.00000000000E+00 0. -1.
         25    1    1    2    0    0  0.50647207666E+03 -0.74251454830E+02 -0.57660309795E+03  0.78110394669E+03  0.12500000000E+03 0.  0.
          3    1    1    2  501    0 -0.52140992872E+03  0.51103258500E+02  0.69901037055E+03  0.87355329255E+03  0.00000000000E+00 0. -1.
         -3    1    1    2    0  503  0.14937852060E+02  0.23148196330E+02  0.11193338697E+04  0.11196728496E+04  0.00000000000E+00 0.  1.
<mgrwt>
<rscale>  4 0.52821205E+03</rscale>
<asrwt>0</asrwt>
<pdfrwt beam="1">  1       21 0.30892855E+00 0.52821205E+03</pdfrwt>
<pdfrwt beam="2">  1       21 0.11789146E+00 0.52821205E+03</pdfrwt>
<totfact> 0.11660895E+01</totfact>
</mgrwt>
</event>
<event>
 5    0  0.1972558E-002  0.2496298E+03  0.7546771E-02  0.1113539E+00
         21   -1    0    0  501  502  0.00000000000E+00  0.00000000000E+00  0.79245328963E+02  0.79245328963E+02  0.00000000000E+00 0.  1.
         21   -1    0    0  502  503 -0.00000000000E+00 -0.00000000000E+00 -0.14176838258E+04  0.14176838258E+04  0.00000000000E+00 0. -1.
         25    1    1    2    0    0 -0.43334565959E+02  0.21865921489E+03 -0.10767762549E+04  0.11066895861E+04  0.12500000000E+03 0.  0.
          3    1    1    2  501    0  0.99436160250E+02 -0.18047500216E+03 -0.24543361075E+03  0.32046284286E+03  0.00000000000E+00 0.  1.
         -3    1    1    2    0  503 -0.56101594291E+02 -0.38184212734E+02 -0.16228631100E+02  0.69776725715E+02  0.00000000000E+00 0. -1.
<mgrwt>
<rscale>  4 0.24962979E+03</rscale>
<asrwt>0</asrwt>
<pdfrwt beam="1">  1       21 0.12191590E-01 0.24962979E+03</pdfrwt>
<pdfrwt beam="2">  1       21 0.21810519E+00 0.24962979E+03</pdfrwt>
<totfact> 0.56159787E+03</totfact>
</mgrwt>
</event>
<event>
 5    0  0.1972558E-002  0.2879530E+03  0.7546771E-02  0.1091423E+00
         21   -1    0    0  501  502  0.00000000000E+00  0.00000000000E+00  0.85611531976E+03  0.85611531976E+03  0.00000000000E+00 0. -1.
         21   -1    0    0  502  503 -0.00000000000E+00 -0.00000000000E+00 -0.10950070546E+03  0.10950070546E+03  0.00000000000E+00 0. -1.
         25    1    1    2    0    0  0.21071182546E+03  0.16132713988E+03  0.54987279961E+03  0.62322629534E+03  0.12500000000E+03 0.  0.
          4    1    1    2  501    0 -0.18182024339E+03 -0.17088437703E+03  0.17052970913E+03  0.30222583099E+03  0.00000000000E+00 0. -1.
         -4    1    1    2    0  503 -0.28891582068E+02  0.95572371514E+01  0.26212105561E+02  0.40163898894E+02  0.00000000000E+00 0.  1.
<mgrwt>
<rscale>  4 0.28795301E+03</rscale>
<asrwt>0</asrwt>
<pdfrwt beam="1">  1       21 0.13171004E+00 0.28795301E+03</pdfrwt>
<pdfrwt beam="2">  1       21 0.16846263E-01 0.28795301E+03</pdfrwt>
<totfact> 0.12539467E+04</totfact>
</mgrwt>
</event>
<event>
 5    0  0.1972558E-002  0.6550263E+03  0.7546771E-02  0.9797393E-01
         21   -1    0    0  501  502  0.00000000000E+00  0.00000000000E+00  0.10022093370E+04  0.10022093370E+04  0.00000000000E+00 0.  1.
         21   -1    0    0  502  503 -0.00000000000E+00 -0.00000000000E+00 -0.91187662035E+03  0.91187662035E+03  0.00000000000E+00 0.  1.
         25    1    1    2    0    0 -0.31307266579E+03 -0.55904437670E+03 -0.55641996101E+03  0.85777227875E+03  0.12500000000E+03 0.  0.
          1    1    1    2  501    0  0.39443240950E+03  0.52382658257E+03  0.34325377456E+03  0.74013131809E+03  0.00000000000E+00 0. -1.
         -1    1    1    2    0  503 -0.81359743714E+02  0.35217794131E+02  0.30349890306E+03  0.31618236048E+03  0.00000000000E+00 0.  1.
<mgrwt>
<rscale>  4 0.65502632E+03</rscale>
<asrwt>0</asrwt>
<pdfrwt beam="1">  1       21 0.15418605E+00 0.65502632E+03</pdfrwt>
<pdfrwt beam="2">  1       21 0.14028871E+00 0.65502632E+03</pdfrwt>
<totfact> 0.71594095E+01</totfact>
</mgrwt>
</event>
<event>
 5    0  0.1972558E-002  0.3662892E+03  0.7546771E-02  0.1056121E+00
         21   -1    0    0  501  502  0.00000000000E+00  0.00000000000E+00  0.39585964322E+03  0.39585964322E+03  0.00000000000E+00 0. -1.
         21   -1    0    0  502  503 -0.00000000000E+00 -0.00000000000E+00 -0.10551635754E+04  0.10551635754E+04  0.00000000000E+00 0.  1.
         25    1    1    2    0    0  0.28465942461E+03  0.20158507567E+03 -0.82288248086E+03  0.90245670703E+03  0.12500000000E+03 0.  0.
          3    1    1    2  501    0 -0.16535849639E+02 -0.11979748389E+02  0.21517975498E+03  0.21614642178E+03  0.00000000000E+00 0. -1.
         -3    1    1    2    0  503 -0.26812357497E+03 -0.18960532728E+03 -0.51601206261E+02  0.33242008976E+03  0.00000000000E+00 0.  1.
<mgrwt>
<rscale>  4 0.36628922E+03</rscale>
<asrwt>0</asrwt>
<pdfrwt beam="1">  1       21 0.60901484E-01 0.36628922E+03</pdfrwt>
<pdfrwt beam="2">  1       21 0.16233286E+00 0.36628922E+03</pdfrwt>
<totfact> 0.52741384E+02</totfact>
</mgrwt>
</event>
<event>
 5    0  0.1972558E-002  0.3753505E+03  0.7546771E-02  0.1052666E+00
         21   -1    0    0  501  502  0.00000000000E+00  0.00000000000E+00  0.85248626790E+03  0.85248626790E+03  0.00000000000E+00 0.  1.
         21   -1    0    0  502  503 -0.00000000000E+00 -0.00000000000E+00 -0.54910113941E+03  0.54910113941E+03  0.00000000000E+00 0.  1.
         25    1    1    2    0    0 -0.20716388856E+03 -0.28993460828E+03 -0.38472624411E+03  0.53909019349E+03  0.12500000000E+03 0.  0.
          3    1    1    2  501    0  0.14974820980E+03  0.31321164829E+03  0.26995118104E+03  0.43977233099E+03  0.00000000000E+00 0. -1.
         -3    1    1    2    0  503  0.57415678762E+02 -0.23277040006E+02  0.41816019157E+03  0.42272488284E+03  0.00000000000E+00 0.  1.
<mgrwt>
<rscale>  4 0.37535047E+03</rscale>
<asrwt>0</asrwt>
<pdfrwt beam="1">  1       21 0.13115173E+00 0.37535047E+03</pdfrwt>
<pdfrwt beam="2">  1       21 0.84477098E-01 0.37535047E+03</pdfrwt>
<totfact> 0.44433933E+02</totfact>
</mgrwt>
</event>
<event>
 5    0  0.1972558E-002  0.3337441E+03  0.7546771E-02  0.1069492E+00
         21   -1    0    0  501  502  0.00000000000E+00  0.00000000000E+00  0.13276493249E+04  0.13276493249E+04  0.00000000000E+00 0.  1.
         21   -1    0    0  502  503 -0.00000000000E+00 -0.00000000000E+00 -0.21177287946E+03  0.21177287946E+03  0.00000000000E+00 0. -1.
         25    1    1    2    0    0  0.30126271082E+03 -0.54525337355E+02 -0.25451214677E+02  0.33167001323E+03  0.12500000000E+03 0.  0.
          1    1    1    2  501    0 -0.32251299934E+03  0.53709439613E+02  0.77940113858E+03  0.84520143958E+03  0.00000000000E+00 0.  1.
         -1    1    1    2    0  503  0.21250288522E+02  0.81589774156E+00  0.36192652153E+03  0.36255075153E+03  0.00000000000E+00 0. -1.
<mgrwt>
<rscale>  4 0.33374410E+03</rscale>
<asrwt>0</asrwt>
<pdfrwt beam="1">  1       21 0.20425374E+00 0.33374410E+03</pdfrwt>
<pdfrwt beam="2">  1       21 0.32580444E-01 0.33374410E+03</pdfrwt>
<totfact> 0.10142590E+03</totfact>
</mgrwt>
</event>
<event>
 5    0  0.1972558E-002  0.2285611E+03  0.7546771E-02  0.1127657E+00
         21   -1    0    0  501  502  0.00000000000E+00  0.00000000000E+00  0.70404206488E+03  0.70404206488E+03  0.00000000000E+00 0.  1.
         21   -1    0    0  502  503 -0.00000000000E+00 -0.00000000000E+00 -0.19101577497E+03  0.19101577497E+03  0.00000000000E+00 0. -1.
         25    1    1    2    0    0 -0.39354624209E+02 -0.19738601686E+03 -0.41900341206E+02  0.24060478942E+03  0.12500000000E+03 0.  0.
          1    1    1    2  501    0 -0.90460359806E+02  0.17529742935E+03  0.22505116794E+03  0.29926625875E+03  0.00000000000E+00 0.  1.
         -1    1    1    2    0  503  0.12981498402E+03  0.22088587508E+02  0.32987546318E+03  0.35518679168E+03  0.00000000000E+00 0. -1.
<mgrwt>
<rscale>  4 0.22856106E+03</rscale>
<asrwt>0</asrwt>
<pdfrwt beam="1">  1       21 0.10831416E+00 0.22856106E+03</pdfrwt>
<pdfrwt beam="2">  1       21 0.29387043E-01 0.22856106E+03</pdfrwt>
<totfact> 0.73307620E+03</totfact>
</mgrwt>
</event>
<event>
 5    0  0.1972558E-002  0.4945908E+03  0.7546771E-02  0.1015201E+00
         21   -1    0    0  503  502  0.00000000000E+00  0.00000000000E+00  0.14786368278E+03  0.14786368278E+03  0.00000000000E+00 0.  1.
         21   -1    0    0  501  503 -0.00000000000E+00 -0.00000000000E+00 -0.26669667301E+04  0.26669667301E+04  0.00000000000E+00 0. -1.
         25    1    1    2    0    0  0.37492921878E+03  0.29736024063E+03 -0.21307171109E+04  0.21873672390E+04  0.12500000000E+03 0.  0.
          3    1    1    2  501    0 -0.13124593033E+03 -0.56666289057E+02 -0.67387343181E+02  0.15804308452E+03  0.00000000000E+00 0. -1.
         -3    1    1    2    0  502 -0.24368328845E+03 -0.24069395158E+03 -0.32099859327E+03  0.46942008934E+03  0.00000000000E+00 0.  1.
<mgrwt>
<rscale>  4 0.49459077E+03</rscale>
<asrwt>0</asrwt>
<pdfrwt beam="1">  1       21 0.22748259E-01 0.49459077E+03</pdfrwt>
<pdfrwt beam="2">  1       21 0.41030257E+00 0.49459077E+03</pdfrwt>
<totfact> 0.99314478E+01</totfact>
</mgrwt>
</event>
<event>
 5    0  0.1972558E-002  0.5541183E+03  0.7546771E-02  0.1002728E+00
         21   -1    0    0  503  502  0.00000000000E+00  0.00000000000E+00  0.77741124510E+03  0.77741124510E+03  0.00000000000E+00 0.  1.
         21   -1    0    0  501  503 -0.00000000000E+00 -0.00000000000E+00 -0.84496422205E+03  0.84496422205E+03  0.00000000000E+00 0.  1.
         25    1    1    2    0    0 -0.42684703993E+03 -0.26432604465E+03 -0.64179723255E+03  0.82437572810E+03  0.12500000000E+03 0.  0.
          4    1    1    2  501    0  0.15182932224E+03 -0.24239908121E+02  0.18895445762E+03  0.24360522017E+03  0.00000000000E+00 0. -1.
         -4    1    1    2    0  502  0.27501771769E+03  0.28856595277E+03  0.38528979798E+03  0.55439451888E+03  0.00000000000E+00 0.  1.
<mgrwt>
<rscale>  4 0.54469857E+03</rscale>
<asrwt>0</asrwt>
<pdfrwt beam="1">  1       21 0.11960173E+00 0.55411833E+03</pdfrwt>
<pdfrwt beam="2">  1       21 0.12999450E+00 0.55411833E+03</pdfrwt>
<totfact> 0.17913863E+02</totfact>
</mgrwt>
</event>
<event>
 5    0  0.1972558E-002  0.3058745E+03  0.7546771E-02  0.1082340E+00
         21   -1    0    0  501  502  0.00000000000E+00  0.00000000000E+00  0.47117467887E+03  0.47117467887E+03  0.00000000000E+00 0. -1.
         21   -1    0    0  502  503 -0.00000000000E+00 -0.00000000000E+00 -0.30687476812E+03  0.30687476812E+03  0.00000000000E+00 0. -1.
         25    1    1    2    0    0  0.26992209566E+03 -0.44628952437E+02 -0.13141048934E+03  0.32824289456E+03  0.12500000000E+03 0.  0.
          3    1    1    2  501    0 -0.29149876848E+03  0.48720084705E+02  0.21318161941E+03  0.36440579240E+03  0.00000000000E+00 0. -1.
         -3    1    1    2    0  503  0.21576672826E+02 -0.40911322683E+01  0.82528780675E+02  0.85400760027E+02  0.00000000000E+00 0.  1.
<mgrwt>
<rscale>  4 0.30587449E+03</rscale>
<asrwt>0</asrwt>
<pdfrwt beam="1">  1       21 0.72488412E-01 0.30587449E+03</pdfrwt>
<pdfrwt beam="2">  1       21 0.47211503E-01 0.30587449E+03</pdfrwt>
<totfact> 0.68830717E+03</totfact>
</mgrwt>
</event>
<event>
 5    0  0.1972558E-002  0.2432967E+03  0.7546771E-02  0.1117616E+00
         21   -1    0    0  501  502  0.00000000000E+00  0.00000000000E+00  0.14355426136E+04  0.14355426136E+04  0.00000000000E+00 0.  1.
         21   -1    0    0  502  503 -0.00000000000E+00 -0.00000000000E+00 -0.18742790854E+03  0.18742790854E+03  0.00000000000E+00 0. -1.
         25    1    1    2    0    0  0.16498053534E+03  0.11601298505E+03 -0.67443471320E+02  0.24668038342E+03  0.12500000000E+03 0.  0.
          1    1    1    2  501    0 -0.20351238492E+03 -0.14561531761E+03  0.49846090482E+03  0.55774939280E+03  0.00000000000E+00 0. -1.
         -1    1    1    2    0  503  0.38531849584E+02  0.29602332557E+02  0.81709727151E+03  0.81854074586E+03  0.00000000000E+00 0.  1.
<mgrwt>
<rscale>  4 0.24329671E+03</rscale>
<asrwt>0</asrwt>
<pdfrwt beam="1">  1       21 0.22085270E+00 0.24329671E+03</pdfrwt>
<pdfrwt beam="2">  1       21 0.28835064E-01 0.24329671E+03</pdfrwt>
<totfact> 0.10850332E+03</totfact>
</mgrwt>
</event>
<event>
 5    0  0.1972558E-002  0.2453364E+03  0.7546771E-02  0.1116288E+00
         21   -1    0    0  501  502  0.00000000000E+00  0.00000000000E+00  0.59711206009E+02  0.59711206009E+02  0.00000000000E+00 0.  1.
         21   -1    0    0  502  503 -0.00000000000E+00 -0.00000000000E+00 -0.13475634044E+04  0.13475634044E+04  0.00000000000E+00 0. -1.
         25    1    1    2    0    0  0.63800303654E+02 -0.20123243191E+03 -0.10746551686E+04  0.11023038156E+04  0.12500000000E+03 0.  0.
          4    1    1    2  501    0 -0.40337320988E+02  0.18075435757E+03 -0.19486225719E+03  0.26883179969E+03  0.00000000000E+00 0.  1.
         -4    1    1    2    0  503 -0.23462982666E+02  0.20478074342E+02 -0.18334772573E+02  0.36138995138E+02  0.00000000000E+00 0. -1.
<mgrwt>
<rscale>  4 0.24533644E+03</rscale>
<asrwt>0</asrwt>
<pdfrwt beam="1">  1       21 0.91863404E-02 0.24533644E+03</pdfrwt>
<pdfrwt beam="2">  1       21 0.20731742E+00 0.24533644E+03</pdfrwt>
<totfact> 0.10915978E+04</totfact>
</mgrwt>
</event>
<event>
 5    0  0.1972558E-002  0.2429793E+03  0.7546771E-02  0.1117824E+00
         21   -1    0    0  501  502  0.00000000000E+00  0.00000000000E+00  0.27404326919E+03  0.27404326919E+03  0.00000000000E+00 0. -1.
         21   -1    0    0  502  503 -0.00000000000E+00 -0.00000000000E+00 -0.21858924793E+04  0.21858924793E+04  0.00000000000E+00 0. -1.
         25    1    1    2    0    0  0.21000633976E+02  0.20668247250E+03 -0.20972988642E+04  0.21112664912E+04  0.12500000000E+03 0.  0.
          2    1    1    2  501    0  0.24104448727E+02  0.11854227781E+02  0.10982109895E+03  0.11305848460E+03  0.00000000000E+00 0.  1.
         -2    1    1    2    0  503 -0.45105082703E+02 -0.21853670028E+03  0.75628555154E+02  0.23561077270E+03  0.00000000000E+00 0. -1.
<mgrwt>
<rscale>  4 0.24297931E+03</rscale>
<asrwt>0</asrwt>
<pdfrwt beam="1">  1       21 0.42160502E-01 0.24297931E+03</pdfrwt>
<pdfrwt beam="2">  1       21 0.33629116E+00 0.24297931E+03</pdfrwt>
<totfact> 0.10553435E+02</totfact>
</mgrwt>
</event>
<event>
 5    0  0.1972558E-002  0.2202333E+03  0.7546771E-02  0.1133709E+00
         21   -1    0    0  501  502  0.00000000000E+00  0.00000000000E+00  0.11672839643E+03  0.11672839643E+03  0.00000000000E+00 0. -1.
         21   -1    0    0  502  503 -0.00000000000E+00 -0.00000000000E+00 -0.66311604553E+03  0.66311604553E+03  0.00000000000E+00 0. -1.
         25    1    1    2    0    0 -0.13847050206E+03  0.19305334187E+03 -0.32308934878E+03  0.42006594725E+03  0.12500000000E+03 0.  0.
          3    1    1    2  501    0  0.86262800176E+02 -0.36483025637E+02 -0.15512619357E+03  0.18120821666E+03  0.00000000000E+00 0.  1.
         -3    1    1    2    0  503  0.52207701879E+02 -0.15657031623E+03 -0.68172106754E+02  0.17857027804E+03  0.00000000000E+00 0. -1.
<mgrwt>
<rscale>  4 0.22023328E+03</rscale>
<asrwt>0</asrwt>
<pdfrwt beam="1">  1       21 0.17958215E-01 0.22023328E+03</pdfrwt>
<pdfrwt beam="2">  1       21 0.10201785E+00 0.22023328E+03</pdfrwt>
<totfact> 0.21713568E+04</totfact>
</mgrwt>
</event>
<event>
 5    0  0.1972558E-002  0.2739692E+03  0.7546771E-02  0.1099029E+00
         21   -1    0    0  501  502  0.00000000000E+00  0.00000000000E+00  0.10143174090E+03  0.10143174090E+03  0.00000000000E+00 0. -1.
         21   -1    0    0  502  503 -0.00000000000E+00 -0.00000000000E+00 -0.17707126829E+04  0.17707126829E+04  0.00000000000E+00 0. -1.
         25    1    1    2    0    0 -0.98267801949E+02 -0.22357303924E+03 -0.11133177856E+04  0.11466224124E+04  0.12500000000E+03 0.  0.
          1    1    1    2  501    0  0.73621760547E+02  0.23264977321E+03 -0.61460045540E+03  0.66127135155E+03  0.00000000000E+00 0. -1.
         -1    1    1    2    0  503  0.24646041401E+02 -0.90767339772E+01  0.58637299028E+02  0.64250659870E+02  0.00000000000E+00 0.  1.
<mgrwt>
<rscale>  4 0.27396917E+03</rscale>
<asrwt>0</asrwt>
<pdfrwt beam="1">  1       21 0.15604883E-01 0.27396917E+03</pdfrwt>
<pdfrwt beam="2">  1       21 0.27241734E+00 0.27396917E+03</pdfrwt>
<totfact> 0.16526164E+03</totfact>
</mgrwt>
</event>
<event>
 5    0  0.1972558E-002  0.2483341E+03  0.7546771E-02  0.1114362E+00
         21   -1    0    0  501  502  0.00000000000E+00  0.00000000000E+00  0.27701260804E+03  0.27701260804E+03  0.00000000000E+00 0.  1.
         21   -1    0    0  502  503 -0.00000000000E+00 -0.00000000000E+00 -0.39965324417E+03  0.39965324417E+03  0.00000000000E+00 0.  1.
         25    1    1    2    0    0 -0.22310180652E+03 -0.60423266116E+02  0.37017718531E+02  0.26536898584E+03  0.12500000000E+03 0.  0.
          3    1    1    2  501    0  0.12016881403E+02  0.50686283546E+02  0.77675234518E+02  0.93525113396E+02  0.00000000000E+00 0. -1.
         -3    1    1    2    0  503  0.21108492511E+03  0.97369825692E+01 -0.23733358917E+03  0.31777175297E+03  0.00000000000E+00 0.  1.
<mgrwt>
<rscale>  4 0.24833408E+03</rscale>
<asrwt>0</asrwt>
<pdfrwt beam="1">  1       21 0.42617324E-01 0.24833408E+03</pdfrwt>
<pdfrwt beam="2">  1       21 0.61485114E-01 0.24833408E+03</pdfrwt>
<totfact> 0.12593494E+04</totfact>
</mgrwt>
</event>
<event>
 5    0  0.1972558E-002  0.2956038E+03  0.7546771E-02  0.1087459E+00
         21   -1    0    0  501  502  0.00000000000E+00  0.00000000000E+00  0.39339563367E+03  0.39339563367E+03  0.00000000000E+00 0. -1.
         21   -1    0    0  502  503 -0.00000000000E+00 -0.00000000000E+00 -0.84537737011E+03  0.84537737011E+03  0.00000000000E+00 0.  1.
         25    1    1    2    0    0 -0.24836286090E+03 -0.96471561973E+02 -0.64929647733E+03  0.71288273118E+03  0.12500000000E+03 0.  0.
          4    1    1    2  501    0  0.36143859143E+01 -0.26781595800E+02  0.24607513922E+03  0.24755462387E+03  0.00000000000E+00 0. -1.
         -4    1    1    2    0  503  0.24474847499E+03  0.12325315777E+03 -0.48760398317E+02  0.27833564873E+03  0.00000000000E+00 0.  1.
<mgrwt>
<rscale>  4 0.29560380E+03</rscale>
<asrwt>0</asrwt>
<pdfrwt beam="1">  1       21 0.60522406E-01 0.29560380E+03</pdfrwt>
<pdfrwt beam="2">  1       21 0.13005806E+00 0.29560380E+03</pdfrwt>
<totfact> 0.10082855E+03</totfact>
</mgrwt>
</event>
<event>
 5    0  0.1972558E-002  0.2674463E+03  0.7546771E-02  0.1102750E+00
         21   -1    0    0  501  502  0.00000000000E+00  0.00000000000E+00  0.66119218321E+03  0.66119218321E+03  0.00000000000E+00 0.  1.
         21   -1    0    0  502  503 -0.00000000000E+00 -0.00000000000E+00 -0.22757922708E+03  0.22757922708E+03  0.00000000000E+00 0. -1.
         25    1    1    2    0    0  0.22575217403E+03 -0.58284940214E+02 -0.74159450560E+02  0.27474679697E+03  0.12500000000E+03 0.  0.
          2    1    1    2  501    0 -0.24731494454E+03  0.23916287474E+02  0.24783553723E+03  0.35094034267E+03  0.00000000000E+00 0. -1.
         -2    1    1    2    0  503  0.21562770505E+02  0.34368652740E+02  0.25993686946E+03  0.26308427065E+03  0.00000000000E+00 0.  1.
<mgrwt>
<rscale>  4 0.26744629E+03</rscale>
<asrwt>0</asrwt>
<pdfrwt beam="1">  1       21 0.10172187E+00 0.26744629E+03</pdfrwt>
<pdfrwt beam="2">  1       21 0.35012189E-01 0.26744629E+03</pdfrwt>
<totfact> 0.58954134E+03</totfact>
</mgrwt>
</event>
<event>
 5    0  0.1972558E-002  0.2487642E+03  0.7546771E-02  0.1114088E+00
         21   -1    0    0  503  502  0.00000000000E+00  0.00000000000E+00  0.53046058503E+02  0.53046058503E+02  0.00000000000E+00 0. -1.
         21   -1    0    0  501  503 -0.00000000000E+00 -0.00000000000E+00 -0.12689266383E+04  0.12689266383E+04  0.00000000000E+00 0. -1.
         25    1    1    2    0    0 -0.27149058053E+02 -0.21184221068E+03 -0.72748962711E+03  0.76842719312E+03  0.12500000000E+03 0.  0.
          4    1    1    2  501    0 -0.31616556804E+02  0.18153302183E+01 -0.21642940180E+02  0.38357775582E+02  0.00000000000E+00 0.  1.
         -4    1    1    2    0  502  0.58765614857E+02  0.21002688046E+03 -0.46674801254E+03  0.51518772813E+03  0.00000000000E+00 0. -1.
<mgrwt>
<rscale>  4 0.24876419E+03</rscale>
<asrwt>0</asrwt>
<pdfrwt beam="1">  1       21 0.81609328E-02 0.24876419E+03</pdfrwt>
<pdfrwt beam="2">  1       21 0.19521947E+00 0.24876419E+03</pdfrwt>
<totfact> 0.16065031E+04</totfact>
</mgrwt>
</event>
<event>
 5    0  0.1972558E-002  0.2363430E+03  0.7546771E-02  0.1122253E+00
         21   -1    0    0  501  502  0.00000000000E+00  0.00000000000E+00  0.16435142699E+03  0.16435142699E+03  0.00000000000E+00 0. -1.
         21   -1    0    0  502  503 -0.00000000000E+00 -0.00000000000E+00 -0.34850112643E+03  0.34850112643E+03  0.00000000000E+00 0.  1.
         25    1    1    2    0    0  0.61475562061E+02  0.19092874397E+03 -0.19926942837E+03  0.30913805183E+03  0.12500000000E+03 0.  0.
          3    1    1    2  501    0 -0.60476267945E+02 -0.16363070493E+03  0.21192314700E+02  0.17573133125E+03  0.00000000000E+00 0. -1.
         -3    1    1    2    0  503 -0.99929411624E+00 -0.27298039046E+02 -0.60725857699E+01  0.27983170343E+02  0.00000000000E+00 0.  1.
<mgrwt>
<rscale>  4 0.23634303E+03</rscale>
<asrwt>0</asrwt>
<pdfrwt beam="1">  1       21 0.25284835E-01 0.23634303E+03</pdfrwt>
<pdfrwt beam="2">  1       21 0.53615557E-01 0.23634303E+03</pdfrwt>
<totfact> 0.47811644E+04</totfact>
</mgrwt>
</event>
<event>
 5    0  0.1972558E-002  0.2486302E+03  0.7546771E-02  0.1114174E+00
         21   -1    0    0  501  502  0.00000000000E+00  0.00000000000E+00  0.10600281738E+04  0.10600281738E+04  0.00000000000E+00 0. -1.
         21   -1    0    0  502  503 -0.00000000000E+00 -0.00000000000E+00 -0.65194884612E+02  0.65194884612E+02  0.00000000000E+00 0.  1.
         25    1    1    2    0    0  0.19781139344E+03 -0.10200223209E+03  0.45551228346E+03  0.52215921241E+03  0.12500000000E+03 0.  0.
          2    1    1    2  501    0 -0.43380946579E+01  0.21040974803E+02  0.21987459161E+03  0.22092165516E+03  0.00000000000E+00 0.  1.
         -2    1    1    2    0  503 -0.19347329878E+03  0.80961257289E+02  0.31944641415E+03  0.38214219086E+03  0.00000000000E+00 0. -1.
<mgrwt>
<rscale>  4 0.24863016E+03</rscale>
<asrwt>0</asrwt>
<pdfrwt beam="1">  1       21 0.16308124E+00 0.24863016E+03</pdfrwt>
<pdfrwt beam="2">  1       21 0.10029983E-01 0.24863016E+03</pdfrwt>
<totfact> 0.18617505E+04</totfact>
</mgrwt>
</event>
<event>
 5    0  0.1972558E-002  0.5097852E+03  0.7546771E-02  0.1012409E+00
         21   -1    0    0  501  502  0.00000000000E+00  0.00000000000E+00  0.77216726752E+03  0.77216726752E+03  0.00000000000E+00 0.  1.
         21   -1    0    0  502  503 -0.00000000000E+00 -0.00000000000E+00 -0.34344394220E+03  0.34344394220E+03  0.00000000000E+00 0. -1.
         25    1    1    2    0    0 -0.93610722424E+01 -0.47577922605E+03  0.81275304540E+02  0.49868244078E+03  0.12500000000E+03 0.  0.
          3    1    1    2  501    0  0.17188555760E+02  0.38950148290E+03  0.18220871664E+03  0.43035667539E+03  0.00000000000E+00 0.  1.
         -3    1    1    2    0  503 -0.78274835177E+01  0.86277743148E+02  0.16523930415E+03  0.18657209356E+03  0.00000000000E+00 0. -1.
<mgrwt>
<rscale>  4 0.50528332E+03</rscale>
<asrwt>0</asrwt>
<pdfrwt beam="1">  1       21 0.11879496E+00 0.50978523E+03</pdfrwt>
<pdfrwt beam="2">  1       21 0.52837530E-01 0.50978523E+03</pdfrwt>
<totfact> 0.15401223E+03</totfact>
</mgrwt>
</event>
<event>
 5    0  0.1972558E-002  0.2600772E+03  0.7546771E-02  0.1107097E+00
         21   -1    0    0  501  502  0.00000000000E+00  0.00000000000E+00  0.10461672530E+04  0.10461672530E+04  0.00000000000E+00 0. -1.
         21   -1    0    0  502  503 -0.00000000000E+00 -0.00000000000E+00 -0.26500637377E+03  0.26500637377E+03  0.00000000000E+00 0.  1.
         25    1    1    2    0    0  0.20697501244E+03  0.86160491634E+02 -0.16303390583E+03  0.30408442996E+03  0.12500000000E+03 0.  0.
          3    1    1    2  501    0  0.30056984108E+02  0.14954091304E+02  0.43600169698E+03  0.43729226715E+03  0.00000000000E+00 0.  1.
         -3    1    1    2    0  503 -0.23703199655E+03 -0.10111458294E+03  0.50819308804E+03  0.56979692962E+03  0.00000000000E+00 0. -1.
<mgrwt>
<rscale>  4 0.26007723E+03</rscale>
<asrwt>0</asrwt>
<pdfrwt beam="1">  1       21 0.16094881E+00 0.26007723E+03</pdfrwt>
<pdfrwt beam="2">  1       21 0.40770212E-01 0.26007723E+03</pdfrwt>
<totfact> 0.13518227E+03</totfact>
</mgrwt>
</event>
<event>
 5    0  0.1972558E-002  0.2967969E+03  0.7546771E-02  0.1086853E+00
         21   -1    0    0  503  502  0.00000000000E+00  0.00000000000E+00  0.45847504857E+03  0.45847504857E+03  0.00000000000E+00 0. -1.
         21   -1    0    0  501  503 -0.00000000000E+00 -0.00000000000E+00 -0.34514693170E+03  0.34514693170E+03  0.00000000000E+00 0.  1.
         25    1    1    2    0    0  0.27510560090E+03 -0.80285677842E+02 -0.18992871729E+03  0.36582345382E+03  0.12500000000E+03 0.  0.
          2    1    1    2  501    0 -0.20378880416E+03  0.10142903715E+03  0.16617973323E+03  0.28183936917E+03  0.00000000000E+00 0. -1.
         -2    1    1    2    0  502 -0.71316796743E+02 -0.21143359306E+02  0.13707710093E+03  0.15595915728E+03  0.00000000000E+00 0.  1.
<mgrwt>
<rscale>  4 0.29679686E+03</rscale>
<asrwt>0</asrwt>
<pdfrwt beam="1">  1       21 0.70534623E-01 0.29679686E+03</pdfrwt>
<pdfrwt beam="2">  1       21 0.53099528E-01 0.29679686E+03</pdfrwt>
<totfact> 0.57363954E+03</totfact>
</mgrwt>
</event>
<event>
 5    0  0.1972558E-002  0.2444908E+03  0.7546771E-02  0.1116837E+00
         21   -1    0    0  501  502  0.00000000000E+00  0.00000000000E+00  0.17402304922E+04  0.17402304922E+04  0.00000000000E+00 0. -1.
         21   -1    0    0  502  503 -0.00000000000E+00 -0.00000000000E+00 -0.17376595748E+03  0.17376595748E+03  0.00000000000E+00 0. -1.
         25    1    1    2    0    0  0.11074441606E+03 -0.17190894873E+03 -0.29586986740E+02  0.24148996279E+03  0.12500000000E+03 0.  0.
          4    1    1    2  501    0 -0.12514202382E+03  0.19092712803E+03  0.30367961356E+03  0.37991446674E+03  0.00000000000E+00 0.  1.
         -4    1    1    2    0  503  0.14397607762E+02 -0.19018179301E+02  0.12923719079E+04  0.12925920201E+04  0.00000000000E+00 0. -1.
<mgrwt>
<rscale>  4 0.24449081E+03</rscale>
<asrwt>0</asrwt>
<pdfrwt beam="1">  1       21 0.26772776E+00 0.24449081E+03</pdfrwt>
<pdfrwt beam="2">  1       21 0.26733225E-01 0.24449081E+03</pdfrwt>
<totfact> 0.65640748E+02</totfact>
</mgrwt>
</event>
<event>
 5    0  0.1972558E-002  0.3273194E+03  0.7546771E-02  0.1072329E+00
         21   -1    0    0  501  502  0.00000000000E+00  0.00000000000E+00  0.99270110120E+03  0.99270110120E+03  0.00000000000E+00 0. -1.
         21   -1    0    0  502  503 -0.00000000000E+00 -0.00000000000E+00 -0.25898146738E+03  0.25898146738E+03  0.00000000000E+00 0.  1.
         25    1    1    2    0    0  0.13129155125E+03 -0.24957145236E+03  0.93464533243E+02  0.32231040976E+03  0.12500000000E+03 0.  0.
          4    1    1    2  501    0 -0.19384186826E+03  0.25742649193E+03  0.38745290917E+02  0.32456781450E+03  0.00000000000E+00 0.  1.
         -4    1    1    2    0  503  0.62550317012E+02 -0.78550395689E+01  0.60150980966E+03  0.60480434433E+03  0.00000000000E+00 0. -1.
<mgrwt>
<rscale>  4 0.32731939E+03</rscale>
<asrwt>0</asrwt>
<pdfrwt beam="1">  1       21 0.15272325E+00 0.32731939E+03</pdfrwt>
<pdfrwt beam="2">  1       21 0.39843303E-01 0.32731939E+03</pdfrwt>
<totfact> 0.15626489E+03</totfact>
</mgrwt>
</event>
<event>
 5    0  0.1972558E-002  0.2452967E+03  0.7546771E-02  0.1116314E+00
         21   -1    0    0  501  502  0.00000000000E+00  0.00000000000E+00  0.18212261063E+03  0.18212261063E+03  0.00000000000E+00 0. -1.
         21   -1    0    0  502  503 -0.00000000000E+00 -0.00000000000E+00 -0.42980546952E+03  0.42980546952E+03  0.00000000000E+00 0. -1.
         25    1    1    2    0    0 -0.16013617868E+03 -0.14333549663E+03 -0.18977917092E+03  0.31277754720E+03  0.12500000000E+03 0.  0.
          4    1    1    2  501    0  0.13386191102E+03  0.15951368533E+03 -0.11231645124E+03  0.23659799713E+03  0.00000000000E+00 0. -1.
         -4    1    1    2    0  503  0.26274267667E+02 -0.16178188697E+02  0.54412763264E+02  0.62552535816E+02  0.00000000000E+00 0.  1.
<mgrwt>
<rscale>  4 0.24529668E+03</rscale>
<asrwt>0</asrwt>
<pdfrwt beam="1">  1       21 0.28018864E-01 0.24529668E+03</pdfrwt>
<pdfrwt beam="2">  1       21 0.66123917E-01 0.24529668E+03</pdfrwt>
<totfact> 0.24844212E+04</totfact>
</mgrwt>
</event>
<event>
 5    0  0.1972558E-002  0.3215654E+03  0.7546771E-02  0.1074931E+00
         21   -1    0    0  501  502  0.00000000000E+00  0.00000000000E+00  0.42001526625E+03  0.42001526625E+03  0.00000000000E+00 0. -1.
         21   -1    0    0  502  503 -0.00000000000E+00 -0.00000000000E+00 -0.45834619803E+03  0.45834619803E+03  0.00000000000E+00 0. -1.
         25    1    1    2    0    0 -0.23338378565E+03  0.17522329273E+03 -0.22433182693E+03  0.38874279710E+03  0.12500000000E+03 0.  0.
          2    1    1    2  501    0  0.27271113351E+03 -0.14218029138E+03  0.11553744348E+02  0.30776628569E+03  0.00000000000E+00 0. -1.
         -2    1    1    2    0  503 -0.39327347867E+02 -0.33043001357E+02  0.17444715081E+03  0.18185238149E+03  0.00000000000E+00 0.  1.
<mgrwt>
<rscale>  4 0.32156545E+03</rscale>
<asrwt>0</asrwt>
<pdfrwt beam="1">  1       21 0.64617733E-01 0.32156545E+03</pdfrwt>
<pdfrwt beam="2">  1       21 0.70514800E-01 0.32156545E+03</pdfrwt>
<totfact> 0.37074135E+03</totfact>
</mgrwt>
</event>
<event>
 5    0  0.1972558E-002  0.2762470E+03  0.7546771E-02  0.1097757E+00
         21   -1    0    0  501  502  0.00000000000E+00  0.00000000000E+00  0.47969745123E+03  0.47969745123E+03  0.00000000000E+00 0. -1.
         21   -1    0    0  502  503 -0.00000000000E+00 -0.00000000000E+00 -0.11111840944E+04  0.11111840944E+04  0.00000000000E+00 0.  1.
         25    1    1    2    0    0 -0.23647830465E+03 -0.59844855111E+02 -0.50720262026E+03  0.57652657636E+03  0.12500000000E+03 0.  0.
          1    1    1    2  501    0  0.25362223392E+03 -0.21268729839E+02 -0.53654025109E+03  0.59384512918E+03  0.00000000000E+00 0.  1.
         -1    1    1    2    0  503 -0.17143929270E+02  0.81113584950E+02  0.41225622816E+03  0.42050984011E+03  0.00000000000E+00 0. -1.
<mgrwt>
<rscale>  4 0.27624699E+03</rscale>
<asrwt>0</asrwt>
<pdfrwt beam="1">  1       21 0.73799608E-01 0.27624699E+03</pdfrwt>
<pdfrwt beam="2">  1       21 0.17095140E+00 0.27624699E+03</pdfrwt>
<totfact> 0.31775495E+02</totfact>
</mgrwt>
</event>
<event>
 5    0  0.1972558E-002  0.3265108E+03  0.7546771E-02  0.1072691E+00
         21   -1    0    0  501  502  0.00000000000E+00  0.00000000000E+00  0.54811584745E+03  0.54811584745E+03  0.00000000000E+00 0.  1.
         21   -1    0    0  502  503 -0.00000000000E+00 -0.00000000000E+00 -0.30729213333E+03  0.30729213333E+03  0.00000000000E+00 0.  1.
         25    1    1    2    0    0 -0.84227241708E+02 -0.26763027025E+03 -0.70727189092E+02  0.31519442425E+03  0.12500000000E+03 0.  0.
          1    1    1    2  501    0  0.12187476872E+03  0.33365038732E+03  0.20755272815E+03  0.41140512293E+03  0.00000000000E+00 0.  1.
         -1    1    1    2    0  503 -0.37647527013E+02 -0.66020117071E+02  0.10399817507E+03  0.12880843360E+03  0.00000000000E+00 0. -1.
<mgrwt>
<rscale>  4 0.32651083E+03</rscale>
<asrwt>0</asrwt>
<pdfrwt beam="1">  1       21 0.84325515E-01 0.32651083E+03</pdfrwt>
<pdfrwt beam="2">  1       21 0.47275713E-01 0.32651083E+03</pdfrwt>
<totfact> 0.48142770E+03</totfact>
</mgrwt>
</event>
<event>
 5    0  0.1972558E-002  0.3395729E+03  0.7546771E-02  0.1066978E+00
         21   -1    0    0  501  502  0.00000000000E+00  0.00000000000E+00  0.44381993874E+03  0.44381993874E+03  0.00000000000E+00 0. -1.
         21   -1    0    0  502  503 -0.00000000000E+00 -0.00000000000E+00 -0.93339734130E+03  0.93339734130E+03  0.00000000000E+00 0.  1.
         25    1    1    2    0    0 -0.19690594458E+03 -0.22920475912E+03 -0.57182260197E+03  0.65872062419E+03  0.12500000000E+03 0.  0.
          1    1    1    2  501    0  0.35215319684E+01 -0.59114945920E+02  0.30191461227E+03  0.30766769593E+03  0.00000000000E+00 0. -1.
         -1    1    1    2    0  503  0.19338441261E+03  0.28831970505E+03 -0.21966941286E+03  0.41082895992E+03  0.00000000000E+00 0.  1.
<mgrwt>
<rscale>  4 0.33957292E+03</rscale>
<asrwt>0</asrwt>
<pdfrwt beam="1">  1       21 0.68279990E-01 0.33957292E+03</pdfrwt>
<pdfrwt beam="2">  1       21 0.14359959E+00 0.33957292E+03</pdfrwt>
<totfact> 0.58069125E+02</totfact>
</mgrwt>
</event>
<event>
 5    0  0.1972558E-002  0.2557238E+03  0.7546771E-02  0.1109740E+00
         21   -1    0    0  501  502  0.00000000000E+00  0.00000000000E+00  0.89354596738E+02  0.89354596738E+02  0.00000000000E+00 0. -1.
         21   -1    0    0  502  503 -0.00000000000E+00 -0.00000000000E+00 -0.79085677393E+03  0.79085677393E+03  0.00000000000E+00 0. -1.
         25    1    1    2    0    0 -0.21427219274E+03  0.49620074862E+02 -0.35075383052E+03  0.43246730979E+03  0.12500000000E+03 0.  0.
          3    1    1    2  501    0 -0.96335541800E+01 -0.18857182495E+02  0.89058710077E+01  0.22972009842E+02  0.00000000000E+00 0.  1.
         -3    1    1    2    0  503  0.22390574692E+03 -0.30762892367E+02 -0.35965421768E+03  0.42477205104E+03  0.00000000000E+00 0. -1.
<mgrwt>
<rscale>  4 0.25572378E+03</rscale>
<asrwt>0</asrwt>
<pdfrwt beam="1">  1       21 0.13746861E-01 0.25572378E+03</pdfrwt>
<pdfrwt beam="2">  1       21 0.12167027E+00 0.25572378E+03</pdfrwt>
<totfact> 0.22635638E+04</totfact>
</mgrwt>
</event>
<event>
 5    0  0.1972558E-002  0.2483636E+03  0.7546771E-02  0.1114343E+00
         21   -1    0    0  501  502  0.00000000000E+00  0.00000000000E+00  0.74607486595E+02  0.74607486595E+02  0.00000000000E+00 0.  1.
         21   -1    0    0  502  503 -0.00000000000E+00 -0.00000000000E+00 -0.80032459132E+03  0.80032459132E+03  0.00000000000E+00 0. -1.
         25    1    1    2    0    0  0.20395230375E+03 -0.66805256517E+02 -0.51309973768E+03  0.57004896747E+03  0.12500000000E+03 0.  0.
          2    1    1    2  501    0 -0.18381283225E+03  0.58375055924E+02 -0.20572431271E+03  0.28198811552E+03  0.00000000000E+00 0.  1.
         -2    1    1    2    0  503 -0.20139471505E+02  0.84302005924E+01 -0.68930543268E+01  0.22894994922E+02  0.00000000000E+00 0. -1.
<mgrwt>
<rscale>  4 0.24836361E+03</rscale>
<asrwt>0</asrwt>
<pdfrwt beam="1">  1       21 0.11478075E-01 0.24836361E+03</pdfrwt>
<pdfrwt beam="2">  1       21 0.12312686E+00 0.24836361E+03</pdfrwt>
<totfact> 0.30539619E+04</totfact>
</mgrwt>
</event>
<event>
 5    0  0.1972558E-002  0.3585642E+03  0.7546771E-02  0.1059154E+00
         21   -1    0    0  503  502  0.00000000000E+00  0.00000000000E+00  0.15610556800E+04  0.15610556800E+04  0.00000000000E+00 0. -1.
         21   -1    0    0  501  503 -0.00000000000E+00 -0.00000000000E+00 -0.16320240273E+03  0.16320240273E+03  0.00000000000E+00 0.  1.
         25    1    1    2    0    0 -0.29316472053E+03  0.21226085556E+03  0.49032826905E+03  0.62213104375E+03  0.12500000000E+03 0.  0.
          3    1    1    2  501    0 -0.55153543320E+02 -0.21944670101E+03  0.58550976764E+03  0.62771048735E+03  0.00000000000E+00 0. -1.
         -3    1    1    2    0  502  0.34831826385E+03  0.71858454559E+01  0.32201524060E+03  0.47441655165E+03  0.00000000000E+00 0.  1.
<mgrwt>
<rscale>  4 0.35856422E+03</rscale>
<asrwt>0</asrwt>
<pdfrwt beam="1">  1       21 0.24016240E+00 0.35856422E+03</pdfrwt>
<pdfrwt beam="2">  1       21 0.25108063E-01 0.35856422E+03</pdfrwt>
<totfact> 0.98903443E+02</totfact>
</mgrwt>
</event>
<event>
 5    0  0.1972558E-002  0.2917298E+03  0.7546771E-02  0.1089449E+00
         21   -1    0    0  501  502  0.00000000000E+00  0.00000000000E+00  0.13424864039E+03  0.13424864039E+03  0.00000000000E+00 0.  1.
         21   -1    0    0  502  503 -0.00000000000E+00 -0.00000000000E+00 -0.13233103416E+04  0.13233103416E+04  0.00000000000E+00 0.  1.
         25    1    1    2    0    0  0.19311270789E+03  0.16267176723E+03 -0.87383057966E+03  0.91812826106E+03  0.12500000000E+03 0.  0.
          3    1    1    2  501    0 -0.27687362970E+03 -0.12039666040E+03 -0.32677293494E+03  0.44489876789E+03  0.00000000000E+00 0.  1.
         -3    1    1    2    0  503  0.83760921809E+02 -0.42275106829E+02  0.11541813437E+02  0.94531952996E+02  0.00000000000E+00 0. -1.
<mgrwt>
<rscale>  4 0.29172978E+03</rscale>
<asrwt>0</asrwt>
<pdfrwt beam="1">  1       21 0.20653637E-01 0.29172978E+03</pdfrwt>
<pdfrwt beam="2">  1       21 0.20358621E+00 0.29172978E+03</pdfrwt>
<totfact> 0.25499471E+03</totfact>
</mgrwt>
</event>
<event>
 5    0  0.1972558E-002  0.2932897E+03  0.7546771E-02  0.1088644E+00
         21   -1    0    0  501  502  0.00000000000E+00  0.00000000000E+00  0.44627542295E+03  0.44627542295E+03  0.00000000000E+00 0.  1.
         21   -1    0    0  502  503 -0.00000000000E+00 -0.00000000000E+00 -0.19714068379E+03  0.19714068379E+03  0.00000000000E+00 0.  1.
         25    1    1    2    0    0  0.11946122464E+03  0.23862616598E+03  0.12288115355E+03  0.31927763652E+03  0.12500000000E+03 0.  0.
          2    1    1    2  501    0  0.16931424162E+02 -0.12099461951E+02  0.41573565220E+02  0.46491197325E+02  0.00000000000E+00 0. -1.
         -2    1    1    2    0  503 -0.13639264880E+03 -0.22652670403E+03  0.84680020397E+02  0.27764727289E+03  0.00000000000E+00 0.  1.
<mgrwt>
<rscale>  4 0.29328971E+03</rscale>
<asrwt>0</asrwt>
<pdfrwt beam="1">  1       21 0.68657757E-01 0.29328971E+03</pdfrwt>
<pdfrwt beam="2">  1       21 0.30329336E-01 0.29328971E+03</pdfrwt>
<totfact> 0.19168011E+04</totfact>
</mgrwt>
</event>
<event>
 5    0  0.1972558E-002  0.3025980E+03  0.7546771E-02  0.1083949E+00
         21   -1    0    0  501  502  0.00000000000E+00  0.00000000000E+00  0.10965551601E+04  0.10965551601E+04  0.00000000000E+00 0. -1.
         21   -1    0    0  502  503 -0.00000000000E+00 -0.00000000000E+00 -0.10703819764E+03  0.10703819764E+03  0.00000000000E+00 0. -1.
         25    1    1    2    0    0  0.12718030554E+03 -0.24447024727E+03  0.20707304689E+03  0.36666712242E+03  0.12500000000E+03 0.  0.
          3    1    1    2  501    0 -0.14452727639E+03  0.19636592236E+03  0.60565689085E+03  0.65289201137E+03  0.00000000000E+00 0. -1.
         -3    1    1    2    0  503  0.17346970853E+02  0.48104324904E+02  0.17678702473E+03  0.18403422395E+03  0.00000000000E+00 0.  1.
<mgrwt>
<rscale>  4 0.30259797E+03</rscale>
<asrwt>0</asrwt>
<pdfrwt beam="1">  1       21 0.16870079E+00 0.30259797E+03</pdfrwt>
<pdfrwt beam="2">  1       21 0.16467416E-01 0.30259797E+03</pdfrwt>
<totfact> 0.66937492E+03</totfact>
</mgrwt>
</event>
<event>
 5    0  0.1972558E-002  0.2115400E+03  0.7546771E-02  0.1140352E+00
         21   -1    0    0  501  502  0.00000000000E+00  0.00000000000E+00  0.52332465135E+03  0.52332465135E+03  0.00000000000E+00 0.  1.
         21   -1    0    0  502  503 -0.00000000000E+00 -0.00000000000E+00 -0.13259928006E+03  0.13259928006E+03  0.00000000000E+00 0.  1.
         25    1    1    2    0    0 -0.54663642121E+02 -0.20670708152E+03  0.93888747169E+02  0.26486983249E+03  0.12500000000E+03 0.  0.
          4    1    1    2  501    0 -0.19834664088E+02  0.85906310140E+02  0.20187914783E+03  0.22029184813E+03  0.00000000000E+00 0. -1.
         -4    1    1    2    0  503  0.74498306209E+02  0.12080077138E+03  0.94957476284E+02  0.17076225079E+03  0.00000000000E+00 0.  1.
<mgrwt>
<rscale>  4 0.21153998E+03</rscale>
<asrwt>0</asrwt>
<pdfrwt beam="1">  1       21 0.80511484E-01 0.21153998E+03</pdfrwt>
<pdfrwt beam="2">  1       21 0.20399890E-01 0.21153998E+03</pdfrwt>
<totfact> 0.29842250E+04</totfact>
</mgrwt>
</event>
<event>
 5    0  0.1972558E-002  0.3598363E+03  0.7546771E-02  0.1058649E+00
         21   -1    0    0  501  502  0.00000000000E+00  0.00000000000E+00  0.15858822006E+04  0.15858822006E+04  0.00000000000E+00 0.  1.
         21   -1    0    0  502  503 -0.00000000000E+00 -0.00000000000E+00 -0.81607644115E+02  0.81607644115E+02  0.00000000000E+00 0. -1.
         25    1    1    2    0    0  0.14308489122E+03  0.30558771592E+03  0.65020780724E+03  0.74313681837E+03  0.12500000000E+03 0.  0.
          2    1    1    2  501    0 -0.12035152182E+03 -0.26391459433E+03  0.80682593955E+03  0.85738176947E+03  0.00000000000E+00 0.  1.
         -2    1    1    2    0  503 -0.22733369401E+02 -0.41673121599E+02  0.47240809744E+02  0.66971256920E+02  0.00000000000E+00 0. -1.
<mgrwt>
<rscale>  4 0.35983627E+03</rscale>
<asrwt>0</asrwt>
<pdfrwt beam="1">  1       21 0.24398185E+00 0.35983627E+03</pdfrwt>
<pdfrwt beam="2">  1       21 0.12555023E-01 0.35983627E+03</pdfrwt>
<totfact> 0.34352174E+03</totfact>
</mgrwt>
</event>
<event>
 5    0  0.1972558E-002  0.3040646E+03  0.7546771E-02  0.1083226E+00
         21   -1    0    0  503  502  0.00000000000E+00  0.00000000000E+00  0.22782507349E+03  0.22782507349E+03  0.00000000000E+00 0.  1.
         21   -1    0    0  501  503 -0.00000000000E+00 -0.00000000000E+00 -0.44823902138E+03  0.44823902138E+03  0.00000000000E+00 0.  1.
         25    1    1    2    0    0  0.25439664766E+03  0.85005961862E+02 -0.11254043061E+03  0.31659756224E+03  0.12500000000E+03 0.  0.
          3    1    1    2  501    0  0.22835063362E+01  0.42679108171E+02  0.17986752523E+02  0.46370722894E+02  0.00000000000E+00 0. -1.
         -3    1    1    2    0  502 -0.25668015400E+03 -0.12768507003E+03 -0.12586026980E+03  0.31309580974E+03  0.00000000000E+00 0.  1.
<mgrwt>
<rscale>  4 0.30406462E+03</rscale>
<asrwt>0</asrwt>
<pdfrwt beam="1">  1       21 0.35050012E-01 0.30406462E+03</pdfrwt>
<pdfrwt beam="2">  1       21 0.68959849E-01 0.30406462E+03</pdfrwt>
<totfact> 0.14172973E+04</totfact>
</mgrwt>
</event>
<event>
 5    0  0.1972558E-002  0.3041049E+03  0.7546771E-02  0.1083206E+00
         21   -1    0    0  501  502  0.00000000000E+00  0.00000000000E+00  0.18763631551E+03  0.18763631551E+03  0.00000000000E+00 0.  1.
         21   -1    0    0  502  503 -0.00000000000E+00 -0.00000000000E+00 -0.11200942733E+04  0.11200942733E+04  0.00000000000E+00 0. -1.
         25    1    1    2    0    0  0.77474698101E+02 -0.22435169557E+03 -0.49275225030E+03  0.56103992044E+03  0.12500000000E+03 0.  0.
          4    1    1    2  501    0  0.59408619908E+02 -0.82274114963E+02  0.79120767737E+02  0.12867987410E+03  0.00000000000E+00 0.  1.
         -4    1    1    2    0  503 -0.13688331801E+03  0.30662581053E+03 -0.51882647524E+03  0.61801079428E+03  0.00000000000E+00 0. -1.
<mgrwt>
<rscale>  4 0.30410490E+03</rscale>
<asrwt>0</asrwt>
<pdfrwt beam="1">  1       21 0.28867126E-01 0.30410490E+03</pdfrwt>
<pdfrwt beam="2">  1       21 0.17232219E+00 0.30410490E+03</pdfrwt>
<totfact> 0.21634667E+03</totfact>
</mgrwt>
</event>
<event>
 5    0  0.1972558E-002  0.2960127E+03  0.7546771E-02  0.1087251E+00
         21   -1    0    0  501  502  0.00000000000E+00  0.00000000000E+00  0.70900630930E+03  0.70900630930E+03  0.00000000000E+00 0.  1.
         21   -1    0    0  502  503 -0.00000000000E+00 -0.00000000000E+00 -0.15524263907E+04  0.15524263907E+04  0.00000000000E+00 0.  1.
         25    1    1    2    0    0 -0.14244434786E+03  0.22803354775E+03 -0.15074078286E+04  0.15362919816E+04  0.12500000000E+03 0.  0.
          1    1    1    2  501    0  0.13572421810E+03 -0.20872277695E+03  0.48675789777E+03  0.54673532174E+03  0.00000000000E+00 0.  1.
         -1    1    1    2    0  503  0.67201297659E+01 -0.19310770801E+02  0.17722984943E+03  0.17840539662E+03  0.00000000000E+00 0. -1.
<mgrwt>
<rscale>  4 0.29601267E+03</rscale>
<asrwt>0</asrwt>
<pdfrwt beam="1">  1       21 0.10907790E+00 0.29601267E+03</pdfrwt>
<pdfrwt beam="2">  1       21 0.23883483E+00 0.29601267E+03</pdfrwt>
<totfact> 0.45131076E+01</totfact>
</mgrwt>
</event>
<event>
 5    0  0.1972558E-002  0.2228385E+03  0.7546771E-02  0.1131784E+00
         21   -1    0    0  501  502  0.00000000000E+00  0.00000000000E+00  0.10146106907E+04  0.10146106907E+04  0.00000000000E+00 0.  1.
         21   -1    0    0  502  503 -0.00000000000E+00 -0.00000000000E+00 -0.18883855495E+03  0.18883855495E+03  0.00000000000E+00 0.  1.
         25    1    1    2    0    0  0.17719484613E+03 -0.15675696733E+03  0.59335089522E+03  0.65089249893E+03  0.12500000000E+03 0.  0.
          4    1    1    2  501    0 -0.13622775271E+03  0.11791142911E+03 -0.10628130098E+03  0.20918131050E+03  0.00000000000E+00 0.  1.
         -4    1    1    2    0  503 -0.40967093418E+02  0.38845538223E+02  0.33870254146E+03  0.34337543618E+03  0.00000000000E+00 0. -1.
<mgrwt>
<rscale>  4 0.22283851E+03</rscale>
<asrwt>0</asrwt>
<pdfrwt beam="1">  1       21 0.15609395E+00 0.22283851E+03</pdfrwt>
<pdfrwt beam="2">  1       21 0.29052086E-01 0.22283851E+03</pdfrwt>
<totfact> 0.29715850E+03</totfact>
</mgrwt>
</event>
<event>
 5    0  0.1972558E-002  0.2824382E+03  0.7546771E-02  0.1094365E+00
         21   -1    0    0  501  502  0.00000000000E+00  0.00000000000E+00  0.24095806999E+03  0.24095806999E+03  0.00000000000E+00 0.  1.
         21   -1    0    0  502  503 -0.00000000000E+00 -0.00000000000E+00 -0.60070489620E+03  0.60070489620E+03  0.00000000000E+00 0. -1.
         25    1    1    2    0    0 -0.18341505718E+02  0.25539655945E+03 -0.38058995178E+03  0.47543403834E+03  0.12500000000E+03 0.  0.
          2    1    1    2  501    0  0.10662633826E+03 -0.23491381410E+03 -0.34133120337E+02  0.26022825744E+03  0.00000000000E+00 0.  1.
         -2    1    1    2    0  503 -0.88284832541E+02 -0.20482745351E+02  0.54976245912E+02  0.10600067042E+03  0.00000000000E+00 0. -1.
<mgrwt>
<rscale>  4 0.28243819E+03</rscale>
<asrwt>0</asrwt>
<pdfrwt beam="1">  1       21 0.37070473E-01 0.28243819E+03</pdfrwt>
<pdfrwt beam="2">  1       21 0.92416137E-01 0.28243819E+03</pdfrwt>
<totfact> 0.65489802E+03</totfact>
</mgrwt>
</event>
<event>
 5    0  0.1972558E-002  0.2398282E+03  0.7546771E-02  0.1119907E+00
         21   -1    0    0  501  502  0.00000000000E+00  0.00000000000E+00  0.90519287624E+02  0.90519287624E+02  0.00000000000E+00 0. -1.
         21   -1    0    0  502  503 -0.00000000000E+00 -0.00000000000E+00 -0.86823411900E+03  0.86823411900E+03  0.00000000000E+00 0. -1.
         25    1    1    2    0    0 -0.83852919381E+02  0.18671169957E+03 -0.69629709709E+03  0.73644227083E+03  0.12500000000E+03 0.  0.
          4    1    1    2  501    0  0.72265288536E+02 -0.16497274665E+03 -0.81472546731E+02  0.19767664236E+03  0.00000000000E+00 0. -1.
         -4    1    1    2    0  503  0.11587630846E+02 -0.21738952917E+02  0.54812445297E-01  0.24634493438E+02  0.00000000000E+00 0.  1.
<mgrwt>
<rscale>  4 0.23982821E+03</rscale>
<asrwt>0</asrwt>
<pdfrwt beam="1">  1       21 0.13926045E-01 0.23982821E+03</pdfrwt>
<pdfrwt beam="2">  1       21 0.13357448E+00 0.23982821E+03</pdfrwt>
<totfact> 0.17595507E+04</totfact>
</mgrwt>
</event>
<event>
 5    0  0.1972558E-002  0.3531546E+03  0.7546771E-02  0.1061328E+00
         21   -1    0    0  501  502  0.00000000000E+00  0.00000000000E+00  0.94478049425E+03  0.94478049425E+03  0.00000000000E+00 0.  1.
         21   -1    0    0  502  503 -0.00000000000E+00 -0.00000000000E+00 -0.17054915022E+03  0.17054915022E+03  0.00000000000E+00 0.  1.
         25    1    1    2    0    0  0.11199233972E+03  0.35229378530E+03  0.29953775199E+03  0.49193603262E+03  0.12500000000E+03 0.  0.
          2    1    1    2  501    0 -0.90851152268E+02 -0.29761237590E+03  0.47118686936E+03  0.56466284101E+03  0.00000000000E+00 0.  1.
         -2    1    1    2    0  503 -0.21141187447E+02 -0.54681409400E+02  0.35067226761E+01  0.58730770850E+02  0.00000000000E+00 0. -1.
<mgrwt>
<rscale>  4 0.35315458E+03</rscale>
<asrwt>0</asrwt>
<pdfrwt beam="1">  1       21 0.14535084E+00 0.35315458E+03</pdfrwt>
<pdfrwt beam="2">  1       21 0.26238331E-01 0.35315458E+03</pdfrwt>
<totfact> 0.40483669E+03</totfact>
</mgrwt>
</event>
<event>
 5    0  0.1972558E-002  0.4088233E+03  0.7546771E-02  0.1040767E+00
         21   -1    0    0  501  502  0.00000000000E+00  0.00000000000E+00  0.18208020389E+04  0.18208020389E+04  0.00000000000E+00 0.  1.
         21   -1    0    0  502  503 -0.00000000000E+00 -0.00000000000E+00 -0.17298533970E+03  0.17298533970E+03  0.00000000000E+00 0.  1.
         25    1    1    2    0    0  0.11361405160E+03  0.39730106202E+03  0.25381822613E+03  0.50080433157E+03  0.12500000000E+03 0.  0.
          1    1    1    2  501    0  0.73215886739E+02 -0.96765874192E+02  0.73530950216E+03  0.74525449643E+03  0.00000000000E+00 0. -1.
         -1    1    1    2    0  503 -0.18682993834E+03 -0.30053518783E+03  0.65868897089E+03  0.74772855058E+03  0.00000000000E+00 0.  1.
<mgrwt>
<rscale>  4 0.40882329E+03</rscale>
<asrwt>0</asrwt>
<pdfrwt beam="1">  1       21 0.28012338E+00 0.40882329E+03</pdfrwt>
<pdfrwt beam="2">  1       21 0.26613130E-01 0.40882329E+03</pdfrwt>
<totfact> 0.49023447E+02</totfact>
</mgrwt>
</event>
<event>
 5    0  0.1972558E-002  0.2601641E+03  0.7546771E-02  0.1107045E+00
         21   -1    0    0  501  502  0.00000000000E+00  0.00000000000E+00  0.17315670668E+04  0.17315670668E+04  0.00000000000E+00 0.  1.
         21   -1    0    0  502  503 -0.00000000000E+00 -0.00000000000E+00 -0.59310050928E+02  0.59310050928E+02  0.00000000000E+00 0. -1.
         25    1    1    2    0    0 -0.23367189075E+03  0.26742743816E+02  0.36029660903E+03  0.44805844859E+03  0.12500000000E+03 0.  0.
          4    1    1    2  501    0  0.21599462411E+03  0.19635689935E+02  0.81426635867E+03  0.84265588518E+03  0.00000000000E+00 0.  1.
         -4    1    1    2    0  503  0.17677266639E+02 -0.46378433751E+02  0.49769404814E+03  0.50016278393E+03  0.00000000000E+00 0. -1.
<mgrwt>
<rscale>  4 0.26016408E+03</rscale>
<asrwt>0</asrwt>
<pdfrwt beam="1">  1       21 0.26639490E+00 0.26016408E+03</pdfrwt>
<pdfrwt beam="2">  1       21 0.91246245E-02 0.26016408E+03</pdfrwt>
<totfact> 0.47743174E+03</totfact>
</mgrwt>
</event>
<event>
 5    0  0.1972558E-002  0.2488846E+03  0.7546771E-02  0.1114012E+00
         21   -1    0    0  501  502  0.00000000000E+00  0.00000000000E+00  0.49037481278E+03  0.49037481278E+03  0.00000000000E+00 0.  1.
         21   -1    0    0  502  503 -0.00000000000E+00 -0.00000000000E+00 -0.47397240810E+03  0.47397240810E+03  0.00000000000E+00 0. -1.
         25    1    1    2    0    0 -0.21103859007E+03 -0.71297569225E+02 -0.37144635280E+03  0.45079709725E+03  0.12500000000E+03 0.  0.
          4    1    1    2  501    0  0.37607781182E+02 -0.21211624566E+01  0.30581893783E+03  0.30812995192E+03  0.00000000000E+00 0.  1.
         -4    1    1    2    0  503  0.17343080889E+03  0.73418731682E+02  0.82029819654E+02  0.20542017172E+03  0.00000000000E+00 0. -1.
<mgrwt>
<rscale>  4 0.24888460E+03</rscale>
<asrwt>0</asrwt>
<pdfrwt beam="1">  1       21 0.75442279E-01 0.24888460E+03</pdfrwt>
<pdfrwt beam="2">  1       21 0.72918832E-01 0.24888460E+03</pdfrwt>
<totfact> 0.25417197E+03</totfact>
</mgrwt>
</event>
<event>
 5    0  0.1972558E-002  0.2571445E+03  0.7546771E-02  0.1108871E+00
         21   -1    0    0  501  502  0.00000000000E+00  0.00000000000E+00  0.17602027513E+03  0.17602027513E+03  0.00000000000E+00 0. -1.
         21   -1    0    0  502  503 -0.00000000000E+00 -0.00000000000E+00 -0.87670215133E+03  0.87670215133E+03  0.00000000000E+00 0.  1.
         25    1    1    2    0    0 -0.33552647316E+01  0.22469317390E+03 -0.75959900596E+03  0.80194384470E+03  0.12500000000E+03 0.  0.
          3    1    1    2  501    0 -0.22780579465E+02 -0.16992118612E+03  0.81144326597E+01  0.17163335431E+03  0.00000000000E+00 0. -1.
         -3    1    1    2    0  503  0.26135844197E+02 -0.54771987780E+02  0.50802697092E+02  0.79145227456E+02  0.00000000000E+00 0.  1.
<mgrwt>
<rscale>  4 0.25714447E+03</rscale>
<asrwt>0</asrwt>
<pdfrwt beam="1">  1       21 0.27080042E-01 0.25714447E+03</pdfrwt>
<pdfrwt beam="2">  1       21 0.13487725E+00 0.25714447E+03</pdfrwt>
<totfact> 0.48810246E+03</totfact>
</mgrwt>
</event>
<event>
 5    0  0.1972558E-002  0.2925068E+03  0.7546771E-02  0.1089048E+00
         21   -1    0    0  501  502  0.00000000000E+00  0.00000000000E+00  0.35253569534E+03  0.35253569534E+03  0.00000000000E+00 0. -1.
         21   -1    0    0  502  503 -0.00000000000E+00 -0.00000000000E+00 -0.30613533323E+03  0.30613533323E+03  0.00000000000E+00 0. -1.
         25    1    1    2    0    0  0.20273270922E+03 -0.18592202641E+03 -0.85677494502E+02  0.31405920518E+03  0.12500000000E+03 0.  0.
          1    1    1    2  501    0 -0.18286532287E+03  0.17120007072E+03  0.45531488488E+02  0.25460225248E+03  0.00000000000E+00 0. -1.
         -1    1    1    2    0  503 -0.19867386354E+02  0.14721955689E+02  0.86546368126E+02  0.90009570912E+02  0.00000000000E+00 0.  1.
<mgrwt>
<rscale>  4 0.29250681E+03</rscale>
<asrwt>0</asrwt>
<pdfrwt beam="1">  1       21 0.54236261E-01 0.29250681E+03</pdfrwt>
<pdfrwt beam="2">  1       21 0.47097744E-01 0.29250681E+03</pdfrwt>
<totfact> 0.13129157E+04</totfact>
</mgrwt>
</event>
<event>
 5    0  0.1972558E-002  0.2970823E+03  0.7546771E-02  0.1086708E+00
         21   -1    0    0  503  502  0.00000000000E+00  0.00000000000E+00  0.86755818420E+03  0.86755818420E+03  0.00000000000E+00 0. -1.
         21   -1    0    0  501  503 -0.00000000000E+00 -0.00000000000E+00 -0.10927001487E+03  0.10927001487E+03  0.00000000000E+00 0. -1.
         25    1    1    2    0    0 -0.17594602676E+02  0.26137116432E+03  0.26818334053E+03  0.39518572813E+03  0.12500000000E+03 0.  0.
          2    1    1    2  501    0  0.34454814978E+02  0.13058537003E+02  0.41619287489E+02  0.55586192125E+02  0.00000000000E+00 0.  1.
         -2    1    1    2    0  502 -0.16860212302E+02 -0.27442970132E+03  0.44848554131E+03  0.52605627882E+03  0.00000000000E+00 0. -1.
<mgrwt>
<rscale>  4 0.29708225E+03</rscale>
<asrwt>0</asrwt>
<pdfrwt beam="1">  1       21 0.13347049E+00 0.29708225E+03</pdfrwt>
<pdfrwt beam="2">  1       21 0.16810772E-01 0.29708225E+03</pdfrwt>
<totfact> 0.12113534E+04</totfact>
</mgrwt>
</event>
<event>
 5    0  0.1972558E-002  0.2572855E+03  0.7546771E-02  0.1108785E+00
         21   -1    0    0  501  502  0.00000000000E+00  0.00000000000E+00  0.11140410894E+04  0.11140410894E+04  0.00000000000E+00 0. -1.
         21   -1    0    0  502  503 -0.00000000000E+00 -0.00000000000E+00 -0.85976726742E+02  0.85976726742E+02  0.00000000000E+00 0. -1.
         25    1    1    2    0    0 -0.10820143102E+03 -0.18410784524E+03  0.25348550723E+03  0.35423600993E+03  0.12500000000E+03 0.  0.
          3    1    1    2  501    0  0.43190754313E+02 -0.55137491293E+02  0.32415637472E+03  0.33163675833E+03  0.00000000000E+00 0.  1.
         -3    1    1    2    0  503  0.65010676707E+02  0.23924533654E+03  0.45042248074E+03  0.51414504792E+03  0.00000000000E+00 0. -1.
<mgrwt>
<rscale>  4 0.25728545E+03</rscale>
<asrwt>0</asrwt>
<pdfrwt beam="1">  1       21 0.17139093E+00 0.25728545E+03</pdfrwt>
<pdfrwt beam="2">  1       21 0.13227190E-01 0.25728545E+03</pdfrwt>
<totfact> 0.98233807E+03</totfact>
</mgrwt>
</event>
<event>
 5    0  0.1972558E-002  0.2385013E+03  0.7546771E-02  0.1120795E+00
         21   -1    0    0  501  502  0.00000000000E+00  0.00000000000E+00  0.41363094440E+03  0.41363094440E+03  0.00000000000E+00 0. -1.
         21   -1    0    0  502  503 -0.00000000000E+00 -0.00000000000E+00 -0.16331594143E+03  0.16331594143E+03  0.00000000000E+00 0. -1.
         25    1    1    2    0    0 -0.18073509691E+03 -0.97551492542E+02  0.58376538638E+00  0.24043046757E+03  0.12500000000E+03 0.  0.
          4    1    1    2  501    0  0.16387681114E+03  0.11352744928E+03  0.20406586087E+03  0.28528401032E+03  0.00000000000E+00 0. -1.
         -4    1    1    2    0  503  0.16858285768E+02 -0.15975956743E+02  0.45665376721E+02  0.51232407946E+02  0.00000000000E+00 0.  1.
<mgrwt>
<rscale>  4 0.23850134E+03</rscale>
<asrwt>0</asrwt>
<pdfrwt beam="1">  1       21 0.63635529E-01 0.23850134E+03</pdfrwt>
<pdfrwt beam="2">  1       21 0.25125530E-01 0.23850134E+03</pdfrwt>
<totfact> 0.33458070E+04</totfact>
</mgrwt>
</event>
<event>
 5    0  0.1972558E-002  0.3194418E+03  0.7546771E-02  0.1075906E+00
         21   -1    0    0  503  502  0.00000000000E+00  0.00000000000E+00  0.29523357655E+03  0.29523357655E+03  0.00000000000E+00 0.  1.
         21   -1    0    0  501  503 -0.00000000000E+00 -0.00000000000E+00 -0.48807897206E+03  0.48807897206E+03  0.00000000000E+00 0.  1.
         25    1    1    2    0    0  0.16074609216E+03 -0.25633651473E+03 -0.28305946549E+03  0.43277635787E+03  0.12500000000E+03 0.  0.
          4    1    1    2  501    0 -0.27650303200E+01  0.28969325628E+02  0.66583576181E+02  0.72665258804E+02  0.00000000000E+00 0. -1.
         -4    1    1    2    0  502 -0.15798106184E+03  0.22736718910E+03  0.23630493799E+02  0.27787093194E+03  0.00000000000E+00 0.  1.
<mgrwt>
<rscale>  4 0.31944183E+03</rscale>
<asrwt>0</asrwt>
<pdfrwt beam="1">  1       21 0.45420550E-01 0.31944183E+03</pdfrwt>
<pdfrwt beam="2">  1       21 0.75089073E-01 0.31944183E+03</pdfrwt>
<totfact> 0.68484120E+03</totfact>
</mgrwt>
</event>
<event>
 5    0  0.1972558E-002  0.3243842E+03  0.7546771E-02  0.1073649E+00
         21   -1    0    0  501  502  0.00000000000E+00  0.00000000000E+00  0.13002761276E+04  0.13002761276E+04  0.00000000000E+00 0. -1.
         21   -1    0    0  502  503 -0.00000000000E+00 -0.00000000000E+00 -0.77332857444E+03  0.77332857444E+03  0.00000000000E+00 0.  1.
         25    1    1    2    0    0 -0.24220335571E+03 -0.17072787676E+03 -0.62078086399E+03  0.69914544590E+03  0.12500000000E+03 0.  0.
          1    1    1    2  501    0 -0.14976425633E+03  0.16885427530E+03  0.85757903906E+03  0.88678233350E+03  0.00000000000E+00 0. -1.
         -1    1    1    2    0  503  0.39196761204E+03  0.18736014677E+01  0.29014937806E+03  0.48767692263E+03  0.00000000000E+00 0.  1.
<mgrwt>
<rscale>  4 0.32438419E+03</rscale>
<asrwt>0</asrwt>
<pdfrwt beam="1">  1       21 0.20004248E+00 0.32438419E+03</pdfrwt>
<pdfrwt beam="2">  1       21 0.11897363E+00 0.32438419E+03</pdfrwt>
<totfact> 0.62258439E+01</totfact>
</mgrwt>
</event>
<event>
 5    0  0.1972558E-002  0.3143771E+03  0.7546771E-02  0.1078267E+00
         21   -1    0    0  501  502  0.00000000000E+00  0.00000000000E+00  0.53397211570E+03  0.53397211570E+03  0.00000000000E+00 0. -1.
         21   -1    0    0  502  503 -0.00000000000E+00 -0.00000000000E+00 -0.27533227927E+03  0.27533227927E+03  0.00000000000E+00 0. -1.
         25    1    1    2    0    0 -0.30610660661E+03 -0.28710176703E+01  0.28681080587E+03  0.43771558771E+03  0.12500000000E+03 0.  0.
          3    1    1    2  501    0  0.23159227188E+02 -0.16264243677E+02  0.66774266211E+02  0.72523637900E+02  0.00000000000E+00 0.  1.
         -3    1    1    2    0  503  0.28294737942E+03  0.19135261347E+02 -0.94945235660E+02  0.29906516936E+03  0.00000000000E+00 0. -1.
<mgrwt>
<rscale>  4 0.31437706E+03</rscale>
<asrwt>0</asrwt>
<pdfrwt beam="1">  1       21 0.82149556E-01 0.31437706E+03</pdfrwt>
<pdfrwt beam="2">  1       21 0.42358812E-01 0.31437706E+03</pdfrwt>
<totfact> 0.64610731E+03</totfact>
</mgrwt>
</event>
<event>
 5    0  0.1972558E-002  0.3332576E+03  0.7546771E-02  0.1069704E+00
         21   -1    0    0  501  502  0.00000000000E+00  0.00000000000E+00  0.49520357662E+03  0.49520357662E+03  0.00000000000E+00 0.  1.
         21   -1    0    0  502  503 -0.00000000000E+00 -0.00000000000E+00 -0.10095749345E+04  0.10095749345E+04  0.00000000000E+00 0. -1.
         25    1    1    2    0    0  0.89347855038E+02 -0.28512072777E+03 -0.74335459717E+03  0.81085012533E+03  0.12500000000E+03 0.  0.
          1    1    1    2  501    0  0.26692090276E+01  0.31055420540E+03  0.39496962302E+03  0.50244605907E+03  0.00000000000E+00 0.  1.
         -1    1    1    2    0  503 -0.92017064065E+02 -0.25433477632E+02 -0.16598638372E+03  0.19148232672E+03  0.00000000000E+00 0. -1.
<mgrwt>
<rscale>  4 0.33325765E+03</rscale>
<asrwt>0</asrwt>
<pdfrwt beam="1">  1       21 0.76185166E-01 0.33325765E+03</pdfrwt>
<pdfrwt beam="2">  1       21 0.15531922E+00 0.33325765E+03</pdfrwt>
<totfact> 0.36919730E+02</totfact>
</mgrwt>
</event>
<event>
 5    0  0.1972558E-002  0.3020347E+03  0.7546771E-02  0.1084228E+00
         21   -1    0    0  501  502  0.00000000000E+00  0.00000000000E+00  0.21294842793E+04  0.21294842793E+04  0.00000000000E+00 0.  1.
         21   -1    0    0  502  503 -0.00000000000E+00 -0.00000000000E+00 -0.57152849071E+02  0.57152849071E+02  0.00000000000E+00 0.  1.
         25    1    1    2    0    0  0.18859403553E+03  0.21742874324E+03  0.59935786452E+03  0.67653367868E+03  0.12500000000E+03 0.  0.
          3    1    1    2  501    0 -0.14235105930E+03 -0.21432225552E+03  0.92326827131E+03  0.95844778372E+03  0.00000000000E+00 0.  1.
         -3    1    1    2    0  503 -0.46242976234E+02 -0.31064877215E+01  0.54970529440E+03  0.55165566598E+03  0.00000000000E+00 0. -1.
<mgrwt>
<rscale>  4 0.30203467E+03</rscale>
<asrwt>0</asrwt>
<pdfrwt beam="1">  1       21 0.32761290E+00 0.30203467E+03</pdfrwt>
<pdfrwt beam="2">  1       21 0.87927477E-02 0.30203467E+03</pdfrwt>
<totfact> 0.21473673E+03</totfact>
</mgrwt>
</event>
<event>
 5    0  0.1972558E-002  0.2784244E+03  0.7546771E-02  0.1096553E+00
         21   -1    0    0  501  502  0.00000000000E+00  0.00000000000E+00  0.39568569757E+03  0.39568569757E+03  0.00000000000E+00 0. -1.
         21   -1    0    0  502  503 -0.00000000000E+00 -0.00000000000E+00 -0.63436778023E+03  0.63436778023E+03  0.00000000000E+00 0. -1.
         25    1    1    2    0    0 -0.24321972355E+03  0.15971783058E+02  0.18935019377E+03  0.33300064212E+03  0.12500000000E+03 0.  0.
          4    1    1    2  501    0 -0.34505676164E+01  0.20840423934E+02  0.10577151141E+03  0.10786029071E+03  0.00000000000E+00 0.  1.
         -4    1    1    2    0  503  0.24667029116E+03 -0.36812206992E+02 -0.53380378784E+03  0.58919254496E+03  0.00000000000E+00 0. -1.
<mgrwt>
<rscale>  4 0.27842444E+03</rscale>
<asrwt>0</asrwt>
<pdfrwt beam="1">  1       21 0.60874723E-01 0.27842444E+03</pdfrwt>
<pdfrwt beam="2">  1       21 0.97595043E-01 0.27842444E+03</pdfrwt>
<totfact> 0.20454265E+03</totfact>
</mgrwt>
</event>
<event>
 5    0  0.1972558E-002  0.1688331E+03  0.7546771E-02  0.1179070E+00
         21   -1    0    0  503  502  0.00000000000E+00  0.00000000000E+00  0.38271768445E+03  0.38271768445E+03  0.00000000000E+00 0. -1.
         21   -1    0    0  501  503 -0.00000000000E+00 -0.00000000000E+00 -0.55140444410E+03  0.55140444410E+03  0.00000000000E+00 0. -1.
         25    1    1    2    0    0  0.64176756012E+01  0.20339296073E+03 -0.42673666908E+03  0.48901847386E+03  0.12500000000E+03 0.  0.
          3    1    1    2  501    0  0.35104672812E+02 -0.99577248178E+02 -0.50412565103E+02  0.11700168002E+03  0.00000000000E+00 0.  1.
         -3    1    1    2    0  502 -0.41522348413E+02 -0.10381571255E+03  0.30846247453E+03  0.32810197467E+03  0.00000000000E+00 0. -1.
<mgrwt>
<rscale>  4 0.16883309E+03</rscale>
<asrwt>0</asrwt>
<pdfrwt beam="1">  1       21 0.58879643E-01 0.16883309E+03</pdfrwt>
<pdfrwt beam="2">  1       21 0.84831453E-01 0.16883309E+03</pdfrwt>
<totfact> 0.33164161E+03</totfact>
</mgrwt>
</event>
<event>
 5    0  0.1972558E-002  0.2596896E+03  0.7546771E-02  0.1107330E+00
         21   -1    0    0  501  502  0.00000000000E+00  0.00000000000E+00  0.48026697730E+03  0.48026697730E+03  0.00000000000E+00 0. -1.
         21   -1    0    0  502  503 -0.00000000000E+00 -0.00000000000E+00 -0.21592313428E+03  0.21592313428E+03  0.00000000000E+00 0. -1.
         25    1    1    2    0    0  0.86086151628E+02 -0.21436658816E+03 -0.49990198874E+02  0.26737217433E+03  0.12500000000E+03 0.  0.
          2    1    1    2  501    0  0.13038204683E+02  0.16404222010E+02  0.15411390252E+03  0.15553195244E+03  0.00000000000E+00 0.  1.
         -2    1    1    2    0  503 -0.99124356310E+02  0.19796236615E+03  0.16022013938E+03  0.27328598480E+03  0.00000000000E+00 0. -1.
<mgrwt>
<rscale>  4 0.25968958E+03</rscale>
<asrwt>0</asrwt>
<pdfrwt beam="1">  1       21 0.73887227E-01 0.25968958E+03</pdfrwt>
<pdfrwt beam="2">  1       21 0.33218944E-01 0.25968958E+03</pdfrwt>
<totfact> 0.13798599E+04</totfact>
</mgrwt>
</event>
<event>
 5    0  0.1972558E-002  0.2749030E+03  0.7546771E-02  0.1098506E+00
         21   -1    0    0  503  502  0.00000000000E+00  0.00000000000E+00  0.11578747292E+04  0.11578747292E+04  0.00000000000E+00 0.  1.
         21   -1    0    0  501  503 -0.00000000000E+00 -0.00000000000E+00 -0.44725469612E+03  0.44725469612E+03  0.00000000000E+00 0. -1.
         25    1    1    2    0    0 -0.15008211399E+03 -0.19326518323E+03 -0.38211361613E+03  0.47065049412E+03  0.12500000000E+03 0.  0.
          2    1    1    2  501    0 -0.31413694609E+02  0.20003154184E+02  0.52227701948E+02  0.64145765542E+02  0.00000000000E+00 0. -1.
         -2    1    1    2    0  502  0.18149580860E+03  0.17326202905E+03  0.10405059473E+04  0.10703331657E+04  0.00000000000E+00 0.  1.
<mgrwt>
<rscale>  4 0.27490298E+03</rscale>
<asrwt>0</asrwt>
<pdfrwt beam="1">  1       21 0.17813457E+00 0.27490298E+03</pdfrwt>
<pdfrwt beam="2">  1       21 0.68808415E-01 0.27490298E+03</pdfrwt>
<totfact> 0.33110560E+02</totfact>
</mgrwt>
</event>
<event>
 5    0  0.1972558E-002  0.3095450E+03  0.7546771E-02  0.1080564E+00
         21   -1    0    0  501  502  0.00000000000E+00  0.00000000000E+00  0.15433278226E+04  0.15433278226E+04  0.00000000000E+00 0.  1.
         21   -1    0    0  502  503 -0.00000000000E+00 -0.00000000000E+00 -0.76658777464E+02  0.76658777464E+02  0.00000000000E+00 0.  1.
         25    1    1    2    0    0  0.52213887554E+02 -0.28465575099E+03  0.78993142568E+03  0.85051269473E+03  0.12500000000E+03 0.  0.
          4    1    1    2  501    0 -0.42763029175E+02  0.38834229349E+01  0.28040473058E+03  0.28367335189E+03  0.00000000000E+00 0. -1.
         -4    1    1    2    0  503 -0.94508583784E+01  0.28077232805E+03  0.39633288888E+03  0.48580055345E+03  0.00000000000E+00 0.  1.
<mgrwt>
<rscale>  4 0.30954504E+03</rscale>
<asrwt>0</asrwt>
<pdfrwt beam="1">  1       21 0.23743503E+00 0.30954504E+03</pdfrwt>
<pdfrwt beam="2">  1       21 0.11793659E-01 0.30954504E+03</pdfrwt>
<totfact> 0.43474328E+03</totfact>
</mgrwt>
</event>
<event>
 5    0  0.1972558E-002  0.3325748E+03  0.7546771E-02  0.1070003E+00
         21   -1    0    0  501  502  0.00000000000E+00  0.00000000000E+00  0.73735365302E+03  0.73735365302E+03  0.00000000000E+00 0. -1.
         21   -1    0    0  502  503 -0.00000000000E+00 -0.00000000000E+00 -0.30570705849E+03  0.30570705849E+03  0.00000000000E+00 0.  1.
         25    1    1    2    0    0 -0.13148496674E+03 -0.27873407483E+03 -0.16266683991E+03  0.37022490699E+03  0.12500000000E+03 0.  0.
          3    1    1    2  501    0  0.67772331610E+02  0.21448997671E+03  0.42102166174E+03  0.47734503108E+03  0.00000000000E+00 0. -1.
         -3    1    1    2    0  503  0.63712635128E+02  0.64244098118E+02  0.17329177269E+03  0.19549077344E+03  0.00000000000E+00 0.  1.
<mgrwt>
<rscale>  4 0.33257477E+03</rscale>
<asrwt>0</asrwt>
<pdfrwt beam="1">  1       21 0.11343902E+00 0.33257477E+03</pdfrwt>
<pdfrwt beam="2">  1       21 0.47031855E-01 0.33257477E+03</pdfrwt>
<totfact> 0.23837310E+03</totfact>
</mgrwt>
</event>
<event>
 5    0  0.1972558E-002  0.2883441E+03  0.7546771E-02  0.1091217E+00
         21   -1    0    0  503  502  0.00000000000E+00  0.00000000000E+00  0.55336167031E+03  0.55336167031E+03  0.00000000000E+00 0. -1.
         21   -1    0    0  501  503 -0.00000000000E+00 -0.00000000000E+00 -0.18812106030E+03  0.18812106030E+03  0.00000000000E+00 0. -1.
         25    1    1    2    0    0  0.10424608180E+03  0.22719210443E+03  0.26885504900E+03  0.38780347504E+03  0.12500000000E+03 0.  0.
          3    1    1    2  501    0  0.56146947175E+02  0.76342696886E+00 -0.65885458805E+01  0.56537345486E+02  0.00000000000E+00 0.  1.
         -3    1    1    2    0  502 -0.16039302897E+03 -0.22795553140E+03  0.10297410689E+03  0.29714191008E+03  0.00000000000E+00 0. -1.
<mgrwt>
<rscale>  4 0.28834411E+03</rscale>
<asrwt>0</asrwt>
<pdfrwt beam="1">  1       21 0.85132564E-01 0.28834411E+03</pdfrwt>
<pdfrwt beam="2">  1       21 0.28941702E-01 0.28834411E+03</pdfrwt>
<totfact> 0.12936607E+04</totfact>
</mgrwt>
</event>
<event>
 5    0  0.1972558E-002  0.2418433E+03  0.7546771E-02  0.1118571E+00
         21   -1    0    0  501  502  0.00000000000E+00  0.00000000000E+00  0.20008060817E+03  0.20008060817E+03  0.00000000000E+00 0.  1.
         21   -1    0    0  502  503 -0.00000000000E+00 -0.00000000000E+00 -0.85876525872E+03  0.85876525872E+03  0.00000000000E+00 0. -1.
         25    1    1    2    0    0 -0.42604608310E+01  0.29749524261E+03 -0.32585279561E+03  0.45861379755E+03  0.12500000000E+03 0.  0.
          4    1    1    2  501    0  0.97136242948E+02 -0.13553012360E+03  0.50184662506E+02  0.17413318021E+03  0.00000000000E+00 0.  1.
         -4    1    1    2    0  503 -0.92875782117E+02 -0.16196511900E+03 -0.38301651745E+03  0.42609888913E+03  0.00000000000E+00 0. -1.
<mgrwt>
<rscale>  4 0.24184330E+03</rscale>
<asrwt>0</asrwt>
<pdfrwt beam="1">  1       21 0.30781632E-01 0.24184330E+03</pdfrwt>
<pdfrwt beam="2">  1       21 0.13211773E+00 0.24184330E+03</pdfrwt>
<totfact> 0.40479520E+03</totfact>
</mgrwt>
</event>
<event>
 5    0  0.1972558E-002  0.2422727E+03  0.7546771E-02  0.1118288E+00
         21   -1    0    0  501  502  0.00000000000E+00  0.00000000000E+00  0.23990305656E+03  0.23990305656E+03  0.00000000000E+00 0. -1.
         21   -1    0    0  502  503 -0.00000000000E+00 -0.00000000000E+00 -0.47740463415E+03  0.47740463415E+03  0.00000000000E+00 0. -1.
         25    1    1    2    0    0 -0.64159001518E+02  0.19315138295E+03 -0.35424586606E+03  0.42724579323E+03  0.12500000000E+03 0.  0.
          4    1    1    2  501    0  0.60405414632E+02 -0.21580702189E+03  0.64822509269E+02  0.23328832487E+03  0.00000000000E+00 0. -1.
         -4    1    1    2    0  503  0.37535868858E+01  0.22655638939E+02  0.51921779200E+02  0.56773572598E+02  0.00000000000E+00 0.  1.
<mgrwt>
<rscale>  4 0.24227270E+03</rscale>
<asrwt>0</asrwt>
<pdfrwt beam="1">  1       21 0.36908163E-01 0.24227270E+03</pdfrwt>
<pdfrwt beam="2">  1       21 0.73446866E-01 0.24227270E+03</pdfrwt>
<totfact> 0.11435696E+04</totfact>
</mgrwt>
</event>
<event>
 5    0  0.1972558E-002  0.4694438E+03  0.7546771E-02  0.1022077E+00
         21   -1    0    0  501  502  0.00000000000E+00  0.00000000000E+00  0.11899667404E+04  0.11899667404E+04  0.00000000000E+00 0.  1.
         21   -1    0    0  502  503 -0.00000000000E+00 -0.00000000000E+00 -0.11456086323E+04  0.11456086323E+04  0.00000000000E+00 0.  1.
         25    1    1    2    0    0  0.31458638644E+03 -0.33079453471E+03 -0.99465377726E+03  0.11015220176E+04  0.12500000000E+03 0.  0.
          1    1    1    2  501    0 -0.10236381763E+03 -0.39587953854E+02  0.64128243293E+03  0.65060642175E+03  0.00000000000E+00 0. -1.
         -1    1    1    2    0  503 -0.21222256881E+03  0.37038248857E+03  0.39772945245E+03  0.58344693323E+03  0.00000000000E+00 0.  1.
<mgrwt>
<rscale>  4 0.46944379E+03</rscale>
<asrwt>0</asrwt>
<pdfrwt beam="1">  1       21 0.18307181E+00 0.46944379E+03</pdfrwt>
<pdfrwt beam="2">  1       21 0.17624748E+00 0.46944379E+03</pdfrwt>
<totfact> 0.25393162E+01</totfact>
</mgrwt>
</event>
<event>
 5    0  0.1972558E-002  0.3682548E+03  0.7546771E-02  0.1055362E+00
         21   -1    0    0  501  502  0.00000000000E+00  0.00000000000E+00  0.23337731419E+03  0.23337731419E+03  0.00000000000E+00 0.  1.
         21   -1    0    0  502  503 -0.00000000000E+00 -0.00000000000E+00 -0.11662326301E+04  0.11662326301E+04  0.00000000000E+00 0. -1.
         25    1    1    2    0    0  0.17545746312E+03  0.29158920104E+03 -0.91012950856E+03  0.97967867480E+03  0.12500000000E+03 0.  0.
          3    1    1    2  501    0 -0.17924615214E+03 -0.33150520886E+03 -0.33687208394E+02  0.37836452604E+03  0.00000000000E+00 0.  1.
         -3    1    1    2    0  503  0.37886890254E+01  0.39916007823E+02  0.10961401060E+02  0.41566743417E+02  0.00000000000E+00 0. -1.
<mgrwt>
<rscale>  4 0.36825475E+03</rscale>
<asrwt>0</asrwt>
<pdfrwt beam="1">  1       21 0.35904201E-01 0.36825475E+03</pdfrwt>
<pdfrwt beam="2">  1       21 0.17942041E+00 0.36825475E+03</pdfrwt>
<totfact> 0.12028542E+03</totfact>
</mgrwt>
</event>
<event>
 5    0  0.1972558E-002  0.2468146E+03  0.7546771E-02  0.1115335E+00
         21   -1    0    0  501  502  0.00000000000E+00  0.00000000000E+00  0.21545529263E+03  0.21545529263E+03  0.00000000000E+00 0.  1.
         21   -1    0    0  502  503 -0.00000000000E+00 -0.00000000000E+00 -0.13492342595E+04  0.13492342595E+04  0.00000000000E+00 0.  1.
         25    1    1    2    0    0  0.21983565974E+03 -0.20682744717E+02 -0.11730634043E+04  0.12001909197E+04  0.12500000000E+03 0.  0.
          1    1    1    2  501    0 -0.94463243021E+02 -0.13317471764E+03  0.70452578705E+01  0.16342718672E+03  0.00000000000E+00 0. -1.
         -1    1    1    2    0  503 -0.12537241672E+03  0.15385746236E+03  0.32239179521E+02  0.20107144575E+03  0.00000000000E+00 0.  1.
<mgrwt>
<rscale>  4 0.24681458E+03</rscale>
<asrwt>0</asrwt>
<pdfrwt beam="1">  1       21 0.33146968E-01 0.24681458E+03</pdfrwt>
<pdfrwt beam="2">  1       21 0.20757450E+00 0.24681458E+03</pdfrwt>
<totfact> 0.99653233E+02</totfact>
</mgrwt>
</event>
<event>
 5    0  0.1972558E-002  0.2447226E+03  0.7546771E-02  0.1116686E+00
         21   -1    0    0  501  502  0.00000000000E+00  0.00000000000E+00  0.12594444992E+03  0.12594444992E+03  0.00000000000E+00 0. -1.
         21   -1    0    0  502  503 -0.00000000000E+00 -0.00000000000E+00 -0.15090732818E+04  0.15090732818E+04  0.00000000000E+00 0.  1.
         25    1    1    2    0    0  0.20756650122E+03 -0.43863407444E+02 -0.13809320371E+04  0.14027138489E+04  0.12500000000E+03 0.  0.
          1    1    1    2  501    0 -0.12527133831E+02  0.16130068022E+02  0.26250255649E+02  0.33259346026E+02  0.00000000000E+00 0.  1.
         -1    1    1    2    0  503 -0.19503936739E+03  0.27733339422E+02 -0.28447050478E+02  0.19904453680E+03  0.00000000000E+00 0. -1.
<mgrwt>
<rscale>  4 0.24472265E+03</rscale>
<asrwt>0</asrwt>
<pdfrwt beam="1">  1       21 0.19376070E-01 0.24472265E+03</pdfrwt>
<pdfrwt beam="2">  1       21 0.23216511E+00 0.24472265E+03</pdfrwt>
<totfact> 0.19731754E+03</totfact>
</mgrwt>
</event>
<event>
 5    0  0.1972558E-002  0.2419256E+03  0.7546771E-02  0.1118517E+00
         21   -1    0    0  501  502  0.00000000000E+00  0.00000000000E+00  0.18584551514E+03  0.18584551514E+03  0.00000000000E+00 0. -1.
         21   -1    0    0  502  503 -0.00000000000E+00 -0.00000000000E+00 -0.42737545209E+03  0.42737545209E+03  0.00000000000E+00 0. -1.
         25    1    1    2    0    0  0.72338161574E+02 -0.20078947794E+03 -0.28819367084E+03  0.37977600764E+03  0.12500000000E+03 0.  0.
          1    1    1    2  501    0 -0.41883230588E+02  0.18846220149E+03  0.26434504855E+02  0.19486146217E+03  0.00000000000E+00 0. -1.
         -1    1    1    2    0  503 -0.30454930986E+02  0.12327276455E+02  0.20229229031E+02  0.38583497422E+02  0.00000000000E+00 0.  1.
<mgrwt>
<rscale>  4 0.24192557E+03</rscale>
<asrwt>0</asrwt>
<pdfrwt beam="1">  1       21 0.28591618E-01 0.24192557E+03</pdfrwt>
<pdfrwt beam="2">  1       21 0.65750068E-01 0.24192557E+03</pdfrwt>
<totfact> 0.24222195E+04</totfact>
</mgrwt>
</event>
<event>
 5    0  0.1972558E-002  0.4204562E+03  0.7546771E-02  0.1036918E+00
         21   -1    0    0  501  502  0.00000000000E+00  0.00000000000E+00  0.16045290748E+04  0.16045290748E+04  0.00000000000E+00 0. -1.
         21   -1    0    0  502  503 -0.00000000000E+00 -0.00000000000E+00 -0.11408844760E+03  0.11408844760E+03  0.00000000000E+00 0. -1.
         25    1    1    2    0    0 -0.17020988069E+03  0.36357528286E+03  0.91109388497E+03  0.10034318397E+04  0.12500000000E+03 0.  0.
          1    1    1    2  501    0  0.28803999065E+01 -0.54109406101E+02  0.15368273966E+03  0.16295554302E+03  0.00000000000E+00 0.  1.
         -1    1    1    2    0  503  0.16732948078E+03 -0.30946587676E+03  0.42566400253E+03  0.55223013959E+03  0.00000000000E+00 0. -1.
<mgrwt>
<rscale>  4 0.42045617E+03</rscale>
<asrwt>0</asrwt>
<pdfrwt beam="1">  1       21 0.24685061E+00 0.42045617E+03</pdfrwt>
<pdfrwt beam="2">  1       21 0.17552070E-01 0.42045617E+03</pdfrwt>
<totfact> 0.17194728E+03</totfact>
</mgrwt>
</event>
<event>
 5    0  0.1972558E-002  0.2748127E+03  0.7546771E-02  0.1098556E+00
         21   -1    0    0  501  502  0.00000000000E+00  0.00000000000E+00  0.32063785505E+03  0.32063785505E+03  0.00000000000E+00 0.  1.
         21   -1    0    0  502  503 -0.00000000000E+00 -0.00000000000E+00 -0.64279030036E+03  0.64279030036E+03  0.00000000000E+00 0. -1.
         25    1    1    2    0    0 -0.31537132918E+03 -0.10659267587E+03 -0.42179386316E+03  0.55168481656E+03  0.12500000000E+03 0.  0.
          1    1    1    2  501    0  0.22242641344E+03  0.72614032172E+02  0.17094224775E+03  0.28977156370E+03  0.00000000000E+00 0.  1.
         -1    1    1    2    0  503  0.92944915736E+02  0.33978643700E+02 -0.71300829895E+02  0.12197177515E+03  0.00000000000E+00 0. -1.
<mgrwt>
<rscale>  4 0.27481275E+03</rscale>
<asrwt>0</asrwt>
<pdfrwt beam="1">  1       21 0.49328901E-01 0.27481275E+03</pdfrwt>
<pdfrwt beam="2">  1       21 0.98890815E-01 0.27481275E+03</pdfrwt>
<totfact> 0.31122318E+03</totfact>
</mgrwt>
</event>
<event>
 5    0  0.1972558E-002  0.2792716E+03  0.7546771E-02  0.1096087E+00
         21   -1    0    0  501  502  0.00000000000E+00  0.00000000000E+00  0.18567875085E+04  0.18567875085E+04  0.00000000000E+00 0.  1.
         21   -1    0    0  502  503 -0.00000000000E+00 -0.00000000000E+00 -0.11429648043E+03  0.11429648043E+03  0.00000000000E+00 0. -1.
         25    1    1    2    0    0 -0.23327506231E+03  0.58818407784E+02  0.32202405326E+03  0.42095290790E+03  0.12500000000E+03 0.  0.
          4    1    1    2  501    0 -0.91812619496E+01  0.24420587674E+02  0.12312194269E+04  0.12314958131E+04  0.00000000000E+00 0.  1.
         -4    1    1    2    0  503  0.24245632426E+03 -0.83238995457E+02  0.18924754790E+03  0.31863526786E+03  0.00000000000E+00 0. -1.
<mgrwt>
<rscale>  4 0.27927162E+03</rscale>
<asrwt>0</asrwt>
<pdfrwt beam="1">  1       21 0.28565959E+00 0.27927162E+03</pdfrwt>
<pdfrwt beam="2">  1       21 0.17584075E-01 0.27927162E+03</pdfrwt>
<totfact> 0.11019631E+03</totfact>
</mgrwt>
</event>
<event>
 5    0  0.1972558E-002  0.2434578E+03  0.7546771E-02  0.1117511E+00
         21   -1    0    0  501  502  0.00000000000E+00  0.00000000000E+00  0.50655342725E+02  0.50655342725E+02  0.00000000000E+00 0.  1.
         21   -1    0    0  502  503 -0.00000000000E+00 -0.00000000000E+00 -0.17424793403E+04  0.17424793403E+04  0.00000000000E+00 0.  1.
         25    1    1    2    0    0  0.20261469024E+03 -0.50931373899E+02 -0.14443391416E+04  0.14647140586E+04  0.12500000000E+03 0.  0.
          1    1    1    2  501    0 -0.22519474578E+02  0.18130131691E+02 -0.15167616820E+02  0.32647894425E+02  0.00000000000E+00 0. -1.
         -1    1    1    2    0  503 -0.18009521566E+03  0.32801242207E+02 -0.23231723915E+03  0.29577272998E+03  0.00000000000E+00 0.  1.
<mgrwt>
<rscale>  4 0.24345784E+03</rscale>
<asrwt>0</asrwt>
<pdfrwt beam="1">  1       21 0.77931294E-02 0.24345784E+03</pdfrwt>
<pdfrwt beam="2">  1       21 0.26807375E+00 0.24345784E+03</pdfrwt>
<totfact> 0.62421589E+03</totfact>
</mgrwt>
</event>
<event>
 5    0  0.1972558E-002  0.3217346E+03  0.7546771E-02  0.1074854E+00
         21   -1    0    0  501  502  0.00000000000E+00  0.00000000000E+00  0.48563920123E+03  0.48563920123E+03  0.00000000000E+00 0. -1.
         21   -1    0    0  502  503 -0.00000000000E+00 -0.00000000000E+00 -0.51318968199E+03  0.51318968199E+03  0.00000000000E+00 0. -1.
         25    1    1    2    0    0 -0.24841693066E+03 -0.16013489230E+03 -0.36652341412E+03  0.48715353665E+03  0.12500000000E+03 0.  0.
          4    1    1    2  501    0  0.23630602552E+03  0.18748040104E+03  0.18290087537E+03  0.35276361587E+03  0.00000000000E+00 0.  1.
         -4    1    1    2    0  503  0.12110905145E+02 -0.27345508736E+02  0.15607205799E+03  0.15891173071E+03  0.00000000000E+00 0. -1.
<mgrwt>
<rscale>  4 0.32173460E+03</rscale>
<asrwt>0</asrwt>
<pdfrwt beam="1">  1       21 0.74713723E-01 0.32173460E+03</pdfrwt>
<pdfrwt beam="2">  1       21 0.78952259E-01 0.32173460E+03</pdfrwt>
<totfact> 0.20767925E+03</totfact>
</mgrwt>
</event>
<event>
 5    0  0.1972558E-002  0.2870884E+03  0.7546771E-02  0.1091879E+00
         21   -1    0    0  501  502  0.00000000000E+00  0.00000000000E+00  0.79813106425E+02  0.79813106425E+02  0.00000000000E+00 0.  1.
         21   -1    0    0  502  503 -0.00000000000E+00 -0.00000000000E+00 -0.15809600319E+04  0.15809600319E+04  0.00000000000E+00 0. -1.
         25    1    1    2    0    0 -0.60819121823E+00 -0.25776841797E+03 -0.11855683452E+04  0.12196893983E+04  0.12500000000E+03 0.  0.
          1    1    1    2  501    0  0.21186545210E+02  0.25999114527E+03 -0.32631823051E+03  0.41776530837E+03  0.00000000000E+00 0.  1.
         -1    1    1    2    0  503 -0.20578353991E+02 -0.22227273015E+01  0.10739650197E+02  0.23318431680E+02  0.00000000000E+00 0. -1.
<mgrwt>
<rscale>  4 0.28708839E+03</rscale>
<asrwt>0</asrwt>
<pdfrwt beam="1">  1       21 0.12278941E-01 0.28708839E+03</pdfrwt>
<pdfrwt beam="2">  1       21 0.24322460E+00 0.28708839E+03</pdfrwt>
<totfact> 0.37829644E+03</totfact>
</mgrwt>
</event>
<event>
 5    0  0.1972558E-002  0.2475313E+03  0.7546771E-02  0.1114875E+00
         21   -1    0    0  501  502  0.00000000000E+00  0.00000000000E+00  0.13704494683E+04  0.13704494683E+04  0.00000000000E+00 0.  1.
         21   -1    0    0  502  503 -0.00000000000E+00 -0.00000000000E+00 -0.16503233668E+03  0.16503233668E+03  0.00000000000E+00 0. -1.
         25    1    1    2    0    0 -0.13936979449E+03  0.16823567527E+03 -0.31407285811E+02  0.25365054632E+03  0.12500000000E+03 0.  0.
          2    1    1    2  501    0  0.11969483856E+03 -0.15424610527E+03  0.40446774077E+03  0.44912455810E+03  0.00000000000E+00 0.  1.
         -2    1    1    2    0  503  0.19674955936E+02 -0.13989569997E+02  0.83235667668E+03  0.83270670057E+03  0.00000000000E+00 0. -1.
<mgrwt>
<rscale>  4 0.24753134E+03</rscale>
<asrwt>0</asrwt>
<pdfrwt beam="1">  1       21 0.21083837E+00 0.24753134E+03</pdfrwt>
<pdfrwt beam="2">  1       21 0.25389591E-01 0.24753134E+03</pdfrwt>
<totfact> 0.15982576E+03</totfact>
</mgrwt>
</event>
<event>
 5    0  0.1972558E-002  0.2461860E+03  0.7546771E-02  0.1115739E+00
         21   -1    0    0  503  502  0.00000000000E+00  0.00000000000E+00  0.34685649351E+03  0.34685649351E+03  0.00000000000E+00 0.  1.
         21   -1    0    0  501  503 -0.00000000000E+00 -0.00000000000E+00 -0.70427270622E+03  0.70427270622E+03  0.00000000000E+00 0.  1.
         25    1    1    2    0    0 -0.16070605910E+03 -0.13421253861E+03 -0.60327502365E+03  0.65069593291E+03  0.12500000000E+03 0.  0.
          4    1    1    2  501    0 -0.12577815603E+02 -0.20749506319E+02  0.14502417161E+03  0.14703997351E+03  0.00000000000E+00 0. -1.
         -4    1    1    2    0  502  0.17328387470E+03  0.15496204492E+03  0.10083463933E+03  0.25339329330E+03  0.00000000000E+00 0.  1.
<mgrwt>
<rscale>  4 0.24618598E+03</rscale>
<asrwt>0</asrwt>
<pdfrwt beam="1">  1       21 0.53362537E-01 0.24618598E+03</pdfrwt>
<pdfrwt beam="2">  1       21 0.10834965E+00 0.24618598E+03</pdfrwt>
<totfact> 0.21555022E+03</totfact>
</mgrwt>
</event>
<event>
 5    0  0.1972558E-002  0.2339707E+03  0.7546771E-02  0.1123876E+00
         21   -1    0    0  501  502  0.00000000000E+00  0.00000000000E+00  0.26076237582E+03  0.26076237582E+03  0.00000000000E+00 0. -1.
         21   -1    0    0  502  503 -0.00000000000E+00 -0.00000000000E+00 -0.33671775396E+03  0.33671775396E+03  0.00000000000E+00 0. -1.
         25    1    1    2    0    0  0.32756509289E+02  0.20810439483E+03 -0.18390409592E+03  0.30631053613E+03  0.12500000000E+03 0.  0.
          1    1    1    2  501    0 -0.29997147508E+02 -0.17638917704E+03  0.31014320018E+00  0.17892195736E+03  0.00000000000E+00 0. -1.
         -1    1    1    2    0  503 -0.27593617806E+01 -0.31715217786E+02  0.10763857458E+03  0.11224763629E+03  0.00000000000E+00 0.  1.
<mgrwt>
<rscale>  4 0.23397067E+03</rscale>
<asrwt>0</asrwt>
<pdfrwt beam="1">  1       21 0.40117289E-01 0.23397067E+03</pdfrwt>
<pdfrwt beam="2">  1       21 0.51802731E-01 0.23397067E+03</pdfrwt>
<totfact> 0.20702438E+04</totfact>
</mgrwt>
</event>
<event>
 5    0  0.1972558E-002  0.2275752E+03  0.7546771E-02  0.1128358E+00
         21   -1    0    0  501  502  0.00000000000E+00  0.00000000000E+00  0.17226355305E+03  0.17226355305E+03  0.00000000000E+00 0. -1.
         21   -1    0    0  502  503 -0.00000000000E+00 -0.00000000000E+00 -0.38691440647E+03  0.38691440647E+03  0.00000000000E+00 0.  1.
         25    1    1    2    0    0 -0.77683937471E+02 -0.18464393259E+03 -0.22701901164E+03  0.32755275549E+03  0.12500000000E+03 0.  0.
          1    1    1    2  501    0  0.19809847450E+01  0.26169300747E+02  0.45854362699E+02  0.52833504338E+02  0.00000000000E+00 0. -1.
         -1    1    1    2    0  503  0.75702952726E+02  0.15847463184E+03 -0.33486204479E+02  0.17879169969E+03  0.00000000000E+00 0.  1.
<mgrwt>
<rscale>  4 0.22757523E+03</rscale>
<asrwt>0</asrwt>
<pdfrwt beam="1">  1       21 0.26502085E-01 0.22757523E+03</pdfrwt>
<pdfrwt beam="2">  1       21 0.59525293E-01 0.22757523E+03</pdfrwt>
<totfact> 0.35072600E+04</totfact>
</mgrwt>
</event>
<event>
 5    0  0.1972558E-002  0.2535763E+03  0.7546771E-02  0.1111065E+00
         21   -1    0    0  501  502  0.00000000000E+00  0.00000000000E+00  0.10255276177E+03  0.10255276177E+03  0.00000000000E+00 0. -1.
         21   -1    0    0  502  503 -0.00000000000E+00 -0.00000000000E+00 -0.92570422623E+03  0.92570422623E+03  0.00000000000E+00 0.  1.
         25    1    1    2    0    0  0.21120237010E+03  0.19074854527E+02 -0.33373853785E+03  0.41470073892E+03  0.12500000000E+03 0.  0.
          3    1    1    2  501    0 -0.22023484875E+03  0.94456744718E+02 -0.40937133260E+03  0.47435256211E+03  0.00000000000E+00 0.  1.
         -3    1    1    2    0  503  0.90324786470E+01 -0.11353159924E+03 -0.80041594002E+02  0.13920368698E+03  0.00000000000E+00 0. -1.
<mgrwt>
<rscale>  4 0.25357629E+03</rscale>
<asrwt>0</asrwt>
<pdfrwt beam="1">  1       21 0.15777348E-01 0.25357629E+03</pdfrwt>
<pdfrwt beam="2">  1       21 0.14241604E+00 0.25357629E+03</pdfrwt>
<totfact> 0.11768809E+04</totfact>
</mgrwt>
</event>
<event>
 5    0  0.1972558E-002  0.3373311E+03  0.7546771E-02  0.1067938E+00
         21   -1    0    0  501  502  0.00000000000E+00  0.00000000000E+00  0.15589722385E+04  0.15589722385E+04  0.00000000000E+00 0. -1.
         21   -1    0    0  502  503 -0.00000000000E+00 -0.00000000000E+00 -0.10932961207E+03  0.10932961207E+03  0.00000000000E+00 0.  1.
         25    1    1    2    0    0  0.28484976272E+03  0.14858792074E+03  0.27806764991E+03  0.44290447665E+03  0.12500000000E+03 0.  0.
          1    1    1    2  501    0 -0.33334417139E+02  0.63597474944E+01  0.36237580491E+03  0.36396133550E+03  0.00000000000E+00 0.  1.
         -1    1    1    2    0  503 -0.25151534558E+03 -0.15494766824E+03  0.80919917158E+03  0.86143603839E+03  0.00000000000E+00 0. -1.
<mgrwt>
<rscale>  4 0.33733110E+03</rscale>
<asrwt>0</asrwt>
<pdfrwt beam="1">  1       21 0.23984187E+00 0.33733110E+03</pdfrwt>
<pdfrwt beam="2">  1       21 0.16819942E-01 0.33733110E+03</pdfrwt>
<totfact> 0.21537098E+03</totfact>
</mgrwt>
</event>
<event>
 5    0  0.1972558E-002  0.2605401E+03  0.7546771E-02  0.1106819E+00
         21   -1    0    0  501  502  0.00000000000E+00  0.00000000000E+00  0.20451578229E+03  0.20451578229E+03  0.00000000000E+00 0. -1.
         21   -1    0    0  502  503 -0.00000000000E+00 -0.00000000000E+00 -0.14559631970E+04  0.14559631970E+04  0.00000000000E+00 0.  1.
         25    1    1    2    0    0 -0.22519225779E+03 -0.41882382210E+02 -0.10951676668E+04  0.11258254329E+04  0.12500000000E+03 0.  0.
          2    1    1    2  501    0  0.59588080672E+01 -0.21636277307E+02  0.15056313508E+03  0.15222645478E+03  0.00000000000E+00 0. -1.
         -2    1    1    2    0  503  0.21923344972E+03  0.63518659517E+02 -0.30684288301E+03  0.38242709166E+03  0.00000000000E+00 0.  1.
<mgrwt>
<rscale>  4 0.26054015E+03</rscale>
<asrwt>0</asrwt>
<pdfrwt beam="1">  1       21 0.31463965E-01 0.26054015E+03</pdfrwt>
<pdfrwt beam="2">  1       21 0.22399435E+00 0.26054015E+03</pdfrwt>
<totfact> 0.86073873E+02</totfact>
</mgrwt>
</event>
<event>
 5    0  0.1972558E-002  0.2549181E+03  0.7546771E-02  0.1110236E+00
         21   -1    0    0  501  502  0.00000000000E+00  0.00000000000E+00  0.24110161969E+03  0.24110161969E+03  0.00000000000E+00 0. -1.
         21   -1    0    0  502  503 -0.00000000000E+00 -0.00000000000E+00 -0.12037858187E+04  0.12037858187E+04  0.00000000000E+00 0.  1.
         25    1    1    2    0    0 -0.18721407869E+03 -0.12543884066E+03 -0.10997539033E+04  0.11295431209E+04  0.12500000000E+03 0.  0.
          4    1    1    2  501    0  0.14511061500E+02  0.63117468985E+02 -0.25991784635E+02  0.69785089134E+02  0.00000000000E+00 0.  1.
         -4    1    1    2    0  503  0.17270301719E+03  0.62321371678E+02  0.16306148889E+03  0.24555922844E+03  0.00000000000E+00 0. -1.
<mgrwt>
<rscale>  4 0.25491812E+03</rscale>
<asrwt>0</asrwt>
<pdfrwt beam="1">  1       21 0.37092557E-01 0.25491812E+03</pdfrwt>
<pdfrwt beam="2">  1       21 0.18519782E+00 0.25491812E+03</pdfrwt>
<totfact> 0.11085815E+03</totfact>
</mgrwt>
</event>
<event>
 5    0  0.1972558E-002  0.2497208E+03  0.7546771E-02  0.1113481E+00
         21   -1    0    0  501  502  0.00000000000E+00  0.00000000000E+00  0.53772145546E+03  0.53772145546E+03  0.00000000000E+00 0.  1.
         21   -1    0    0  502  503 -0.00000000000E+00 -0.00000000000E+00 -0.13991698281E+03  0.13991698281E+03  0.00000000000E+00 0. -1.
         25    1    1    2    0    0  0.20353001013E+03  0.75310786154E+02  0.78166528500E+02  0.26235698145E+03  0.12500000000E+03 0.  0.
          1    1    1    2  501    0 -0.18407736184E+03 -0.11625115098E+03  0.28265771424E+03  0.35678311152E+03  0.00000000000E+00 0.  1.
         -1    1    1    2    0  503 -0.19452648289E+02  0.40940364831E+02  0.36980229918E+02  0.58498345299E+02  0.00000000000E+00 0. -1.
<mgrwt>
<rscale>  4 0.24972084E+03</rscale>
<asrwt>0</asrwt>
<pdfrwt beam="1">  1       21 0.82726377E-01 0.24972084E+03</pdfrwt>
<pdfrwt beam="2">  1       21 0.21525690E-01 0.24972084E+03</pdfrwt>
<totfact> 0.24871851E+04</totfact>
</mgrwt>
</event>
<event>
 5    0  0.1972558E-002  0.5175014E+03  0.7546771E-02  0.1009309E+00
         21   -1    0    0  501  502  0.00000000000E+00  0.00000000000E+00  0.92329956910E+03  0.92329956910E+03  0.00000000000E+00 0. -1.
         21   -1    0    0  502  503 -0.00000000000E+00 -0.00000000000E+00 -0.29443645831E+03  0.29443645831E+03  0.00000000000E+00 0. -1.
         25    1    1    2    0    0 -0.28637965102E+03 -0.41251588665E+03  0.40269403241E+03  0.65572108781E+03  0.12500000000E+03 0.  0.
          2    1    1    2  501    0  0.25994467378E+03  0.41098070724E+03  0.20347761973E+03  0.52714278605E+03  0.00000000000E+00 0. -1.
         -2    1    1    2    0  503  0.26434977241E+02  0.15351794117E+01  0.22691458661E+02  0.34872153557E+02  0.00000000000E+00 0.  1.
<mgrwt>
<rscale>  4 0.51750136E+03</rscale>
<asrwt>0</asrwt>
<pdfrwt beam="1">  1       21 0.14204609E+00 0.51750136E+03</pdfrwt>
<pdfrwt beam="2">  1       21 0.45297917E-01 0.51750136E+03</pdfrwt>
<totfact> 0.13365539E+03</totfact>
</mgrwt>
</event>
<event>
 5    0  0.1972558E-002  0.3724412E+03  0.7546771E-02  0.1053763E+00
         21   -1    0    0  501  502  0.00000000000E+00  0.00000000000E+00  0.40643470471E+03  0.40643470471E+03  0.00000000000E+00 0. -1.
         21   -1    0    0  502  503 -0.00000000000E+00 -0.00000000000E+00 -0.32594899001E+03  0.32594899001E+03  0.00000000000E+00 0. -1.
         25    1    1    2    0    0 -0.92400196266E+02  0.33845187898E+03  0.67510166691E+02  0.37851036084E+03  0.12500000000E+03 0.  0.
          2    1    1    2  501    0  0.76301273224E+02 -0.32036599122E+03  0.10007453845E+02  0.32947898530E+03  0.00000000000E+00 0. -1.
         -2    1    1    2    0  503  0.16098923041E+02 -0.18085887767E+02  0.29680941628E+01  0.24394348575E+02  0.00000000000E+00 0.  1.
<mgrwt>
<rscale>  4 0.37244123E+03</rscale>
<asrwt>0</asrwt>
<pdfrwt beam="1">  1       21 0.62528416E-01 0.37244123E+03</pdfrwt>
<pdfrwt beam="2">  1       21 0.50145998E-01 0.37244123E+03</pdfrwt>
<totfact> 0.81874714E+03</totfact>
</mgrwt>
</event>
<event>
 5    0  0.1972558E-002  0.3473646E+03  0.7546771E-02  0.1063702E+00
         21   -1    0    0  501  502  0.00000000000E+00  0.00000000000E+00  0.13822245019E+04  0.13822245019E+04  0.00000000000E+00 0.  1.
         21   -1    0    0  502  503 -0.00000000000E+00 -0.00000000000E+00 -0.15105314411E+03  0.15105314411E+03  0.00000000000E+00 0. -1.
         25    1    1    2    0    0 -0.28354259825E+03 -0.12120196038E+03  0.41516646372E+03  0.53204747234E+03  0.12500000000E+03 0.  0.
          3    1    1    2  501    0  0.27622078691E+03  0.19354766631E+03  0.22425547805E+03  0.40502980346E+03  0.00000000000E+00 0. -1.
         -3    1    1    2    0  503  0.73218113365E+01 -0.72345705937E+02  0.59174941600E+03  0.59620037020E+03  0.00000000000E+00 0.  1.
<mgrwt>
<rscale>  4 0.34736458E+03</rscale>
<asrwt>0</asrwt>
<pdfrwt beam="1">  1       21 0.21264991E+00 0.34736458E+03</pdfrwt>
<pdfrwt beam="2">  1       21 0.23238946E-01 0.34736458E+03</pdfrwt>
<totfact> 0.17190024E+03</totfact>
</mgrwt>
</event>
<event>
 5    0  0.1972558E-002  0.2684724E+03  0.7546771E-02  0.1102157E+00
         21   -1    0    0  501  502  0.00000000000E+00  0.00000000000E+00  0.21937650186E+03  0.21937650186E+03  0.00000000000E+00 0.  1.
         21   -1    0    0  502  503 -0.00000000000E+00 -0.00000000000E+00 -0.46020962043E+03  0.46020962043E+03  0.00000000000E+00 0. -1.
         25    1    1    2    0    0  0.17159750166E+03 -0.15423760212E+03 -0.27684967718E+03  0.38145207332E+03  0.12500000000E+03 0.  0.
          4    1    1    2  501    0  0.37777114165E+02  0.45358695708E+01  0.10583808473E+02  0.39493055962E+02  0.00000000000E+00 0. -1.
         -4    1    1    2    0  503 -0.20937461583E+03  0.14970173255E+03  0.25432750145E+02  0.25864099300E+03  0.00000000000E+00 0.  1.
<mgrwt>
<rscale>  4 0.26847237E+03</rscale>
<asrwt>0</asrwt>
<pdfrwt beam="1">  1       21 0.33750232E-01 0.26847237E+03</pdfrwt>
<pdfrwt beam="2">  1       21 0.70801479E-01 0.26847237E+03</pdfrwt>
<totfact> 0.14645102E+04</totfact>
</mgrwt>
</event>
<event>
 5    0  0.1972558E-002  0.2789557E+03  0.7546771E-02  0.1096261E+00
         21   -1    0    0  501  502  0.00000000000E+00  0.00000000000E+00  0.10657081668E+04  0.10657081668E+04  0.00000000000E+00 0. -1.
         21   -1    0    0  502  503 -0.00000000000E+00 -0.00000000000E+00 -0.94053717406E+02  0.94053717406E+02  0.00000000000E+00 0. -1.
         25    1    1    2    0    0 -0.73134448711E+02 -0.26740460315E+03  0.44625292987E+03  0.54001902447E+03  0.12500000000E+03 0.  0.
          3    1    1    2  501    0  0.14179598938E+02  0.42448754359E+02  0.27259046381E+03  0.27623996585E+03  0.00000000000E+00 0.  1.
         -3    1    1    2    0  503  0.58954849773E+02  0.22495584879E+03  0.25281105572E+03  0.34350289389E+03  0.00000000000E+00 0. -1.
<mgrwt>
<rscale>  4 0.27895573E+03</rscale>
<asrwt>0</asrwt>
<pdfrwt beam="1">  1       21 0.16395509E+00 0.27895573E+03</pdfrwt>
<pdfrwt beam="2">  1       21 0.14469803E-01 0.27895573E+03</pdfrwt>
<totfact> 0.93139732E+03</totfact>
</mgrwt>
</event>
<event>
 5    0  0.1972558E-002  0.2286638E+03  0.7546771E-02  0.1127584E+00
         21   -1    0    0  501  502  0.00000000000E+00  0.00000000000E+00  0.76356867437E+02  0.76356867437E+02  0.00000000000E+00 0.  1.
         21   -1    0    0  502  503 -0.00000000000E+00 -0.00000000000E+00 -0.16838119973E+04  0.16838119973E+04  0.00000000000E+00 0.  1.
         25    1    1    2    0    0 -0.13929998643E+02 -0.20055701000E+03 -0.14734764546E+04  0.14923722798E+04  0.12500000000E+03 0.  0.
          3    1    1    2  501    0 -0.48656093357E+02  0.57922532170E+02 -0.35944545460E+02  0.83752286548E+02  0.00000000000E+00 0. -1.
         -3    1    1    2    0  503  0.62586091999E+02  0.14263447783E+03 -0.98034129787E+02  0.18404429842E+03  0.00000000000E+00 0.  1.
<mgrwt>
<rscale>  4 0.22866377E+03</rscale>
<asrwt>0</asrwt>
<pdfrwt beam="1">  1       21 0.11747211E-01 0.22866377E+03</pdfrwt>
<pdfrwt beam="2">  1       21 0.25904800E+00 0.22866377E+03</pdfrwt>
<totfact> 0.34570340E+03</totfact>
</mgrwt>
</event>
<event>
 5    0  0.1972558E-002  0.3178019E+03  0.7546771E-02  0.1076665E+00
         21   -1    0    0  501  502  0.00000000000E+00  0.00000000000E+00  0.11595603193E+04  0.11595603193E+04  0.00000000000E+00 0.  1.
         21   -1    0    0  502  503 -0.00000000000E+00 -0.00000000000E+00 -0.88652861605E+03  0.88652861605E+03  0.00000000000E+00 0. -1.
         25    1    1    2    0    0 -0.25531328964E+03  0.13905098196E+03 -0.71085985744E+03  0.77811746438E+03  0.12500000000E+03 0.  0.
          1    1    1    2  501    0  0.13597765444E+02  0.41511616742E+02  0.96466013797E+03  0.96564863969E+03  0.00000000000E+00 0.  1.
         -1    1    1    2    0  503  0.24171552420E+03 -0.18056259870E+03  0.19231422707E+02  0.30232283127E+03  0.00000000000E+00 0. -1.
<mgrwt>
<rscale>  4 0.31780191E+03</rscale>
<asrwt>0</asrwt>
<pdfrwt beam="1">  1       21 0.17839389E+00 0.31780191E+03</pdfrwt>
<pdfrwt beam="2">  1       21 0.13638902E+00 0.31780191E+03</pdfrwt>
<totfact> 0.61893622E+01</totfact>
</mgrwt>
</event>
<event>
 5    0  0.1972558E-002  0.2717979E+03  0.7546771E-02  0.1100255E+00
         21   -1    0    0  501  502  0.00000000000E+00  0.00000000000E+00  0.31331701074E+03  0.31331701074E+03  0.00000000000E+00 0.  1.
         21   -1    0    0  502  503 -0.00000000000E+00 -0.00000000000E+00 -0.45615960453E+03  0.45615960453E+03  0.00000000000E+00 0. -1.
         25    1    1    2    0    0 -0.19133854599E+03 -0.15610176529E+03 -0.31937393818E+03  0.42261437824E+03  0.12500000000E+03 0.  0.
          2    1    1    2  501    0  0.83882861200E+01  0.24700437349E+02  0.10845899143E+03  0.11155190617E+03  0.00000000000E+00 0. -1.
         -2    1    1    2    0  503  0.18295025987E+03  0.13140132794E+03  0.68072352970E+02  0.23531033086E+03  0.00000000000E+00 0.  1.
<mgrwt>
<rscale>  4 0.27179792E+03</rscale>
<asrwt>0</asrwt>
<pdfrwt beam="1">  1       21 0.48202617E-01 0.27179792E+03</pdfrwt>
<pdfrwt beam="2">  1       21 0.70178400E-01 0.27179792E+03</pdfrwt>
<totfact> 0.72070224E+03</totfact>
</mgrwt>
</event>
<event>
 5    0  0.1972558E-002  0.2445412E+03  0.7546771E-02  0.1116804E+00
         21   -1    0    0  501  502  0.00000000000E+00  0.00000000000E+00  0.66299337867E+03  0.66299337867E+03  0.00000000000E+00 0. -1.
         21   -1    0    0  502  503 -0.00000000000E+00 -0.00000000000E+00 -0.14461885268E+03  0.14461885268E+03  0.00000000000E+00 0. -1.
         25    1    1    2    0    0 -0.99790213328E+02  0.18215439724E+03  0.20122865414E+03  0.31504965062E+03  0.12500000000E+03 0.  0.
          4    1    1    2  501    0  0.60515732212E+02 -0.20424104514E+03  0.36763516193E+03  0.42489077497E+03  0.00000000000E+00 0. -1.
         -4    1    1    2    0  503  0.39274481116E+02  0.22086647905E+02 -0.50489290083E+02  0.67671805766E+02  0.00000000000E+00 0.  1.
<mgrwt>
<rscale>  4 0.24454116E+03</rscale>
<asrwt>0</asrwt>
<pdfrwt beam="1">  1       21 0.10199898E+00 0.24454116E+03</pdfrwt>
<pdfrwt beam="2">  1       21 0.22249055E-01 0.24454116E+03</pdfrwt>
<totfact> 0.14340012E+04</totfact>
</mgrwt>
</event>
<event>
 5    0  0.1972558E-002  0.2434806E+03  0.7546771E-02  0.1117496E+00
         21   -1    0    0  501  502  0.00000000000E+00  0.00000000000E+00  0.42397568591E+03  0.42397568591E+03  0.00000000000E+00 0. -1.
         21   -1    0    0  502  503 -0.00000000000E+00 -0.00000000000E+00 -0.25551335689E+03  0.25551335689E+03  0.00000000000E+00 0. -1.
         25    1    1    2    0    0  0.11099422470E+03 -0.19261190635E+03 -0.82487795921E+02  0.26804533359E+03  0.12500000000E+03 0.  0.
          2    1    1    2  501    0 -0.99117480933E+00  0.34697183453E+02  0.21233818203E+03  0.21515664181E+03  0.00000000000E+00 0. -1.
         -2    1    1    2    0  503 -0.11000304989E+03  0.15791472290E+03  0.38611942920E+02  0.19628706740E+03  0.00000000000E+00 0.  1.
<mgrwt>
<rscale>  4 0.24348062E+03</rscale>
<asrwt>0</asrwt>
<pdfrwt beam="1">  1       21 0.65227029E-01 0.24348062E+03</pdfrwt>
<pdfrwt beam="2">  1       21 0.39309747E-01 0.24348062E+03</pdfrwt>
<totfact> 0.13087734E+04</totfact>
</mgrwt>
</event>
<event>
 5    0  0.1972558E-002  0.2926058E+03  0.7546771E-02  0.1088996E+00
         21   -1    0    0  501  502  0.00000000000E+00  0.00000000000E+00  0.54501286497E+03  0.54501286497E+03  0.00000000000E+00 0.  1.
         21   -1    0    0  502  503 -0.00000000000E+00 -0.00000000000E+00 -0.23140013732E+03  0.23140013732E+03  0.00000000000E+00 0.  1.
         25    1    1    2    0    0  0.17281543382E+03 -0.20031966772E+03 -0.72787453794E+02  0.30152306193E+03  0.12500000000E+03 0.  0.
          3    1    1    2  501    0 -0.43296287268E+02  0.21541139323E+02  0.11692730489E+03  0.12653293564E+03  0.00000000000E+00 0. -1.
         -3    1    1    2    0  503 -0.12951914655E+03  0.17877852840E+03  0.26947287655E+03  0.34835700472E+03  0.00000000000E+00 0.  1.
<mgrwt>
<rscale>  4 0.29260578E+03</rscale>
<asrwt>0</asrwt>
<pdfrwt beam="1">  1       21 0.83848133E-01 0.29260578E+03</pdfrwt>
<pdfrwt beam="2">  1       21 0.35600021E-01 0.29260578E+03</pdfrwt>
<totfact> 0.88679535E+03</totfact>
</mgrwt>
</event>
<event>
 5    0  0.1972558E-002  0.2841687E+03  0.7546771E-02  0.1093434E+00
         21   -1    0    0  501  502  0.00000000000E+00  0.00000000000E+00  0.30735839909E+03  0.30735839909E+03  0.00000000000E+00 0. -1.
         21   -1    0    0  502  503 -0.00000000000E+00 -0.00000000000E+00 -0.89182759292E+03  0.89182759292E+03  0.00000000000E+00 0.  1.
         25    1    1    2    0    0 -0.14550317256E+03 -0.18140615143E+03 -0.21297342902E+03  0.33920796935E+03  0.12500000000E+03 0.  0.
          3    1    1    2  501    0 -0.14452078794E+02 -0.30534979830E+02  0.21422967645E+03  0.21687692788E+03  0.00000000000E+00 0. -1.
         -3    1    1    2    0  503  0.15995525135E+03  0.21194113126E+03 -0.58572544127E+03  0.64310109478E+03  0.00000000000E+00 0.  1.
<mgrwt>
<rscale>  4 0.28416869E+03</rscale>
<asrwt>0</asrwt>
<pdfrwt beam="1">  1       21 0.47285908E-01 0.28416869E+03</pdfrwt>
<pdfrwt beam="2">  1       21 0.13720424E+00 0.28416869E+03</pdfrwt>
<totfact> 0.14969686E+03</totfact>
</mgrwt>
</event>
<event>
 5    0  0.1972558E-002  0.3251440E+03  0.7546771E-02  0.1073306E+00
         21   -1    0    0  501  502  0.00000000000E+00  0.00000000000E+00  0.99448062708E+02  0.99448062708E+02  0.00000000000E+00 0. -1.
         21   -1    0    0  502  503 -0.00000000000E+00 -0.00000000000E+00 -0.23358489156E+04  0.23358489156E+04  0.00000000000E+00 0.  1.
         25    1    1    2    0    0  0.13904060784E+03 -0.24114813942E+03 -0.14837712631E+04  0.15148223912E+04  0.12500000000E+03 0.  0.
          2    1    1    2  501    0 -0.11185307383E+01 -0.91245810030E+02 -0.57704963347E+01  0.91434936359E+02  0.00000000000E+00 0.  1.
         -2    1    1    2    0  503 -0.13792207710E+03  0.33239394945E+03 -0.74685909348E+03  0.82903965074E+03  0.00000000000E+00 0. -1.
<mgrwt>
<rscale>  4 0.32514403E+03</rscale>
<asrwt>0</asrwt>
<pdfrwt beam="1">  1       21 0.15299701E-01 0.32514403E+03</pdfrwt>
<pdfrwt beam="2">  1       21 0.35936139E+00 0.32514403E+03</pdfrwt>
<totfact> 0.49885145E+02</totfact>
</mgrwt>
</event>
<event>
 5    0  0.1972558E-002  0.2058879E+03  0.7546771E-02  0.1144864E+00
         21   -1    0    0  501  502  0.00000000000E+00  0.00000000000E+00  0.31992876693E+03  0.31992876693E+03  0.00000000000E+00 0. -1.
         21   -1    0    0  502  503 -0.00000000000E+00 -0.00000000000E+00 -0.30813190495E+03  0.30813190495E+03  0.00000000000E+00 0. -1.
         25    1    1    2    0    0  0.14332640912E+03 -0.16924004839E+03 -0.19819854712E+02  0.25534776320E+03  0.12500000000E+03 0.  0.
          1    1    1    2  501    0 -0.14348284968E+03  0.56773804281E+02  0.14590719003E+03  0.21236643122E+03  0.00000000000E+00 0. -1.
         -1    1    1    2    0  503  0.15644055652E+00  0.11246624411E+03 -0.11429047334E+03  0.16034647746E+03  0.00000000000E+00 0.  1.
<mgrwt>
<rscale>  4 0.20588794E+03</rscale>
<asrwt>0</asrwt>
<pdfrwt beam="1">  1       21 0.49219810E-01 0.20588794E+03</pdfrwt>
<pdfrwt beam="2">  1       21 0.47404908E-01 0.20588794E+03</pdfrwt>
<totfact> 0.16621619E+04</totfact>
</mgrwt>
</event>
<event>
 5    0  0.1972558E-002  0.2965050E+03  0.7546771E-02  0.1087001E+00
         21   -1    0    0  501  502  0.00000000000E+00  0.00000000000E+00  0.22612151643E+02  0.22612151643E+02  0.00000000000E+00 0. -1.
         21   -1    0    0  502  503 -0.00000000000E+00 -0.00000000000E+00 -0.45220050477E+04  0.45220050477E+04  0.00000000000E+00 0. -1.
         25    1    1    2    0    0  0.15357808597E+03  0.22381441122E+03 -0.25800850368E+04  0.25973338092E+04  0.12500000000E+03 0.  0.
          4    1    1    2  501    0 -0.12332455927E+03 -0.23689176185E+03 -0.18629456303E+04  0.18819917840E+04  0.00000000000E+00 0. -1.
         -4    1    1    2    0  503 -0.30253526697E+02  0.13077350629E+02 -0.56362228938E+02  0.65291606106E+02  0.00000000000E+00 0.  1.
<mgrwt>
<rscale>  4 0.29650502E+03</rscale>
<asrwt>0</asrwt>
<pdfrwt beam="1">  1       21 0.34787957E-02 0.29650502E+03</pdfrwt>
<pdfrwt beam="2">  1       21 0.69569245E+00 0.29650502E+03</pdfrwt>
<totfact> 0.23157286E+01</totfact>
</mgrwt>
</event>
<event>
 5    0  0.1972558E-002  0.2734712E+03  0.7546771E-02  0.1099309E+00
         21   -1    0    0  501  502  0.00000000000E+00  0.00000000000E+00  0.45451890381E+02  0.45451890381E+02  0.00000000000E+00 0. -1.
         21   -1    0    0  502  503 -0.00000000000E+00 -0.00000000000E+00 -0.26671274738E+04  0.26671274738E+04  0.00000000000E+00 0.  1.
         25    1    1    2    0    0  0.36340406913E+02 -0.22553101249E+03 -0.17316632447E+04  0.17511331919E+04  0.12500000000E+03 0.  0.
          4    1    1    2  501    0  0.55794704385E+02 -0.42617856192E+02 -0.10075343338E+03  0.12280303352E+03  0.00000000000E+00 0.  1.
         -4    1    1    2    0  503 -0.92135111298E+02  0.26814886868E+03 -0.78925890530E+03  0.83864313871E+03  0.00000000000E+00 0. -1.
<mgrwt>
<rscale>  4 0.27347118E+03</rscale>
<asrwt>0</asrwt>
<pdfrwt beam="1">  1       21 0.69925982E-02 0.27347118E+03</pdfrwt>
<pdfrwt beam="2">  1       21 0.41032732E+00 0.27347118E+03</pdfrwt>
<totfact> 0.10249618E+03</totfact>
</mgrwt>
</event>
<event>
 5    0  0.1972558E-002  0.2811878E+03  0.7546771E-02  0.1095042E+00
         21   -1    0    0  501  502  0.00000000000E+00  0.00000000000E+00  0.11874375161E+04  0.11874375161E+04  0.00000000000E+00 0.  1.
         21   -1    0    0  502  503 -0.00000000000E+00 -0.00000000000E+00 -0.26595658203E+03  0.26595658203E+03  0.00000000000E+00 0.  1.
         25    1    1    2    0    0  0.35417054353E+03  0.35090728847E+02  0.74758918018E+03  0.83736653592E+03  0.12500000000E+03 0.  0.
          4    1    1    2  501    0 -0.11356398374E+03 -0.71678672533E+02  0.30953195890E+03  0.33740871963E+03  0.00000000000E+00 0.  1.
         -4    1    1    2    0  503 -0.24060655979E+03  0.36587943687E+02 -0.13564020499E+03  0.27861884259E+03  0.00000000000E+00 0. -1.
<mgrwt>
<rscale>  4 0.28118779E+03</rscale>
<asrwt>0</asrwt>
<pdfrwt beam="1">  1       21 0.18268269E+00 0.28118779E+03</pdfrwt>
<pdfrwt beam="2">  1       21 0.40916398E-01 0.28118779E+03</pdfrwt>
<totfact> 0.92543690E+02</totfact>
</mgrwt>
</event>
<event>
 5    0  0.1972558E-002  0.2515665E+03  0.7546771E-02  0.1112319E+00
         21   -1    0    0  501  502  0.00000000000E+00  0.00000000000E+00  0.12882365582E+04  0.12882365582E+04  0.00000000000E+00 0. -1.
         21   -1    0    0  502  503 -0.00000000000E+00 -0.00000000000E+00 -0.12772015461E+03  0.12772015461E+03  0.00000000000E+00 0.  1.
         25    1    1    2    0    0 -0.13571454216E+03 -0.15628604332E+03  0.98332320699E+02  0.26103258337E+03  0.12500000000E+03 0.  0.
          4    1    1    2  501    0  0.16396984314E+03  0.17225554288E+03  0.26106281253E+03  0.35314568325E+03  0.00000000000E+00 0.  1.
         -4    1    1    2    0  503 -0.28255300986E+02 -0.15969499557E+02  0.80112127033E+03  0.80177844616E+03  0.00000000000E+00 0. -1.
<mgrwt>
<rscale>  4 0.25156646E+03</rscale>
<asrwt>0</asrwt>
<pdfrwt beam="1">  1       21 0.19819023E+00 0.25156646E+03</pdfrwt>
<pdfrwt beam="2">  1       21 0.19649255E-01 0.25156646E+03</pdfrwt>
<totfact> 0.31256966E+03</totfact>
</mgrwt>
</event>
<event>
 5    0  0.1972558E-002  0.2650223E+03  0.7546771E-02  0.1104163E+00
         21   -1    0    0  501  502  0.00000000000E+00  0.00000000000E+00  0.14064402408E+04  0.14064402408E+04  0.00000000000E+00 0. -1.
         21   -1    0    0  502  503 -0.00000000000E+00 -0.00000000000E+00 -0.21457085014E+03  0.21457085014E+03  0.00000000000E+00 0. -1.
         25    1    1    2    0    0  0.21029524786E+03  0.11043414031E+03 -0.10179848154E+03  0.28706745107E+03  0.12500000000E+03 0.  0.
          2    1    1    2  501    0 -0.17754708490E+03 -0.11414681781E+03  0.54343497652E+03  0.58298716717E+03  0.00000000000E+00 0.  1.
         -2    1    1    2    0  503 -0.32748162960E+02  0.37126774994E+01  0.75023289567E+03  0.75095647271E+03  0.00000000000E+00 0. -1.
<mgrwt>
<rscale>  4 0.26502235E+03</rscale>
<asrwt>0</asrwt>
<pdfrwt beam="1">  1       21 0.21637542E+00 0.26502235E+03</pdfrwt>
<pdfrwt beam="2">  1       21 0.33010901E-01 0.26502235E+03</pdfrwt>
<totfact> 0.86974625E+02</totfact>
</mgrwt>
</event>
<event>
 5    0  0.1972558E-002  0.3338844E+03  0.7546771E-02  0.1069431E+00
         21   -1    0    0  501  502  0.00000000000E+00  0.00000000000E+00  0.32152390900E+03  0.32152390900E+03  0.00000000000E+00 0.  1.
         21   -1    0    0  502  503 -0.00000000000E+00 -0.00000000000E+00 -0.43897003699E+03  0.43897003699E+03  0.00000000000E+00 0.  1.
         25    1    1    2    0    0 -0.26099340422E+03 -0.17667807464E+03 -0.22413863533E+03  0.40644289507E+03  0.12500000000E+03 0.  0.
          1    1    1    2  501    0  0.26646320104E+03  0.15430642439E+03  0.11622975678E+03  0.32912378595E+03  0.00000000000E+00 0.  1.
         -1    1    1    2    0  503 -0.54697968230E+01  0.22371650248E+02 -0.95372494296E+01  0.24927264968E+02  0.00000000000E+00 0. -1.
<mgrwt>
<rscale>  4 0.33388437E+03</rscale>
<asrwt>0</asrwt>
<pdfrwt beam="1">  1       21 0.49465217E-01 0.33388437E+03</pdfrwt>
<pdfrwt beam="2">  1       21 0.67533851E-01 0.33388437E+03</pdfrwt>
<totfact> 0.72183923E+03</totfact>
</mgrwt>
</event>
<event>
 5    0  0.1972558E-002  0.2664998E+03  0.7546771E-02  0.1103300E+00
         21   -1    0    0  501  502  0.00000000000E+00  0.00000000000E+00  0.42864359639E+02  0.42864359639E+02  0.00000000000E+00 0.  1.
         21   -1    0    0  502  503 -0.00000000000E+00 -0.00000000000E+00 -0.19207433105E+04  0.19207433105E+04  0.00000000000E+00 0. -1.
         25    1    1    2    0    0 -0.10889047448E+03 -0.20866237386E+03 -0.13598145563E+04  0.13856831345E+04  0.12500000000E+03 0.  0.
          3    1    1    2  501    0  0.10879948891E+03  0.13858657638E+03 -0.43451374722E+03  0.46887713152E+03  0.00000000000E+00 0.  1.
         -3    1    1    2    0  503  0.90985570916E-01  0.70075797484E+02 -0.83550647257E+02  0.10904740404E+03  0.00000000000E+00 0. -1.
<mgrwt>
<rscale>  4 0.26649976E+03</rscale>
<asrwt>0</asrwt>
<pdfrwt beam="1">  1       21 0.65945193E-02 0.26649976E+03</pdfrwt>
<pdfrwt beam="2">  1       21 0.29549886E+00 0.26649976E+03</pdfrwt>
<totfact> 0.56568250E+03</totfact>
</mgrwt>
</event>
<event>
 5    0  0.1972558E-002  0.2749029E+03  0.7546771E-02  0.1098506E+00
         21   -1    0    0  503  502  0.00000000000E+00  0.00000000000E+00  0.38761545530E+03  0.38761545530E+03  0.00000000000E+00 0.  1.
         21   -1    0    0  501  503 -0.00000000000E+00 -0.00000000000E+00 -0.19030096765E+03  0.19030096765E+03  0.00000000000E+00 0.  1.
         25    1    1    2    0    0 -0.19462724017E+03 -0.14854909437E+03  0.11965479408E+03  0.29981471912E+03  0.12500000000E+03 0.  0.
          1    1    1    2  501    0  0.97986867522E+02  0.22249780415E+02 -0.14260661019E+01  0.10049135585E+03  0.00000000000E+00 0. -1.
         -1    1    1    2    0  502  0.96640372650E+02  0.12629931395E+03  0.79085759679E+02  0.17761034799E+03  0.00000000000E+00 0.  1.
<mgrwt>
<rscale>  4 0.27490288E+03</rscale>
<asrwt>0</asrwt>
<pdfrwt beam="1">  1       21 0.59633147E-01 0.27490288E+03</pdfrwt>
<pdfrwt beam="2">  1       21 0.29277072E-01 0.27490288E+03</pdfrwt>
<totfact> 0.28194553E+04</totfact>
</mgrwt>
</event>
<event>
 5    0  0.1972558E-002  0.3540430E+03  0.7546771E-02  0.1060968E+00
         21   -1    0    0  501  502  0.00000000000E+00  0.00000000000E+00  0.23443339836E+03  0.23443339836E+03  0.00000000000E+00 0.  1.
         21   -1    0    0  502  503 -0.00000000000E+00 -0.00000000000E+00 -0.63025386433E+03  0.63025386433E+03  0.00000000000E+00 0.  1.
         25    1    1    2    0    0  0.21948766765E+03  0.23486533501E+03 -0.26066055278E+03  0.43232567078E+03  0.12500000000E+03 0.  0.
          2    1    1    2  501    0  0.15825887381E+02  0.14938874792E+02  0.41140705543E+02  0.46542307034E+02  0.00000000000E+00 0. -1.
         -2    1    1    2    0  503 -0.23531355503E+03 -0.24980420980E+03 -0.17630061873E+03  0.38581928487E+03  0.00000000000E+00 0.  1.
<mgrwt>
<rscale>  4 0.35404302E+03</rscale>
<asrwt>0</asrwt>
<pdfrwt beam="1">  1       21 0.36066677E-01 0.35404302E+03</pdfrwt>
<pdfrwt beam="2">  1       21 0.96962133E-01 0.35404302E+03</pdfrwt>
<totfact> 0.59736061E+03</totfact>
</mgrwt>
</event>
<event>
 5    0  0.1972558E-002  0.2807387E+03  0.7546771E-02  0.1095286E+00
         21   -1    0    0  501  502  0.00000000000E+00  0.00000000000E+00  0.52518678218E+02  0.52518678218E+02  0.00000000000E+00 0.  1.
         21   -1    0    0  502  503 -0.00000000000E+00 -0.00000000000E+00 -0.20616098943E+04  0.20616098943E+04  0.00000000000E+00 0. -1.
         25    1    1    2    0    0 -0.54794809081E+01 -0.25131496743E+03 -0.16463574613E+04  0.16701218902E+04  0.12500000000E+03 0.  0.
          3    1    1    2  501    0  0.20660769202E+02  0.20741571112E+03 -0.31197624754E+03  0.37520304320E+03  0.00000000000E+00 0.  1.
         -3    1    1    2    0  503 -0.15181288294E+02  0.43899256313E+02 -0.50757507190E+02  0.68803639113E+02  0.00000000000E+00 0. -1.
<mgrwt>
<rscale>  4 0.28073874E+03</rscale>
<asrwt>0</asrwt>
<pdfrwt beam="1">  1       21 0.80797980E-02 0.28073874E+03</pdfrwt>
<pdfrwt beam="2">  1       21 0.31717070E+00 0.28073874E+03</pdfrwt>
<totfact> 0.29244511E+03</totfact>
</mgrwt>
</event>
<event>
 5    0  0.1972558E-002  0.2752679E+03  0.7546771E-02  0.1098302E+00
         21   -1    0    0  501  502  0.00000000000E+00  0.00000000000E+00  0.11335020552E+03  0.11335020552E+03  0.00000000000E+00 0.  1.
         21   -1    0    0  502  503 -0.00000000000E+00 -0.00000000000E+00 -0.11445494863E+04  0.11445494863E+04  0.00000000000E+00 0.  1.
         25    1    1    2    0    0 -0.25502568599E+03 -0.25632699845E+02 -0.82012286342E+03  0.86828661565E+03  0.12500000000E+03 0.  0.
          4    1    1    2  501    0  0.22516326280E+03  0.13279674036E+02 -0.25152132218E+03  0.33784289273E+03  0.00000000000E+00 0.  1.
         -4    1    1    2    0  503  0.29862423199E+02  0.12353025809E+02  0.40444904827E+02  0.51770183431E+02  0.00000000000E+00 0. -1.
<mgrwt>
<rscale>  4 0.27526790E+03</rscale>
<asrwt>0</asrwt>
<pdfrwt beam="1">  1       21 0.17438492E-01 0.27526790E+03</pdfrwt>
<pdfrwt beam="2">  1       21 0.17608455E+00 0.27526790E+03</pdfrwt>
<totfact> 0.54188061E+03</totfact>
</mgrwt>
</event>
<event>
 5    0  0.1972558E-002  0.2319468E+03  0.7546771E-02  0.1125277E+00
         21   -1    0    0  501  502  0.00000000000E+00  0.00000000000E+00  0.20384560333E+03  0.20384560333E+03  0.00000000000E+00 0. -1.
         21   -1    0    0  502  503 -0.00000000000E+00 -0.00000000000E+00 -0.83898291191E+03  0.83898291191E+03  0.00000000000E+00 0.  1.
         25    1    1    2    0    0 -0.18889047854E+03  0.16611976344E+03 -0.54475633425E+03  0.61291096612E+03  0.12500000000E+03 0.  0.
          2    1    1    2  501    0  0.62861696188E+02 -0.14611165575E+03 -0.20425903291E+03  0.25888600062E+03  0.00000000000E+00 0.  1.
         -2    1    1    2    0  503  0.12602878235E+03 -0.20008107699E+02  0.11387805858E+03  0.17103154849E+03  0.00000000000E+00 0. -1.
<mgrwt>
<rscale>  4 0.23194683E+03</rscale>
<asrwt>0</asrwt>
<pdfrwt beam="1">  1       21 0.31360862E-01 0.23194683E+03</pdfrwt>
<pdfrwt beam="2">  1       21 0.12907429E+00 0.23194683E+03</pdfrwt>
<totfact> 0.41692999E+03</totfact>
</mgrwt>
</event>
<event>
 5    0  0.1972558E-002  0.3000369E+03  0.7546771E-02  0.1085222E+00
         21   -1    0    0  501  502  0.00000000000E+00  0.00000000000E+00  0.55020206059E+03  0.55020206059E+03  0.00000000000E+00 0.  1.
         21   -1    0    0  502  503 -0.00000000000E+00 -0.00000000000E+00 -0.25840043668E+03  0.25840043668E+03  0.00000000000E+00 0. -1.
         25    1    1    2    0    0  0.28651859043E+03 -0.65040939374E+01 -0.55784261657E+02  0.31760366771E+03  0.12500000000E+03 0.  0.
          4    1    1    2  501    0 -0.24244231843E+03 -0.69397827329E+02  0.21183966449E+03  0.32934841681E+03  0.00000000000E+00 0.  1.
         -4    1    1    2    0  503 -0.44076271996E+02  0.75901921267E+02  0.13574622108E+03  0.16165041275E+03  0.00000000000E+00 0. -1.
<mgrwt>
<rscale>  4 0.30003690E+03</rscale>
<asrwt>0</asrwt>
<pdfrwt beam="1">  1       21 0.84646471E-01 0.30003690E+03</pdfrwt>
<pdfrwt beam="2">  1       21 0.39753913E-01 0.30003690E+03</pdfrwt>
<totfact> 0.69146418E+03</totfact>
</mgrwt>
</event>
<event>
 5    0  0.1972558E-002  0.3251842E+03  0.7546771E-02  0.1073288E+00
         21   -1    0    0  501  502  0.00000000000E+00  0.00000000000E+00  0.38837217717E+03  0.38837217717E+03  0.00000000000E+00 0. -1.
         21   -1    0    0  502  503 -0.00000000000E+00 -0.00000000000E+00 -0.47327376061E+03  0.47327376061E+03  0.00000000000E+00 0. -1.
         25    1    1    2    0    0  0.22538616766E+03  0.27321943272E+03 -0.33125589600E+02  0.37705448900E+03  0.12500000000E+03 0.  0.
          1    1    1    2  501    0  0.44696054402E+02 -0.18164913601E+03  0.26316500943E+02  0.18890924835E+03  0.00000000000E+00 0.  1.
         -1    1    1    2    0  503 -0.27008222206E+03 -0.91570296709E+02 -0.78092494785E+02  0.29568220044E+03  0.00000000000E+00 0. -1.
<mgrwt>
<rscale>  4 0.32518424E+03</rscale>
<asrwt>0</asrwt>
<pdfrwt beam="1">  1       21 0.59749566E-01 0.32518424E+03</pdfrwt>
<pdfrwt beam="2">  1       21 0.72811347E-01 0.32518424E+03</pdfrwt>
<totfact> 0.40879201E+03</totfact>
</mgrwt>
</event>
<event>
 5    0  0.1972558E-002  0.1836689E+03  0.7546771E-02  0.1164299E+00
         21   -1    0    0  503  502  0.00000000000E+00  0.00000000000E+00  0.44682710203E+03  0.44682710203E+03  0.00000000000E+00 0.  1.
         21   -1    0    0  501  503 -0.00000000000E+00 -0.00000000000E+00 -0.35372191965E+03  0.35372191965E+03  0.00000000000E+00 0. -1.
         25    1    1    2    0    0  0.63997213401E+02 -0.19085297989E+03 -0.24187050155E+03  0.33859539687E+03  0.12500000000E+03 0.  0.
          4    1    1    2  501    0 -0.45554375224E+02  0.60148118292E+02 -0.24242307649E+02  0.79250783695E+02  0.00000000000E+00 0. -1.
         -4    1    1    2    0  502 -0.18442838177E+02  0.13070486160E+03  0.35921799158E+03  0.38270284112E+03  0.00000000000E+00 0.  1.
<mgrwt>
<rscale>  4 0.18366887E+03</rscale>
<asrwt>0</asrwt>
<pdfrwt beam="1">  1       21 0.68742631E-01 0.18366887E+03</pdfrwt>
<pdfrwt beam="2">  1       21 0.54418757E-01 0.18366887E+03</pdfrwt>
<totfact> 0.61934197E+03</totfact>
</mgrwt>
</event>
<event>
 5    0  0.1972558E-002  0.2246072E+03  0.7546771E-02  0.1130494E+00
         21   -1    0    0  503  502  0.00000000000E+00  0.00000000000E+00  0.25541420112E+03  0.25541420112E+03  0.00000000000E+00 0. -1.
         21   -1    0    0  501  503 -0.00000000000E+00 -0.00000000000E+00 -0.62275608892E+03  0.62275608892E+03  0.00000000000E+00 0. -1.
         25    1    1    2    0    0  0.13797747155E+03 -0.17014953247E+03 -0.37156610146E+03  0.44908241316E+03  0.12500000000E+03 0.  0.
          3    1    1    2  501    0 -0.47142504191E+02  0.15814189607E+03 -0.16707073617E+03  0.23482739593E+03  0.00000000000E+00 0. -1.
         -3    1    1    2    0  502 -0.90834967357E+02  0.12007636402E+02  0.17129494983E+03  0.19426048096E+03  0.00000000000E+00 0.  1.
<mgrwt>
<rscale>  4 0.22460718E+03</rscale>
<asrwt>0</asrwt>
<pdfrwt beam="1">  1       21 0.39294493E-01 0.22460718E+03</pdfrwt>
<pdfrwt beam="2">  1       21 0.95808627E-01 0.22460718E+03</pdfrwt>
<totfact> 0.55372819E+03</totfact>
</mgrwt>
</event>
<event>
 5    0  0.1972558E-002  0.2599195E+03  0.7546771E-02  0.1107192E+00
         21   -1    0    0  501  502  0.00000000000E+00  0.00000000000E+00  0.38976109812E+03  0.38976109812E+03  0.00000000000E+00 0. -1.
         21   -1    0    0  502  503 -0.00000000000E+00 -0.00000000000E+00 -0.18471563787E+03  0.18471563787E+03  0.00000000000E+00 0. -1.
         25    1    1    2    0    0 -0.17052398016E+03  0.16388606637E+03  0.55135234029E+02  0.27313360209E+03  0.12500000000E+03 0.  0.
          4    1    1    2  501    0  0.17680085842E+03 -0.13066640078E+03  0.10112482386E+03  0.24198859855E+03  0.00000000000E+00 0. -1.
         -4    1    1    2    0  503 -0.62768782572E+01 -0.33219665590E+02  0.48785402360E+02  0.59354535345E+02  0.00000000000E+00 0.  1.
<mgrwt>
<rscale>  4 0.25991948E+03</rscale>
<asrwt>0</asrwt>
<pdfrwt beam="1">  1       21 0.59963246E-01 0.25991948E+03</pdfrwt>
<pdfrwt beam="2">  1       21 0.28417791E-01 0.25991948E+03</pdfrwt>
<totfact> 0.29716612E+04</totfact>
</mgrwt>
</event>
<event>
 5    0  0.1972558E-002  0.2563504E+03  0.7546771E-02  0.1109356E+00
         21   -1    0    0  501  502  0.00000000000E+00  0.00000000000E+00  0.17873449198E+04  0.17873449198E+04  0.00000000000E+00 0. -1.
         21   -1    0    0  502  503 -0.00000000000E+00 -0.00000000000E+00 -0.10808080304E+03  0.10808080304E+03  0.00000000000E+00 0. -1.
         25    1    1    2    0    0  0.89768481943E+02 -0.18060426929E+03  0.22705572885E+03  0.32841374277E+03  0.12500000000E+03 0.  0.
          3    1    1    2  501    0  0.31420907537E+02 -0.32259407390E+02  0.12460322743E+04  0.12468457688E+04  0.00000000000E+00 0. -1.
         -3    1    1    2    0  503 -0.12118938948E+03  0.21286367668E+03  0.20617611365E+03  0.32016621123E+03  0.00000000000E+00 0.  1.
<mgrwt>
<rscale>  4 0.25635042E+03</rscale>
<asrwt>0</asrwt>
<pdfrwt beam="1">  1       21 0.27497612E+00 0.25635042E+03</pdfrwt>
<pdfrwt beam="2">  1       21 0.16627817E-01 0.25635042E+03</pdfrwt>
<totfact> 0.14426200E+03</totfact>
</mgrwt>
</event>
<event>
 5    0  0.1972558E-002  0.2401341E+03  0.7546771E-02  0.1119704E+00
         21   -1    0    0  503  502  0.00000000000E+00  0.00000000000E+00  0.25588860096E+03  0.25588860096E+03  0.00000000000E+00 0.  1.
         21   -1    0    0  501  503 -0.00000000000E+00 -0.00000000000E+00 -0.34202671069E+03  0.34202671069E+03  0.00000000000E+00 0.  1.
         25    1    1    2    0    0  0.14540439469E+03  0.17993670332E+03 -0.53453676478E+02  0.26833179224E+03  0.12500000000E+03 0.  0.
          1    1    1    2  501    0  0.25531953985E+02 -0.84217070659E+02  0.66208193085E+02  0.11012683822E+03  0.00000000000E+00 0. -1.
         -1    1    1    2    0  502 -0.17093634868E+03 -0.95719632661E+02 -0.98892626334E+02  0.21945668119E+03  0.00000000000E+00 0.  1.
<mgrwt>
<rscale>  4 0.24013408E+03</rscale>
<asrwt>0</asrwt>
<pdfrwt beam="1">  1       21 0.39367478E-01 0.24013408E+03</pdfrwt>
<pdfrwt beam="2">  1       21 0.52619493E-01 0.24013408E+03</pdfrwt>
<totfact> 0.20747819E+04</totfact>
</mgrwt>
</event>
<event>
 5    0  0.1972558E-002  0.3453223E+03  0.7546771E-02  0.1064551E+00
         21   -1    0    0  501  502  0.00000000000E+00  0.00000000000E+00  0.11726166554E+03  0.11726166554E+03  0.00000000000E+00 0. -1.
         21   -1    0    0  502  503 -0.00000000000E+00 -0.00000000000E+00 -0.20467137185E+04  0.20467137185E+04  0.00000000000E+00 0. -1.
         25    1    1    2    0    0  0.32773941138E+03 -0.16805702365E+02 -0.15212439214E+04  0.15612506595E+04  0.12500000000E+03 0.  0.
          3    1    1    2  501    0 -0.29791078577E+03 -0.93015147929E+02 -0.21667582985E+03  0.37993561200E+03  0.00000000000E+00 0. -1.
         -3    1    1    2    0  503 -0.29828625609E+02  0.10982085029E+03 -0.19153230171E+03  0.22278911254E+03  0.00000000000E+00 0.  1.
<mgrwt>
<rscale>  4 0.34532232E+03</rscale>
<asrwt>0</asrwt>
<pdfrwt beam="1">  1       21 0.18040257E-01 0.34532232E+03</pdfrwt>
<pdfrwt beam="2">  1       21 0.31487902E+00 0.34532232E+03</pdfrwt>
<totfact> 0.66849327E+02</totfact>
</mgrwt>
</event>
<event>
 5    0  0.1972558E-002  0.2876107E+03  0.7546771E-02  0.1091603E+00
         21   -1    0    0  501  502  0.00000000000E+00  0.00000000000E+00  0.40439995028E+03  0.40439995028E+03  0.00000000000E+00 0.  1.
         21   -1    0    0  502  503 -0.00000000000E+00 -0.00000000000E+00 -0.10558326627E+04  0.10558326627E+04  0.00000000000E+00 0.  1.
         25    1    1    2    0    0 -0.16452690530E+03  0.20006453107E+03 -0.98923979515E+03  0.10302015781E+04  0.12500000000E+03 0.  0.
          1    1    1    2  501    0  0.27489266177E+02 -0.55187541238E+01  0.32009660339E+02  0.42552729137E+02  0.00000000000E+00 0. -1.
         -1    1    1    2    0  503  0.13703763912E+03 -0.19454577694E+03  0.30579742241E+03  0.38747830574E+03  0.00000000000E+00 0.  1.
<mgrwt>
<rscale>  4 0.28761071E+03</rscale>
<asrwt>0</asrwt>
<pdfrwt beam="1">  1       21 0.62215376E-01 0.28761071E+03</pdfrwt>
<pdfrwt beam="2">  1       21 0.16243580E+00 0.28761071E+03</pdfrwt>
<totfact> 0.52955996E+02</totfact>
</mgrwt>
</event>
<event>
 5    0  0.1972558E-002  0.3334009E+03  0.7546771E-02  0.1070424E+00
         21   -1    0    0  501  502  0.00000000000E+00  0.00000000000E+00  0.11115792508E+04  0.11115792508E+04  0.00000000000E+00 0. -1.
         21   -1    0    0  502  503 -0.00000000000E+00 -0.00000000000E+00 -0.54169249108E+03  0.54169249108E+03  0.00000000000E+00 0.  1.
         25    1    1    2    0    0  0.19964146162E+03  0.24100920623E+03 -0.13633343168E+03  0.36352985472E+03  0.12500000000E+03 0.  0.
          3    1    1    2  501    0 -0.35287379001E+03  0.65581143405E+02 -0.13336235525E+03  0.38289204203E+03  0.00000000000E+00 0.  1.
         -3    1    1    2    0  503  0.15323232840E+03 -0.30659034963E+03  0.83958254663E+03  0.90684984510E+03  0.00000000000E+00 0. -1.
<mgrwt>
<rscale>  4 0.33161715E+03</rscale>
<asrwt>0</asrwt>
<pdfrwt beam="1">  1       21 0.17101219E+00 0.33340090E+03</pdfrwt>
<pdfrwt beam="2">  1       21 0.83337306E-01 0.33340090E+03</pdfrwt>
<totfact> 0.23012407E+02</totfact>
</mgrwt>
</event>
<event>
 5    0  0.1972558E-002  0.3083708E+03  0.7546771E-02  0.1081129E+00
         21   -1    0    0  501  502  0.00000000000E+00  0.00000000000E+00  0.12029883895E+03  0.12029883895E+03  0.00000000000E+00 0. -1.
         21   -1    0    0  502  503 -0.00000000000E+00 -0.00000000000E+00 -0.12341319212E+04  0.12341319212E+04  0.00000000000E+00 0. -1.
         25    1    1    2    0    0  0.27454577131E+03 -0.32914166941E+02 -0.43450337124E+03  0.52997820950E+03  0.12500000000E+03 0.  0.
          4    1    1    2  501    0 -0.27259112645E+03  0.90309259878E+02 -0.70523042005E+03  0.76145362958E+03  0.00000000000E+00 0. -1.
         -4    1    1    2    0  503 -0.19546448656E+01 -0.57395092937E+02  0.25900709028E+02  0.62998921085E+02  0.00000000000E+00 0.  1.
<mgrwt>
<rscale>  4 0.30837077E+03</rscale>
<asrwt>0</asrwt>
<pdfrwt beam="1">  1       21 0.18507513E-01 0.30837077E+03</pdfrwt>
<pdfrwt beam="2">  1       21 0.18986646E+00 0.30837077E+03</pdfrwt>
<totfact> 0.38233620E+03</totfact>
</mgrwt>
</event>
<event>
 5    0  0.1972558E-002  0.2816377E+03  0.7546771E-02  0.1094798E+00
         21   -1    0    0  501  502  0.00000000000E+00  0.00000000000E+00  0.24508787574E+03  0.24508787574E+03  0.00000000000E+00 0.  1.
         21   -1    0    0  502  503 -0.00000000000E+00 -0.00000000000E+00 -0.47917485290E+03  0.47917485290E+03  0.00000000000E+00 0. -1.
         25    1    1    2    0    0 -0.24313350862E+03  0.73821238799E+02 -0.28142451442E+03  0.39923456217E+03  0.12500000000E+03 0.  0.
          3    1    1    2  501    0  0.23120718807E+03 -0.94517806217E+02 -0.22911278356E+02  0.25082923709E+03  0.00000000000E+00 0.  1.
         -3    1    1    2    0  503  0.11926320559E+02  0.20696567419E+02  0.70248815619E+02  0.74198929378E+02  0.00000000000E+00 0. -1.
<mgrwt>
<rscale>  4 0.28163771E+03</rscale>
<asrwt>0</asrwt>
<pdfrwt beam="1">  1       21 0.37705827E-01 0.28163771E+03</pdfrwt>
<pdfrwt beam="2">  1       21 0.73719208E-01 0.28163771E+03</pdfrwt>
<totfact> 0.10643913E+04</totfact>
</mgrwt>
</event>
<event>
 5    0  0.1972558E-002  0.3165414E+03  0.7546771E-02  0.1077252E+00
         21   -1    0    0  503  502  0.00000000000E+00  0.00000000000E+00  0.18301397559E+04  0.18301397559E+04  0.00000000000E+00 0. -1.
         21   -1    0    0  501  503 -0.00000000000E+00 -0.00000000000E+00 -0.79431511774E+02  0.79431511774E+02  0.00000000000E+00 0.  1.
         25    1    1    2    0    0  0.28327425110E+03  0.65796516750E+02  0.33059601906E+03  0.45770319070E+03  0.12500000000E+03 0.  0.
          1    1    1    2  501    0 -0.23792903920E+03 -0.38655532038E+02  0.10100696489E+04  0.10384340006E+04  0.00000000000E+00 0. -1.
         -1    1    1    2    0  502 -0.45345211903E+02 -0.27140984712E+02  0.41004257611E+03  0.41343407639E+03  0.00000000000E+00 0.  1.
<mgrwt>
<rscale>  4 0.31654144E+03</rscale>
<asrwt>0</asrwt>
<pdfrwt beam="1">  1       21 0.28155993E+00 0.31654144E+03</pdfrwt>
<pdfrwt beam="2">  1       21 0.12220234E-01 0.31654144E+03</pdfrwt>
<totfact> 0.22062348E+03</totfact>
</mgrwt>
</event>
<event>
 5    0  0.1972558E-002  0.3138594E+03  0.7546771E-02  0.1078511E+00
         21   -1    0    0  501  502  0.00000000000E+00  0.00000000000E+00  0.26752785219E+03  0.26752785219E+03  0.00000000000E+00 0. -1.
         21   -1    0    0  502  503 -0.00000000000E+00 -0.00000000000E+00 -0.54156535689E+03  0.54156535689E+03  0.00000000000E+00 0. -1.
         25    1    1    2    0    0  0.25635160638E+03  0.13102117733E+03 -0.37456681389E+03  0.48867984721E+03  0.12500000000E+03 0.  0.
          3    1    1    2  501    0 -0.50588529266E+02  0.43856276401E+01  0.45142667459E+02  0.67943310549E+02  0.00000000000E+00 0.  1.
         -3    1    1    2    0  503 -0.20576307711E+03 -0.13540680497E+03  0.55386641730E+02  0.25247005132E+03  0.00000000000E+00 0. -1.
<mgrwt>
<rscale>  4 0.31385936E+03</rscale>
<asrwt>0</asrwt>
<pdfrwt beam="1">  1       21 0.41158132E-01 0.31385936E+03</pdfrwt>
<pdfrwt beam="2">  1       21 0.83317746E-01 0.31385936E+03</pdfrwt>
<totfact> 0.66367256E+03</totfact>
</mgrwt>
</event>
<event>
 5    0  0.1972558E-002  0.2243656E+03  0.7546771E-02  0.1130670E+00
         21   -1    0    0  501  502  0.00000000000E+00  0.00000000000E+00  0.10028768495E+04  0.10028768495E+04  0.00000000000E+00 0.  1.
         21   -1    0    0  502  503 -0.00000000000E+00 -0.00000000000E+00 -0.12096979337E+03  0.12096979337E+03  0.00000000000E+00 0.  1.
         25    1    1    2    0    0 -0.22549870241E+03 -0.23559719698E+02  0.69108016190E+02  0.26796574983E+03  0.12500000000E+03 0.  0.
          1    1    1    2  501    0  0.18069789874E+03  0.22180707324E+02  0.77832916833E+03  0.79933723088E+03  0.00000000000E+00 0.  1.
         -1    1    1    2    0  503  0.44800803664E+02  0.13790123740E+01  0.34469871654E+02  0.56543662208E+02  0.00000000000E+00 0. -1.
<mgrwt>
<rscale>  4 0.22436561E+03</rscale>
<asrwt>0</asrwt>
<pdfrwt beam="1">  1       21 0.15428874E+00 0.22436561E+03</pdfrwt>
<pdfrwt beam="2">  1       21 0.18610738E-01 0.22436561E+03</pdfrwt>
<totfact> 0.71465375E+03</totfact>
</mgrwt>
</event>
<event>
 5    0  0.1972558E-002  0.2585387E+03  0.7546771E-02  0.1108024E+00
         21   -1    0    0  501  502  0.00000000000E+00  0.00000000000E+00  0.16349020580E+04  0.16349020580E+04  0.00000000000E+00 0.  1.
         21   -1    0    0  502  503 -0.00000000000E+00 -0.00000000000E+00 -0.49071467503E+03  0.49071467503E+03  0.00000000000E+00 0. -1.
         25    1    1    2    0    0  0.86637960482E+02  0.20584245806E+03 -0.42691710819E+03  0.49775543292E+03  0.12500000000E+03 0.  0.
          1    1    1    2  501    0  0.11025985128E+01  0.81684708246E+02  0.73177786159E+03  0.73632360142E+03  0.00000000000E+00 0. -1.
         -1    1    1    2    0  503 -0.87740558995E+02 -0.28752716631E+03  0.83932662953E+03  0.89153769864E+03  0.00000000000E+00 0.  1.
<mgrwt>
<rscale>  4 0.25853871E+03</rscale>
<asrwt>0</asrwt>
<pdfrwt beam="1">  1       21 0.25152339E+00 0.25853871E+03</pdfrwt>
<pdfrwt beam="2">  1       21 0.75494566E-01 0.25853871E+03</pdfrwt>
<totfact> 0.93479624E+01</totfact>
</mgrwt>
</event>
<event>
 5    0  0.1972558E-002  0.2944735E+03  0.7546771E-02  0.1088036E+00
         21   -1    0    0  501  502  0.00000000000E+00  0.00000000000E+00  0.29023120949E+03  0.29023120949E+03  0.00000000000E+00 0. -1.
         21   -1    0    0  502  503 -0.00000000000E+00 -0.00000000000E+00 -0.16381280260E+04  0.16381280260E+04  0.00000000000E+00 0.  1.
         25    1    1    2    0    0  0.13699592787E+03  0.23637120053E+03 -0.13381875175E+04  0.13714992019E+04  0.12500000000E+03 0.  0.
          2    1    1    2  501    0  0.87555342451E+02 -0.16854432954E+03 -0.18414264108E+03  0.26454043410E+03  0.00000000000E+00 0.  1.
         -2    1    1    2    0  503 -0.22455127033E+03 -0.67826870996E+02  0.17443334208E+03  0.29231959952E+03  0.00000000000E+00 0. -1.
<mgrwt>
<rscale>  4 0.29447346E+03</rscale>
<asrwt>0</asrwt>
<pdfrwt beam="1">  1       21 0.44650955E-01 0.29447346E+03</pdfrwt>
<pdfrwt beam="2">  1       21 0.25201970E+00 0.29447346E+03</pdfrwt>
<totfact> 0.27791877E+02</totfact>
</mgrwt>
</event>
<event>
 5    0  0.1972558E-002  0.3091092E+03  0.7546771E-02  0.1080774E+00
         21   -1    0    0  501  502  0.00000000000E+00  0.00000000000E+00  0.38323085289E+03  0.38323085289E+03  0.00000000000E+00 0.  1.
         21   -1    0    0  502  503 -0.00000000000E+00 -0.00000000000E+00 -0.46320872232E+03  0.46320872232E+03  0.00000000000E+00 0. -1.
         25    1    1    2    0    0 -0.18451151433E+03  0.23124047747E+03 -0.29001239537E+03  0.43272259799E+03  0.12500000000E+03 0.  0.
          1    1    1    2  501    0  0.16563149206E+03 -0.19124243992E+03  0.63768461743E+02  0.26090971370E+03  0.00000000000E+00 0.  1.
         -1    1    1    2    0  503  0.18880022275E+02 -0.39998037554E+02  0.14626606420E+03  0.15280726352E+03  0.00000000000E+00 0. -1.
<mgrwt>
<rscale>  4 0.30910925E+03</rscale>
<asrwt>0</asrwt>
<pdfrwt beam="1">  1       21 0.58958593E-01 0.30910925E+03</pdfrwt>
<pdfrwt beam="2">  1       21 0.71262880E-01 0.30910925E+03</pdfrwt>
<totfact> 0.44509445E+03</totfact>
</mgrwt>
</event>
<event>
 5    0  0.1972558E-002  0.2727107E+03  0.7546771E-02  0.1099738E+00
         21   -1    0    0  501  502  0.00000000000E+00  0.00000000000E+00  0.14912312506E+04  0.14912312506E+04  0.00000000000E+00 0. -1.
         21   -1    0    0  502  503 -0.00000000000E+00 -0.00000000000E+00 -0.22513181247E+03  0.22513181247E+03  0.00000000000E+00 0.  1.
         25    1    1    2    0    0  0.13913477398E+03  0.16870740785E+03  0.10022550429E+03  0.27109191523E+03  0.12500000000E+03 0.  0.
          2    1    1    2  501    0  0.12813063343E+02  0.39490704742E+02  0.11860102290E+04  0.11867366825E+04  0.00000000000E+00 0. -1.
         -2    1    1    2    0  503 -0.15194783732E+03 -0.20819811259E+03 -0.20136295196E+02  0.25853446528E+03  0.00000000000E+00 0.  1.
<mgrwt>
<rscale>  4 0.27271071E+03</rscale>
<asrwt>0</asrwt>
<pdfrwt beam="1">  1       21 0.22942019E+00 0.27271071E+03</pdfrwt>
<pdfrwt beam="2">  1       21 0.34635664E-01 0.27271071E+03</pdfrwt>
<totfact> 0.65145498E+02</totfact>
</mgrwt>
</event>
<event>
 5    0  0.1972558E-002  0.2479044E+03  0.7546771E-02  0.1114636E+00
         21   -1    0    0  501  502  0.00000000000E+00  0.00000000000E+00  0.14959557233E+04  0.14959557233E+04  0.00000000000E+00 0. -1.
         21   -1    0    0  502  503 -0.00000000000E+00 -0.00000000000E+00 -0.75966564219E+02  0.75966564219E+02  0.00000000000E+00 0. -1.
         25    1    1    2    0    0  0.21226496913E+03  0.27841987886E+02  0.16876239671E+03  0.29989554841E+03  0.12500000000E+03 0.  0.
          1    1    1    2  501    0 -0.14025243039E+03 -0.22634353490E+02  0.10184167229E+04  0.10282780167E+04  0.00000000000E+00 0. -1.
         -1    1    1    2    0  503 -0.72012538737E+02 -0.52076343959E+01  0.23281003953E+03  0.24374872245E+03  0.00000000000E+00 0.  1.
<mgrwt>
<rscale>  4 0.24790440E+03</rscale>
<asrwt>0</asrwt>
<pdfrwt beam="1">  1       21 0.23014701E+00 0.24790440E+03</pdfrwt>
<pdfrwt beam="2">  1       21 0.11687165E-01 0.24790440E+03</pdfrwt>
<totfact> 0.51130048E+03</totfact>
</mgrwt>
</event>
<event>
 5    0  0.1972558E-002  0.2343565E+03  0.7546771E-02  0.1123610E+00
         21   -1    0    0  501  502  0.00000000000E+00  0.00000000000E+00  0.49129179309E+03  0.49129179309E+03  0.00000000000E+00 0. -1.
         21   -1    0    0  502  503 -0.00000000000E+00 -0.00000000000E+00 -0.12799316132E+03  0.12799316132E+03  0.00000000000E+00 0.  1.
         25    1    1    2    0    0 -0.20478501854E+03 -0.51139609002E+02  0.18888786585E+03  0.30960586120E+03  0.12500000000E+03 0.  0.
          4    1    1    2  501    0  0.16544338110E+03  0.99211651090E+02  0.12068869025E+03  0.22755268405E+03  0.00000000000E+00 0. -1.
         -4    1    1    2    0  503  0.39341637432E+02 -0.48072042088E+02  0.53722075673E+02  0.82126409157E+02  0.00000000000E+00 0.  1.
<mgrwt>
<rscale>  4 0.23435653E+03</rscale>
<asrwt>0</asrwt>
<pdfrwt beam="1">  1       21 0.75583352E-01 0.23435653E+03</pdfrwt>
<pdfrwt beam="2">  1       21 0.19691256E-01 0.23435653E+03</pdfrwt>
<totfact> 0.36360741E+04</totfact>
</mgrwt>
</event>
<event>
 5    0  0.1972558E-002  0.4097132E+03  0.7546771E-02  0.1040467E+00
         21   -1    0    0  501  502  0.00000000000E+00  0.00000000000E+00  0.50137005163E+03  0.50137005163E+03  0.00000000000E+00 0.  1.
         21   -1    0    0  502  503 -0.00000000000E+00 -0.00000000000E+00 -0.92030821182E+03  0.92030821182E+03  0.00000000000E+00 0. -1.
         25    1    1    2    0    0 -0.35119488669E+03 -0.16849830613E+03 -0.70501998363E+03  0.81511208121E+03  0.12500000000E+03 0.  0.
          3    1    1    2  501    0  0.36621947433E+03  0.14497056934E+03  0.84207039593E+02  0.40277039969E+03  0.00000000000E+00 0.  1.
         -3    1    1    2    0  503 -0.15024587631E+02  0.23527736785E+02  0.20187478385E+03  0.20379578255E+03  0.00000000000E+00 0. -1.
<mgrwt>
<rscale>  4 0.40971322E+03</rscale>
<asrwt>0</asrwt>
<pdfrwt beam="1">  1       21 0.77133855E-01 0.40971322E+03</pdfrwt>
<pdfrwt beam="2">  1       21 0.14158588E+00 0.40971322E+03</pdfrwt>
<totfact> 0.44006339E+02</totfact>
</mgrwt>
</event>
<event>
 5    0  0.1972558E-002  0.3235571E+03  0.7546771E-02  0.1074024E+00
         21   -1    0    0  501  502  0.00000000000E+00  0.00000000000E+00  0.99528090273E+02  0.99528090273E+02  0.00000000000E+00 0. -1.
         21   -1    0    0  502  503 -0.00000000000E+00 -0.00000000000E+00 -0.13718343025E+04  0.13718343025E+04  0.00000000000E+00 0. -1.
         25    1    1    2    0    0 -0.16642652767E+03 -0.24877786221E+03 -0.58572734144E+03  0.66954442149E+03  0.12500000000E+03 0.  0.
          2    1    1    2  501    0  0.32496580796E+02 -0.18301682076E+02  0.14275893989E+02  0.39934702696E+02  0.00000000000E+00 0.  1.
         -2    1    1    2    0  503  0.13392994688E+03  0.26707954428E+03 -0.70085476480E+03  0.76188326861E+03  0.00000000000E+00 0. -1.
<mgrwt>
<rscale>  4 0.32355709E+03</rscale>
<asrwt>0</asrwt>
<pdfrwt beam="1">  1       21 0.15312014E-01 0.32355709E+03</pdfrwt>
<pdfrwt beam="2">  1       21 0.21105143E+00 0.32355709E+03</pdfrwt>
<totfact> 0.39132164E+03</totfact>
</mgrwt>
</event>
<event>
 5    0  0.1972558E-002  0.2476986E+03  0.7546771E-02  0.1114768E+00
         21   -1    0    0  503  502  0.00000000000E+00  0.00000000000E+00  0.77854023498E+03  0.77854023498E+03  0.00000000000E+00 0.  1.
         21   -1    0    0  501  503 -0.00000000000E+00 -0.00000000000E+00 -0.33997653902E+03  0.33997653902E+03  0.00000000000E+00 0. -1.
         25    1    1    2    0    0  0.14208807124E+03  0.15650110147E+03 -0.25114774040E+03  0.35125745865E+03  0.12500000000E+03 0.  0.
          2    1    1    2  501    0  0.52670765794E+02  0.73544284635E+00  0.27717327545E+02  0.59523110569E+02  0.00000000000E+00 0. -1.
         -2    1    1    2    0  502 -0.19475883703E+03 -0.15723654432E+03  0.66199410881E+03  0.70773620479E+03  0.00000000000E+00 0.  1.
<mgrwt>
<rscale>  4 0.24769863E+03</rscale>
<asrwt>0</asrwt>
<pdfrwt beam="1">  1       21 0.11977542E+00 0.24769863E+03</pdfrwt>
<pdfrwt beam="2">  1       21 0.52304083E-01 0.24769863E+03</pdfrwt>
<totfact> 0.17560130E+03</totfact>
</mgrwt>
</event>
<event>
 5    0  0.1972558E-002  0.2612379E+03  0.7546771E-02  0.1106402E+00
         21   -1    0    0  501  502  0.00000000000E+00  0.00000000000E+00  0.13772557198E+03  0.13772557198E+03  0.00000000000E+00 0.  1.
         21   -1    0    0  502  503 -0.00000000000E+00 -0.00000000000E+00 -0.53785364252E+03  0.53785364252E+03  0.00000000000E+00 0.  1.
         25    1    1    2    0    0 -0.19879544059E+03 -0.11137303295E+03 -0.15154606844E+03  0.30085676081E+03  0.12500000000E+03 0.  0.
          1    1    1    2  501    0  0.21108760104E+03  0.92998797406E+02 -0.26183499106E+03  0.34894743756E+03  0.00000000000E+00 0.  1.
         -1    1    1    2    0  503 -0.12292160455E+02  0.18374235545E+02  0.13252988963E+02  0.25775016138E+02  0.00000000000E+00 0. -1.
<mgrwt>
<rscale>  4 0.26123789E+03</rscale>
<asrwt>0</asrwt>
<pdfrwt beam="1">  1       21 0.21188550E-01 0.26123789E+03</pdfrwt>
<pdfrwt beam="2">  1       21 0.82746713E-01 0.26123789E+03</pdfrwt>
<totfact> 0.25477048E+04</totfact>
</mgrwt>
</event>
<event>
 5    0  0.1972558E-002  0.2619097E+03  0.7546771E-02  0.1106001E+00
         21   -1    0    0  503  502  0.00000000000E+00  0.00000000000E+00  0.50254916452E+03  0.50254916452E+03  0.00000000000E+00 0. -1.
         21   -1    0    0  501  503 -0.00000000000E+00 -0.00000000000E+00 -0.43781023213E+03  0.43781023213E+03  0.00000000000E+00 0.  1.
         25    1    1    2    0    0  0.31853274287E+02  0.23798330252E+03 -0.33036539204E+03  0.42710300352E+03  0.12500000000E+03 0.  0.
          3    1    1    2  501    0 -0.92939114491E+02 -0.74251640387E+02  0.55374785491E+02  0.13121490758E+03  0.00000000000E+00 0.  1.
         -3    1    1    2    0  502  0.61085840204E+02 -0.16373166213E+03  0.33972953894E+03  0.38204148555E+03  0.00000000000E+00 0. -1.
<mgrwt>
<rscale>  4 0.26190967E+03</rscale>
<asrwt>0</asrwt>
<pdfrwt beam="1">  1       21 0.77315256E-01 0.26190967E+03</pdfrwt>
<pdfrwt beam="2">  1       21 0.67355420E-01 0.26190967E+03</pdfrwt>
<totfact> 0.28438326E+03</totfact>
</mgrwt>
</event>
<event>
 5    0  0.1972558E-002  0.3250571E+03  0.7546771E-02  0.1073345E+00
         21   -1    0    0  501  502  0.00000000000E+00  0.00000000000E+00  0.41887514197E+03  0.41887514197E+03  0.00000000000E+00 0. -1.
         21   -1    0    0  502  503 -0.00000000000E+00 -0.00000000000E+00 -0.33483095827E+03  0.33483095827E+03  0.00000000000E+00 0. -1.
         25    1    1    2    0    0  0.24034355419E+03  0.14475937461E+03 -0.27447606699E+02  0.30838072522E+03  0.12500000000E+03 0.  0.
          2    1    1    2  501    0 -0.26776720133E+03 -0.17956385206E+03 -0.31519563006E+01  0.32241647896E+03  0.00000000000E+00 0. -1.
         -2    1    1    2    0  503  0.27423647148E+02  0.34804477451E+02  0.11464374670E+03  0.12290889606E+03  0.00000000000E+00 0.  1.
<mgrwt>
<rscale>  4 0.32505711E+03</rscale>
<asrwt>0</asrwt>
<pdfrwt beam="1">  1       21 0.64442329E-01 0.32505711E+03</pdfrwt>
<pdfrwt beam="2">  1       21 0.51512455E-01 0.32505711E+03</pdfrwt>
<totfact> 0.73766705E+03</totfact>
</mgrwt>
</event>
<event>
 5    0  0.1972558E-002  0.2717545E+03  0.7546771E-02  0.1100280E+00
         21   -1    0    0  503  502  0.00000000000E+00  0.00000000000E+00  0.19750551045E+03  0.19750551045E+03  0.00000000000E+00 0.  1.
         21   -1    0    0  501  503 -0.00000000000E+00 -0.00000000000E+00 -0.65646808620E+03  0.65646808620E+03  0.00000000000E+00 0.  1.
         25    1    1    2    0    0 -0.16451990035E+03 -0.19617440281E+03 -0.49675922635E+03  0.57266562922E+03  0.12500000000E+03 0.  0.
          3    1    1    2  501    0  0.27482011749E+02  0.43878785520E+02  0.55218339602E+02  0.75694608903E+02  0.00000000000E+00 0. -1.
         -3    1    1    2    0  502  0.13703788860E+03  0.15229561729E+03 -0.17421689008E+02  0.20561335853E+03  0.00000000000E+00 0.  1.
<mgrwt>
<rscale>  4 0.27175447E+03</rscale>
<asrwt>0</asrwt>
<pdfrwt beam="1">  1       21 0.30385463E-01 0.27175447E+03</pdfrwt>
<pdfrwt beam="2">  1       21 0.10099509E+00 0.27175447E+03</pdfrwt>
<totfact> 0.79268473E+03</totfact>
</mgrwt>
</event>
<event>
 5    0  0.1972558E-002  0.2844305E+03  0.7546771E-02  0.1093293E+00
         21   -1    0    0  501  502  0.00000000000E+00  0.00000000000E+00  0.23743354621E+04  0.23743354621E+04  0.00000000000E+00 0. -1.
         21   -1    0    0  502  503 -0.00000000000E+00 -0.00000000000E+00 -0.13827152297E+03  0.13827152297E+03  0.00000000000E+00 0. -1.
         25    1    1    2    0    0 -0.16056791093E+03 -0.20082936633E+03  0.28372275166E+02  0.28730554189E+03  0.12500000000E+03 0.  0.
          2    1    1    2  501    0  0.16305513998E+03  0.17435966789E+03  0.16726272885E+04  0.16895769645E+04  0.00000000000E+00 0. -1.
         -2    1    1    2    0  503 -0.24872290449E+01  0.26469698439E+02  0.53506437542E+03  0.53572447871E+03  0.00000000000E+00 0.  1.
<mgrwt>
<rscale>  4 0.28443050E+03</rscale>
<asrwt>0</asrwt>
<pdfrwt beam="1">  1       21 0.36528235E+00 0.28443050E+03</pdfrwt>
<pdfrwt beam="2">  1       21 0.21272544E-01 0.28443050E+03</pdfrwt>
<totfact> 0.25791068E+02</totfact>
</mgrwt>
</event>
<event>
 5    0  0.1972558E-002  0.2602843E+03  0.7546771E-02  0.1106973E+00
         21   -1    0    0  501  502  0.00000000000E+00  0.00000000000E+00  0.32286554109E+02  0.32286554109E+02  0.00000000000E+00 0.  1.
         21   -1    0    0  502  503 -0.00000000000E+00 -0.00000000000E+00 -0.22252306663E+04  0.22252306663E+04  0.00000000000E+00 0. -1.
         25    1    1    2    0    0 -0.23517787718E+03 -0.37087052302E+02 -0.13469770083E+04  0.13735560215E+04  0.12500000000E+03 0.  0.
          3    1    1    2  501    0  0.20067342176E+02 -0.24209940641E+02 -0.13626950530E+03  0.13985062575E+03  0.00000000000E+00 0. -1.
         -3    1    1    2    0  503  0.21511053501E+03  0.61296992944E+02 -0.70969759862E+03  0.74411057317E+03  0.00000000000E+00 0.  1.
<mgrwt>
<rscale>  4 0.26028428E+03</rscale>
<asrwt>0</asrwt>
<pdfrwt beam="1">  1       21 0.49671627E-02 0.26028428E+03</pdfrwt>
<pdfrwt beam="2">  1       21 0.34234314E+00 0.26028428E+03</pdfrwt>
<totfact> 0.49049924E+03</totfact>
</mgrwt>
</event>
<event>
 5    0  0.1972558E-002  0.2869027E+03  0.7546771E-02  0.1091977E+00
         21   -1    0    0  501  502  0.00000000000E+00  0.00000000000E+00  0.50006510038E+03  0.50006510038E+03  0.00000000000E+00 0.  1.
         21   -1    0    0  502  503 -0.00000000000E+00 -0.00000000000E+00 -0.10895549978E+04  0.10895549978E+04  0.00000000000E+00 0.  1.
         25    1    1    2    0    0  0.65437709393E+02  0.24936124060E+03 -0.10144705296E+04  0.10541530143E+04  0.12500000000E+03 0.  0.
          2    1    1    2  501    0  0.53452261003E+02 -0.46576952380E+01  0.66778639144E+02  0.85663440143E+02  0.00000000000E+00 0. -1.
         -2    1    1    2    0  503 -0.11888997040E+03 -0.24470354536E+03  0.35820199300E+03  0.44980364378E+03  0.00000000000E+00 0.  1.
<mgrwt>
<rscale>  4 0.28690272E+03</rscale>
<asrwt>0</asrwt>
<pdfrwt beam="1">  1       21 0.76933092E-01 0.28690272E+03</pdfrwt>
<pdfrwt beam="2">  1       21 0.16762385E+00 0.28690272E+03</pdfrwt>
<totfact> 0.30289547E+02</totfact>
</mgrwt>
</event>
<event>
 5    0  0.1972558E-002  0.2418168E+03  0.7546771E-02  0.1118588E+00
         21   -1    0    0  501  502  0.00000000000E+00  0.00000000000E+00  0.90756056627E+03  0.90756056627E+03  0.00000000000E+00 0. -1.
         21   -1    0    0  502  503 -0.00000000000E+00 -0.00000000000E+00 -0.82024975826E+03  0.82024975826E+03  0.00000000000E+00 0. -1.
         25    1    1    2    0    0 -0.13863309794E+03 -0.15372458223E+03 -0.78833676721E+03  0.82459095408E+03  0.12500000000E+03 0.  0.
          1    1    1    2  501    0  0.86434573809E+02  0.38252412193E+02  0.35424423386E+03  0.36663764102E+03  0.00000000000E+00 0.  1.
         -1    1    1    2    0  503  0.52198524130E+02  0.11547217004E+03  0.52140334136E+03  0.53658172942E+03  0.00000000000E+00 0. -1.
<mgrwt>
<rscale>  4 0.24181684E+03</rscale>
<asrwt>0</asrwt>
<pdfrwt beam="1">  1       21 0.13962470E+00 0.24181684E+03</pdfrwt>
<pdfrwt beam="2">  1       21 0.12619227E+00 0.24181684E+03</pdfrwt>
<totfact> 0.15836319E+02</totfact>
</mgrwt>
</event>
<event>
 5    0  0.1972558E-002  0.2627666E+03  0.7546771E-02  0.1105492E+00
         21   -1    0    0  501  502  0.00000000000E+00  0.00000000000E+00  0.80860829793E+03  0.80860829793E+03  0.00000000000E+00 0.  1.
         21   -1    0    0  502  503 -0.00000000000E+00 -0.00000000000E+00 -0.24409234109E+03  0.24409234109E+03  0.00000000000E+00 0. -1.
         25    1    1    2    0    0 -0.88612713617E+02  0.21376442269E+03 -0.13399969521E+03  0.29517513401E+03  0.12500000000E+03 0.  0.
          3    1    1    2  501    0  0.34127679619E+02  0.11667086916E+02  0.25007186480E+03  0.25265936950E+03  0.00000000000E+00 0.  1.
         -3    1    1    2    0  503  0.54485033998E+02 -0.22543150960E+03  0.44844378725E+03  0.50486613550E+03  0.00000000000E+00 0. -1.
<mgrwt>
<rscale>  4 0.26276665E+03</rscale>
<asrwt>0</asrwt>
<pdfrwt beam="1">  1       21 0.12440128E+00 0.26276665E+03</pdfrwt>
<pdfrwt beam="2">  1       21 0.37552668E-01 0.26276665E+03</pdfrwt>
<totfact> 0.31304048E+03</totfact>
</mgrwt>
</event>
<event>
 5    0  0.1972558E-002  0.3106601E+03  0.7546771E-02  0.1080030E+00
         21   -1    0    0  501  502  0.00000000000E+00  0.00000000000E+00  0.36715742432E+03  0.36715742432E+03  0.00000000000E+00 0. -1.
         21   -1    0    0  502  503 -0.00000000000E+00 -0.00000000000E+00 -0.58907996370E+03  0.58907996370E+03  0.00000000000E+00 0.  1.
         25    1    1    2    0    0  0.21958821483E+03  0.18997246948E+03 -0.39898005732E+03  0.50903694305E+03  0.12500000000E+03 0.  0.
          1    1    1    2  501    0 -0.28432398784E+02  0.92945986664E+00  0.17473421420E+03  0.17703477287E+03  0.00000000000E+00 0.  1.
         -1    1    1    2    0  503 -0.19115581604E+03 -0.19090192935E+03  0.23233037505E+01  0.27016567209E+03  0.00000000000E+00 0. -1.
<mgrwt>
<rscale>  4 0.31066009E+03</rscale>
<asrwt>0</asrwt>
<pdfrwt beam="1">  1       21 0.56485758E-01 0.31066009E+03</pdfrwt>
<pdfrwt beam="2">  1       21 0.90627687E-01 0.31066009E+03</pdfrwt>
<totfact> 0.28117347E+03</totfact>
</mgrwt>
</event>
<event>
 5    0  0.1972558E-002  0.2524676E+03  0.7546771E-02  0.1111755E+00
         21   -1    0    0  501  502  0.00000000000E+00  0.00000000000E+00  0.33263192306E+03  0.33263192306E+03  0.00000000000E+00 0. -1.
         21   -1    0    0  502  503 -0.00000000000E+00 -0.00000000000E+00 -0.34487539935E+03  0.34487539935E+03  0.00000000000E+00 0.  1.
         25    1    1    2    0    0 -0.12116140532E+03 -0.18333473047E+03 -0.22100193396E+03  0.33579542039E+03  0.12500000000E+03 0.  0.
          3    1    1    2  501    0 -0.29139140652E+02  0.22209516684E+02  0.76243528200E+02  0.84589761447E+02  0.00000000000E+00 0.  1.
         -3    1    1    2    0  503  0.15030054597E+03  0.16112521379E+03  0.13251492948E+03  0.25712214058E+03  0.00000000000E+00 0. -1.
<mgrwt>
<rscale>  4 0.25246760E+03</rscale>
<asrwt>0</asrwt>
<pdfrwt beam="1">  1       21 0.51174142E-01 0.25246760E+03</pdfrwt>
<pdfrwt beam="2">  1       21 0.53057753E-01 0.25246760E+03</pdfrwt>
<totfact> 0.11784029E+04</totfact>
</mgrwt>
</event>
<event>
 5    0  0.1972558E-002  0.2664698E+03  0.7546771E-02  0.1103317E+00
         21   -1    0    0  501  502  0.00000000000E+00  0.00000000000E+00  0.54242950819E+03  0.54242950819E+03  0.00000000000E+00 0.  1.
         21   -1    0    0  502  503 -0.00000000000E+00 -0.00000000000E+00 -0.66601432811E+03  0.66601432811E+03  0.00000000000E+00 0. -1.
         25    1    1    2    0    0  0.64424146093E+02  0.23460468571E+03 -0.54740292017E+03  0.61193527939E+03  0.12500000000E+03 0.  0.
          2    1    1    2  501    0 -0.52757638627E+02 -0.19809126662E+03  0.37628493451E+02  0.20842126058E+03  0.00000000000E+00 0. -1.
         -2    1    1    2    0  503 -0.11666507467E+02 -0.36513419092E+02  0.38618960680E+03  0.38808729633E+03  0.00000000000E+00 0.  1.
<mgrwt>
<rscale>  4 0.26646983E+03</rscale>
<asrwt>0</asrwt>
<pdfrwt beam="1">  1       21 0.83450694E-01 0.26646983E+03</pdfrwt>
<pdfrwt beam="2">  1       21 0.10246374E+00 0.26646983E+03</pdfrwt>
<totfact> 0.90730160E+02</totfact>
</mgrwt>
</event>
<event>
 5    0  0.1972558E-002  0.3053547E+03  0.7546771E-02  0.1082594E+00
         21   -1    0    0  501  502  0.00000000000E+00  0.00000000000E+00  0.37610010411E+03  0.37610010411E+03  0.00000000000E+00 0.  1.
         21   -1    0    0  502  503 -0.00000000000E+00 -0.00000000000E+00 -0.11494280344E+04  0.11494280344E+04  0.00000000000E+00 0.  1.
         25    1    1    2    0    0 -0.12567661641E+01  0.32311901065E+03 -0.39283567267E+03  0.52378654071E+03  0.12500000000E+03 0.  0.
          2    1    1    2  501    0 -0.89643712724E+02 -0.25053800909E+03 -0.65316863886E+03  0.70529040828E+03  0.00000000000E+00 0.  1.
         -2    1    1    2    0  503  0.90900478888E+02 -0.72581001559E+02  0.27267638126E+03  0.29645118949E+03  0.00000000000E+00 0. -1.
<mgrwt>
<rscale>  4 0.30535466E+03</rscale>
<asrwt>0</asrwt>
<pdfrwt beam="1">  1       21 0.57861555E-01 0.30535466E+03</pdfrwt>
<pdfrwt beam="2">  1       21 0.17683508E+00 0.30535466E+03</pdfrwt>
<totfact> 0.48221719E+02</totfact>
</mgrwt>
</event>
<event>
 5    0  0.1972558E-002  0.2441419E+03  0.7546771E-02  0.1117064E+00
         21   -1    0    0  503  502  0.00000000000E+00  0.00000000000E+00  0.16702738836E+04  0.16702738836E+04  0.00000000000E+00 0.  1.
         21   -1    0    0  501  503 -0.00000000000E+00 -0.00000000000E+00 -0.17432856921E+03  0.17432856921E+03  0.00000000000E+00 0. -1.
         25    1    1    2    0    0 -0.17406646624E+03  0.12661573485E+03 -0.59339969498E+02  0.25588456570E+03  0.12500000000E+03 0.  0.
          2    1    1    2  501    0  0.11762800555E+03  0.58002456864E+02  0.63417926785E+03  0.64759862297E+03  0.00000000000E+00 0. -1.
         -2    1    1    2    0  502  0.56438460683E+02 -0.18461819172E+03  0.92110601607E+03  0.94111926417E+03  0.00000000000E+00 0.  1.
<mgrwt>
<rscale>  4 0.24414192E+03</rscale>
<asrwt>0</asrwt>
<pdfrwt beam="1">  1       21 0.25696520E+00 0.24414192E+03</pdfrwt>
<pdfrwt beam="2">  1       21 0.26819781E-01 0.24414192E+03</pdfrwt>
<totfact> 0.75520813E+02</totfact>
</mgrwt>
</event>
<event>
 5    0  0.1972558E-002  0.2834272E+03  0.7546771E-02  0.1093832E+00
         21   -1    0    0  501  502  0.00000000000E+00  0.00000000000E+00  0.10834321151E+03  0.10834321151E+03  0.00000000000E+00 0.  1.
         21   -1    0    0  502  503 -0.00000000000E+00 -0.00000000000E+00 -0.72071741449E+03  0.72071741449E+03  0.00000000000E+00 0. -1.
         25    1    1    2    0    0  0.61524916161E+02 -0.24682116081E+03 -0.36481509455E+03  0.46197516594E+03  0.12500000000E+03 0.  0.
          2    1    1    2  501    0 -0.10092219364E+00  0.17879960116E+03 -0.17501222102E+03  0.25019709244E+03  0.00000000000E+00 0.  1.
         -2    1    1    2    0  503 -0.61423993967E+02  0.68021559655E+02 -0.72546887402E+02  0.11688836762E+03  0.00000000000E+00 0. -1.
<mgrwt>
<rscale>  4 0.28342724E+03</rscale>
<asrwt>0</asrwt>
<pdfrwt beam="1">  1       21 0.16668187E-01 0.28342724E+03</pdfrwt>
<pdfrwt beam="2">  1       21 0.11087960E+00 0.28342724E+03</pdfrwt>
<totfact> 0.19739470E+04</totfact>
</mgrwt>
</event>
<event>
 5    0  0.1972558E-002  0.2864096E+03  0.7546771E-02  0.1092239E+00
         21   -1    0    0  503  502  0.00000000000E+00  0.00000000000E+00  0.13920882269E+04  0.13920882269E+04  0.00000000000E+00 0. -1.
         21   -1    0    0  501  503 -0.00000000000E+00 -0.00000000000E+00 -0.72193374029E+02  0.72193374029E+02  0.00000000000E+00 0.  1.
         25    1    1    2    0    0  0.21193807938E+03 -0.56274064045E+02  0.35934000248E+03  0.43912954485E+03  0.12500000000E+03 0.  0.
          4    1    1    2  501    0  0.52353566249E+02 -0.31157459834E+02  0.73635104667E+02  0.95570978030E+02  0.00000000000E+00 0.  1.
         -4    1    1    2    0  502 -0.26429164563E+03  0.87431523879E+02  0.88691974576E+03  0.92958107808E+03  0.00000000000E+00 0. -1.
<mgrwt>
<rscale>  4 0.28640964E+03</rscale>
<asrwt>0</asrwt>
<pdfrwt beam="1">  1       21 0.21416740E+00 0.28640964E+03</pdfrwt>
<pdfrwt beam="2">  1       21 0.11106674E-01 0.28640964E+03</pdfrwt>
<totfact> 0.68559314E+03</totfact>
</mgrwt>
</event>
<event>
 5    0  0.1972558E-002  0.3649865E+03  0.7546771E-02  0.1056627E+00
         21   -1    0    0  503  502  0.00000000000E+00  0.00000000000E+00  0.35629407115E+03  0.35629407115E+03  0.00000000000E+00 0. -1.
         21   -1    0    0  501  503 -0.00000000000E+00 -0.00000000000E+00 -0.80647908171E+03  0.80647908171E+03  0.00000000000E+00 0. -1.
         25    1    1    2    0    0  0.40220793835E+03  0.19081364074E+03 -0.37441128737E+03  0.59497048941E+03  0.12500000000E+03 0.  0.
          1    1    1    2  501    0 -0.25705596772E+03 -0.10876282294E+03 -0.21360323127E+03  0.35147327438E+03  0.00000000000E+00 0.  1.
         -1    1    1    2    0  502 -0.14515197062E+03 -0.82050817802E+02  0.13782950808E+03  0.21632938907E+03  0.00000000000E+00 0. -1.
<mgrwt>
<rscale>  4 0.36498648E+03</rscale>
<asrwt>0</asrwt>
<pdfrwt beam="1">  1       21 0.54814473E-01 0.36498648E+03</pdfrwt>
<pdfrwt beam="2">  1       21 0.12407370E+00 0.36498648E+03</pdfrwt>
<totfact> 0.13531225E+03</totfact>
</mgrwt>
</event>
<event>
 5    0  0.1972558E-002  0.2176485E+03  0.7546771E-02  0.1135648E+00
         21   -1    0    0  503  502  0.00000000000E+00  0.00000000000E+00  0.12644199288E+03  0.12644199288E+03  0.00000000000E+00 0. -1.
         21   -1    0    0  501  503 -0.00000000000E+00 -0.00000000000E+00 -0.14285237242E+04  0.14285237242E+04  0.00000000000E+00 0. -1.
         25    1    1    2    0    0 -0.18190606227E+03 -0.87302302543E+02 -0.12775709761E+04  0.12994322246E+04  0.12500000000E+03 0.  0.
          2    1    1    2  501    0  0.76544613644E+02  0.88569885357E+02 -0.74654301467E+02  0.13884151828E+03  0.00000000000E+00 0. -1.
         -2    1    1    2    0  502  0.10536144863E+03 -0.12675828142E+01  0.50143546165E+02  0.11669197421E+03  0.00000000000E+00 0.  1.
<mgrwt>
<rscale>  4 0.21764854E+03</rscale>
<asrwt>0</asrwt>
<pdfrwt beam="1">  1       21 0.19452614E-01 0.21764854E+03</pdfrwt>
<pdfrwt beam="2">  1       21 0.21977289E+00 0.21764854E+03</pdfrwt>
<totfact> 0.23919947E+03</totfact>
</mgrwt>
</event>
<event>
 5    0  0.1972558E-002  0.2902525E+03  0.7546771E-02  0.1090217E+00
         21   -1    0    0  501  502  0.00000000000E+00  0.00000000000E+00  0.40988366878E+03  0.40988366878E+03  0.00000000000E+00 0. -1.
         21   -1    0    0  502  503 -0.00000000000E+00 -0.00000000000E+00 -0.55241599777E+03  0.55241599777E+03  0.00000000000E+00 0.  1.
         25    1    1    2    0    0 -0.24072667077E+03 -0.13717915913E+03 -0.30701258506E+03  0.43202914150E+03  0.12500000000E+03 0.  0.
          3    1    1    2  501    0  0.51717886241E+01  0.67915401313E+02  0.25852613305E+03  0.26734810754E+03  0.00000000000E+00 0. -1.
         -3    1    1    2    0  503  0.23555488214E+03  0.69263757822E+02 -0.94045876990E+02  0.26292241751E+03  0.00000000000E+00 0.  1.
<mgrwt>
<rscale>  4 0.29025255E+03</rscale>
<asrwt>0</asrwt>
<pdfrwt beam="1">  1       21 0.63059026E-01 0.29025255E+03</pdfrwt>
<pdfrwt beam="2">  1       21 0.84987076E-01 0.29025255E+03</pdfrwt>
<totfact> 0.26016908E+03</totfact>
</mgrwt>
</event>
<event>
 5    0  0.1972558E-002  0.3799216E+03  0.7546771E-02  0.1050963E+00
         21   -1    0    0  501  502  0.00000000000E+00  0.00000000000E+00  0.74159407454E+03  0.74159407454E+03  0.00000000000E+00 0. -1.
         21   -1    0    0  502  503 -0.00000000000E+00 -0.00000000000E+00 -0.46497455268E+03  0.46497455268E+03  0.00000000000E+00 0. -1.
         25    1    1    2    0    0 -0.19298683757E+03 -0.29458918989E+03  0.28392740315E+03  0.46932555922E+03  0.12500000000E+03 0.  0.
          3    1    1    2  501    0  0.18542506837E+02 -0.20878700632E+02  0.27683233325E+03  0.27823710291E+03  0.00000000000E+00 0.  1.
         -3    1    1    2    0  503  0.17444433073E+03  0.31546789052E+03 -0.28414021454E+03  0.45900596510E+03  0.00000000000E+00 0. -1.
<mgrwt>
<rscale>  4 0.37992161E+03</rscale>
<asrwt>0</asrwt>
<pdfrwt beam="1">  1       21 0.11409140E+00 0.37992161E+03</pdfrwt>
<pdfrwt beam="2">  1       21 0.71534547E-01 0.37992161E+03</pdfrwt>
<totfact> 0.92380621E+02</totfact>
</mgrwt>
</event>
<event>
 5    0  0.1972558E-002  0.2431805E+03  0.7546771E-02  0.1117692E+00
         21   -1    0    0  503  502  0.00000000000E+00  0.00000000000E+00  0.10832097553E+04  0.10832097553E+04  0.00000000000E+00 0.  1.
         21   -1    0    0  501  503 -0.00000000000E+00 -0.00000000000E+00 -0.49543887763E+03  0.49543887763E+03  0.00000000000E+00 0. -1.
         25    1    1    2    0    0  0.12225442073E+03  0.17386859338E+03 -0.43398440839E+03  0.49914316371E+03  0.12500000000E+03 0.  0.
          1    1    1    2  501    0  0.33563751416E+02 -0.14588720017E+03  0.24765608827E+03  0.28938406770E+03  0.00000000000E+00 0. -1.
         -1    1    1    2    0  502 -0.15581817214E+03 -0.27981393209E+02  0.77409919781E+03  0.79012140155E+03  0.00000000000E+00 0.  1.
<mgrwt>
<rscale>  4 0.24318048E+03</rscale>
<asrwt>0</asrwt>
<pdfrwt beam="1">  1       21 0.16664765E+00 0.24318048E+03</pdfrwt>
<pdfrwt beam="2">  1       21 0.76221366E-01 0.24318048E+03</pdfrwt>
<totfact> 0.32691714E+02</totfact>
</mgrwt>
</event>
<event>
 5    0  0.1972558E-002  0.2459683E+03  0.7546771E-02  0.1115880E+00
         21   -1    0    0  503  502  0.00000000000E+00  0.00000000000E+00  0.46959911484E+03  0.46959911484E+03  0.00000000000E+00 0. -1.
         21   -1    0    0  501  503 -0.00000000000E+00 -0.00000000000E+00 -0.14479763964E+03  0.14479763964E+03  0.00000000000E+00 0. -1.
         25    1    1    2    0    0 -0.12982684849E+03 -0.16739294222E+03  0.41218191937E+02  0.24939796920E+03  0.12500000000E+03 0.  0.
          4    1    1    2  501    0  0.30764500021E+02  0.60481614973E+02  0.16040870978E+03  0.17417070473E+03  0.00000000000E+00 0.  1.
         -4    1    1    2    0  502  0.99062348466E+02  0.10691132725E+03  0.12317457348E+03  0.19082808056E+03  0.00000000000E+00 0. -1.
<mgrwt>
<rscale>  4 0.24596831E+03</rscale>
<asrwt>0</asrwt>
<pdfrwt beam="1">  1       21 0.72246017E-01 0.24596831E+03</pdfrwt>
<pdfrwt beam="2">  1       21 0.22276560E-01 0.24596831E+03</pdfrwt>
<totfact> 0.31713201E+04</totfact>
</mgrwt>
</event>
<event>
 5    0  0.1972558E-002  0.2557632E+03  0.7546771E-02  0.1109716E+00
         21   -1    0    0  501  502  0.00000000000E+00  0.00000000000E+00  0.15745066132E+03  0.15745066132E+03  0.00000000000E+00 0.  1.
         21   -1    0    0  502  503 -0.00000000000E+00 -0.00000000000E+00 -0.63780871772E+03  0.63780871772E+03  0.00000000000E+00 0.  1.
         25    1    1    2    0    0 -0.16400934865E+03 -0.18691421333E+03 -0.44992972908E+03  0.52905363689E+03  0.12500000000E+03 0.  0.
          2    1    1    2  501    0  0.12879037117E+03  0.17545701264E+03  0.96711289196E+00  0.21765352811E+03  0.00000000000E+00 0.  1.
         -2    1    1    2    0  503  0.35218977478E+02  0.11457200691E+02 -0.31395440209E+02  0.48552214041E+02  0.00000000000E+00 0. -1.
<mgrwt>
<rscale>  4 0.25576322E+03</rscale>
<asrwt>0</asrwt>
<pdfrwt beam="1">  1       21 0.24223179E-01 0.25576322E+03</pdfrwt>
<pdfrwt beam="2">  1       21 0.98124416E-01 0.25576322E+03</pdfrwt>
<totfact> 0.13298430E+04</totfact>
</mgrwt>
</event>
<event>
 5    0  0.1972558E-002  0.2494688E+03  0.7546771E-02  0.1113641E+00
         21   -1    0    0  501  502  0.00000000000E+00  0.00000000000E+00  0.10141603400E+04  0.10141603400E+04  0.00000000000E+00 0.  1.
         21   -1    0    0  502  503 -0.00000000000E+00 -0.00000000000E+00 -0.26184998398E+03  0.26184998398E+03  0.00000000000E+00 0. -1.
         25    1    1    2    0    0  0.76679814016E+02 -0.21827810298E+03 -0.89919370517E+02  0.27791296716E+03  0.12500000000E+03 0.  0.
          3    1    1    2  501    0  0.19922522444E+02  0.20397307615E+03  0.65359649719E+02  0.21511347356E+03  0.00000000000E+00 0. -1.
         -3    1    1    2    0  503 -0.96602336460E+02  0.14305026833E+02  0.77687007682E+03  0.78298388327E+03  0.00000000000E+00 0.  1.
<mgrwt>
<rscale>  4 0.24946877E+03</rscale>
<asrwt>0</asrwt>
<pdfrwt beam="1">  1       21 0.15602467E+00 0.24946877E+03</pdfrwt>
<pdfrwt beam="2">  1       21 0.40284613E-01 0.24946877E+03</pdfrwt>
<totfact> 0.15198013E+03</totfact>
</mgrwt>
</event>
<event>
 5    0  0.1972558E-002  0.2618495E+03  0.7546771E-02  0.1106037E+00
         21   -1    0    0  501  502  0.00000000000E+00  0.00000000000E+00  0.10017365960E+04  0.10017365960E+04  0.00000000000E+00 0. -1.
         21   -1    0    0  502  503 -0.00000000000E+00 -0.00000000000E+00 -0.23828631439E+03  0.23828631439E+03  0.00000000000E+00 0.  1.
         25    1    1    2    0    0  0.26632536006E+02 -0.21046406285E+03  0.34512950515E+02  0.24863740161E+03  0.12500000000E+03 0.  0.
          2    1    1    2  501    0 -0.36518567744E+02  0.24186301123E+03 -0.16557567807E+02  0.24516417978E+03  0.00000000000E+00 0.  1.
         -2    1    1    2    0  503  0.98860317380E+01 -0.31398948388E+02  0.74549489887E+03  0.74622132898E+03  0.00000000000E+00 0. -1.
<mgrwt>
<rscale>  4 0.26184953E+03</rscale>
<asrwt>0</asrwt>
<pdfrwt beam="1">  1       21 0.15411332E+00 0.26184953E+03</pdfrwt>
<pdfrwt beam="2">  1       21 0.36659434E-01 0.26184953E+03</pdfrwt>
<totfact> 0.18835967E+03</totfact>
</mgrwt>
</event>
<event>
 5    0  0.1972558E-002  0.2618666E+03  0.7546771E-02  0.1106027E+00
         21   -1    0    0  501  502  0.00000000000E+00  0.00000000000E+00  0.43237820256E+03  0.43237820256E+03  0.00000000000E+00 0.  1.
         21   -1    0    0  502  503 -0.00000000000E+00 -0.00000000000E+00 -0.49144947492E+03  0.49144947492E+03  0.00000000000E+00 0.  1.
         25    1    1    2    0    0  0.22760054870E+03 -0.38297909337E+02 -0.24695488445E+03  0.36038930975E+03  0.12500000000E+03 0.  0.
          4    1    1    2  501    0 -0.54965037173E+01 -0.20650318896E+02  0.30484384222E+03  0.30559190984E+03  0.00000000000E+00 0.  1.
         -4    1    1    2    0  503 -0.22210404499E+03  0.58948228233E+02 -0.11696023014E+03  0.25784645789E+03  0.00000000000E+00 0. -1.
<mgrwt>
<rscale>  4 0.26186659E+03</rscale>
<asrwt>0</asrwt>
<pdfrwt beam="1">  1       21 0.66519724E-01 0.26186659E+03</pdfrwt>
<pdfrwt beam="2">  1       21 0.75607611E-01 0.26186659E+03</pdfrwt>
<totfact> 0.30745650E+03</totfact>
</mgrwt>
</event>
<event>
 5    0  0.1972558E-002  0.3230790E+03  0.7546771E-02  0.1074241E+00
         21   -1    0    0  501  502  0.00000000000E+00  0.00000000000E+00  0.21130471806E+03  0.21130471806E+03  0.00000000000E+00 0. -1.
         21   -1    0    0  502  503 -0.00000000000E+00 -0.00000000000E+00 -0.64203937051E+03  0.64203937051E+03  0.00000000000E+00 0. -1.
         25    1    1    2    0    0  0.17783001672E+03  0.24850350904E+03 -0.28693306915E+03  0.43741638632E+03  0.12500000000E+03 0.  0.
          4    1    1    2  501    0 -0.15799398059E+03 -0.24361198807E+03 -0.20235270840E+03  0.35391456205E+03  0.00000000000E+00 0. -1.
         -4    1    1    2    0  503 -0.19836036128E+02 -0.48915209789E+01  0.58551125100E+02  0.62013140198E+02  0.00000000000E+00 0.  1.
<mgrwt>
<rscale>  4 0.32307901E+03</rscale>
<asrwt>0</asrwt>
<pdfrwt beam="1">  1       21 0.32508419E-01 0.32307901E+03</pdfrwt>
<pdfrwt beam="2">  1       21 0.98775286E-01 0.32307901E+03</pdfrwt>
<totfact> 0.71335095E+03</totfact>
</mgrwt>
</event>
<event>
 5    0  0.1972558E-002  0.2369141E+03  0.7546771E-02  0.1121866E+00
         21   -1    0    0  501  502  0.00000000000E+00  0.00000000000E+00  0.13476067492E+03  0.13476067492E+03  0.00000000000E+00 0.  1.
         21   -1    0    0  502  503 -0.00000000000E+00 -0.00000000000E+00 -0.46282299449E+03  0.46282299449E+03  0.00000000000E+00 0. -1.
         25    1    1    2    0    0  0.16698042694E+03  0.12739499721E+03 -0.26899861183E+03  0.36345178698E+03  0.12500000000E+03 0.  0.
          3    1    1    2  501    0 -0.25556134069E+02 -0.10752497606E+01  0.16022062607E+02  0.30182422712E+02  0.00000000000E+00 0. -1.
         -3    1    1    2    0  503 -0.14142429287E+03 -0.12631974745E+03 -0.75085770347E+02  0.20394945972E+03  0.00000000000E+00 0.  1.
<mgrwt>
<rscale>  4 0.23691411E+03</rscale>
<asrwt>0</asrwt>
<pdfrwt beam="1">  1       21 0.20732412E-01 0.23691411E+03</pdfrwt>
<pdfrwt beam="2">  1       21 0.71203537E-01 0.23691411E+03</pdfrwt>
<totfact> 0.37674780E+04</totfact>
</mgrwt>
</event>
<event>
 5    0  0.1972558E-002  0.2408296E+03  0.7546771E-02  0.1119241E+00
         21   -1    0    0  503  502  0.00000000000E+00  0.00000000000E+00  0.82931425013E+02  0.82931425013E+02  0.00000000000E+00 0.  1.
         21   -1    0    0  501  503 -0.00000000000E+00 -0.00000000000E+00 -0.28467617684E+04  0.28467617684E+04  0.00000000000E+00 0.  1.
         25    1    1    2    0    0  0.18780427122E+03  0.10833972646E+03 -0.14458118353E+04  0.14673121017E+04  0.12500000000E+03 0.  0.
          4    1    1    2  501    0 -0.28500209252E+02  0.20673558497E+02 -0.12439027060E+04  0.12444009000E+04  0.00000000000E+00 0. -1.
         -4    1    1    2    0  502 -0.15930406197E+03 -0.12901328496E+03 -0.74115802046E+02  0.21798019169E+03  0.00000000000E+00 0.  1.
<mgrwt>
<rscale>  4 0.24082959E+03</rscale>
<asrwt>0</asrwt>
<pdfrwt beam="1">  1       21 0.12758682E-01 0.24082959E+03</pdfrwt>
<pdfrwt beam="2">  1       21 0.43796331E+00 0.24082959E+03</pdfrwt>
<totfact> 0.24340605E+02</totfact>
</mgrwt>
</event>
<event>
 5    0  0.1972558E-002  0.2749777E+03  0.7546771E-02  0.1098464E+00
         21   -1    0    0  501  502  0.00000000000E+00  0.00000000000E+00  0.75888265339E+03  0.75888265339E+03  0.00000000000E+00 0. -1.
         21   -1    0    0  502  503 -0.00000000000E+00 -0.00000000000E+00 -0.56782083654E+03  0.56782083654E+03  0.00000000000E+00 0.  1.
         25    1    1    2    0    0  0.17264419487E+03 -0.21975887725E+03 -0.40717624357E+03  0.50942857741E+03  0.12500000000E+03 0.  0.
          4    1    1    2  501    0 -0.19856450959E+03  0.49642681672E+02  0.10589591766E+02  0.20494974937E+03  0.00000000000E+00 0.  1.
         -4    1    1    2    0  503  0.25920314723E+02  0.17011619557E+03  0.58764846866E+03  0.61232516315E+03  0.00000000000E+00 0. -1.
<mgrwt>
<rscale>  4 0.27497768E+03</rscale>
<asrwt>0</asrwt>
<pdfrwt beam="1">  1       21 0.11675118E+00 0.27497768E+03</pdfrwt>
<pdfrwt beam="2">  1       21 0.87357052E-01 0.27497768E+03</pdfrwt>
<totfact> 0.58954128E+02</totfact>
</mgrwt>
</event>
<event>
 5    0  0.1972558E-002  0.2329576E+03  0.7546771E-02  0.1124575E+00
         21   -1    0    0  501  502  0.00000000000E+00  0.00000000000E+00  0.12416647910E+04  0.12416647910E+04  0.00000000000E+00 0. -1.
         21   -1    0    0  502  503 -0.00000000000E+00 -0.00000000000E+00 -0.14031025974E+03  0.14031025974E+03  0.00000000000E+00 0. -1.
         25    1    1    2    0    0  0.73952277447E+02 -0.18693771864E+03  0.47170814552E+02  0.24138089347E+03  0.12500000000E+03 0.  0.
          2    1    1    2  501    0 -0.50423827275E+02  0.18396447552E+03  0.16826832898E+03  0.25436139870E+03  0.00000000000E+00 0.  1.
         -2    1    1    2    0  503 -0.23528450172E+02  0.29732431183E+01  0.88591538776E+03  0.88623275860E+03  0.00000000000E+00 0. -1.
<mgrwt>
<rscale>  4 0.23295765E+03</rscale>
<asrwt>0</asrwt>
<pdfrwt beam="1">  1       21 0.19102535E+00 0.23295765E+03</pdfrwt>
<pdfrwt beam="2">  1       21 0.21586195E-01 0.23295765E+03</pdfrwt>
<totfact> 0.29618623E+03</totfact>
</mgrwt>
</event>
<event>
 5    0  0.1972558E-002  0.2654479E+03  0.7546771E-02  0.1103914E+00
         21   -1    0    0  501  502  0.00000000000E+00  0.00000000000E+00  0.18173027810E+03  0.18173027810E+03  0.00000000000E+00 0. -1.
         21   -1    0    0  502  503 -0.00000000000E+00 -0.00000000000E+00 -0.71531179256E+03  0.71531179256E+03  0.00000000000E+00 0. -1.
         25    1    1    2    0    0  0.56228525730E+02 -0.19488890959E+03 -0.46773216162E+03  0.52492066943E+03  0.12500000000E+03 0.  0.
          3    1    1    2  501    0 -0.13662685163E+03  0.20060963073E+03  0.32589160126E+02  0.24489420958E+03  0.00000000000E+00 0. -1.
         -3    1    1    2    0  503  0.80398325903E+02 -0.57207211368E+01 -0.98438512965E+02  0.12722719164E+03  0.00000000000E+00 0.  1.
<mgrwt>
<rscale>  4 0.26544790E+03</rscale>
<asrwt>0</asrwt>
<pdfrwt beam="1">  1       21 0.27958505E-01 0.26544790E+03</pdfrwt>
<pdfrwt beam="2">  1       21 0.11004797E+00 0.26544790E+03</pdfrwt>
<totfact> 0.76018243E+03</totfact>
</mgrwt>
</event>
<event>
 5    0  0.1972558E-002  0.2193746E+03  0.7546771E-02  0.1134350E+00
         21   -1    0    0  501  502  0.00000000000E+00  0.00000000000E+00  0.27745251055E+03  0.27745251055E+03  0.00000000000E+00 0.  1.
         21   -1    0    0  502  503 -0.00000000000E+00 -0.00000000000E+00 -0.33566629223E+03  0.33566629223E+03  0.00000000000E+00 0.  1.
         25    1    1    2    0    0 -0.42645649337E+02 -0.21507333396E+03 -0.17514689746E+03  0.30720778975E+03  0.12500000000E+03 0.  0.
          1    1    1    2  501    0  0.26100777198E+02  0.14183768518E+03 -0.24022323221E+02  0.14620619522E+03  0.00000000000E+00 0. -1.
         -1    1    1    2    0  503  0.16544872139E+02  0.73235648783E+02  0.14095543900E+03  0.15970481781E+03  0.00000000000E+00 0.  1.
<mgrwt>
<rscale>  4 0.21937456E+03</rscale>
<asrwt>0</asrwt>
<pdfrwt beam="1">  1       21 0.42685002E-01 0.21937456E+03</pdfrwt>
<pdfrwt beam="2">  1       21 0.51640968E-01 0.21937456E+03</pdfrwt>
<totfact> 0.18508441E+04</totfact>
</mgrwt>
</event>
<event>
 5    0  0.1972558E-002  0.3049784E+03  0.7546771E-02  0.1082778E+00
         21   -1    0    0  501  502  0.00000000000E+00  0.00000000000E+00  0.14506187584E+03  0.14506187584E+03  0.00000000000E+00 0.  1.
         21   -1    0    0  502  503 -0.00000000000E+00 -0.00000000000E+00 -0.89414992498E+03  0.89414992498E+03  0.00000000000E+00 0. -1.
         25    1    1    2    0    0 -0.14158165915E+03  0.23088484165E+03 -0.54303505548E+03  0.61956859813E+03  0.12500000000E+03 0.  0.
          3    1    1    2  501    0 -0.27569971326E+02  0.70219315817E+01  0.32111401001E+02  0.42901665659E+02  0.00000000000E+00 0. -1.
         -3    1    1    2    0  503  0.16915163048E+03 -0.23790677323E+03 -0.23816439466E+03  0.37674153703E+03  0.00000000000E+00 0.  1.
<mgrwt>
<rscale>  4 0.30497842E+03</rscale>
<asrwt>0</asrwt>
<pdfrwt beam="1">  1       21 0.22317212E-01 0.30497842E+03</pdfrwt>
<pdfrwt beam="2">  1       21 0.13756152E+00 0.30497842E+03</pdfrwt>
<totfact> 0.65481176E+03</totfact>
</mgrwt>
</event>
<event>
 5    0  0.1972558E-002  0.3157707E+03  0.7546771E-02  0.1077612E+00
         21   -1    0    0  501  502  0.00000000000E+00  0.00000000000E+00  0.10403163344E+04  0.10403163344E+04  0.00000000000E+00 0.  1.
         21   -1    0    0  502  503 -0.00000000000E+00 -0.00000000000E+00 -0.63286563090E+03  0.63286563090E+03  0.00000000000E+00 0. -1.
         25    1    1    2    0    0  0.20018802166E+03  0.24629941570E+03 -0.35885301593E+03  0.49511527267E+03  0.12500000000E+03 0.  0.
          4    1    1    2  501    0 -0.51657081001E+02 -0.35704409351E+02  0.89000014202E+03  0.89221270539E+03  0.00000000000E+00 0.  1.
         -4    1    1    2    0  503 -0.14853094066E+03 -0.21059500635E+03 -0.12369642263E+03  0.28585398721E+03  0.00000000000E+00 0. -1.
<mgrwt>
<rscale>  4 0.31577070E+03</rscale>
<asrwt>0</asrwt>
<pdfrwt beam="1">  1       21 0.16004867E+00 0.31577070E+03</pdfrwt>
<pdfrwt beam="2">  1       21 0.97363943E-01 0.31577070E+03</pdfrwt>
<totfact> 0.19459566E+02</totfact>
</mgrwt>
</event>
<event>
 5    0  0.1972558E-002  0.5441662E+03  0.7546771E-02  0.1002853E+00
         21   -1    0    0  501  502  0.00000000000E+00  0.00000000000E+00  0.96415571149E+03  0.96415571149E+03  0.00000000000E+00 0. -1.
         21   -1    0    0  502  503 -0.00000000000E+00 -0.00000000000E+00 -0.92514640786E+03  0.92514640786E+03  0.00000000000E+00 0.  1.
         25    1    1    2    0    0 -0.51308937612E+03 -0.20233942891E+03 -0.12275036277E+03  0.57870078965E+03  0.12500000000E+03 0.  0.
          2    1    1    2  501    0  0.47765433077E+03  0.20146787933E+03 -0.45684752034E+03  0.69097946637E+03  0.00000000000E+00 0.  1.
         -2    1    1    2    0  503  0.35435045351E+02  0.87154957915E+00  0.61860718674E+03  0.61962186334E+03  0.00000000000E+00 0. -1.
<mgrwt>
<rscale>  4 0.54416623E+03</rscale>
<asrwt>0</asrwt>
<pdfrwt beam="1">  1       21 0.14833165E+00 0.54416623E+03</pdfrwt>
<pdfrwt beam="2">  1       21 0.14233022E+00 0.54416623E+03</pdfrwt>
<totfact> 0.80245519E+01</totfact>
</mgrwt>
</event>
<event>
 5    0  0.1972558E-002  0.2542880E+03  0.7546771E-02  0.1110624E+00
         21   -1    0    0  501  502  0.00000000000E+00  0.00000000000E+00  0.22493699884E+03  0.22493699884E+03  0.00000000000E+00 0.  1.
         21   -1    0    0  502  503 -0.00000000000E+00 -0.00000000000E+00 -0.79010963617E+03  0.79010963617E+03  0.00000000000E+00 0.  1.
         25    1    1    2    0    0 -0.17416909204E+02  0.22513940502E+03 -0.62694251437E+03  0.67799190021E+03  0.12500000000E+03 0.  0.
          3    1    1    2  501    0  0.27203038548E+02 -0.20633571497E+03 -0.57498026243E+02  0.21591770562E+03  0.00000000000E+00 0.  1.
         -3    1    1    2    0  503 -0.97861293443E+01 -0.18803690050E+02  0.11926790328E+03  0.12113702919E+03  0.00000000000E+00 0. -1.
<mgrwt>
<rscale>  4 0.25428805E+03</rscale>
<asrwt>0</asrwt>
<pdfrwt beam="1">  1       21 0.34605692E-01 0.25428805E+03</pdfrwt>
<pdfrwt beam="2">  1       21 0.12155533E+00 0.25428805E+03</pdfrwt>
<totfact> 0.39311684E+03</totfact>
</mgrwt>
</event>
<event>
 5    0  0.1972558E-002  0.2770862E+03  0.7546771E-02  0.1097291E+00
         21   -1    0    0  501  502  0.00000000000E+00  0.00000000000E+00  0.84675736347E+02  0.84675736347E+02  0.00000000000E+00 0. -1.
         21   -1    0    0  502  503 -0.00000000000E+00 -0.00000000000E+00 -0.15704120279E+04  0.15704120279E+04  0.00000000000E+00 0.  1.
         25    1    1    2    0    0  0.16270352318E+03  0.18359881970E+03 -0.11315229337E+04  0.11645385836E+04  0.12500000000E+03 0.  0.
          1    1    1    2  501    0 -0.14680004572E+03 -0.20587510041E+03 -0.37767225027E+03  0.45450097802E+03  0.00000000000E+00 0. -1.
         -1    1    1    2    0  503 -0.15903477461E+02  0.22276280711E+02  0.23458892472E+02  0.36048202641E+02  0.00000000000E+00 0.  1.
<mgrwt>
<rscale>  4 0.27708619E+03</rscale>
<asrwt>0</asrwt>
<pdfrwt beam="1">  1       21 0.13027037E-01 0.27708619E+03</pdfrwt>
<pdfrwt beam="2">  1       21 0.24160184E+00 0.27708619E+03</pdfrwt>
<totfact> 0.35014005E+03</totfact>
</mgrwt>
</event>
<event>
 5    0  0.1972558E-002  0.2379562E+03  0.7546771E-02  0.1121162E+00
         21   -1    0    0  501  502  0.00000000000E+00  0.00000000000E+00  0.68793378723E+03  0.68793378723E+03  0.00000000000E+00 0. -1.
         21   -1    0    0  502  503 -0.00000000000E+00 -0.00000000000E+00 -0.15810664231E+03  0.15810664231E+03  0.00000000000E+00 0.  1.
         25    1    1    2    0    0 -0.43887757436E+02  0.27654580665E+03  0.18404567247E+03  0.35763323109E+03  0.12500000000E+03 0.  0.
          1    1    1    2  501    0  0.10912675235E+03 -0.10466568376E+03  0.99235936166E+02  0.18086272270E+03  0.00000000000E+00 0.  1.
         -1    1    1    2    0  503 -0.65238994916E+02 -0.17188012289E+03  0.24654553629E+03  0.30754447575E+03  0.00000000000E+00 0. -1.
<mgrwt>
<rscale>  4 0.23795616E+03</rscale>
<asrwt>0</asrwt>
<pdfrwt beam="1">  1       21 0.10583597E+00 0.23795616E+03</pdfrwt>
<pdfrwt beam="2">  1       21 0.24324099E-01 0.23795616E+03</pdfrwt>
<totfact> 0.11108759E+04</totfact>
</mgrwt>
</event>
<event>
 5    0  0.1972558E-002  0.3370333E+03  0.7546771E-02  0.1068067E+00
         21   -1    0    0  501  502  0.00000000000E+00  0.00000000000E+00  0.37921023764E+03  0.37921023764E+03  0.00000000000E+00 0.  1.
         21   -1    0    0  502  503 -0.00000000000E+00 -0.00000000000E+00 -0.12582702423E+04  0.12582702423E+04  0.00000000000E+00 0. -1.
         25    1    1    2    0    0  0.23142287090E+03  0.18216230706E+03 -0.16195699846E+03  0.35860106057E+03  0.12500000000E+03 0.  0.
          2    1    1    2  501    0  0.42448670878E+01  0.31200998481E+02  0.25457692545E+03  0.25651692376E+03  0.00000000000E+00 0.  1.
         -2    1    1    2    0  503 -0.23566773799E+03 -0.21336330554E+03 -0.97167993164E+03  0.10223624956E+04  0.00000000000E+00 0. -1.
<mgrwt>
<rscale>  4 0.33703328E+03</rscale>
<asrwt>0</asrwt>
<pdfrwt beam="1">  1       21 0.58340037E-01 0.33703328E+03</pdfrwt>
<pdfrwt beam="2">  1       21 0.19358004E+00 0.33703328E+03</pdfrwt>
<totfact> 0.35559905E+02</totfact>
</mgrwt>
</event>
<event>
 5    0  0.1972558E-002  0.2464517E+03  0.7546771E-02  0.1115568E+00
         21   -1    0    0  501  502  0.00000000000E+00  0.00000000000E+00  0.32278589276E+03  0.32278589276E+03  0.00000000000E+00 0. -1.
         21   -1    0    0  502  503 -0.00000000000E+00 -0.00000000000E+00 -0.80531626724E+03  0.80531626724E+03  0.00000000000E+00 0. -1.
         25    1    1    2    0    0  0.91473411217E+01  0.21469871932E+03 -0.73430486452E+03  0.77524695936E+03  0.12500000000E+03 0.  0.
          4    1    1    2  501    0 -0.82957381814E+01 -0.18987449834E+03  0.13413680068E+03  0.23262378573E+03  0.00000000000E+00 0. -1.
         -4    1    1    2    0  503 -0.85160294031E+00 -0.24824220980E+02  0.11763768936E+03  0.12023141492E+03  0.00000000000E+00 0.  1.
<mgrwt>
<rscale>  4 0.24645168E+03</rscale>
<asrwt>0</asrwt>
<pdfrwt beam="1">  1       21 0.49659369E-01 0.24645168E+03</pdfrwt>
<pdfrwt beam="2">  1       21 0.12389481E+00 0.24645168E+03</pdfrwt>
<totfact> 0.18009126E+03</totfact>
</mgrwt>
</event>
<event>
 5    0  0.1972558E-002  0.5868602E+03  0.7546771E-02  0.9933048E-01
         21   -1    0    0  501  502  0.00000000000E+00  0.00000000000E+00  0.45617523558E+03  0.45617523558E+03  0.00000000000E+00 0. -1.
         21   -1    0    0  502  503 -0.00000000000E+00 -0.00000000000E+00 -0.95108594302E+03  0.95108594302E+03  0.00000000000E+00 0. -1.
         25    1    1    2    0    0 -0.46946706867E+03  0.31852515998E+03 -0.27867307743E+03  0.64431458946E+03  0.12500000000E+03 0.  0.
          3    1    1    2  501    0  0.57622515693E+01  0.28891121909E+02  0.99027089217E+02  0.10331633398E+03  0.00000000000E+00 0.  1.
         -3    1    1    2    0  503  0.46370481710E+03 -0.34741628189E+03 -0.31526471923E+03  0.65963025515E+03  0.00000000000E+00 0. -1.
<mgrwt>
<rscale>  4 0.58686015E+03</rscale>
<asrwt>0</asrwt>
<pdfrwt beam="1">  1       21 0.70180807E-01 0.58686015E+03</pdfrwt>
<pdfrwt beam="2">  1       21 0.14632091E+00 0.58686015E+03</pdfrwt>
<totfact> 0.46346987E+02</totfact>
</mgrwt>
</event>
<event>
 5    0  0.1972558E-002  0.2150299E+03  0.7546771E-02  0.1137644E+00
         21   -1    0    0  501  502  0.00000000000E+00  0.00000000000E+00  0.11260105803E+03  0.11260105803E+03  0.00000000000E+00 0.  1.
         21   -1    0    0  502  503 -0.00000000000E+00 -0.00000000000E+00 -0.91551229140E+03  0.91551229140E+03  0.00000000000E+00 0. -1.
         25    1    1    2    0    0 -0.59824716286E+02 -0.19498705036E+03 -0.54758841806E+03  0.59755922057E+03  0.12500000000E+03 0.  0.
          2    1    1    2  501    0  0.65320799256E+02  0.38013108520E+02  0.47609674542E+02  0.89322361952E+02  0.00000000000E+00 0.  1.
         -2    1    1    2    0  503 -0.54960829705E+01  0.15697394184E+03 -0.30293248984E+03  0.34123176691E+03  0.00000000000E+00 0. -1.
<mgrwt>
<rscale>  4 0.21502989E+03</rscale>
<asrwt>0</asrwt>
<pdfrwt beam="1">  1       21 0.17323240E-01 0.21502989E+03</pdfrwt>
<pdfrwt beam="2">  1       21 0.14084805E+00 0.21502989E+03</pdfrwt>
<totfact> 0.10445469E+04</totfact>
</mgrwt>
</event>
<event>
 5    0  0.1972558E-002  0.2336728E+03  0.7546771E-02  0.1124081E+00
         21   -1    0    0  501  502  0.00000000000E+00  0.00000000000E+00  0.32438088473E+03  0.32438088473E+03  0.00000000000E+00 0.  1.
         21   -1    0    0  502  503 -0.00000000000E+00 -0.00000000000E+00 -0.18640661511E+03  0.18640661511E+03  0.00000000000E+00 0. -1.
         25    1    1    2    0    0 -0.36755035054E+02 -0.21124009731E+03  0.21200885499E+02  0.24909393581E+03  0.12500000000E+03 0.  0.
          4    1    1    2  501    0  0.46915960643E+02  0.17616184800E+03  0.55854966706E+02  0.19066693829E+03  0.00000000000E+00 0.  1.
         -4    1    1    2    0  503 -0.10160925589E+02  0.35078249310E+02  0.60918417413E+02  0.71026625737E+02  0.00000000000E+00 0. -1.
<mgrwt>
<rscale>  4 0.23367282E+03</rscale>
<asrwt>0</asrwt>
<pdfrwt beam="1">  1       21 0.49904752E-01 0.23367282E+03</pdfrwt>
<pdfrwt beam="2">  1       21 0.28677941E-01 0.23367282E+03</pdfrwt>
<totfact> 0.43638130E+04</totfact>
</mgrwt>
</event>
<event>
 5    0  0.1972558E-002  0.3603172E+03  0.7546771E-02  0.1065212E+00
         21   -1    0    0  501  502  0.00000000000E+00  0.00000000000E+00  0.54278040106E+03  0.54278040106E+03  0.00000000000E+00 0. -1.
         21   -1    0    0  502  503 -0.00000000000E+00 -0.00000000000E+00 -0.15425958489E+04  0.15425958489E+04  0.00000000000E+00 0. -1.
         25    1    1    2    0    0 -0.17353446102E+03 -0.20818329059E+03 -0.11958777876E+04  0.12325596029E+04  0.12500000000E+03 0.  0.
          4    1    1    2  501    0  0.36547895315E+03 -0.11553675447E+03  0.27054769860E+03  0.46916912094E+03  0.00000000000E+00 0. -1.
         -4    1    1    2    0  503 -0.19194449213E+03  0.32372004506E+03 -0.74485358769E+02  0.38364752613E+03  0.00000000000E+00 0.  1.
<mgrwt>
<rscale>  4 0.34374470E+03</rscale>
<asrwt>0</asrwt>
<pdfrwt beam="1">  1       21 0.83504679E-01 0.36031725E+03</pdfrwt>
<pdfrwt beam="2">  1       21 0.23732243E+00 0.36031725E+03</pdfrwt>
<totfact> 0.82251014E+01</totfact>
</mgrwt>
</event>
<event>
 5    0  0.1972558E-002  0.3044578E+03  0.7546771E-02  0.1083033E+00
         21   -1    0    0  501  502  0.00000000000E+00  0.00000000000E+00  0.27341041765E+03  0.27341041765E+03  0.00000000000E+00 0. -1.
         21   -1    0    0  502  503 -0.00000000000E+00 -0.00000000000E+00 -0.50826044448E+03  0.50826044448E+03  0.00000000000E+00 0. -1.
         25    1    1    2    0    0  0.32793268702E+02  0.28166872994E+03 -0.11703355384E+03  0.33126201808E+03  0.12500000000E+03 0.  0.
          2    1    1    2  501    0 -0.13747874009E+03 -0.13098876820E+02  0.23288131048E+01  0.13812099016E+03  0.00000000000E+00 0.  1.
         -2    1    1    2    0  503  0.10468547139E+03 -0.26856985312E+03 -0.12014528609E+03  0.31228785390E+03  0.00000000000E+00 0. -1.
<mgrwt>
<rscale>  4 0.30445780E+03</rscale>
<asrwt>0</asrwt>
<pdfrwt beam="1">  1       21 0.42063141E-01 0.30445780E+03</pdfrwt>
<pdfrwt beam="2">  1       21 0.78193915E-01 0.30445780E+03</pdfrwt>
<totfact> 0.73732123E+03</totfact>
</mgrwt>
</event>
<event>
 5    0  0.1972558E-002  0.2876298E+03  0.7546771E-02  0.1091593E+00
         21   -1    0    0  501  502  0.00000000000E+00  0.00000000000E+00  0.79055206719E+02  0.79055206719E+02  0.00000000000E+00 0.  1.
         21   -1    0    0  502  503 -0.00000000000E+00 -0.00000000000E+00 -0.10663335948E+04  0.10663335948E+04  0.00000000000E+00 0.  1.
         25    1    1    2    0    0 -0.38325123057E+02 -0.25808413816E+03 -0.59088524389E+03  0.65791079097E+03  0.12500000000E+03 0.  0.
          2    1    1    2  501    0  0.14061820742E+02  0.25792836924E+03 -0.34855120527E+03  0.43383490081E+03  0.00000000000E+00 0.  1.
         -2    1    1    2    0  503  0.24263302315E+02  0.15576891359E+00 -0.47841938914E+02  0.53643109736E+02  0.00000000000E+00 0. -1.
<mgrwt>
<rscale>  4 0.28762983E+03</rscale>
<asrwt>0</asrwt>
<pdfrwt beam="1">  1       21 0.12162340E-01 0.28762983E+03</pdfrwt>
<pdfrwt beam="2">  1       21 0.16405132E+00 0.28762983E+03</pdfrwt>
<totfact> 0.12696209E+04</totfact>
</mgrwt>
</event>
<event>
 5    0  0.1972558E-002  0.2574475E+03  0.7546771E-02  0.1108687E+00
         21   -1    0    0  501  502  0.00000000000E+00  0.00000000000E+00  0.25163476678E+03  0.25163476678E+03  0.00000000000E+00 0.  1.
         21   -1    0    0  502  503 -0.00000000000E+00 -0.00000000000E+00 -0.58816154524E+03  0.58816154524E+03  0.00000000000E+00 0.  1.
         25    1    1    2    0    0 -0.19398247419E+03 -0.16598785724E+03 -0.39281870624E+03  0.48488421816E+03  0.12500000000E+03 0.  0.
          3    1    1    2  501    0  0.20865835549E+03  0.77094470926E+02  0.11193218786E+03  0.24901943989E+03  0.00000000000E+00 0.  1.
         -3    1    1    2    0  503 -0.14675881299E+02  0.88893386318E+02 -0.55640260076E+02  0.10589265397E+03  0.00000000000E+00 0. -1.
<mgrwt>
<rscale>  4 0.25744754E+03</rscale>
<asrwt>0</asrwt>
<pdfrwt beam="1">  1       21 0.38713042E-01 0.25744754E+03</pdfrwt>
<pdfrwt beam="2">  1       21 0.90486390E-01 0.25744754E+03</pdfrwt>
<totfact> 0.63918370E+03</totfact>
</mgrwt>
</event>
<event>
 5    0  0.1972558E-002  0.3189253E+03  0.7546771E-02  0.1076145E+00
         21   -1    0    0  501  502  0.00000000000E+00  0.00000000000E+00  0.47396252687E+03  0.47396252687E+03  0.00000000000E+00 0. -1.
         21   -1    0    0  502  503 -0.00000000000E+00 -0.00000000000E+00 -0.57527999394E+03  0.57527999394E+03  0.00000000000E+00 0.  1.
         25    1    1    2    0    0 -0.13102273896E+03 -0.26829919210E+03 -0.42824258641E+03  0.53681293522E+03  0.12500000000E+03 0.  0.
          4    1    1    2  501    0  0.28939807448E+02  0.13592890494E+02  0.21288746473E+03  0.21527506072E+03  0.00000000000E+00 0. -1.
         -4    1    1    2    0  503  0.10208293151E+03  0.25470630160E+03  0.11403765460E+03  0.29715452487E+03  0.00000000000E+00 0.  1.
<mgrwt>
<rscale>  4 0.31892530E+03</rscale>
<asrwt>0</asrwt>
<pdfrwt beam="1">  1       21 0.72917312E-01 0.31892530E+03</pdfrwt>
<pdfrwt beam="2">  1       21 0.88504614E-01 0.31892530E+03</pdfrwt>
<totfact> 0.16875002E+03</totfact>
</mgrwt>
</event>
<event>
 5    0  0.1972558E-002  0.2515371E+03  0.7546771E-02  0.1112337E+00
         21   -1    0    0  501  502  0.00000000000E+00  0.00000000000E+00  0.12429076671E+03  0.12429076671E+03  0.00000000000E+00 0.  1.
         21   -1    0    0  502  503 -0.00000000000E+00 -0.00000000000E+00 -0.94017426927E+03  0.94017426927E+03  0.00000000000E+00 0.  1.
         25    1    1    2    0    0 -0.67866050083E+01  0.22901228261E+03 -0.75744153539E+03  0.80114628073E+03  0.12500000000E+03 0.  0.
          2    1    1    2  501    0 -0.33516972802E+02 -0.17599911490E+03 -0.72261132017E+01  0.17930781528E+03  0.00000000000E+00 0.  1.
         -2    1    1    2    0  503  0.40303577810E+02 -0.53013167717E+02 -0.51215853974E+02  0.84010939966E+02  0.00000000000E+00 0. -1.
<mgrwt>
<rscale>  4 0.25153715E+03</rscale>
<asrwt>0</asrwt>
<pdfrwt beam="1">  1       21 0.19121657E-01 0.25153715E+03</pdfrwt>
<pdfrwt beam="2">  1       21 0.14464219E+00 0.25153715E+03</pdfrwt>
<totfact> 0.79189943E+03</totfact>
</mgrwt>
</event>
<event>
 5    0  0.1972558E-002  0.2245405E+03  0.7546771E-02  0.1130542E+00
         21   -1    0    0  501  502  0.00000000000E+00  0.00000000000E+00  0.55412109099E+02  0.55412109099E+02  0.00000000000E+00 0. -1.
         21   -1    0    0  502  503 -0.00000000000E+00 -0.00000000000E+00 -0.11150844810E+04  0.11150844810E+04  0.00000000000E+00 0. -1.
         25    1    1    2    0    0 -0.50600286390E+02  0.19460721837E+03 -0.78661735459E+03  0.82147685358E+03  0.12500000000E+03 0.  0.
          3    1    1    2  501    0  0.50008773848E+02 -0.15888284763E+03 -0.26401011501E+03  0.31216338280E+03  0.00000000000E+00 0. -1.
         -3    1    1    2    0  503  0.59151254207E+00 -0.35724370738E+02 -0.90449022960E+01  0.36856353716E+02  0.00000000000E+00 0.  1.
<mgrwt>
<rscale>  4 0.22454053E+03</rscale>
<asrwt>0</asrwt>
<pdfrwt beam="1">  1       21 0.85249397E-02 0.22454053E+03</pdfrwt>
<pdfrwt beam="2">  1       21 0.17155146E+00 0.22454053E+03</pdfrwt>
<totfact> 0.21881163E+04</totfact>
</mgrwt>
</event>
<event>
 5    0  0.1972558E-002  0.3620149E+03  0.7546771E-02  0.1057789E+00
         21   -1    0    0  501  502  0.00000000000E+00  0.00000000000E+00  0.12183010214E+04  0.12183010214E+04  0.00000000000E+00 0. -1.
         21   -1    0    0  502  503 -0.00000000000E+00 -0.00000000000E+00 -0.53425540970E+03  0.53425540970E+03  0.00000000000E+00 0.  1.
         25    1    1    2    0    0 -0.32587596008E+03  0.10021015529E+03 -0.43211544987E+03  0.56443421104E+03  0.12500000000E+03 0.  0.
          3    1    1    2  501    0  0.97839731774E+01 -0.17848898200E+02  0.40523046240E+03  0.40574134243E+03  0.00000000000E+00 0.  1.
         -3    1    1    2    0  503  0.31609198690E+03 -0.82361257093E+02  0.71093059916E+03  0.78238087762E+03  0.00000000000E+00 0. -1.
<mgrwt>
<rscale>  4 0.36201485E+03</rscale>
<asrwt>0</asrwt>
<pdfrwt beam="1">  1       21 0.18743093E+00 0.36201485E+03</pdfrwt>
<pdfrwt beam="2">  1       21 0.82193141E-01 0.36201485E+03</pdfrwt>
<totfact> 0.17877802E+02</totfact>
</mgrwt>
</event>
<event>
 5    0  0.1972558E-002  0.2440380E+03  0.7546771E-02  0.1117132E+00
         21   -1    0    0  501  502  0.00000000000E+00  0.00000000000E+00  0.20912746409E+03  0.20912746409E+03  0.00000000000E+00 0.  1.
         21   -1    0    0  502  503 -0.00000000000E+00 -0.00000000000E+00 -0.82097557740E+03  0.82097557740E+03  0.00000000000E+00 0.  1.
         25    1    1    2    0    0 -0.18615086077E+03 -0.99660276392E+02 -0.71492573733E+03  0.75586250308E+03  0.12500000000E+03 0.  0.
          2    1    1    2  501    0  0.19090726534E+03  0.66486314248E+02  0.44867915485E+02  0.20707279826E+03  0.00000000000E+00 0. -1.
         -2    1    1    2    0  503 -0.47564045624E+01  0.33173962144E+02  0.58209708534E+02  0.67167740146E+02  0.00000000000E+00 0.  1.
<mgrwt>
<rscale>  4 0.24403800E+03</rscale>
<asrwt>0</asrwt>
<pdfrwt beam="1">  1       21 0.32173456E-01 0.24403800E+03</pdfrwt>
<pdfrwt beam="2">  1       21 0.12630393E+00 0.24403800E+03</pdfrwt>
<totfact> 0.41531732E+03</totfact>
</mgrwt>
</event>
<event>
 5    0  0.1972558E-002  0.2864610E+03  0.7546771E-02  0.1092211E+00
         21   -1    0    0  503  502  0.00000000000E+00  0.00000000000E+00  0.11331009221E+04  0.11331009221E+04  0.00000000000E+00 0.  1.
         21   -1    0    0  501  503 -0.00000000000E+00 -0.00000000000E+00 -0.20608481546E+03  0.20608481546E+03  0.00000000000E+00 0.  1.
         25    1    1    2    0    0  0.30401869465E+03  0.59897431038E+02  0.21548890798E+03  0.39758714567E+03  0.12500000000E+03 0.  0.
          3    1    1    2  501    0 -0.14753628956E+03  0.14188044826E+03  0.64646375603E+03  0.67809468822E+03  0.00000000000E+00 0.  1.
         -3    1    1    2    0  502 -0.15648240509E+03 -0.20177787930E+03  0.65063442621E+02  0.26350390366E+03  0.00000000000E+00 0. -1.
<mgrwt>
<rscale>  4 0.28646101E+03</rscale>
<asrwt>0</asrwt>
<pdfrwt beam="1">  1       21 0.17432321E+00 0.28646101E+03</pdfrwt>
<pdfrwt beam="2">  1       21 0.31705357E-01 0.28646101E+03</pdfrwt>
<totfact> 0.17605914E+03</totfact>
</mgrwt>
</event>
<event>
 5    0  0.1972558E-002  0.3738132E+03  0.7546771E-02  0.1053244E+00
         21   -1    0    0  501  502  0.00000000000E+00  0.00000000000E+00  0.27926486409E+03  0.27926486409E+03  0.00000000000E+00 0. -1.
         21   -1    0    0  502  503 -0.00000000000E+00 -0.00000000000E+00 -0.61371871335E+03  0.61371871335E+03  0.00000000000E+00 0. -1.
         25    1    1    2    0    0  0.30509499271E+03  0.17614858551E+03 -0.37969770263E+03  0.53282888823E+03  0.12500000000E+03 0.  0.
          3    1    1    2  501    0 -0.31902627120E+02  0.34299306279E+00  0.70716460093E+01  0.32678791879E+02  0.00000000000E+00 0.  1.
         -3    1    1    2    0  503 -0.27319236558E+03 -0.17649157857E+03  0.38172207357E+02  0.32747589733E+03  0.00000000000E+00 0. -1.
<mgrwt>
<rscale>  4 0.37381316E+03</rscale>
<asrwt>0</asrwt>
<pdfrwt beam="1">  1       21 0.42963825E-01 0.37381316E+03</pdfrwt>
<pdfrwt beam="2">  1       21 0.94418263E-01 0.37381316E+03</pdfrwt>
<totfact> 0.44130377E+03</totfact>
</mgrwt>
</event>
<event>
 5    0  0.1972558E-002  0.2075128E+03  0.7546771E-02  0.1143551E+00
         21   -1    0    0  501  502  0.00000000000E+00  0.00000000000E+00  0.52819456064E+02  0.52819456064E+02  0.00000000000E+00 0.  1.
         21   -1    0    0  502  503 -0.00000000000E+00 -0.00000000000E+00 -0.20605778425E+04  0.20605778425E+04  0.00000000000E+00 0.  1.
         25    1    1    2    0    0  0.13687019805E+03 -0.19794364748E+03 -0.42842356916E+03  0.50703736874E+03  0.12500000000E+03 0.  0.
          4    1    1    2  501    0 -0.83000243437E+02  0.13354480331E+03 -0.13946595164E+04  0.14034950736E+04  0.00000000000E+00 0.  1.
         -4    1    1    2    0  503 -0.53869954614E+02  0.64398844167E+02 -0.18467530091E+03  0.20286485626E+03  0.00000000000E+00 0. -1.
<mgrwt>
<rscale>  4 0.20751283E+03</rscale>
<asrwt>0</asrwt>
<pdfrwt beam="1">  1       21 0.81260698E-02 0.20751283E+03</pdfrwt>
<pdfrwt beam="2">  1       21 0.31701199E+00 0.20751283E+03</pdfrwt>
<totfact> 0.31236854E+03</totfact>
</mgrwt>
</event>
<event>
 5    0  0.1972558E-002  0.2238267E+03  0.7546771E-02  0.1131062E+00
         21   -1    0    0  501  502  0.00000000000E+00  0.00000000000E+00  0.90705926769E+03  0.90705926769E+03  0.00000000000E+00 0. -1.
         21   -1    0    0  502  503 -0.00000000000E+00 -0.00000000000E+00 -0.81131274602E+02  0.81131274602E+02  0.00000000000E+00 0. -1.
         25    1    1    2    0    0  0.22320399701E+03 -0.10740396875E+02  0.55105805531E+03  0.60763916984E+03  0.12500000000E+03 0.  0.
          1    1    1    2  501    0 -0.17444609405E+03  0.19732742311E+02  0.10719050462E+03  0.20569546696E+03  0.00000000000E+00 0. -1.
         -1    1    1    2    0  503 -0.48757902962E+02 -0.89923454362E+01  0.16767943316E+03  0.17485590549E+03  0.00000000000E+00 0.  1.
<mgrwt>
<rscale>  4 0.22382672E+03</rscale>
<asrwt>0</asrwt>
<pdfrwt beam="1">  1       21 0.13954757E+00 0.22382672E+03</pdfrwt>
<pdfrwt beam="2">  1       21 0.12481735E-01 0.22382672E+03</pdfrwt>
<totfact> 0.19343903E+04</totfact>
</mgrwt>
</event>
<event>
 5    0  0.1972558E-002  0.2439137E+03  0.7546771E-02  0.1117213E+00
         21   -1    0    0  501  502  0.00000000000E+00  0.00000000000E+00  0.87440347775E+02  0.87440347775E+02  0.00000000000E+00 0.  1.
         21   -1    0    0  502  503 -0.00000000000E+00 -0.00000000000E+00 -0.10079952125E+04  0.10079952125E+04  0.00000000000E+00 0.  1.
         25    1    1    2    0    0  0.79284945908E+02 -0.19503675644E+03 -0.67670411799E+03  0.71963803562E+03  0.12500000000E+03 0.  0.
          2    1    1    2  501    0  0.53707734564E+02  0.28497922804E+02 -0.14094282298E+02  0.62412347734E+02  0.00000000000E+00 0.  1.
         -2    1    1    2    0  503 -0.13299268047E+03  0.16653883364E+03 -0.22975646448E+03  0.31338517696E+03  0.00000000000E+00 0. -1.
<mgrwt>
<rscale>  4 0.24391369E+03</rscale>
<asrwt>0</asrwt>
<pdfrwt beam="1">  1       21 0.13452361E-01 0.24391369E+03</pdfrwt>
<pdfrwt beam="2">  1       21 0.15507619E+00 0.24391369E+03</pdfrwt>
<totfact> 0.12636673E+04</totfact>
</mgrwt>
</event>
<event>
 5    0  0.1972558E-002  0.2892670E+03  0.7546771E-02  0.1090732E+00
         21   -1    0    0  501  502  0.00000000000E+00  0.00000000000E+00  0.68386475885E+03  0.68386475885E+03  0.00000000000E+00 0.  1.
         21   -1    0    0  502  503 -0.00000000000E+00 -0.00000000000E+00 -0.14314321464E+03  0.14314321464E+03  0.00000000000E+00 0. -1.
         25    1    1    2    0    0 -0.47274997501E+02  0.26110966390E+03  0.39149947056E+03  0.48919323117E+03  0.12500000000E+03 0.  0.
          4    1    1    2  501    0  0.80652922961E+02 -0.24681350047E+03  0.10373406652E+03  0.27961143495E+03  0.00000000000E+00 0.  1.
         -4    1    1    2    0  503 -0.33377925460E+02 -0.14296163426E+02  0.45488007132E+02  0.58203307376E+02  0.00000000000E+00 0. -1.
<mgrwt>
<rscale>  4 0.28926702E+03</rscale>
<asrwt>0</asrwt>
<pdfrwt beam="1">  1       21 0.10520996E+00 0.28926702E+03</pdfrwt>
<pdfrwt beam="2">  1       21 0.22022033E-01 0.28926702E+03</pdfrwt>
<totfact> 0.13266163E+04</totfact>
</mgrwt>
</event>
<event>
 5    0  0.1972558E-002  0.2411228E+03  0.7546771E-02  0.1119047E+00
         21   -1    0    0  501  502  0.00000000000E+00  0.00000000000E+00  0.53313113554E+03  0.53313113554E+03  0.00000000000E+00 0. -1.
         21   -1    0    0  502  503 -0.00000000000E+00 -0.00000000000E+00 -0.21536638930E+03  0.21536638930E+03  0.00000000000E+00 0. -1.
         25    1    1    2    0    0  0.10955930746E+02  0.21987562796E+03 -0.59525240741E+02  0.26006456597E+03  0.12500000000E+03 0.  0.
          1    1    1    2  501    0 -0.23800363932E+02 -0.18313498698E+03  0.10312181838E+03  0.21151593369E+03  0.00000000000E+00 0.  1.
         -1    1    1    2    0  503  0.12844433185E+02 -0.36740640979E+02  0.27416816860E+03  0.27691702518E+03  0.00000000000E+00 0. -1.
<mgrwt>
<rscale>  4 0.24112279E+03</rscale>
<asrwt>0</asrwt>
<pdfrwt beam="1">  1       21 0.82020174E-01 0.24112279E+03</pdfrwt>
<pdfrwt beam="2">  1       21 0.33133291E-01 0.24112279E+03</pdfrwt>
<totfact> 0.11057120E+04</totfact>
</mgrwt>
</event>
<event>
 5    0  0.1972558E-002  0.2718421E+03  0.7546771E-02  0.1100230E+00
         21   -1    0    0  501  502  0.00000000000E+00  0.00000000000E+00  0.33259233986E+03  0.33259233986E+03  0.00000000000E+00 0.  1.
         21   -1    0    0  502  503 -0.00000000000E+00 -0.00000000000E+00 -0.54225949061E+03  0.54225949061E+03  0.00000000000E+00 0. -1.
         25    1    1    2    0    0 -0.22261551094E+03 -0.10690465431E+03 -0.40527532042E+03  0.49077424155E+03  0.12500000000E+03 0.  0.
          2    1    1    2  501    0  0.38981405655E+02 -0.24459938007E+02  0.14576635160E+03  0.15285832595E+03  0.00000000000E+00 0. -1.
         -2    1    1    2    0  503  0.18363410529E+03  0.13136459232E+03  0.49841818070E+02  0.23121926297E+03  0.00000000000E+00 0.  1.
<mgrwt>
<rscale>  4 0.27184214E+03</rscale>
<asrwt>0</asrwt>
<pdfrwt beam="1">  1       21 0.51168052E-01 0.27184214E+03</pdfrwt>
<pdfrwt beam="2">  1       21 0.83424537E-01 0.27184214E+03</pdfrwt>
<totfact> 0.42994615E+03</totfact>
</mgrwt>
</event>
<event>
 5    0  0.1972558E-002  0.3052920E+03  0.7546771E-02  0.1082625E+00
         21   -1    0    0  501  502  0.00000000000E+00  0.00000000000E+00  0.23027942850E+04  0.23027942850E+04  0.00000000000E+00 0.  1.
         21   -1    0    0  502  503 -0.00000000000E+00 -0.00000000000E+00 -0.10053114027E+03  0.10053114027E+03  0.00000000000E+00 0.  1.
         25    1    1    2    0    0 -0.21909847303E+03  0.18503487675E+03  0.19644974071E+03  0.36940431389E+03  0.12500000000E+03 0.  0.
          4    1    1    2  501    0  0.22528296136E+03 -0.16235319726E+03  0.19784614059E+04  0.19978539756E+04  0.00000000000E+00 0.  1.
         -4    1    1    2    0  503 -0.61844883249E+01 -0.22681679489E+02  0.27351998151E+02  0.36067135777E+02  0.00000000000E+00 0. -1.
<mgrwt>
<rscale>  4 0.30529197E+03</rscale>
<asrwt>0</asrwt>
<pdfrwt beam="1">  1       21 0.35427600E+00 0.30529197E+03</pdfrwt>
<pdfrwt beam="2">  1       21 0.15466331E-01 0.30529197E+03</pdfrwt>
<totfact> 0.53469787E+02</totfact>
</mgrwt>
</event>
<event>
 5    0  0.1972558E-002  0.3376628E+03  0.7546771E-02  0.1067796E+00
         21   -1    0    0  501  502  0.00000000000E+00  0.00000000000E+00  0.59208798277E+03  0.59208798277E+03  0.00000000000E+00 0. -1.
         21   -1    0    0  502  503 -0.00000000000E+00 -0.00000000000E+00 -0.24206599883E+03  0.24206599883E+03  0.00000000000E+00 0. -1.
         25    1    1    2    0    0  0.33427243608E+03 -0.20285529766E+02  0.75821397858E+02  0.36540860501E+03  0.12500000000E+03 0.  0.
          2    1    1    2  501    0 -0.42553636279E+02  0.94031120307E+01  0.14153450624E+03  0.14809202184E+03  0.00000000000E+00 0.  1.
         -2    1    1    2    0  503 -0.29171879980E+03  0.10882417735E+02  0.13266607984E+03  0.32065335475E+03  0.00000000000E+00 0. -1.
<mgrwt>
<rscale>  4 0.33766283E+03</rscale>
<asrwt>0</asrwt>
<pdfrwt beam="1">  1       21 0.91090458E-01 0.33766283E+03</pdfrwt>
<pdfrwt beam="2">  1       21 0.37240923E-01 0.33766283E+03</pdfrwt>
<totfact> 0.65389513E+03</totfact>
</mgrwt>
</event>
<event>
 5    0  0.1972558E-002  0.2616407E+03  0.7546771E-02  0.1106161E+00
         21   -1    0    0  501  502  0.00000000000E+00  0.00000000000E+00  0.37105328917E+02  0.37105328917E+02  0.00000000000E+00 0. -1.
         21   -1    0    0  502  503 -0.00000000000E+00 -0.00000000000E+00 -0.24969679557E+04  0.24969679557E+04  0.00000000000E+00 0.  1.
         25    1    1    2    0    0 -0.74219148265E+02  0.23571815248E+03 -0.18085118942E+04  0.18295933431E+04  0.12500000000E+03 0.  0.
          2    1    1    2  501    0 -0.12770210414E+02 -0.52269755558E+02 -0.67413880887E+02  0.86254489486E+02  0.00000000000E+00 0.  1.
         -2    1    1    2    0  503  0.86989358679E+02 -0.18344839693E+03 -0.58393685161E+03  0.61822545202E+03  0.00000000000E+00 0. -1.
<mgrwt>
<rscale>  4 0.26164072E+03</rscale>
<asrwt>0</asrwt>
<pdfrwt beam="1">  1       21 0.57085104E-02 0.26164072E+03</pdfrwt>
<pdfrwt beam="2">  1       21 0.38414904E+00 0.26164072E+03</pdfrwt>
<totfact> 0.21532612E+03</totfact>
</mgrwt>
</event>
<event>
 5    0  0.1972558E-002  0.2675287E+03  0.7546771E-02  0.1102702E+00
         21   -1    0    0  501  502  0.00000000000E+00  0.00000000000E+00  0.81288961000E+02  0.81288961000E+02  0.00000000000E+00 0.  1.
         21   -1    0    0  502  503 -0.00000000000E+00 -0.00000000000E+00 -0.13459821143E+04  0.13459821143E+04  0.00000000000E+00 0.  1.
         25    1    1    2    0    0  0.12838143260E+03  0.22732449092E+03 -0.45131228372E+03  0.53615855290E+03  0.12500000000E+03 0.  0.
          2    1    1    2  501    0 -0.92190728462E+02 -0.20836853914E+03 -0.81878935700E+03  0.84990151763E+03  0.00000000000E+00 0.  1.
         -2    1    1    2    0  503 -0.36190704138E+02 -0.18955951784E+02  0.54084874720E+01  0.41211004729E+02  0.00000000000E+00 0. -1.
<mgrwt>
<rscale>  4 0.26752871E+03</rscale>
<asrwt>0</asrwt>
<pdfrwt beam="1">  1       21 0.12505995E-01 0.26752871E+03</pdfrwt>
<pdfrwt beam="2">  1       21 0.20707415E+00 0.26752871E+03</pdfrwt>
<totfact> 0.62192562E+03</totfact>
</mgrwt>
</event>
<event>
 5    0  0.1972558E-002  0.5371899E+03  0.7546771E-02  0.1004503E+00
         21   -1    0    0  501  502  0.00000000000E+00  0.00000000000E+00  0.19094343438E+04  0.19094343438E+04  0.00000000000E+00 0. -1.
         21   -1    0    0  502  503 -0.00000000000E+00 -0.00000000000E+00 -0.36002386702E+03  0.36002386702E+03  0.00000000000E+00 0. -1.
         25    1    1    2    0    0  0.39940660436E+03 -0.34733835281E+03  0.92259205751E+01  0.54394823701E+03  0.12500000000E+03 0.  0.
          4    1    1    2  501    0 -0.21171124205E+03  0.49211842739E+03  0.11556004021E+04  0.12737403526E+04  0.00000000000E+00 0. -1.
         -4    1    1    2    0  503 -0.18769536231E+03 -0.14478007458E+03  0.38458415416E+03  0.45176962122E+03  0.00000000000E+00 0.  1.
<mgrwt>
<rscale>  4 0.53718986E+03</rscale>
<asrwt>0</asrwt>
<pdfrwt beam="1">  1       21 0.29375912E+00 0.53718986E+03</pdfrwt>
<pdfrwt beam="2">  1       21 0.55388288E-01 0.53718986E+03</pdfrwt>
<totfact> 0.83625888E+01</totfact>
</mgrwt>
</event>
<event>
 5    0  0.1972558E-002  0.3058573E+03  0.7546771E-02  0.1082349E+00
         21   -1    0    0  503  502  0.00000000000E+00  0.00000000000E+00  0.26350767473E+03  0.26350767473E+03  0.00000000000E+00 0. -1.
         21   -1    0    0  501  503 -0.00000000000E+00 -0.00000000000E+00 -0.73839967962E+03  0.73839967962E+03  0.00000000000E+00 0.  1.
         25    1    1    2    0    0 -0.10136442654E+03 -0.26009414820E+03 -0.61419466750E+03  0.68613686862E+03  0.12500000000E+03 0.  0.
          1    1    1    2  501    0  0.34018310191E+02  0.37471466741E+02  0.20561703739E+02  0.54627281725E+02  0.00000000000E+00 0.  1.
         -1    1    1    2    0  502  0.67346116348E+02  0.22262268146E+03  0.11874095887E+03  0.26114320401E+03  0.00000000000E+00 0. -1.
<mgrwt>
<rscale>  4 0.30585734E+03</rscale>
<asrwt>0</asrwt>
<pdfrwt beam="1">  1       21 0.40539643E-01 0.30585734E+03</pdfrwt>
<pdfrwt beam="2">  1       21 0.11359995E+00 0.30585734E+03</pdfrwt>
<totfact> 0.32768921E+03</totfact>
</mgrwt>
</event>
<event>
 5    0  0.1972558E-002  0.2469108E+03  0.7546771E-02  0.1115273E+00
         21   -1    0    0  501  502  0.00000000000E+00  0.00000000000E+00  0.16610634114E+04  0.16610634114E+04  0.00000000000E+00 0. -1.
         21   -1    0    0  502  503 -0.00000000000E+00 -0.00000000000E+00 -0.43256805138E+02  0.43256805138E+02  0.00000000000E+00 0. -1.
         25    1    1    2    0    0 -0.20203990616E+03  0.73225786140E+02  0.53869897405E+03  0.59329901743E+03  0.12500000000E+03 0.  0.
          1    1    1    2  501    0 -0.29421214397E+01 -0.22701616595E+02  0.38106154740E+03  0.38174850672E+03  0.00000000000E+00 0.  1.
         -1    1    1    2    0  503  0.20498202760E+03 -0.50524169545E+02  0.69804608481E+03  0.72927269239E+03  0.00000000000E+00 0. -1.
<mgrwt>
<rscale>  4 0.24691084E+03</rscale>
<asrwt>0</asrwt>
<pdfrwt beam="1">  1       21 0.25554817E+00 0.24691084E+03</pdfrwt>
<pdfrwt beam="2">  1       21 0.66548944E-02 0.24691084E+03</pdfrwt>
<totfact> 0.97119378E+03</totfact>
</mgrwt>
</event>
<event>
 5    0  0.1972558E-002  0.2553562E+03  0.7546771E-02  0.1109966E+00
         21   -1    0    0  501  502  0.00000000000E+00  0.00000000000E+00  0.38824993007E+03  0.38824993007E+03  0.00000000000E+00 0.  1.
         21   -1    0    0  502  503 -0.00000000000E+00 -0.00000000000E+00 -0.30800132101E+03  0.30800132101E+03  0.00000000000E+00 0. -1.
         25    1    1    2    0    0  0.10771005740E+02 -0.26674107824E+03 -0.62968297847E+02  0.30142465712E+03  0.12500000000E+03 0.  0.
          2    1    1    2  501    0  0.13395470879E+02  0.19321634734E+03 -0.38361042271E+02  0.19744256148E+03  0.00000000000E+00 0. -1.
         -2    1    1    2    0  503 -0.24166476619E+02  0.73524730903E+02  0.18157794918E+03  0.19738403247E+03  0.00000000000E+00 0.  1.
<mgrwt>
<rscale>  4 0.25535619E+03</rscale>
<asrwt>0</asrwt>
<pdfrwt beam="1">  1       21 0.59730758E-01 0.25535619E+03</pdfrwt>
<pdfrwt beam="2">  1       21 0.47384819E-01 0.25535619E+03</pdfrwt>
<totfact> 0.10729352E+04</totfact>
</mgrwt>
</event>
<event>
 5    0  0.1972558E-002  0.2412721E+03  0.7546771E-02  0.1118948E+00
         21   -1    0    0  503  502  0.00000000000E+00  0.00000000000E+00  0.10157708893E+04  0.10157708893E+04  0.00000000000E+00 0.  1.
         21   -1    0    0  501  503 -0.00000000000E+00 -0.00000000000E+00 -0.10637206922E+04  0.10637206922E+04  0.00000000000E+00 0. -1.
         25    1    1    2    0    0  0.35494879571E+02 -0.20250750274E+03 -0.10246987679E+04  0.10525691142E+04  0.12500000000E+03 0.  0.
          3    1    1    2  501    0 -0.38424662162E+02 -0.49086276666E+02  0.25733996294E+03  0.26478250272E+03  0.00000000000E+00 0. -1.
         -3    1    1    2    0  502  0.29297825910E+01  0.25159377941E+03  0.71940900201E+03  0.76213996460E+03  0.00000000000E+00 0.  1.
<mgrwt>
<rscale>  4 0.24127208E+03</rscale>
<asrwt>0</asrwt>
<pdfrwt beam="1">  1       21 0.15627244E+00 0.24127208E+03</pdfrwt>
<pdfrwt beam="2">  1       21 0.16364934E+00 0.24127208E+03</pdfrwt>
<totfact> 0.59449839E+01</totfact>
</mgrwt>
</event>
<event>
 5    0  0.1972558E-002  0.2575225E+03  0.7546771E-02  0.1108641E+00
         21   -1    0    0  501  502  0.00000000000E+00  0.00000000000E+00  0.24388765389E+03  0.24388765389E+03  0.00000000000E+00 0. -1.
         21   -1    0    0  502  503 -0.00000000000E+00 -0.00000000000E+00 -0.82718336039E+03  0.82718336039E+03  0.00000000000E+00 0.  1.
         25    1    1    2    0    0 -0.22336262105E+03 -0.55807519994E+02 -0.63711568330E+03  0.68887352517E+03  0.12500000000E+03 0.  0.
          3    1    1    2  501    0  0.20330237826E+03  0.59434742324E+02 -0.94890693854E+02  0.23209607791E+03  0.00000000000E+00 0. -1.
         -3    1    1    2    0  503  0.20060242794E+02 -0.36272223298E+01  0.14871067065E+03  0.15010141121E+03  0.00000000000E+00 0.  1.
<mgrwt>
<rscale>  4 0.25752250E+03</rscale>
<asrwt>0</asrwt>
<pdfrwt beam="1">  1       21 0.37521177E-01 0.25752250E+03</pdfrwt>
<pdfrwt beam="2">  1       21 0.12725898E+00 0.25752250E+03</pdfrwt>
<totfact> 0.29708053E+03</totfact>
</mgrwt>
</event>
<event>
 5    0  0.1972558E-002  0.2253835E+03  0.7546771E-02  0.1129932E+00
         21   -1    0    0  501  502  0.00000000000E+00  0.00000000000E+00  0.20066201209E+03  0.20066201209E+03  0.00000000000E+00 0.  1.
         21   -1    0    0  502  503 -0.00000000000E+00 -0.00000000000E+00 -0.29995937618E+03  0.29995937618E+03  0.00000000000E+00 0. -1.
         25    1    1    2    0    0 -0.18872762419E+03  0.68606075358E+02 -0.13672064310E+03  0.27320769381E+03  0.12500000000E+03 0.  0.
          1    1    1    2  501    0  0.15666523539E+03 -0.70635443648E+02 -0.76964868886E+01  0.17202499175E+03  0.00000000000E+00 0.  1.
         -1    1    1    2    0  503  0.32062388810E+02  0.20293682907E+01  0.45119765899E+02  0.55388702698E+02  0.00000000000E+00 0. -1.
<mgrwt>
<rscale>  4 0.22538348E+03</rscale>
<asrwt>0</asrwt>
<pdfrwt beam="1">  1       21 0.30871079E-01 0.22538348E+03</pdfrwt>
<pdfrwt beam="2">  1       21 0.46147596E-01 0.22538348E+03</pdfrwt>
<totfact> 0.44631815E+04</totfact>
</mgrwt>
</event>
<event>
 5    0  0.1972558E-002  0.3474010E+03  0.7546771E-02  0.1063687E+00
         21   -1    0    0  501  502  0.00000000000E+00  0.00000000000E+00  0.94653200376E+03  0.94653200376E+03  0.00000000000E+00 0.  1.
         21   -1    0    0  502  503 -0.00000000000E+00 -0.00000000000E+00 -0.13951399128E+03  0.13951399128E+03  0.00000000000E+00 0.  1.
         25    1    1    2    0    0 -0.26376744799E+03  0.20970875531E+03  0.43763661437E+03  0.56630542546E+03  0.12500000000E+03 0.  0.
          2    1    1    2  501    0  0.24702362032E+03 -0.19633417976E+03  0.26169187077E+03  0.40993952525E+03  0.00000000000E+00 0.  1.
         -2    1    1    2    0  503  0.16743827676E+02 -0.13374575544E+02  0.10768952734E+03  0.10980104432E+03  0.00000000000E+00 0. -1.
<mgrwt>
<rscale>  4 0.34740105E+03</rscale>
<asrwt>0</asrwt>
<pdfrwt beam="1">  1       21 0.14562030E+00 0.34740105E+03</pdfrwt>
<pdfrwt beam="2">  1       21 0.21463692E-01 0.34740105E+03</pdfrwt>
<totfact> 0.59461215E+03</totfact>
</mgrwt>
</event>
<event>
 5    0  0.1972558E-002  0.3904620E+03  0.7546771E-02  0.1047133E+00
         21   -1    0    0  501  502  0.00000000000E+00  0.00000000000E+00  0.10060237898E+04  0.10060237898E+04  0.00000000000E+00 0. -1.
         21   -1    0    0  502  503 -0.00000000000E+00 -0.00000000000E+00 -0.42792752485E+03  0.42792752485E+03  0.00000000000E+00 0.  1.
         25    1    1    2    0    0 -0.24734944739E+03 -0.27505245750E+03 -0.29181778757E+03  0.48746099807E+03  0.12500000000E+03 0.  0.
          4    1    1    2  501    0  0.23646837521E+03  0.24983670743E+03  0.82498912862E+03  0.89383596660E+03  0.00000000000E+00 0. -1.
         -4    1    1    2    0  503  0.10881072176E+02  0.25215750071E+02  0.44924923853E+02  0.52654349930E+02  0.00000000000E+00 0.  1.
<mgrwt>
<rscale>  4 0.39046204E+03</rscale>
<asrwt>0</asrwt>
<pdfrwt beam="1">  1       21 0.15477289E+00 0.39046204E+03</pdfrwt>
<pdfrwt beam="2">  1       21 0.65835004E-01 0.39046204E+03</pdfrwt>
<totfact> 0.49983428E+02</totfact>
</mgrwt>
</event>
<event>
 5    0  0.1972558E-002  0.3699053E+03  0.7546771E-02  0.1054729E+00
         21   -1    0    0  501  502  0.00000000000E+00  0.00000000000E+00  0.30280191450E+03  0.30280191450E+03  0.00000000000E+00 0.  1.
         21   -1    0    0  502  503 -0.00000000000E+00 -0.00000000000E+00 -0.44947128354E+03  0.44947128354E+03  0.00000000000E+00 0. -1.
         25    1    1    2    0    0  0.23068898446E+03 -0.26074419053E+03 -0.56707257083E+02  0.37422674070E+03  0.12500000000E+03 0.  0.
          4    1    1    2  501    0 -0.16414735900E+03  0.24495862545E+03 -0.94130047079E+02  0.30953117680E+03  0.00000000000E+00 0.  1.
         -4    1    1    2    0  503 -0.66541625457E+02  0.15785565088E+02  0.41679351281E+01  0.68515280535E+02  0.00000000000E+00 0. -1.
<mgrwt>
<rscale>  4 0.36990531E+03</rscale>
<asrwt>0</asrwt>
<pdfrwt beam="1">  1       21 0.46584910E-01 0.36990531E+03</pdfrwt>
<pdfrwt beam="2">  1       21 0.69149428E-01 0.36990531E+03</pdfrwt>
<totfact> 0.76574133E+03</totfact>
</mgrwt>
</event>
<event>
 5    0  0.1972558E-002  0.2379202E+03  0.7546771E-02  0.1121186E+00
         21   -1    0    0  501  502  0.00000000000E+00  0.00000000000E+00  0.31439247315E+03  0.31439247315E+03  0.00000000000E+00 0. -1.
         21   -1    0    0  502  503 -0.00000000000E+00 -0.00000000000E+00 -0.30071496196E+03  0.30071496196E+03  0.00000000000E+00 0. -1.
         25    1    1    2    0    0 -0.20760510040E+03 -0.29425576009E+02 -0.16094471940E+03  0.29239347623E+03  0.12500000000E+03 0.  0.
          4    1    1    2  501    0  0.18585619864E+03  0.34766062152E+02  0.49293036293E+02  0.19539961381E+03  0.00000000000E+00 0. -1.
         -4    1    1    2    0  503  0.21748901763E+02 -0.53404861426E+01  0.12532919429E+03  0.12731434508E+03  0.00000000000E+00 0.  1.
<mgrwt>
<rscale>  4 0.23792020E+03</rscale>
<asrwt>0</asrwt>
<pdfrwt beam="1">  1       21 0.48368073E-01 0.23792020E+03</pdfrwt>
<pdfrwt beam="2">  1       21 0.46263840E-01 0.23792020E+03</pdfrwt>
<totfact> 0.17806661E+04</totfact>
</mgrwt>
</event>
<event>
 5    0  0.1972558E-002  0.2577963E+03  0.7546771E-02  0.1108475E+00
         21   -1    0    0  501  502  0.00000000000E+00  0.00000000000E+00  0.65509598581E+03  0.65509598581E+03  0.00000000000E+00 0.  1.
         21   -1    0    0  502  503 -0.00000000000E+00 -0.00000000000E+00 -0.11409078611E+03  0.11409078611E+03  0.00000000000E+00 0.  1.
         25    1    1    2    0    0  0.11471126133E+03  0.18475972976E+03  0.27550575477E+03  0.37258992489E+03  0.12500000000E+03 0.  0.
          2    1    1    2  501    0 -0.14918290159E+03 -0.17720491974E+03  0.15033803238E+03  0.27614967986E+03  0.00000000000E+00 0.  1.
         -2    1    1    2    0  503  0.34471640262E+02 -0.75548100230E+01  0.11516141255E+03  0.12044716716E+03  0.00000000000E+00 0. -1.
<mgrwt>
<rscale>  4 0.25779626E+03</rscale>
<asrwt>0</asrwt>
<pdfrwt beam="1">  1       21 0.10078400E+00 0.25779626E+03</pdfrwt>
<pdfrwt beam="2">  1       21 0.17552429E-01 0.25779626E+03</pdfrwt>
<totfact> 0.22881031E+04</totfact>
</mgrwt>
</event>
<event>
 5    0  0.1972558E-002  0.2499976E+03  0.7546771E-02  0.1113306E+00
         21   -1    0    0  501  502  0.00000000000E+00  0.00000000000E+00  0.11147971987E+04  0.11147971987E+04  0.00000000000E+00 0. -1.
         21   -1    0    0  502  503 -0.00000000000E+00 -0.00000000000E+00 -0.59489209335E+03  0.59489209335E+03  0.00000000000E+00 0. -1.
         25    1    1    2    0    0 -0.20730656616E+03  0.58817861523E+02 -0.54665256480E+03  0.60074085912E+03  0.12500000000E+03 0.  0.
          2    1    1    2  501    0  0.23760051549E+03 -0.91041213341E+02  0.96870911039E+03  0.10015686936E+04  0.00000000000E+00 0. -1.
         -2    1    1    2    0  503 -0.30293949330E+02  0.32223351818E+02  0.97848559802E+02  0.10737973935E+03  0.00000000000E+00 0.  1.
<mgrwt>
<rscale>  4 0.24999765E+03</rscale>
<asrwt>0</asrwt>
<pdfrwt beam="1">  1       21 0.17150726E+00 0.24999765E+03</pdfrwt>
<pdfrwt beam="2">  1       21 0.91521861E-01 0.24999765E+03</pdfrwt>
<totfact> 0.19701777E+02</totfact>
</mgrwt>
</event>
<event>
 5    0  0.1972558E-002  0.2650276E+03  0.7546771E-02  0.1104160E+00
         21   -1    0    0  503  502  0.00000000000E+00  0.00000000000E+00  0.11414593226E+04  0.11414593226E+04  0.00000000000E+00 0.  1.
         21   -1    0    0  501  503 -0.00000000000E+00 -0.00000000000E+00 -0.18147158390E+03  0.18147158390E+03  0.00000000000E+00 0. -1.
         25    1    1    2    0    0 -0.17187934561E+03 -0.15834186284E+03 -0.62079912791E+02  0.27220134193E+03  0.12500000000E+03 0.  0.
          4    1    1    2  501    0  0.10306855548E+02  0.43415593638E+02  0.22388774852E+03  0.22829119339E+03  0.00000000000E+00 0. -1.
         -4    1    1    2    0  502  0.16157249006E+03  0.11492626920E+03  0.79817990296E+03  0.82243837118E+03  0.00000000000E+00 0.  1.
<mgrwt>
<rscale>  4 0.26502765E+03</rscale>
<asrwt>0</asrwt>
<pdfrwt beam="1">  1       21 0.17560912E+00 0.26502765E+03</pdfrwt>
<pdfrwt beam="2">  1       21 0.27918706E-01 0.26502765E+03</pdfrwt>
<totfact> 0.22472536E+03</totfact>
</mgrwt>
</event>
<event>
 5    0  0.1972558E-002  0.2444692E+03  0.7546771E-02  0.1116851E+00
         21   -1    0    0  501  502  0.00000000000E+00  0.00000000000E+00  0.27940089011E+03  0.27940089011E+03  0.00000000000E+00 0. -1.
         21   -1    0    0  502  503 -0.00000000000E+00 -0.00000000000E+00 -0.23537765862E+03  0.23537765862E+03  0.00000000000E+00 0.  1.
         25    1    1    2    0    0 -0.39796968182E+02 -0.20629203346E+03 -0.93434727334E+02  0.26171597203E+03  0.12500000000E+03 0.  0.
          1    1    1    2  501    0  0.24772101578E+02  0.18320067681E+03  0.11760276494E+03  0.21910398290E+03  0.00000000000E+00 0. -1.
         -1    1    1    2    0  503  0.15024866604E+02  0.23091356652E+02  0.19855193882E+02  0.33958593796E+02  0.00000000000E+00 0.  1.
<mgrwt>
<rscale>  4 0.24446922E+03</rscale>
<asrwt>0</asrwt>
<pdfrwt beam="1">  1       21 0.42984752E-01 0.24446922E+03</pdfrwt>
<pdfrwt beam="2">  1       21 0.36211948E-01 0.24446922E+03</pdfrwt>
<totfact> 0.37332613E+04</totfact>
</mgrwt>
</event>
<event>
 5    0  0.1972558E-002  0.2897352E+03  0.7546771E-02  0.1090488E+00
         21   -1    0    0  501  502  0.00000000000E+00  0.00000000000E+00  0.45394418664E+03  0.45394418664E+03  0.00000000000E+00 0.  1.
         21   -1    0    0  502  503 -0.00000000000E+00 -0.00000000000E+00 -0.28340667669E+03  0.28340667669E+03  0.00000000000E+00 0.  1.
         25    1    1    2    0    0 -0.19308669453E+03 -0.18202005208E+03 -0.11216348664E+03  0.31403728870E+03  0.12500000000E+03 0.  0.
          2    1    1    2  501    0  0.19613933893E+03  0.15946521647E+03  0.16144620510E+03  0.29994111536E+03  0.00000000000E+00 0.  1.
         -2    1    1    2    0  503 -0.30526444038E+01  0.22554835600E+02  0.12125479149E+03  0.12337245927E+03  0.00000000000E+00 0. -1.
<mgrwt>
<rscale>  4 0.28973515E+03</rscale>
<asrwt>0</asrwt>
<pdfrwt beam="1">  1       21 0.69837567E-01 0.28973515E+03</pdfrwt>
<pdfrwt beam="2">  1       21 0.43601027E-01 0.28973515E+03</pdfrwt>
<totfact> 0.88936539E+03</totfact>
</mgrwt>
</event>
<event>
 5    0  0.1972558E-002  0.4072453E+03  0.7546771E-02  0.1041299E+00
         21   -1    0    0  501  502  0.00000000000E+00  0.00000000000E+00  0.12062189899E+04  0.12062189899E+04  0.00000000000E+00 0.  1.
         21   -1    0    0  502  503 -0.00000000000E+00 -0.00000000000E+00 -0.27458944013E+03  0.27458944013E+03  0.00000000000E+00 0.  1.
         25    1    1    2    0    0 -0.22660428641E+03 -0.36258100138E+03  0.57165301943E+02  0.44911842195E+03  0.12500000000E+03 0.  0.
          3    1    1    2  501    0  0.10066628020E+03  0.56241905206E+02  0.57082720673E+03  0.58235775243E+03  0.00000000000E+00 0. -1.
         -3    1    1    2    0  503  0.12593800621E+03  0.30633909618E+03  0.30363704114E+03  0.44933225569E+03  0.00000000000E+00 0.  1.
<mgrwt>
<rscale>  4 0.40724528E+03</rscale>
<asrwt>0</asrwt>
<pdfrwt beam="1">  1       21 0.18557215E+00 0.40724528E+03</pdfrwt>
<pdfrwt beam="2">  1       21 0.42244530E-01 0.40724528E+03</pdfrwt>
<totfact> 0.76540631E+02</totfact>
</mgrwt>
</event>
<event>
 5    0  0.1972558E-002  0.2379684E+03  0.7546771E-02  0.1121154E+00
         21   -1    0    0  501  502  0.00000000000E+00  0.00000000000E+00  0.15192680171E+04  0.15192680171E+04  0.00000000000E+00 0. -1.
         21   -1    0    0  502  503 -0.00000000000E+00 -0.00000000000E+00 -0.12971869533E+03  0.12971869533E+03  0.00000000000E+00 0.  1.
         25    1    1    2    0    0 -0.15575070282E+03 -0.14575587594E+03  0.44538932359E+02  0.25122056702E+03  0.12500000000E+03 0.  0.
          2    1    1    2  501    0 -0.33090944859E+02  0.10358966915E+03  0.96716084944E+03  0.97325533077E+03  0.00000000000E+00 0. -1.
         -2    1    1    2    0  503  0.18884164768E+03  0.42166206787E+02  0.37784953997E+03  0.42451081464E+03  0.00000000000E+00 0.  1.
<mgrwt>
<rscale>  4 0.23796838E+03</rscale>
<asrwt>0</asrwt>
<pdfrwt beam="1">  1       21 0.23373353E+00 0.23796838E+03</pdfrwt>
<pdfrwt beam="2">  1       21 0.19956723E-01 0.23796838E+03</pdfrwt>
<totfact> 0.18373337E+03</totfact>
</mgrwt>
</event>
<event>
 5    0  0.1972558E-002  0.2117282E+03  0.7546771E-02  0.1140205E+00
         21   -1    0    0  501  502  0.00000000000E+00  0.00000000000E+00  0.46111683727E+03  0.46111683727E+03  0.00000000000E+00 0.  1.
         21   -1    0    0  502  503 -0.00000000000E+00 -0.00000000000E+00 -0.23654212919E+03  0.23654212919E+03  0.00000000000E+00 0. -1.
         25    1    1    2    0    0 -0.16148345345E+03 -0.12926552999E+03  0.14136656190E+03  0.27999283528E+03  0.12500000000E+03 0.  0.
          3    1    1    2  501    0  0.11213357723E+03 -0.32638578175E+02  0.18601054656E+03  0.21963410336E+03  0.00000000000E+00 0.  1.
         -3    1    1    2    0  503  0.49349876222E+02  0.16190410817E+03 -0.10280240037E+03  0.19803202783E+03  0.00000000000E+00 0. -1.
<mgrwt>
<rscale>  4 0.21172816E+03</rscale>
<asrwt>0</asrwt>
<pdfrwt beam="1">  1       21 0.70941052E-01 0.21172816E+03</pdfrwt>
<pdfrwt beam="2">  1       21 0.36391097E-01 0.21172816E+03</pdfrwt>
<totfact> 0.12940085E+04</totfact>
</mgrwt>
</event>
<event>
 5    0  0.1972558E-002  0.3407861E+03  0.7546771E-02  0.1066462E+00
         21   -1    0    0  503  502  0.00000000000E+00  0.00000000000E+00  0.58082558580E+03  0.58082558580E+03  0.00000000000E+00 0. -1.
         21   -1    0    0  501  503 -0.00000000000E+00 -0.00000000000E+00 -0.47255536602E+03  0.47255536602E+03  0.00000000000E+00 0.  1.
         25    1    1    2    0    0  0.38463092494E+02 -0.27892166811E+03 -0.56998257380E+02  0.31328981434E+03  0.12500000000E+03 0.  0.
          2    1    1    2  501    0 -0.28230903658E+03  0.29040665533E+03 -0.58156785285E+02  0.40916577236E+03  0.00000000000E+00 0. -1.
         -2    1    1    2    0  502  0.24384594409E+03 -0.11484987217E+02  0.22342526245E+03  0.33092536512E+03  0.00000000000E+00 0.  1.
<mgrwt>
<rscale>  4 0.34078610E+03</rscale>
<asrwt>0</asrwt>
<pdfrwt beam="1">  1       21 0.89357783E-01 0.34078610E+03</pdfrwt>
<pdfrwt beam="2">  1       21 0.72700825E-01 0.34078610E+03</pdfrwt>
<totfact> 0.16413950E+03</totfact>
</mgrwt>
</event>
<event>
 5    0  0.1972558E-002  0.2666976E+03  0.7546771E-02  0.1103185E+00
         21   -1    0    0  503  502  0.00000000000E+00  0.00000000000E+00  0.21504061450E+03  0.21504061450E+03  0.00000000000E+00 0.  1.
         21   -1    0    0  501  503 -0.00000000000E+00 -0.00000000000E+00 -0.15372675560E+04  0.15372675560E+04  0.00000000000E+00 0. -1.
         25    1    1    2    0    0  0.29754251946E+02  0.32366281555E+03 -0.11267579090E+04  0.11793435968E+04  0.12500000000E+03 0.  0.
          3    1    1    2  501    0 -0.28256557504E+02 -0.16487758753E+03 -0.32665187752E+03  0.36699387052E+03  0.00000000000E+00 0. -1.
         -3    1    1    2    0  502 -0.14976944425E+01 -0.15878522802E+03  0.13118284508E+03  0.20597070318E+03  0.00000000000E+00 0.  1.
<mgrwt>
<rscale>  4 0.26669764E+03</rscale>
<asrwt>0</asrwt>
<pdfrwt beam="1">  1       21 0.33083172E-01 0.26669764E+03</pdfrwt>
<pdfrwt beam="2">  1       21 0.23650269E+00 0.26669764E+03</pdfrwt>
<totfact> 0.64953870E+02</totfact>
</mgrwt>
</event>
<event>
 5    0  0.1972558E-002  0.2442219E+03  0.7546771E-02  0.1117012E+00
         21   -1    0    0  503  502  0.00000000000E+00  0.00000000000E+00  0.18009345801E+03  0.18009345801E+03  0.00000000000E+00 0. -1.
         21   -1    0    0  501  503 -0.00000000000E+00 -0.00000000000E+00 -0.74693551927E+03  0.74693551927E+03  0.00000000000E+00 0. -1.
         25    1    1    2    0    0 -0.26282639147E+03 -0.32950231705E+02 -0.51827932506E+03  0.59531662887E+03  0.12500000000E+03 0.  0.
          2    1    1    2  501    0  0.11003090360E+03  0.68062536092E+02  0.58371078055E+02  0.14193833633E+03  0.00000000000E+00 0.  1.
         -2    1    1    2    0  502  0.15279548787E+03 -0.35112304387E+02 -0.10693381425E+03  0.18977401209E+03  0.00000000000E+00 0. -1.
<mgrwt>
<rscale>  4 0.24422188E+03</rscale>
<asrwt>0</asrwt>
<pdfrwt beam="1">  1       21 0.27706686E-01 0.24422188E+03</pdfrwt>
<pdfrwt beam="2">  1       21 0.11491316E+00 0.24422188E+03</pdfrwt>
<totfact> 0.70458655E+03</totfact>
</mgrwt>
</event>
<event>
 5    0  0.1972558E-002  0.2420789E+03  0.7546771E-02  0.1118416E+00
         21   -1    0    0  501  502  0.00000000000E+00  0.00000000000E+00  0.11249238648E+03  0.11249238648E+03  0.00000000000E+00 0. -1.
         21   -1    0    0  502  503 -0.00000000000E+00 -0.00000000000E+00 -0.13097560660E+04  0.13097560660E+04  0.00000000000E+00 0.  1.
         25    1    1    2    0    0 -0.21369517658E+03  0.19032573830E+02 -0.10293987356E+04  0.10589214438E+04  0.12500000000E+03 0.  0.
          2    1    1    2  501    0  0.23714465990E+02 -0.55834654770E+01  0.60938555456E+02  0.65628183923E+02  0.00000000000E+00 0. -1.
         -2    1    1    2    0  503  0.18998071059E+03 -0.13449108353E+02 -0.22880349937E+03  0.29769882472E+03  0.00000000000E+00 0.  1.
<mgrwt>
<rscale>  4 0.24207891E+03</rscale>
<asrwt>0</asrwt>
<pdfrwt beam="1">  1       21 0.17306521E-01 0.24207891E+03</pdfrwt>
<pdfrwt beam="2">  1       21 0.20150093E+00 0.24207891E+03</pdfrwt>
<totfact> 0.37963794E+03</totfact>
</mgrwt>
</event>
<event>
 5    0  0.1972558E-002  0.3647687E+03  0.7546771E-02  0.1056711E+00
         21   -1    0    0  501  502  0.00000000000E+00  0.00000000000E+00  0.38277977486E+03  0.38277977486E+03  0.00000000000E+00 0.  1.
         21   -1    0    0  502  503 -0.00000000000E+00 -0.00000000000E+00 -0.54098363305E+03  0.54098363305E+03  0.00000000000E+00 0.  1.
         25    1    1    2    0    0 -0.35441464312E+03  0.41021828926E+02 -0.21197371706E+03  0.43341710445E+03  0.12500000000E+03 0.  0.
          2    1    1    2  501    0  0.32545338188E+03 -0.31819229698E+02 -0.93391721621E+02  0.34007996240E+03  0.00000000000E+00 0.  1.
         -2    1    1    2    0  503  0.28961261243E+02 -0.92025992274E+01  0.14716158049E+03  0.15026634107E+03  0.00000000000E+00 0. -1.
<mgrwt>
<rscale>  4 0.36476875E+03</rscale>
<asrwt>0</asrwt>
<pdfrwt beam="1">  1       21 0.58889196E-01 0.36476875E+03</pdfrwt>
<pdfrwt beam="2">  1       21 0.83228251E-01 0.36476875E+03</pdfrwt>
<totfact> 0.30527659E+03</totfact>
</mgrwt>
</event>
<event>
 5    0  0.1972558E-002  0.2684471E+03  0.7546771E-02  0.1102172E+00
         21   -1    0    0  503  502  0.00000000000E+00  0.00000000000E+00  0.69703697103E+03  0.69703697103E+03  0.00000000000E+00 0. -1.
         21   -1    0    0  501  503 -0.00000000000E+00 -0.00000000000E+00 -0.29226770006E+03  0.29226770006E+03  0.00000000000E+00 0. -1.
         25    1    1    2    0    0  0.71888885634E+02  0.24739253309E+03 -0.14672006579E+03  0.32174967756E+03  0.12500000000E+03 0.  0.
          3    1    1    2  501    0 -0.14860549640E+03 -0.52832018535E+02  0.31202513575E+03  0.34962051010E+03  0.00000000000E+00 0.  1.
         -3    1    1    2    0  502  0.76716610763E+02 -0.19456051455E+03  0.23946420101E+03  0.31793448343E+03  0.00000000000E+00 0. -1.
<mgrwt>
<rscale>  4 0.26844714E+03</rscale>
<asrwt>0</asrwt>
<pdfrwt beam="1">  1       21 0.10723646E+00 0.26844714E+03</pdfrwt>
<pdfrwt beam="2">  1       21 0.44964262E-01 0.26844714E+03</pdfrwt>
<totfact> 0.31165379E+03</totfact>
</mgrwt>
</event>
<event>
 5    0  0.1972558E-002  0.1956860E+03  0.7546771E-02  0.1153431E+00
         21   -1    0    0  501  502  0.00000000000E+00  0.00000000000E+00  0.11202165366E+04  0.11202165366E+04  0.00000000000E+00 0.  1.
         21   -1    0    0  502  503 -0.00000000000E+00 -0.00000000000E+00 -0.11795221328E+03  0.11795221328E+03  0.00000000000E+00 0. -1.
         25    1    1    2    0    0 -0.10992598957E+03 -0.17426832308E+03  0.10640279844E+03  0.26343827954E+03  0.12500000000E+03 0.  0.
          1    1    1    2  501    0  0.10189711200E+03  0.70182153003E+02  0.69720051784E+02  0.14201915946E+03  0.00000000000E+00 0. -1.
         -1    1    1    2    0  503  0.80288775706E+01  0.10408617008E+03  0.82614147307E+03  0.83271131084E+03  0.00000000000E+00 0.  1.
<mgrwt>
<rscale>  4 0.19568598E+03</rscale>
<asrwt>0</asrwt>
<pdfrwt beam="1">  1       21 0.17234100E+00 0.19568598E+03</pdfrwt>
<pdfrwt beam="2">  1       21 0.18146495E-01 0.19568598E+03</pdfrwt>
<totfact> 0.56684348E+03</totfact>
</mgrwt>
</event>
<event>
 5    0  0.1972558E-002  0.3212581E+03  0.7546771E-02  0.1075072E+00
         21   -1    0    0  501  502  0.00000000000E+00  0.00000000000E+00  0.56018897846E+03  0.56018897846E+03  0.00000000000E+00 0. -1.
         21   -1    0    0  502  503 -0.00000000000E+00 -0.00000000000E+00 -0.61798667036E+03  0.61798667036E+03  0.00000000000E+00 0.  1.
         25    1    1    2    0    0 -0.96533455084E+02 -0.28305113480E+03 -0.49672069973E+03  0.59312149380E+03  0.12500000000E+03 0.  0.
          3    1    1    2  501    0  0.12894941055E+03  0.24922390020E+03  0.20764973188E+03  0.34908296157E+03  0.00000000000E+00 0. -1.
         -3    1    1    2    0  503 -0.32415955468E+02  0.33827234600E+02  0.23127327595E+03  0.23597119345E+03  0.00000000000E+00 0.  1.
<mgrwt>
<rscale>  4 0.32125809E+03</rscale>
<asrwt>0</asrwt>
<pdfrwt beam="1">  1       21 0.86182920E-01 0.32125809E+03</pdfrwt>
<pdfrwt beam="2">  1       21 0.95074872E-01 0.32125809E+03</pdfrwt>
<totfact> 0.97119962E+02</totfact>
</mgrwt>
</event>
<event>
 5    0  0.1972558E-002  0.2482757E+03  0.7546771E-02  0.1114399E+00
         21   -1    0    0  501  502  0.00000000000E+00  0.00000000000E+00  0.83598094372E+03  0.83598094372E+03  0.00000000000E+00 0. -1.
         21   -1    0    0  502  503 -0.00000000000E+00 -0.00000000000E+00 -0.14485819985E+03  0.14485819985E+03  0.00000000000E+00 0. -1.
         25    1    1    2    0    0 -0.68403916809E+02  0.21163824723E+03  0.12771183817E+02  0.25545634982E+03  0.12500000000E+03 0.  0.
          4    1    1    2  501    0  0.72786123492E+02 -0.17661950251E+03  0.38368065968E+03  0.42860601612E+03  0.00000000000E+00 0.  1.
         -4    1    1    2    0  503 -0.43822066830E+01 -0.35018744719E+02  0.29467090038E+03  0.29677677764E+03  0.00000000000E+00 0. -1.
<mgrwt>
<rscale>  4 0.24827575E+03</rscale>
<asrwt>0</asrwt>
<pdfrwt beam="1">  1       21 0.12861245E+00 0.24827575E+03</pdfrwt>
<pdfrwt beam="2">  1       21 0.22285877E-01 0.24827575E+03</pdfrwt>
<totfact> 0.80531197E+03</totfact>
</mgrwt>
</event>
<event>
 5    0  0.1972558E-002  0.2591429E+03  0.7546771E-02  0.1107659E+00
         21   -1    0    0  501  502  0.00000000000E+00  0.00000000000E+00  0.69450318830E+02  0.69450318830E+02  0.00000000000E+00 0.  1.
         21   -1    0    0  502  503 -0.00000000000E+00 -0.00000000000E+00 -0.10070451023E+04  0.10070451023E+04  0.00000000000E+00 0. -1.
         25    1    1    2    0    0  0.97024086968E+02  0.20279501433E+03 -0.43981251774E+03  0.50950911871E+03  0.12500000000E+03 0.  0.
          4    1    1    2  501    0 -0.61661651792E+02 -0.22194761525E+03 -0.43895981431E+03  0.49573039224E+03  0.00000000000E+00 0.  1.
         -4    1    1    2    0  503 -0.35362435176E+02  0.19152600918E+02 -0.58822451410E+02  0.71255910165E+02  0.00000000000E+00 0. -1.
<mgrwt>
<rscale>  4 0.25914291E+03</rscale>
<asrwt>0</asrwt>
<pdfrwt beam="1">  1       21 0.10684665E-01 0.25914291E+03</pdfrwt>
<pdfrwt beam="2">  1       21 0.15493001E+00 0.25914291E+03</pdfrwt>
<totfact> 0.19015134E+04</totfact>
</mgrwt>
</event>
<event>
 5    0  0.1972558E-002  0.2680424E+03  0.7546771E-02  0.1102405E+00
         21   -1    0    0  503  502  0.00000000000E+00  0.00000000000E+00  0.29642825488E+03  0.29642825488E+03  0.00000000000E+00 0. -1.
         21   -1    0    0  501  503 -0.00000000000E+00 -0.00000000000E+00 -0.71502354169E+03  0.71502354169E+03  0.00000000000E+00 0. -1.
         25    1    1    2    0    0 -0.20572438469E+03  0.11850383040E+03 -0.62352590955E+03  0.67880427235E+03  0.12500000000E+03 0.  0.
          4    1    1    2  501    0  0.12901419044E+02  0.16615465453E+02  0.39940483065E+02  0.45141582749E+02  0.00000000000E+00 0.  1.
         -4    1    1    2    0  502  0.19282296565E+03 -0.13511929585E+03  0.16499013968E+03  0.28750594148E+03  0.00000000000E+00 0. -1.
<mgrwt>
<rscale>  4 0.26804244E+03</rscale>
<asrwt>0</asrwt>
<pdfrwt beam="1">  1       21 0.45604347E-01 0.26804244E+03</pdfrwt>
<pdfrwt beam="2">  1       21 0.11000362E+00 0.26804244E+03</pdfrwt>
<totfact> 0.28449224E+03</totfact>
</mgrwt>
</event>
<event>
 5    0  0.1972558E-002  0.2156037E+03  0.7546771E-02  0.1137204E+00
         21   -1    0    0  501  502  0.00000000000E+00  0.00000000000E+00  0.17795138767E+03  0.17795138767E+03  0.00000000000E+00 0. -1.
         21   -1    0    0  502  503 -0.00000000000E+00 -0.00000000000E+00 -0.53274049666E+03  0.53274049666E+03  0.00000000000E+00 0.  1.
         25    1    1    2    0    0 -0.15732499959E+02 -0.20296589934E+03 -0.32862469343E+03  0.40627805378E+03  0.12500000000E+03 0.  0.
          4    1    1    2  501    0  0.29904301388E+02  0.14744856498E+03 -0.12136549649E+03  0.19330010422E+03  0.00000000000E+00 0.  1.
         -4    1    1    2    0  503 -0.14171801429E+02  0.55517334360E+02  0.95201080921E+02  0.11111372633E+03  0.00000000000E+00 0. -1.
<mgrwt>
<rscale>  4 0.21560369E+03</rscale>
<asrwt>0</asrwt>
<pdfrwt beam="1">  1       21 0.27377137E-01 0.21560369E+03</pdfrwt>
<pdfrwt beam="2">  1       21 0.81960076E-01 0.21560369E+03</pdfrwt>
<totfact> 0.16332715E+04</totfact>
</mgrwt>
</event>
<event>
 5    0  0.1972558E-002  0.2932551E+03  0.7546771E-02  0.1088662E+00
         21   -1    0    0  501  502  0.00000000000E+00  0.00000000000E+00  0.59590966975E+03  0.59590966975E+03  0.00000000000E+00 0. -1.
         21   -1    0    0  502  503 -0.00000000000E+00 -0.00000000000E+00 -0.23378996216E+03  0.23378996216E+03  0.00000000000E+00 0. -1.
         25    1    1    2    0    0 -0.18797767473E+03 -0.18718430269E+03 -0.87488307437E+02  0.30602740614E+03  0.12500000000E+03 0.  0.
          1    1    1    2  501    0  0.14691609403E+03  0.16491918498E+03  0.35374603323E+03  0.41703588849E+03  0.00000000000E+00 0. -1.
         -1    1    1    2    0  503  0.41061580706E+02  0.22265117710E+02  0.95861981788E+02  0.10663633728E+03  0.00000000000E+00 0.  1.
<mgrwt>
<rscale>  4 0.29325513E+03</rscale>
<asrwt>0</asrwt>
<pdfrwt beam="1">  1       21 0.91678411E-01 0.29325513E+03</pdfrwt>
<pdfrwt beam="2">  1       21 0.35967687E-01 0.29325513E+03</pdfrwt>
<totfact> 0.70534888E+03</totfact>
</mgrwt>
</event>
<event>
 5    0  0.1972558E-002  0.2177664E+03  0.7546771E-02  0.1135559E+00
         21   -1    0    0  501  502  0.00000000000E+00  0.00000000000E+00  0.55275882763E+02  0.55275882763E+02  0.00000000000E+00 0. -1.
         21   -1    0    0  502  503 -0.00000000000E+00 -0.00000000000E+00 -0.25104642176E+04  0.25104642176E+04  0.00000000000E+00 0.  1.
         25    1    1    2    0    0  0.57915824464E+02  0.20082074664E+03 -0.21709682889E+04  0.21845849781E+04  0.12500000000E+03 0.  0.
          4    1    1    2  501    0  0.23812284872E+02 -0.11677439716E+03 -0.21274744729E+03  0.24385397490E+03  0.00000000000E+00 0.  1.
         -4    1    1    2    0  503 -0.81728109336E+02 -0.84046349480E+02 -0.71472598627E+02  0.13730114738E+03  0.00000000000E+00 0. -1.
<mgrwt>
<rscale>  4 0.21776644E+03</rscale>
<asrwt>0</asrwt>
<pdfrwt beam="1">  1       21 0.85039841E-02 0.21776644E+03</pdfrwt>
<pdfrwt beam="2">  1       21 0.38622517E+00 0.21776644E+03</pdfrwt>
<totfact> 0.11027585E+03</totfact>
</mgrwt>
</event>
<event>
 5    0  0.1972558E-002  0.2335524E+03  0.7546771E-02  0.1124164E+00
         21   -1    0    0  501  502  0.00000000000E+00  0.00000000000E+00  0.24562439727E+04  0.24562439727E+04  0.00000000000E+00 0.  1.
         21   -1    0    0  502  503 -0.00000000000E+00 -0.00000000000E+00 -0.12737995405E+03  0.12737995405E+03  0.00000000000E+00 0. -1.
         25    1    1    2    0    0  0.13309809743E+03  0.15922045138E+03  0.68798840381E+01  0.24236045156E+03  0.12500000000E+03 0.  0.
          1    1    1    2  501    0 -0.96643705235E+01 -0.15460399823E+03  0.84176545189E+03  0.85590003641E+03  0.00000000000E+00 0. -1.
         -1    1    1    2    0  503 -0.12343372690E+03 -0.46164531518E+01  0.14802186827E+04  0.14853634388E+04  0.00000000000E+00 0.  1.
<mgrwt>
<rscale>  4 0.23355239E+03</rscale>
<asrwt>0</asrwt>
<pdfrwt beam="1">  1       21 0.37788365E+00 0.23355239E+03</pdfrwt>
<pdfrwt beam="2">  1       21 0.19596918E-01 0.23355239E+03</pdfrwt>
<totfact> 0.26828084E+02</totfact>
</mgrwt>
</event>
<event>
 5    0  0.1972558E-002  0.3521983E+03  0.7546771E-02  0.1061716E+00
         21   -1    0    0  501  502  0.00000000000E+00  0.00000000000E+00  0.14281934828E+03  0.14281934828E+03  0.00000000000E+00 0. -1.
         21   -1    0    0  502  503 -0.00000000000E+00 -0.00000000000E+00 -0.29888476350E+04  0.29888476350E+04  0.00000000000E+00 0. -1.
         25    1    1    2    0    0 -0.25124852113E+03 -0.21646612059E+03 -0.23744847583E+04  0.24007886762E+04  0.12500000000E+03 0.  0.
          1    1    1    2  501    0 -0.44802134277E+02  0.72130744642E+02  0.61113340803E+02  0.10461795249E+03  0.00000000000E+00 0. -1.
         -1    1    1    2    0  503  0.29605065541E+03  0.14433537595E+03 -0.53265686929E+03  0.62626035458E+03  0.00000000000E+00 0.  1.
<mgrwt>
<rscale>  4 0.35219827E+03</rscale>
<asrwt>0</asrwt>
<pdfrwt beam="1">  1       21 0.21972208E-01 0.35219827E+03</pdfrwt>
<pdfrwt beam="2">  1       21 0.45982270E+00 0.35219827E+03</pdfrwt>
<totfact> 0.55662630E+01</totfact>
</mgrwt>
</event>
<event>
 5    0  0.1972558E-002  0.3077684E+03  0.7546771E-02  0.1081420E+00
         21   -1    0    0  501  502  0.00000000000E+00  0.00000000000E+00  0.45916722498E+03  0.45916722498E+03  0.00000000000E+00 0. -1.
         21   -1    0    0  502  503 -0.00000000000E+00 -0.00000000000E+00 -0.30996265057E+03  0.30996265057E+03  0.00000000000E+00 0. -1.
         25    1    1    2    0    0 -0.50207362970E+02  0.27606907511E+03  0.13442173239E+03  0.33530451185E+03  0.12500000000E+03 0.  0.
          4    1    1    2  501    0  0.20838818222E+02 -0.28118778138E+03 -0.11214589156E+03  0.30344278824E+03  0.00000000000E+00 0. -1.
         -4    1    1    2    0  503  0.29368544748E+02  0.51187062746E+01  0.12692873358E+03  0.13038257545E+03  0.00000000000E+00 0.  1.
<mgrwt>
<rscale>  4 0.30776844E+03</rscale>
<asrwt>0</asrwt>
<pdfrwt beam="1">  1       21 0.70641112E-01 0.30776844E+03</pdfrwt>
<pdfrwt beam="2">  1       21 0.47686562E-01 0.30776844E+03</pdfrwt>
<totfact> 0.71353240E+03</totfact>
</mgrwt>
</event>
<event>
 5    0  0.1972558E-002  0.3131628E+03  0.7546771E-02  0.1078840E+00
         21   -1    0    0  501  502  0.00000000000E+00  0.00000000000E+00  0.60850692520E+03  0.60850692520E+03  0.00000000000E+00 0.  1.
         21   -1    0    0  502  503 -0.00000000000E+00 -0.00000000000E+00 -0.52873754737E+03  0.52873754737E+03  0.00000000000E+00 0. -1.
         25    1    1    2    0    0 -0.15866479147E+03  0.25381751264E+03 -0.27104416657E+03  0.42271478092E+03  0.12500000000E+03 0.  0.
          4    1    1    2  501    0  0.14088854646E+03 -0.23135955538E+03 -0.80247518110E+02  0.28251812429E+03  0.00000000000E+00 0. -1.
         -4    1    1    2    0  503  0.17776245012E+02 -0.22457957259E+02  0.43106106251E+03  0.43201156737E+03  0.00000000000E+00 0.  1.
<mgrwt>
<rscale>  4 0.31316279E+03</rscale>
<asrwt>0</asrwt>
<pdfrwt beam="1">  1       21 0.93616450E-01 0.31316279E+03</pdfrwt>
<pdfrwt beam="2">  1       21 0.81344238E-01 0.31316279E+03</pdfrwt>
<totfact> 0.11570716E+03</totfact>
</mgrwt>
</event>
<event>
 5    0  0.1972558E-002  0.2387289E+03  0.7546771E-02  0.1120643E+00
         21   -1    0    0  501  502  0.00000000000E+00  0.00000000000E+00  0.35160496604E+03  0.35160496604E+03  0.00000000000E+00 0.  1.
         21   -1    0    0  502  503 -0.00000000000E+00 -0.00000000000E+00 -0.21333014964E+03  0.21333014964E+03  0.00000000000E+00 0.  1.
         25    1    1    2    0    0 -0.74786828782E+02  0.19689540820E+03 -0.46200677373E+02  0.24923959179E+03  0.12500000000E+03 0.  0.
          2    1    1    2  501    0  0.28003676409E+02 -0.19292752710E+03  0.10012412984E+03  0.21915765554E+03  0.00000000000E+00 0.  1.
         -2    1    1    2    0  503  0.46783152373E+02 -0.39678810956E+01  0.84351363941E+02  0.96537868347E+02  0.00000000000E+00 0. -1.
<mgrwt>
<rscale>  4 0.23872887E+03</rscale>
<asrwt>0</asrwt>
<pdfrwt beam="1">  1       21 0.54093072E-01 0.23872887E+03</pdfrwt>
<pdfrwt beam="2">  1       21 0.32820023E-01 0.23872887E+03</pdfrwt>
<totfact> 0.28186460E+04</totfact>
</mgrwt>
</event>
<event>
 5    0  0.1972558E-002  0.3481272E+03  0.7546771E-02  0.1063386E+00
         21   -1    0    0  501  502  0.00000000000E+00  0.00000000000E+00  0.10517628843E+03  0.10517628843E+03  0.00000000000E+00 0. -1.
         21   -1    0    0  502  503 -0.00000000000E+00 -0.00000000000E+00 -0.28374371981E+04  0.28374371981E+04  0.00000000000E+00 0. -1.
         25    1    1    2    0    0  0.31095580238E+03  0.10358373792E+03 -0.21356341753E+04  0.21642507785E+04  0.12500000000E+03 0.  0.
          3    1    1    2  501    0 -0.25366382530E+02  0.40502949279E+02  0.42308509324E+02  0.63827519333E+02  0.00000000000E+00 0.  1.
         -3    1    1    2    0  503 -0.28558941985E+03 -0.14408668720E+03 -0.63893524370E+03  0.71453518864E+03  0.00000000000E+00 0. -1.
<mgrwt>
<rscale>  4 0.34812719E+03</rscale>
<asrwt>0</asrwt>
<pdfrwt beam="1">  1       21 0.16180966E-01 0.34812719E+03</pdfrwt>
<pdfrwt beam="2">  1       21 0.43652883E+00 0.34812719E+03</pdfrwt>
<totfact> 0.14252837E+02</totfact>
</mgrwt>
</event>
<event>
 5    0  0.1972558E-002  0.2361884E+03  0.7546771E-02  0.1122358E+00
         21   -1    0    0  501  502  0.00000000000E+00  0.00000000000E+00  0.24800189676E+03  0.24800189676E+03  0.00000000000E+00 0.  1.
         21   -1    0    0  502  503 -0.00000000000E+00 -0.00000000000E+00 -0.62722210583E+03  0.62722210583E+03  0.00000000000E+00 0. -1.
         25    1    1    2    0    0  0.18839746097E+03  0.68310832311E+02 -0.55106497318E+03  0.59954781109E+03  0.12500000000E+03 0.  0.
          1    1    1    2  501    0 -0.12845566053E+03 -0.44519969891E+02  0.64564559233E+02  0.15050404230E+03  0.00000000000E+00 0. -1.
         -1    1    1    2    0  503 -0.59941800445E+02 -0.23790862420E+02  0.10728020488E+03  0.12517214919E+03  0.00000000000E+00 0.  1.
<mgrwt>
<rscale>  4 0.23618843E+03</rscale>
<asrwt>0</asrwt>
<pdfrwt beam="1">  1       21 0.38154139E-01 0.23618843E+03</pdfrwt>
<pdfrwt beam="2">  1       21 0.96495706E-01 0.23618843E+03</pdfrwt>
<totfact> 0.57334652E+03</totfact>
</mgrwt>
</event>
<event>
 5    0  0.1972558E-002  0.2904286E+03  0.7546771E-02  0.1090126E+00
         21   -1    0    0  501  502  0.00000000000E+00  0.00000000000E+00  0.24745429404E+03  0.24745429404E+03  0.00000000000E+00 0. -1.
         21   -1    0    0  502  503 -0.00000000000E+00 -0.00000000000E+00 -0.18574863222E+04  0.18574863222E+04  0.00000000000E+00 0.  1.
         25    1    1    2    0    0 -0.21337960379E+02 -0.26299298360E+03 -0.16590390782E+04  0.16845344404E+04  0.12500000000E+03 0.  0.
          2    1    1    2  501    0 -0.18427946971E+02  0.14774635145E+02  0.14826626177E+03  0.15013581669E+03  0.00000000000E+00 0. -1.
         -2    1    1    2    0  503  0.39765907351E+02  0.24821834846E+03 -0.99259211698E+02  0.27027035909E+03  0.00000000000E+00 0.  1.
<mgrwt>
<rscale>  4 0.29042861E+03</rscale>
<asrwt>0</asrwt>
<pdfrwt beam="1">  1       21 0.38069890E-01 0.29042861E+03</pdfrwt>
<pdfrwt beam="2">  1       21 0.28576714E+00 0.29042861E+03</pdfrwt>
<totfact> 0.24386419E+02</totfact>
</mgrwt>
</event>
<event>
 5    0  0.1972558E-002  0.3198191E+03  0.7546771E-02  0.1075733E+00
         21   -1    0    0  501  502  0.00000000000E+00  0.00000000000E+00  0.51921745502E+03  0.51921745502E+03  0.00000000000E+00 0. -1.
         21   -1    0    0  502  503 -0.00000000000E+00 -0.00000000000E+00 -0.27975155894E+03  0.27975155894E+03  0.00000000000E+00 0.  1.
         25    1    1    2    0    0  0.28604782367E+03  0.81597333615E+02  0.28127181454E+02  0.32387902157E+03  0.12500000000E+03 0.  0.
          1    1    1    2  501    0 -0.29103235768E+03 -0.35657787652E+02  0.37955971028E+02  0.29565514840E+03  0.00000000000E+00 0.  1.
         -1    1    1    2    0  503  0.49845340129E+01 -0.45939545962E+02  0.17338274359E+03  0.17943484399E+03  0.00000000000E+00 0. -1.
<mgrwt>
<rscale>  4 0.31981914E+03</rscale>
<asrwt>0</asrwt>
<pdfrwt beam="1">  1       21 0.79879608E-01 0.31981914E+03</pdfrwt>
<pdfrwt beam="2">  1       21 0.43038701E-01 0.31981914E+03</pdfrwt>
<totfact> 0.66509871E+03</totfact>
</mgrwt>
</event>
<event>
 5    0  0.1972558E-002  0.2458557E+03  0.7546771E-02  0.1115952E+00
         21   -1    0    0  503  502  0.00000000000E+00  0.00000000000E+00  0.17386624845E+03  0.17386624845E+03  0.00000000000E+00 0. -1.
         21   -1    0    0  501  503 -0.00000000000E+00 -0.00000000000E+00 -0.87214347698E+03  0.87214347698E+03  0.00000000000E+00 0. -1.
         25    1    1    2    0    0  0.19952081421E+03 -0.70791621138E+02 -0.77913250514E+03  0.81700212331E+03  0.12500000000E+03 0.  0.
          3    1    1    2  501    0 -0.24794862041E+02  0.87034738569E+00  0.17774190705E+02  0.30519904053E+02  0.00000000000E+00 0.  1.
         -3    1    1    2    0  502 -0.17472595217E+03  0.69921273752E+02  0.63081085903E+02  0.19848769807E+03  0.00000000000E+00 0. -1.
<mgrwt>
<rscale>  4 0.24585567E+03</rscale>
<asrwt>0</asrwt>
<pdfrwt beam="1">  1       21 0.26748653E-01 0.24585567E+03</pdfrwt>
<pdfrwt beam="2">  1       21 0.13417592E+00 0.24585567E+03</pdfrwt>
<totfact> 0.51031073E+03</totfact>
</mgrwt>
</event>
<event>
 5    0  0.1972558E-002  0.2758305E+03  0.7546771E-02  0.1097988E+00
         21   -1    0    0  503  502  0.00000000000E+00  0.00000000000E+00  0.59465802746E+03  0.59465802746E+03  0.00000000000E+00 0. -1.
         21   -1    0    0  501  503 -0.00000000000E+00 -0.00000000000E+00 -0.12587115522E+03  0.12587115522E+03  0.00000000000E+00 0.  1.
         25    1    1    2    0    0  0.15173448263E+03  0.19347903674E+03  0.17375606513E+03  0.32599641263E+03  0.12500000000E+03 0.  0.
          4    1    1    2  501    0 -0.78779858687E+02 -0.35908331403E+02  0.12011191346E+03  0.14806264267E+03  0.00000000000E+00 0.  1.
         -4    1    1    2    0  502 -0.72954623947E+02 -0.15757070534E+03  0.17491889365E+03  0.24647012738E+03  0.00000000000E+00 0. -1.
<mgrwt>
<rscale>  4 0.27583055E+03</rscale>
<asrwt>0</asrwt>
<pdfrwt beam="1">  1       21 0.91485848E-01 0.27583055E+03</pdfrwt>
<pdfrwt beam="2">  1       21 0.19364794E-01 0.27583055E+03</pdfrwt>
<totfact> 0.23761308E+04</totfact>
</mgrwt>
</event>
<event>
 5    0  0.1972558E-002  0.2946408E+03  0.7546771E-02  0.1087951E+00
         21   -1    0    0  501  502  0.00000000000E+00  0.00000000000E+00  0.45932630938E+03  0.45932630938E+03  0.00000000000E+00 0.  1.
         21   -1    0    0  502  503 -0.00000000000E+00 -0.00000000000E+00 -0.75763591452E+03  0.75763591452E+03  0.00000000000E+00 0.  1.
         25    1    1    2    0    0  0.27209452859E+03 -0.47850963073E+02 -0.64609992432E+03  0.71371931413E+03  0.12500000000E+03 0.  0.
          1    1    1    2  501    0 -0.20986185420E+03  0.73007180220E+02  0.94934510090E+02  0.24162906989E+03  0.00000000000E+00 0.  1.
         -1    1    1    2    0  503 -0.62232674392E+02 -0.25156217147E+02  0.25285580910E+03  0.26161383988E+03  0.00000000000E+00 0. -1.
<mgrwt>
<rscale>  4 0.29464084E+03</rscale>
<asrwt>0</asrwt>
<pdfrwt beam="1">  1       21 0.70665587E-01 0.29464084E+03</pdfrwt>
<pdfrwt beam="2">  1       21 0.11655937E+00 0.29464084E+03</pdfrwt>
<totfact> 0.94594869E+02</totfact>
</mgrwt>
</event>
<event>
 5    0  0.1972558E-002  0.2877063E+03  0.7546771E-02  0.1091553E+00
         21   -1    0    0  503  502  0.00000000000E+00  0.00000000000E+00  0.55755874610E+03  0.55755874610E+03  0.00000000000E+00 0. -1.
         21   -1    0    0  501  503 -0.00000000000E+00 -0.00000000000E+00 -0.27465824233E+03  0.27465824233E+03  0.00000000000E+00 0. -1.
         25    1    1    2    0    0 -0.89978566596E+02 -0.23934115079E+03 -0.10958813942E+03  0.30498342448E+03  0.12500000000E+03 0.  0.
          4    1    1    2  501    0 -0.71174484194E+02  0.11075437047E+02  0.68571999125E+02  0.99451453333E+02  0.00000000000E+00 0.  1.
         -4    1    1    2    0  502  0.16115305079E+03  0.22826571374E+03  0.32391664407E+03  0.42778211061E+03  0.00000000000E+00 0. -1.
<mgrwt>
<rscale>  4 0.28770625E+03</rscale>
<asrwt>0</asrwt>
<pdfrwt beam="1">  1       21 0.85778268E-01 0.28770625E+03</pdfrwt>
<pdfrwt beam="2">  1       21 0.42255114E-01 0.28770625E+03</pdfrwt>
<totfact> 0.59540118E+03</totfact>
</mgrwt>
</event>
<event>
 5    0  0.1972558E-002  0.2596316E+03  0.7546771E-02  0.1107365E+00
         21   -1    0    0  501  502  0.00000000000E+00  0.00000000000E+00  0.22959996286E+03  0.22959996286E+03  0.00000000000E+00 0.  1.
         21   -1    0    0  502  503 -0.00000000000E+00 -0.00000000000E+00 -0.32995621402E+03  0.32995621402E+03  0.00000000000E+00 0. -1.
         25    1    1    2    0    0 -0.23774348171E+03  0.54640013990E+02 -0.38230649936E+02  0.27675634919E+03  0.12500000000E+03 0.  0.
          3    1    1    2  501    0  0.20722649796E+02 -0.32207761991E+02  0.27273558846E+02  0.47017179405E+02  0.00000000000E+00 0. -1.
         -3    1    1    2    0  503  0.21702083191E+03 -0.22432251998E+02 -0.89399160070E+02  0.23578264829E+03  0.00000000000E+00 0.  1.
<mgrwt>
<rscale>  4 0.25963165E+03</rscale>
<asrwt>0</asrwt>
<pdfrwt beam="1">  1       21 0.35323071E-01 0.25963165E+03</pdfrwt>
<pdfrwt beam="2">  1       21 0.50762494E-01 0.25963165E+03</pdfrwt>
<totfact> 0.27589455E+04</totfact>
</mgrwt>
</event>
<event>
 5    0  0.1972558E-002  0.2598047E+03  0.7546771E-02  0.1107261E+00
         21   -1    0    0  501  502  0.00000000000E+00  0.00000000000E+00  0.27045152661E+03  0.27045152661E+03  0.00000000000E+00 0.  1.
         21   -1    0    0  502  503 -0.00000000000E+00 -0.00000000000E+00 -0.43233173077E+03  0.43233173077E+03  0.00000000000E+00 0.  1.
         25    1    1    2    0    0 -0.18365590567E+03 -0.14073179779E+03 -0.31598447918E+03  0.41110354131E+03  0.12500000000E+03 0.  0.
          3    1    1    2  501    0  0.17961496842E+03  0.11798712896E+03  0.10890834803E+03  0.24092224420E+03  0.00000000000E+00 0.  1.
         -3    1    1    2    0  503  0.40409372529E+01  0.22744668830E+02  0.45195926989E+02  0.50757471868E+02  0.00000000000E+00 0. -1.
<mgrwt>
<rscale>  4 0.25980468E+03</rscale>
<asrwt>0</asrwt>
<pdfrwt beam="1">  1       21 0.41607928E-01 0.25980468E+03</pdfrwt>
<pdfrwt beam="2">  1       21 0.66512573E-01 0.25980468E+03</pdfrwt>
<totfact> 0.11072711E+04</totfact>
</mgrwt>
</event>
<event>
 5    0  0.1972558E-002  0.2481950E+03  0.7546771E-02  0.1114451E+00
         21   -1    0    0  503  502  0.00000000000E+00  0.00000000000E+00  0.83088080589E+02  0.83088080589E+02  0.00000000000E+00 0.  1.
         21   -1    0    0  501  503 -0.00000000000E+00 -0.00000000000E+00 -0.12544594731E+04  0.12544594731E+04  0.00000000000E+00 0. -1.
         25    1    1    2    0    0 -0.19234372691E+03  0.10338944344E+03 -0.75515792469E+03  0.79597360353E+03  0.12500000000E+03 0.  0.
          1    1    1    2  501    0 -0.33823048088E+02 -0.10938954330E+03 -0.18866606435E+03  0.22069199035E+03  0.00000000000E+00 0. -1.
         -1    1    1    2    0  502  0.22616677500E+03  0.60000998613E+01 -0.22754740349E+03  0.32088195983E+03  0.00000000000E+00 0.  1.
<mgrwt>
<rscale>  4 0.24819504E+03</rscale>
<asrwt>0</asrwt>
<pdfrwt beam="1">  1       21 0.12782782E-01 0.24819504E+03</pdfrwt>
<pdfrwt beam="2">  1       21 0.19299376E+00 0.24819504E+03</pdfrwt>
<totfact> 0.74801897E+03</totfact>
</mgrwt>
</event>
<event>
 5    0  0.1972558E-002  0.2489008E+03  0.7546771E-02  0.1114001E+00
         21   -1    0    0  501  502  0.00000000000E+00  0.00000000000E+00  0.75907669365E+03  0.75907669365E+03  0.00000000000E+00 0. -1.
         21   -1    0    0  502  503 -0.00000000000E+00 -0.00000000000E+00 -0.35451468060E+03  0.35451468060E+03  0.00000000000E+00 0.  1.
         25    1    1    2    0    0 -0.17545201683E+03 -0.16609046452E+03 -0.26412997501E+03  0.37915576788E+03  0.12500000000E+03 0.  0.
          3    1    1    2  501    0  0.17499089052E+03  0.12312719394E+03  0.65542758993E+03  0.68946895746E+03  0.00000000000E+00 0. -1.
         -3    1    1    2    0  503  0.46112631634E+00  0.42963270585E+02  0.13264398132E+02  0.44966648915E+02  0.00000000000E+00 0.  1.
<mgrwt>
<rscale>  4 0.24890082E+03</rscale>
<asrwt>0</asrwt>
<pdfrwt beam="1">  1       21 0.11678103E+00 0.24890082E+03</pdfrwt>
<pdfrwt beam="2">  1       21 0.54540720E-01 0.24890082E+03</pdfrwt>
<totfact> 0.17095522E+03</totfact>
</mgrwt>
</event>
<event>
 5    0  0.1972558E-002  0.2495250E+03  0.7546771E-02  0.1113605E+00
         21   -1    0    0  501  502  0.00000000000E+00  0.00000000000E+00  0.25209451889E+03  0.25209451889E+03  0.00000000000E+00 0.  1.
         21   -1    0    0  502  503 -0.00000000000E+00 -0.00000000000E+00 -0.91641592619E+03  0.91641592619E+03  0.00000000000E+00 0.  1.
         25    1    1    2    0    0  0.19774893936E+03 -0.14748029273E+03 -0.75250804696E+03  0.80171593504E+03  0.12500000000E+03 0.  0.
          1    1    1    2  501    0 -0.65495357103E+02  0.63918169516E+02  0.16789592744E+03  0.19121772053E+03  0.00000000000E+00 0.  1.
         -1    1    1    2    0  503 -0.13225358226E+03  0.83562123210E+02 -0.79709287781E+02  0.17557678951E+03  0.00000000000E+00 0. -1.
<mgrwt>
<rscale>  4 0.24952497E+03</rscale>
<asrwt>0</asrwt>
<pdfrwt beam="1">  1       21 0.38783772E-01 0.24952497E+03</pdfrwt>
<pdfrwt beam="2">  1       21 0.14098707E+00 0.24952497E+03</pdfrwt>
<totfact> 0.21474907E+03</totfact>
</mgrwt>
</event>
<event>
 5    0  0.1972558E-002  0.2365588E+03  0.7546771E-02  0.1122107E+00
         21   -1    0    0  501  502  0.00000000000E+00  0.00000000000E+00  0.30830373803E+03  0.30830373803E+03  0.00000000000E+00 0. -1.
         21   -1    0    0  502  503 -0.00000000000E+00 -0.00000000000E+00 -0.91213735521E+03  0.91213735521E+03  0.00000000000E+00 0. -1.
         25    1    1    2    0    0 -0.18168172602E+03  0.95353233977E+02 -0.84139441838E+03  0.87502574596E+03  0.12500000000E+03 0.  0.
          3    1    1    2  501    0  0.13446247368E+03 -0.36432469478E+02  0.23082755074E+03  0.26960867909E+03  0.00000000000E+00 0. -1.
         -3    1    1    2    0  503  0.47219252346E+02 -0.58920764499E+02  0.67332504693E+01  0.75806668197E+02  0.00000000000E+00 0.  1.
<mgrwt>
<rscale>  4 0.23655876E+03</rscale>
<asrwt>0</asrwt>
<pdfrwt beam="1">  1       21 0.47431346E-01 0.23655876E+03</pdfrwt>
<pdfrwt beam="2">  1       21 0.14032882E+00 0.23655876E+03</pdfrwt>
<totfact> 0.14528556E+03</totfact>
</mgrwt>
</event>
<event>
 5    0  0.1972558E-002  0.2517927E+03  0.7546771E-02  0.1112177E+00
         21   -1    0    0  501  502  0.00000000000E+00  0.00000000000E+00  0.38657420004E+02  0.38657420004E+02  0.00000000000E+00 0. -1.
         21   -1    0    0  502  503 -0.00000000000E+00 -0.00000000000E+00 -0.29960207482E+04  0.29960207482E+04  0.00000000000E+00 0. -1.
         25    1    1    2    0    0  0.21464596613E+03  0.11910707790E+02 -0.20550481792E+04  0.20700393172E+04  0.12500000000E+03 0.  0.
          1    1    1    2  501    0 -0.22564160785E+03  0.83795838127E+01 -0.91205497987E+03  0.93958961197E+03  0.00000000000E+00 0. -1.
         -1    1    1    2    0  503  0.10995641720E+02 -0.20290291603E+02  0.97398309140E+01  0.25049239038E+02  0.00000000000E+00 0.  1.
<mgrwt>
<rscale>  4 0.25179270E+03</rscale>
<asrwt>0</asrwt>
<pdfrwt beam="1">  1       21 0.59472953E-02 0.25179270E+03</pdfrwt>
<pdfrwt beam="2">  1       21 0.46092628E+00 0.25179270E+03</pdfrwt>
<totfact> 0.64707391E+02</totfact>
</mgrwt>
</event>
<event>
 5    0  0.1972558E-002  0.5484696E+03  0.7546771E-02  0.1001849E+00
         21   -1    0    0  501  502  0.00000000000E+00  0.00000000000E+00  0.64036923222E+03  0.64036923222E+03  0.00000000000E+00 0. -1.
         21   -1    0    0  502  503 -0.00000000000E+00 -0.00000000000E+00 -0.88534093229E+03  0.88534093229E+03  0.00000000000E+00 0. -1.
         25    1    1    2    0    0  0.42862757971E+03 -0.31854714235E+03 -0.65161693555E+03  0.85171797838E+03  0.12500000000E+03 0.  0.
          3    1    1    2  501    0 -0.39920689722E+03  0.29481854941E+03  0.35580013173E+03  0.61063725534E+03  0.00000000000E+00 0. -1.
         -3    1    1    2    0  503 -0.29420682497E+02  0.23728592940E+02  0.50845103741E+02  0.63354930794E+02  0.00000000000E+00 0.  1.
<mgrwt>
<rscale>  4 0.54846958E+03</rscale>
<asrwt>0</asrwt>
<pdfrwt beam="1">  1       21 0.98518343E-01 0.54846958E+03</pdfrwt>
<pdfrwt beam="2">  1       21 0.13620630E+00 0.54846958E+03</pdfrwt>
<totfact> 0.25740958E+02</totfact>
</mgrwt>
</event>
<event>
 5    0  0.1972558E-002  0.2535674E+03  0.7546771E-02  0.1111071E+00
         21   -1    0    0  501  502  0.00000000000E+00  0.00000000000E+00  0.89983823610E+03  0.89983823610E+03  0.00000000000E+00 0.  1.
         21   -1    0    0  502  503 -0.00000000000E+00 -0.00000000000E+00 -0.37968298107E+03  0.37968298107E+03  0.00000000000E+00 0. -1.
         25    1    1    2    0    0 -0.19340617735E+03 -0.10811881048E+03 -0.31396292135E+03  0.40409570970E+03  0.12500000000E+03 0.  0.
          4    1    1    2  501    0  0.17425997361E+03  0.11667640599E+03  0.52125204399E+03  0.56185729103E+03  0.00000000000E+00 0.  1.
         -4    1    1    2    0  503  0.19146203743E+02 -0.85575955058E+01  0.31286613239E+03  0.31356821643E+03  0.00000000000E+00 0. -1.
<mgrwt>
<rscale>  4 0.25356740E+03</rscale>
<asrwt>0</asrwt>
<pdfrwt beam="1">  1       21 0.13843665E+00 0.25356740E+03</pdfrwt>
<pdfrwt beam="2">  1       21 0.58412767E-01 0.25356740E+03</pdfrwt>
<totfact> 0.95587109E+02</totfact>
</mgrwt>
</event>
<event>
 5    0  0.1972558E-002  0.2599951E+03  0.7546771E-02  0.1107146E+00
         21   -1    0    0  501  502  0.00000000000E+00  0.00000000000E+00  0.89354276025E+03  0.89354276025E+03  0.00000000000E+00 0.  1.
         21   -1    0    0  502  503 -0.00000000000E+00 -0.00000000000E+00 -0.14382668366E+03  0.14382668366E+03  0.00000000000E+00 0.  1.
         25    1    1    2    0    0 -0.13422439332E+03  0.19780735843E+03  0.89973513442E+02  0.28436626371E+03  0.12500000000E+03 0.  0.
          2    1    1    2  501    0  0.88861935451E+01 -0.25014508021E+02  0.45966761736E+03  0.46043350062E+03  0.00000000000E+00 0. -1.
         -2    1    1    2    0  503  0.12533819978E+03 -0.17279285041E+03  0.20007494579E+03  0.29256967958E+03  0.00000000000E+00 0.  1.
<mgrwt>
<rscale>  4 0.25999512E+03</rscale>
<asrwt>0</asrwt>
<pdfrwt beam="1">  1       21 0.13746811E+00 0.25999512E+03</pdfrwt>
<pdfrwt beam="2">  1       21 0.22127183E-01 0.25999512E+03</pdfrwt>
<totfact> 0.68346369E+03</totfact>
</mgrwt>
</event>
<event>
 5    0  0.1972558E-002  0.2889289E+03  0.7546771E-02  0.1090910E+00
         21   -1    0    0  501  502  0.00000000000E+00  0.00000000000E+00  0.19921238936E+04  0.19921238936E+04  0.00000000000E+00 0.  1.
         21   -1    0    0  502  503 -0.00000000000E+00 -0.00000000000E+00 -0.53595963711E+02  0.53595963711E+02  0.00000000000E+00 0.  1.
         25    1    1    2    0    0  0.18031611286E+02  0.24930524930E+03  0.54148691425E+03  0.60935320187E+03  0.12500000000E+03 0.  0.
          3    1    1    2  501    0 -0.61918483497E+02 -0.25819719373E+03  0.13265052917E+04  0.13528177920E+04  0.00000000000E+00 0.  1.
         -3    1    1    2    0  503  0.43886872211E+02  0.88919444323E+01  0.70535723897E+02  0.83548863391E+02  0.00000000000E+00 0. -1.
<mgrwt>
<rscale>  4 0.28892888E+03</rscale>
<asrwt>0</asrwt>
<pdfrwt beam="1">  1       21 0.30648054E+00 0.28892888E+03</pdfrwt>
<pdfrwt beam="2">  1       21 0.82455344E-02 0.28892888E+03</pdfrwt>
<totfact> 0.32408619E+03</totfact>
</mgrwt>
</event>
<event>
 5    0  0.1972558E-002  0.5513794E+03  0.7546771E-02  0.1001175E+00
         21   -1    0    0  501  502  0.00000000000E+00  0.00000000000E+00  0.30404620821E+03  0.30404620821E+03  0.00000000000E+00 0. -1.
         21   -1    0    0  502  503 -0.00000000000E+00 -0.00000000000E+00 -0.15382743723E+04  0.15382743723E+04  0.00000000000E+00 0.  1.
         25    1    1    2    0    0  0.25687483608E+03  0.45091577159E+03 -0.74798450384E+03  0.91892085212E+03  0.12500000000E+03 0.  0.
          2    1    1    2  501    0 -0.28910703711E+03 -0.48059976202E+03 -0.58801187372E+03  0.81259890093E+03  0.00000000000E+00 0.  1.
         -2    1    1    2    0  503  0.32232201036E+02  0.29683990428E+02  0.10176821352E+03  0.11080082741E+03  0.00000000000E+00 0. -1.
<mgrwt>
<rscale>  4 0.55137942E+03</rscale>
<asrwt>0</asrwt>
<pdfrwt beam="1">  1       21 0.46776338E-01 0.55137942E+03</pdfrwt>
<pdfrwt beam="2">  1       21 0.23665760E+00 0.55137942E+03</pdfrwt>
<totfact> 0.26740284E+02</totfact>
</mgrwt>
</event>
<event>
 5    0  0.1972558E-002  0.2421958E+03  0.7546771E-02  0.1118339E+00
         21   -1    0    0  503  502  0.00000000000E+00  0.00000000000E+00  0.58576040837E+02  0.58576040837E+02  0.00000000000E+00 0. -1.
         21   -1    0    0  501  503 -0.00000000000E+00 -0.00000000000E+00 -0.24005372250E+04  0.24005372250E+04  0.00000000000E+00 0. -1.
         25    1    1    2    0    0 -0.43368308511E+02  0.20357275506E+03 -0.20844092135E+04  0.20985017146E+04  0.12500000000E+03 0.  0.
          3    1    1    2  501    0 -0.37336988419E+02 -0.13114195443E+02 -0.16238841281E+02  0.42775376006E+02  0.00000000000E+00 0.  1.
         -3    1    1    2    0  502  0.80705296930E+02 -0.19045855962E+03 -0.24131312939E+03  0.31783617526E+03  0.00000000000E+00 0. -1.
<mgrwt>
<rscale>  4 0.24219583E+03</rscale>
<asrwt>0</asrwt>
<pdfrwt beam="1">  1       21 0.90116972E-02 0.24219583E+03</pdfrwt>
<pdfrwt beam="2">  1       21 0.36931348E+00 0.24219583E+03</pdfrwt>
<totfact> 0.12252585E+03</totfact>
</mgrwt>
</event>
<event>
 5    0  0.1972558E-002  0.2081935E+03  0.7546771E-02  0.1143005E+00
         21   -1    0    0  501  502  0.00000000000E+00  0.00000000000E+00  0.32017466855E+03  0.32017466855E+03  0.00000000000E+00 0. -1.
         21   -1    0    0  502  503 -0.00000000000E+00 -0.00000000000E+00 -0.18672508262E+04  0.18672508262E+04  0.00000000000E+00 0. -1.
         25    1    1    2    0    0 -0.13604259006E+03  0.17922432815E+03 -0.16527449205E+04  0.16726684424E+04  0.12500000000E+03 0.  0.
          2    1    1    2  501    0  0.10213195057E+03 -0.13048342851E+03  0.28289357225E+03  0.32785001703E+03  0.00000000000E+00 0. -1.
         -2    1    1    2    0  503  0.33910639491E+02 -0.48740899643E+02 -0.17722480946E+03  0.18690703534E+03  0.00000000000E+00 0.  1.
<mgrwt>
<rscale>  4 0.20819353E+03</rscale>
<asrwt>0</asrwt>
<pdfrwt beam="1">  1       21 0.49257641E-01 0.20819353E+03</pdfrwt>
<pdfrwt beam="2">  1       21 0.28726936E+00 0.20819353E+03</pdfrwt>
<totfact> 0.15518308E+02</totfact>
</mgrwt>
</event>
<event>
 5    0  0.1972558E-002  0.2645145E+03  0.7546771E-02  0.1104461E+00
         21   -1    0    0  501  502  0.00000000000E+00  0.00000000000E+00  0.18222482704E+04  0.18222482704E+04  0.00000000000E+00 0.  1.
         21   -1    0    0  502  503 -0.00000000000E+00 -0.00000000000E+00 -0.19930624737E+03  0.19930624737E+03  0.00000000000E+00 0. -1.
         25    1    1    2    0    0 -0.60583379221E+02  0.23536953075E+03 -0.43866473074E+02  0.27680034195E+03  0.12500000000E+03 0.  0.
          4    1    1    2  501    0  0.58463192536E+02 -0.20081077124E+03  0.24336026589E+03  0.32088491666E+03  0.00000000000E+00 0. -1.
         -4    1    1    2    0  503  0.21201866850E+01 -0.34558759508E+02  0.14234482302E+04  0.14238692592E+04  0.00000000000E+00 0.  1.
<mgrwt>
<rscale>  4 0.26451452E+03</rscale>
<asrwt>0</asrwt>
<pdfrwt beam="1">  1       21 0.28034588E+00 0.26451452E+03</pdfrwt>
<pdfrwt beam="2">  1       21 0.30662501E-01 0.26451452E+03</pdfrwt>
<totfact> 0.41484364E+02</totfact>
</mgrwt>
</event>
<event>
 5    0  0.1972558E-002  0.2633196E+03  0.7546771E-02  0.1105165E+00
         21   -1    0    0  503  502  0.00000000000E+00  0.00000000000E+00  0.78178333745E+03  0.78178333745E+03  0.00000000000E+00 0.  1.
         21   -1    0    0  501  503 -0.00000000000E+00 -0.00000000000E+00 -0.34508914073E+03  0.34508914073E+03  0.00000000000E+00 0. -1.
         25    1    1    2    0    0  0.22183823534E+03  0.73453668883E+02 -0.24053181656E+03  0.35789411690E+03  0.12500000000E+03 0.  0.
          1    1    1    2  501    0  0.11055921934E+02 -0.10817440603E+03  0.10931505073E+03  0.15418727524E+03  0.00000000000E+00 0. -1.
         -1    1    1    2    0  502 -0.23289415728E+03  0.34720737145E+02  0.56791096255E+03  0.61479108604E+03  0.00000000000E+00 0.  1.
<mgrwt>
<rscale>  4 0.26331961E+03</rscale>
<asrwt>0</asrwt>
<pdfrwt beam="1">  1       21 0.12027436E+00 0.26331961E+03</pdfrwt>
<pdfrwt beam="2">  1       21 0.53090637E-01 0.26331961E+03</pdfrwt>
<totfact> 0.16648592E+03</totfact>
</mgrwt>
</event>
<event>
 5    0  0.1972558E-002  0.1847084E+03  0.7546771E-02  0.1163322E+00
         21   -1    0    0  501  502  0.00000000000E+00  0.00000000000E+00  0.74969637478E+03  0.74969637478E+03  0.00000000000E+00 0.  1.
         21   -1    0    0  502  503 -0.00000000000E+00 -0.00000000000E+00 -0.25960299645E+03  0.25960299645E+03  0.00000000000E+00 0.  1.
         25    1    1    2    0    0 -0.13564089236E+03 -0.16696412160E+03  0.53635282056E+03  0.59124852448E+03  0.12500000000E+03 0.  0.
          3    1    1    2  501    0  0.12826894247E+03  0.39649097673E+02 -0.18566002564E+03  0.22911703924E+03  0.00000000000E+00 0.  1.
         -3    1    1    2    0  503  0.73719498931E+01  0.12731502393E+03  0.13940058341E+03  0.18893380750E+03  0.00000000000E+00 0. -1.
<mgrwt>
<rscale>  4 0.18470841E+03</rscale>
<asrwt>0</asrwt>
<pdfrwt beam="1">  1       21 0.11533790E+00 0.18470841E+03</pdfrwt>
<pdfrwt beam="2">  1       21 0.39938923E-01 0.18470841E+03</pdfrwt>
<totfact> 0.35410714E+03</totfact>
</mgrwt>
</event>
<event>
 5    0  0.1972558E-002  0.2770187E+03  0.7546771E-02  0.1097328E+00
         21   -1    0    0  503  502  0.00000000000E+00  0.00000000000E+00  0.85164029622E+03  0.85164029622E+03  0.00000000000E+00 0. -1.
         21   -1    0    0  501  503 -0.00000000000E+00 -0.00000000000E+00 -0.16110813962E+03  0.16110813962E+03  0.00000000000E+00 0.  1.
         25    1    1    2    0    0 -0.17957310646E+03 -0.20933406861E+03  0.16333961683E+03  0.34405244262E+03  0.12500000000E+03 0.  0.
          1    1    1    2  501    0  0.90690889881E+02 -0.15908402380E+02  0.39736197452E+01  0.92161295713E+02  0.00000000000E+00 0.  1.
         -1    1    1    2    0  502  0.88882216583E+02  0.22524247099E+03  0.52321892002E+03  0.57653469751E+03  0.00000000000E+00 0. -1.
<mgrwt>
<rscale>  4 0.27701870E+03</rscale>
<asrwt>0</asrwt>
<pdfrwt beam="1">  1       21 0.13102158E+00 0.27701870E+03</pdfrwt>
<pdfrwt beam="2">  1       21 0.24785868E-01 0.27701870E+03</pdfrwt>
<totfact> 0.61640139E+03</totfact>
</mgrwt>
</event>
<event>
 5    0  0.1972558E-002  0.3120206E+03  0.7546771E-02  0.1079381E+00
         21   -1    0    0  501  502  0.00000000000E+00  0.00000000000E+00  0.68770100153E+03  0.68770100153E+03  0.00000000000E+00 0.  1.
         21   -1    0    0  502  503 -0.00000000000E+00 -0.00000000000E+00 -0.32607024451E+03  0.32607024451E+03  0.00000000000E+00 0. -1.
         25    1    1    2    0    0  0.47019017343E+02 -0.26016039123E+03  0.27201736834E+03  0.39939036773E+03  0.12500000000E+03 0.  0.
          3    1    1    2  501    0  0.48989218841E+01 -0.26245873941E+02  0.27041162282E+03  0.27172650053E+03  0.00000000000E+00 0.  1.
         -3    1    1    2    0  503 -0.51917939227E+02  0.28640626517E+03 -0.18079823414E+03  0.34265437778E+03  0.00000000000E+00 0. -1.
<mgrwt>
<rscale>  4 0.31202060E+03</rscale>
<asrwt>0</asrwt>
<pdfrwt beam="1">  1       21 0.10580015E+00 0.31202060E+03</pdfrwt>
<pdfrwt beam="2">  1       21 0.50164653E-01 0.31202060E+03</pdfrwt>
<totfact> 0.24976602E+03</totfact>
</mgrwt>
</event>
<event>
 5    0  0.1972558E-002  0.2185570E+03  0.7546771E-02  0.1134963E+00
         21   -1    0    0  501  502  0.00000000000E+00  0.00000000000E+00  0.92119371363E+02  0.92119371363E+02  0.00000000000E+00 0.  1.
         21   -1    0    0  502  503 -0.00000000000E+00 -0.00000000000E+00 -0.93059425789E+03  0.93059425789E+03  0.00000000000E+00 0.  1.
         25    1    1    2    0    0  0.15111790213E+03  0.14685397110E+03 -0.43747544307E+03  0.50141048300E+03  0.12500000000E+03 0.  0.
          1    1    1    2  501    0  0.23622520861E+02 -0.11587438124E+03 -0.28691613068E+03  0.31033169636E+03  0.00000000000E+00 0. -1.
         -1    1    1    2    0  503 -0.17474042299E+03 -0.30979589864E+02 -0.11408331277E+03  0.21097144989E+03  0.00000000000E+00 0.  1.
<mgrwt>
<rscale>  4 0.21855696E+03</rscale>
<asrwt>0</asrwt>
<pdfrwt beam="1">  1       21 0.14172211E-01 0.21855696E+03</pdfrwt>
<pdfrwt beam="2">  1       21 0.14316835E+00 0.21855696E+03</pdfrwt>
<totfact> 0.14427498E+04</totfact>
</mgrwt>
</event>
<event>
 5    0  0.1972558E-002  0.2514340E+03  0.7546771E-02  0.1112402E+00
         21   -1    0    0  501  502  0.00000000000E+00  0.00000000000E+00  0.63846057265E+03  0.63846057265E+03  0.00000000000E+00 0. -1.
         21   -1    0    0  502  503 -0.00000000000E+00 -0.00000000000E+00 -0.12740592361E+03  0.12740592361E+03  0.00000000000E+00 0. -1.
         25    1    1    2    0    0 -0.23035008640E+03  0.12918328311E+02  0.90206951999E+02  0.27747133131E+03  0.12500000000E+03 0.  0.
          1    1    1    2  501    0  0.33035746326E+02 -0.17235466316E+02  0.14175309677E+03  0.14656862652E+03  0.00000000000E+00 0.  1.
         -1    1    1    2    0  503  0.19731434008E+03  0.43171380056E+01  0.27909460027E+03  0.34182653843E+03  0.00000000000E+00 0. -1.
<mgrwt>
<rscale>  4 0.25143397E+03</rscale>
<asrwt>0</asrwt>
<pdfrwt beam="1">  1       21 0.98224702E-01 0.25143397E+03</pdfrwt>
<pdfrwt beam="2">  1       21 0.19600912E-01 0.25143397E+03</pdfrwt>
<totfact> 0.19861133E+04</totfact>
</mgrwt>
</event>
<event>
 5    0  0.1972558E-002  0.2766183E+03  0.7546771E-02  0.1097550E+00
         21   -1    0    0  501  502  0.00000000000E+00  0.00000000000E+00  0.60092602902E+03  0.60092602902E+03  0.00000000000E+00 0. -1.
         21   -1    0    0  502  503 -0.00000000000E+00 -0.00000000000E+00 -0.12593828337E+04  0.12593828337E+04  0.00000000000E+00 0.  1.
         25    1    1    2    0    0 -0.21628652618E+03 -0.11488715612E+03 -0.10863526013E+04  0.11206096084E+04  0.12500000000E+03 0.  0.
          2    1    1    2  501    0 -0.21116107531E+02  0.11070872530E+02  0.47563182578E+03  0.47622902884E+03  0.00000000000E+00 0. -1.
         -2    1    1    2    0  503  0.23740263371E+03  0.10381628359E+03 -0.47736029128E+02  0.26347022547E+03  0.00000000000E+00 0.  1.
<mgrwt>
<rscale>  4 0.27661834E+03</rscale>
<asrwt>0</asrwt>
<pdfrwt beam="1">  1       21 0.92450158E-01 0.27661834E+03</pdfrwt>
<pdfrwt beam="2">  1       21 0.19375120E+00 0.27661834E+03</pdfrwt>
<totfact> 0.13199803E+02</totfact>
</mgrwt>
</event>
<event>
 5    0  0.1972558E-002  0.2277304E+03  0.7546771E-02  0.1128247E+00
         21   -1    0    0  501  502  0.00000000000E+00  0.00000000000E+00  0.84031892585E+03  0.84031892585E+03  0.00000000000E+00 0.  1.
         21   -1    0    0  502  503 -0.00000000000E+00 -0.00000000000E+00 -0.15119143918E+03  0.15119143918E+03  0.00000000000E+00 0.  1.
         25    1    1    2    0    0  0.14822252782E+03 -0.20405111176E+03  0.65752914842E+02  0.28905919770E+03  0.12500000000E+03 0.  0.
          2    1    1    2  501    0 -0.92895237079E+02  0.10425517204E+03  0.11344952830E+03  0.17991515067E+03  0.00000000000E+00 0. -1.
         -2    1    1    2    0  503 -0.55327290739E+02  0.99795939720E+02  0.50992504353E+03  0.52253601666E+03  0.00000000000E+00 0.  1.
<mgrwt>
<rscale>  4 0.22773044E+03</rscale>
<asrwt>0</asrwt>
<pdfrwt beam="1">  1       21 0.12927983E+00 0.22773044E+03</pdfrwt>
<pdfrwt beam="2">  1       21 0.23260222E-01 0.22773044E+03</pdfrwt>
<totfact> 0.74235740E+03</totfact>
</mgrwt>
</event>
<event>
 5    0  0.1972558E-002  0.2647954E+03  0.7546771E-02  0.1104296E+00
         21   -1    0    0  501  502  0.00000000000E+00  0.00000000000E+00  0.19979066072E+03  0.19979066072E+03  0.00000000000E+00 0.  1.
         21   -1    0    0  502  503 -0.00000000000E+00 -0.00000000000E+00 -0.39720787410E+03  0.39720787410E+03  0.00000000000E+00 0.  1.
         25    1    1    2    0    0 -0.23255038466E+03 -0.98625156233E+01 -0.53778384152E+02  0.26961836960E+03  0.12500000000E+03 0.  0.
          4    1    1    2  501    0  0.23396303868E+03 -0.27415041626E+02 -0.71515223829E+02  0.24618024944E+03  0.00000000000E+00 0.  1.
         -4    1    1    2    0  503 -0.14126540183E+01  0.37277557250E+02 -0.72123605408E+02  0.81199915781E+02  0.00000000000E+00 0. -1.
<mgrwt>
<rscale>  4 0.26479536E+03</rscale>
<asrwt>0</asrwt>
<pdfrwt beam="1">  1       21 0.30737025E-01 0.26479536E+03</pdfrwt>
<pdfrwt beam="2">  1       21 0.61108903E-01 0.26479536E+03</pdfrwt>
<totfact> 0.24405425E+04</totfact>
</mgrwt>
</event>
<event>
 5    0  0.1972558E-002  0.2527769E+03  0.7546771E-02  0.1111562E+00
         21   -1    0    0  503  502  0.00000000000E+00  0.00000000000E+00  0.11965105102E+04  0.11965105102E+04  0.00000000000E+00 0.  1.
         21   -1    0    0  501  503 -0.00000000000E+00 -0.00000000000E+00 -0.15970459184E+03  0.15970459184E+03  0.00000000000E+00 0. -1.
         25    1    1    2    0    0 -0.36189714596E+02 -0.25550959737E+03  0.24083943285E+02  0.28774969351E+03  0.12500000000E+03 0.  0.
          1    1    1    2  501    0 -0.52006664161E+02  0.57325354741E+02  0.81844902148E+02  0.11264758063E+03  0.00000000000E+00 0. -1.
         -1    1    1    2    0  502  0.88196378756E+02  0.19818424262E+03  0.93087707297E+03  0.95581782795E+03  0.00000000000E+00 0.  1.
<mgrwt>
<rscale>  4 0.25277689E+03</rscale>
<asrwt>0</asrwt>
<pdfrwt beam="1">  1       21 0.18407853E+00 0.25277689E+03</pdfrwt>
<pdfrwt beam="2">  1       21 0.24569938E-01 0.25277689E+03</pdfrwt>
<totfact> 0.25374274E+03</totfact>
</mgrwt>
</event>
<event>
 5    0  0.1972558E-002  0.2252211E+03  0.7546771E-02  0.1130049E+00
         21   -1    0    0  501  502  0.00000000000E+00  0.00000000000E+00  0.56929085067E+03  0.56929085067E+03  0.00000000000E+00 0.  1.
         21   -1    0    0  502  503 -0.00000000000E+00 -0.00000000000E+00 -0.22048819407E+03  0.22048819407E+03  0.00000000000E+00 0.  1.
         25    1    1    2    0    0  0.21909716920E+03 -0.10169044631E+02 -0.30681253753E+01  0.25247057732E+03  0.12500000000E+03 0.  0.
          2    1    1    2  501    0 -0.18012010060E+03 -0.33700314635E+02  0.41345404883E+03  0.45224242651E+03  0.00000000000E+00 0. -1.
         -2    1    1    2    0  503 -0.38977068596E+02  0.43869359265E+02 -0.61583266854E+02  0.85066040904E+02  0.00000000000E+00 0.  1.
<mgrwt>
<rscale>  4 0.22522107E+03</rscale>
<asrwt>0</asrwt>
<pdfrwt beam="1">  1       21 0.87583207E-01 0.22522107E+03</pdfrwt>
<pdfrwt beam="2">  1       21 0.33921261E-01 0.22522107E+03</pdfrwt>
<totfact> 0.91622675E+03</totfact>
</mgrwt>
</event>
<event>
 5    0  0.1972558E-002  0.2354562E+03  0.7546771E-02  0.1122857E+00
         21   -1    0    0  501  502  0.00000000000E+00  0.00000000000E+00  0.25659171932E+03  0.25659171932E+03  0.00000000000E+00 0.  1.
         21   -1    0    0  502  503 -0.00000000000E+00 -0.00000000000E+00 -0.44586481294E+03  0.44586481294E+03  0.00000000000E+00 0.  1.
         25    1    1    2    0    0 -0.76725872648E+02 -0.18938094631E+03 -0.23513798975E+03  0.33565886937E+03  0.12500000000E+03 0.  0.
          4    1    1    2  501    0  0.47173481795E+02  0.18910582162E+03 -0.99241228048E+02  0.21871252936E+03  0.00000000000E+00 0.  1.
         -4    1    1    2    0  503  0.29552390853E+02  0.27512469335E+00  0.14510612418E+03  0.14808513353E+03  0.00000000000E+00 0. -1.
<mgrwt>
<rscale>  4 0.23545622E+03</rscale>
<asrwt>0</asrwt>
<pdfrwt beam="1">  1       21 0.39475649E-01 0.23545622E+03</pdfrwt>
<pdfrwt beam="2">  1       21 0.68594587E-01 0.23545622E+03</pdfrwt>
<totfact> 0.11667683E+04</totfact>
</mgrwt>
</event>
<event>
 5    0  0.1972558E-002  0.2412993E+03  0.7546771E-02  0.1118930E+00
         21   -1    0    0  501  502  0.00000000000E+00  0.00000000000E+00  0.19128096030E+03  0.19128096030E+03  0.00000000000E+00 0. -1.
         21   -1    0    0  502  503 -0.00000000000E+00 -0.00000000000E+00 -0.40992612295E+03  0.40992612295E+03  0.00000000000E+00 0. -1.
         25    1    1    2    0    0 -0.10590095325E+03  0.16966796287E+03 -0.73331969214E+02  0.24699151247E+03  0.12500000000E+03 0.  0.
          3    1    1    2  501    0 -0.21263416769E+02 -0.25883946687E+01  0.58070409913E+02  0.61895114404E+02  0.00000000000E+00 0.  1.
         -3    1    1    2    0  503  0.12716437002E+03 -0.16707956820E+03 -0.20338360334E+03  0.29232045638E+03  0.00000000000E+00 0. -1.
<mgrwt>
<rscale>  4 0.24129933E+03</rscale>
<asrwt>0</asrwt>
<pdfrwt beam="1">  1       21 0.29427840E-01 0.24129933E+03</pdfrwt>
<pdfrwt beam="2">  1       21 0.63065557E-01 0.24129933E+03</pdfrwt>
<totfact> 0.25088386E+04</totfact>
</mgrwt>
</event>
<event>
 5    0  0.1972558E-002  0.2911483E+03  0.7546771E-02  0.1089751E+00
         21   -1    0    0  501  502  0.00000000000E+00  0.00000000000E+00  0.12790666930E+04  0.12790666930E+04  0.00000000000E+00 0.  1.
         21   -1    0    0  502  503 -0.00000000000E+00 -0.00000000000E+00 -0.10540142638E+03  0.10540142638E+03  0.00000000000E+00 0.  1.
         25    1    1    2    0    0  0.64280002685E+02 -0.32481506367E+03  0.53528980925E+03  0.64171405176E+03  0.12500000000E+03 0.  0.
          3    1    1    2  501    0 -0.41192021610E+02  0.23058018019E+03  0.58905401370E+03  0.63391532021E+03  0.00000000000E+00 0.  1.
         -3    1    1    2    0  503 -0.23087981075E+02  0.94234883485E+02  0.49321443686E+02  0.10883874743E+03  0.00000000000E+00 0. -1.
<mgrwt>
<rscale>  4 0.29114835E+03</rscale>
<asrwt>0</asrwt>
<pdfrwt beam="1">  1       21 0.19677948E+00 0.29114835E+03</pdfrwt>
<pdfrwt beam="2">  1       21 0.16215605E-01 0.29114835E+03</pdfrwt>
<totfact> 0.44433891E+03</totfact>
</mgrwt>
</event>
<event>
 5    0  0.1972558E-002  0.2412536E+03  0.7546771E-02  0.1118961E+00
         21   -1    0    0  501  502  0.00000000000E+00  0.00000000000E+00  0.24826420586E+04  0.24826420586E+04  0.00000000000E+00 0. -1.
         21   -1    0    0  502  503 -0.00000000000E+00 -0.00000000000E+00 -0.55806410825E+02  0.55806410825E+02  0.00000000000E+00 0.  1.
         25    1    1    2    0    0 -0.17272060391E+03  0.12985637183E+03  0.31742424084E+03  0.40382946028E+03  0.12500000000E+03 0.  0.
          2    1    1    2  501    0  0.47000575406E+02  0.11432442732E+02  0.13875815211E+04  0.13884243705E+04  0.00000000000E+00 0. -1.
         -2    1    1    2    0  503  0.12572002851E+03 -0.14128881456E+03  0.72182988586E+03  0.74619463869E+03  0.00000000000E+00 0.  1.
<mgrwt>
<rscale>  4 0.24125363E+03</rscale>
<asrwt>0</asrwt>
<pdfrwt beam="1">  1       21 0.38194485E+00 0.24125363E+03</pdfrwt>
<pdfrwt beam="2">  1       21 0.85856036E-02 0.24125363E+03</pdfrwt>
<totfact> 0.11181592E+03</totfact>
</mgrwt>
</event>
<event>
 5    0  0.1972558E-002  0.2993160E+03  0.7546771E-02  0.1085583E+00
         21   -1    0    0  501  502  0.00000000000E+00  0.00000000000E+00  0.81737691656E+03  0.81737691656E+03  0.00000000000E+00 0. -1.
         21   -1    0    0  502  503 -0.00000000000E+00 -0.00000000000E+00 -0.18094758116E+04  0.18094758116E+04  0.00000000000E+00 0. -1.
         25    1    1    2    0    0 -0.88368621432E+01  0.26855804270E+03 -0.15871103092E+04  0.16145419307E+04  0.12500000000E+03 0.  0.
          1    1    1    2  501    0  0.10351539618E+03 -0.29546783439E+03 -0.85641084834E+02  0.32457830152E+03  0.00000000000E+00 0.  1.
         -1    1    1    2    0  503 -0.94678534040E+02  0.26909791697E+02  0.68065249895E+03  0.68773249597E+03  0.00000000000E+00 0. -1.
<mgrwt>
<rscale>  4 0.29931602E+03</rscale>
<asrwt>0</asrwt>
<pdfrwt beam="1">  1       21 0.12575030E+00 0.29931602E+03</pdfrwt>
<pdfrwt beam="2">  1       21 0.27838089E+00 0.29931602E+03</pdfrwt>
<totfact> 0.18298194E+01</totfact>
</mgrwt>
</event>
<event>
 5    0  0.1972558E-002  0.2716003E+03  0.7546771E-02  0.1100367E+00
         21   -1    0    0  501  502  0.00000000000E+00  0.00000000000E+00  0.40263380352E+03  0.40263380352E+03  0.00000000000E+00 0. -1.
         21   -1    0    0  502  503 -0.00000000000E+00 -0.00000000000E+00 -0.66294649289E+03  0.66294649289E+03  0.00000000000E+00 0. -1.
         25    1    1    2    0    0 -0.12155085690E+03  0.20709635765E+03 -0.56226439185E+03  0.62404307424E+03  0.12500000000E+03 0.  0.
          3    1    1    2  501    0  0.81299831202E+02 -0.24055076291E+03  0.18736421336E+03  0.31556248278E+03  0.00000000000E+00 0. -1.
         -3    1    1    2    0  503  0.40251025701E+02  0.33454405258E+02  0.11458748911E+03  0.12597473938E+03  0.00000000000E+00 0.  1.
<mgrwt>
<rscale>  4 0.27160029E+03</rscale>
<asrwt>0</asrwt>
<pdfrwt beam="1">  1       21 0.61943663E-01 0.27160029E+03</pdfrwt>
<pdfrwt beam="2">  1       21 0.10199177E+00 0.27160029E+03</pdfrwt>
<totfact> 0.17800432E+03</totfact>
</mgrwt>
</event>
<event>
 5    0  0.1972558E-002  0.3344834E+03  0.7546771E-02  0.1069170E+00
         21   -1    0    0  503  502  0.00000000000E+00  0.00000000000E+00  0.54321192058E+03  0.54321192058E+03  0.00000000000E+00 0.  1.
         21   -1    0    0  501  503 -0.00000000000E+00 -0.00000000000E+00 -0.26337136179E+03  0.26337136179E+03  0.00000000000E+00 0.  1.
         25    1    1    2    0    0  0.24027203041E+03 -0.20097207988E+03  0.20520232180E+03  0.39478274831E+03  0.12500000000E+03 0.  0.
          4    1    1    2  501    0 -0.22856887839E+02 -0.18974443913E+02  0.97271859656E+02  0.10170684109E+03  0.00000000000E+00 0. -1.
         -4    1    1    2    0  502 -0.21741514257E+03  0.21994652379E+03 -0.22633622674E+02  0.31009369297E+03  0.00000000000E+00 0.  1.
<mgrwt>
<rscale>  4 0.33448338E+03</rscale>
<asrwt>0</asrwt>
<pdfrwt beam="1">  1       21 0.83571065E-01 0.33448338E+03</pdfrwt>
<pdfrwt beam="2">  1       21 0.40518671E-01 0.33448338E+03</pdfrwt>
<totfact> 0.67424533E+03</totfact>
</mgrwt>
</event>
<event>
 5    0  0.1972558E-002  0.2500079E+03  0.7546771E-02  0.1113300E+00
         21   -1    0    0  501  502  0.00000000000E+00  0.00000000000E+00  0.17775686011E+04  0.17775686011E+04  0.00000000000E+00 0.  1.
         21   -1    0    0  502  503 -0.00000000000E+00 -0.00000000000E+00 -0.58678456617E+02  0.58678456617E+02  0.00000000000E+00 0.  1.
         25    1    1    2    0    0 -0.20901563284E+03  0.67460906908E+02  0.27694027976E+03  0.37491255952E+03  0.12500000000E+03 0.  0.
          4    1    1    2  501    0  0.18812331312E+03 -0.84528291356E+02  0.11689014897E+04  0.11869566570E+04  0.00000000000E+00 0.  1.
         -4    1    1    2    0  503  0.20892319723E+02  0.17067384448E+02  0.27304837502E+03  0.27437784119E+03  0.00000000000E+00 0. -1.
<mgrwt>
<rscale>  4 0.25000789E+03</rscale>
<asrwt>0</asrwt>
<pdfrwt beam="1">  1       21 0.27347205E+00 0.25000789E+03</pdfrwt>
<pdfrwt beam="2">  1       21 0.90274562E-02 0.25000789E+03</pdfrwt>
<totfact> 0.44579938E+03</totfact>
</mgrwt>
</event>
<event>
 5    0  0.1972558E-002  0.2436946E+03  0.7546771E-02  0.1117356E+00
         21   -1    0    0  501  502  0.00000000000E+00  0.00000000000E+00  0.26953940313E+03  0.26953940313E+03  0.00000000000E+00 0. -1.
         21   -1    0    0  502  503 -0.00000000000E+00 -0.00000000000E+00 -0.44231792388E+03  0.44231792388E+03  0.00000000000E+00 0. -1.
         25    1    1    2    0    0  0.25245336711E+03  0.27791056872E+02 -0.24716996758E+03  0.37579653841E+03  0.12500000000E+03 0.  0.
          4    1    1    2  501    0 -0.13156240463E+03  0.88272438212E+02  0.53271941622E+02  0.16714840539E+03  0.00000000000E+00 0.  1.
         -4    1    1    2    0  503 -0.12089096248E+03 -0.11606349508E+03  0.21119505201E+02  0.16891238320E+03  0.00000000000E+00 0. -1.
<mgrwt>
<rscale>  4 0.24369463E+03</rscale>
<asrwt>0</asrwt>
<pdfrwt beam="1">  1       21 0.41467601E-01 0.24369463E+03</pdfrwt>
<pdfrwt beam="2">  1       21 0.68048911E-01 0.24369463E+03</pdfrwt>
<totfact> 0.10694012E+04</totfact>
</mgrwt>
</event>
<event>
 5    0  0.1972558E-002  0.3096330E+03  0.7546771E-02  0.1080522E+00
         21   -1    0    0  501  502  0.00000000000E+00  0.00000000000E+00  0.28734066362E+03  0.28734066362E+03  0.00000000000E+00 0. -1.
         21   -1    0    0  502  503 -0.00000000000E+00 -0.00000000000E+00 -0.43382423618E+03  0.43382423618E+03  0.00000000000E+00 0.  1.
         25    1    1    2    0    0  0.29185222931E+03 -0.27711784203E+02 -0.11826479265E+03  0.33993709406E+03  0.12500000000E+03 0.  0.
          4    1    1    2  501    0 -0.17331291109E+02  0.10536000987E+02  0.82325805168E+02  0.84787494154E+02  0.00000000000E+00 0. -1.
         -4    1    1    2    0  503 -0.27452093820E+03  0.17175783216E+02 -0.11054458508E+03  0.29644031158E+03  0.00000000000E+00 0.  1.
<mgrwt>
<rscale>  4 0.30963297E+03</rscale>
<asrwt>0</asrwt>
<pdfrwt beam="1">  1       21 0.44206256E-01 0.30963297E+03</pdfrwt>
<pdfrwt beam="2">  1       21 0.66742190E-01 0.30963297E+03</pdfrwt>
<totfact> 0.94720657E+03</totfact>
</mgrwt>
</event>
<event>
 5    0  0.1972558E-002  0.2633882E+03  0.7546771E-02  0.1105124E+00
         21   -1    0    0  503  502  0.00000000000E+00  0.00000000000E+00  0.36706894432E+03  0.36706894432E+03  0.00000000000E+00 0.  1.
         21   -1    0    0  501  503 -0.00000000000E+00 -0.00000000000E+00 -0.32934887357E+03  0.32934887357E+03  0.00000000000E+00 0. -1.
         25    1    1    2    0    0  0.87336924546E+02 -0.18954235602E+03 -0.18478638104E+03  0.30549148881E+03  0.12500000000E+03 0.  0.
          2    1    1    2  501    0  0.60758473262E+02  0.36569873024E+01 -0.60818634428E+01  0.61171518636E+02  0.00000000000E+00 0. -1.
         -2    1    1    2    0  502 -0.14809539781E+03  0.18588536872E+03  0.22858831524E+03  0.32975481045E+03  0.00000000000E+00 0.  1.
<mgrwt>
<rscale>  4 0.26338819E+03</rscale>
<asrwt>0</asrwt>
<pdfrwt beam="1">  1       21 0.56472145E-01 0.26338819E+03</pdfrwt>
<pdfrwt beam="2">  1       21 0.50669058E-01 0.26338819E+03</pdfrwt>
<totfact> 0.10476582E+04</totfact>
</mgrwt>
</event>
<event>
 5    0  0.1972558E-002  0.2689273E+03  0.7546771E-02  0.1101895E+00
         21   -1    0    0  501  502  0.00000000000E+00  0.00000000000E+00  0.30398828161E+03  0.30398828161E+03  0.00000000000E+00 0.  1.
         21   -1    0    0  502  503 -0.00000000000E+00 -0.00000000000E+00 -0.10728392169E+04  0.10728392169E+04  0.00000000000E+00 0. -1.
         25    1    1    2    0    0 -0.21432304383E+03  0.10997203887E+03 -0.95774635732E+03  0.99545532367E+03  0.12500000000E+03 0.  0.
          4    1    1    2  501    0  0.18824447946E+03 -0.11356434184E+03  0.31858025332E+02  0.22214359672E+03  0.00000000000E+00 0.  1.
         -4    1    1    2    0  503  0.26078564368E+02  0.35923029722E+01  0.15703739665E+03  0.15922857817E+03  0.00000000000E+00 0. -1.
<mgrwt>
<rscale>  4 0.26892733E+03</rscale>
<asrwt>0</asrwt>
<pdfrwt beam="1">  1       21 0.46767427E-01 0.26892733E+03</pdfrwt>
<pdfrwt beam="2">  1       21 0.16505219E+00 0.26892733E+03</pdfrwt>
<totfact> 0.94417216E+02</totfact>
</mgrwt>
</event>
<event>
 5    0  0.1972558E-002  0.2801812E+03  0.7546771E-02  0.1095590E+00
         21   -1    0    0  501  502  0.00000000000E+00  0.00000000000E+00  0.33313877329E+03  0.33313877329E+03  0.00000000000E+00 0. -1.
         21   -1    0    0  502  503 -0.00000000000E+00 -0.00000000000E+00 -0.34251757366E+03  0.34251757366E+03  0.00000000000E+00 0. -1.
         25    1    1    2    0    0 -0.50204864559E+02 -0.24567451917E+03 -0.20655456255E+03  0.34808947859E+03  0.12500000000E+03 0.  0.
          4    1    1    2  501    0  0.34272618097E+02  0.21848851110E+03  0.13845172269E+03  0.26092282643E+03  0.00000000000E+00 0. -1.
         -4    1    1    2    0  503  0.15932246462E+02  0.27186008062E+02  0.58724039494E+02  0.66644041940E+02  0.00000000000E+00 0.  1.
<mgrwt>
<rscale>  4 0.28018119E+03</rscale>
<asrwt>0</asrwt>
<pdfrwt beam="1">  1       21 0.51252119E-01 0.28018119E+03</pdfrwt>
<pdfrwt beam="2">  1       21 0.52695012E-01 0.28018119E+03</pdfrwt>
<totfact> 0.11754333E+04</totfact>
</mgrwt>
</event>
<event>
 5    0  0.1972558E-002  0.3560531E+03  0.7546771E-02  0.1060158E+00
         21   -1    0    0  501  502  0.00000000000E+00  0.00000000000E+00  0.90936593125E+03  0.90936593125E+03  0.00000000000E+00 0.  1.
         21   -1    0    0  502  503 -0.00000000000E+00 -0.00000000000E+00 -0.43850320617E+03  0.43850320617E+03  0.00000000000E+00 0.  1.
         25    1    1    2    0    0  0.17118714311E+03  0.28887257627E+03 -0.25120353515E+03  0.43758498530E+03  0.12500000000E+03 0.  0.
          4    1    1    2  501    0 -0.14009826406E+03 -0.29558115522E+03  0.19204851802E+03  0.37931303192E+03  0.00000000000E+00 0. -1.
         -4    1    1    2    0  503 -0.31088879049E+02  0.67085789487E+01  0.53001774221E+03  0.53097112021E+03  0.00000000000E+00 0.  1.
<mgrwt>
<rscale>  4 0.35605314E+03</rscale>
<asrwt>0</asrwt>
<pdfrwt beam="1">  1       21 0.13990245E+00 0.35605314E+03</pdfrwt>
<pdfrwt beam="2">  1       21 0.67462032E-01 0.35605314E+03</pdfrwt>
<totfact> 0.63295301E+02</totfact>
</mgrwt>
</event>
<event>
 5    0  0.1972558E-002  0.2946965E+03  0.7546771E-02  0.1087922E+00
         21   -1    0    0  501  502  0.00000000000E+00  0.00000000000E+00  0.73503558426E+02  0.73503558426E+02  0.00000000000E+00 0.  1.
         21   -1    0    0  502  503 -0.00000000000E+00 -0.00000000000E+00 -0.18470054394E+04  0.18470054394E+04  0.00000000000E+00 0.  1.
         25    1    1    2    0    0  0.26138960771E+03  0.75990694082E+02 -0.14206774708E+04  0.14519120458E+04  0.12500000000E+03 0.  0.
          3    1    1    2  501    0 -0.79844140333E+01 -0.50713585121E+02 -0.39157836257E+02  0.64567443217E+02  0.00000000000E+00 0. -1.
         -3    1    1    2    0  503 -0.25340519368E+03 -0.25277108962E+02 -0.31366657390E+03  0.40402950883E+03  0.00000000000E+00 0.  1.
<mgrwt>
<rscale>  4 0.29469646E+03</rscale>
<asrwt>0</asrwt>
<pdfrwt beam="1">  1       21 0.11308241E-01 0.29469646E+03</pdfrwt>
<pdfrwt beam="2">  1       21 0.28415465E+00 0.29469646E+03</pdfrwt>
<totfact> 0.24898994E+03</totfact>
</mgrwt>
</event>
<event>
 5    0  0.1972558E-002  0.2403332E+03  0.7546771E-02  0.1119571E+00
         21   -1    0    0  501  502  0.00000000000E+00  0.00000000000E+00  0.73046815928E+02  0.73046815928E+02  0.00000000000E+00 0.  1.
         21   -1    0    0  502  503 -0.00000000000E+00 -0.00000000000E+00 -0.10122977320E+04  0.10122977320E+04  0.00000000000E+00 0. -1.
         25    1    1    2    0    0  0.19839751421E+03  0.57190866887E+02 -0.56879116361E+03  0.61788409649E+03  0.12500000000E+03 0.  0.
          2    1    1    2  501    0 -0.20196155638E+03 -0.33519409128E+02 -0.38737739281E+03  0.43814753851E+03  0.00000000000E+00 0.  1.
         -2    1    1    2    0  503  0.35640421656E+01 -0.23671457758E+02  0.16917640347E+02  0.29312912920E+02  0.00000000000E+00 0. -1.
<mgrwt>
<rscale>  4 0.24033315E+03</rscale>
<asrwt>0</asrwt>
<pdfrwt beam="1">  1       21 0.11237973E-01 0.24033315E+03</pdfrwt>
<pdfrwt beam="2">  1       21 0.15573810E+00 0.24033315E+03</pdfrwt>
<totfact> 0.17310590E+04</totfact>
</mgrwt>
</event>
<event>
 5    0  0.1972558E-002  0.2620226E+03  0.7546771E-02  0.1105934E+00
         21   -1    0    0  501  502  0.00000000000E+00  0.00000000000E+00  0.24346251827E+03  0.24346251827E+03  0.00000000000E+00 0.  1.
         21   -1    0    0  502  503 -0.00000000000E+00 -0.00000000000E+00 -0.46976689840E+03  0.46976689840E+03  0.00000000000E+00 0. -1.
         25    1    1    2    0    0 -0.21016179294E+03 -0.94142727976E+02 -0.35739740266E+03  0.44315768736E+03  0.12500000000E+03 0.  0.
          1    1    1    2  501    0  0.15926940371E+03  0.72767290642E+02  0.72349450544E+02  0.18946309545E+03  0.00000000000E+00 0. -1.
         -1    1    1    2    0  503  0.50892389234E+02  0.21375437334E+02  0.58743571986E+02  0.80608633860E+02  0.00000000000E+00 0.  1.
<mgrwt>
<rscale>  4 0.26202258E+03</rscale>
<asrwt>0</asrwt>
<pdfrwt beam="1">  1       21 0.37455772E-01 0.26202258E+03</pdfrwt>
<pdfrwt beam="2">  1       21 0.72271830E-01 0.26202258E+03</pdfrwt>
<totfact> 0.11389039E+04</totfact>
</mgrwt>
</event>
<event>
 5    0  0.1972558E-002  0.2818223E+03  0.7546771E-02  0.1094698E+00
         21   -1    0    0  501  502  0.00000000000E+00  0.00000000000E+00  0.72825813698E+02  0.72825813698E+02  0.00000000000E+00 0.  1.
         21   -1    0    0  502  503 -0.00000000000E+00 -0.00000000000E+00 -0.18856039234E+04  0.18856039234E+04  0.00000000000E+00 0. -1.
         25    1    1    2    0    0  0.22310418968E+03  0.92432759883E+02 -0.95906419117E+03  0.99686930805E+03  0.12500000000E+03 0.  0.
          3    1    1    2  501    0  0.63345669506E+02 -0.11798206932E+03 -0.14850135360E+03  0.19996273290E+03  0.00000000000E+00 0. -1.
         -3    1    1    2    0  503 -0.28644985919E+03  0.25549309439E+02 -0.70521256493E+03  0.76159769615E+03  0.00000000000E+00 0.  1.
<mgrwt>
<rscale>  4 0.28182234E+03</rscale>
<asrwt>0</asrwt>
<pdfrwt beam="1">  1       21 0.11203973E-01 0.28182234E+03</pdfrwt>
<pdfrwt beam="2">  1       21 0.29009286E+00 0.28182234E+03</pdfrwt>
<totfact> 0.23594699E+03</totfact>
</mgrwt>
</event>
<event>
 5    0  0.1972558E-002  0.3839938E+03  0.7546771E-02  0.1050410E+00
         21   -1    0    0  503  502  0.00000000000E+00  0.00000000000E+00  0.14948284187E+04  0.14948284187E+04  0.00000000000E+00 0. -1.
         21   -1    0    0  501  503 -0.00000000000E+00 -0.00000000000E+00 -0.16150599926E+03  0.16150599926E+03  0.00000000000E+00 0.  1.
         25    1    1    2    0    0 -0.11620232234E+03  0.33257090587E+03  0.13409748231E+03  0.39713161786E+03  0.12500000000E+03 0.  0.
          3    1    1    2  501    0 -0.24113321579E+02 -0.14453168521E+03  0.38864185147E+03  0.41534726317E+03  0.00000000000E+00 0.  1.
         -3    1    1    2    0  502  0.14031564392E+03 -0.18803922065E+03  0.81058308567E+03  0.84385553692E+03  0.00000000000E+00 0. -1.
<mgrwt>
<rscale>  4 0.38142127E+03</rscale>
<asrwt>0</asrwt>
<pdfrwt beam="1">  1       21 0.22997359E+00 0.38399380E+03</pdfrwt>
<pdfrwt beam="2">  1       21 0.24847078E-01 0.38399380E+03</pdfrwt>
<totfact> 0.11495456E+03</totfact>
</mgrwt>
</event>
<event>
 5    0  0.1972558E-002  0.2399811E+03  0.7546771E-02  0.1119805E+00
         21   -1    0    0  501  502  0.00000000000E+00  0.00000000000E+00  0.42974801690E+03  0.42974801690E+03  0.00000000000E+00 0. -1.
         21   -1    0    0  502  503 -0.00000000000E+00 -0.00000000000E+00 -0.34561869850E+03  0.34561869850E+03  0.00000000000E+00 0. -1.
         25    1    1    2    0    0  0.23323208797E+03 -0.85127202235E+01 -0.38012514891E+02  0.26746892259E+03  0.12500000000E+03 0.  0.
          3    1    1    2  501    0 -0.40477830137E+02  0.17545405756E+02  0.26446761732E+03  0.26812201813E+03  0.00000000000E+00 0. -1.
         -3    1    1    2    0  503 -0.19275425783E+03 -0.90326855328E+01 -0.14232578404E+03  0.23977577468E+03  0.00000000000E+00 0.  1.
<mgrwt>
<rscale>  4 0.23998112E+03</rscale>
<asrwt>0</asrwt>
<pdfrwt beam="1">  1       21 0.66115079E-01 0.23998112E+03</pdfrwt>
<pdfrwt beam="2">  1       21 0.53172108E-01 0.23998112E+03</pdfrwt>
<totfact> 0.68114636E+03</totfact>
</mgrwt>
</event>
<event>
 5    0  0.1972558E-002  0.2450278E+03  0.7546771E-02  0.1116488E+00
         21   -1    0    0  501  502  0.00000000000E+00  0.00000000000E+00  0.15561837321E+04  0.15561837321E+04  0.00000000000E+00 0. -1.
         21   -1    0    0  502  503 -0.00000000000E+00 -0.00000000000E+00 -0.10707598145E+03  0.10707598145E+03  0.00000000000E+00 0.  1.
         25    1    1    2    0    0  0.20775559273E+03  0.64389998405E+02  0.26549254801E+03  0.36526668512E+03  0.12500000000E+03 0.  0.
          2    1    1    2  501    0 -0.19076840197E+03 -0.80636337164E+02  0.13088705538E+03  0.24500249658E+03  0.00000000000E+00 0.  1.
         -2    1    1    2    0  503 -0.16987190762E+02  0.16246338759E+02  0.10527281473E+04  0.10529905319E+04  0.00000000000E+00 0. -1.
<mgrwt>
<rscale>  4 0.24502779E+03</rscale>
<asrwt>0</asrwt>
<pdfrwt beam="1">  1       21 0.23941287E+00 0.24502779E+03</pdfrwt>
<pdfrwt beam="2">  1       21 0.16473229E-01 0.24502779E+03</pdfrwt>
<totfact> 0.24105953E+03</totfact>
</mgrwt>
</event>
<event>
 5    0  0.1972558E-002  0.4515643E+03  0.7546771E-02  0.1027257E+00
         21   -1    0    0  501  502  0.00000000000E+00  0.00000000000E+00  0.19116539516E+03  0.19116539516E+03  0.00000000000E+00 0.  1.
         21   -1    0    0  502  503 -0.00000000000E+00 -0.00000000000E+00 -0.15080695885E+04  0.15080695885E+04  0.00000000000E+00 0. -1.
         25    1    1    2    0    0  0.31323169275E+03 -0.15009587483E+03 -0.57776514449E+03  0.68562411508E+03  0.12500000000E+03 0.  0.
          4    1    1    2  501    0 -0.46281868563E+03  0.23357147018E+03 -0.50714296466E+03  0.72522462317E+03  0.00000000000E+00 0.  1.
         -4    1    1    2    0  503  0.14958699288E+03 -0.83475595350E+02 -0.23199608415E+03  0.28838624537E+03  0.00000000000E+00 0. -1.
<mgrwt>
<rscale>  4 0.45156434E+03</rscale>
<asrwt>0</asrwt>
<pdfrwt beam="1">  1       21 0.29410060E-01 0.45156434E+03</pdfrwt>
<pdfrwt beam="2">  1       21 0.23201071E+00 0.45156434E+03</pdfrwt>
<totfact> 0.77403863E+02</totfact>
</mgrwt>
</event>
<event>
 5    0  0.1972558E-002  0.3958990E+03  0.7546771E-02  0.1045209E+00
         21   -1    0    0  501  502  0.00000000000E+00  0.00000000000E+00  0.57472240227E+03  0.57472240227E+03  0.00000000000E+00 0. -1.
         21   -1    0    0  502  503 -0.00000000000E+00 -0.00000000000E+00 -0.33678289354E+03  0.33678289354E+03  0.00000000000E+00 0. -1.
         25    1    1    2    0    0 -0.20903263996E+03  0.32265625332E+03 -0.67650346727E+02  0.40988202179E+03  0.12500000000E+03 0.  0.
          2    1    1    2  501    0  0.17942271146E+02 -0.19501621097E+02  0.64461760894E+02  0.69696175912E+02  0.00000000000E+00 0.  1.
         -2    1    1    2    0  503  0.19109036881E+03 -0.30315463222E+03  0.24112809457E+03  0.43192709811E+03  0.00000000000E+00 0. -1.
<mgrwt>
<rscale>  4 0.39589902E+03</rscale>
<asrwt>0</asrwt>
<pdfrwt beam="1">  1       21 0.88418831E-01 0.39589902E+03</pdfrwt>
<pdfrwt beam="2">  1       21 0.51812753E-01 0.39589902E+03</pdfrwt>
<totfact> 0.34461122E+03</totfact>
</mgrwt>
</event>
<event>
 5    0  0.1972558E-002  0.2083707E+03  0.7546771E-02  0.1142863E+00
         21   -1    0    0  503  502  0.00000000000E+00  0.00000000000E+00  0.10441328020E+03  0.10441328020E+03  0.00000000000E+00 0. -1.
         21   -1    0    0  501  503 -0.00000000000E+00 -0.00000000000E+00 -0.87443097747E+03  0.87443097747E+03  0.00000000000E+00 0.  1.
         25    1    1    2    0    0  0.20252405570E+03 -0.87654778333E+02 -0.55843359921E+03  0.61332898026E+03  0.12500000000E+03 0.  0.
          1    1    1    2  501    0 -0.13088956401E+03  0.25769959821E+02 -0.23297467642E+03  0.26846483690E+03  0.00000000000E+00 0.  1.
         -1    1    1    2    0  502 -0.71634491685E+02  0.61884818512E+02  0.21390578366E+02  0.97050440515E+02  0.00000000000E+00 0. -1.
<mgrwt>
<rscale>  4 0.20837071E+03</rscale>
<asrwt>0</asrwt>
<pdfrwt beam="1">  1       21 0.16063582E-01 0.20837071E+03</pdfrwt>
<pdfrwt beam="2">  1       21 0.13452784E+00 0.20837071E+03</pdfrwt>
<totfact> 0.13571388E+04</totfact>
</mgrwt>
</event>
<event>
 5    0  0.1972558E-002  0.2489212E+03  0.7546771E-02  0.1113988E+00
         21   -1    0    0  503  502  0.00000000000E+00  0.00000000000E+00  0.43050537741E+03  0.43050537741E+03  0.00000000000E+00 0.  1.
         21   -1    0    0  501  503 -0.00000000000E+00 -0.00000000000E+00 -0.36836557550E+03  0.36836557550E+03  0.00000000000E+00 0.  1.
         25    1    1    2    0    0 -0.11825039236E+03 -0.19814229557E+03 -0.27056791923E+03  0.37692906959E+03  0.12500000000E+03 0.  0.
          4    1    1    2  501    0  0.51223553575E+02  0.15639538267E+03  0.14907583321E+03  0.22205173319E+03  0.00000000000E+00 0. -1.
         -4    1    1    2    0  502  0.67026838781E+02  0.41746912895E+02  0.18363188794E+03  0.19989015013E+03  0.00000000000E+00 0.  1.
<mgrwt>
<rscale>  4 0.24892120E+03</rscale>
<asrwt>0</asrwt>
<pdfrwt beam="1">  1       21 0.66231597E-01 0.24892120E+03</pdfrwt>
<pdfrwt beam="2">  1       21 0.56671627E-01 0.24892120E+03</pdfrwt>
<totfact> 0.58927432E+03</totfact>
</mgrwt>
</event>
<event>
 5    0  0.1972558E-002  0.2133196E+03  0.7546771E-02  0.1138964E+00
         21   -1    0    0  501  502  0.00000000000E+00  0.00000000000E+00  0.47860853184E+02  0.47860853184E+02  0.00000000000E+00 0. -1.
         21   -1    0    0  502  503 -0.00000000000E+00 -0.00000000000E+00 -0.14609851906E+04  0.14609851906E+04  0.00000000000E+00 0. -1.
         25    1    1    2    0    0 -0.20323912970E+03  0.22578846509E+02 -0.83306725004E+03  0.86685753803E+03  0.12500000000E+03 0.  0.
          3    1    1    2  501    0  0.78702797501E+02  0.75231882155E+02 -0.16435029754E+03  0.19714204709E+03  0.00000000000E+00 0.  1.
         -3    1    1    2    0  503  0.12453633220E+03 -0.97810728664E+02 -0.41570678988E+03  0.44484645871E+03  0.00000000000E+00 0. -1.
<mgrwt>
<rscale>  4 0.21331957E+03</rscale>
<asrwt>0</asrwt>
<pdfrwt beam="1">  1       21 0.73632095E-02 0.21331957E+03</pdfrwt>
<pdfrwt beam="2">  1       21 0.22476691E+00 0.21331957E+03</pdfrwt>
<totfact> 0.12813338E+04</totfact>
</mgrwt>
</event>
<event>
 5    0  0.1972558E-002  0.2334855E+03  0.7546771E-02  0.1124210E+00
         21   -1    0    0  503  502  0.00000000000E+00  0.00000000000E+00  0.11418690507E+03  0.11418690507E+03  0.00000000000E+00 0.  1.
         21   -1    0    0  501  503 -0.00000000000E+00 -0.00000000000E+00 -0.77563166345E+03  0.77563166345E+03  0.00000000000E+00 0.  1.
         25    1    1    2    0    0 -0.20447978194E+03  0.80424213045E+02 -0.39681214336E+03  0.47049432769E+03  0.12500000000E+03 0.  0.
          3    1    1    2  501    0  0.62348175326E+02  0.51145400036E+02 -0.19917660627E+03  0.21488245018E+03  0.00000000000E+00 0. -1.
         -3    1    1    2    0  502  0.14213160661E+03 -0.13156961308E+03 -0.65456008748E+02  0.20444179065E+03  0.00000000000E+00 0.  1.
<mgrwt>
<rscale>  4 0.23348550E+03</rscale>
<asrwt>0</asrwt>
<pdfrwt beam="1">  1       21 0.17567217E-01 0.23348550E+03</pdfrwt>
<pdfrwt beam="2">  1       21 0.11932795E+00 0.23348550E+03</pdfrwt>
<totfact> 0.15326122E+04</totfact>
</mgrwt>
</event>
<event>
 5    0  0.1972558E-002  0.2905743E+03  0.7546771E-02  0.1090050E+00
         21   -1    0    0  501  502  0.00000000000E+00  0.00000000000E+00  0.14338124392E+04  0.14338124392E+04  0.00000000000E+00 0.  1.
         21   -1    0    0  502  503 -0.00000000000E+00 -0.00000000000E+00 -0.10634224196E+03  0.10634224196E+03  0.00000000000E+00 0. -1.
         25    1    1    2    0    0 -0.16309851155E+03 -0.22697205125E+03  0.42574162347E+03  0.52440286658E+03  0.12500000000E+03 0.  0.
          3    1    1    2  501    0 -0.18391339200E+01  0.27193029686E+03  0.70211601583E+03  0.75293848915E+03  0.00000000000E+00 0.  1.
         -3    1    1    2    0  503  0.16493764547E+03 -0.44958245603E+02  0.19961255799E+03  0.26281332547E+03  0.00000000000E+00 0. -1.
<mgrwt>
<rscale>  4 0.29057427E+03</rscale>
<asrwt>0</asrwt>
<pdfrwt beam="1">  1       21 0.22058652E+00 0.29057427E+03</pdfrwt>
<pdfrwt beam="2">  1       21 0.16360346E-01 0.29057427E+03</pdfrwt>
<totfact> 0.30756385E+03</totfact>
</mgrwt>
</event>
<event>
 5    0  0.1972558E-002  0.2706987E+03  0.7546771E-02  0.1100880E+00
         21   -1    0    0  501  502  0.00000000000E+00  0.00000000000E+00  0.70006063400E+03  0.70006063400E+03  0.00000000000E+00 0. -1.
         21   -1    0    0  502  503 -0.00000000000E+00 -0.00000000000E+00 -0.32326310524E+03  0.32326310524E+03  0.00000000000E+00 0.  1.
         25    1    1    2    0    0 -0.17835401702E+03 -0.13419883757E+03 -0.12750438893E+03  0.28583535923E+03  0.12500000000E+03 0.  0.
          2    1    1    2  501    0  0.20557178529E+03  0.18454877189E+03  0.51417261998E+02  0.28100132197E+03  0.00000000000E+00 0.  1.
         -2    1    1    2    0  503 -0.27217768277E+02 -0.50349934319E+02  0.45288465569E+03  0.45648705804E+03  0.00000000000E+00 0. -1.
<mgrwt>
<rscale>  4 0.27069874E+03</rscale>
<asrwt>0</asrwt>
<pdfrwt beam="1">  1       21 0.10770164E+00 0.27069874E+03</pdfrwt>
<pdfrwt beam="2">  1       21 0.49732786E-01 0.27069874E+03</pdfrwt>
<totfact> 0.24956352E+03</totfact>
</mgrwt>
</event>
<event>
 5    0  0.1972558E-002  0.2134432E+03  0.7546771E-02  0.1138868E+00
         21   -1    0    0  503  502  0.00000000000E+00  0.00000000000E+00  0.11144594796E+03  0.11144594796E+03  0.00000000000E+00 0. -1.
         21   -1    0    0  501  503 -0.00000000000E+00 -0.00000000000E+00 -0.55507190382E+03  0.55507190382E+03  0.00000000000E+00 0. -1.
         25    1    1    2    0    0  0.17118742979E+03  0.13314089942E+03 -0.25795789385E+03  0.35944249918E+03  0.12500000000E+03 0.  0.
          4    1    1    2  501    0 -0.81431507485E+02 -0.12779052391E+02 -0.22722030863E+02  0.85502545447E+02  0.00000000000E+00 0.  1.
         -4    1    1    2    0  502 -0.89755922303E+02 -0.12036184703E+03 -0.16294603114E+03  0.22157280716E+03  0.00000000000E+00 0. -1.
<mgrwt>
<rscale>  4 0.21344317E+03</rscale>
<asrwt>0</asrwt>
<pdfrwt beam="1">  1       21 0.17145531E-01 0.21344317E+03</pdfrwt>
<pdfrwt beam="2">  1       21 0.85395676E-01 0.21344317E+03</pdfrwt>
<totfact> 0.36010044E+04</totfact>
</mgrwt>
</event>
<event>
 5    0  0.1972558E-002  0.2622482E+03  0.7546771E-02  0.1105800E+00
         21   -1    0    0  501  502  0.00000000000E+00  0.00000000000E+00  0.18322272267E+03  0.18322272267E+03  0.00000000000E+00 0. -1.
         21   -1    0    0  502  503 -0.00000000000E+00 -0.00000000000E+00 -0.14461062134E+04  0.14461062134E+04  0.00000000000E+00 0.  1.
         25    1    1    2    0    0 -0.15467812803E+03  0.15040588123E+03 -0.91201697380E+03  0.94548781743E+03  0.12500000000E+03 0.  0.
          4    1    1    2  501    0  0.18636531021E+03 -0.18058659264E+03 -0.48100454028E+03  0.54654269189E+03  0.00000000000E+00 0.  1.
         -4    1    1    2    0  503 -0.31687182177E+02  0.30180711403E+02  0.13013802338E+03  0.13729842673E+03  0.00000000000E+00 0. -1.
<mgrwt>
<rscale>  4 0.26224817E+03</rscale>
<asrwt>0</asrwt>
<pdfrwt beam="1">  1       21 0.28188111E-01 0.26224817E+03</pdfrwt>
<pdfrwt beam="2">  1       21 0.22247788E+00 0.26224817E+03</pdfrwt>
<totfact> 0.10896351E+03</totfact>
</mgrwt>
</event>
<event>
 5    0  0.1972558E-002  0.2511909E+03  0.7546771E-02  0.1112555E+00
         21   -1    0    0  503  502  0.00000000000E+00  0.00000000000E+00  0.45836844593E+02  0.45836844593E+02  0.00000000000E+00 0. -1.
         21   -1    0    0  501  503 -0.00000000000E+00 -0.00000000000E+00 -0.13801892783E+04  0.13801892783E+04  0.00000000000E+00 0.  1.
         25    1    1    2    0    0  0.16715013275E+03  0.13975941037E+03 -0.94425949902E+03  0.97709920743E+03  0.12500000000E+03 0.  0.
          3    1    1    2  501    0 -0.25093222552E+02 -0.86494643646E+01 -0.71558309058E+02  0.76322176641E+02  0.00000000000E+00 0.  1.
         -3    1    1    2    0  502 -0.14205691020E+03 -0.13110994600E+03 -0.31853462567E+03  0.37260473887E+03  0.00000000000E+00 0. -1.
<mgrwt>
<rscale>  4 0.25119088E+03</rscale>
<asrwt>0</asrwt>
<pdfrwt beam="1">  1       21 0.70518227E-02 0.25119088E+03</pdfrwt>
<pdfrwt beam="2">  1       21 0.21233680E+00 0.25119088E+03</pdfrwt>
<totfact> 0.16058119E+04</totfact>
</mgrwt>
</event>
<event>
 5    0  0.1972558E-002  0.2711700E+03  0.7546771E-02  0.1100612E+00
         21   -1    0    0  501  502  0.00000000000E+00  0.00000000000E+00  0.12947289843E+03  0.12947289843E+03  0.00000000000E+00 0.  1.
         21   -1    0    0  502  503 -0.00000000000E+00 -0.00000000000E+00 -0.78703295251E+03  0.78703295251E+03  0.00000000000E+00 0. -1.
         25    1    1    2    0    0 -0.21706167826E+02 -0.26221816682E+03 -0.45729636411E+03  0.54219414361E+03  0.12500000000E+03 0.  0.
          3    1    1    2  501    0  0.30476941951E+02  0.44142053422E+02  0.26285136863E+02  0.59735025662E+02  0.00000000000E+00 0. -1.
         -3    1    1    2    0  503 -0.87707741244E+01  0.21807611340E+03 -0.22654882683E+03  0.31457668167E+03  0.00000000000E+00 0.  1.
<mgrwt>
<rscale>  4 0.27116999E+03</rscale>
<asrwt>0</asrwt>
<pdfrwt beam="1">  1       21 0.19918908E-01 0.27116999E+03</pdfrwt>
<pdfrwt beam="2">  1       21 0.12108199E+00 0.27116999E+03</pdfrwt>
<totfact> 0.11449347E+04</totfact>
</mgrwt>
</event>
<event>
 5    0  0.1972558E-002  0.2704353E+03  0.7546771E-02  0.1101031E+00
         21   -1    0    0  501  502  0.00000000000E+00  0.00000000000E+00  0.15932480973E+03  0.15932480973E+03  0.00000000000E+00 0. -1.
         21   -1    0    0  502  503 -0.00000000000E+00 -0.00000000000E+00 -0.11369213923E+04  0.11369213923E+04  0.00000000000E+00 0. -1.
         25    1    1    2    0    0 -0.22547423605E+03 -0.70972647034E+02 -0.85720673943E+03  0.89794439799E+03  0.12500000000E+03 0.  0.
          2    1    1    2  501    0  0.23231976456E+03  0.94204839177E+02 -0.19643899122E+03  0.31848909244E+03  0.00000000000E+00 0. -1.
         -2    1    1    2    0  503 -0.68455285080E+01 -0.23232192143E+02  0.76049148073E+02  0.79812711613E+02  0.00000000000E+00 0.  1.
<mgrwt>
<rscale>  4 0.27043530E+03</rscale>
<asrwt>0</asrwt>
<pdfrwt beam="1">  1       21 0.24511508E-01 0.27043530E+03</pdfrwt>
<pdfrwt beam="2">  1       21 0.17491099E+00 0.27043530E+03</pdfrwt>
<totfact> 0.29119444E+03</totfact>
</mgrwt>
</event>
<event>
 5    0  0.1972558E-002  0.2208301E+03  0.7546771E-02  0.1133266E+00
         21   -1    0    0  501  502  0.00000000000E+00  0.00000000000E+00  0.44529641247E+03  0.44529641247E+03  0.00000000000E+00 0. -1.
         21   -1    0    0  502  503 -0.00000000000E+00 -0.00000000000E+00 -0.15799906665E+03  0.15799906665E+03  0.00000000000E+00 0. -1.
         25    1    1    2    0    0 -0.32646634364E+02 -0.19859260880E+03  0.69527784714E+02  0.24690876828E+03  0.12500000000E+03 0.  0.
          2    1    1    2  501    0 -0.44084286094E-02  0.16991057374E+03  0.41590872109E+02  0.17492685252E+03  0.00000000000E+00 0. -1.
         -2    1    1    2    0  503  0.32651042793E+02  0.28682035055E+02  0.17617868900E+03  0.18145985834E+03  0.00000000000E+00 0.  1.
<mgrwt>
<rscale>  4 0.22083010E+03</rscale>
<asrwt>0</asrwt>
<pdfrwt beam="1">  1       21 0.68507140E-01 0.22083010E+03</pdfrwt>
<pdfrwt beam="2">  1       21 0.24307549E-01 0.22083010E+03</pdfrwt>
<totfact> 0.30582756E+04</totfact>
</mgrwt>
</event>
<event>
 5    0  0.1972558E-002  0.2683215E+03  0.7546771E-02  0.1102244E+00
         21   -1    0    0  501  502  0.00000000000E+00  0.00000000000E+00  0.75700126642E+03  0.75700126642E+03  0.00000000000E+00 0. -1.
         21   -1    0    0  502  503 -0.00000000000E+00 -0.00000000000E+00 -0.27025350007E+03  0.27025350007E+03  0.00000000000E+00 0. -1.
         25    1    1    2    0    0 -0.18534909556E+03 -0.97993999658E+02 -0.73167445166E+02  0.25482461857E+03  0.12500000000E+03 0.  0.
          1    1    1    2  501    0  0.25843469771E+03  0.18465717931E+03  0.15784935855E+03  0.35468744952E+03  0.00000000000E+00 0. -1.
         -1    1    1    2    0  503 -0.73085602146E+02 -0.86663179656E+02  0.40206585297E+03  0.41774269841E+03  0.00000000000E+00 0.  1.
<mgrwt>
<rscale>  4 0.26832153E+03</rscale>
<asrwt>0</asrwt>
<pdfrwt beam="1">  1       21 0.11646173E+00 0.26832153E+03</pdfrwt>
<pdfrwt beam="2">  1       21 0.41577462E-01 0.26832153E+03</pdfrwt>
<totfact> 0.29913294E+03</totfact>
</mgrwt>
</event>
<event>
 5    0  0.1972558E-002  0.2408384E+03  0.7546771E-02  0.1119236E+00
         21   -1    0    0  501  502  0.00000000000E+00  0.00000000000E+00  0.11294632842E+03  0.11294632842E+03  0.00000000000E+00 0. -1.
         21   -1    0    0  502  503 -0.00000000000E+00 -0.00000000000E+00 -0.56807387003E+03  0.56807387003E+03  0.00000000000E+00 0. -1.
         25    1    1    2    0    0  0.12581699387E+03 -0.16817889636E+03 -0.30127470351E+03  0.38795038871E+03  0.12500000000E+03 0.  0.
          4    1    1    2  501    0 -0.10440486907E+03  0.17278997451E+03 -0.17153752896E+03  0.26491862112E+03  0.00000000000E+00 0. -1.
         -4    1    1    2    0  503 -0.21412124809E+02 -0.46110781457E+01  0.17684690845E+02  0.28151188621E+02  0.00000000000E+00 0.  1.
<mgrwt>
<rscale>  4 0.24083843E+03</rscale>
<asrwt>0</asrwt>
<pdfrwt beam="1">  1       21 0.17376358E-01 0.24083843E+03</pdfrwt>
<pdfrwt beam="2">  1       21 0.87395980E-01 0.24083843E+03</pdfrwt>
<totfact> 0.32862820E+04</totfact>
</mgrwt>
</event>
<event>
 5    0  0.1972558E-002  0.2470828E+03  0.7546771E-02  0.1115162E+00
         21   -1    0    0  501  502  0.00000000000E+00  0.00000000000E+00  0.27780232786E+03  0.27780232786E+03  0.00000000000E+00 0.  1.
         21   -1    0    0  502  503 -0.00000000000E+00 -0.00000000000E+00 -0.31151077173E+03  0.31151077173E+03  0.00000000000E+00 0.  1.
         25    1    1    2    0    0  0.92130343630E+02  0.20295632505E+03 -0.74648012798E+02  0.26622658753E+03  0.12500000000E+03 0.  0.
          2    1    1    2  501    0  0.47007199807E+02 -0.46804528747E+02  0.86526729968E+02  0.10902850886E+03  0.00000000000E+00 0. -1.
         -2    1    1    2    0  503 -0.13913754344E+03 -0.15615179630E+03 -0.45587161038E+02  0.21405800320E+03  0.00000000000E+00 0.  1.
<mgrwt>
<rscale>  4 0.24708277E+03</rscale>
<asrwt>0</asrwt>
<pdfrwt beam="1">  1       21 0.42738820E-01 0.24708277E+03</pdfrwt>
<pdfrwt beam="2">  1       21 0.47924734E-01 0.24708277E+03</pdfrwt>
<totfact> 0.21277213E+04</totfact>
</mgrwt>
</event>
<event>
 5    0  0.1972558E-002  0.2933205E+03  0.7546771E-02  0.1088628E+00
         21   -1    0    0  501  502  0.00000000000E+00  0.00000000000E+00  0.75538260103E+03  0.75538260103E+03  0.00000000000E+00 0. -1.
         21   -1    0    0  502  503 -0.00000000000E+00 -0.00000000000E+00 -0.11826015422E+03  0.11826015422E+03  0.00000000000E+00 0. -1.
         25    1    1    2    0    0  0.18025613601E+03 -0.19472972841E+03  0.19913243239E+03  0.35452879618E+03  0.12500000000E+03 0.  0.
          4    1    1    2  501    0 -0.13991323402E+03  0.15133919523E+03  0.39622733980E+03  0.44662665602E+03  0.00000000000E+00 0. -1.
         -4    1    1    2    0  503 -0.40342901989E+02  0.43390533180E+02  0.41762674618E+02  0.72487303039E+02  0.00000000000E+00 0.  1.
<mgrwt>
<rscale>  4 0.29332054E+03</rscale>
<asrwt>0</asrwt>
<pdfrwt beam="1">  1       21 0.11621270E+00 0.29332054E+03</pdfrwt>
<pdfrwt beam="2">  1       21 0.18193870E-01 0.29332054E+03</pdfrwt>
<totfact> 0.14872765E+04</totfact>
</mgrwt>
</event>
<event>
 5    0  0.1972558E-002  0.2972158E+03  0.7546771E-02  0.1086641E+00
         21   -1    0    0  501  502  0.00000000000E+00  0.00000000000E+00  0.95813726807E+02  0.95813726807E+02  0.00000000000E+00 0.  1.
         21   -1    0    0  502  503 -0.00000000000E+00 -0.00000000000E+00 -0.33681792115E+04  0.33681792115E+04  0.00000000000E+00 0. -1.
         25    1    1    2    0    0 -0.25707318247E+03 -0.98689865202E+02 -0.30671311195E+04  0.30820033444E+04  0.12500000000E+03 0.  0.
          4    1    1    2  501    0  0.22437659929E+03  0.63190750067E+02 -0.23023425320E+03  0.32763659830E+03  0.00000000000E+00 0.  1.
         -4    1    1    2    0  503  0.32696583184E+02  0.35499115135E+02  0.24999888035E+02  0.54352995585E+02  0.00000000000E+00 0. -1.
<mgrwt>
<rscale>  4 0.29721579E+03</rscale>
<asrwt>0</asrwt>
<pdfrwt beam="1">  1       21 0.14740575E-01 0.29721579E+03</pdfrwt>
<pdfrwt beam="2">  1       21 0.51818135E+00 0.29721579E+03</pdfrwt>
<totfact> 0.48555285E+01</totfact>
</mgrwt>
</event>
<event>
 5    0  0.1972558E-002  0.2716981E+03  0.7546771E-02  0.1100312E+00
         21   -1    0    0  501  502  0.00000000000E+00  0.00000000000E+00  0.44481772531E+03  0.44481772531E+03  0.00000000000E+00 0. -1.
         21   -1    0    0  502  503 -0.00000000000E+00 -0.00000000000E+00 -0.63066827039E+03  0.63066827039E+03  0.00000000000E+00 0.  1.
         25    1    1    2    0    0  0.72161864498E+01  0.24154352917E+03 -0.54507648286E+03  0.60920335028E+03  0.12500000000E+03 0.  0.
          4    1    1    2  501    0  0.20726858645E+02 -0.46251574961E+01  0.14219256840E+03  0.14376968130E+03  0.00000000000E+00 0.  1.
         -4    1    1    2    0  503 -0.27943045095E+02 -0.23691837167E+03  0.21703336937E+03  0.32251296412E+03  0.00000000000E+00 0. -1.
<mgrwt>
<rscale>  4 0.27169811E+03</rscale>
<asrwt>0</asrwt>
<pdfrwt beam="1">  1       21 0.68433496E-01 0.27169811E+03</pdfrwt>
<pdfrwt beam="2">  1       21 0.97025888E-01 0.27169811E+03</pdfrwt>
<totfact> 0.16115250E+03</totfact>
</mgrwt>
</event>
<event>
 5    0  0.1972558E-002  0.2098816E+03  0.7546771E-02  0.1141660E+00
         21   -1    0    0  503  502  0.00000000000E+00  0.00000000000E+00  0.89572003289E+03  0.89572003289E+03  0.00000000000E+00 0.  1.
         21   -1    0    0  501  503 -0.00000000000E+00 -0.00000000000E+00 -0.97673128449E+02  0.97673128449E+02  0.00000000000E+00 0.  1.
         25    1    1    2    0    0 -0.13733917464E+03 -0.16095661346E+03  0.12316660844E+03  0.27488923904E+03  0.12500000000E+03 0.  0.
          4    1    1    2  501    0  0.35381510102E+02  0.34059110451E+02  0.40756562573E+02  0.63819837469E+02  0.00000000000E+00 0. -1.
         -4    1    1    2    0  502  0.10195766454E+03  0.12689750301E+03  0.63412373343E+03  0.65468408483E+03  0.00000000000E+00 0.  1.
<mgrwt>
<rscale>  4 0.20988163E+03</rscale>
<asrwt>0</asrwt>
<pdfrwt beam="1">  1       21 0.13780308E+00 0.20988163E+03</pdfrwt>
<pdfrwt beam="2">  1       21 0.15026636E-01 0.20988163E+03</pdfrwt>
<totfact> 0.14402548E+04</totfact>
</mgrwt>
</event>
<event>
 5    0  0.1972558E-002  0.3220478E+03  0.7546771E-02  0.1074859E+00
         21   -1    0    0  501  502  0.00000000000E+00  0.00000000000E+00  0.25737355330E+03  0.25737355330E+03  0.00000000000E+00 0.  1.
         21   -1    0    0  502  503 -0.00000000000E+00 -0.00000000000E+00 -0.42647222873E+03  0.42647222873E+03  0.00000000000E+00 0. -1.
         25    1    1    2    0    0 -0.27150674618E+03 -0.11637205757E+03 -0.16736501695E+03  0.36179333590E+03  0.12500000000E+03 0.  0.
          4    1    1    2  501    0  0.15439182838E+03 -0.10943974143E+01  0.16049536299E+02  0.15522764570E+03  0.00000000000E+00 0.  1.
         -4    1    1    2    0  503  0.11711491780E+03  0.11746645498E+03 -0.17783194774E+02  0.16682480042E+03  0.00000000000E+00 0. -1.
<mgrwt>
<rscale>  4 0.32172394E+03</rscale>
<asrwt>0</asrwt>
<pdfrwt beam="1">  1       21 0.39595931E-01 0.32204778E+03</pdfrwt>
<pdfrwt beam="2">  1       21 0.65611112E-01 0.32204778E+03</pdfrwt>
<totfact> 0.12273753E+04</totfact>
</mgrwt>
</event>
<event>
 5    0  0.1972558E-002  0.2897691E+03  0.7546771E-02  0.1090470E+00
         21   -1    0    0  503  502  0.00000000000E+00  0.00000000000E+00  0.99548864382E+03  0.99548864382E+03  0.00000000000E+00 0.  1.
         21   -1    0    0  501  503 -0.00000000000E+00 -0.00000000000E+00 -0.13794565742E+03  0.13794565742E+03  0.00000000000E+00 0. -1.
         25    1    1    2    0    0 -0.26799570372E+03 -0.26583855138E+01  0.91366746412E+02  0.30951841072E+03  0.12500000000E+03 0.  0.
          2    1    1    2  501    0  0.25492499112E+02 -0.31060023407E+02  0.24280973544E+03  0.24611208867E+03  0.00000000000E+00 0. -1.
         -2    1    1    2    0  502  0.24250320460E+03  0.33718408920E+02  0.52336650455E+03  0.57780380184E+03  0.00000000000E+00 0.  1.
<mgrwt>
<rscale>  4 0.28976907E+03</rscale>
<asrwt>0</asrwt>
<pdfrwt beam="1">  1       21 0.15315209E+00 0.28976907E+03</pdfrwt>
<pdfrwt beam="2">  1       21 0.21222409E-01 0.28976907E+03</pdfrwt>
<totfact> 0.54644095E+03</totfact>
</mgrwt>
</event>
<event>
 5    0  0.1972558E-002  0.2843026E+03  0.7546771E-02  0.1093362E+00
         21   -1    0    0  501  502  0.00000000000E+00  0.00000000000E+00  0.97839194762E+02  0.97839194762E+02  0.00000000000E+00 0.  1.
         21   -1    0    0  502  503 -0.00000000000E+00 -0.00000000000E+00 -0.12296331014E+04  0.12296331014E+04  0.00000000000E+00 0.  1.
         25    1    1    2    0    0 -0.62974849656E+02 -0.26822242450E+03 -0.59643249474E+03  0.66877935187E+03  0.12500000000E+03 0.  0.
          1    1    1    2  501    0  0.70137193186E+02  0.23130334448E+03 -0.56255655105E+03  0.61228288900E+03  0.00000000000E+00 0.  1.
         -1    1    1    2    0  503 -0.71623435293E+01  0.36919080027E+02  0.27195139182E+02  0.46410055268E+02  0.00000000000E+00 0. -1.
<mgrwt>
<rscale>  4 0.28430265E+03</rscale>
<asrwt>0</asrwt>
<pdfrwt beam="1">  1       21 0.15052184E-01 0.28430265E+03</pdfrwt>
<pdfrwt beam="2">  1       21 0.18917433E+00 0.28430265E+03</pdfrwt>
<totfact> 0.57518914E+03</totfact>
</mgrwt>
</event>
<event>
 5    0  0.1972558E-002  0.3235259E+03  0.7546771E-02  0.1074038E+00
         21   -1    0    0  501  502  0.00000000000E+00  0.00000000000E+00  0.19686919046E+03  0.19686919046E+03  0.00000000000E+00 0.  1.
         21   -1    0    0  502  503 -0.00000000000E+00 -0.00000000000E+00 -0.19009703483E+04  0.19009703483E+04  0.00000000000E+00 0. -1.
         25    1    1    2    0    0  0.32528120122E+03  0.47113224754E+02 -0.14281633504E+04  0.14708171441E+04  0.12500000000E+03 0.  0.
          2    1    1    2  501    0 -0.24814441114E+03 -0.18332063375E+02 -0.40417823117E+03  0.47462801843E+03  0.00000000000E+00 0.  1.
         -2    1    1    2    0  503 -0.77136790081E+02 -0.28781161380E+02  0.12824042375E+03  0.15239437626E+03  0.00000000000E+00 0. -1.
<mgrwt>
<rscale>  4 0.32352588E+03</rscale>
<asrwt>0</asrwt>
<pdfrwt beam="1">  1       21 0.30287567E-01 0.32352588E+03</pdfrwt>
<pdfrwt beam="2">  1       21 0.29245699E+00 0.32352588E+03</pdfrwt>
<totfact> 0.34143006E+02</totfact>
</mgrwt>
</event>
<event>
 5    0  0.1972558E-002  0.3566163E+03  0.7546771E-02  0.1060263E+00
         21   -1    0    0  501  502  0.00000000000E+00  0.00000000000E+00  0.23035458144E+03  0.23035458144E+03  0.00000000000E+00 0. -1.
         21   -1    0    0  502  503 -0.00000000000E+00 -0.00000000000E+00 -0.79248508012E+03  0.79248508012E+03  0.00000000000E+00 0. -1.
         25    1    1    2    0    0 -0.33019388020E+03 -0.13551954738E+02 -0.56480395111E+03  0.66621329707E+03  0.12500000000E+03 0.  0.
          4    1    1    2  501    0  0.23832349318E+03 -0.25412300103E+02 -0.48417794666E+02  0.24451616560E+03  0.00000000000E+00 0.  1.
         -4    1    1    2    0  503  0.91870387020E+02  0.38964254841E+02  0.51091247090E+02  0.11211019889E+03  0.00000000000E+00 0. -1.
<mgrwt>
<rscale>  4 0.35578997E+03</rscale>
<asrwt>0</asrwt>
<pdfrwt beam="1">  1       21 0.35439166E-01 0.35661634E+03</pdfrwt>
<pdfrwt beam="2">  1       21 0.12192078E+00 0.35661634E+03</pdfrwt>
<totfact> 0.35180867E+03</totfact>
</mgrwt>
</event>
<event>
 5    0  0.1972558E-002  0.4468451E+03  0.7546771E-02  0.1028667E+00
         21   -1    0    0  503  502  0.00000000000E+00  0.00000000000E+00  0.76110738869E+03  0.76110738869E+03  0.00000000000E+00 0. -1.
         21   -1    0    0  501  503 -0.00000000000E+00 -0.00000000000E+00 -0.35941401073E+03  0.35941401073E+03  0.00000000000E+00 0. -1.
         25    1    1    2    0    0 -0.37121179311E+03  0.19200687958E+03  0.30208394370E+03  0.53060771403E+03  0.12500000000E+03 0.  0.
          2    1    1    2  501    0  0.35501060963E+02  0.11857933476E+03  0.13266247128E+02  0.12448846242E+03  0.00000000000E+00 0.  1.
         -2    1    1    2    0  502  0.33571073215E+03 -0.31058621434E+03  0.86343187138E+02  0.46542522298E+03  0.00000000000E+00 0. -1.
<mgrwt>
<rscale>  4 0.44684511E+03</rscale>
<asrwt>0</asrwt>
<pdfrwt beam="1">  1       21 0.11709344E+00 0.44684511E+03</pdfrwt>
<pdfrwt beam="2">  1       21 0.55294463E-01 0.44684511E+03</pdfrwt>
<totfact> 0.14825175E+03</totfact>
</mgrwt>
</event>
<event>
 5    0  0.1972558E-002  0.2554371E+03  0.7546771E-02  0.1109916E+00
         21   -1    0    0  501  502  0.00000000000E+00  0.00000000000E+00  0.67078969765E+03  0.67078969765E+03  0.00000000000E+00 0.  1.
         21   -1    0    0  502  503 -0.00000000000E+00 -0.00000000000E+00 -0.44923662509E+03  0.44923662509E+03  0.00000000000E+00 0. -1.
         25    1    1    2    0    0 -0.73889344296E+02  0.22171197804E+03 -0.60170401503E+02  0.27177438000E+03  0.12500000000E+03 0.  0.
          3    1    1    2  501    0  0.36321182889E+02 -0.58522062589E+01  0.52187377502E+03  0.52316891507E+03  0.00000000000E+00 0. -1.
         -3    1    1    2    0  503  0.37568161408E+02 -0.21585977178E+03 -0.24015030096E+03  0.32508302767E+03  0.00000000000E+00 0.  1.
<mgrwt>
<rscale>  4 0.25543710E+03</rscale>
<asrwt>0</asrwt>
<pdfrwt beam="1">  1       21 0.10319842E+00 0.25543710E+03</pdfrwt>
<pdfrwt beam="2">  1       21 0.69113327E-01 0.25543710E+03</pdfrwt>
<totfact> 0.13758182E+03</totfact>
</mgrwt>
</event>
<event>
 5    0  0.1972558E-002  0.3688766E+03  0.7546771E-02  0.1055123E+00
         21   -1    0    0  501  502  0.00000000000E+00  0.00000000000E+00  0.20128612612E+03  0.20128612612E+03  0.00000000000E+00 0. -1.
         21   -1    0    0  502  503 -0.00000000000E+00 -0.00000000000E+00 -0.76243947087E+03  0.76243947087E+03  0.00000000000E+00 0. -1.
         25    1    1    2    0    0  0.33702849462E+03 -0.12339809737E+03 -0.34615338587E+03  0.51406464883E+03  0.12500000000E+03 0.  0.
          1    1    1    2  501    0 -0.32009248274E+03  0.99124325813E+02 -0.23897176347E+03  0.41157299864E+03  0.00000000000E+00 0. -1.
         -1    1    1    2    0  503 -0.16936011885E+02  0.24273771556E+02  0.23971804590E+02  0.38087949530E+02  0.00000000000E+00 0.  1.
<mgrwt>
<rscale>  4 0.36887658E+03</rscale>
<asrwt>0</asrwt>
<pdfrwt beam="1">  1       21 0.30967096E-01 0.36887658E+03</pdfrwt>
<pdfrwt beam="2">  1       21 0.11729838E+00 0.36887658E+03</pdfrwt>
<totfact> 0.50532102E+03</totfact>
</mgrwt>
</event>
<event>
 5    0  0.1972558E-002  0.2628076E+03  0.7546771E-02  0.1105468E+00
         21   -1    0    0  501  502  0.00000000000E+00  0.00000000000E+00  0.56432307003E+03  0.56432307003E+03  0.00000000000E+00 0.  1.
         21   -1    0    0  502  503 -0.00000000000E+00 -0.00000000000E+00 -0.20595841778E+03  0.20595841778E+03  0.00000000000E+00 0. -1.
         25    1    1    2    0    0  0.20124353685E+03  0.13309257657E+03  0.30968572607E+02  0.27348975768E+03  0.12500000000E+03 0.  0.
          1    1    1    2  501    0 -0.17284706933E+03 -0.13921997472E+03  0.62869551854E+02  0.23067486054E+03  0.00000000000E+00 0.  1.
         -1    1    1    2    0  503 -0.28396467528E+02  0.61273981474E+01  0.26452652779E+03  0.26611686959E+03  0.00000000000E+00 0. -1.
<mgrwt>
<rscale>  4 0.26280760E+03</rscale>
<asrwt>0</asrwt>
<pdfrwt beam="1">  1       21 0.86818933E-01 0.26280760E+03</pdfrwt>
<pdfrwt beam="2">  1       21 0.31685911E-01 0.26280760E+03</pdfrwt>
<totfact> 0.10473760E+04</totfact>
</mgrwt>
</event>
<event>
 5    0  0.1972558E-002  0.2443911E+03  0.7546771E-02  0.1116902E+00
         21   -1    0    0  503  502  0.00000000000E+00  0.00000000000E+00  0.11650123135E+03  0.11650123135E+03  0.00000000000E+00 0. -1.
         21   -1    0    0  501  503 -0.00000000000E+00 -0.00000000000E+00 -0.10092346445E+04  0.10092346445E+04  0.00000000000E+00 0.  1.
         25    1    1    2    0    0  0.21168328400E+03 -0.43132659198E+02 -0.80106801442E+03  0.83905017892E+03  0.12500000000E+03 0.  0.
          4    1    1    2  501    0 -0.18271152517E+02  0.71705274625E+02 -0.41507155700E+02  0.84842945480E+02  0.00000000000E+00 0.  1.
         -4    1    1    2    0  502 -0.19341213148E+03 -0.28572615427E+02 -0.50158242979E+02  0.20184275141E+03  0.00000000000E+00 0. -1.
<mgrwt>
<rscale>  4 0.24439113E+03</rscale>
<asrwt>0</asrwt>
<pdfrwt beam="1">  1       21 0.17923266E-01 0.24439113E+03</pdfrwt>
<pdfrwt beam="2">  1       21 0.15526687E+00 0.24439113E+03</pdfrwt>
<totfact> 0.74340528E+03</totfact>
</mgrwt>
</event>
<event>
 5    0  0.1972558E-002  0.3860761E+03  0.7546771E-02  0.1048711E+00
         21   -1    0    0  501  502  0.00000000000E+00  0.00000000000E+00  0.14909724653E+04  0.14909724653E+04  0.00000000000E+00 0. -1.
         21   -1    0    0  502  503 -0.00000000000E+00 -0.00000000000E+00 -0.28808508573E+03  0.28808508573E+03  0.00000000000E+00 0.  1.
         25    1    1    2    0    0 -0.11450531856E+02 -0.42434440831E+03  0.39008187799E+02  0.44423634505E+03  0.12500000000E+03 0.  0.
          2    1    1    2  501    0 -0.54304761917E+02  0.35416002817E+03  0.11836014696E+04  0.12366449659E+04  0.00000000000E+00 0. -1.
         -2    1    1    2    0  503  0.65755293773E+02  0.70184380143E+02 -0.19722277869E+02  0.98176240097E+02  0.00000000000E+00 0.  1.
<mgrwt>
<rscale>  4 0.38607610E+03</rscale>
<asrwt>0</asrwt>
<pdfrwt beam="1">  1       21 0.22938037E+00 0.38607610E+03</pdfrwt>
<pdfrwt beam="2">  1       21 0.44320783E-01 0.38607610E+03</pdfrwt>
<totfact> 0.36263182E+02</totfact>
</mgrwt>
</event>
<event>
 5    0  0.1972558E-002  0.2780909E+03  0.7546771E-02  0.1096736E+00
         21   -1    0    0  501  502  0.00000000000E+00  0.00000000000E+00  0.52154143257E+03  0.52154143257E+03  0.00000000000E+00 0. -1.
         21   -1    0    0  502  503 -0.00000000000E+00 -0.00000000000E+00 -0.21404273304E+03  0.21404273304E+03  0.00000000000E+00 0. -1.
         25    1    1    2    0    0  0.22225700501E+03 -0.97973666162E+02  0.15704710333E+02  0.27362136880E+03  0.12500000000E+03 0.  0.
          2    1    1    2  501    0 -0.24205846292E+03  0.84282408055E+02  0.11056579690E+03  0.27914265031E+03  0.00000000000E+00 0. -1.
         -2    1    1    2    0  503  0.19801457916E+02  0.13691258107E+02  0.18122819229E+03  0.18282014650E+03  0.00000000000E+00 0.  1.
<mgrwt>
<rscale>  4 0.27809091E+03</rscale>
<asrwt>0</asrwt>
<pdfrwt beam="1">  1       21 0.80237143E-01 0.27809091E+03</pdfrwt>
<pdfrwt beam="2">  1       21 0.32929651E-01 0.27809091E+03</pdfrwt>
<totfact> 0.11544799E+04</totfact>
</mgrwt>
</event>
<event>
 5    0  0.1972558E-002  0.2352587E+03  0.7546771E-02  0.1122992E+00
         21   -1    0    0  501  502  0.00000000000E+00  0.00000000000E+00  0.51293082475E+03  0.51293082475E+03  0.00000000000E+00 0. -1.
         21   -1    0    0  502  503 -0.00000000000E+00 -0.00000000000E+00 -0.44337646805E+03  0.44337646805E+03  0.00000000000E+00 0.  1.
         25    1    1    2    0    0 -0.20655685805E+03  0.22470596593E+02 -0.34454417710E+03  0.42131502856E+03  0.12500000000E+03 0.  0.
          3    1    1    2  501    0  0.10229025764E+03  0.93588160377E+02  0.66045185087E+02  0.15357085350E+03  0.00000000000E+00 0.  1.
         -3    1    1    2    0  503  0.10426660040E+03 -0.11605875697E+03  0.34805334870E+03  0.38142141074E+03  0.00000000000E+00 0. -1.
<mgrwt>
<rscale>  4 0.23525873E+03</rscale>
<asrwt>0</asrwt>
<pdfrwt beam="1">  1       21 0.78912434E-01 0.23525873E+03</pdfrwt>
<pdfrwt beam="2">  1       21 0.68211765E-01 0.23525873E+03</pdfrwt>
<totfact> 0.26886887E+03</totfact>
</mgrwt>
</event>
<event>
 5    0  0.1972558E-002  0.2541908E+03  0.7546771E-02  0.1110685E+00
         21   -1    0    0  501  502  0.00000000000E+00  0.00000000000E+00  0.75466738198E+03  0.75466738198E+03  0.00000000000E+00 0.  1.
         21   -1    0    0  502  503 -0.00000000000E+00 -0.00000000000E+00 -0.53808062537E+03  0.53808062537E+03  0.00000000000E+00 0. -1.
         25    1    1    2    0    0  0.21077535794E+03 -0.91043034036E+02 -0.44377237760E+03  0.51504757905E+03  0.12500000000E+03 0.  0.
          3    1    1    2  501    0 -0.17532193578E+03  0.64018128443E+02  0.92887838689E+02  0.20848082048E+03  0.00000000000E+00 0. -1.
         -3    1    1    2    0  503 -0.35453422163E+02  0.27024905593E+02  0.56747129553E+03  0.56921960781E+03  0.00000000000E+00 0.  1.
<mgrwt>
<rscale>  4 0.25419085E+03</rscale>
<asrwt>0</asrwt>
<pdfrwt beam="1">  1       21 0.11610267E+00 0.25419085E+03</pdfrwt>
<pdfrwt beam="2">  1       21 0.82781635E-01 0.25419085E+03</pdfrwt>
<totfact> 0.68799271E+02</totfact>
</mgrwt>
</event>
<event>
 5    0  0.1972558E-002  0.2495782E+03  0.7546771E-02  0.1113572E+00
         21   -1    0    0  501  502  0.00000000000E+00  0.00000000000E+00  0.11315336313E+03  0.11315336313E+03  0.00000000000E+00 0.  1.
         21   -1    0    0  502  503 -0.00000000000E+00 -0.00000000000E+00 -0.12845655044E+04  0.12845655044E+04  0.00000000000E+00 0. -1.
         25    1    1    2    0    0 -0.19584021326E+03 -0.99650403454E+02 -0.81801674373E+03  0.85618922269E+03  0.12500000000E+03 0.  0.
          3    1    1    2  501    0 -0.52433897648E+01  0.31428567114E+02  0.64969557153E+02  0.72362223043E+02  0.00000000000E+00 0.  1.
         -3    1    1    2    0  503  0.20108360303E+03  0.68221836341E+02 -0.41836495473E+03  0.46916742183E+03  0.00000000000E+00 0. -1.
<mgrwt>
<rscale>  4 0.24957817E+03</rscale>
<asrwt>0</asrwt>
<pdfrwt beam="1">  1       21 0.17408210E-01 0.24957817E+03</pdfrwt>
<pdfrwt beam="2">  1       21 0.19762546E+00 0.24957817E+03</pdfrwt>
<totfact> 0.39571956E+03</totfact>
</mgrwt>
</event>
<event>
 5    0  0.1972558E-002  0.2395007E+03  0.7546771E-02  0.1120126E+00
         21   -1    0    0  501  502  0.00000000000E+00  0.00000000000E+00  0.26593326914E+03  0.26593326914E+03  0.00000000000E+00 0. -1.
         21   -1    0    0  502  503 -0.00000000000E+00 -0.00000000000E+00 -0.49222051679E+03  0.49222051679E+03  0.00000000000E+00 0. -1.
         25    1    1    2    0    0  0.16908885634E+01  0.20428588561E+03 -0.40699337990E+03  0.47223319816E+03  0.12500000000E+03 0.  0.
          3    1    1    2  501    0  0.39262471982E+02 -0.97566155279E+02  0.67051335531E+02  0.12472601156E+03  0.00000000000E+00 0.  1.
         -3    1    1    2    0  503 -0.40953360546E+02 -0.10671973033E+03  0.11365479672E+03  0.16119457621E+03  0.00000000000E+00 0. -1.
<mgrwt>
<rscale>  4 0.23950069E+03</rscale>
<asrwt>0</asrwt>
<pdfrwt beam="1">  1       21 0.40912811E-01 0.23950069E+03</pdfrwt>
<pdfrwt beam="2">  1       21 0.75726232E-01 0.23950069E+03</pdfrwt>
<totfact> 0.86829213E+03</totfact>
</mgrwt>
</event>
<event>
 5    0  0.1972558E-002  0.2522996E+03  0.7546771E-02  0.1111860E+00
         21   -1    0    0  501  502  0.00000000000E+00  0.00000000000E+00  0.10336622157E+04  0.10336622157E+04  0.00000000000E+00 0.  1.
         21   -1    0    0  502  503 -0.00000000000E+00 -0.00000000000E+00 -0.37123931467E+03  0.37123931467E+03  0.00000000000E+00 0.  1.
         25    1    1    2    0    0 -0.58748975442E+02  0.21113653427E+03 -0.31151985498E+03  0.40087366871E+03  0.12500000000E+03 0.  0.
          4    1    1    2  501    0  0.72843879659E+02 -0.73591473864E+02  0.48378062486E+03  0.49473793954E+03  0.00000000000E+00 0. -1.
         -4    1    1    2    0  503 -0.14094904217E+02 -0.13754506041E+03  0.49016213115E+03  0.50928992213E+03  0.00000000000E+00 0.  1.
<mgrwt>
<rscale>  4 0.25229958E+03</rscale>
<asrwt>0</asrwt>
<pdfrwt beam="1">  1       21 0.15902496E+00 0.25229958E+03</pdfrwt>
<pdfrwt beam="2">  1       21 0.57113741E-01 0.25229958E+03</pdfrwt>
<totfact> 0.69495082E+02</totfact>
</mgrwt>
</event>
<event>
 5    0  0.1972558E-002  0.2556617E+03  0.7546771E-02  0.1109778E+00
         21   -1    0    0  501  502  0.00000000000E+00  0.00000000000E+00  0.19420482245E+04  0.19420482245E+04  0.00000000000E+00 0.  1.
         21   -1    0    0  502  503 -0.00000000000E+00 -0.00000000000E+00 -0.16307899717E+03  0.16307899717E+03  0.00000000000E+00 0.  1.
         25    1    1    2    0    0 -0.12789457595E+03  0.18489923117E+03 -0.40490898890E+02  0.26040211431E+03  0.12500000000E+03 0.  0.
          3    1    1    2  501    0  0.14578578963E+03 -0.15197675922E+03  0.89256394023E+03  0.91707187243E+03  0.00000000000E+00 0.  1.
         -3    1    1    2    0  503 -0.17891213677E+02 -0.32922471948E+02  0.92689618601E+03  0.92765323496E+03  0.00000000000E+00 0. -1.
<mgrwt>
<rscale>  4 0.25566173E+03</rscale>
<asrwt>0</asrwt>
<pdfrwt beam="1">  1       21 0.29877663E+00 0.25566173E+03</pdfrwt>
<pdfrwt beam="2">  1       21 0.25089078E-01 0.25566173E+03</pdfrwt>
<totfact> 0.48251200E+02</totfact>
</mgrwt>
</event>
<event>
 5    0  0.1972558E-002  0.2153753E+03  0.7546771E-02  0.1137379E+00
         21   -1    0    0  503  502  0.00000000000E+00  0.00000000000E+00  0.24670729710E+03  0.24670729710E+03  0.00000000000E+00 0.  1.
         21   -1    0    0  501  503 -0.00000000000E+00 -0.00000000000E+00 -0.44152733317E+03  0.44152733317E+03  0.00000000000E+00 0. -1.
         25    1    1    2    0    0  0.16846840440E+03  0.13596235910E+03 -0.24784662318E+03  0.35202317394E+03  0.12500000000E+03 0.  0.
          1    1    1    2  501    0 -0.99154072803E+02 -0.10559470351E+03 -0.92723536969E+02  0.17198670260E+03  0.00000000000E+00 0. -1.
         -1    1    1    2    0  502 -0.69314331594E+02 -0.30367655586E+02  0.14575012408E+03  0.16422475373E+03  0.00000000000E+00 0.  1.
<mgrwt>
<rscale>  4 0.21537529E+03</rscale>
<asrwt>0</asrwt>
<pdfrwt beam="1">  1       21 0.37954969E-01 0.21537529E+03</pdfrwt>
<pdfrwt beam="2">  1       21 0.67927281E-01 0.21537529E+03</pdfrwt>
<totfact> 0.13059910E+04</totfact>
</mgrwt>
</event>
<event>
 5    0  0.1972558E-002  0.3286540E+03  0.7546771E-02  0.1071734E+00
         21   -1    0    0  503  502  0.00000000000E+00  0.00000000000E+00  0.60906269406E+03  0.60906269406E+03  0.00000000000E+00 0. -1.
         21   -1    0    0  501  503 -0.00000000000E+00 -0.00000000000E+00 -0.28358447633E+03  0.28358447633E+03  0.00000000000E+00 0.  1.
         25    1    1    2    0    0  0.26428122484E+03  0.88329976499E+02 -0.11277683111E+03  0.32556161350E+03  0.12500000000E+03 0.  0.
          2    1    1    2  501    0  0.32341512112E+02  0.66120641509E+00  0.24318350235E+01  0.32439550262E+02  0.00000000000E+00 0.  1.
         -2    1    1    2    0  502 -0.29662273695E+03 -0.88991182914E+02  0.43582321382E+03  0.53464600664E+03  0.00000000000E+00 0. -1.
<mgrwt>
<rscale>  4 0.32865403E+03</rscale>
<asrwt>0</asrwt>
<pdfrwt beam="1">  1       21 0.93701952E-01 0.32865403E+03</pdfrwt>
<pdfrwt beam="2">  1       21 0.43628381E-01 0.32865403E+03</pdfrwt>
<totfact> 0.44404580E+03</totfact>
</mgrwt>
</event>
<event>
 5    0  0.1972558E-002  0.2596091E+03  0.7546771E-02  0.1107378E+00
         21   -1    0    0  503  502  0.00000000000E+00  0.00000000000E+00  0.10334110251E+04  0.10334110251E+04  0.00000000000E+00 0.  1.
         21   -1    0    0  501  503 -0.00000000000E+00 -0.00000000000E+00 -0.76570143378E+02  0.76570143378E+02  0.00000000000E+00 0.  1.
         25    1    1    2    0    0 -0.50124429499E+01  0.24939255555E+03  0.44751949218E+03  0.52737128025E+03  0.12500000000E+03 0.  0.
          4    1    1    2  501    0 -0.30022856734E+02 -0.36488203330E+02  0.27474608173E+02  0.54659079785E+02  0.00000000000E+00 0. -1.
         -4    1    1    2    0  502  0.35035299684E+02 -0.21290435222E+03  0.48184678136E+03  0.52795080844E+03  0.00000000000E+00 0.  1.
<mgrwt>
<rscale>  4 0.25960914E+03</rscale>
<asrwt>0</asrwt>
<pdfrwt beam="1">  1       21 0.15898630E+00 0.25960914E+03</pdfrwt>
<pdfrwt beam="2">  1       21 0.11780023E-01 0.25960914E+03</pdfrwt>
<totfact> 0.14878923E+04</totfact>
</mgrwt>
</event>
<event>
 5    0  0.1972558E-002  0.2653357E+03  0.7546771E-02  0.1103979E+00
         21   -1    0    0  503  502  0.00000000000E+00  0.00000000000E+00  0.45625575547E+03  0.45625575547E+03  0.00000000000E+00 0. -1.
         21   -1    0    0  501  503 -0.00000000000E+00 -0.00000000000E+00 -0.16892034394E+03  0.16892034394E+03  0.00000000000E+00 0. -1.
         25    1    1    2    0    0  0.84362234471E+02 -0.21831404671E+03  0.26785295603E+02  0.26668419836E+03  0.12500000000E+03 0.  0.
          2    1    1    2  501    0 -0.90898023682E+02  0.18956085116E+03  0.19554852524E+03  0.28711494688E+03  0.00000000000E+00 0. -1.
         -2    1    1    2    0  502  0.65357892110E+01  0.28753195551E+02  0.65001590689E+02  0.71376954173E+02  0.00000000000E+00 0.  1.
<mgrwt>
<rscale>  4 0.26533565E+03</rscale>
<asrwt>0</asrwt>
<pdfrwt beam="1">  1       21 0.70193193E-01 0.26533565E+03</pdfrwt>
<pdfrwt beam="2">  1       21 0.25987745E-01 0.26533565E+03</pdfrwt>
<totfact> 0.24962696E+04</totfact>
</mgrwt>
</event>
<event>
 5    0  0.1972558E-002  0.3561834E+03  0.7546771E-02  0.1060105E+00
         21   -1    0    0  501  502  0.00000000000E+00  0.00000000000E+00  0.49537462527E+03  0.49537462527E+03  0.00000000000E+00 0.  1.
         21   -1    0    0  502  503 -0.00000000000E+00 -0.00000000000E+00 -0.36437386855E+03  0.36437386855E+03  0.00000000000E+00 0.  1.
         25    1    1    2    0    0 -0.13883061889E+03 -0.30521037092E+03 -0.15374260444E+03  0.38947284845E+03  0.12500000000E+03 0.  0.
          4    1    1    2  501    0  0.17185516836E+03  0.28179940052E+03  0.27239478091E+03  0.42795328915E+03  0.00000000000E+00 0.  1.
         -4    1    1    2    0  503 -0.33024549466E+02  0.23410970400E+02  0.12348580248E+02  0.42322356228E+02  0.00000000000E+00 0. -1.
<mgrwt>
<rscale>  4 0.35618345E+03</rscale>
<asrwt>0</asrwt>
<pdfrwt beam="1">  1       21 0.76211481E-01 0.35618345E+03</pdfrwt>
<pdfrwt beam="2">  1       21 0.56057518E-01 0.35618345E+03</pdfrwt>
<totfact> 0.41730748E+03</totfact>
</mgrwt>
</event>
<event>
 5    0  0.1972558E-002  0.2389369E+03  0.7546771E-02  0.1120503E+00
         21   -1    0    0  501  502  0.00000000000E+00  0.00000000000E+00  0.11539665863E+03  0.11539665863E+03  0.00000000000E+00 0. -1.
         21   -1    0    0  502  503 -0.00000000000E+00 -0.00000000000E+00 -0.11446947222E+04  0.11446947222E+04  0.00000000000E+00 0.  1.
         25    1    1    2    0    0 -0.11612478589E+03 -0.17942529452E+03 -0.90181252489E+03  0.93518406331E+03  0.12500000000E+03 0.  0.
          4    1    1    2  501    0  0.32682900654E+02  0.18099387617E+02  0.55618268697E+02  0.67001131633E+02  0.00000000000E+00 0.  1.
         -4    1    1    2    0  503  0.83441885238E+02  0.16132590690E+03 -0.18310380738E+03  0.25790618590E+03  0.00000000000E+00 0. -1.
<mgrwt>
<rscale>  4 0.23893693E+03</rscale>
<asrwt>0</asrwt>
<pdfrwt beam="1">  1       21 0.17753331E-01 0.23893693E+03</pdfrwt>
<pdfrwt beam="2">  1       21 0.17610689E+00 0.23893693E+03</pdfrwt>
<totfact> 0.53687488E+03</totfact>
</mgrwt>
</event>
<event>
 5    0  0.1972558E-002  0.2669177E+03  0.7546771E-02  0.1103057E+00
         21   -1    0    0  501  502  0.00000000000E+00  0.00000000000E+00  0.18955483975E+03  0.18955483975E+03  0.00000000000E+00 0.  1.
         21   -1    0    0  502  503 -0.00000000000E+00 -0.00000000000E+00 -0.31275699378E+04  0.31275699378E+04  0.00000000000E+00 0.  1.
         25    1    1    2    0    0  0.26255192924E+02  0.23942691000E+03 -0.29809708289E+04  0.29932969554E+04  0.12500000000E+03 0.  0.
          4    1    1    2  501    0 -0.17943213560E+01 -0.56874497282E+02  0.11320512756E+03  0.12670173217E+03  0.00000000000E+00 0.  1.
         -4    1    1    2    0  503 -0.24460871568E+02 -0.18255241272E+03 -0.70249396753E+02  0.19712609004E+03  0.00000000000E+00 0. -1.
<mgrwt>
<rscale>  4 0.26691770E+03</rscale>
<asrwt>0</asrwt>
<pdfrwt beam="1">  1       21 0.29162285E-01 0.26691770E+03</pdfrwt>
<pdfrwt beam="2">  1       21 0.48116457E+00 0.26691770E+03</pdfrwt>
<totfact> 0.25412472E+01</totfact>
</mgrwt>
</event>
<event>
 5    0  0.4196007E-002  0.2805320E+03  0.7546771E-02  0.1095399E+00
         21   -1    0    0  503  502  0.00000000000E+00  0.00000000000E+00  0.84710136659E+03  0.84710136659E+03  0.00000000000E+00 0. -1.
         21   -1    0    0  501  503 -0.00000000000E+00 -0.00000000000E+00 -0.12284040623E+04  0.12284040623E+04  0.00000000000E+00 0. -1.
         25    1    1    2    0    0 -0.18821506383E+03  0.96925355409E+02 -0.63226345175E+03  0.67838153512E+03  0.12500000000E+03 0.  0.
          3    1    1    2  501    0  0.23922872266E+03 -0.31643520307E+03 -0.48549984098E+03  0.62695431658E+03  0.00000000000E+00 0.  1.
         -3    1    1    2    0  502 -0.51013658829E+02  0.21950984766E+03  0.73646059704E+03  0.77016957717E+03  0.00000000000E+00 0. -1.
<mgrwt>
<rscale>  4 0.28053198E+03</rscale>
<asrwt>0</asrwt>
<pdfrwt beam="1">  1       21 0.13032329E+00 0.28053198E+03</pdfrwt>
<pdfrwt beam="2">  1       21 0.18898524E+00 0.28053198E+03</pdfrwt>
<totfact> 0.60979780E+01</totfact>
</mgrwt>
</event>
<event>
 5    0  0.1972558E-002  0.4121185E+03  0.7546771E-02  0.1039662E+00
         21   -1    0    0  501  502  0.00000000000E+00  0.00000000000E+00  0.14945947736E+04  0.14945947736E+04  0.00000000000E+00 0.  1.
         21   -1    0    0  502  503 -0.00000000000E+00 -0.00000000000E+00 -0.49885082979E+03  0.49885082979E+03  0.00000000000E+00 0. -1.
         25    1    1    2    0    0  0.36895148256E+03  0.10122103222E+03 -0.22045206761E+03  0.45890631719E+03  0.12500000000E+03 0.  0.
          4    1    1    2  501    0 -0.40828075766E+03 -0.82608576135E+02  0.11452695545E+03  0.43201131634E+03  0.00000000000E+00 0. -1.
         -4    1    1    2    0  503  0.39329275098E+02 -0.18612456089E+02  0.11016690559E+04  0.11025279698E+04  0.00000000000E+00 0.  1.
<mgrwt>
<rscale>  4 0.41211852E+03</rscale>
<asrwt>0</asrwt>
<pdfrwt beam="1">  1       21 0.22993766E+00 0.41211852E+03</pdfrwt>
<pdfrwt beam="2">  1       21 0.76746282E-01 0.41211852E+03</pdfrwt>
<totfact> 0.10697676E+02</totfact>
</mgrwt>
</event>
<event>
 5    0  0.1972558E-002  0.2350401E+03  0.7546771E-02  0.1123142E+00
         21   -1    0    0  501  502  0.00000000000E+00  0.00000000000E+00  0.14969243502E+03  0.14969243502E+03  0.00000000000E+00 0. -1.
         21   -1    0    0  502  503 -0.00000000000E+00 -0.00000000000E+00 -0.48602116631E+03  0.48602116631E+03  0.00000000000E+00 0. -1.
         25    1    1    2    0    0  0.32681371692E+02  0.20680693596E+03 -0.26402956488E+03  0.35940755688E+03  0.12500000000E+03 0.  0.
          4    1    1    2  501    0 -0.44760013327E+02 -0.17583689292E+02  0.34035862539E+02  0.58915913478E+02  0.00000000000E+00 0.  1.
         -4    1    1    2    0  503  0.12078641634E+02 -0.18922324667E+03 -0.10633502894E+03  0.21739013097E+03  0.00000000000E+00 0. -1.
<mgrwt>
<rscale>  4 0.23504014E+03</rscale>
<asrwt>0</asrwt>
<pdfrwt beam="1">  1       21 0.23029605E-01 0.23504014E+03</pdfrwt>
<pdfrwt beam="2">  1       21 0.74772487E-01 0.23504014E+03</pdfrwt>
<totfact> 0.27708232E+04</totfact>
</mgrwt>
</event>
<event>
 5    0  0.1972558E-002  0.3437153E+03  0.7546771E-02  0.1065224E+00
         21   -1    0    0  501  502  0.00000000000E+00  0.00000000000E+00  0.44529284233E+03  0.44529284233E+03  0.00000000000E+00 0. -1.
         21   -1    0    0  502  503 -0.00000000000E+00 -0.00000000000E+00 -0.36966911623E+03  0.36966911623E+03  0.00000000000E+00 0.  1.
         25    1    1    2    0    0  0.88808439449E+02 -0.30726982192E+03 -0.80314995183E+02  0.35267149138E+03  0.12500000000E+03 0.  0.
          4    1    1    2  501    0 -0.13867171774E+03  0.29171973688E+03  0.28134396303E+02  0.32422491336E+03  0.00000000000E+00 0.  1.
         -4    1    1    2    0  503  0.49863278295E+02  0.15550085043E+02  0.12780432499E+03  0.13806555382E+03  0.00000000000E+00 0. -1.
<mgrwt>
<rscale>  4 0.34371532E+03</rscale>
<asrwt>0</asrwt>
<pdfrwt beam="1">  1       21 0.68506591E-01 0.34371532E+03</pdfrwt>
<pdfrwt beam="2">  1       21 0.56872172E-01 0.34371532E+03</pdfrwt>
<totfact> 0.51703201E+03</totfact>
</mgrwt>
</event>
<event>
 5    0  0.1972558E-002  0.3284287E+03  0.7546771E-02  0.1071834E+00
         21   -1    0    0  501  502  0.00000000000E+00  0.00000000000E+00  0.73492380446E+03  0.73492380446E+03  0.00000000000E+00 0. -1.
         21   -1    0    0  502  503 -0.00000000000E+00 -0.00000000000E+00 -0.39265643990E+03  0.39265643990E+03  0.00000000000E+00 0. -1.
         25    1    1    2    0    0 -0.20164008019E+03  0.22532728793E+03 -0.25000783718E+03  0.41177667161E+03  0.12500000000E+03 0.  0.
          1    1    1    2  501    0  0.22388010538E+03 -0.21576877005E+03  0.33373738913E+03  0.45613496754E+03  0.00000000000E+00 0. -1.
         -1    1    1    2    0  503 -0.22240025186E+02 -0.95585178808E+01  0.25853781261E+03  0.25966860521E+03  0.00000000000E+00 0.  1.
<mgrwt>
<rscale>  4 0.32842872E+03</rscale>
<asrwt>0</asrwt>
<pdfrwt beam="1">  1       21 0.11306520E+00 0.32842872E+03</pdfrwt>
<pdfrwt beam="2">  1       21 0.60408683E-01 0.32842872E+03</pdfrwt>
<totfact> 0.14117901E+03</totfact>
</mgrwt>
</event>
<event>
 5    0  0.1972558E-002  0.2455074E+03  0.7546771E-02  0.1116177E+00
         21   -1    0    0  501  502  0.00000000000E+00  0.00000000000E+00  0.23398127905E+03  0.23398127905E+03  0.00000000000E+00 0. -1.
         21   -1    0    0  502  503 -0.00000000000E+00 -0.00000000000E+00 -0.30292158021E+03  0.30292158021E+03  0.00000000000E+00 0. -1.
         25    1    1    2    0    0  0.11481009334E+03 -0.17863649722E+03 -0.11994569365E+03  0.27405168326E+03  0.12500000000E+03 0.  0.
          1    1    1    2  501    0 -0.13677270527E+03  0.16058233505E+03  0.77352300533E+01  0.21107650987E+03  0.00000000000E+00 0. -1.
         -1    1    1    2    0  503  0.21962611937E+02  0.18054162176E+02  0.43270162434E+02  0.51774666122E+02  0.00000000000E+00 0.  1.
<mgrwt>
<rscale>  4 0.24550738E+03</rscale>
<asrwt>0</asrwt>
<pdfrwt beam="1">  1       21 0.35997120E-01 0.24550738E+03</pdfrwt>
<pdfrwt beam="2">  1       21 0.46603320E-01 0.24550738E+03</pdfrwt>
<totfact> 0.31960146E+04</totfact>
</mgrwt>
</event>
<event>
 5    0  0.1972558E-002  0.2930617E+03  0.7546771E-02  0.1088761E+00
         21   -1    0    0  503  502  0.00000000000E+00  0.00000000000E+00  0.38563612053E+03  0.38563612053E+03  0.00000000000E+00 0.  1.
         21   -1    0    0  501  503 -0.00000000000E+00 -0.00000000000E+00 -0.28918875892E+03  0.28918875892E+03  0.00000000000E+00 0.  1.
         25    1    1    2    0    0  0.17276486206E+03  0.20367504994E+03 -0.10731370109E+03  0.31380320899E+03  0.12500000000E+03 0.  0.
          3    1    1    2  501    0  0.21814469541E+02 -0.28478114569E+02  0.19263494471E+02  0.40718009652E+02  0.00000000000E+00 0. -1.
         -3    1    1    2    0  502 -0.19457933160E+03 -0.17519693537E+03  0.18449756823E+03  0.32030366081E+03  0.00000000000E+00 0.  1.
<mgrwt>
<rscale>  4 0.29306172E+03</rscale>
<asrwt>0</asrwt>
<pdfrwt beam="1">  1       21 0.59328634E-01 0.29306172E+03</pdfrwt>
<pdfrwt beam="2">  1       21 0.44490578E-01 0.29306172E+03</pdfrwt>
<totfact> 0.12184553E+04</totfact>
</mgrwt>
</event>
<event>
 5    0  0.1972558E-002  0.2570241E+03  0.7546771E-02  0.1108945E+00
         21   -1    0    0  501  502  0.00000000000E+00  0.00000000000E+00  0.78581923708E+03  0.78581923708E+03  0.00000000000E+00 0. -1.
         21   -1    0    0  502  503 -0.00000000000E+00 -0.00000000000E+00 -0.79283626480E+03  0.79283626480E+03  0.00000000000E+00 0.  1.
         25    1    1    2    0    0  0.21013398135E+03  0.68203929924E+02 -0.65510942292E+03  0.70256773494E+03  0.12500000000E+03 0.  0.
          4    1    1    2  501    0  0.46007241710E+01  0.64782718041E+02  0.61836339967E+03  0.62176463495E+03  0.00000000000E+00 0. -1.
         -4    1    1    2    0  503 -0.21473470552E+03 -0.13298664797E+03  0.29728995525E+02  0.25432313199E+03  0.00000000000E+00 0.  1.
<mgrwt>
<rscale>  4 0.25702408E+03</rscale>
<asrwt>0</asrwt>
<pdfrwt beam="1">  1       21 0.12089527E+00 0.25702408E+03</pdfrwt>
<pdfrwt beam="2">  1       21 0.12197481E+00 0.25702408E+03</pdfrwt>
<totfact> 0.24536055E+02</totfact>
</mgrwt>
</event>
<event>
 5    0  0.1972558E-002  0.2800386E+03  0.7546771E-02  0.1095668E+00
         21   -1    0    0  501  502  0.00000000000E+00  0.00000000000E+00  0.38470947926E+03  0.38470947926E+03  0.00000000000E+00 0.  1.
         21   -1    0    0  502  503 -0.00000000000E+00 -0.00000000000E+00 -0.26673169096E+03  0.26673169096E+03  0.00000000000E+00 0. -1.
         25    1    1    2    0    0 -0.32757934387E+02 -0.24844218963E+03 -0.11431218677E+03  0.30247128773E+03  0.12500000000E+03 0.  0.
          1    1    1    2  501    0  0.68407975984E+01  0.30245248298E+02  0.67594696769E+02  0.74368101950E+02  0.00000000000E+00 0. -1.
         -1    1    1    2    0  503  0.25917136788E+02  0.21819694133E+03  0.16469527830E+03  0.27460178055E+03  0.00000000000E+00 0.  1.
<mgrwt>
<rscale>  4 0.28003858E+03</rscale>
<asrwt>0</asrwt>
<pdfrwt beam="1">  1       21 0.59186073E-01 0.28003858E+03</pdfrwt>
<pdfrwt beam="2">  1       21 0.41035645E-01 0.28003858E+03</pdfrwt>
<totfact> 0.14550490E+04</totfact>
</mgrwt>
</event>
<event>
 5    0  0.1972558E-002  0.3283488E+03  0.7546771E-02  0.1071870E+00
         21   -1    0    0  501  502  0.00000000000E+00  0.00000000000E+00  0.37820913071E+03  0.37820913071E+03  0.00000000000E+00 0.  1.
         21   -1    0    0  502  503 -0.00000000000E+00 -0.00000000000E+00 -0.39394781523E+03  0.39394781523E+03  0.00000000000E+00 0.  1.
         25    1    1    2    0    0 -0.29924244418E+03 -0.66660817525E+02  0.73671724928E+02  0.33917875530E+03  0.12500000000E+03 0.  0.
          1    1    1    2  501    0  0.11588283106E+02 -0.27908365316E+02  0.80344862780E+02  0.85839746826E+02  0.00000000000E+00 0. -1.
         -1    1    1    2    0  503  0.28765416107E+03  0.94569182840E+02 -0.16975527223E+03  0.34713844381E+03  0.00000000000E+00 0.  1.
<mgrwt>
<rscale>  4 0.32834882E+03</rscale>
<asrwt>0</asrwt>
<pdfrwt beam="1">  1       21 0.58186020E-01 0.32834882E+03</pdfrwt>
<pdfrwt beam="2">  1       21 0.60607356E-01 0.32834882E+03</pdfrwt>
<totfact> 0.64905222E+03</totfact>
</mgrwt>
</event>
<event>
 5    0  0.1972558E-002  0.2743347E+03  0.7546771E-02  0.1098824E+00
         21   -1    0    0  501  502  0.00000000000E+00  0.00000000000E+00  0.65346504456E+03  0.65346504456E+03  0.00000000000E+00 0.  1.
         21   -1    0    0  502  503 -0.00000000000E+00 -0.00000000000E+00 -0.44600872011E+03  0.44600872011E+03  0.00000000000E+00 0.  1.
         25    1    1    2    0    0 -0.20162061453E+03 -0.16208285816E+03 -0.34625227725E+03  0.44993039974E+03  0.12500000000E+03 0.  0.
          1    1    1    2  501    0  0.17328783986E+02  0.10808289411E+03  0.36201503526E+03  0.37820243853E+03  0.00000000000E+00 0.  1.
         -1    1    1    2    0  503  0.18429183055E+03  0.53999964043E+02  0.19169356645E+03  0.27134092640E+03  0.00000000000E+00 0. -1.
<mgrwt>
<rscale>  4 0.27433471E+03</rscale>
<asrwt>0</asrwt>
<pdfrwt beam="1">  1       21 0.10053308E+00 0.27433471E+03</pdfrwt>
<pdfrwt beam="2">  1       21 0.68616726E-01 0.27433471E+03</pdfrwt>
<totfact> 0.14691717E+03</totfact>
</mgrwt>
</event>
<event>
 5    0  0.1972558E-002  0.2900732E+03  0.7546771E-02  0.1090311E+00
         21   -1    0    0  503  502  0.00000000000E+00  0.00000000000E+00  0.47659627417E+03  0.47659627417E+03  0.00000000000E+00 0. -1.
         21   -1    0    0  501  503 -0.00000000000E+00 -0.00000000000E+00 -0.45280108409E+03  0.45280108409E+03  0.00000000000E+00 0. -1.
         25    1    1    2    0    0  0.14437086921E+02 -0.29234347671E+03 -0.25343857372E+03  0.40685285854E+03  0.12500000000E+03 0.  0.
          1    1    1    2  501    0 -0.53994604667E+02  0.21516431165E+03 -0.10440886914E+02  0.22208131498E+03  0.00000000000E+00 0. -1.
         -1    1    1    2    0  502  0.39557517747E+02  0.77179165054E+02  0.28767465071E+03  0.30046318475E+03  0.00000000000E+00 0.  1.
<mgrwt>
<rscale>  4 0.29007317E+03</rscale>
<asrwt>0</asrwt>
<pdfrwt beam="1">  1       21 0.73322503E-01 0.29007317E+03</pdfrwt>
<pdfrwt beam="2">  1       21 0.69661706E-01 0.29007317E+03</pdfrwt>
<totfact> 0.29242533E+03</totfact>
</mgrwt>
</event>
<event>
 5    0  0.1972558E-002  0.2776612E+03  0.7546771E-02  0.1096973E+00
         21   -1    0    0  501  502  0.00000000000E+00  0.00000000000E+00  0.12867515257E+03  0.12867515257E+03  0.00000000000E+00 0. -1.
         21   -1    0    0  502  503 -0.00000000000E+00 -0.00000000000E+00 -0.79262154191E+03  0.79262154191E+03  0.00000000000E+00 0.  1.
         25    1    1    2    0    0 -0.50735302208E+02 -0.25289897678E+03 -0.37947498115E+03  0.47556095789E+03  0.12500000000E+03 0.  0.
          1    1    1    2  501    0 -0.38832742967E+02  0.24247429481E+03 -0.24634920236E+03  0.34783573001E+03  0.00000000000E+00 0. -1.
         -1    1    1    2    0  503  0.89568045175E+02  0.10424681975E+02 -0.38122205827E+02  0.97900006577E+02  0.00000000000E+00 0.  1.
<mgrwt>
<rscale>  4 0.27766123E+03</rscale>
<asrwt>0</asrwt>
<pdfrwt beam="1">  1       21 0.19796177E-01 0.27766123E+03</pdfrwt>
<pdfrwt beam="2">  1       21 0.12194178E+00 0.27766123E+03</pdfrwt>
<totfact> 0.11340853E+04</totfact>
</mgrwt>
</event>
<event>
 5    0  0.1972558E-002  0.2663915E+03  0.7546771E-02  0.1103363E+00
         21   -1    0    0  501  502  0.00000000000E+00  0.00000000000E+00  0.11725897155E+04  0.11725897155E+04  0.00000000000E+00 0. -1.
         21   -1    0    0  502  503 -0.00000000000E+00 -0.00000000000E+00 -0.22536484556E+03  0.22536484556E+03  0.00000000000E+00 0. -1.
         25    1    1    2    0    0  0.16595261652E+03  0.17037018185E+03 -0.11802495595E+03  0.29346406939E+03  0.12500000000E+03 0.  0.
          3    1    1    2  501    0 -0.13783508217E+03 -0.16852908809E+03  0.59813481585E+03  0.63652637128E+03  0.00000000000E+00 0. -1.
         -3    1    1    2    0  503 -0.28117534341E+02 -0.18410937607E+01  0.46711501006E+03  0.46796412040E+03  0.00000000000E+00 0.  1.
<mgrwt>
<rscale>  4 0.26639147E+03</rscale>
<asrwt>0</asrwt>
<pdfrwt beam="1">  1       21 0.18039841E+00 0.26639147E+03</pdfrwt>
<pdfrwt beam="2">  1       21 0.34671515E-01 0.26639147E+03</pdfrwt>
<totfact> 0.13563087E+03</totfact>
</mgrwt>
</event>
<event>
 5    0  0.1972558E-002  0.2427712E+03  0.7546771E-02  0.1117960E+00
         21   -1    0    0  503  502  0.00000000000E+00  0.00000000000E+00  0.33676669587E+03  0.33676669587E+03  0.00000000000E+00 0.  1.
         21   -1    0    0  501  503 -0.00000000000E+00 -0.00000000000E+00 -0.45195027056E+03  0.45195027056E+03  0.00000000000E+00 0.  1.
         25    1    1    2    0    0 -0.12734457119E+03 -0.18667024407E+03 -0.32889297577E+03  0.41816026753E+03  0.12500000000E+03 0.  0.
          2    1    1    2  501    0  0.10243086459E+03  0.65390113013E+02 -0.23387162782E+01  0.12154595220E+03  0.00000000000E+00 0. -1.
         -2    1    1    2    0  502  0.24913706593E+02  0.12128013105E+03  0.21604811735E+03  0.24901074671E+03  0.00000000000E+00 0.  1.
<mgrwt>
<rscale>  4 0.24277124E+03</rscale>
<asrwt>0</asrwt>
<pdfrwt beam="1">  1       21 0.51810261E-01 0.24277124E+03</pdfrwt>
<pdfrwt beam="2">  1       21 0.69530811E-01 0.24277124E+03</pdfrwt>
<totfact> 0.64277510E+03</totfact>
</mgrwt>
</event>
<event>
 5    0  0.1972558E-002  0.3529578E+03  0.7546771E-02  0.1061408E+00
         21   -1    0    0  501  502  0.00000000000E+00  0.00000000000E+00  0.58686849286E+03  0.58686849286E+03  0.00000000000E+00 0.  1.
         21   -1    0    0  502  503 -0.00000000000E+00 -0.00000000000E+00 -0.34523903375E+03  0.34523903375E+03  0.00000000000E+00 0. -1.
         25    1    1    2    0    0  0.27039204704E+03  0.18932070083E+03 -0.17090611556E+03  0.39215824255E+03  0.12500000000E+03 0.  0.
          2    1    1    2  501    0 -0.81228787970E+02 -0.41729385176E+01  0.71879795834E+02  0.10854600158E+03  0.00000000000E+00 0. -1.
         -2    1    1    2    0  503 -0.18916325907E+03 -0.18514776231E+03  0.34065577884E+03  0.43140328248E+03  0.00000000000E+00 0.  1.
<mgrwt>
<rscale>  4 0.35295777E+03</rscale>
<asrwt>0</asrwt>
<pdfrwt beam="1">  1       21 0.90287461E-01 0.35295777E+03</pdfrwt>
<pdfrwt beam="2">  1       21 0.53113697E-01 0.35295777E+03</pdfrwt>
<totfact> 0.31693068E+03</totfact>
</mgrwt>
</event>
<event>
 5    0  0.1972558E-002  0.2571321E+03  0.7546771E-02  0.1108879E+00
         21   -1    0    0  501  502  0.00000000000E+00  0.00000000000E+00  0.77664297105E+03  0.77664297105E+03  0.00000000000E+00 0. -1.
         21   -1    0    0  502  503 -0.00000000000E+00 -0.00000000000E+00 -0.47403760960E+03  0.47403760960E+03  0.00000000000E+00 0. -1.
         25    1    1    2    0    0 -0.22293500526E+03  0.41479469440E+02 -0.39678509757E+03  0.47379740039E+03  0.12500000000E+03 0.  0.
          2    1    1    2  501    0  0.21350897730E+03  0.13148645116E+02  0.27261579091E+03  0.34652321669E+03  0.00000000000E+00 0.  1.
         -2    1    1    2    0  503  0.94260279615E+01 -0.54628114556E+02  0.42677466812E+03  0.43035996357E+03  0.00000000000E+00 0. -1.
<mgrwt>
<rscale>  4 0.25713205E+03</rscale>
<asrwt>0</asrwt>
<pdfrwt beam="1">  1       21 0.11948353E+00 0.25713205E+03</pdfrwt>
<pdfrwt beam="2">  1       21 0.72928863E-01 0.25713205E+03</pdfrwt>
<totfact> 0.85174946E+02</totfact>
</mgrwt>
</event>
<event>
 5    0  0.1972558E-002  0.2584180E+03  0.7546771E-02  0.1108097E+00
         21   -1    0    0  503  502  0.00000000000E+00  0.00000000000E+00  0.40397033545E+03  0.40397033545E+03  0.00000000000E+00 0.  1.
         21   -1    0    0  501  503 -0.00000000000E+00 -0.00000000000E+00 -0.22841440714E+03  0.22841440714E+03  0.00000000000E+00 0.  1.
         25    1    1    2    0    0  0.22334553055E+03  0.56359130696E+02  0.47732755446E+02  0.26638880151E+03  0.12500000000E+03 0.  0.
          3    1    1    2  501    0  0.47595950289E+01 -0.84850171844E+02  0.10486130547E+03  0.13497443755E+03  0.00000000000E+00 0. -1.
         -3    1    1    2    0  502 -0.22810512557E+03  0.28491041148E+02  0.22961867385E+02  0.23102150353E+03  0.00000000000E+00 0.  1.
<mgrwt>
<rscale>  4 0.25841805E+03</rscale>
<asrwt>0</asrwt>
<pdfrwt beam="1">  1       21 0.62149282E-01 0.25841805E+03</pdfrwt>
<pdfrwt beam="2">  1       21 0.35140678E-01 0.25841805E+03</pdfrwt>
<totfact> 0.18089389E+04</totfact>
</mgrwt>
</event>
<event>
 5    0  0.1972558E-002  0.2597208E+03  0.7546771E-02  0.1107311E+00
         21   -1    0    0  503  502  0.00000000000E+00  0.00000000000E+00  0.33165639471E+03  0.33165639471E+03  0.00000000000E+00 0.  1.
         21   -1    0    0  501  503 -0.00000000000E+00 -0.00000000000E+00 -0.68034613405E+03  0.68034613405E+03  0.00000000000E+00 0. -1.
         25    1    1    2    0    0  0.14127796241E+03 -0.17852291962E+03 -0.60931199359E+03  0.66235640031E+03  0.12500000000E+03 0.  0.
          1    1    1    2  501    0 -0.25698053615E+02  0.41165892354E+02  0.28752175499E+02  0.56406633021E+02  0.00000000000E+00 0. -1.
         -1    1    1    2    0  502 -0.11557990880E+03  0.13735702727E+03  0.23187007876E+03  0.29323949543E+03  0.00000000000E+00 0.  1.
<mgrwt>
<rscale>  4 0.25972080E+03</rscale>
<asrwt>0</asrwt>
<pdfrwt beam="1">  1       21 0.51024061E-01 0.25972080E+03</pdfrwt>
<pdfrwt beam="2">  1       21 0.10466864E+00 0.25972080E+03</pdfrwt>
<totfact> 0.25528420E+03</totfact>
</mgrwt>
</event>
<event>
 5    0  0.1972558E-002  0.2382925E+03  0.7546771E-02  0.1120936E+00
         21   -1    0    0  503  502  0.00000000000E+00  0.00000000000E+00  0.32428592730E+03  0.32428592730E+03  0.00000000000E+00 0. -1.
         21   -1    0    0  501  503 -0.00000000000E+00 -0.00000000000E+00 -0.20522961596E+03  0.20522961596E+03  0.00000000000E+00 0. -1.
         25    1    1    2    0    0  0.93716802374E+02 -0.17993189671E+03 -0.72572843632E+02  0.24909866345E+03  0.12500000000E+03 0.  0.
          4    1    1    2  501    0 -0.33751857957E+01  0.24156560069E+02  0.27595624137E+02  0.36830011472E+02  0.00000000000E+00 0.  1.
         -4    1    1    2    0  502 -0.90341616578E+02  0.15577533664E+03  0.16403353083E+03  0.24358686834E+03  0.00000000000E+00 0. -1.
<mgrwt>
<rscale>  4 0.23829252E+03</rscale>
<asrwt>0</asrwt>
<pdfrwt beam="1">  1       21 0.49890143E-01 0.23829252E+03</pdfrwt>
<pdfrwt beam="2">  1       21 0.31573787E-01 0.23829252E+03</pdfrwt>
<totfact> 0.36090688E+04</totfact>
</mgrwt>
</event>
<event>
 5    0  0.1972558E-002  0.3280340E+03  0.7546771E-02  0.1072010E+00
         21   -1    0    0  501  502  0.00000000000E+00  0.00000000000E+00  0.38935467564E+03  0.38935467564E+03  0.00000000000E+00 0.  1.
         21   -1    0    0  502  503 -0.00000000000E+00 -0.00000000000E+00 -0.36110342257E+03  0.36110342257E+03  0.00000000000E+00 0.  1.
         25    1    1    2    0    0  0.27268773953E+03  0.56993359301E+02 -0.10983917327E+03  0.32449420685E+03  0.12500000000E+03 0.  0.
          4    1    1    2  501    0 -0.28788414698E+03 -0.13374354810E+03  0.14173301059E+03  0.34763898664E+03  0.00000000000E+00 0.  1.
         -4    1    1    2    0  503  0.15196407448E+02  0.76750188799E+02 -0.36425842582E+01  0.78324904725E+02  0.00000000000E+00 0. -1.
<mgrwt>
<rscale>  4 0.32803403E+03</rscale>
<asrwt>0</asrwt>
<pdfrwt beam="1">  1       21 0.59900720E-01 0.32803403E+03</pdfrwt>
<pdfrwt beam="2">  1       21 0.55554372E-01 0.32803403E+03</pdfrwt>
<totfact> 0.73579220E+03</totfact>
</mgrwt>
</event>
<event>
 5    0  0.1972558E-002  0.2457250E+03  0.7546771E-02  0.1116037E+00
         21   -1    0    0  501  502  0.00000000000E+00  0.00000000000E+00  0.52501140985E+03  0.52501140985E+03  0.00000000000E+00 0. -1.
         21   -1    0    0  502  503 -0.00000000000E+00 -0.00000000000E+00 -0.30534538936E+03  0.30534538936E+03  0.00000000000E+00 0.  1.
         25    1    1    2    0    0  0.59141164329E+02  0.21190822591E+03 -0.18382694013E+03  0.31276207802E+03  0.12500000000E+03 0.  0.
          2    1    1    2  501    0  0.41792046361E+02 -0.17687947175E+03  0.35796026481E+03  0.40145793534E+03  0.00000000000E+00 0. -1.
         -2    1    1    2    0  503 -0.10093321069E+03 -0.35028754163E+02  0.45532695823E+02  0.11613678585E+03  0.00000000000E+00 0.  1.
<mgrwt>
<rscale>  4 0.24572496E+03</rscale>
<asrwt>0</asrwt>
<pdfrwt beam="1">  1       21 0.80770986E-01 0.24572496E+03</pdfrwt>
<pdfrwt beam="2">  1       21 0.46976214E-01 0.24572496E+03</pdfrwt>
<totfact> 0.56247481E+03</totfact>
</mgrwt>
</event>
<event>
 5    0  0.1972558E-002  0.4074742E+03  0.7546771E-02  0.1041222E+00
         21   -1    0    0  501  502  0.00000000000E+00  0.00000000000E+00  0.31780705657E+03  0.31780705657E+03  0.00000000000E+00 0. -1.
         21   -1    0    0  502  503 -0.00000000000E+00 -0.00000000000E+00 -0.13539206994E+04  0.13539206994E+04  0.00000000000E+00 0.  1.
         25    1    1    2    0    0  0.27718366018E+03 -0.29440668316E+03 -0.10167325538E+04  0.11013065706E+04  0.12500000000E+03 0.  0.
          1    1    1    2  501    0  0.18154437570E+02  0.10298026162E+03  0.14758469766E+03  0.18087498686E+03  0.00000000000E+00 0.  1.
         -1    1    1    2    0  503 -0.29533809775E+03  0.19142642153E+03 -0.16696578672E+03  0.38954619852E+03  0.00000000000E+00 0. -1.
<mgrwt>
<rscale>  4 0.40747425E+03</rscale>
<asrwt>0</asrwt>
<pdfrwt beam="1">  1       21 0.48893393E-01 0.40747425E+03</pdfrwt>
<pdfrwt beam="2">  1       21 0.20829549E+00 0.40747425E+03</pdfrwt>
<totfact> 0.39697822E+02</totfact>
</mgrwt>
</event>
<event>
 5    0  0.1972558E-002  0.2314925E+03  0.7546771E-02  0.1125594E+00
         21   -1    0    0  501  502  0.00000000000E+00  0.00000000000E+00  0.56284365339E+03  0.56284365339E+03  0.00000000000E+00 0. -1.
         21   -1    0    0  502  503 -0.00000000000E+00 -0.00000000000E+00 -0.10281918149E+03  0.10281918149E+03  0.00000000000E+00 0. -1.
         25    1    1    2    0    0  0.18282416718E+03  0.84994237255E+02  0.18016883041E+03  0.29788337302E+03  0.12500000000E+03 0.  0.
          1    1    1    2  501    0 -0.17469360837E+01 -0.28723638860E+02  0.10834496401E+03  0.11210142926E+03  0.00000000000E+00 0.  1.
         -1    1    1    2    0  503 -0.18107723110E+03 -0.56270598395E+02  0.17151067748E+03  0.25567803260E+03  0.00000000000E+00 0. -1.
<mgrwt>
<rscale>  4 0.23149254E+03</rscale>
<asrwt>0</asrwt>
<pdfrwt beam="1">  1       21 0.86591329E-01 0.23149254E+03</pdfrwt>
<pdfrwt beam="2">  1       21 0.15818336E-01 0.23149254E+03</pdfrwt>
<totfact> 0.40097511E+04</totfact>
</mgrwt>
</event>
<event>
 5    0  0.1972558E-002  0.3252647E+03  0.7546771E-02  0.1073252E+00
         21   -1    0    0  501  502  0.00000000000E+00  0.00000000000E+00  0.31852586775E+03  0.31852586775E+03  0.00000000000E+00 0. -1.
         21   -1    0    0  502  503 -0.00000000000E+00 -0.00000000000E+00 -0.80479465048E+03  0.80479465048E+03  0.00000000000E+00 0. -1.
         25    1    1    2    0    0 -0.22722275538E+03 -0.20520775819E+03 -0.63864224976E+03  0.71918657368E+03  0.12500000000E+03 0.  0.
          2    1    1    2  501    0  0.19143118080E+03  0.20163907309E+03  0.33630684847E+02  0.28006291390E+03  0.00000000000E+00 0. -1.
         -2    1    1    2    0  503  0.35791574583E+02  0.35686851078E+01  0.11874278219E+03  0.12407103065E+03  0.00000000000E+00 0.  1.
<mgrwt>
<rscale>  4 0.32526467E+03</rscale>
<asrwt>0</asrwt>
<pdfrwt beam="1">  1       21 0.49003980E-01 0.32526467E+03</pdfrwt>
<pdfrwt beam="2">  1       21 0.12381456E+00 0.32526467E+03</pdfrwt>
<totfact> 0.17630612E+03</totfact>
</mgrwt>
</event>
<event>
 5    0  0.1972558E-002  0.2384403E+03  0.7546771E-02  0.1120836E+00
         21   -1    0    0  501  502  0.00000000000E+00  0.00000000000E+00  0.90998675030E+03  0.90998675030E+03  0.00000000000E+00 0. -1.
         21   -1    0    0  502  503 -0.00000000000E+00 -0.00000000000E+00 -0.23268076292E+03  0.23268076292E+03  0.00000000000E+00 0. -1.
         25    1    1    2    0    0 -0.29179783866E+03  0.18893685995E+03  0.55403236951E+03  0.66589787667E+03  0.12500000000E+03 0.  0.
          2    1    1    2  501    0  0.15550068391E+03 -0.57640539550E+02  0.21083646401E+03  0.26824412212E+03  0.00000000000E+00 0.  1.
         -2    1    1    2    0  503  0.13629715475E+03 -0.13129632040E+03 -0.87562846138E+02  0.20852551443E+03  0.00000000000E+00 0. -1.
<mgrwt>
<rscale>  4 0.23844030E+03</rscale>
<asrwt>0</asrwt>
<pdfrwt beam="1">  1       21 0.13999796E+00 0.23844030E+03</pdfrwt>
<pdfrwt beam="2">  1       21 0.35797041E-01 0.23844030E+03</pdfrwt>
<totfact> 0.25911500E+03</totfact>
</mgrwt>
</event>
<event>
 5    0  0.1972558E-002  0.2333765E+03  0.7546771E-02  0.1124286E+00
         21   -1    0    0  501  502  0.00000000000E+00  0.00000000000E+00  0.13357348439E+03  0.13357348439E+03  0.00000000000E+00 0. -1.
         21   -1    0    0  502  503 -0.00000000000E+00 -0.00000000000E+00 -0.90893247724E+03  0.90893247724E+03  0.00000000000E+00 0. -1.
         25    1    1    2    0    0 -0.35923928330E+02 -0.20919204316E+03 -0.70800707078E+03  0.74963381182E+03  0.12500000000E+03 0.  0.
          1    1    1    2  501    0 -0.58374169394E+02  0.14579625565E+03  0.67910593600E+01  0.15719481639E+03  0.00000000000E+00 0. -1.
         -1    1    1    2    0  503  0.94298097725E+02  0.63395787513E+02 -0.74142981431E+02  0.13567733342E+03  0.00000000000E+00 0.  1.
<mgrwt>
<rscale>  4 0.23337650E+03</rscale>
<asrwt>0</asrwt>
<pdfrwt beam="1">  1       21 0.20549767E-01 0.23337650E+03</pdfrwt>
<pdfrwt beam="2">  1       21 0.13983577E+00 0.23337650E+03</pdfrwt>
<totfact> 0.76448725E+03</totfact>
</mgrwt>
</event>
<event>
 5    0  0.1972558E-002  0.5474779E+03  0.7546771E-02  0.1002931E+00
         21   -1    0    0  501  502  0.00000000000E+00  0.00000000000E+00  0.24251439859E+04  0.24251439859E+04  0.00000000000E+00 0.  1.
         21   -1    0    0  502  503 -0.00000000000E+00 -0.00000000000E+00 -0.91114716025E+03  0.91114716025E+03  0.00000000000E+00 0. -1.
         25    1    1    2    0    0 -0.32980248182E+03  0.39968589396E+03 -0.79838635632E+03  0.95998138774E+03  0.12500000000E+03 0.  0.
          1    1    1    2  501    0  0.16765527563E+03 -0.10899624212E+03  0.61819469707E+03  0.64973314193E+03  0.00000000000E+00 0.  1.
         -1    1    1    2    0  503  0.16214720619E+03 -0.29068965184E+03  0.16941884849E+04  0.17265766165E+04  0.00000000000E+00 0. -1.
<mgrwt>
<rscale>  4 0.54383503E+03</rscale>
<asrwt>0</asrwt>
<pdfrwt beam="1">  1       21 0.37309907E+00 0.54747793E+03</pdfrwt>
<pdfrwt beam="2">  1       21 0.14017649E+00 0.54747793E+03</pdfrwt>
<totfact> 0.29528619E+00</totfact>
</mgrwt>
</event>
<event>
 5    0  0.1972558E-002  0.4444294E+03  0.7546771E-02  0.1029396E+00
         21   -1    0    0  501  502  0.00000000000E+00  0.00000000000E+00  0.84997538456E+03  0.84997538456E+03  0.00000000000E+00 0. -1.
         21   -1    0    0  502  503 -0.00000000000E+00 -0.00000000000E+00 -0.55199000151E+03  0.55199000151E+03  0.00000000000E+00 0.  1.
         25    1    1    2    0    0  0.41851227176E+03  0.29156467609E+02 -0.22815028686E+03  0.49363972147E+03  0.12500000000E+03 0.  0.
          2    1    1    2  501    0  0.21339967745E+02 -0.16440703357E+02  0.46300048013E+03  0.46378350074E+03  0.00000000000E+00 0. -1.
         -2    1    1    2    0  503 -0.43985223951E+03 -0.12715764252E+02  0.63135189777E+02  0.44454216386E+03  0.00000000000E+00 0.  1.
<mgrwt>
<rscale>  4 0.44442936E+03</rscale>
<asrwt>0</asrwt>
<pdfrwt beam="1">  1       21 0.13076544E+00 0.44442936E+03</pdfrwt>
<pdfrwt beam="2">  1       21 0.84921539E-01 0.44442936E+03</pdfrwt>
<totfact> 0.42680465E+02</totfact>
</mgrwt>
</event>
<event>
 5    0  0.1972558E-002  0.2415073E+03  0.7546771E-02  0.1118793E+00
         21   -1    0    0  501  502  0.00000000000E+00  0.00000000000E+00  0.71675148252E+02  0.71675148252E+02  0.00000000000E+00 0. -1.
         21   -1    0    0  502  503 -0.00000000000E+00 -0.00000000000E+00 -0.22327528744E+04  0.22327528744E+04  0.00000000000E+00 0.  1.
         25    1    1    2    0    0 -0.84261938261E+02 -0.18306414491E+03 -0.19007994560E+04  0.19155354675E+04  0.12500000000E+03 0.  0.
          3    1    1    2  501    0 -0.90092127184E+01 -0.37874191431E+02 -0.60475225638E+01  0.39397878363E+02  0.00000000000E+00 0.  1.
         -3    1    1    2    0  503  0.93271150980E+02  0.22093833634E+03 -0.25423074756E+03  0.34949467675E+03  0.00000000000E+00 0. -1.
<mgrwt>
<rscale>  4 0.24150735E+03</rscale>
<asrwt>0</asrwt>
<pdfrwt beam="1">  1       21 0.11026946E-01 0.24150735E+03</pdfrwt>
<pdfrwt beam="2">  1       21 0.34350045E+00 0.24150735E+03</pdfrwt>
<totfact> 0.12244020E+03</totfact>
</mgrwt>
</event>
<event>
 5    0  0.1972558E-002  0.1995892E+03  0.7546771E-02  0.1150086E+00
         21   -1    0    0  501  502  0.00000000000E+00  0.00000000000E+00  0.14318678892E+04  0.14318678892E+04  0.00000000000E+00 0. -1.
         21   -1    0    0  502  503 -0.00000000000E+00 -0.00000000000E+00 -0.24037214450E+03  0.24037214450E+03  0.00000000000E+00 0.  1.
         25    1    1    2    0    0  0.18137562870E+03 -0.11793283046E+03 -0.38601588445E+02  0.25282474922E+03  0.12500000000E+03 0.  0.
          4    1    1    2  501    0 -0.10867161288E+03  0.71202135594E+02 -0.47922216837E+02  0.13847672160E+03  0.00000000000E+00 0.  1.
         -4    1    1    2    0  503 -0.72704015820E+02  0.46730694870E+02  0.12780195500E+04  0.12809385629E+04  0.00000000000E+00 0. -1.
<mgrwt>
<rscale>  4 0.19958916E+03</rscale>
<asrwt>0</asrwt>
<pdfrwt beam="1">  1       21 0.22028736E+00 0.19958916E+03</pdfrwt>
<pdfrwt beam="2">  1       21 0.36980331E-01 0.19958916E+03</pdfrwt>
<totfact> 0.70071478E+02</totfact>
</mgrwt>
</event>
<event>
 5    0  0.1972558E-002  0.2505904E+03  0.7546771E-02  0.1112932E+00
         21   -1    0    0  501  502  0.00000000000E+00  0.00000000000E+00  0.11949645665E+04  0.11949645665E+04  0.00000000000E+00 0.  1.
         21   -1    0    0  502  503 -0.00000000000E+00 -0.00000000000E+00 -0.53875682347E+03  0.53875682347E+03  0.00000000000E+00 0. -1.
         25    1    1    2    0    0 -0.18171589581E+02  0.21530917690E+03 -0.46450628062E+03  0.52733227956E+03  0.12500000000E+03 0.  0.
          3    1    1    2  501    0 -0.60628927320E+02 -0.26120138597E+03  0.10678114766E+04  0.11009647498E+04  0.00000000000E+00 0.  1.
         -3    1    1    2    0  503  0.78800516901E+02  0.45892209070E+02  0.52902547059E+02  0.10542436057E+03  0.00000000000E+00 0. -1.
<mgrwt>
<rscale>  4 0.25059044E+03</rscale>
<asrwt>0</asrwt>
<pdfrwt beam="1">  1       21 0.18384070E+00 0.25059044E+03</pdfrwt>
<pdfrwt beam="2">  1       21 0.82885665E-01 0.25059044E+03</pdfrwt>
<totfact> 0.20341821E+02</totfact>
</mgrwt>
</event>
<event>
 5    0  0.1972558E-002  0.4182007E+03  0.7546771E-02  0.1037653E+00
         21   -1    0    0  501  502  0.00000000000E+00  0.00000000000E+00  0.13420989720E+04  0.13420989720E+04  0.00000000000E+00 0. -1.
         21   -1    0    0  502  503 -0.00000000000E+00 -0.00000000000E+00 -0.68923470625E+03  0.68923470625E+03  0.00000000000E+00 0. -1.
         25    1    1    2    0    0 -0.20755371174E+03  0.34274151477E+03 -0.57571883103E+03  0.71247979733E+03  0.12500000000E+03 0.  0.
          3    1    1    2  501    0  0.15596895508E+02 -0.14523542917E+02  0.46837189592E+03  0.46885651253E+03  0.00000000000E+00 0.  1.
         -3    1    1    2    0  503  0.19195681623E+03 -0.32821797186E+03  0.76021120082E+03  0.84999736835E+03  0.00000000000E+00 0. -1.
<mgrwt>
<rscale>  4 0.41820073E+03</rscale>
<asrwt>0</asrwt>
<pdfrwt beam="1">  1       21 0.20647677E+00 0.41820073E+03</pdfrwt>
<pdfrwt beam="2">  1       21 0.10603611E+00 0.41820073E+03</pdfrwt>
<totfact> 0.70015437E+01</totfact>
</mgrwt>
</event>
<event>
 5    0  0.1972558E-002  0.2832427E+03  0.7546771E-02  0.1093931E+00
         21   -1    0    0  501  502  0.00000000000E+00  0.00000000000E+00  0.91448644754E+03  0.91448644754E+03  0.00000000000E+00 0.  1.
         21   -1    0    0  502  503 -0.00000000000E+00 -0.00000000000E+00 -0.11560491496E+03  0.11560491496E+03  0.00000000000E+00 0.  1.
         25    1    1    2    0    0  0.23370048777E+03 -0.91046239516E+02  0.16982383125E+03  0.32767433432E+03  0.12500000000E+03 0.  0.
          4    1    1    2  501    0 -0.42926695946E+01 -0.36452087257E+02  0.16733273581E+03  0.17131090494E+03  0.00000000000E+00 0. -1.
         -4    1    1    2    0  503 -0.22940781817E+03  0.12749832677E+03  0.46172496552E+03  0.53110612325E+03  0.00000000000E+00 0.  1.
<mgrwt>
<rscale>  4 0.28324274E+03</rscale>
<asrwt>0</asrwt>
<pdfrwt beam="1">  1       21 0.14069022E+00 0.28324274E+03</pdfrwt>
<pdfrwt beam="2">  1       21 0.17785372E-01 0.28324274E+03</pdfrwt>
<totfact> 0.95768227E+03</totfact>
</mgrwt>
</event>
<event>
 5    0  0.1972558E-002  0.2670159E+03  0.7546771E-02  0.1103000E+00
         21   -1    0    0  501  502  0.00000000000E+00  0.00000000000E+00  0.28816770256E+03  0.28816770256E+03  0.00000000000E+00 0.  1.
         21   -1    0    0  502  503 -0.00000000000E+00 -0.00000000000E+00 -0.94433054036E+03  0.94433054036E+03  0.00000000000E+00 0. -1.
         25    1    1    2    0    0  0.23655986960E+03  0.17327344387E+02 -0.83542490476E+03  0.87739419890E+03  0.12500000000E+03 0.  0.
          4    1    1    2  501    0 -0.11882793406E+02  0.21670356333E+02  0.11579105095E+03  0.11839920862E+03  0.00000000000E+00 0. -1.
         -4    1    1    2    0  503 -0.22467707619E+03 -0.38997700720E+02  0.63471016013E+02  0.23670483540E+03  0.00000000000E+00 0.  1.
<mgrwt>
<rscale>  4 0.26701591E+03</rscale>
<asrwt>0</asrwt>
<pdfrwt beam="1">  1       21 0.44333493E-01 0.26701591E+03</pdfrwt>
<pdfrwt beam="2">  1       21 0.14528162E+00 0.26701591E+03</pdfrwt>
<totfact> 0.14906167E+03</totfact>
</mgrwt>
</event>
<event>
 5    0  0.1972558E-002  0.2933393E+03  0.7546771E-02  0.1088618E+00
         21   -1    0    0  501  502  0.00000000000E+00  0.00000000000E+00  0.52954427766E+03  0.52954427766E+03  0.00000000000E+00 0.  1.
         21   -1    0    0  502  503 -0.00000000000E+00 -0.00000000000E+00 -0.73805753678E+03  0.73805753678E+03  0.00000000000E+00 0. -1.
         25    1    1    2    0    0  0.18996897908E+03  0.88222843399E+02 -0.21241501636E+03  0.32344492929E+03  0.12500000000E+03 0.  0.
          2    1    1    2  501    0  0.14134546078E+03 -0.49220705160E+02  0.39953400357E+03  0.42664814205E+03  0.00000000000E+00 0.  1.
         -2    1    1    2    0  503 -0.33131443986E+03 -0.39002138239E+02 -0.39563224634E+03  0.51750874310E+03  0.00000000000E+00 0. -1.
<mgrwt>
<rscale>  4 0.29333927E+03</rscale>
<asrwt>0</asrwt>
<pdfrwt beam="1">  1       21 0.81468350E-01 0.29333927E+03</pdfrwt>
<pdfrwt beam="2">  1       21 0.11354731E+00 0.29333927E+03</pdfrwt>
<totfact> 0.73204487E+02</totfact>
</mgrwt>
</event>
<event>
 5    0  0.1972558E-002  0.2390497E+03  0.7546771E-02  0.1120427E+00
         21   -1    0    0  501  502  0.00000000000E+00  0.00000000000E+00  0.11971731971E+04  0.11971731971E+04  0.00000000000E+00 0. -1.
         21   -1    0    0  502  503 -0.00000000000E+00 -0.00000000000E+00 -0.51505010023E+02  0.51505010023E+02  0.00000000000E+00 0. -1.
         25    1    1    2    0    0  0.55045312021E+02 -0.19990924268E+03  0.59686000660E+03  0.64409670016E+03  0.12500000000E+03 0.  0.
          2    1    1    2  501    0 -0.32093914164E+02 -0.12653201934E+01  0.18903394632E+03  0.19174319603E+03  0.00000000000E+00 0.  1.
         -2    1    1    2    0  503 -0.22951397856E+02  0.20117456287E+03  0.35977423417E+03  0.41283831094E+03  0.00000000000E+00 0. -1.
<mgrwt>
<rscale>  4 0.23904975E+03</rscale>
<asrwt>0</asrwt>
<pdfrwt beam="1">  1       21 0.18418047E+00 0.23904975E+03</pdfrwt>
<pdfrwt beam="2">  1       21 0.79238486E-02 0.23904975E+03</pdfrwt>
<totfact> 0.20161331E+04</totfact>
</mgrwt>
</event>
<event>
 5    0  0.1972558E-002  0.2870693E+03  0.7546771E-02  0.1091889E+00
         21   -1    0    0  501  502  0.00000000000E+00  0.00000000000E+00  0.42582537825E+03  0.42582537825E+03  0.00000000000E+00 0.  1.
         21   -1    0    0  502  503 -0.00000000000E+00 -0.00000000000E+00 -0.35618610672E+03  0.35618610672E+03  0.00000000000E+00 0. -1.
         25    1    1    2    0    0 -0.24373748212E+03  0.80535779157E+02 -0.22217456971E+03  0.36177411646E+03  0.12500000000E+03 0.  0.
          4    1    1    2  501    0  0.24195889779E+03 -0.11498477697E+03  0.25735720258E+03  0.37148127392E+03  0.00000000000E+00 0.  1.
         -4    1    1    2    0  503  0.17785843334E+01  0.34448997816E+02  0.34456638658E+02  0.48756094597E+02  0.00000000000E+00 0. -1.
<mgrwt>
<rscale>  4 0.28706926E+03</rscale>
<asrwt>0</asrwt>
<pdfrwt beam="1">  1       21 0.65511597E-01 0.28706926E+03</pdfrwt>
<pdfrwt beam="2">  1       21 0.54797862E-01 0.28706926E+03</pdfrwt>
<totfact> 0.63497937E+03</totfact>
</mgrwt>
</event>
<event>
 5    0  0.1972558E-002  0.2398811E+03  0.7546771E-02  0.1119872E+00
         21   -1    0    0  503  502  0.00000000000E+00  0.00000000000E+00  0.22377569322E+03  0.22377569322E+03  0.00000000000E+00 0.  1.
         21   -1    0    0  501  503 -0.00000000000E+00 -0.00000000000E+00 -0.46673456905E+03  0.46673456905E+03  0.00000000000E+00 0.  1.
         25    1    1    2    0    0  0.19985134786E+03  0.88667333403E+02 -0.34412660030E+03  0.42643941456E+03  0.12500000000E+03 0.  0.
          4    1    1    2  501    0 -0.36760276004E+02 -0.35252455612E+02  0.74722925606E+02  0.90429912804E+02  0.00000000000E+00 0. -1.
         -4    1    1    2    0  502 -0.16309107185E+03 -0.53414877791E+02  0.26444798860E+02  0.17364093490E+03  0.00000000000E+00 0.  1.
<mgrwt>
<rscale>  4 0.23988111E+03</rscale>
<asrwt>0</asrwt>
<pdfrwt beam="1">  1       21 0.34427030E-01 0.23988111E+03</pdfrwt>
<pdfrwt beam="2">  1       21 0.71805319E-01 0.23988111E+03</pdfrwt>
<totfact> 0.13842019E+04</totfact>
</mgrwt>
</event>
<event>
 5    0  0.1972558E-002  0.2723683E+03  0.7546771E-02  0.1099932E+00
         21   -1    0    0  501  502  0.00000000000E+00  0.00000000000E+00  0.19907082930E+04  0.19907082930E+04  0.00000000000E+00 0. -1.
         21   -1    0    0  502  503 -0.00000000000E+00 -0.00000000000E+00 -0.14247182245E+03  0.14247182245E+03  0.00000000000E+00 0.  1.
         25    1    1    2    0    0 -0.19915746782E+03 -0.14354197563E+03  0.11488086518E+02  0.27572626261E+03  0.12500000000E+03 0.  0.
          1    1    1    2  501    0  0.15690015135E+02  0.32887072671E+02  0.68358549407E+03  0.68455596106E+03  0.00000000000E+00 0.  1.
         -1    1    1    2    0  503  0.18346745269E+03  0.11065490296E+03  0.11531628899E+04  0.11728978917E+04  0.00000000000E+00 0. -1.
<mgrwt>
<rscale>  4 0.27236833E+03</rscale>
<asrwt>0</asrwt>
<pdfrwt beam="1">  1       21 0.30626279E+00 0.27236833E+03</pdfrwt>
<pdfrwt beam="2">  1       21 0.21918743E-01 0.27236833E+03</pdfrwt>
<totfact> 0.55483374E+02</totfact>
</mgrwt>
</event>
<event>
 5    0  0.1972558E-002  0.5618770E+03  0.7546771E-02  0.9987817E-01
         21   -1    0    0  501  502  0.00000000000E+00  0.00000000000E+00  0.11246773150E+04  0.11246773150E+04  0.00000000000E+00 0.  1.
         21   -1    0    0  502  503 -0.00000000000E+00 -0.00000000000E+00 -0.61735500157E+03  0.61735500157E+03  0.00000000000E+00 0. -1.
         25    1    1    2    0    0  0.47519118441E+03  0.26803769957E+03 -0.37495122786E+03  0.67369451045E+03  0.12500000000E+03 0.  0.
          1    1    1    2  501    0 -0.48096142158E+03 -0.28809807226E+03  0.76067555429E+03  0.94496120936E+03  0.00000000000E+00 0.  1.
         -1    1    1    2    0  503  0.57702371615E+01  0.20060372691E+02  0.12159798699E+03  0.12337659677E+03  0.00000000000E+00 0. -1.
<mgrwt>
<rscale>  4 0.56187696E+03</rscale>
<asrwt>0</asrwt>
<pdfrwt beam="1">  1       21 0.17302728E+00 0.56187696E+03</pdfrwt>
<pdfrwt beam="2">  1       21 0.94977693E-01 0.56187696E+03</pdfrwt>
<totfact> 0.14433470E+02</totfact>
</mgrwt>
</event>
<event>
 5    0  0.1972558E-002  0.4112569E+03  0.7546771E-02  0.1039950E+00
         21   -1    0    0  501  502  0.00000000000E+00  0.00000000000E+00  0.49851418360E+03  0.49851418360E+03  0.00000000000E+00 0. -1.
         21   -1    0    0  502  503 -0.00000000000E+00 -0.00000000000E+00 -0.96772208985E+03  0.96772208985E+03  0.00000000000E+00 0. -1.
         25    1    1    2    0    0 -0.12392397897E+03 -0.36969085395E+03 -0.34806526468E+03  0.53740385980E+03  0.12500000000E+03 0.  0.
          2    1    1    2  501    0  0.10508218505E+03  0.37922682064E+03 -0.45085992173E+03  0.59843956765E+03  0.00000000000E+00 0.  1.
         -2    1    1    2    0  503  0.18841793920E+02 -0.95359666877E+01  0.32971728015E+03  0.33039284600E+03  0.00000000000E+00 0. -1.
<mgrwt>
<rscale>  4 0.41125694E+03</rscale>
<asrwt>0</asrwt>
<pdfrwt beam="1">  1       21 0.76694491E-01 0.41125694E+03</pdfrwt>
<pdfrwt beam="2">  1       21 0.14888032E+00 0.41125694E+03</pdfrwt>
<totfact> 0.38934866E+02</totfact>
</mgrwt>
</event>
<event>
 5    0  0.1972558E-002  0.2608656E+03  0.7546771E-02  0.1106624E+00
         21   -1    0    0  501  502  0.00000000000E+00  0.00000000000E+00  0.32491221037E+03  0.32491221037E+03  0.00000000000E+00 0.  1.
         21   -1    0    0  502  503 -0.00000000000E+00 -0.00000000000E+00 -0.43872825632E+03  0.43872825632E+03  0.00000000000E+00 0. -1.
         25    1    1    2    0    0  0.17761376960E+03 -0.26125350277E+03 -0.18978151110E+03  0.38915558048E+03  0.12500000000E+03 0.  0.
          3    1    1    2  501    0 -0.12032489673E+03  0.97696549579E+02  0.11960414333E+03  0.19577499246E+03  0.00000000000E+00 0.  1.
         -3    1    1    2    0  503 -0.57288872870E+02  0.16355695319E+03 -0.43638678178E+02  0.17870989375E+03  0.00000000000E+00 0. -1.
<mgrwt>
<rscale>  4 0.26086555E+03</rscale>
<asrwt>0</asrwt>
<pdfrwt beam="1">  1       21 0.49986494E-01 0.26086555E+03</pdfrwt>
<pdfrwt beam="2">  1       21 0.67496654E-01 0.26086555E+03</pdfrwt>
<totfact> 0.73244018E+03</totfact>
</mgrwt>
</event>
<event>
 5    0  0.1972558E-002  0.2789035E+03  0.7546771E-02  0.1096289E+00
         21   -1    0    0  501  502  0.00000000000E+00  0.00000000000E+00  0.88699571514E+03  0.88699571514E+03  0.00000000000E+00 0.  1.
         21   -1    0    0  502  503 -0.00000000000E+00 -0.00000000000E+00 -0.90827317216E+02  0.90827317216E+02  0.00000000000E+00 0.  1.
         25    1    1    2    0    0  0.24370743208E+03 -0.52619929248E+02  0.27397452465E+03  0.39095934515E+03  0.12500000000E+03 0.  0.
          3    1    1    2  501    0 -0.15630723887E+03  0.55645743445E+02  0.24258536309E+03  0.29389804367E+03  0.00000000000E+00 0.  1.
         -3    1    1    2    0  503 -0.87400193208E+02 -0.30258141966E+01  0.27960851019E+03  0.29296564354E+03  0.00000000000E+00 0. -1.
<mgrwt>
<rscale>  4 0.27890351E+03</rscale>
<asrwt>0</asrwt>
<pdfrwt beam="1">  1       21 0.13646087E+00 0.27890351E+03</pdfrwt>
<pdfrwt beam="2">  1       21 0.13973434E-01 0.27890351E+03</pdfrwt>
<totfact> 0.16218407E+04</totfact>
</mgrwt>
</event>
<event>
 5    0  0.1972558E-002  0.2704001E+03  0.7546771E-02  0.1101051E+00
         21   -1    0    0  501  502  0.00000000000E+00  0.00000000000E+00  0.28134003959E+04  0.28134003959E+04  0.00000000000E+00 0.  1.
         21   -1    0    0  502  503 -0.00000000000E+00 -0.00000000000E+00 -0.20805568120E+03  0.20805568120E+03  0.00000000000E+00 0. -1.
         25    1    1    2    0    0  0.21469916863E+03  0.32505677925E+02  0.24750825910E+03  0.35218984998E+03  0.12500000000E+03 0.  0.
          4    1    1    2  501    0  0.31602205550E+02 -0.10418106474E+02  0.24151846172E+04  0.24154138303E+04  0.00000000000E+00 0.  1.
         -4    1    1    2    0  503 -0.24630137418E+03 -0.22087571451E+02 -0.57348161604E+02  0.25385239683E+03  0.00000000000E+00 0. -1.
<mgrwt>
<rscale>  4 0.27040009E+03</rscale>
<asrwt>0</asrwt>
<pdfrwt beam="1">  1       21 0.43283080E+00 0.27040009E+03</pdfrwt>
<pdfrwt beam="2">  1       21 0.32008568E-01 0.27040009E+03</pdfrwt>
<totfact> 0.44592872E+01</totfact>
</mgrwt>
</event>
<event>
 5    0  0.1972558E-002  0.2431697E+03  0.7546771E-02  0.1117699E+00
         21   -1    0    0  501  502  0.00000000000E+00  0.00000000000E+00  0.15229015761E+03  0.15229015761E+03  0.00000000000E+00 0.  1.
         21   -1    0    0  502  503 -0.00000000000E+00 -0.00000000000E+00 -0.39955052014E+03  0.39955052014E+03  0.00000000000E+00 0. -1.
         25    1    1    2    0    0  0.86936953286E+02 -0.18960087661E+03 -0.23399709230E+03  0.33747024381E+03  0.12500000000E+03 0.  0.
          2    1    1    2  501    0 -0.66031164839E+02  0.16538449184E+03 -0.25940079252E+02  0.17995841904E+03  0.00000000000E+00 0.  1.
         -2    1    1    2    0  503 -0.20905788447E+02  0.24216384768E+02  0.12676809019E+02  0.34412014889E+02  0.00000000000E+00 0. -1.
<mgrwt>
<rscale>  4 0.24316975E+03</rscale>
<asrwt>0</asrwt>
<pdfrwt beam="1">  1       21 0.23429255E-01 0.24316975E+03</pdfrwt>
<pdfrwt beam="2">  1       21 0.61469311E-01 0.24316975E+03</pdfrwt>
<totfact> 0.41153258E+04</totfact>
</mgrwt>
</event>
<event>
 5    0  0.1972558E-002  0.2859599E+03  0.7546771E-02  0.1092478E+00
         21   -1    0    0  501  502  0.00000000000E+00  0.00000000000E+00  0.69812101758E+03  0.69812101758E+03  0.00000000000E+00 0. -1.
         21   -1    0    0  502  503 -0.00000000000E+00 -0.00000000000E+00 -0.34474349132E+03  0.34474349132E+03  0.00000000000E+00 0.  1.
         25    1    1    2    0    0  0.26016920072E+03 -0.60284157347E+02 -0.21774087859E+03  0.36654915473E+03  0.12500000000E+03 0.  0.
          1    1    1    2  501    0 -0.20916138232E+03  0.85421204828E+02  0.20269766754E+03  0.30353189374E+03  0.00000000000E+00 0.  1.
         -1    1    1    2    0  503 -0.51007818395E+02 -0.25137047481E+02  0.36842073731E+03  0.37278346043E+03  0.00000000000E+00 0. -1.
<mgrwt>
<rscale>  4 0.28595989E+03</rscale>
<asrwt>0</asrwt>
<pdfrwt beam="1">  1       21 0.10740323E+00 0.28595989E+03</pdfrwt>
<pdfrwt beam="2">  1       21 0.53037460E-01 0.28595989E+03</pdfrwt>
<totfact> 0.21723059E+03</totfact>
</mgrwt>
</event>
<event>
 5    0  0.1972558E-002  0.3461899E+03  0.7546771E-02  0.1064190E+00
         21   -1    0    0  501  502  0.00000000000E+00  0.00000000000E+00  0.81691550786E+03  0.81691550786E+03  0.00000000000E+00 0. -1.
         21   -1    0    0  502  503 -0.00000000000E+00 -0.00000000000E+00 -0.42118534028E+03  0.42118534028E+03  0.00000000000E+00 0.  1.
         25    1    1    2    0    0 -0.41030485781E+02 -0.31651739600E+03 -0.22476987789E+03  0.40989420677E+03  0.12500000000E+03 0.  0.
          3    1    1    2  501    0  0.31215501505E+02 -0.18169986311E+02  0.45186637852E+03  0.45330759973E+03  0.00000000000E+00 0. -1.
         -3    1    1    2    0  503  0.98149842754E+01  0.33468738231E+03  0.16863366694E+03  0.37489904164E+03  0.00000000000E+00 0.  1.
<mgrwt>
<rscale>  4 0.34618991E+03</rscale>
<asrwt>0</asrwt>
<pdfrwt beam="1">  1       21 0.12567931E+00 0.34618991E+03</pdfrwt>
<pdfrwt beam="2">  1       21 0.64797745E-01 0.34618991E+03</pdfrwt>
<totfact> 0.91876077E+02</totfact>
</mgrwt>
</event>
<event>
 5    0  0.1972558E-002  0.2868371E+03  0.7546771E-02  0.1092012E+00
         21   -1    0    0  501  502  0.00000000000E+00  0.00000000000E+00  0.29030180208E+03  0.29030180208E+03  0.00000000000E+00 0.  1.
         21   -1    0    0  502  503 -0.00000000000E+00 -0.00000000000E+00 -0.67720516382E+03  0.67720516382E+03  0.00000000000E+00 0. -1.
         25    1    1    2    0    0 -0.13844055330E+03 -0.24113606711E+03 -0.30710137521E+03  0.43272236401E+03  0.12500000000E+03 0.  0.
          4    1    1    2  501    0  0.11611804017E+03  0.21336135004E+03 -0.25723866593E+03  0.35380530832E+03  0.00000000000E+00 0. -1.
         -4    1    1    2    0  503  0.22322513123E+02  0.27774717062E+02  0.17743667941E+03  0.18097929357E+03  0.00000000000E+00 0.  1.
<mgrwt>
<rscale>  4 0.28683713E+03</rscale>
<asrwt>0</asrwt>
<pdfrwt beam="1">  1       21 0.44661816E-01 0.28683713E+03</pdfrwt>
<pdfrwt beam="2">  1       21 0.10418541E+00 0.28683713E+03</pdfrwt>
<totfact> 0.33527544E+03</totfact>
</mgrwt>
</event>
<event>
 5    0  0.1972558E-002  0.3155979E+03  0.7546771E-02  0.1077693E+00
         21   -1    0    0  501  502  0.00000000000E+00  0.00000000000E+00  0.15653943939E+04  0.15653943939E+04  0.00000000000E+00 0. -1.
         21   -1    0    0  502  503 -0.00000000000E+00 -0.00000000000E+00 -0.16886214399E+03  0.16886214399E+03  0.00000000000E+00 0.  1.
         25    1    1    2    0    0 -0.15254473490E+03 -0.32632353458E+03  0.20224037856E+03  0.43160527810E+03  0.12500000000E+03 0.  0.
          2    1    1    2  501    0  0.15350011024E+03  0.23432674371E+03  0.11759297416E+04  0.12088350027E+04  0.00000000000E+00 0. -1.
         -2    1    1    2    0  503 -0.95537534004E+00  0.91996790871E+02  0.18362129730E+02  0.93816257018E+02  0.00000000000E+00 0.  1.
<mgrwt>
<rscale>  4 0.31559792E+03</rscale>
<asrwt>0</asrwt>
<pdfrwt beam="1">  1       21 0.24082990E+00 0.31559792E+03</pdfrwt>
<pdfrwt beam="2">  1       21 0.25978792E-01 0.31559792E+03</pdfrwt>
<totfact> 0.94427744E+02</totfact>
</mgrwt>
</event>
<event>
 5    0  0.1972558E-002  0.3325763E+03  0.7546771E-02  0.1070003E+00
         21   -1    0    0  501  502  0.00000000000E+00  0.00000000000E+00  0.16571266231E+04  0.16571266231E+04  0.00000000000E+00 0. -1.
         21   -1    0    0  502  503 -0.00000000000E+00 -0.00000000000E+00 -0.11305048199E+04  0.11305048199E+04  0.00000000000E+00 0.  1.
         25    1    1    2    0    0  0.26674499931E+03 -0.17234319134E+03 -0.10170642516E+04  0.10727999638E+04  0.12500000000E+03 0.  0.
          2    1    1    2  501    0 -0.21544786308E+03  0.12203361713E+03  0.96320010883E+02  0.26568313817E+03  0.00000000000E+00 0.  1.
         -2    1    1    2    0  503 -0.51297136231E+02  0.50309574213E+02  0.14473660439E+04  0.14491483411E+04  0.00000000000E+00 0. -1.
<mgrwt>
<rscale>  4 0.33257628E+03</rscale>
<asrwt>0</asrwt>
<pdfrwt beam="1">  1       21 0.25494256E+00 0.33257628E+03</pdfrwt>
<pdfrwt beam="2">  1       21 0.17392382E+00 0.33257628E+03</pdfrwt>
<totfact> 0.10206510E+01</totfact>
</mgrwt>
</event>
<event>
 5    0  0.1972558E-002  0.2727996E+03  0.7546771E-02  0.1099688E+00
         21   -1    0    0  501  502  0.00000000000E+00  0.00000000000E+00  0.12044418385E+04  0.12044418385E+04  0.00000000000E+00 0.  1.
         21   -1    0    0  502  503 -0.00000000000E+00 -0.00000000000E+00 -0.97157328183E+02  0.97157328183E+02  0.00000000000E+00 0. -1.
         25    1    1    2    0    0 -0.33604651182E+02 -0.21553602009E+03  0.25292519778E+03  0.35662473864E+03  0.12500000000E+03 0.  0.
          1    1    1    2  501    0  0.63248706284E+02  0.27170421081E+03  0.40882298799E+03  0.49493414969E+03  0.00000000000E+00 0. -1.
         -1    1    1    2    0  503 -0.29644055102E+02 -0.56168190718E+02  0.44553632454E+03  0.45004027835E+03  0.00000000000E+00 0.  1.
<mgrwt>
<rscale>  4 0.27279962E+03</rscale>
<asrwt>0</asrwt>
<pdfrwt beam="1">  1       21 0.18529873E+00 0.27279962E+03</pdfrwt>
<pdfrwt beam="2">  1       21 0.14947282E-01 0.27279962E+03</pdfrwt>
<totfact> 0.62327189E+03</totfact>
</mgrwt>
</event>
<event>
 5    0  0.1972558E-002  0.3385962E+03  0.7546771E-02  0.1067395E+00
         21   -1    0    0  501  502  0.00000000000E+00  0.00000000000E+00  0.14688126487E+04  0.14688126487E+04  0.00000000000E+00 0.  1.
         21   -1    0    0  502  503 -0.00000000000E+00 -0.00000000000E+00 -0.82663373754E+02  0.82663373754E+02  0.00000000000E+00 0. -1.
         25    1    1    2    0    0 -0.17700906202E+03  0.27126881807E+03  0.59598390282E+03  0.68973965532E+03  0.12500000000E+03 0.  0.
          2    1    1    2  501    0  0.10103467136E+01 -0.21881919667E+02  0.16050017791E+03  0.16198810548E+03  0.00000000000E+00 0. -1.
         -2    1    1    2    0  503  0.17599871531E+03 -0.24938689841E+03  0.62966519426E+03  0.69974826170E+03  0.00000000000E+00 0.  1.
<mgrwt>
<rscale>  4 0.33859622E+03</rscale>
<asrwt>0</asrwt>
<pdfrwt beam="1">  1       21 0.22597116E+00 0.33859622E+03</pdfrwt>
<pdfrwt beam="2">  1       21 0.12717443E-01 0.33859622E+03</pdfrwt>
<totfact> 0.43866736E+03</totfact>
</mgrwt>
</event>
<event>
 5    0  0.1972558E-002  0.5320634E+03  0.7546771E-02  0.1005733E+00
         21   -1    0    0  501  502  0.00000000000E+00  0.00000000000E+00  0.88471412073E+03  0.88471412073E+03  0.00000000000E+00 0.  1.
         21   -1    0    0  502  503 -0.00000000000E+00 -0.00000000000E+00 -0.50706975687E+03  0.50706975687E+03  0.00000000000E+00 0.  1.
         25    1    1    2    0    0 -0.43538385677E+03 -0.26581501078E+03  0.32096547023E+03  0.61551649512E+03  0.12500000000E+03 0.  0.
          3    1    1    2  501    0  0.73878500983E+01 -0.29954228398E+02  0.22681551781E+03  0.22890416171E+03  0.00000000000E+00 0. -1.
         -3    1    1    2    0  503  0.42799600667E+03  0.29576923917E+03 -0.17013662418E+03  0.54736322077E+03  0.00000000000E+00 0.  1.
<mgrwt>
<rscale>  4 0.53206337E+03</rscale>
<asrwt>0</asrwt>
<pdfrwt beam="1">  1       21 0.13610986E+00 0.53206337E+03</pdfrwt>
<pdfrwt beam="2">  1       21 0.78010732E-01 0.53206337E+03</pdfrwt>
<totfact> 0.45093846E+02</totfact>
</mgrwt>
</event>
<event>
 5    0  0.1972558E-002  0.3281636E+03  0.7546771E-02  0.1071952E+00
         21   -1    0    0  501  502  0.00000000000E+00  0.00000000000E+00  0.65016439326E+03  0.65016439326E+03  0.00000000000E+00 0.  1.
         21   -1    0    0  502  503 -0.00000000000E+00 -0.00000000000E+00 -0.35064554006E+03  0.35064554006E+03  0.00000000000E+00 0. -1.
         25    1    1    2    0    0 -0.25862102166E+03  0.16446136555E+03 -0.21101393048E+03  0.39253567031E+03  0.12500000000E+03 0.  0.
          4    1    1    2  501    0  0.84507621975E+00 -0.33138105213E+02  0.10513086277E+03  0.11023314600E+03  0.00000000000E+00 0. -1.
         -4    1    1    2    0  503  0.25777594544E+03 -0.13132326034E+03  0.40540192091E+03  0.49804111701E+03  0.00000000000E+00 0.  1.
<mgrwt>
<rscale>  4 0.32816365E+03</rscale>
<asrwt>0</asrwt>
<pdfrwt beam="1">  1       21 0.10002529E+00 0.32816365E+03</pdfrwt>
<pdfrwt beam="2">  1       21 0.53945468E-01 0.32816365E+03</pdfrwt>
<totfact> 0.24319092E+03</totfact>
</mgrwt>
</event>
<event>
 5    0  0.1972558E-002  0.2543508E+03  0.7546771E-02  0.1110586E+00
         21   -1    0    0  501  502  0.00000000000E+00  0.00000000000E+00  0.22570280408E+03  0.22570280408E+03  0.00000000000E+00 0.  1.
         21   -1    0    0  502  503 -0.00000000000E+00 -0.00000000000E+00 -0.29917709582E+03  0.29917709582E+03  0.00000000000E+00 0.  1.
         25    1    1    2    0    0 -0.22489436759E+03  0.15200161345E+02 -0.56033004798E+02  0.26376735792E+03  0.12500000000E+03 0.  0.
          2    1    1    2  501    0  0.21857239396E+03  0.42232668659E+01 -0.48509863779E+02  0.22393064612E+03  0.00000000000E+00 0.  1.
         -2    1    1    2    0  503  0.63219736266E+01 -0.19423428211E+02  0.31068576834E+02  0.37181895871E+02  0.00000000000E+00 0. -1.
<mgrwt>
<rscale>  4 0.25435083E+03</rscale>
<asrwt>0</asrwt>
<pdfrwt beam="1">  1       21 0.34723508E-01 0.25435083E+03</pdfrwt>
<pdfrwt beam="2">  1       21 0.46027245E-01 0.25435083E+03</pdfrwt>
<totfact> 0.35111554E+04</totfact>
</mgrwt>
</event>
<event>
 5    0  0.1972558E-002  0.3233451E+03  0.7546771E-02  0.1074120E+00
         21   -1    0    0  501  502  0.00000000000E+00  0.00000000000E+00  0.37298381116E+03  0.37298381116E+03  0.00000000000E+00 0.  1.
         21   -1    0    0  502  503 -0.00000000000E+00 -0.00000000000E+00 -0.19866076367E+04  0.19866076367E+04  0.00000000000E+00 0.  1.
         25    1    1    2    0    0  0.16656313342E+03 -0.24761893954E+03 -0.18380520637E+04  0.18663115511E+04  0.12500000000E+03 0.  0.
          2    1    1    2  501    0 -0.18720688641E+03  0.23025457523E+03  0.31440511201E+02  0.29841597390E+03  0.00000000000E+00 0. -1.
         -2    1    1    2    0  503  0.20643752989E+02  0.17364364312E+02  0.19298772699E+03  0.19486392291E+03  0.00000000000E+00 0.  1.
<mgrwt>
<rscale>  4 0.32334505E+03</rscale>
<asrwt>0</asrwt>
<pdfrwt beam="1">  1       21 0.57382123E-01 0.32334505E+03</pdfrwt>
<pdfrwt beam="2">  1       21 0.30563196E+00 0.32334505E+03</pdfrwt>
<totfact> 0.76522285E+01</totfact>
</mgrwt>
</event>
<event>
 5    0  0.1972558E-002  0.3876644E+03  0.7546771E-02  0.1048137E+00
         21   -1    0    0  503  502  0.00000000000E+00  0.00000000000E+00  0.10846527089E+04  0.10846527089E+04  0.00000000000E+00 0.  1.
         21   -1    0    0  501  503 -0.00000000000E+00 -0.00000000000E+00 -0.15114249970E+03  0.15114249970E+03  0.00000000000E+00 0. -1.
         25    1    1    2    0    0 -0.79055169886E+02 -0.35834201651E+03  0.26548529581E+03  0.46985759861E+03  0.12500000000E+03 0.  0.
          2    1    1    2  501    0  0.28800240284E+02  0.50482865153E+02  0.66324775436E+02  0.88187013507E+02  0.00000000000E+00 0. -1.
         -2    1    1    2    0  502  0.50254929602E+02  0.30785915135E+03  0.60170013793E+03  0.67775059646E+03  0.00000000000E+00 0.  1.
<mgrwt>
<rscale>  4 0.38766444E+03</rscale>
<asrwt>0</asrwt>
<pdfrwt beam="1">  1       21 0.16686964E+00 0.38766444E+03</pdfrwt>
<pdfrwt beam="2">  1       21 0.23252693E-01 0.38766444E+03</pdfrwt>
<totfact> 0.34501621E+03</totfact>
</mgrwt>
</event>
<event>
 5    0  0.1972558E-002  0.2427889E+03  0.7546771E-02  0.1117949E+00
         21   -1    0    0  501  502  0.00000000000E+00  0.00000000000E+00  0.18291451479E+04  0.18291451479E+04  0.00000000000E+00 0.  1.
         21   -1    0    0  502  503 -0.00000000000E+00 -0.00000000000E+00 -0.17630904209E+03  0.17630904209E+03  0.00000000000E+00 0.  1.
         25    1    1    2    0    0 -0.97032540082E+02 -0.19892049184E+03 -0.37112373207E+02  0.25687935720E+03  0.12500000000E+03 0.  0.
          3    1    1    2  501    0  0.63887375740E+02  0.16435692873E+03  0.23990161865E+03  0.29773744043E+03  0.00000000000E+00 0. -1.
         -3    1    1    2    0  503  0.33145164341E+02  0.34563563117E+02  0.14500468603E+04  0.14508373923E+04  0.00000000000E+00 0.  1.
<mgrwt>
<rscale>  4 0.24278893E+03</rscale>
<asrwt>0</asrwt>
<pdfrwt beam="1">  1       21 0.28140693E+00 0.24278893E+03</pdfrwt>
<pdfrwt beam="2">  1       21 0.27124469E-01 0.24278893E+03</pdfrwt>
<totfact> 0.53166007E+02</totfact>
</mgrwt>
</event>
<event>
 5    0  0.1972558E-002  0.2489986E+03  0.7546771E-02  0.1113939E+00
         21   -1    0    0  501  502  0.00000000000E+00  0.00000000000E+00  0.46588932543E+03  0.46588932543E+03  0.00000000000E+00 0.  1.
         21   -1    0    0  502  503 -0.00000000000E+00 -0.00000000000E+00 -0.20571020408E+03  0.20571020408E+03  0.00000000000E+00 0. -1.
         25    1    1    2    0    0  0.18911069264E+02 -0.21451735315E+03 -0.83289847657E+02  0.26255955909E+03  0.12500000000E+03 0.  0.
          3    1    1    2  501    0 -0.61833502795E+00  0.19118615092E+03  0.28074166858E+03  0.33965925737E+03  0.00000000000E+00 0.  1.
         -3    1    1    2    0  503 -0.18292734236E+02  0.23331202234E+02  0.62727300439E+02  0.69380713054E+02  0.00000000000E+00 0. -1.
<mgrwt>
<rscale>  4 0.24899864E+03</rscale>
<asrwt>0</asrwt>
<pdfrwt beam="1">  1       21 0.71675281E-01 0.24899864E+03</pdfrwt>
<pdfrwt beam="2">  1       21 0.31647724E-01 0.24899864E+03</pdfrwt>
<totfact> 0.16343804E+04</totfact>
</mgrwt>
</event>
<event>
 5    0  0.1972558E-002  0.3020527E+03  0.7546771E-02  0.1084219E+00
         21   -1    0    0  503  502  0.00000000000E+00  0.00000000000E+00  0.20250778769E+04  0.20250778769E+04  0.00000000000E+00 0. -1.
         21   -1    0    0  501  503 -0.00000000000E+00 -0.00000000000E+00 -0.73428205565E+02  0.73428205565E+02  0.00000000000E+00 0.  1.
         25    1    1    2    0    0 -0.18097294661E+03 -0.12169217075E+03  0.58792412485E+03  0.63940594962E+03  0.12500000000E+03 0.  0.
          4    1    1    2  501    0 -0.63404533130E+02 -0.13160099883E+03  0.60999495382E+03  0.62724221908E+03  0.00000000000E+00 0. -1.
         -4    1    1    2    0  502  0.24437747974E+03  0.25329316958E+03  0.75373059263E+03  0.83185791373E+03  0.00000000000E+00 0.  1.
<mgrwt>
<rscale>  4 0.30205266E+03</rscale>
<asrwt>0</asrwt>
<pdfrwt beam="1">  1       21 0.31155040E+00 0.30205266E+03</pdfrwt>
<pdfrwt beam="2">  1       21 0.11296649E-01 0.30205266E+03</pdfrwt>
<totfact> 0.17096716E+03</totfact>
</mgrwt>
</event>
<event>
 5    0  0.1972558E-002  0.2774552E+03  0.7546771E-02  0.1097087E+00
         21   -1    0    0  501  502  0.00000000000E+00  0.00000000000E+00  0.47067844165E+03  0.47067844165E+03  0.00000000000E+00 0.  1.
         21   -1    0    0  502  503 -0.00000000000E+00 -0.00000000000E+00 -0.46876325704E+03  0.46876325704E+03  0.00000000000E+00 0. -1.
         25    1    1    2    0    0  0.15672597326E+03 -0.18598742929E+03 -0.27278673666E+03  0.38625374852E+03  0.12500000000E+03 0.  0.
          2    1    1    2  501    0 -0.16807535731E+02 -0.31621812034E+02  0.29172833806E+03  0.29391811016E+03  0.00000000000E+00 0.  1.
         -2    1    1    2    0  503 -0.13991843753E+03  0.21760924132E+03 -0.17026416786E+02  0.25926984001E+03  0.00000000000E+00 0. -1.
<mgrwt>
<rscale>  4 0.27745522E+03</rscale>
<asrwt>0</asrwt>
<pdfrwt beam="1">  1       21 0.72412068E-01 0.27745522E+03</pdfrwt>
<pdfrwt beam="2">  1       21 0.72117425E-01 0.27745522E+03</pdfrwt>
<totfact> 0.28041942E+03</totfact>
</mgrwt>
</event>
<event>
 5    0  0.1972558E-002  0.3178737E+03  0.7546771E-02  0.1076632E+00
         21   -1    0    0  501  502  0.00000000000E+00  0.00000000000E+00  0.20168769194E+03  0.20168769194E+03  0.00000000000E+00 0.  1.
         21   -1    0    0  502  503 -0.00000000000E+00 -0.00000000000E+00 -0.10975480693E+04  0.10975480693E+04  0.00000000000E+00 0. -1.
         25    1    1    2    0    0 -0.13322716158E+03  0.26013308072E+03 -0.94778763269E+03  0.99967249284E+03  0.12500000000E+03 0.  0.
          2    1    1    2  501    0  0.13895203243E+02 -0.18212328062E+02  0.14790505257E+02  0.27267647724E+02  0.00000000000E+00 0. -1.
         -2    1    1    2    0  503  0.11933195833E+03 -0.24192075266E+03  0.37136750041E+02  0.27229562070E+03  0.00000000000E+00 0.  1.
<mgrwt>
<rscale>  4 0.31787371E+03</rscale>
<asrwt>0</asrwt>
<pdfrwt beam="1">  1       21 0.31028876E-01 0.31787371E+03</pdfrwt>
<pdfrwt beam="2">  1       21 0.16885355E+00 0.31787371E+03</pdfrwt>
<totfact> 0.19702754E+03</totfact>
</mgrwt>
</event>
<event>
 5    0  0.1972558E-002  0.2847850E+03  0.7546771E-02  0.1093104E+00
         21   -1    0    0  501  502  0.00000000000E+00  0.00000000000E+00  0.33805021051E+03  0.33805021051E+03  0.00000000000E+00 0. -1.
         21   -1    0    0  502  503 -0.00000000000E+00 -0.00000000000E+00 -0.71989772757E+03  0.71989772757E+03  0.00000000000E+00 0.  1.
         25    1    1    2    0    0  0.20312114748E+03 -0.15876991769E+03 -0.61168631333E+03  0.67546371719E+03  0.12500000000E+03 0.  0.
          2    1    1    2  501    0  0.20824982409E+02  0.55179839127E+02  0.43699801355E+02  0.73404135966E+02  0.00000000000E+00 0.  1.
         -2    1    1    2    0  503 -0.22394612989E+03  0.10359007856E+03  0.18613899492E+03  0.30908008493E+03  0.00000000000E+00 0. -1.
<mgrwt>
<rscale>  4 0.28478497E+03</rscale>
<asrwt>0</asrwt>
<pdfrwt beam="1">  1       21 0.52007725E-01 0.28478497E+03</pdfrwt>
<pdfrwt beam="2">  1       21 0.11075350E+00 0.28478497E+03</pdfrwt>
<totfact> 0.21021541E+03</totfact>
</mgrwt>
</event>
<event>
 5    0  0.1972558E-002  0.2255210E+03  0.7546771E-02  0.1129833E+00
         21   -1    0    0  501  502  0.00000000000E+00  0.00000000000E+00  0.12155056726E+04  0.12155056726E+04  0.00000000000E+00 0. -1.
         21   -1    0    0  502  503 -0.00000000000E+00 -0.00000000000E+00 -0.13322760628E+03  0.13322760628E+03  0.00000000000E+00 0. -1.
         25    1    1    2    0    0 -0.12571170876E+03  0.20677059708E+03  0.79379771277E+02  0.28369642512E+03  0.12500000000E+03 0.  0.
          1    1    1    2  501    0  0.12766588215E+03 -0.13189145442E+03  0.96266842045E+03  0.98001245959E+03  0.00000000000E+00 0. -1.
         -1    1    1    2    0  503 -0.19541733952E+01 -0.74879142661E+02  0.40229874630E+02  0.85024394217E+02  0.00000000000E+00 0.  1.
<mgrwt>
<rscale>  4 0.22552105E+03</rscale>
<asrwt>0</asrwt>
<pdfrwt beam="1">  1       21 0.18700087E+00 0.22552105E+03</pdfrwt>
<pdfrwt beam="2">  1       21 0.20496556E-01 0.22552105E+03</pdfrwt>
<totfact> 0.34952465E+03</totfact>
</mgrwt>
</event>
<event>
 5    0  0.1972558E-002  0.1983331E+03  0.7546771E-02  0.1151153E+00
         21   -1    0    0  503  502  0.00000000000E+00  0.00000000000E+00  0.16902317641E+04  0.16902317641E+04  0.00000000000E+00 0.  1.
         21   -1    0    0  501  503 -0.00000000000E+00 -0.00000000000E+00 -0.55795769051E+02  0.55795769051E+02  0.00000000000E+00 0.  1.
         25    1    1    2    0    0 -0.20064712777E+03  0.41863541037E+02  0.27435471260E+03  0.36456458176E+03  0.12500000000E+03 0.  0.
          2    1    1    2  501    0  0.51578097053E+02 -0.40513112452E+02  0.17225797432E+03  0.18432151826E+03  0.00000000000E+00 0. -1.
         -2    1    1    2    0  502  0.14906903072E+03 -0.13504285855E+01  0.11878233081E+04  0.11971414331E+04  0.00000000000E+00 0.  1.
<mgrwt>
<rscale>  4 0.19833313E+03</rscale>
<asrwt>0</asrwt>
<pdfrwt beam="1">  1       21 0.26003562E+00 0.19833313E+03</pdfrwt>
<pdfrwt beam="2">  1       21 0.85839658E-02 0.19833313E+03</pdfrwt>
<totfact> 0.61277986E+03</totfact>
</mgrwt>
</event>
<event>
 5    0  0.1972558E-002  0.2675027E+03  0.7546771E-02  0.1102717E+00
         21   -1    0    0  501  502  0.00000000000E+00  0.00000000000E+00  0.52394770742E+03  0.52394770742E+03  0.00000000000E+00 0. -1.
         21   -1    0    0  502  503 -0.00000000000E+00 -0.00000000000E+00 -0.37003764728E+03  0.37003764728E+03  0.00000000000E+00 0. -1.
         25    1    1    2    0    0  0.23773368472E+03 -0.49333085144E+02 -0.24594130799E+03  0.36750943542E+03  0.12500000000E+03 0.  0.
          2    1    1    2  501    0 -0.17366335165E+03  0.14538248430E+03  0.27865043103E+03  0.35908367988E+03  0.00000000000E+00 0. -1.
         -2    1    1    2    0  503 -0.64070333078E+02 -0.96049399157E+02  0.12120093710E+03  0.16739223941E+03  0.00000000000E+00 0.  1.
<mgrwt>
<rscale>  4 0.26750274E+03</rscale>
<asrwt>0</asrwt>
<pdfrwt beam="1">  1       21 0.80607339E-01 0.26750274E+03</pdfrwt>
<pdfrwt beam="2">  1       21 0.56928869E-01 0.26750274E+03</pdfrwt>
<totfact> 0.37168065E+03</totfact>
</mgrwt>
</event>
<event>
 5    0  0.1972558E-002  0.2716105E+03  0.7546771E-02  0.1100361E+00
         21   -1    0    0  501  502  0.00000000000E+00  0.00000000000E+00  0.48068272348E+03  0.48068272348E+03  0.00000000000E+00 0.  1.
         21   -1    0    0  502  503 -0.00000000000E+00 -0.00000000000E+00 -0.22100712551E+03  0.22100712551E+03  0.00000000000E+00 0.  1.
         25    1    1    2    0    0 -0.13421147182E+03 -0.21427462788E+03 -0.35406227829E+02  0.28426209084E+03  0.12500000000E+03 0.  0.
          1    1    1    2  501    0  0.41910135672E+02  0.12020007483E+02  0.13929146462E+03  0.14595565138E+03  0.00000000000E+00 0. -1.
         -1    1    1    2    0  503  0.92301336145E+02  0.20225462039E+03  0.15579036117E+03  0.27147210678E+03  0.00000000000E+00 0.  1.
<mgrwt>
<rscale>  4 0.27161054E+03</rscale>
<asrwt>0</asrwt>
<pdfrwt beam="1">  1       21 0.73951188E-01 0.27161054E+03</pdfrwt>
<pdfrwt beam="2">  1       21 0.34001096E-01 0.27161054E+03</pdfrwt>
<totfact> 0.13071523E+04</totfact>
</mgrwt>
</event>
<event>
 5    0  0.1972558E-002  0.2278961E+03  0.7546771E-02  0.1128129E+00
         21   -1    0    0  501  502  0.00000000000E+00  0.00000000000E+00  0.15849883921E+03  0.15849883921E+03  0.00000000000E+00 0.  1.
         21   -1    0    0  502  503 -0.00000000000E+00 -0.00000000000E+00 -0.72537895200E+03  0.72537895200E+03  0.00000000000E+00 0. -1.
         25    1    1    2    0    0 -0.18321161606E+03  0.85798808648E+02 -0.56992031755E+03  0.61754522117E+03  0.12500000000E+03 0.  0.
          3    1    1    2  501    0  0.88661149215E+02  0.33903481888E+02 -0.46832465508E+02  0.10584670656E+03  0.00000000000E+00 0. -1.
         -3    1    1    2    0  503  0.94550466845E+02 -0.11970229054E+03  0.49872670271E+02  0.16048586349E+03  0.00000000000E+00 0.  1.
<mgrwt>
<rscale>  4 0.22789611E+03</rscale>
<asrwt>0</asrwt>
<pdfrwt beam="1">  1       21 0.24384437E-01 0.22789611E+03</pdfrwt>
<pdfrwt beam="2">  1       21 0.11159676E+00 0.22789611E+03</pdfrwt>
<totfact> 0.97799675E+03</totfact>
</mgrwt>
</event>
<event>
 5    0  0.1972558E-002  0.2428607E+03  0.7546771E-02  0.1117902E+00
         21   -1    0    0  503  502  0.00000000000E+00  0.00000000000E+00  0.61413752203E+03  0.61413752203E+03  0.00000000000E+00 0. -1.
         21   -1    0    0  501  503 -0.00000000000E+00 -0.00000000000E+00 -0.11143111545E+03  0.11143111545E+03  0.00000000000E+00 0. -1.
         25    1    1    2    0    0  0.16597235013E+03 -0.11625408418E+03  0.10354258265E+03  0.25963031317E+03  0.12500000000E+03 0.  0.
          3    1    1    2  501    0  0.17184873872E+02  0.12769923334E+02  0.10168545751E+02  0.23702112873E+02  0.00000000000E+00 0.  1.
         -3    1    1    2    0  502 -0.18315722400E+03  0.10348416085E+03  0.38899527818E+03  0.44223621143E+03  0.00000000000E+00 0. -1.
<mgrwt>
<rscale>  4 0.24286069E+03</rscale>
<asrwt>0</asrwt>
<pdfrwt beam="1">  1       21 0.94482694E-01 0.24286069E+03</pdfrwt>
<pdfrwt beam="2">  1       21 0.17143249E-01 0.24286069E+03</pdfrwt>
<totfact> 0.28061616E+04</totfact>
</mgrwt>
</event>
<event>
 5    0  0.1972558E-002  0.2740772E+03  0.7546771E-02  0.1098969E+00
         21   -1    0    0  501  502  0.00000000000E+00  0.00000000000E+00  0.99469759545E+03  0.99469759545E+03  0.00000000000E+00 0.  1.
         21   -1    0    0  502  503 -0.00000000000E+00 -0.00000000000E+00 -0.30443002026E+03  0.30443002026E+03  0.00000000000E+00 0.  1.
         25    1    1    2    0    0  0.56848297571E+02  0.23699651484E+03 -0.18532192996E+03  0.33070877628E+03  0.12500000000E+03 0.  0.
          1    1    1    2  501    0 -0.10568836765E+03 -0.22548444189E+03  0.29668558487E+03  0.38734429241E+03  0.00000000000E+00 0. -1.
         -1    1    1    2    0  503  0.48840070084E+02 -0.11512072946E+02  0.57890392029E+03  0.58107454702E+03  0.00000000000E+00 0.  1.
<mgrwt>
<rscale>  4 0.27407722E+03</rscale>
<asrwt>0</asrwt>
<pdfrwt beam="1">  1       21 0.15303040E+00 0.27407722E+03</pdfrwt>
<pdfrwt beam="2">  1       21 0.46835388E-01 0.27407722E+03</pdfrwt>
<totfact> 0.11523486E+03</totfact>
</mgrwt>
</event>
<event>
 5    0  0.1972558E-002  0.2597108E+03  0.7546771E-02  0.1107317E+00
         21   -1    0    0  501  502  0.00000000000E+00  0.00000000000E+00  0.38221982584E+03  0.38221982584E+03  0.00000000000E+00 0. -1.
         21   -1    0    0  502  503 -0.00000000000E+00 -0.00000000000E+00 -0.70015146619E+03  0.70015146619E+03  0.00000000000E+00 0.  1.
         25    1    1    2    0    0  0.22004940518E+03 -0.42713197513E+02 -0.60541173784E+03  0.65756712986E+03  0.12500000000E+03 0.  0.
          2    1    1    2  501    0 -0.26455790367E+03  0.42740330500E+02  0.24036390363E+03  0.35998948098E+03  0.00000000000E+00 0. -1.
         -2    1    1    2    0  503  0.44508498497E+02 -0.27132987456E-01  0.47116193852E+02  0.64814681190E+02  0.00000000000E+00 0.  1.
<mgrwt>
<rscale>  4 0.25971078E+03</rscale>
<asrwt>0</asrwt>
<pdfrwt beam="1">  1       21 0.58803051E-01 0.25971078E+03</pdfrwt>
<pdfrwt beam="2">  1       21 0.10771561E+00 0.25971078E+03</pdfrwt>
<totfact> 0.17598454E+03</totfact>
</mgrwt>
</event>
<event>
 5    0  0.1972558E-002  0.2875770E+03  0.7546771E-02  0.1091621E+00
         21   -1    0    0  501  502  0.00000000000E+00  0.00000000000E+00  0.40992952583E+03  0.40992952583E+03  0.00000000000E+00 0. -1.
         21   -1    0    0  502  503 -0.00000000000E+00 -0.00000000000E+00 -0.13384722470E+04  0.13384722470E+04  0.00000000000E+00 0.  1.
         25    1    1    2    0    0  0.25214686317E+03 -0.61437603126E+02 -0.12433267191E+04  0.12762597503E+04  0.12500000000E+03 0.  0.
          4    1    1    2  501    0 -0.22106245652E+03  0.13916116623E+03  0.27557558326E+03  0.37970559907E+03  0.00000000000E+00 0. -1.
         -4    1    1    2    0  503 -0.31084406648E+02 -0.77723563101E+02  0.39208414722E+02  0.92436423464E+02  0.00000000000E+00 0.  1.
<mgrwt>
<rscale>  4 0.28757703E+03</rscale>
<asrwt>0</asrwt>
<pdfrwt beam="1">  1       21 0.63066081E-01 0.28757703E+03</pdfrwt>
<pdfrwt beam="2">  1       21 0.20591881E+00 0.28757703E+03</pdfrwt>
<totfact> 0.25878115E+02</totfact>
</mgrwt>
</event>
<event>
 5    0  0.1972558E-002  0.3056249E+03  0.7546771E-02  0.1082462E+00
         21   -1    0    0  501  502  0.00000000000E+00  0.00000000000E+00  0.26833992114E+03  0.26833992114E+03  0.00000000000E+00 0. -1.
         21   -1    0    0  502  503 -0.00000000000E+00 -0.00000000000E+00 -0.97728330089E+03  0.97728330089E+03  0.00000000000E+00 0. -1.
         25    1    1    2    0    0  0.10385442992E+03 -0.25977734532E+03 -0.59806922260E+03  0.67199836814E+03  0.12500000000E+03 0.  0.
          3    1    1    2  501    0  0.18225569514E+02  0.99934984141E+01  0.17419400299E+03  0.17542973543E+03  0.00000000000E+00 0. -1.
         -3    1    1    2    0  503 -0.12207999944E+03  0.24978384691E+03 -0.28506816014E+03  0.39819511846E+03  0.00000000000E+00 0.  1.
<mgrwt>
<rscale>  4 0.30562492E+03</rscale>
<asrwt>0</asrwt>
<pdfrwt beam="1">  1       21 0.41283066E-01 0.30562492E+03</pdfrwt>
<pdfrwt beam="2">  1       21 0.15035127E+00 0.30562492E+03</pdfrwt>
<totfact> 0.15354964E+03</totfact>
</mgrwt>
</event>
<event>
 5    0  0.1972558E-002  0.3769212E+03  0.7546771E-02  0.1052078E+00
         21   -1    0    0  501  502  0.00000000000E+00  0.00000000000E+00  0.10327437290E+03  0.10327437290E+03  0.00000000000E+00 0.  1.
         21   -1    0    0  502  503 -0.00000000000E+00 -0.00000000000E+00 -0.18792305374E+04  0.18792305374E+04  0.00000000000E+00 0.  1.
         25    1    1    2    0    0  0.56769654943E+02 -0.37788994448E+03 -0.12523762435E+04  0.13153307033E+04  0.12500000000E+03 0.  0.
          4    1    1    2  501    0 -0.21117480391E+02  0.62499056894E+02 -0.14962339818E+02  0.67645781121E+02  0.00000000000E+00 0. -1.
         -4    1    1    2    0  503 -0.35652174552E+02  0.31539088758E+03 -0.50861758126E+03  0.59952842592E+03  0.00000000000E+00 0.  1.
<mgrwt>
<rscale>  4 0.37692121E+03</rscale>
<asrwt>0</asrwt>
<pdfrwt beam="1">  1       21 0.15888365E-01 0.37692121E+03</pdfrwt>
<pdfrwt beam="2">  1       21 0.28911239E+00 0.37692121E+03</pdfrwt>
<totfact> 0.11801280E+03</totfact>
</mgrwt>
</event>
<event>
 5    0  0.1972558E-002  0.3168419E+03  0.7546771E-02  0.1077112E+00
         21   -1    0    0  501  502  0.00000000000E+00  0.00000000000E+00  0.68762848574E+03  0.68762848574E+03  0.00000000000E+00 0.  1.
         21   -1    0    0  502  503 -0.00000000000E+00 -0.00000000000E+00 -0.22236011593E+03  0.22236011593E+03  0.00000000000E+00 0.  1.
         25    1    1    2    0    0 -0.12387487620E+03  0.27165479859E+03 -0.16749704880E+02  0.32410934445E+03  0.12500000000E+03 0.  0.
          2    1    1    2  501    0 -0.24347286579E+02 -0.40901894057E+02  0.13763370807E+03  0.14563238959E+03  0.00000000000E+00 0. -1.
         -2    1    1    2    0  503  0.14822216278E+03 -0.23075290453E+03  0.34438436662E+03  0.44024686763E+03  0.00000000000E+00 0.  1.
<mgrwt>
<rscale>  4 0.31684186E+03</rscale>
<asrwt>0</asrwt>
<pdfrwt beam="1">  1       21 0.10578900E+00 0.31684186E+03</pdfrwt>
<pdfrwt beam="2">  1       21 0.34209249E-01 0.31684186E+03</pdfrwt>
<totfact> 0.54722159E+03</totfact>
</mgrwt>
</event>
<event>
 5    0  0.1972558E-002  0.2475326E+03  0.7546771E-02  0.1114874E+00
         21   -1    0    0  501  502  0.00000000000E+00  0.00000000000E+00  0.14799772216E+03  0.14799772216E+03  0.00000000000E+00 0. -1.
         21   -1    0    0  502  503 -0.00000000000E+00 -0.00000000000E+00 -0.62280589132E+03  0.62280589132E+03  0.00000000000E+00 0.  1.
         25    1    1    2    0    0  0.19467213031E+03  0.99584581291E+02 -0.47240811151E+03  0.53535852564E+03  0.12500000000E+03 0.  0.
          2    1    1    2  501    0 -0.18176140010E+03 -0.83403827480E+02 -0.28638994965E+02  0.20202375364E+03  0.00000000000E+00 0. -1.
         -2    1    1    2    0  503 -0.12910730211E+02 -0.16180753811E+02  0.26238937314E+02  0.33421334202E+02  0.00000000000E+00 0.  1.
<mgrwt>
<rscale>  4 0.24753263E+03</rscale>
<asrwt>0</asrwt>
<pdfrwt beam="1">  1       21 0.22768880E-01 0.24753263E+03</pdfrwt>
<pdfrwt beam="2">  1       21 0.95816294E-01 0.24753263E+03</pdfrwt>
<totfact> 0.15903565E+04</totfact>
</mgrwt>
</event>
<event>
 5    0  0.1972558E-002  0.2236795E+03  0.7546771E-02  0.1131169E+00
         21   -1    0    0  501  502  0.00000000000E+00  0.00000000000E+00  0.55267059805E+03  0.55267059805E+03  0.00000000000E+00 0.  1.
         21   -1    0    0  502  503 -0.00000000000E+00 -0.00000000000E+00 -0.21790169997E+03  0.21790169997E+03  0.00000000000E+00 0.  1.
         25    1    1    2    0    0 -0.21594378857E+03  0.24264055914E+02 -0.64153985080E+02  0.25876861872E+03  0.12500000000E+03 0.  0.
          3    1    1    2  501    0  0.18088594562E+03  0.23022172660E+02  0.41283977744E+03  0.45131632764E+03  0.00000000000E+00 0.  1.
         -3    1    1    2    0  503  0.35057842947E+02 -0.47286228574E+02 -0.13916894273E+02  0.60487351662E+02  0.00000000000E+00 0. -1.
<mgrwt>
<rscale>  4 0.22367949E+03</rscale>
<asrwt>0</asrwt>
<pdfrwt beam="1">  1       21 0.85026245E-01 0.22367949E+03</pdfrwt>
<pdfrwt beam="2">  1       21 0.33523339E-01 0.22367949E+03</pdfrwt>
<totfact> 0.10051790E+04</totfact>
</mgrwt>
</event>
<event>
 5    0  0.1972558E-002  0.2477084E+03  0.7546771E-02  0.1114762E+00
         21   -1    0    0  501  502  0.00000000000E+00  0.00000000000E+00  0.94571058724E+02  0.94571058724E+02  0.00000000000E+00 0. -1.
         21   -1    0    0  502  503 -0.00000000000E+00 -0.00000000000E+00 -0.96053281184E+03  0.96053281184E+03  0.00000000000E+00 0.  1.
         25    1    1    2    0    0 -0.19650720150E+03 -0.85538585124E+02 -0.64907510606E+03  0.69487799152E+03  0.12500000000E+03 0.  0.
          1    1    1    2  501    0  0.17975838532E+03  0.11799523595E+03 -0.23577990097E+03  0.31910517780E+03  0.00000000000E+00 0. -1.
         -1    1    1    2    0  503  0.16748816189E+02 -0.32456650831E+02  0.18893253918E+02  0.41120701240E+02  0.00000000000E+00 0.  1.
<mgrwt>
<rscale>  4 0.24770838E+03</rscale>
<asrwt>0</asrwt>
<pdfrwt beam="1">  1       21 0.14549394E-01 0.24770838E+03</pdfrwt>
<pdfrwt beam="2">  1       21 0.14777427E+00 0.24770838E+03</pdfrwt>
<totfact> 0.12429670E+04</totfact>
</mgrwt>
</event>
<event>
 5    0  0.1972558E-002  0.2830954E+03  0.7546771E-02  0.1094010E+00
         21   -1    0    0  503  502  0.00000000000E+00  0.00000000000E+00  0.12130558088E+04  0.12130558088E+04  0.00000000000E+00 0. -1.
         21   -1    0    0  501  503 -0.00000000000E+00 -0.00000000000E+00 -0.89164774835E+02  0.89164774835E+02  0.00000000000E+00 0. -1.
         25    1    1    2    0    0 -0.58986370170E+02  0.23365990285E+03  0.48083084201E+03  0.55217718234E+03  0.12500000000E+03 0.  0.
          3    1    1    2  501    0 -0.80495768538E+02 -0.47580879740E+01  0.32127146155E+03  0.33123641128E+03  0.00000000000E+00 0.  1.
         -3    1    1    2    0  502  0.13948213871E+03 -0.22890181488E+03  0.32178873044E+03  0.41880699004E+03  0.00000000000E+00 0. -1.
<mgrwt>
<rscale>  4 0.28309537E+03</rscale>
<asrwt>0</asrwt>
<pdfrwt beam="1">  1       21 0.18662396E+00 0.28309537E+03</pdfrwt>
<pdfrwt beam="2">  1       21 0.13717659E-01 0.28309537E+03</pdfrwt>
<totfact> 0.70981954E+03</totfact>
</mgrwt>
</event>
<event>
 5    0  0.1972558E-002  0.2527864E+03  0.7546771E-02  0.1111556E+00
         21   -1    0    0  501  502  0.00000000000E+00  0.00000000000E+00  0.35090397455E+03  0.35090397455E+03  0.00000000000E+00 0.  1.
         21   -1    0    0  502  503 -0.00000000000E+00 -0.00000000000E+00 -0.16090685444E+04  0.16090685444E+04  0.00000000000E+00 0.  1.
         25    1    1    2    0    0  0.85613820420E+02 -0.20282004497E+03 -0.15090865426E+04  0.15301741371E+04  0.12500000000E+03 0.  0.
          3    1    1    2  501    0 -0.44987517854E+02 -0.12030305603E+02  0.19991912403E+03  0.20527118933E+03  0.00000000000E+00 0.  1.
         -3    1    1    2    0  503 -0.40626302566E+02  0.21485035057E+03  0.51002848699E+02  0.22452719251E+03  0.00000000000E+00 0. -1.
<mgrwt>
<rscale>  4 0.25278637E+03</rscale>
<asrwt>0</asrwt>
<pdfrwt beam="1">  1       21 0.53985228E-01 0.25278637E+03</pdfrwt>
<pdfrwt beam="2">  1       21 0.24754900E+00 0.25278637E+03</pdfrwt>
<totfact> 0.20686442E+02</totfact>
</mgrwt>
</event>
<event>
 5    0  0.1972558E-002  0.2612999E+03  0.7546771E-02  0.1106365E+00
         21   -1    0    0  501  502  0.00000000000E+00  0.00000000000E+00  0.38425763949E+03  0.38425763949E+03  0.00000000000E+00 0.  1.
         21   -1    0    0  502  503 -0.00000000000E+00 -0.00000000000E+00 -0.70044742501E+03  0.70044742501E+03  0.00000000000E+00 0.  1.
         25    1    1    2    0    0 -0.21219456175E+03  0.13384582752E+03 -0.54133419152E+03  0.60959736260E+03  0.12500000000E+03 0.  0.
          4    1    1    2  501    0  0.13005618512E+03  0.45611780684E+02  0.24045499556E+03  0.27715275700E+03  0.00000000000E+00 0.  1.
         -4    1    1    2    0  503  0.82138376629E+02 -0.17945760821E+03 -0.15310589560E+02  0.19795494490E+03  0.00000000000E+00 0. -1.
<mgrwt>
<rscale>  4 0.26129992E+03</rscale>
<asrwt>0</asrwt>
<pdfrwt beam="1">  1       21 0.59116561E-01 0.26129992E+03</pdfrwt>
<pdfrwt beam="2">  1       21 0.10776114E+00 0.26129992E+03</pdfrwt>
<totfact> 0.17360443E+03</totfact>
</mgrwt>
</event>
<event>
 5    0  0.1972558E-002  0.2835373E+03  0.7546771E-02  0.1093772E+00
         21   -1    0    0  501  502  0.00000000000E+00  0.00000000000E+00  0.28313057441E+03  0.28313057441E+03  0.00000000000E+00 0. -1.
         21   -1    0    0  502  503 -0.00000000000E+00 -0.00000000000E+00 -0.10740576882E+04  0.10740576882E+04  0.00000000000E+00 0. -1.
         25    1    1    2    0    0  0.11943705564E+03  0.22254987344E+03 -0.96238675536E+03  0.10027995429E+04  0.12500000000E+03 0.  0.
          4    1    1    2  501    0 -0.14311849308E+03 -0.23537931959E+03  0.12918065204E+03  0.30425970488E+03  0.00000000000E+00 0. -1.
         -4    1    1    2    0  503  0.23681437441E+02  0.12829446142E+02  0.42278989529E+02  0.50129014784E+02  0.00000000000E+00 0.  1.
<mgrwt>
<rscale>  4 0.28353729E+03</rscale>
<asrwt>0</asrwt>
<pdfrwt beam="1">  1       21 0.43558551E-01 0.28353729E+03</pdfrwt>
<pdfrwt beam="2">  1       21 0.16523964E+00 0.28353729E+03</pdfrwt>
<totfact> 0.10786851E+03</totfact>
</mgrwt>
</event>
<event>
 5    0  0.1972558E-002  0.2447166E+03  0.7546771E-02  0.1116690E+00
         21   -1    0    0  501  502  0.00000000000E+00  0.00000000000E+00  0.11048225325E+03  0.11048225325E+03  0.00000000000E+00 0. -1.
         21   -1    0    0  502  503 -0.00000000000E+00 -0.00000000000E+00 -0.13815943029E+04  0.13815943029E+04  0.00000000000E+00 0.  1.
         25    1    1    2    0    0  0.19936392313E+03  0.78527192141E+02 -0.11837628088E+04  0.12094758705E+04  0.12500000000E+03 0.  0.
          2    1    1    2  501    0 -0.17525989879E+03 -0.85566928256E+02 -0.12909301527E+03  0.23388616447E+03  0.00000000000E+00 0.  1.
         -2    1    1    2    0  503 -0.24104024342E+02  0.70397361156E+01  0.41743774425E+02  0.48714521216E+02  0.00000000000E+00 0. -1.
<mgrwt>
<rscale>  4 0.24471658E+03</rscale>
<asrwt>0</asrwt>
<pdfrwt beam="1">  1       21 0.16997269E-01 0.24471658E+03</pdfrwt>
<pdfrwt beam="2">  1       21 0.21255297E+00 0.24471658E+03</pdfrwt>
<totfact> 0.33300402E+03</totfact>
</mgrwt>
</event>
<event>
 5    0  0.1972558E-002  0.3329021E+03  0.7546771E-02  0.1069860E+00
         21   -1    0    0  501  502  0.00000000000E+00  0.00000000000E+00  0.13331979210E+04  0.13331979210E+04  0.00000000000E+00 0.  1.
         21   -1    0    0  502  503 -0.00000000000E+00 -0.00000000000E+00 -0.25032234905E+03  0.25032234905E+03  0.00000000000E+00 0.  1.
         25    1    1    2    0    0 -0.20620117370E+03  0.51502344840E+00 -0.64628134481E+02  0.24964171336E+03  0.12500000000E+03 0.  0.
          4    1    1    2  501    0  0.25689727050E+03  0.21130552910E+03  0.10382029741E+04  0.10901888138E+04  0.00000000000E+00 0.  1.
         -4    1    1    2    0  503 -0.50696096804E+02 -0.21182055255E+03  0.10930073229E+03  0.24368974289E+03  0.00000000000E+00 0. -1.
<mgrwt>
<rscale>  4 0.33290208E+03</rscale>
<asrwt>0</asrwt>
<pdfrwt beam="1">  1       21 0.20510737E+00 0.33290208E+03</pdfrwt>
<pdfrwt beam="2">  1       21 0.38511131E-01 0.33290208E+03</pdfrwt>
<totfact> 0.71544674E+02</totfact>
</mgrwt>
</event>
<event>
 5    0  0.1972558E-002  0.2682651E+03  0.7546771E-02  0.1102277E+00
         21   -1    0    0  501  502  0.00000000000E+00  0.00000000000E+00  0.16869672947E+03  0.16869672947E+03  0.00000000000E+00 0.  1.
         21   -1    0    0  502  503 -0.00000000000E+00 -0.00000000000E+00 -0.10479895490E+04  0.10479895490E+04  0.00000000000E+00 0. -1.
         25    1    1    2    0    0  0.23694721232E+03 -0.22014800002E+02 -0.84042543564E+03  0.88236531308E+03  0.12500000000E+03 0.  0.
          3    1    1    2  501    0 -0.12023647417E+00  0.35333504767E+02  0.66085202067E+02  0.74938140811E+02  0.00000000000E+00 0. -1.
         -3    1    1    2    0  503 -0.23682697585E+03 -0.13318704765E+02 -0.10495258595E+03  0.25938282457E+03  0.00000000000E+00 0.  1.
<mgrwt>
<rscale>  4 0.26826507E+03</rscale>
<asrwt>0</asrwt>
<pdfrwt beam="1">  1       21 0.25953343E-01 0.26826507E+03</pdfrwt>
<pdfrwt beam="2">  1       21 0.16122916E+00 0.26826507E+03</pdfrwt>
<totfact> 0.32761172E+03</totfact>
</mgrwt>
</event>
<event>
 5    0  0.1972558E-002  0.2416478E+03  0.7546771E-02  0.1118700E+00
         21   -1    0    0  501  502  0.00000000000E+00  0.00000000000E+00  0.23955628291E+02  0.23955628291E+02  0.00000000000E+00 0. -1.
         21   -1    0    0  502  503 -0.00000000000E+00 -0.00000000000E+00 -0.30191162524E+04  0.30191162524E+04  0.00000000000E+00 0. -1.
         25    1    1    2    0    0 -0.87396144106E+02  0.19295140956E+03 -0.19074386636E+04  0.19232305082E+04  0.12500000000E+03 0.  0.
          2    1    1    2  501    0 -0.34756687090E+02 -0.30634515110E+02 -0.85574222829E+02  0.97311090972E+02  0.00000000000E+00 0.  1.
         -2    1    1    2    0  503  0.12215283120E+03 -0.16231689445E+03 -0.10021477377E+04  0.10225302815E+04  0.00000000000E+00 0. -1.
<mgrwt>
<rscale>  4 0.24164783E+03</rscale>
<asrwt>0</asrwt>
<pdfrwt beam="1">  1       21 0.36854843E-02 0.24164783E+03</pdfrwt>
<pdfrwt beam="2">  1       21 0.46447905E+00 0.24164783E+03</pdfrwt>
<totfact> 0.13974127E+03</totfact>
</mgrwt>
</event>
<event>
 5    0  0.1972558E-002  0.2490382E+03  0.7546771E-02  0.1113914E+00
         21   -1    0    0  501  502  0.00000000000E+00  0.00000000000E+00  0.88100286852E+02  0.88100286852E+02  0.00000000000E+00 0.  1.
         21   -1    0    0  502  503 -0.00000000000E+00 -0.00000000000E+00 -0.92381145375E+03  0.92381145375E+03  0.00000000000E+00 0.  1.
         25    1    1    2    0    0 -0.86413832822E+02  0.19730099427E+03 -0.68675807888E+03  0.73051809816E+03  0.12500000000E+03 0.  0.
          3    1    1    2  501    0  0.25916747276E+02 -0.13505518931E+03 -0.13639575885E+03  0.19368888709E+03  0.00000000000E+00 0.  1.
         -3    1    1    2    0  503  0.60497085546E+02 -0.62245804956E+02 -0.12557329168E+02  0.87704755344E+02  0.00000000000E+00 0. -1.
<mgrwt>
<rscale>  4 0.24903822E+03</rscale>
<asrwt>0</asrwt>
<pdfrwt beam="1">  1       21 0.13553891E-01 0.24903822E+03</pdfrwt>
<pdfrwt beam="2">  1       21 0.14212483E+00 0.24903822E+03</pdfrwt>
<totfact> 0.15660025E+04</totfact>
</mgrwt>
</event>
<event>
 5    0  0.1972558E-002  0.2268453E+03  0.7546771E-02  0.1128880E+00
         21   -1    0    0  503  502  0.00000000000E+00  0.00000000000E+00  0.13161601933E+03  0.13161601933E+03  0.00000000000E+00 0. -1.
         21   -1    0    0  501  503 -0.00000000000E+00 -0.00000000000E+00 -0.60495661954E+03  0.60495661954E+03  0.00000000000E+00 0. -1.
         25    1    1    2    0    0 -0.20712353895E+03  0.39488062696E+01 -0.39980759636E+03  0.46731880721E+03  0.12500000000E+03 0.  0.
          1    1    1    2  501    0  0.21526258990E+02 -0.78586680633E+01 -0.80286190047E+02  0.83492579324E+02  0.00000000000E+00 0.  1.
         -1    1    1    2    0  502  0.18559727996E+03  0.39098617937E+01  0.67531862008E+01  0.18576125235E+03  0.00000000000E+00 0. -1.
<mgrwt>
<rscale>  4 0.22684526E+03</rscale>
<asrwt>0</asrwt>
<pdfrwt beam="1">  1       21 0.20248618E-01 0.22684526E+03</pdfrwt>
<pdfrwt beam="2">  1       21 0.93070250E-01 0.22684526E+03</pdfrwt>
<totfact> 0.21489679E+04</totfact>
</mgrwt>
</event>
<event>
 5    0  0.1972558E-002  0.2646301E+03  0.7546771E-02  0.1104393E+00
         21   -1    0    0  501  502  0.00000000000E+00  0.00000000000E+00  0.14150134245E+03  0.14150134245E+03  0.00000000000E+00 0. -1.
         21   -1    0    0  502  503 -0.00000000000E+00 -0.00000000000E+00 -0.15148400596E+04  0.15148400596E+04  0.00000000000E+00 0. -1.
         25    1    1    2    0    0 -0.12515298531E+02 -0.24093724650E+03 -0.10650994561E+04  0.10992130097E+04  0.12500000000E+03 0.  0.
          1    1    1    2  501    0 -0.19672195445E+02  0.22037962842E+03 -0.40034569092E+03  0.45741758617E+03  0.00000000000E+00 0.  1.
         -1    1    1    2    0  503  0.32187493975E+02  0.20557618078E+02  0.92106429878E+02  0.99710806106E+02  0.00000000000E+00 0. -1.
<mgrwt>
<rscale>  4 0.26463013E+03</rscale>
<asrwt>0</asrwt>
<pdfrwt beam="1">  1       21 0.21769438E-01 0.26463013E+03</pdfrwt>
<pdfrwt beam="2">  1       21 0.23305231E+00 0.26463013E+03</pdfrwt>
<totfact> 0.15382041E+03</totfact>
</mgrwt>
</event>
<event>
 5    0  0.1972558E-002  0.2116761E+03  0.7546771E-02  0.1140246E+00
         21   -1    0    0  503  502  0.00000000000E+00  0.00000000000E+00  0.21308780655E+04  0.21308780655E+04  0.00000000000E+00 0. -1.
         21   -1    0    0  501  503 -0.00000000000E+00 -0.00000000000E+00 -0.44600571666E+02  0.44600571666E+02  0.00000000000E+00 0.  1.
         25    1    1    2    0    0 -0.10787624930E+02 -0.20556140455E+03  0.35530558702E+03  0.42923061874E+03  0.12500000000E+03 0.  0.
          1    1    1    2  501    0  0.20175934050E+02  0.11662526370E+03  0.58866039858E+03  0.60044115891E+03  0.00000000000E+00 0.  1.
         -1    1    1    2    0  502 -0.93883091204E+01  0.88936140855E+02  0.11423115082E+04  0.11458068595E+04  0.00000000000E+00 0. -1.
<mgrwt>
<rscale>  4 0.21167614E+03</rscale>
<asrwt>0</asrwt>
<pdfrwt beam="1">  1       21 0.32782732E+00 0.21167614E+03</pdfrwt>
<pdfrwt beam="2">  1       21 0.68616281E-02 0.21167614E+03</pdfrwt>
<totfact> 0.36073858E+03</totfact>
</mgrwt>
</event>
<event>
 5    0  0.1972558E-002  0.3536829E+03  0.7546771E-02  0.1061113E+00
         21   -1    0    0  501  502  0.00000000000E+00  0.00000000000E+00  0.66126653069E+03  0.66126653069E+03  0.00000000000E+00 0.  1.
         21   -1    0    0  502  503 -0.00000000000E+00 -0.00000000000E+00 -0.54423671821E+03  0.54423671821E+03  0.00000000000E+00 0. -1.
         25    1    1    2    0    0 -0.32973039861E+03 -0.18021141401E+02 -0.42075652888E+03  0.54927948614E+03  0.12500000000E+03 0.  0.
          1    1    1    2  501    0 -0.65324077356E+01  0.21296855552E+02  0.10924724112E+03  0.11149523801E+03  0.00000000000E+00 0. -1.
         -1    1    1    2    0  503  0.33626280634E+03 -0.32757141512E+01  0.42853910024E+03  0.54472852474E+03  0.00000000000E+00 0.  1.
<mgrwt>
<rscale>  4 0.35368294E+03</rscale>
<asrwt>0</asrwt>
<pdfrwt beam="1">  1       21 0.10173331E+00 0.35368294E+03</pdfrwt>
<pdfrwt beam="2">  1       21 0.83728726E-01 0.35368294E+03</pdfrwt>
<totfact> 0.86658523E+02</totfact>
</mgrwt>
</event>
<event>
 5    0  0.1972558E-002  0.2688674E+03  0.7546771E-02  0.1101930E+00
         21   -1    0    0  503  502  0.00000000000E+00  0.00000000000E+00  0.22421045732E+03  0.22421045732E+03  0.00000000000E+00 0.  1.
         21   -1    0    0  501  503 -0.00000000000E+00 -0.00000000000E+00 -0.85563925044E+03  0.85563925044E+03  0.00000000000E+00 0. -1.
         25    1    1    2    0    0 -0.23672956048E+03 -0.38194729980E+02 -0.69884865838E+03  0.74934249147E+03  0.12500000000E+03 0.  0.
          4    1    1    2  501    0  0.54005688074E+01  0.62436682935E+02 -0.39955446802E+02  0.74323234917E+02  0.00000000000E+00 0.  1.
         -4    1    1    2    0  502  0.23132899168E+03 -0.24241952955E+02  0.10737531205E+03  0.25618398137E+03  0.00000000000E+00 0. -1.
<mgrwt>
<rscale>  4 0.26886738E+03</rscale>
<asrwt>0</asrwt>
<pdfrwt beam="1">  1       21 0.34493917E-01 0.26886738E+03</pdfrwt>
<pdfrwt beam="2">  1       21 0.13163681E+00 0.26886738E+03</pdfrwt>
<totfact> 0.32027392E+03</totfact>
</mgrwt>
</event>
<event>
 5    0  0.1972558E-002  0.2900363E+03  0.7546771E-02  0.1090330E+00
         21   -1    0    0  501  502  0.00000000000E+00  0.00000000000E+00  0.34041473464E+03  0.34041473464E+03  0.00000000000E+00 0. -1.
         21   -1    0    0  502  503 -0.00000000000E+00 -0.00000000000E+00 -0.29217335550E+03  0.29217335550E+03  0.00000000000E+00 0.  1.
         25    1    1    2    0    0 -0.22679690325E+03 -0.17248679429E+03  0.18920099206E+02  0.31172343460E+03  0.12500000000E+03 0.  0.
          1    1    1    2  501    0  0.21127749508E+03  0.12741998820E+03 -0.25708667250E+02  0.24806242942E+03  0.00000000000E+00 0. -1.
         -1    1    1    2    0  503  0.15519408175E+02  0.45066806082E+02  0.55029947180E+02  0.72802226114E+02  0.00000000000E+00 0.  1.
<mgrwt>
<rscale>  4 0.29003632E+03</rscale>
<asrwt>0</asrwt>
<pdfrwt beam="1">  1       21 0.52371498E-01 0.29003632E+03</pdfrwt>
<pdfrwt beam="2">  1       21 0.44949747E-01 0.29003632E+03</pdfrwt>
<totfact> 0.15602938E+04</totfact>
</mgrwt>
</event>
<event>
 5    0  0.1972558E-002  0.3196221E+03  0.7546771E-02  0.1075823E+00
         21   -1    0    0  501  502  0.00000000000E+00  0.00000000000E+00  0.91394832823E+03  0.91394832823E+03  0.00000000000E+00 0. -1.
         21   -1    0    0  502  503 -0.00000000000E+00 -0.00000000000E+00 -0.14830037415E+03  0.14830037415E+03  0.00000000000E+00 0.  1.
         25    1    1    2    0    0 -0.12977708985E+03  0.27793237715E+03  0.23218898048E+03  0.40450614578E+03  0.12500000000E+03 0.  0.
          1    1    1    2  501    0  0.27936988854E+02 -0.15289030135E+02  0.27055417588E+03  0.27242208405E+03  0.00000000000E+00 0. -1.
         -1    1    1    2    0  503  0.10184010099E+03 -0.26264334702E+03  0.26290479771E+03  0.38532047254E+03  0.00000000000E+00 0.  1.
<mgrwt>
<rscale>  4 0.31962211E+03</rscale>
<asrwt>0</asrwt>
<pdfrwt beam="1">  1       21 0.14060743E+00 0.31962211E+03</pdfrwt>
<pdfrwt beam="2">  1       21 0.22815443E-01 0.31962211E+03</pdfrwt>
<totfact> 0.58835652E+03</totfact>
</mgrwt>
</event>
<event>
 5    0  0.1972558E-002  0.2503281E+03  0.7546771E-02  0.1113098E+00
         21   -1    0    0  503  502  0.00000000000E+00  0.00000000000E+00  0.17015901066E+03  0.17015901066E+03  0.00000000000E+00 0.  1.
         21   -1    0    0  501  503 -0.00000000000E+00 -0.00000000000E+00 -0.82151181845E+03  0.82151181845E+03  0.00000000000E+00 0.  1.
         25    1    1    2    0    0  0.42402642440E+02  0.21225153080E+03 -0.68122284387E+03  0.72562956074E+03  0.12500000000E+03 0.  0.
          2    1    1    2  501    0  0.20253264184E+02 -0.16609399286E+01  0.41301714249E+02  0.46030262126E+02  0.00000000000E+00 0. -1.
         -2    1    1    2    0  502 -0.62655906624E+02 -0.21059059087E+03 -0.11431678171E+02  0.22001100623E+03  0.00000000000E+00 0.  1.
<mgrwt>
<rscale>  4 0.25032808E+03</rscale>
<asrwt>0</asrwt>
<pdfrwt beam="1">  1       21 0.26178310E-01 0.25032808E+03</pdfrwt>
<pdfrwt beam="2">  1       21 0.12638643E+00 0.25032808E+03</pdfrwt>
<totfact> 0.61775770E+03</totfact>
</mgrwt>
</event>
<event>
 5    0  0.1972558E-002  0.6622095E+03  0.7546771E-02  0.9784135E-01
         21   -1    0    0  501  502  0.00000000000E+00  0.00000000000E+00  0.32931817869E+03  0.32931817869E+03  0.00000000000E+00 0.  1.
         21   -1    0    0  502  503 -0.00000000000E+00 -0.00000000000E+00 -0.30448328215E+04  0.30448328215E+04  0.00000000000E+00 0. -1.
         25    1    1    2    0    0  0.29090025089E+03 -0.65191255394E+03 -0.23125522306E+04  0.24234553334E+04  0.12500000000E+03 0.  0.
          2    1    1    2  501    0  0.60152839360E+02  0.25907211209E+03  0.31496193128E+02  0.26782220507E+03  0.00000000000E+00 0.  1.
         -2    1    1    2    0  503 -0.35105309025E+03  0.39284044185E+03 -0.43445860537E+03  0.68287346171E+03  0.00000000000E+00 0. -1.
<mgrwt>
<rscale>  4 0.66220955E+03</rscale>
<asrwt>0</asrwt>
<pdfrwt beam="1">  1       21 0.50664338E-01 0.66220955E+03</pdfrwt>
<pdfrwt beam="2">  1       21 0.46843580E+00 0.66220955E+03</pdfrwt>
<totfact> 0.72024507E+00</totfact>
</mgrwt>
</event>
<event>
 5    0  0.1972558E-002  0.5606585E+03  0.7546771E-02  0.9990566E-01
         21   -1    0    0  501  502  0.00000000000E+00  0.00000000000E+00  0.57867185475E+03  0.57867185475E+03  0.00000000000E+00 0. -1.
         21   -1    0    0  502  503 -0.00000000000E+00 -0.00000000000E+00 -0.90086107493E+03  0.90086107493E+03  0.00000000000E+00 0. -1.
         25    1    1    2    0    0  0.47823636007E+03  0.27581652046E+03 -0.56141379208E+03  0.79724225615E+03  0.12500000000E+03 0.  0.
          1    1    1    2  501    0 -0.16143729768E+02 -0.13094453995E+02  0.14002177426E+03  0.14155628563E+03  0.00000000000E+00 0.  1.
         -1    1    1    2    0  503 -0.46209263031E+03 -0.26272206647E+03  0.99202797650E+02  0.54073438790E+03  0.00000000000E+00 0. -1.
<mgrwt>
<rscale>  4 0.56065852E+03</rscale>
<asrwt>0</asrwt>
<pdfrwt beam="1">  1       21 0.89026440E-01 0.56065852E+03</pdfrwt>
<pdfrwt beam="2">  1       21 0.13859401E+00 0.56065852E+03</pdfrwt>
<totfact> 0.31200448E+02</totfact>
</mgrwt>
</event>
<event>
 5    0  0.1972558E-002  0.3128357E+03  0.7546771E-02  0.1078995E+00
         21   -1    0    0  501  502  0.00000000000E+00  0.00000000000E+00  0.17681351505E+04  0.17681351505E+04  0.00000000000E+00 0.  1.
         21   -1    0    0  502  503 -0.00000000000E+00 -0.00000000000E+00 -0.49376981802E+03  0.49376981802E+03  0.00000000000E+00 0.  1.
         25    1    1    2    0    0 -0.28307704771E+03 -0.36465727971E+02 -0.40806823476E+03  0.51342677031E+03  0.12500000000E+03 0.  0.
          3    1    1    2  501    0 -0.21477223860E+02  0.12756206788E+02  0.10055091116E+04  0.10058193503E+04  0.00000000000E+00 0.  1.
         -3    1    1    2    0  503  0.30455427157E+03  0.23709521183E+02  0.67692445571E+03  0.74265884796E+03  0.00000000000E+00 0. -1.
<mgrwt>
<rscale>  4 0.31283568E+03</rscale>
<asrwt>0</asrwt>
<pdfrwt beam="1">  1       21 0.27202079E+00 0.31283568E+03</pdfrwt>
<pdfrwt beam="2">  1       21 0.75964588E-01 0.31283568E+03</pdfrwt>
<totfact> 0.65743417E+01</totfact>
</mgrwt>
</event>
<event>
 5    0  0.1972558E-002  0.3086189E+03  0.7546771E-02  0.1081010E+00
         21   -1    0    0  501  502  0.00000000000E+00  0.00000000000E+00  0.19686275891E+03  0.19686275891E+03  0.00000000000E+00 0.  1.
         21   -1    0    0  502  503 -0.00000000000E+00 -0.00000000000E+00 -0.88903225000E+03  0.88903225000E+03  0.00000000000E+00 0.  1.
         25    1    1    2    0    0 -0.74516853261E+02 -0.28364203023E+03 -0.66425350229E+03  0.73679256106E+03  0.12500000000E+03 0.  0.
          2    1    1    2  501    0  0.68254041010E+02  0.24575592240E+03 -0.94695438262E+02  0.27206950130E+03  0.00000000000E+00 0.  1.
         -2    1    1    2    0  503  0.62628122516E+01  0.37886107836E+02  0.66779449463E+02  0.77032946554E+02  0.00000000000E+00 0. -1.
<mgrwt>
<rscale>  4 0.30861889E+03</rscale>
<asrwt>0</asrwt>
<pdfrwt beam="1">  1       21 0.30286578E-01 0.30861889E+03</pdfrwt>
<pdfrwt beam="2">  1       21 0.13677420E+00 0.30861889E+03</pdfrwt>
<totfact> 0.36700844E+03</totfact>
</mgrwt>
</event>
<event>
 5    0  0.1972558E-002  0.3393808E+03  0.7546771E-02  0.1067060E+00
         21   -1    0    0  501  502  0.00000000000E+00  0.00000000000E+00  0.59164342481E+03  0.59164342481E+03  0.00000000000E+00 0.  1.
         21   -1    0    0  502  503 -0.00000000000E+00 -0.00000000000E+00 -0.46654992894E+03  0.46654992894E+03  0.00000000000E+00 0.  1.
         25    1    1    2    0    0 -0.16101294065E+03 -0.27870422080E+03 -0.32799438685E+03  0.47624208923E+03  0.12500000000E+03 0.  0.
          3    1    1    2  501    0  0.12584894616E+03  0.25865922834E+03  0.27024994799E+03  0.39468669606E+03  0.00000000000E+00 0.  1.
         -3    1    1    2    0  503  0.35163994495E+02  0.20044992453E+02  0.18283793472E+03  0.18726456847E+03  0.00000000000E+00 0. -1.
<mgrwt>
<rscale>  4 0.33938083E+03</rscale>
<asrwt>0</asrwt>
<pdfrwt beam="1">  1       21 0.91022066E-01 0.33938083E+03</pdfrwt>
<pdfrwt beam="2">  1       21 0.71776912E-01 0.33938083E+03</pdfrwt>
<totfact> 0.16187257E+03</totfact>
</mgrwt>
</event>
<event>
 5    0  0.1972558E-002  0.2525993E+03  0.7546771E-02  0.1111673E+00
         21   -1    0    0  501  502  0.00000000000E+00  0.00000000000E+00  0.10600673005E+03  0.10600673005E+03  0.00000000000E+00 0.  1.
         21   -1    0    0  502  503 -0.00000000000E+00 -0.00000000000E+00 -0.69798320461E+03  0.69798320461E+03  0.00000000000E+00 0. -1.
         25    1    1    2    0    0  0.19617669758E+03  0.11780629460E+03 -0.29259398968E+03  0.39191818345E+03  0.12500000000E+03 0.  0.
          1    1    1    2  501    0  0.12895561775E+02 -0.63336278900E+02 -0.47431071706E+02  0.80171605333E+02  0.00000000000E+00 0. -1.
         -1    1    1    2    0  503 -0.20907225935E+03 -0.54470015697E+02 -0.25195141317E+03  0.33190014588E+03  0.00000000000E+00 0.  1.
<mgrwt>
<rscale>  4 0.25259934E+03</rscale>
<asrwt>0</asrwt>
<pdfrwt beam="1">  1       21 0.16308728E-01 0.25259934E+03</pdfrwt>
<pdfrwt beam="2">  1       21 0.10738203E+00 0.25259934E+03</pdfrwt>
<totfact> 0.22545780E+04</totfact>
</mgrwt>
</event>
<event>
 5    0  0.1972558E-002  0.2879665E+03  0.7546771E-02  0.1091416E+00
         21   -1    0    0  501  502  0.00000000000E+00  0.00000000000E+00  0.33221212451E+03  0.33221212451E+03  0.00000000000E+00 0. -1.
         21   -1    0    0  502  503 -0.00000000000E+00 -0.00000000000E+00 -0.61543599778E+03  0.61543599778E+03  0.00000000000E+00 0. -1.
         25    1    1    2    0    0  0.82387864944E+02 -0.26355354047E+03 -0.38714699562E+03  0.49168691787E+03  0.12500000000E+03 0.  0.
          4    1    1    2  501    0 -0.35541152232E+02  0.33520536419E+02  0.19734359432E+03  0.20330099381E+03  0.00000000000E+00 0. -1.
         -4    1    1    2    0  503 -0.46846712712E+02  0.23003300405E+03 -0.93420471971E+02  0.25266021062E+03  0.00000000000E+00 0.  1.
<mgrwt>
<rscale>  4 0.28796650E+03</rscale>
<asrwt>0</asrwt>
<pdfrwt beam="1">  1       21 0.51109557E-01 0.28796650E+03</pdfrwt>
<pdfrwt beam="2">  1       21 0.94682462E-01 0.28796650E+03</pdfrwt>
<totfact> 0.31780062E+03</totfact>
</mgrwt>
</event>
<event>
 5    0  0.1972558E-002  0.3723385E+03  0.7546771E-02  0.1053802E+00
         21   -1    0    0  501  502  0.00000000000E+00  0.00000000000E+00  0.18714194727E+04  0.18714194727E+04  0.00000000000E+00 0.  1.
         21   -1    0    0  502  503 -0.00000000000E+00 -0.00000000000E+00 -0.17233161083E+03  0.17233161083E+03  0.00000000000E+00 0.  1.
         25    1    1    2    0    0 -0.74482020467E+02 -0.34835879877E+03  0.15738767935E+04  0.16185223462E+04  0.12500000000E+03 0.  0.
          1    1    1    2  501    0 -0.38543960849E+02  0.49455353605E+02  0.81294611950E+02  0.10266587968E+03  0.00000000000E+00 0. -1.
         -1    1    1    2    0  503  0.11302598132E+03  0.29890344517E+03  0.43916456412E+02  0.32256285764E+03  0.00000000000E+00 0.  1.
<mgrwt>
<rscale>  4 0.37233854E+03</rscale>
<asrwt>0</asrwt>
<pdfrwt beam="1">  1       21 0.28791067E+00 0.37233854E+03</pdfrwt>
<pdfrwt beam="2">  1       21 0.26512557E-01 0.37233854E+03</pdfrwt>
<totfact> 0.45454946E+02</totfact>
</mgrwt>
</event>
<event>
 5    0  0.1972558E-002  0.2546168E+03  0.7546771E-02  0.1110421E+00
         21   -1    0    0  503  502  0.00000000000E+00  0.00000000000E+00  0.54367615399E+03  0.54367615399E+03  0.00000000000E+00 0.  1.
         21   -1    0    0  501  503 -0.00000000000E+00 -0.00000000000E+00 -0.20779179554E+03  0.20779179554E+03  0.00000000000E+00 0.  1.
         25    1    1    2    0    0  0.11136597584E+03 -0.20318601703E+03 -0.38084626658E+02  0.26601198635E+03  0.12500000000E+03 0.  0.
          2    1    1    2  501    0 -0.90527081619E+02 -0.75971151798E+01  0.16239352434E+03  0.18607666541E+03  0.00000000000E+00 0. -1.
         -2    1    1    2    0  502 -0.20838894225E+02  0.21078313221E+03  0.21157546077E+03  0.29937929777E+03  0.00000000000E+00 0.  1.
<mgrwt>
<rscale>  4 0.25461681E+03</rscale>
<asrwt>0</asrwt>
<pdfrwt beam="1">  1       21 0.83642484E-01 0.25461681E+03</pdfrwt>
<pdfrwt beam="2">  1       21 0.31967969E-01 0.25461681E+03</pdfrwt>
<totfact> 0.11264957E+04</totfact>
</mgrwt>
</event>
<event>
 5    0  0.1972558E-002  0.3002431E+03  0.7546771E-02  0.1085119E+00
         21   -1    0    0  501  502  0.00000000000E+00  0.00000000000E+00  0.64003563089E+03  0.64003563089E+03  0.00000000000E+00 0. -1.
         21   -1    0    0  502  503 -0.00000000000E+00 -0.00000000000E+00 -0.23432672747E+03  0.23432672747E+03  0.00000000000E+00 0. -1.
         25    1    1    2    0    0  0.97640694400E+02 -0.26130457872E+03  0.23988669389E+02  0.30661742339E+03  0.12500000000E+03 0.  0.
          4    1    1    2  501    0 -0.10725408023E+03  0.24376279000E+03  0.98696781282E+02  0.28401547519E+03  0.00000000000E+00 0. -1.
         -4    1    1    2    0  503  0.96133858322E+01  0.17541788727E+02  0.28302345275E+03  0.28372945978E+03  0.00000000000E+00 0.  1.
<mgrwt>
<rscale>  4 0.30024309E+03</rscale>
<asrwt>0</asrwt>
<pdfrwt beam="1">  1       21 0.98467020E-01 0.30024309E+03</pdfrwt>
<pdfrwt beam="2">  1       21 0.36050266E-01 0.30024309E+03</pdfrwt>
<totfact> 0.59067801E+03</totfact>
</mgrwt>
</event>
<event>
 5    0  0.1972558E-002  0.3051020E+03  0.7546771E-02  0.1082718E+00
         21   -1    0    0  501  502  0.00000000000E+00  0.00000000000E+00  0.16808023871E+03  0.16808023871E+03  0.00000000000E+00 0. -1.
         21   -1    0    0  502  503 -0.00000000000E+00 -0.00000000000E+00 -0.17591548389E+04  0.17591548389E+04  0.00000000000E+00 0.  1.
         25    1    1    2    0    0 -0.15145544257E+03  0.25001483580E+03 -0.14172571242E+04  0.14524768243E+04  0.12500000000E+03 0.  0.
          2    1    1    2  501    0  0.15001812461E+03 -0.19072795725E+03 -0.26921156241E+03  0.36243269268E+03  0.00000000000E+00 0.  1.
         -2    1    1    2    0  503  0.14373179593E+01 -0.59286878549E+02  0.95394086379E+02  0.11232556061E+03  0.00000000000E+00 0. -1.
<mgrwt>
<rscale>  4 0.30510201E+03</rscale>
<asrwt>0</asrwt>
<pdfrwt beam="1">  1       21 0.25858499E-01 0.30510201E+03</pdfrwt>
<pdfrwt beam="2">  1       21 0.27063920E+00 0.30510201E+03</pdfrwt>
<totfact> 0.63608603E+02</totfact>
</mgrwt>
</event>
<event>
 5    0  0.1972558E-002  0.2446817E+03  0.7546771E-02  0.1116713E+00
         21   -1    0    0  503  502  0.00000000000E+00  0.00000000000E+00  0.97745001972E+03  0.97745001972E+03  0.00000000000E+00 0.  1.
         21   -1    0    0  501  503 -0.00000000000E+00 -0.00000000000E+00 -0.32434479047E+03  0.32434479047E+03  0.00000000000E+00 0.  1.
         25    1    1    2    0    0  0.18898732305E+03 -0.92928399596E+02 -0.25761486592E+03  0.35544664138E+03  0.12500000000E+03 0.  0.
          4    1    1    2  501    0  0.55232925134E+01  0.22699282391E+02  0.16687651714E+02  0.28709613390E+02  0.00000000000E+00 0. -1.
         -4    1    1    2    0  502 -0.19451061556E+03  0.70229117205E+02  0.89403244345E+03  0.91763855543E+03  0.00000000000E+00 0.  1.
<mgrwt>
<rscale>  4 0.24468171E+03</rscale>
<asrwt>0</asrwt>
<pdfrwt beam="1">  1       21 0.15037692E+00 0.24468171E+03</pdfrwt>
<pdfrwt beam="2">  1       21 0.49899199E-01 0.24468171E+03</pdfrwt>
<totfact> 0.10821815E+03</totfact>
</mgrwt>
</event>
<event>
 5    0  0.1972558E-002  0.4294235E+03  0.7546771E-02  0.1034042E+00
         21   -1    0    0  503  502  0.00000000000E+00  0.00000000000E+00  0.15615813062E+04  0.15615813062E+04  0.00000000000E+00 0. -1.
         21   -1    0    0  501  503 -0.00000000000E+00 -0.00000000000E+00 -0.14535710111E+03  0.14535710111E+03  0.00000000000E+00 0.  1.
         25    1    1    2    0    0  0.12540891954E+03 -0.38731409127E+03  0.49982673474E+03  0.65665163303E+03  0.12500000000E+03 0.  0.
          2    1    1    2  501    0  0.85031570970E+02  0.22769383164E+02  0.21435753246E+03  0.23172821277E+03  0.00000000000E+00 0.  1.
         -2    1    1    2    0  502 -0.21044049051E+03  0.36454470811E+03  0.70203993792E+03  0.81855856156E+03  0.00000000000E+00 0. -1.
<mgrwt>
<rscale>  4 0.42942352E+03</rscale>
<asrwt>0</asrwt>
<pdfrwt beam="1">  1       21 0.24024327E+00 0.42942352E+03</pdfrwt>
<pdfrwt beam="2">  1       21 0.22362632E-01 0.42942352E+03</pdfrwt>
<totfact> 0.11867368E+03</totfact>
</mgrwt>
</event>
<event>
 5    0  0.1972558E-002  0.2591042E+03  0.7546771E-02  0.1107683E+00
         21   -1    0    0  501  502  0.00000000000E+00  0.00000000000E+00  0.48743023512E+03  0.48743023512E+03  0.00000000000E+00 0. -1.
         21   -1    0    0  502  503 -0.00000000000E+00 -0.00000000000E+00 -0.25243301802E+03  0.25243301802E+03  0.00000000000E+00 0.  1.
         25    1    1    2    0    0 -0.15482153135E+03 -0.14580655782E+03  0.17111505278E+02  0.24727932078E+03  0.12500000000E+03 0.  0.
          1    1    1    2  501    0  0.12506201735E+03  0.20818933517E+03 -0.21123338043E+02  0.24378167050E+03  0.00000000000E+00 0.  1.
         -1    1    1    2    0  503  0.29759514007E+02 -0.62382777356E+02  0.23900904987E+03  0.24880226185E+03  0.00000000000E+00 0. -1.
<mgrwt>
<rscale>  4 0.25910422E+03</rscale>
<asrwt>0</asrwt>
<pdfrwt beam="1">  1       21 0.74989266E-01 0.25910422E+03</pdfrwt>
<pdfrwt beam="2">  1       21 0.38835849E-01 0.25910422E+03</pdfrwt>
<totfact> 0.97597375E+03</totfact>
</mgrwt>
</event>
<event>
 5    0  0.1972558E-002  0.2995480E+03  0.7546771E-02  0.1085467E+00
         21   -1    0    0  501  502  0.00000000000E+00  0.00000000000E+00  0.15765844291E+03  0.15765844291E+03  0.00000000000E+00 0.  1.
         21   -1    0    0  502  503 -0.00000000000E+00 -0.00000000000E+00 -0.11271682887E+04  0.11271682887E+04  0.00000000000E+00 0.  1.
         25    1    1    2    0    0  0.89517602093E+02 -0.24774976638E+03 -0.83480871210E+03  0.88426462873E+03  0.12500000000E+03 0.  0.
          1    1    1    2  501    0 -0.73247115766E+02  0.29836867582E+03 -0.15442157599E+03  0.34385320968E+03  0.00000000000E+00 0.  1.
         -1    1    1    2    0  503 -0.16270486327E+02 -0.50618909439E+02  0.19720442337E+02  0.56708893166E+02  0.00000000000E+00 0. -1.
<mgrwt>
<rscale>  4 0.29954799E+03</rscale>
<asrwt>0</asrwt>
<pdfrwt beam="1">  1       21 0.24255146E-01 0.29954799E+03</pdfrwt>
<pdfrwt beam="2">  1       21 0.17341050E+00 0.29954799E+03</pdfrwt>
<totfact> 0.29883071E+03</totfact>
</mgrwt>
</event>
<event>
 5    0  0.1972558E-002  0.2513030E+03  0.7546771E-02  0.1112484E+00
         21   -1    0    0  501  502  0.00000000000E+00  0.00000000000E+00  0.12860792779E+03  0.12860792779E+03  0.00000000000E+00 0.  1.
         21   -1    0    0  502  503 -0.00000000000E+00 -0.00000000000E+00 -0.50452956410E+03  0.50452956410E+03  0.00000000000E+00 0.  1.
         25    1    1    2    0    0 -0.31706297883E+02 -0.22777249060E+03 -0.21032831003E+03  0.33578057538E+03  0.12500000000E+03 0.  0.
          4    1    1    2  501    0  0.30116379115E+02  0.20659488941E+03 -0.17658636196E+03  0.27344320773E+03  0.00000000000E+00 0.  1.
         -4    1    1    2    0  503  0.15899187681E+01  0.21177601196E+02  0.10993035689E+02  0.23913708783E+02  0.00000000000E+00 0. -1.
<mgrwt>
<rscale>  4 0.25130298E+03</rscale>
<asrwt>0</asrwt>
<pdfrwt beam="1">  1       21 0.19785835E-01 0.25130298E+03</pdfrwt>
<pdfrwt beam="2">  1       21 0.77619932E-01 0.25130298E+03</pdfrwt>
<totfact> 0.33682365E+04</totfact>
</mgrwt>
</event>
<event>
 5    0  0.1972558E-002  0.2729159E+03  0.7546771E-02  0.1099622E+00
         21   -1    0    0  503  502  0.00000000000E+00  0.00000000000E+00  0.12832154980E+03  0.12832154980E+03  0.00000000000E+00 0.  1.
         21   -1    0    0  501  503 -0.00000000000E+00 -0.00000000000E+00 -0.65485535635E+03  0.65485535635E+03  0.00000000000E+00 0.  1.
         25    1    1    2    0    0  0.25272687585E+03 -0.31916290602E+01 -0.35164524229E+03  0.45073322121E+03  0.12500000000E+03 0.  0.
          4    1    1    2  501    0 -0.14959293656E+02  0.16409953132E+02 -0.67789913180E+02  0.71333998608E+02  0.00000000000E+00 0. -1.
         -4    1    1    2    0  502 -0.23776758220E+03 -0.13218324072E+02 -0.10709865107E+03  0.26110968633E+03  0.00000000000E+00 0.  1.
<mgrwt>
<rscale>  4 0.27291588E+03</rscale>
<asrwt>0</asrwt>
<pdfrwt beam="1">  1       21 0.19741776E-01 0.27291588E+03</pdfrwt>
<pdfrwt beam="2">  1       21 0.10074698E+00 0.27291588E+03</pdfrwt>
<totfact> 0.18254982E+04</totfact>
</mgrwt>
</event>
<event>
 5    0  0.1972558E-002  0.2376942E+03  0.7546771E-02  0.1121338E+00
         21   -1    0    0  501  502  0.00000000000E+00  0.00000000000E+00  0.93222794419E+03  0.93222794419E+03  0.00000000000E+00 0. -1.
         21   -1    0    0  502  503 -0.00000000000E+00 -0.00000000000E+00 -0.36432682454E+03  0.36432682454E+03  0.00000000000E+00 0. -1.
         25    1    1    2    0    0  0.19896051566E+03 -0.47966362228E+02 -0.30900006795E+03  0.39114204669E+03  0.12500000000E+03 0.  0.
          2    1    1    2  501    0 -0.15361294135E+03  0.21736676646E+02  0.77977934394E+03  0.79506304410E+03  0.00000000000E+00 0. -1.
         -2    1    1    2    0  503 -0.45347574315E+02  0.26229685582E+02  0.97121843673E+02  0.11034967793E+03  0.00000000000E+00 0.  1.
<mgrwt>
<rscale>  4 0.23769419E+03</rscale>
<asrwt>0</asrwt>
<pdfrwt beam="1">  1       21 0.14341968E+00 0.23769419E+03</pdfrwt>
<pdfrwt beam="2">  1       21 0.56050281E-01 0.23769419E+03</pdfrwt>
<totfact> 0.96466993E+02</totfact>
</mgrwt>
</event>
<event>
 5    0  0.1972558E-002  0.2257868E+03  0.7546771E-02  0.1129641E+00
         21   -1    0    0  501  502  0.00000000000E+00  0.00000000000E+00  0.62230347783E+03  0.62230347783E+03  0.00000000000E+00 0.  1.
         21   -1    0    0  502  503 -0.00000000000E+00 -0.00000000000E+00 -0.20718509031E+03  0.20718509031E+03  0.00000000000E+00 0. -1.
         25    1    1    2    0    0 -0.99905410670E+01  0.20264640838E+03 -0.97422114829E+02  0.25745183278E+03  0.12500000000E+03 0.  0.
          3    1    1    2  501    0 -0.17816080776E+01 -0.15025929097E+03  0.17681352203E+03  0.23204320766E+03  0.00000000000E+00 0. -1.
         -3    1    1    2    0  503  0.11772149145E+02 -0.52387117409E+02  0.33572698032E+03  0.33999352771E+03  0.00000000000E+00 0.  1.
<mgrwt>
<rscale>  4 0.22578679E+03</rscale>
<asrwt>0</asrwt>
<pdfrwt beam="1">  1       21 0.95738996E-01 0.22578679E+03</pdfrwt>
<pdfrwt beam="2">  1       21 0.31874629E-01 0.22578679E+03</pdfrwt>
<totfact> 0.84150397E+03</totfact>
</mgrwt>
</event>
<event>
 5    0  0.1972558E-002  0.3408927E+03  0.7546771E-02  0.1066416E+00
         21   -1    0    0  501  502  0.00000000000E+00  0.00000000000E+00  0.95994326133E+03  0.95994326133E+03  0.00000000000E+00 0. -1.
         21   -1    0    0  502  503 -0.00000000000E+00 -0.00000000000E+00 -0.13519295361E+03  0.13519295361E+03  0.00000000000E+00 0. -1.
         25    1    1    2    0    0 -0.73842296671E+02 -0.29307070279E+03  0.35288981023E+03  0.48114378285E+03  0.12500000000E+03 0.  0.
          4    1    1    2  501    0  0.90471340264E+02  0.31875650530E+03  0.32554215862E+03  0.46450884827E+03  0.00000000000E+00 0. -1.
         -4    1    1    2    0  503 -0.16629043593E+02 -0.25685802514E+02  0.14631833887E+03  0.14948358382E+03  0.00000000000E+00 0.  1.
<mgrwt>
<rscale>  4 0.34089271E+03</rscale>
<asrwt>0</asrwt>
<pdfrwt beam="1">  1       21 0.14768357E+00 0.34089271E+03</pdfrwt>
<pdfrwt beam="2">  1       21 0.20798917E-01 0.34089271E+03</pdfrwt>
<totfact> 0.60978734E+03</totfact>
</mgrwt>
</event>
<event>
 5    0  0.1972558E-002  0.2706915E+03  0.7546771E-02  0.1100884E+00
         21   -1    0    0  501  502  0.00000000000E+00  0.00000000000E+00  0.27447267644E+02  0.27447267644E+02  0.00000000000E+00 0. -1.
         21   -1    0    0  502  503 -0.00000000000E+00 -0.00000000000E+00 -0.28139051087E+04  0.28139051087E+04  0.00000000000E+00 0.  1.
         25    1    1    2    0    0 -0.45953241609E+02 -0.24426843024E+03 -0.13497235795E+04  0.13780992372E+04  0.12500000000E+03 0.  0.
          3    1    1    2  501    0  0.30706422349E+02  0.99274140748E+01 -0.78625747683E+02  0.84990859052E+02  0.00000000000E+00 0.  1.
         -3    1    1    2    0  503  0.15246819260E+02  0.23434101617E+03 -0.13581085139E+04  0.13782622802E+04  0.00000000000E+00 0. -1.
<mgrwt>
<rscale>  4 0.27069153E+03</rscale>
<asrwt>0</asrwt>
<pdfrwt beam="1">  1       21 0.42226549E-02 0.27069153E+03</pdfrwt>
<pdfrwt beam="2">  1       21 0.43290865E+00 0.27069153E+03</pdfrwt>
<totfact> 0.17455285E+03</totfact>
</mgrwt>
</event>
<event>
 5    0  0.1972558E-002  0.3349909E+03  0.7546771E-02  0.1068950E+00
         21   -1    0    0  501  502  0.00000000000E+00  0.00000000000E+00  0.57205145221E+03  0.57205145221E+03  0.00000000000E+00 0.  1.
         21   -1    0    0  502  503 -0.00000000000E+00 -0.00000000000E+00 -0.11445135402E+04  0.11445135402E+04  0.00000000000E+00 0.  1.
         25    1    1    2    0    0 -0.66348123347E+01 -0.31247120463E+03 -0.10627383746E+04  0.11147735767E+04  0.12500000000E+03 0.  0.
          2    1    1    2  501    0 -0.46283977435E+01  0.26913341966E+02  0.17153619777E+03  0.17369633613E+03  0.00000000000E+00 0. -1.
         -2    1    1    2    0  503  0.11263210078E+02  0.28555786266E+03  0.31874008891E+03  0.42809507952E+03  0.00000000000E+00 0.  1.
<mgrwt>
<rscale>  4 0.33499089E+03</rscale>
<asrwt>0</asrwt>
<pdfrwt beam="1">  1       21 0.88007917E-01 0.33499089E+03</pdfrwt>
<pdfrwt beam="2">  1       21 0.17607900E+00 0.33499089E+03</pdfrwt>
<totfact> 0.18635192E+02</totfact>
</mgrwt>
</event>
<event>
 5    0  0.1972558E-002  0.4103451E+03  0.7546771E-02  0.1040598E+00
         21   -1    0    0  501  502  0.00000000000E+00  0.00000000000E+00  0.65337658051E+02  0.65337658051E+02  0.00000000000E+00 0. -1.
         21   -1    0    0  502  503 -0.00000000000E+00 -0.00000000000E+00 -0.25543925606E+04  0.25543925606E+04  0.00000000000E+00 0.  1.
         25    1    1    2    0    0 -0.28432158282E+03 -0.26191959981E+03 -0.12810913851E+04  0.13439720147E+04  0.12500000000E+03 0.  0.
          3    1    1    2  501    0  0.27315434291E+03  0.17987041750E+03 -0.93823676560E+03  0.99360701008E+03  0.00000000000E+00 0. -1.
         -3    1    1    2    0  503  0.11167239908E+02  0.82049182310E+02 -0.26972675188E+03  0.28215119394E+03  0.00000000000E+00 0.  1.
<mgrwt>
<rscale>  4 0.40932574E+03</rscale>
<asrwt>0</asrwt>
<pdfrwt beam="1">  1       21 0.10051946E-01 0.41034514E+03</pdfrwt>
<pdfrwt beam="2">  1       21 0.39298354E+00 0.41034514E+03</pdfrwt>
<totfact> 0.61915701E+02</totfact>
</mgrwt>
</event>
<event>
 5    0  0.1972558E-002  0.2351223E+03  0.7546771E-02  0.1123086E+00
         21   -1    0    0  501  502  0.00000000000E+00  0.00000000000E+00  0.36212595283E+03  0.36212595283E+03  0.00000000000E+00 0. -1.
         21   -1    0    0  502  503 -0.00000000000E+00 -0.00000000000E+00 -0.18025600839E+03  0.18025600839E+03  0.00000000000E+00 0. -1.
         25    1    1    2    0    0  0.13563412444E+03 -0.15091229067E+03  0.35899806162E+02  0.24100815602E+03  0.12500000000E+03 0.  0.
          1    1    1    2  501    0 -0.40576223246E+02 -0.24075207510E+02 -0.10236492478E+02  0.48278683576E+02  0.00000000000E+00 0.  1.
         -1    1    1    2    0  503 -0.95057901192E+02  0.17498749818E+03  0.15620663076E+03  0.25309512162E+03  0.00000000000E+00 0. -1.
<mgrwt>
<rscale>  4 0.23512225E+03</rscale>
<asrwt>0</asrwt>
<pdfrwt beam="1">  1       21 0.55711685E-01 0.23512225E+03</pdfrwt>
<pdfrwt beam="2">  1       21 0.27731694E-01 0.23512225E+03</pdfrwt>
<totfact> 0.36893043E+04</totfact>
</mgrwt>
</event>
<event>
 5    0  0.1972558E-002  0.2346887E+03  0.7546771E-02  0.1123382E+00
         21   -1    0    0  503  502  0.00000000000E+00  0.00000000000E+00  0.83852460544E+02  0.83852460544E+02  0.00000000000E+00 0.  1.
         21   -1    0    0  501  503 -0.00000000000E+00 -0.00000000000E+00 -0.12925824309E+04  0.12925824309E+04  0.00000000000E+00 0. -1.
         25    1    1    2    0    0 -0.21940016476E+03  0.16457561425E+02 -0.92173084787E+03  0.95583473443E+03  0.12500000000E+03 0.  0.
          1    1    1    2  501    0  0.43077519734E+02  0.71983499487E+02 -0.17424896935E+03  0.19339079664E+03  0.00000000000E+00 0. -1.
         -1    1    1    2    0  502  0.17632264502E+03 -0.88441060913E+02 -0.11275015310E+03  0.22720936034E+03  0.00000000000E+00 0.  1.
<mgrwt>
<rscale>  4 0.23468871E+03</rscale>
<asrwt>0</asrwt>
<pdfrwt beam="1">  1       21 0.12900379E-01 0.23468871E+03</pdfrwt>
<pdfrwt beam="2">  1       21 0.19885883E+00 0.23468871E+03</pdfrwt>
<totfact> 0.67980780E+03</totfact>
</mgrwt>
</event>
<event>
 5    0  0.1972558E-002  0.2126445E+03  0.7546771E-02  0.1139489E+00
         21   -1    0    0  501  502  0.00000000000E+00  0.00000000000E+00  0.74369888352E+03  0.74369888352E+03  0.00000000000E+00 0.  1.
         21   -1    0    0  502  503 -0.00000000000E+00 -0.00000000000E+00 -0.17924061117E+03  0.17924061117E+03  0.00000000000E+00 0. -1.
         25    1    1    2    0    0  0.66272113173E+02  0.19996470435E+03 -0.80447630742E+01  0.24508691149E+03  0.12500000000E+03 0.  0.
          1    1    1    2  501    0  0.43241525183E+02 -0.10297689991E+03  0.50417003662E+03  0.51639277420E+03  0.00000000000E+00 0.  1.
         -1    1    1    2    0  503 -0.10951363836E+03 -0.96987804442E+02  0.68332998802E+02  0.16145980900E+03  0.00000000000E+00 0. -1.
<mgrwt>
<rscale>  4 0.21264454E+03</rscale>
<asrwt>0</asrwt>
<pdfrwt beam="1">  1       21 0.11441521E+00 0.21264454E+03</pdfrwt>
<pdfrwt beam="2">  1       21 0.27575479E-01 0.21264454E+03</pdfrwt>
<totfact> 0.73392697E+03</totfact>
</mgrwt>
</event>
<event>
 5    0  0.1972558E-002  0.2612070E+03  0.7546771E-02  0.1106420E+00
         21   -1    0    0  501  502  0.00000000000E+00  0.00000000000E+00  0.73854642535E+02  0.73854642535E+02  0.00000000000E+00 0. -1.
         21   -1    0    0  502  503 -0.00000000000E+00 -0.00000000000E+00 -0.19396413801E+04  0.19396413801E+04  0.00000000000E+00 0.  1.
         25    1    1    2    0    0  0.20566145245E+03  0.56750002242E+02 -0.13535077403E+04  0.13759089355E+04  0.12500000000E+03 0.  0.
          4    1    1    2  501    0 -0.28085407860E+03 -0.89681305975E+02 -0.42997326575E+03  0.52134322607E+03  0.00000000000E+00 0. -1.
         -4    1    1    2    0  503  0.75192626150E+02  0.32931303733E+02 -0.82305731516E+02  0.11624386106E+03  0.00000000000E+00 0.  1.
<mgrwt>
<rscale>  4 0.26120699E+03</rscale>
<asrwt>0</asrwt>
<pdfrwt beam="1">  1       21 0.11362254E-01 0.26120699E+03</pdfrwt>
<pdfrwt beam="2">  1       21 0.29840633E+00 0.26120699E+03</pdfrwt>
<totfact> 0.20944800E+03</totfact>
</mgrwt>
</event>
<event>
 5    0  0.1972558E-002  0.2380721E+03  0.7546771E-02  0.1121084E+00
         21   -1    0    0  501  502  0.00000000000E+00  0.00000000000E+00  0.11652257309E+04  0.11652257309E+04  0.00000000000E+00 0.  1.
         21   -1    0    0  502  503 -0.00000000000E+00 -0.00000000000E+00 -0.54059371932E+03  0.54059371932E+03  0.00000000000E+00 0. -1.
         25    1    1    2    0    0 -0.18831160484E+03 -0.73136206909E+02 -0.48466215974E+03  0.53975232687E+03  0.12500000000E+03 0.  0.
          1    1    1    2  501    0 -0.27501629423E+02  0.44173339566E+02  0.70453573192E+03  0.70645468440E+03  0.00000000000E+00 0.  1.
         -1    1    1    2    0  503  0.21581323426E+03  0.28962867343E+02  0.40475843937E+03  0.45961243892E+03  0.00000000000E+00 0. -1.
<mgrwt>
<rscale>  4 0.23807214E+03</rscale>
<asrwt>0</asrwt>
<pdfrwt beam="1">  1       21 0.17926550E+00 0.23807214E+03</pdfrwt>
<pdfrwt beam="2">  1       21 0.83168264E-01 0.23807214E+03</pdfrwt>
<totfact> 0.21971727E+02</totfact>
</mgrwt>
</event>
<event>
 5    0  0.1972558E-002  0.1906134E+03  0.7546771E-02  0.1157909E+00
         21   -1    0    0  501  502  0.00000000000E+00  0.00000000000E+00  0.13763155930E+03  0.13763155930E+03  0.00000000000E+00 0.  1.
         21   -1    0    0  502  503 -0.00000000000E+00 -0.00000000000E+00 -0.91310286940E+03  0.91310286940E+03  0.00000000000E+00 0.  1.
         25    1    1    2    0    0  0.20432604294E+03 -0.14198882172E+03 -0.67258021039E+03  0.72794168497E+03  0.12500000000E+03 0.  0.
          1    1    1    2  501    0 -0.99607248417E+02  0.54848887332E+02 -0.14118310950E+03  0.18128065199E+03  0.00000000000E+00 0. -1.
         -1    1    1    2    0  503 -0.10471879452E+03  0.87139934388E+02  0.38292009797E+02  0.14151209173E+03  0.00000000000E+00 0.  1.
<mgrwt>
<rscale>  4 0.19061335E+03</rscale>
<asrwt>0</asrwt>
<pdfrwt beam="1">  1       21 0.21174087E-01 0.19061335E+03</pdfrwt>
<pdfrwt beam="2">  1       21 0.14047736E+00 0.19061335E+03</pdfrwt>
<totfact> 0.73697296E+03</totfact>
</mgrwt>
</event>
<event>
 5    0  0.1972558E-002  0.2248203E+03  0.7546771E-02  0.1130339E+00
         21   -1    0    0  503  502  0.00000000000E+00  0.00000000000E+00  0.12712670030E+04  0.12712670030E+04  0.00000000000E+00 0.  1.
         21   -1    0    0  501  503 -0.00000000000E+00 -0.00000000000E+00 -0.57423255548E+02  0.57423255548E+02  0.00000000000E+00 0. -1.
         25    1    1    2    0    0 -0.20793909094E+03 -0.43533253724E+02  0.36367522884E+03  0.43933868688E+03  0.12500000000E+03 0.  0.
          2    1    1    2  501    0  0.51023726935E+02 -0.35209113031E+01  0.50166693919E+03  0.50426732533E+03  0.00000000000E+00 0. -1.
         -2    1    1    2    0  502  0.15691536400E+03  0.47054165028E+02  0.34850157938E+03  0.38508424628E+03  0.00000000000E+00 0.  1.
<mgrwt>
<rscale>  4 0.22482034E+03</rscale>
<asrwt>0</asrwt>
<pdfrwt beam="1">  1       21 0.19557952E+00 0.22482034E+03</pdfrwt>
<pdfrwt beam="2">  1       21 0.88343480E-02 0.22482034E+03</pdfrwt>
<totfact> 0.14122801E+04</totfact>
</mgrwt>
</event>
<event>
 5    0  0.1972558E-002  0.4083175E+03  0.7546771E-02  0.1040937E+00
         21   -1    0    0  501  502  0.00000000000E+00  0.00000000000E+00  0.99069963143E+03  0.99069963143E+03  0.00000000000E+00 0.  1.
         21   -1    0    0  502  503 -0.00000000000E+00 -0.00000000000E+00 -0.16654780502E+04  0.16654780502E+04  0.00000000000E+00 0.  1.
         25    1    1    2    0    0  0.18842866400E+03  0.33352740476E+03 -0.14669478477E+04  0.15212846147E+04  0.12500000000E+03 0.  0.
          2    1    1    2  501    0 -0.13064797634E+03  0.20763406235E+03  0.37952521948E+03  0.45190728008E+03  0.00000000000E+00 0. -1.
         -2    1    1    2    0  503 -0.57780687665E+02 -0.54116146712E+03  0.41264420948E+03  0.68298578680E+03  0.00000000000E+00 0.  1.
<mgrwt>
<rscale>  4 0.40831754E+03</rscale>
<asrwt>0</asrwt>
<pdfrwt beam="1">  1       21 0.15241533E+00 0.40831754E+03</pdfrwt>
<pdfrwt beam="2">  1       21 0.25622739E+00 0.40831754E+03</pdfrwt>
<totfact> 0.13483204E+01</totfact>
</mgrwt>
</event>
<event>
 5    0  0.1972558E-002  0.2461476E+03  0.7546771E-02  0.1115764E+00
         21   -1    0    0  501  502  0.00000000000E+00  0.00000000000E+00  0.21256328395E+03  0.21256328395E+03  0.00000000000E+00 0.  1.
         21   -1    0    0  502  503 -0.00000000000E+00 -0.00000000000E+00 -0.85720340962E+03  0.85720340962E+03  0.00000000000E+00 0.  1.
         25    1    1    2    0    0 -0.20913881699E+03  0.42968111329E+02 -0.56671795364E+03  0.61836845193E+03  0.12500000000E+03 0.  0.
          1    1    1    2  501    0  0.22346331800E+03  0.13824661205E+03 -0.50048792979E+02  0.26749366705E+03  0.00000000000E+00 0.  1.
         -1    1    1    2    0  503 -0.14324501002E+02 -0.18121472338E+03 -0.27873379046E+02  0.18390457459E+03  0.00000000000E+00 0. -1.
<mgrwt>
<rscale>  4 0.24614761E+03</rscale>
<asrwt>0</asrwt>
<pdfrwt beam="1">  1       21 0.32702044E-01 0.24614761E+03</pdfrwt>
<pdfrwt beam="2">  1       21 0.13187745E+00 0.24614761E+03</pdfrwt>
<totfact> 0.35984676E+03</totfact>
</mgrwt>
</event>
<event>
 5    0  0.1972558E-002  0.2408437E+03  0.7546771E-02  0.1119232E+00
         21   -1    0    0  503  502  0.00000000000E+00  0.00000000000E+00  0.20441217184E+04  0.20441217184E+04  0.00000000000E+00 0.  1.
         21   -1    0    0  501  503 -0.00000000000E+00 -0.00000000000E+00 -0.35444107298E+02  0.35444107298E+02  0.00000000000E+00 0.  1.
         25    1    1    2    0    0  0.19120326940E+02  0.22436748060E+03  0.11093405824E+04  0.11388449768E+04  0.12500000000E+03 0.  0.
          1    1    1    2  501    0 -0.56426975541E+02 -0.28848262321E+02  0.36610457225E+03  0.37154916718E+03  0.00000000000E+00 0. -1.
         -1    1    1    2    0  502  0.37306648602E+02 -0.19551921828E+03  0.53323245647E+03  0.56917168182E+03  0.00000000000E+00 0.  1.
<mgrwt>
<rscale>  4 0.24084365E+03</rscale>
<asrwt>0</asrwt>
<pdfrwt beam="1">  1       21 0.31448017E+00 0.24084365E+03</pdfrwt>
<pdfrwt beam="2">  1       21 0.54529412E-02 0.24084365E+03</pdfrwt>
<totfact> 0.62150354E+03</totfact>
</mgrwt>
</event>
<event>
 5    0  0.1972558E-002  0.2664027E+03  0.7546771E-02  0.1103356E+00
         21   -1    0    0  503  502  0.00000000000E+00  0.00000000000E+00  0.47877555629E+03  0.47877555629E+03  0.00000000000E+00 0.  1.
         21   -1    0    0  501  503 -0.00000000000E+00 -0.00000000000E+00 -0.92893847713E+03  0.92893847713E+03  0.00000000000E+00 0. -1.
         25    1    1    2    0    0 -0.10230252383E+03 -0.21021973254E+03 -0.81945697168E+03  0.86127398124E+03  0.12500000000E+03 0.  0.
          2    1    1    2  501    0  0.20350998221E+03  0.19171214850E+03  0.33851920893E+03  0.43905024264E+03  0.00000000000E+00 0.  1.
         -2    1    1    2    0  502 -0.10120745838E+03  0.18507584040E+02  0.30774841910E+02  0.10738980954E+03  0.00000000000E+00 0. -1.
<mgrwt>
<rscale>  4 0.26640270E+03</rscale>
<asrwt>0</asrwt>
<pdfrwt beam="1">  1       21 0.73657778E-01 0.26640270E+03</pdfrwt>
<pdfrwt beam="2">  1       21 0.14291361E+00 0.26640270E+03</pdfrwt>
<totfact> 0.52291106E+02</totfact>
</mgrwt>
</event>
<event>
 5    0  0.1972558E-002  0.3127604E+03  0.7546771E-02  0.1079030E+00
         21   -1    0    0  501  502  0.00000000000E+00  0.00000000000E+00  0.30381382191E+03  0.30381382191E+03  0.00000000000E+00 0.  1.
         21   -1    0    0  502  503 -0.00000000000E+00 -0.00000000000E+00 -0.41236985495E+03  0.41236985495E+03  0.00000000000E+00 0.  1.
         25    1    1    2    0    0 -0.22816653907E+03 -0.20209465552E+03  0.18964235648E+02  0.32998009270E+03  0.12500000000E+03 0.  0.
          1    1    1    2  501    0  0.43277869406E+01  0.35595491682E+02  0.45501178576E+02  0.57932081092E+02  0.00000000000E+00 0. -1.
         -1    1    1    2    0  503  0.22383875213E+03  0.16649916384E+03 -0.17302144726E+03  0.32827150307E+03  0.00000000000E+00 0.  1.
<mgrwt>
<rscale>  4 0.31276038E+03</rscale>
<asrwt>0</asrwt>
<pdfrwt beam="1">  1       21 0.46740588E-01 0.31276038E+03</pdfrwt>
<pdfrwt beam="2">  1       21 0.63441516E-01 0.31276038E+03</pdfrwt>
<totfact> 0.94191504E+03</totfact>
</mgrwt>
</event>
<event>
 5    0  0.1972558E-002  0.2408270E+03  0.7546771E-02  0.1119243E+00
         21   -1    0    0  501  502  0.00000000000E+00  0.00000000000E+00  0.18933327467E+04  0.18933327467E+04  0.00000000000E+00 0.  1.
         21   -1    0    0  502  503 -0.00000000000E+00 -0.00000000000E+00 -0.28353237879E+03  0.28353237879E+03  0.00000000000E+00 0. -1.
         25    1    1    2    0    0  0.10101344148E+03 -0.17851896324E+03 -0.21763619007E+03  0.32413461220E+03  0.12500000000E+03 0.  0.
          1    1    1    2  501    0 -0.15055908512E+03  0.16798274191E+03  0.10657675834E+04  0.10893790807E+04  0.00000000000E+00 0. -1.
         -1    1    1    2    0  503  0.49545643637E+02  0.10536221325E+02  0.76166897455E+03  0.76335143253E+03  0.00000000000E+00 0.  1.
<mgrwt>
<rscale>  4 0.24082696E+03</rscale>
<asrwt>0</asrwt>
<pdfrwt beam="1">  1       21 0.29128195E+00 0.24082696E+03</pdfrwt>
<pdfrwt beam="2">  1       21 0.43620367E-01 0.24082696E+03</pdfrwt>
<totfact> 0.18100919E+02</totfact>
</mgrwt>
</event>
<event>
 5    0  0.1972558E-002  0.2598850E+03  0.7546771E-02  0.1107212E+00
         21   -1    0    0  501  502  0.00000000000E+00  0.00000000000E+00  0.77378723674E+03  0.77378723674E+03  0.00000000000E+00 0.  1.
         21   -1    0    0  502  503 -0.00000000000E+00 -0.00000000000E+00 -0.13485991875E+04  0.13485991875E+04  0.00000000000E+00 0.  1.
         25    1    1    2    0    0 -0.23359309662E+03  0.46458343304E+02 -0.12190265375E+04  0.12483488341E+04  0.12500000000E+03 0.  0.
          4    1    1    2  501    0  0.10877653452E+03 -0.18368072816E+03  0.10499439773E+02  0.21373156668E+03  0.00000000000E+00 0. -1.
         -4    1    1    2    0  503  0.12481656211E+03  0.13722238485E+03  0.63371514699E+03  0.66030602345E+03  0.00000000000E+00 0.  1.
<mgrwt>
<rscale>  4 0.25988501E+03</rscale>
<asrwt>0</asrwt>
<pdfrwt beam="1">  1       21 0.11904419E+00 0.25988501E+03</pdfrwt>
<pdfrwt beam="2">  1       21 0.20747679E+00 0.25988501E+03</pdfrwt>
<totfact> 0.59314960E+01</totfact>
</mgrwt>
</event>
<event>
 5    0  0.1972558E-002  0.2276699E+03  0.7546771E-02  0.1128291E+00
         21   -1    0    0  501  502  0.00000000000E+00  0.00000000000E+00  0.34117463914E+03  0.34117463914E+03  0.00000000000E+00 0.  1.
         21   -1    0    0  502  503 -0.00000000000E+00 -0.00000000000E+00 -0.78026738363E+03  0.78026738363E+03  0.00000000000E+00 0.  1.
         25    1    1    2    0    0 -0.12617871844E+02  0.21139969973E+03 -0.60232062773E+03  0.65058756699E+03  0.12500000000E+03 0.  0.
          2    1    1    2  501    0 -0.45494693317E+01 -0.57376732376E+02  0.27424331907E+03  0.28021810282E+03  0.00000000000E+00 0.  1.
         -2    1    1    2    0  503  0.17167341175E+02 -0.15402296735E+03 -0.11101543583E+03  0.19063635296E+03  0.00000000000E+00 0. -1.
<mgrwt>
<rscale>  4 0.22766989E+03</rscale>
<asrwt>0</asrwt>
<pdfrwt beam="1">  1       21 0.52488406E-01 0.22766989E+03</pdfrwt>
<pdfrwt beam="2">  1       21 0.12004114E+00 0.22766989E+03</pdfrwt>
<totfact> 0.17606185E+03</totfact>
</mgrwt>
</event>
<event>
 5    0  0.1972558E-002  0.3695786E+03  0.7546771E-02  0.1054854E+00
         21   -1    0    0  503  502  0.00000000000E+00  0.00000000000E+00  0.65877212639E+03  0.65877212639E+03  0.00000000000E+00 0. -1.
         21   -1    0    0  501  503 -0.00000000000E+00 -0.00000000000E+00 -0.34429403451E+03  0.34429403451E+03  0.00000000000E+00 0.  1.
         25    1    1    2    0    0  0.28873942449E+03 -0.20294026871E+03 -0.14041300577E+03  0.39987000401E+03  0.12500000000E+03 0.  0.
          4    1    1    2  501    0 -0.19083399868E+02  0.76972951000E+01  0.15113004077E+03  0.15252446927E+03  0.00000000000E+00 0.  1.
         -4    1    1    2    0  502 -0.26965602462E+03  0.19524297361E+03  0.30376105687E+03  0.45067168763E+03  0.00000000000E+00 0. -1.
<mgrwt>
<rscale>  4 0.36957859E+03</rscale>
<asrwt>0</asrwt>
<pdfrwt beam="1">  1       21 0.10134956E+00 0.36957859E+03</pdfrwt>
<pdfrwt beam="2">  1       21 0.52968313E-01 0.36957859E+03</pdfrwt>
<totfact> 0.24006982E+03</totfact>
</mgrwt>
</event>
<event>
 5    0  0.1972558E-002  0.2929290E+03  0.7546771E-02  0.1088830E+00
         21   -1    0    0  501  502  0.00000000000E+00  0.00000000000E+00  0.18373419197E+03  0.18373419197E+03  0.00000000000E+00 0.  1.
         21   -1    0    0  502  503 -0.00000000000E+00 -0.00000000000E+00 -0.90422142683E+03  0.90422142683E+03  0.00000000000E+00 0. -1.
         25    1    1    2    0    0 -0.20461629722E+03 -0.13960672631E+03 -0.33594015914E+03  0.43570478267E+03  0.12500000000E+03 0.  0.
          4    1    1    2  501    0  0.21183064623E+03  0.18097391397E+03 -0.47604238777E+03  0.55157967255E+03  0.00000000000E+00 0. -1.
         -4    1    1    2    0  503 -0.72143490146E+01 -0.41367187655E+02  0.91495312057E+02  0.10067116357E+03  0.00000000000E+00 0.  1.
<mgrwt>
<rscale>  4 0.29292904E+03</rscale>
<asrwt>0</asrwt>
<pdfrwt beam="1">  1       21 0.28266799E-01 0.29292904E+03</pdfrwt>
<pdfrwt beam="2">  1       21 0.13911099E+00 0.29292904E+03</pdfrwt>
<totfact> 0.40557251E+03</totfact>
</mgrwt>
</event>
<event>
 5    0  0.1972558E-002  0.2477800E+03  0.7546771E-02  0.1114716E+00
         21   -1    0    0  501  502  0.00000000000E+00  0.00000000000E+00  0.52859055290E+02  0.52859055290E+02  0.00000000000E+00 0. -1.
         21   -1    0    0  502  503 -0.00000000000E+00 -0.00000000000E+00 -0.25756778486E+04  0.25756778486E+04  0.00000000000E+00 0. -1.
         25    1    1    2    0    0 -0.19690802159E+03 -0.97186059718E+02 -0.19605012491E+04  0.19767164812E+04  0.12500000000E+03 0.  0.
          4    1    1    2  501    0  0.18666808282E+03  0.78181440571E+02 -0.58588888481E+03  0.61985731917E+03  0.00000000000E+00 0.  1.
         -4    1    1    2    0  503  0.10239938775E+02  0.19004619147E+02  0.23571340563E+02  0.31963103588E+02  0.00000000000E+00 0. -1.
<mgrwt>
<rscale>  4 0.24778004E+03</rscale>
<asrwt>0</asrwt>
<pdfrwt beam="1">  1       21 0.81321659E-02 0.24778004E+03</pdfrwt>
<pdfrwt beam="2">  1       21 0.39625796E+00 0.24778004E+03</pdfrwt>
<totfact> 0.99482465E+02</totfact>
</mgrwt>
</event>
<event>
 5    0  0.1972558E-002  0.3735542E+03  0.7546771E-02  0.1053342E+00
         21   -1    0    0  501  502  0.00000000000E+00  0.00000000000E+00  0.86177826875E+03  0.86177826875E+03  0.00000000000E+00 0. -1.
         21   -1    0    0  502  503 -0.00000000000E+00 -0.00000000000E+00 -0.28393973325E+03  0.28393973325E+03  0.00000000000E+00 0. -1.
         25    1    1    2    0    0 -0.34458124852E+03 -0.13368000272E+03  0.45855273807E+01  0.39019560097E+03  0.12500000000E+03 0.  0.
          3    1    1    2  501    0  0.42719727969E+02  0.11279275038E+02  0.36772036620E+03  0.37036531280E+03  0.00000000000E+00 0.  1.
         -3    1    1    2    0  503  0.30186152055E+03  0.12240072768E+03  0.20553264191E+03  0.38515708823E+03  0.00000000000E+00 0. -1.
<mgrwt>
<rscale>  4 0.37355423E+03</rscale>
<asrwt>0</asrwt>
<pdfrwt beam="1">  1       21 0.13258127E+00 0.37355423E+03</pdfrwt>
<pdfrwt beam="2">  1       21 0.43683036E-01 0.37355423E+03</pdfrwt>
<totfact> 0.18349183E+03</totfact>
</mgrwt>
</event>
<event>
 5    0  0.1972558E-002  0.3666369E+03  0.7546771E-02  0.1055986E+00
         21   -1    0    0  501  502  0.00000000000E+00  0.00000000000E+00  0.64840211491E+03  0.64840211491E+03  0.00000000000E+00 0. -1.
         21   -1    0    0  502  503 -0.00000000000E+00 -0.00000000000E+00 -0.25374159359E+04  0.25374159359E+04  0.00000000000E+00 0. -1.
         25    1    1    2    0    0 -0.11843211078E+03  0.32482873693E+03 -0.24044469602E+04  0.24323918388E+04  0.12500000000E+03 0.  0.
          3    1    1    2  501    0  0.31093702680E+02 -0.84982089764E+01  0.40631883231E+03  0.40759542612E+03  0.00000000000E+00 0. -1.
         -3    1    1    2    0  503  0.87338408100E+02 -0.31633052795E+03  0.10911430695E+03  0.34583078582E+03  0.00000000000E+00 0.  1.
<mgrwt>
<rscale>  4 0.36663694E+03</rscale>
<asrwt>0</asrwt>
<pdfrwt beam="1">  1       21 0.99754172E-01 0.36663694E+03</pdfrwt>
<pdfrwt beam="2">  1       21 0.39037168E+00 0.36663694E+03</pdfrwt>
<totfact> 0.63569638E+00</totfact>
</mgrwt>
</event>
<event>
 5    0  0.1972558E-002  0.6088895E+03  0.7546771E-02  0.9887133E-01
         21   -1    0    0  501  502  0.00000000000E+00  0.00000000000E+00  0.94854205321E+03  0.94854205321E+03  0.00000000000E+00 0. -1.
         21   -1    0    0  502  503 -0.00000000000E+00 -0.00000000000E+00 -0.55778051134E+03  0.55778051134E+03  0.00000000000E+00 0.  1.
         25    1    1    2    0    0 -0.31525520622E+03  0.50570305328E+03 -0.21679426872E+03  0.64633286942E+03  0.12500000000E+03 0.  0.
          1    1    1    2  501    0  0.19234535081E+03 -0.23527753443E+03  0.37537667373E+03  0.48296987418E+03  0.00000000000E+00 0.  1.
         -1    1    1    2    0  503  0.12290985541E+03 -0.27042551885E+03  0.23217913686E+03  0.37701982096E+03  0.00000000000E+00 0. -1.
<mgrwt>
<rscale>  4 0.60888950E+03</rscale>
<asrwt>0</asrwt>
<pdfrwt beam="1">  1       21 0.14592955E+00 0.60888950E+03</pdfrwt>
<pdfrwt beam="2">  1       21 0.85812386E-01 0.60888950E+03</pdfrwt>
<totfact> 0.29099450E+02</totfact>
</mgrwt>
</event>
<event>
 5    0  0.1972558E-002  0.3125074E+03  0.7546771E-02  0.1079150E+00
         21   -1    0    0  501  502  0.00000000000E+00  0.00000000000E+00  0.19489814652E+03  0.19489814652E+03  0.00000000000E+00 0. -1.
         21   -1    0    0  502  503 -0.00000000000E+00 -0.00000000000E+00 -0.91657056051E+03  0.91657056051E+03  0.00000000000E+00 0.  1.
         25    1    1    2    0    0 -0.29498089021E+03 -0.13382095594E+03 -0.49739471614E+03  0.60658740300E+03  0.12500000000E+03 0.  0.
          3    1    1    2  501    0  0.43370748522E+02  0.83004727313E+02  0.68113143321E+02  0.11580244763E+03  0.00000000000E+00 0. -1.
         -3    1    1    2    0  503  0.25161014169E+03  0.50816228630E+02 -0.29239084118E+03  0.38907885640E+03  0.00000000000E+00 0.  1.
<mgrwt>
<rscale>  4 0.31250745E+03</rscale>
<asrwt>0</asrwt>
<pdfrwt beam="1">  1       21 0.29984330E-01 0.31250745E+03</pdfrwt>
<pdfrwt beam="2">  1       21 0.14101086E+00 0.31250745E+03</pdfrwt>
<totfact> 0.34482021E+03</totfact>
</mgrwt>
</event>
<event>
 5    0  0.1972558E-002  0.5784278E+03  0.7546771E-02  0.9951201E-01
         21   -1    0    0  501  502  0.00000000000E+00  0.00000000000E+00  0.16133372539E+04  0.16133372539E+04  0.00000000000E+00 0.  1.
         21   -1    0    0  502  503 -0.00000000000E+00 -0.00000000000E+00 -0.37715431510E+03  0.37715431510E+03  0.00000000000E+00 0.  1.
         25    1    1    2    0    0 -0.28572934049E+03 -0.49344396123E+03 -0.13497874122E+02  0.58389673016E+03  0.12500000000E+03 0.  0.
          2    1    1    2  501    0  0.28186605619E+03  0.46827485175E+03  0.87920216064E+03  0.10352421213E+04  0.00000000000E+00 0.  1.
         -2    1    1    2    0  503  0.38632843004E+01  0.25169109485E+02  0.37047865231E+03  0.37135271758E+03  0.00000000000E+00 0. -1.
<mgrwt>
<rscale>  4 0.57842782E+03</rscale>
<asrwt>0</asrwt>
<pdfrwt beam="1">  1       21 0.24820573E+00 0.57842782E+03</pdfrwt>
<pdfrwt beam="2">  1       21 0.58023741E-01 0.57842782E+03</pdfrwt>
<totfact> 0.14071856E+02</totfact>
</mgrwt>
</event>
<event>
 5    0  0.1972558E-002  0.2694656E+03  0.7546771E-02  0.1101586E+00
         21   -1    0    0  501  502  0.00000000000E+00  0.00000000000E+00  0.16767415161E+04  0.16767415161E+04  0.00000000000E+00 0.  1.
         21   -1    0    0  502  503 -0.00000000000E+00 -0.00000000000E+00 -0.20125854161E+03  0.20125854161E+03  0.00000000000E+00 0. -1.
         25    1    1    2    0    0 -0.69521574035E+02  0.22813566020E+03 -0.92082435253E+02  0.28457565530E+03  0.12500000000E+03 0.  0.
          4    1    1    2  501    0  0.10486069134E+03 -0.22100078312E+03  0.14488729184E+04  0.14693773663E+04  0.00000000000E+00 0.  1.
         -4    1    1    2    0  503 -0.35339117307E+02 -0.71348770704E+01  0.11869249131E+03  0.12404703615E+03  0.00000000000E+00 0. -1.
<mgrwt>
<rscale>  4 0.26946561E+03</rscale>
<asrwt>0</asrwt>
<pdfrwt beam="1">  1       21 0.25796022E+00 0.26946561E+03</pdfrwt>
<pdfrwt beam="2">  1       21 0.30962854E-01 0.26946561E+03</pdfrwt>
<totfact> 0.54894853E+02</totfact>
</mgrwt>
</event>
<event>
 5    0  0.1972558E-002  0.2653536E+03  0.7546771E-02  0.1103969E+00
         21   -1    0    0  501  502  0.00000000000E+00  0.00000000000E+00  0.89753180234E+03  0.89753180234E+03  0.00000000000E+00 0. -1.
         21   -1    0    0  502  503 -0.00000000000E+00 -0.00000000000E+00 -0.20193909761E+03  0.20193909761E+03  0.00000000000E+00 0.  1.
         25    1    1    2    0    0 -0.13010851522E+03 -0.20608684462E+03 -0.52341946798E+02  0.27886321495E+03  0.12500000000E+03 0.  0.
          3    1    1    2  501    0  0.94593357386E+02  0.18591839612E+03  0.27128820164E+03  0.34221461340E+03  0.00000000000E+00 0.  1.
         -3    1    1    2    0  503  0.35515157834E+02  0.20168448502E+02  0.47664644989E+03  0.47839307159E+03  0.00000000000E+00 0. -1.
<mgrwt>
<rscale>  4 0.26535362E+03</rscale>
<asrwt>0</asrwt>
<pdfrwt beam="1">  1       21 0.13808181E+00 0.26535362E+03</pdfrwt>
<pdfrwt beam="2">  1       21 0.31067554E-01 0.26535362E+03</pdfrwt>
<totfact> 0.34928862E+03</totfact>
</mgrwt>
</event>
<event>
 5    0  0.1972558E-002  0.2721354E+03  0.7546771E-02  0.1100064E+00
         21   -1    0    0  501  502  0.00000000000E+00  0.00000000000E+00  0.19596854150E+03  0.19596854150E+03  0.00000000000E+00 0. -1.
         21   -1    0    0  502  503 -0.00000000000E+00 -0.00000000000E+00 -0.10049235612E+04  0.10049235612E+04  0.00000000000E+00 0.  1.
         25    1    1    2    0    0 -0.25343021826E+03 -0.44090820222E+02 -0.58186181688E+03  0.64835102367E+03  0.12500000000E+03 0.  0.
          2    1    1    2  501    0  0.38013954395E+02 -0.29153457215E+02  0.12469761959E+03  0.13358323671E+03  0.00000000000E+00 0. -1.
         -2    1    1    2    0  503  0.21541626386E+03  0.73244277437E+02 -0.35179082244E+03  0.41895784235E+03  0.00000000000E+00 0.  1.
<mgrwt>
<rscale>  4 0.27213539E+03</rscale>
<asrwt>0</asrwt>
<pdfrwt beam="1">  1       21 0.30149007E-01 0.27213539E+03</pdfrwt>
<pdfrwt beam="2">  1       21 0.15460362E+00 0.27213539E+03</pdfrwt>
<totfact> 0.27351963E+03</totfact>
</mgrwt>
</event>
<event>
 5    0  0.1972558E-002  0.2472682E+03  0.7546771E-02  0.1115044E+00
         21   -1    0    0  503  502  0.00000000000E+00  0.00000000000E+00  0.16321170744E+04  0.16321170744E+04  0.00000000000E+00 0. -1.
         21   -1    0    0  501  503 -0.00000000000E+00 -0.00000000000E+00 -0.75671759478E+02  0.75671759478E+02  0.00000000000E+00 0. -1.
         25    1    1    2    0    0 -0.47654711773E+02  0.20795575099E+03  0.16933974981E+03  0.29969570700E+03  0.12500000000E+03 0.  0.
          4    1    1    2  501    0  0.77563185555E+02 -0.82629632186E+02  0.63774004127E+03  0.64773147531E+03  0.00000000000E+00 0.  1.
         -4    1    1    2    0  502 -0.29908473782E+02 -0.12532611881E+03  0.74936552385E+03  0.76036165158E+03  0.00000000000E+00 0. -1.
<mgrwt>
<rscale>  4 0.24726821E+03</rscale>
<asrwt>0</asrwt>
<pdfrwt beam="1">  1       21 0.25109491E+00 0.24726821E+03</pdfrwt>
<pdfrwt beam="2">  1       21 0.11641810E-01 0.24726821E+03</pdfrwt>
<totfact> 0.38518868E+03</totfact>
</mgrwt>
</event>
<event>
 5    0  0.1972558E-002  0.2744484E+03  0.7546771E-02  0.1098760E+00
         21   -1    0    0  501  502  0.00000000000E+00  0.00000000000E+00  0.78570605181E+03  0.78570605181E+03  0.00000000000E+00 0.  1.
         21   -1    0    0  502  503 -0.00000000000E+00 -0.00000000000E+00 -0.16037488958E+03  0.16037488958E+03  0.00000000000E+00 0.  1.
         25    1    1    2    0    0  0.11128099528E+03  0.20600870331E+03  0.78633975559E+02  0.27682367648E+03  0.12500000000E+03 0.  0.
          4    1    1    2  501    0 -0.12725511623E+03 -0.22711148041E+03  0.21816527872E+03  0.33966097506E+03  0.00000000000E+00 0.  1.
         -4    1    1    2    0  503  0.15974120947E+02  0.21102777098E+02  0.32853190795E+03  0.32959628985E+03  0.00000000000E+00 0. -1.
<mgrwt>
<rscale>  4 0.27444843E+03</rscale>
<asrwt>0</asrwt>
<pdfrwt beam="1">  1       21 0.12087785E+00 0.27444843E+03</pdfrwt>
<pdfrwt beam="2">  1       21 0.24673060E-01 0.27444843E+03</pdfrwt>
<totfact> 0.76394836E+03</totfact>
</mgrwt>
</event>
<event>
 5    0  0.1972558E-002  0.2508767E+03  0.7546771E-02  0.1112752E+00
         21   -1    0    0  501  502  0.00000000000E+00  0.00000000000E+00  0.41484673113E+03  0.41484673113E+03  0.00000000000E+00 0.  1.
         21   -1    0    0  502  503 -0.00000000000E+00 -0.00000000000E+00 -0.42231676267E+03  0.42231676267E+03  0.00000000000E+00 0. -1.
         25    1    1    2    0    0  0.21061675447E+03 -0.24677023153E+02 -0.29481399075E+03  0.38406856403E+03  0.12500000000E+03 0.  0.
          3    1    1    2  501    0 -0.23374233528E+03  0.60385768191E+02  0.10055256004E+03  0.26152005206E+03  0.00000000000E+00 0. -1.
         -3    1    1    2    0  503  0.23125580804E+02 -0.35708745039E+02  0.18679139918E+03  0.19157487770E+03  0.00000000000E+00 0.  1.
<mgrwt>
<rscale>  4 0.25087670E+03</rscale>
<asrwt>0</asrwt>
<pdfrwt beam="1">  1       21 0.63822574E-01 0.25087670E+03</pdfrwt>
<pdfrwt beam="2">  1       21 0.64971809E-01 0.25087670E+03</pdfrwt>
<totfact> 0.47479732E+03</totfact>
</mgrwt>
</event>
<event>
 5    0  0.1972558E-002  0.3954016E+03  0.7546771E-02  0.1045384E+00
         21   -1    0    0  501  502  0.00000000000E+00  0.00000000000E+00  0.25537306728E+03  0.25537306728E+03  0.00000000000E+00 0.  1.
         21   -1    0    0  502  503 -0.00000000000E+00 -0.00000000000E+00 -0.90677718117E+03  0.90677718117E+03  0.00000000000E+00 0.  1.
         25    1    1    2    0    0  0.28512180815E+03  0.25744296494E+03 -0.61079615405E+03  0.73230339852E+03  0.12500000000E+03 0.  0.
          4    1    1    2  501    0 -0.27173178910E+03 -0.22844598195E+03 -0.94354709045E+02  0.36732620788E+03  0.00000000000E+00 0.  1.
         -4    1    1    2    0  503 -0.13390019041E+02 -0.28996982992E+02  0.53746749203E+02  0.62520642051E+02  0.00000000000E+00 0. -1.
<mgrwt>
<rscale>  4 0.39540160E+03</rscale>
<asrwt>0</asrwt>
<pdfrwt beam="1">  1       21 0.39288164E-01 0.39540160E+03</pdfrwt>
<pdfrwt beam="2">  1       21 0.13950418E+00 0.39540160E+03</pdfrwt>
<totfact> 0.19786191E+03</totfact>
</mgrwt>
</event>
<event>
 5    0  0.1972558E-002  0.3509367E+03  0.7546771E-02  0.1062231E+00
         21   -1    0    0  501  502  0.00000000000E+00  0.00000000000E+00  0.24876863995E+03  0.24876863995E+03  0.00000000000E+00 0. -1.
         21   -1    0    0  502  503 -0.00000000000E+00 -0.00000000000E+00 -0.77813403549E+03  0.77813403549E+03  0.00000000000E+00 0. -1.
         25    1    1    2    0    0  0.28963324236E+03 -0.18295391970E+03 -0.11715305703E+03  0.38302661864E+03  0.12500000000E+03 0.  0.
          3    1    1    2  501    0 -0.20110050100E+02  0.58771603152E+01  0.64787857063E+02  0.68091273679E+02  0.00000000000E+00 0.  1.
         -3    1    1    2    0  503 -0.26952319226E+03  0.17707675939E+03 -0.47700019558E+03  0.57578478311E+03  0.00000000000E+00 0. -1.
<mgrwt>
<rscale>  4 0.35093671E+03</rscale>
<asrwt>0</asrwt>
<pdfrwt beam="1">  1       21 0.38272099E-01 0.35093671E+03</pdfrwt>
<pdfrwt beam="2">  1       21 0.11971293E+00 0.35093671E+03</pdfrwt>
<totfact> 0.31614126E+03</totfact>
</mgrwt>
</event>
<event>
 5    0  0.1972558E-002  0.2809773E+03  0.7546771E-02  0.1095156E+00
         21   -1    0    0  503  502  0.00000000000E+00  0.00000000000E+00  0.84598089183E+03  0.84598089183E+03  0.00000000000E+00 0.  1.
         21   -1    0    0  501  503 -0.00000000000E+00 -0.00000000000E+00 -0.13211371404E+03  0.13211371404E+03  0.00000000000E+00 0. -1.
         25    1    1    2    0    0 -0.27828550247E+03  0.13707459675E+02  0.22332196657E+03  0.37832316356E+03  0.12500000000E+03 0.  0.
          3    1    1    2  501    0  0.57356858240E+02  0.53312984770E+02  0.26761536729E+03  0.27883699242E+03  0.00000000000E+00 0. -1.
         -3    1    1    2    0  502  0.22092864423E+03 -0.67020444445E+02  0.22292984393E+03  0.32093444989E+03  0.00000000000E+00 0.  1.
<mgrwt>
<rscale>  4 0.28097729E+03</rscale>
<asrwt>0</asrwt>
<pdfrwt beam="1">  1       21 0.13015090E+00 0.28097729E+03</pdfrwt>
<pdfrwt beam="2">  1       21 0.20325187E-01 0.28097729E+03</pdfrwt>
<totfact> 0.91304971E+03</totfact>
</mgrwt>
</event>
<event>
 5    0  0.1972558E-002  0.2380774E+03  0.7546771E-02  0.1121080E+00
         21   -1    0    0  501  502  0.00000000000E+00  0.00000000000E+00  0.21975618446E+04  0.21975618446E+04  0.00000000000E+00 0.  1.
         21   -1    0    0  502  503 -0.00000000000E+00 -0.00000000000E+00 -0.77213885498E+02  0.77213885498E+02  0.00000000000E+00 0.  1.
         25    1    1    2    0    0 -0.16919445121E+03 -0.11062443707E+03  0.13119341401E+03  0.27147972351E+03  0.12500000000E+03 0.  0.
          3    1    1    2  501    0  0.18742285195E+03  0.90378816816E+02  0.16541534025E+04  0.16671889920E+04  0.00000000000E+00 0.  1.
         -3    1    1    2    0  503 -0.18228400734E+02  0.20245620252E+02  0.33500114255E+03  0.33610701457E+03  0.00000000000E+00 0. -1.
<mgrwt>
<rscale>  4 0.23807736E+03</rscale>
<asrwt>0</asrwt>
<pdfrwt beam="1">  1       21 0.33808639E+00 0.23807736E+03</pdfrwt>
<pdfrwt beam="2">  1       21 0.11879061E-01 0.23807736E+03</pdfrwt>
<totfact> 0.11580751E+03</totfact>
</mgrwt>
</event>
<event>
 5    0  0.1972558E-002  0.4185537E+03  0.7546771E-02  0.1037538E+00
         21   -1    0    0  501  502  0.00000000000E+00  0.00000000000E+00  0.13521200643E+04  0.13521200643E+04  0.00000000000E+00 0. -1.
         21   -1    0    0  502  503 -0.00000000000E+00 -0.00000000000E+00 -0.22966576131E+03  0.22966576131E+03  0.00000000000E+00 0.  1.
         25    1    1    2    0    0  0.31220216483E+03  0.23019664973E+03  0.81953176077E+02  0.41569461428E+03  0.12500000000E+03 0.  0.
          4    1    1    2  501    0 -0.32095198978E+03 -0.30236026396E+03  0.78405063330E+03  0.89953727246E+03  0.00000000000E+00 0. -1.
         -4    1    1    2    0  503  0.87498249442E+01  0.72163614231E+02  0.25645049364E+03  0.26655393890E+03  0.00000000000E+00 0.  1.
<mgrwt>
<rscale>  4 0.41855367E+03</rscale>
<asrwt>0</asrwt>
<pdfrwt beam="1">  1       21 0.20801847E+00 0.41855367E+03</pdfrwt>
<pdfrwt beam="2">  1       21 0.35333195E-01 0.41855367E+03</pdfrwt>
<totfact> 0.77573199E+02</totfact>
</mgrwt>
</event>
<event>
 5    0  0.1972558E-002  0.2331943E+03  0.7546771E-02  0.1124411E+00
         21   -1    0    0  501  502  0.00000000000E+00  0.00000000000E+00  0.16487277122E+03  0.16487277122E+03  0.00000000000E+00 0.  1.
         21   -1    0    0  502  503 -0.00000000000E+00 -0.00000000000E+00 -0.68369131712E+03  0.68369131712E+03  0.00000000000E+00 0. -1.
         25    1    1    2    0    0  0.12309467440E+03 -0.16580019857E+03 -0.39895174636E+03  0.46629336327E+03  0.12500000000E+03 0.  0.
          2    1    1    2  501    0  0.30372615333E+02  0.52650136066E+02  0.83642836489E+02  0.10339563185E+03  0.00000000000E+00 0. -1.
         -2    1    1    2    0  503 -0.15346728973E+03  0.11315006250E+03 -0.20350963603E+03  0.27887509322E+03  0.00000000000E+00 0.  1.
<mgrwt>
<rscale>  4 0.23319435E+03</rscale>
<asrwt>0</asrwt>
<pdfrwt beam="1">  1       21 0.25365042E-01 0.23319435E+03</pdfrwt>
<pdfrwt beam="2">  1       21 0.10518328E+00 0.23319435E+03</pdfrwt>
<totfact> 0.10434943E+04</totfact>
</mgrwt>
</event>
<event>
 5    0  0.1972558E-002  0.2432869E+03  0.7546771E-02  0.1117622E+00
         21   -1    0    0  501  502  0.00000000000E+00  0.00000000000E+00  0.31678166166E+03  0.31678166166E+03  0.00000000000E+00 0. -1.
         21   -1    0    0  502  503 -0.00000000000E+00 -0.00000000000E+00 -0.30501632471E+03  0.30501632471E+03  0.00000000000E+00 0. -1.
         25    1    1    2    0    0 -0.40130325156E+02 -0.21111555113E+03 -0.13484648165E+03  0.28282289960E+03  0.12500000000E+03 0.  0.
          1    1    1    2  501    0  0.23691848839E+02  0.11236301562E+02  0.13560749424E+03  0.13811933489E+03  0.00000000000E+00 0.  1.
         -1    1    1    2    0  503  0.16438476318E+02  0.19987924957E+03  0.11004324349E+02  0.20085575188E+03  0.00000000000E+00 0. -1.
<mgrwt>
<rscale>  4 0.24328689E+03</rscale>
<asrwt>0</asrwt>
<pdfrwt beam="1">  1       21 0.48735640E-01 0.24328689E+03</pdfrwt>
<pdfrwt beam="2">  1       21 0.46925589E-01 0.24328689E+03</pdfrwt>
<totfact> 0.16971743E+04</totfact>
</mgrwt>
</event>
<event>
 5    0  0.1972558E-002  0.2369240E+03  0.7546771E-02  0.1121859E+00
         21   -1    0    0  501  502  0.00000000000E+00  0.00000000000E+00  0.51605071473E+03  0.51605071473E+03  0.00000000000E+00 0.  1.
         21   -1    0    0  502  503 -0.00000000000E+00 -0.00000000000E+00 -0.60217568993E+03  0.60217568993E+03  0.00000000000E+00 0. -1.
         25    1    1    2    0    0 -0.18075317843E+03 -0.93987569476E+02 -0.50580535709E+03  0.55943671134E+03  0.12500000000E+03 0.  0.
          3    1    1    2  501    0 -0.91886265641E+01  0.53139103967E+02  0.34729772485E+03  0.35145967751E+03  0.00000000000E+00 0.  1.
         -3    1    1    2    0  503  0.18994180499E+03  0.40848465509E+02  0.72382657043E+02  0.20733001582E+03  0.00000000000E+00 0. -1.
<mgrwt>
<rscale>  4 0.23692403E+03</rscale>
<asrwt>0</asrwt>
<pdfrwt beam="1">  1       21 0.79392417E-01 0.23692403E+03</pdfrwt>
<pdfrwt beam="2">  1       21 0.92642414E-01 0.23692403E+03</pdfrwt>
<totfact> 0.13213667E+03</totfact>
</mgrwt>
</event>
<event>
 5    0  0.1972558E-002  0.3249221E+03  0.7546771E-02  0.1073406E+00
         21   -1    0    0  501  502  0.00000000000E+00  0.00000000000E+00  0.70532465909E+02  0.70532465909E+02  0.00000000000E+00 0.  1.
         21   -1    0    0  502  503 -0.00000000000E+00 -0.00000000000E+00 -0.15375590780E+04  0.15375590780E+04  0.00000000000E+00 0. -1.
         25    1    1    2    0    0  0.29089739255E+03  0.72993476761E+02 -0.96847247433E+03  0.10215249748E+04  0.12500000000E+03 0.  0.
          4    1    1    2  501    0 -0.23912219360E+03 -0.68847025467E+02 -0.45576768710E+03  0.51927210689E+03  0.00000000000E+00 0.  1.
         -4    1    1    2    0  503 -0.51775198946E+02 -0.41464512938E+01 -0.42786450692E+02  0.67294462232E+02  0.00000000000E+00 0. -1.
<mgrwt>
<rscale>  4 0.32492205E+03</rscale>
<asrwt>0</asrwt>
<pdfrwt beam="1">  1       21 0.10851149E-01 0.32492205E+03</pdfrwt>
<pdfrwt beam="2">  1       21 0.23654754E+00 0.32492205E+03</pdfrwt>
<totfact> 0.50667404E+03</totfact>
</mgrwt>
</event>
<event>
 5    0  0.1972558E-002  0.2826720E+03  0.7546771E-02  0.1094238E+00
         21   -1    0    0  501  502  0.00000000000E+00  0.00000000000E+00  0.20920865679E+03  0.20920865679E+03  0.00000000000E+00 0. -1.
         21   -1    0    0  502  503 -0.00000000000E+00 -0.00000000000E+00 -0.45751062893E+03  0.45751062893E+03  0.00000000000E+00 0.  1.
         25    1    1    2    0    0 -0.52457994993E+02  0.24804563634E+03 -0.28990724317E+03  0.40490701227E+03  0.12500000000E+03 0.  0.
          3    1    1    2  501    0  0.58524184793E+00 -0.21363162678E+02  0.18245081648E+02  0.28100004128E+02  0.00000000000E+00 0.  1.
         -3    1    1    2    0  503  0.51872753145E+02 -0.22668247366E+03  0.23360189379E+02  0.23371226933E+03  0.00000000000E+00 0. -1.
<mgrwt>
<rscale>  4 0.28267203E+03</rscale>
<asrwt>0</asrwt>
<pdfrwt beam="1">  1       21 0.32185947E-01 0.28267203E+03</pdfrwt>
<pdfrwt beam="2">  1       21 0.70386251E-01 0.28267203E+03</pdfrwt>
<totfact> 0.16199380E+04</totfact>
</mgrwt>
</event>
<event>
 5    0  0.1972558E-002  0.3428970E+03  0.7546771E-02  0.1065569E+00
         21   -1    0    0  501  502  0.00000000000E+00  0.00000000000E+00  0.14633996374E+04  0.14633996374E+04  0.00000000000E+00 0.  1.
         21   -1    0    0  502  503 -0.00000000000E+00 -0.00000000000E+00 -0.15191217814E+04  0.15191217814E+04  0.00000000000E+00 0.  1.
         25    1    1    2    0    0  0.17338725254E+03  0.27080003042E+03 -0.14181858952E+04  0.14595451446E+04  0.12500000000E+03 0.  0.
          3    1    1    2  501    0 -0.40698821958E+02 -0.11120285950E+02  0.11761866538E+04  0.11769431164E+04  0.00000000000E+00 0.  1.
         -3    1    1    2    0  503 -0.13268843059E+03 -0.25967974447E+03  0.18627709740E+03  0.34603315783E+03  0.00000000000E+00 0. -1.
<mgrwt>
<rscale>  4 0.34289695E+03</rscale>
<asrwt>0</asrwt>
<pdfrwt beam="1">  1       21 0.22513841E+00 0.34289695E+03</pdfrwt>
<pdfrwt beam="2">  1       21 0.23371104E+00 0.34289695E+03</pdfrwt>
<totfact> 0.62253850E+00</totfact>
</mgrwt>
</event>
<event>
 5    0  0.1972558E-002  0.3501935E+03  0.7546771E-02  0.1062536E+00
         21   -1    0    0  501  502  0.00000000000E+00  0.00000000000E+00  0.20568098125E+03  0.20568098125E+03  0.00000000000E+00 0. -1.
         21   -1    0    0  502  503 -0.00000000000E+00 -0.00000000000E+00 -0.17377821266E+04  0.17377821266E+04  0.00000000000E+00 0. -1.
         25    1    1    2    0    0  0.32571207449E+03 -0.15584043377E+02 -0.14169479453E+04  0.14593483812E+04  0.12500000000E+03 0.  0.
          4    1    1    2  501    0 -0.32970039549E+03  0.44601359288E+02 -0.20420253964E+03  0.39037201390E+03  0.00000000000E+00 0. -1.
         -4    1    1    2    0  503  0.39883209997E+01 -0.29017315912E+02  0.89049339573E+02  0.93742712813E+02  0.00000000000E+00 0.  1.
<mgrwt>
<rscale>  4 0.35019347E+03</rscale>
<asrwt>0</asrwt>
<pdfrwt beam="1">  1       21 0.31643228E-01 0.35019347E+03</pdfrwt>
<pdfrwt beam="2">  1       21 0.26735110E+00 0.35019347E+03</pdfrwt>
<totfact> 0.43234712E+02</totfact>
</mgrwt>
</event>
<event>
 5    0  0.1972558E-002  0.2563777E+03  0.7546771E-02  0.1109339E+00
         21   -1    0    0  501  502  0.00000000000E+00  0.00000000000E+00  0.32357248658E+03  0.32357248658E+03  0.00000000000E+00 0.  1.
         21   -1    0    0  502  503 -0.00000000000E+00 -0.00000000000E+00 -0.43105315420E+03  0.43105315420E+03  0.00000000000E+00 0. -1.
         25    1    1    2    0    0 -0.43960488380E+02  0.21948125502E+03 -0.33831876625E+03  0.42448690609E+03  0.12500000000E+03 0.  0.
          2    1    1    2  501    0  0.31944629270E+02 -0.23491856851E+02  0.37661985508E+02  0.54687766730E+02  0.00000000000E+00 0. -1.
         -2    1    1    2    0  503  0.12015859110E+02 -0.19598939817E+03  0.19317611312E+03  0.27545096795E+03  0.00000000000E+00 0.  1.
<mgrwt>
<rscale>  4 0.25637774E+03</rscale>
<asrwt>0</asrwt>
<pdfrwt beam="1">  1       21 0.49780383E-01 0.25637774E+03</pdfrwt>
<pdfrwt beam="2">  1       21 0.66315870E-01 0.25637774E+03</pdfrwt>
<totfact> 0.77004904E+03</totfact>
</mgrwt>
</event>
<event>
 5    0  0.1972558E-002  0.2508839E+03  0.7546771E-02  0.1112747E+00
         21   -1    0    0  503  502  0.00000000000E+00  0.00000000000E+00  0.89463261350E+02  0.89463261350E+02  0.00000000000E+00 0. -1.
         21   -1    0    0  501  503 -0.00000000000E+00 -0.00000000000E+00 -0.87725441628E+03  0.87725441628E+03  0.00000000000E+00 0. -1.
         25    1    1    2    0    0  0.18953666580E+03  0.12982082111E+03 -0.60293767009E+03  0.65721870583E+03  0.12500000000E+03 0.  0.
          4    1    1    2  501    0 -0.26790267202E+02 -0.15876535402E+02  0.84902412319E+01  0.32277964454E+02  0.00000000000E+00 0.  1.
         -4    1    1    2    0  502 -0.16274639860E+03 -0.11394428571E+03 -0.19334372607E+03  0.27722100735E+03  0.00000000000E+00 0. -1.
<mgrwt>
<rscale>  4 0.25088390E+03</rscale>
<asrwt>0</asrwt>
<pdfrwt beam="1">  1       21 0.13763579E-01 0.25088390E+03</pdfrwt>
<pdfrwt beam="2">  1       21 0.13496222E+00 0.25088390E+03</pdfrwt>
<totfact> 0.17400684E+04</totfact>
</mgrwt>
</event>
<event>
 5    0  0.1972558E-002  0.2991034E+03  0.7546771E-02  0.1085690E+00
         21   -1    0    0  501  502  0.00000000000E+00  0.00000000000E+00  0.13709388948E+04  0.13709388948E+04  0.00000000000E+00 0.  1.
         21   -1    0    0  502  503 -0.00000000000E+00 -0.00000000000E+00 -0.24589886659E+03  0.24589886659E+03  0.00000000000E+00 0.  1.
         25    1    1    2    0    0 -0.27484743617E+03 -0.31233872045E+02 -0.11604076820E+03  0.32497250317E+03  0.12500000000E+03 0.  0.
          4    1    1    2  501    0  0.20953352625E+03  0.93971134543E+02  0.11035779343E+04  0.11272174279E+04  0.00000000000E+00 0.  1.
         -4    1    1    2    0  503  0.65313909919E+02 -0.62737262498E+02  0.13750286211E+03  0.16464783030E+03  0.00000000000E+00 0. -1.
<mgrwt>
<rscale>  4 0.29910336E+03</rscale>
<asrwt>0</asrwt>
<pdfrwt beam="1">  1       21 0.21091367E+00 0.29910336E+03</pdfrwt>
<pdfrwt beam="2">  1       21 0.37830596E-01 0.29910336E+03</pdfrwt>
<totfact> 0.69725781E+02</totfact>
</mgrwt>
</event>
<event>
 5    0  0.1972558E-002  0.3165115E+03  0.7546771E-02  0.1077266E+00
         21   -1    0    0  501  502  0.00000000000E+00  0.00000000000E+00  0.87649788944E+03  0.87649788944E+03  0.00000000000E+00 0. -1.
         21   -1    0    0  502  503 -0.00000000000E+00 -0.00000000000E+00 -0.11042820396E+03  0.11042820396E+03  0.00000000000E+00 0. -1.
         25    1    1    2    0    0  0.95379487967E+02  0.27469494507E+03  0.31114981481E+03  0.44383979861E+03  0.12500000000E+03 0.  0.
          2    1    1    2  501    0 -0.19606887688E+02 -0.43250834995E+02  0.11943028164E+03  0.12852492733E+03  0.00000000000E+00 0.  1.
         -2    1    1    2    0  503 -0.75772600279E+02 -0.23144411008E+03  0.33548958904E+03  0.41456136747E+03  0.00000000000E+00 0. -1.
<mgrwt>
<rscale>  4 0.31651155E+03</rscale>
<asrwt>0</asrwt>
<pdfrwt beam="1">  1       21 0.13484582E+00 0.31651155E+03</pdfrwt>
<pdfrwt beam="2">  1       21 0.16988955E-01 0.31651155E+03</pdfrwt>
<totfact> 0.11465350E+04</totfact>
</mgrwt>
</event>
<event>
 5    0  0.1972558E-002  0.2509497E+03  0.7546771E-02  0.1112706E+00
         21   -1    0    0  501  502  0.00000000000E+00  0.00000000000E+00  0.15686335375E+03  0.15686335375E+03  0.00000000000E+00 0.  1.
         21   -1    0    0  502  503 -0.00000000000E+00 -0.00000000000E+00 -0.99243051737E+03  0.99243051737E+03  0.00000000000E+00 0.  1.
         25    1    1    2    0    0 -0.62940140750E+02  0.28158285630E+03 -0.44766920009E+03  0.54706770969E+03  0.12500000000E+03 0.  0.
          3    1    1    2  501    0 -0.27893346228E+02 -0.11287184673E+03  0.48221755530E+02  0.12587068863E+03  0.00000000000E+00 0.  1.
         -3    1    1    2    0  503  0.90833486978E+02 -0.16871100956E+03 -0.43611971906E+03  0.47635547279E+03  0.00000000000E+00 0. -1.
<mgrwt>
<rscale>  4 0.25094972E+03</rscale>
<asrwt>0</asrwt>
<pdfrwt beam="1">  1       21 0.24132824E-01 0.25094972E+03</pdfrwt>
<pdfrwt beam="2">  1       21 0.15268162E+00 0.25094972E+03</pdfrwt>
<totfact> 0.44179517E+03</totfact>
</mgrwt>
</event>
<event>
 5    0  0.1972558E-002  0.2706657E+03  0.7546771E-02  0.1100899E+00
         21   -1    0    0  501  502  0.00000000000E+00  0.00000000000E+00  0.85710823495E+03  0.85710823495E+03  0.00000000000E+00 0.  1.
         21   -1    0    0  502  503 -0.00000000000E+00 -0.00000000000E+00 -0.22165088269E+03  0.22165088269E+03  0.00000000000E+00 0. -1.
         25    1    1    2    0    0 -0.20121824937E+02  0.24205056138E+03 -0.41407011414E+02  0.27628409780E+03  0.12500000000E+03 0.  0.
          2    1    1    2  501    0  0.23831992157E+02 -0.65625838198E+01  0.51753796380E+03  0.51812795266E+03  0.00000000000E+00 0. -1.
         -2    1    1    2    0  503 -0.37101672204E+01 -0.23548797756E+03  0.15932639987E+03  0.28434706718E+03  0.00000000000E+00 0.  1.
<mgrwt>
<rscale>  4 0.27066567E+03</rscale>
<asrwt>0</asrwt>
<pdfrwt beam="1">  1       21 0.13186280E+00 0.27066567E+03</pdfrwt>
<pdfrwt beam="2">  1       21 0.34100136E-01 0.27066567E+03</pdfrwt>
<totfact> 0.32588725E+03</totfact>
</mgrwt>
</event>
<event>
 5    0  0.1972558E-002  0.2964798E+03  0.7546771E-02  0.1087014E+00
         21   -1    0    0  501  502  0.00000000000E+00  0.00000000000E+00  0.75780618434E+02  0.75780618434E+02  0.00000000000E+00 0.  1.
         21   -1    0    0  502  503 -0.00000000000E+00 -0.00000000000E+00 -0.17780950406E+04  0.17780950406E+04  0.00000000000E+00 0. -1.
         25    1    1    2    0    0  0.15577148536E+03 -0.21911307622E+03 -0.14175478982E+04  0.14482204043E+04  0.12500000000E+03 0.  0.
          1    1    1    2  501    0 -0.42048213609E+02  0.33572637496E+02 -0.93080986435E+01  0.54605997441E+02  0.00000000000E+00 0. -1.
         -1    1    1    2    0  503 -0.11372327175E+03  0.18554043872E+03 -0.27545842530E+03  0.35104925724E+03  0.00000000000E+00 0.  1.
<mgrwt>
<rscale>  4 0.29647984E+03</rscale>
<asrwt>0</asrwt>
<pdfrwt beam="1">  1       21 0.11658556E-01 0.29647984E+03</pdfrwt>
<pdfrwt beam="2">  1       21 0.27355310E+00 0.29647984E+03</pdfrwt>
<totfact> 0.27186483E+03</totfact>
</mgrwt>
</event>
<event>
 5    0  0.1972558E-002  0.2437489E+03  0.7546771E-02  0.1117320E+00
         21   -1    0    0  501  502  0.00000000000E+00  0.00000000000E+00  0.24237876949E+03  0.24237876949E+03  0.00000000000E+00 0. -1.
         21   -1    0    0  502  503 -0.00000000000E+00 -0.00000000000E+00 -0.65666482572E+03  0.65666482572E+03  0.00000000000E+00 0.  1.
         25    1    1    2    0    0  0.45471347558E+01  0.25599370340E+03 -0.22315207378E+03  0.36190509895E+03  0.12500000000E+03 0.  0.
          3    1    1    2  501    0  0.66350460537E+02 -0.18352487014E+03 -0.31899977232E+03  0.37395804085E+03  0.00000000000E+00 0.  1.
         -3    1    1    2    0  503 -0.70897595293E+02 -0.72468833254E+02  0.12786578987E+03  0.16318045542E+03  0.00000000000E+00 0. -1.
<mgrwt>
<rscale>  4 0.24374888E+03</rscale>
<asrwt>0</asrwt>
<pdfrwt beam="1">  1       21 0.37289041E-01 0.24374888E+03</pdfrwt>
<pdfrwt beam="2">  1       21 0.10102536E+00 0.24374888E+03</pdfrwt>
<totfact> 0.53578823E+03</totfact>
</mgrwt>
</event>
<event>
 5    0  0.1972558E-002  0.2522413E+03  0.7546771E-02  0.1111897E+00
         21   -1    0    0  503  502  0.00000000000E+00  0.00000000000E+00  0.26476483661E+03  0.26476483661E+03  0.00000000000E+00 0. -1.
         21   -1    0    0  501  503 -0.00000000000E+00 -0.00000000000E+00 -0.33346802744E+03  0.33346802744E+03  0.00000000000E+00 0. -1.
         25    1    1    2    0    0  0.19920159495E+03 -0.10711150928E+03 -0.20011947314E+03  0.32684392970E+03  0.12500000000E+03 0.  0.
          4    1    1    2  501    0 -0.21031190325E+02  0.11786228343E+02  0.46149307806E+02  0.52067117801E+02  0.00000000000E+00 0.  1.
         -4    1    1    2    0  502 -0.17817040463E+03  0.95325280941E+02  0.85266974501E+02  0.21932181655E+03  0.00000000000E+00 0. -1.
<mgrwt>
<rscale>  4 0.25224131E+03</rscale>
<asrwt>0</asrwt>
<pdfrwt beam="1">  1       21 0.40733052E-01 0.25224131E+03</pdfrwt>
<pdfrwt beam="2">  1       21 0.51302773E-01 0.25224131E+03</pdfrwt>
<totfact> 0.20302014E+04</totfact>
</mgrwt>
</event>
<event>
 5    0  0.1972558E-002  0.2731750E+03  0.7546771E-02  0.1099476E+00
         21   -1    0    0  501  502  0.00000000000E+00  0.00000000000E+00  0.25492636639E+03  0.25492636639E+03  0.00000000000E+00 0.  1.
         21   -1    0    0  502  503 -0.00000000000E+00 -0.00000000000E+00 -0.15521509237E+04  0.15521509237E+04  0.00000000000E+00 0.  1.
         25    1    1    2    0    0  0.24077520252E+03 -0.28381079581E+02 -0.13939694726E+04  0.14204063060E+04  0.12500000000E+03 0.  0.
          2    1    1    2  501    0 -0.63178663348E+01 -0.84801602600E+02  0.93386557374E+02  0.12630232119E+03  0.00000000000E+00 0.  1.
         -2    1    1    2    0  503 -0.23445733618E+03  0.11318268218E+03  0.33583578683E+01  0.26036866287E+03  0.00000000000E+00 0. -1.
<mgrwt>
<rscale>  4 0.27317500E+03</rscale>
<asrwt>0</asrwt>
<pdfrwt beam="1">  1       21 0.39219440E-01 0.27317500E+03</pdfrwt>
<pdfrwt beam="2">  1       21 0.23879246E+00 0.27317500E+03</pdfrwt>
<totfact> 0.44432001E+02</totfact>
</mgrwt>
</event>
<event>
 5    0  0.1972558E-002  0.3258831E+03  0.7546771E-02  0.1072973E+00
         21   -1    0    0  501  502  0.00000000000E+00  0.00000000000E+00  0.23451256865E+03  0.23451256865E+03  0.00000000000E+00 0. -1.
         21   -1    0    0  502  503 -0.00000000000E+00 -0.00000000000E+00 -0.43303298368E+03  0.43303298368E+03  0.00000000000E+00 0. -1.
         25    1    1    2    0    0 -0.80837320248E+02  0.28989675623E+03 -0.54001855028E+02  0.33032711358E+03  0.12500000000E+03 0.  0.
          2    1    1    2  501    0  0.61855705926E+02 -0.26113558461E+03 -0.13931261323E+03  0.30236720409E+03  0.00000000000E+00 0. -1.
         -2    1    1    2    0  503  0.18981614322E+02 -0.28761171628E+02 -0.52059467657E+01  0.34851234661E+02  0.00000000000E+00 0.  1.
<mgrwt>
<rscale>  4 0.32588311E+03</rscale>
<asrwt>0</asrwt>
<pdfrwt beam="1">  1       21 0.36078857E-01 0.32588311E+03</pdfrwt>
<pdfrwt beam="2">  1       21 0.66620458E-01 0.32588311E+03</pdfrwt>
<totfact> 0.14309212E+04</totfact>
</mgrwt>
</event>
<event>
 5    0  0.1972558E-002  0.2801439E+03  0.7546771E-02  0.1095610E+00
         21   -1    0    0  501  502  0.00000000000E+00  0.00000000000E+00  0.34063582008E+03  0.34063582008E+03  0.00000000000E+00 0.  1.
         21   -1    0    0  502  503 -0.00000000000E+00 -0.00000000000E+00 -0.33115340585E+03  0.33115340585E+03  0.00000000000E+00 0.  1.
         25    1    1    2    0    0  0.12208429204E+03 -0.18654284490E+03 -0.24649734144E+01  0.25560493626E+03  0.12500000000E+03 0.  0.
          4    1    1    2  501    0 -0.68139143893E+02  0.27365801188E+03 -0.63333092935E+02  0.28903759454E+03  0.00000000000E+00 0.  1.
         -4    1    1    2    0  503 -0.53945148143E+02 -0.87115166980E+02  0.75280480570E+02  0.12714669512E+03  0.00000000000E+00 0. -1.
<mgrwt>
<rscale>  4 0.28014387E+03</rscale>
<asrwt>0</asrwt>
<pdfrwt beam="1">  1       21 0.52405511E-01 0.28014387E+03</pdfrwt>
<pdfrwt beam="2">  1       21 0.50946678E-01 0.28014387E+03</pdfrwt>
<totfact> 0.12043687E+04</totfact>
</mgrwt>
</event>
<event>
 5    0  0.1972558E-002  0.2488050E+03  0.7546771E-02  0.1114062E+00
         21   -1    0    0  503  502  0.00000000000E+00  0.00000000000E+00  0.33387461370E+03  0.33387461370E+03  0.00000000000E+00 0. -1.
         21   -1    0    0  501  503 -0.00000000000E+00 -0.00000000000E+00 -0.12111100411E+04  0.12111100411E+04  0.00000000000E+00 0. -1.
         25    1    1    2    0    0 -0.85148405003E+02 -0.19845192905E+03 -0.11565034415E+04  0.11831139544E+04  0.12500000000E+03 0.  0.
          4    1    1    2  501    0  0.24572434486E+02  0.78276750035E+01  0.58709576454E+02  0.64124031376E+02  0.00000000000E+00 0.  1.
         -4    1    1    2    0  502  0.60575970517E+02  0.19062425404E+03  0.22055843767E+03  0.29774666894E+03  0.00000000000E+00 0. -1.
<mgrwt>
<rscale>  4 0.24880501E+03</rscale>
<asrwt>0</asrwt>
<pdfrwt beam="1">  1       21 0.51365327E-01 0.24880501E+03</pdfrwt>
<pdfrwt beam="2">  1       21 0.18632462E+00 0.24880501E+03</pdfrwt>
<totfact> 0.56025308E+02</totfact>
</mgrwt>
</event>
<event>
 5    0  0.1972558E-002  0.2896217E+03  0.7546771E-02  0.1090547E+00
         21   -1    0    0  501  502  0.00000000000E+00  0.00000000000E+00  0.55148510811E+03  0.55148510811E+03  0.00000000000E+00 0.  1.
         21   -1    0    0  502  503 -0.00000000000E+00 -0.00000000000E+00 -0.30535633236E+03  0.30535633236E+03  0.00000000000E+00 0. -1.
         25    1    1    2    0    0  0.90375837389E+02  0.23883136610E+03 -0.14899453186E+03  0.32098689060E+03  0.12500000000E+03 0.  0.
          4    1    1    2  501    0 -0.91934976905E+02 -0.26535769807E+03  0.21474141080E+03  0.35352598407E+03  0.00000000000E+00 0.  1.
         -4    1    1    2    0  503  0.15591395160E+01  0.26526331973E+02  0.18038189681E+03  0.18232856579E+03  0.00000000000E+00 0. -1.
<mgrwt>
<rscale>  4 0.28962167E+03</rscale>
<asrwt>0</asrwt>
<pdfrwt beam="1">  1       21 0.84843863E-01 0.28962167E+03</pdfrwt>
<pdfrwt beam="2">  1       21 0.46977897E-01 0.28962167E+03</pdfrwt>
<totfact> 0.48987886E+03</totfact>
</mgrwt>
</event>
<event>
 5    0  0.1972558E-002  0.3058035E+03  0.7546771E-02  0.1082375E+00
         21   -1    0    0  501  502  0.00000000000E+00  0.00000000000E+00  0.65997894661E+03  0.65997894661E+03  0.00000000000E+00 0.  1.
         21   -1    0    0  502  503 -0.00000000000E+00 -0.00000000000E+00 -0.50589488499E+03  0.50589488499E+03  0.00000000000E+00 0. -1.
         25    1    1    2    0    0 -0.13161739145E+03 -0.24441555151E+03 -0.40601034796E+03  0.50747561735E+03  0.12500000000E+03 0.  0.
          4    1    1    2  501    0 -0.20491325753E+02 -0.52953931109E+01  0.16778060943E+03  0.16911022595E+03  0.00000000000E+00 0. -1.
         -4    1    1    2    0  503  0.15210871720E+03  0.24971094462E+03  0.39231380015E+03  0.48928798830E+03  0.00000000000E+00 0.  1.
<mgrwt>
<rscale>  4 0.30580349E+03</rscale>
<asrwt>0</asrwt>
<pdfrwt beam="1">  1       21 0.10153522E+00 0.30580349E+03</pdfrwt>
<pdfrwt beam="2">  1       21 0.77829982E-01 0.30580349E+03</pdfrwt>
<totfact> 0.10590842E+03</totfact>
</mgrwt>
</event>
<event>
 5    0  0.1972558E-002  0.2273353E+03  0.7546771E-02  0.1128529E+00
         21   -1    0    0  501  502  0.00000000000E+00  0.00000000000E+00  0.51565830737E+03  0.51565830737E+03  0.00000000000E+00 0.  1.
         21   -1    0    0  502  503 -0.00000000000E+00 -0.00000000000E+00 -0.16797803597E+03  0.16797803597E+03  0.00000000000E+00 0.  1.
         25    1    1    2    0    0  0.21454354193E+03  0.17384428184E+02  0.46959739749E+02  0.25330094134E+03  0.12500000000E+03 0.  0.
          4    1    1    2  501    0 -0.56439914785E+02  0.53725131053E+02  0.23046468861E+03  0.24328137287E+03  0.00000000000E+00 0. -1.
         -4    1    1    2    0  503 -0.15810362714E+03 -0.71109559238E+02  0.70255843039E+02  0.18705402912E+03  0.00000000000E+00 0.  1.
<mgrwt>
<rscale>  4 0.22733527E+03</rscale>
<asrwt>0</asrwt>
<pdfrwt beam="1">  1       21 0.79332047E-01 0.22733527E+03</pdfrwt>
<pdfrwt beam="2">  1       21 0.25842775E-01 0.22733527E+03</pdfrwt>
<totfact> 0.19526561E+04</totfact>
</mgrwt>
</event>
<event>
 5    0  0.1972558E-002  0.4409007E+03  0.7546771E-02  0.1030471E+00
         21   -1    0    0  501  502  0.00000000000E+00  0.00000000000E+00  0.16848090585E+03  0.16848090585E+03  0.00000000000E+00 0. -1.
         21   -1    0    0  502  503 -0.00000000000E+00 -0.00000000000E+00 -0.32477713218E+04  0.32477713218E+04  0.00000000000E+00 0. -1.
         25    1    1    2    0    0  0.36531989346E+03 -0.21396320319E+03 -0.27563870997E+04  0.27915110103E+04  0.12500000000E+03 0.  0.
          2    1    1    2  501    0 -0.24598657642E+02 -0.34282034287E+02  0.47524035226E+02  0.63552228575E+02  0.00000000000E+00 0.  1.
         -2    1    1    2    0  503 -0.34072123582E+03  0.24824523748E+03 -0.37042735145E+03  0.56118898882E+03  0.00000000000E+00 0. -1.
<mgrwt>
<rscale>  4 0.44090066E+03</rscale>
<asrwt>0</asrwt>
<pdfrwt beam="1">  1       21 0.25920141E-01 0.44090066E+03</pdfrwt>
<pdfrwt beam="2">  1       21 0.49965710E+00 0.44090066E+03</pdfrwt>
<totfact> 0.19730810E+01</totfact>
</mgrwt>
</event>
<event>
 5    0  0.1972558E-002  0.2618146E+03  0.7546771E-02  0.1106058E+00
         21   -1    0    0  503  502  0.00000000000E+00  0.00000000000E+00  0.34613702066E+03  0.34613702066E+03  0.00000000000E+00 0.  1.
         21   -1    0    0  501  503 -0.00000000000E+00 -0.00000000000E+00 -0.22152841170E+03  0.22152841170E+03  0.00000000000E+00 0.  1.
         25    1    1    2    0    0 -0.21655755999E+03 -0.77619137112E+02 -0.54795000040E+02  0.26748719458E+03  0.12500000000E+03 0.  0.
          3    1    1    2  501    0  0.68021418941E+02  0.53985817452E+02  0.90674895534E+02  0.12555205534E+03  0.00000000000E+00 0. -1.
         -3    1    1    2    0  502  0.14853614105E+03  0.23633319661E+02  0.88728713468E+02  0.17462618243E+03  0.00000000000E+00 0.  1.
<mgrwt>
<rscale>  4 0.26181464E+03</rscale>
<asrwt>0</asrwt>
<pdfrwt beam="1">  1       21 0.53251850E-01 0.26181464E+03</pdfrwt>
<pdfrwt beam="2">  1       21 0.34081294E-01 0.26181464E+03</pdfrwt>
<totfact> 0.26757004E+04</totfact>
</mgrwt>
</event>
<event>
 5    0  0.1972558E-002  0.2570302E+03  0.7546771E-02  0.1108941E+00
         21   -1    0    0  501  502  0.00000000000E+00  0.00000000000E+00  0.28559498928E+03  0.28559498928E+03  0.00000000000E+00 0. -1.
         21   -1    0    0  502  503 -0.00000000000E+00 -0.00000000000E+00 -0.10460304860E+04  0.10460304860E+04  0.00000000000E+00 0. -1.
         25    1    1    2    0    0 -0.13512608085E+03  0.17316942725E+03 -0.90390025197E+03  0.93856665920E+03  0.12500000000E+03 0.  0.
          1    1    1    2  501    0  0.21083360222E+03 -0.18664125076E+03  0.78292405919E+02  0.29225924303E+03  0.00000000000E+00 0. -1.
         -1    1    1    2    0  503 -0.75707521374E+02  0.13471823507E+02  0.65172349291E+02  0.10079957308E+03  0.00000000000E+00 0.  1.
<mgrwt>
<rscale>  4 0.25703017E+03</rscale>
<asrwt>0</asrwt>
<pdfrwt beam="1">  1       21 0.43937691E-01 0.25703017E+03</pdfrwt>
<pdfrwt beam="2">  1       21 0.16092777E+00 0.25703017E+03</pdfrwt>
<totfact> 0.11626862E+03</totfact>
</mgrwt>
</event>
<event>
 5    0  0.1972558E-002  0.2453403E+03  0.7546771E-02  0.1116286E+00
         21   -1    0    0  503  502  0.00000000000E+00  0.00000000000E+00  0.49035114116E+02  0.49035114116E+02  0.00000000000E+00 0.  1.
         21   -1    0    0  501  503 -0.00000000000E+00 -0.00000000000E+00 -0.33948589463E+04  0.33948589463E+04  0.00000000000E+00 0.  1.
         25    1    1    2    0    0  0.11705477813E+03  0.20982933266E+03 -0.77302964463E+03  0.81910316897E+03  0.12500000000E+03 0.  0.
          2    1    1    2  501    0 -0.49016643674E+02 -0.23859640018E+02 -0.22164519527E+04  0.22171222728E+04  0.00000000000E+00 0. -1.
         -2    1    1    2    0  502 -0.68038134459E+02 -0.18596969264E+03 -0.35634223485E+03  0.40766861868E+03  0.00000000000E+00 0.  1.
<mgrwt>
<rscale>  4 0.24534029E+03</rscale>
<asrwt>0</asrwt>
<pdfrwt beam="1">  1       21 0.75438638E-02 0.24534029E+03</pdfrwt>
<pdfrwt beam="2">  1       21 0.52228599E+00 0.24534029E+03</pdfrwt>
<totfact> 0.16049061E+02</totfact>
</mgrwt>
</event>
<event>
 5    0  0.2379381E-002  0.2337985E+03  0.7546771E-02  0.1123994E+00
         21   -1    0    0  501  502  0.00000000000E+00  0.00000000000E+00  0.49319629644E+03  0.49319629644E+03  0.00000000000E+00 0. -1.
         21   -1    0    0  502  503 -0.00000000000E+00 -0.00000000000E+00 -0.12948805501E+03  0.12948805501E+03  0.00000000000E+00 0. -1.
         25    1    1    2    0    0  0.18154565173E+03 -0.97276542988E+02  0.26403665126E+03  0.35743797040E+03  0.12500000000E+03 0.  0.
          1    1    1    2  501    0 -0.15308569367E+03  0.11138562337E+03  0.12305938325E+03  0.22579990811E+03  0.00000000000E+00 0. -1.
         -1    1    1    2    0  503 -0.28459958061E+02 -0.14109080383E+02 -0.23387793080E+02  0.39446472937E+02  0.00000000000E+00 0.  1.
<mgrwt>
<rscale>  4 0.23379847E+03</rscale>
<asrwt>0</asrwt>
<pdfrwt beam="1">  1       21 0.75876352E-01 0.23379847E+03</pdfrwt>
<pdfrwt beam="2">  1       21 0.19921240E-01 0.23379847E+03</pdfrwt>
<totfact> 0.35278587E+04</totfact>
</mgrwt>
</event>
<event>
 5    0  0.1972558E-002  0.3020132E+03  0.7546771E-02  0.1084239E+00
         21   -1    0    0  501  502  0.00000000000E+00  0.00000000000E+00  0.80708363264E+03  0.80708363264E+03  0.00000000000E+00 0. -1.
         21   -1    0    0  502  503 -0.00000000000E+00 -0.00000000000E+00 -0.21496417506E+03  0.21496417506E+03  0.00000000000E+00 0. -1.
         25    1    1    2    0    0  0.27423595855E+03 -0.19534671760E+02 -0.62489760024E+02  0.30841033457E+03  0.12500000000E+03 0.  0.
          1    1    1    2  501    0 -0.42715380505E+02  0.22489071691E+02  0.16717926537E+03  0.17400939299E+03  0.00000000000E+00 0.  1.
         -1    1    1    2    0  503 -0.23152057805E+03 -0.29543999313E+01  0.48742995224E+03  0.53962808014E+03  0.00000000000E+00 0. -1.
<mgrwt>
<rscale>  4 0.30201319E+03</rscale>
<asrwt>0</asrwt>
<pdfrwt beam="1">  1       21 0.12416671E+00 0.30201319E+03</pdfrwt>
<pdfrwt beam="2">  1       21 0.33071412E-01 0.30201319E+03</pdfrwt>
<totfact> 0.39646438E+03</totfact>
</mgrwt>
</event>
<event>
 5    0  0.1972558E-002  0.3018082E+03  0.7546771E-02  0.1084340E+00
         21   -1    0    0  501  502  0.00000000000E+00  0.00000000000E+00  0.55315009400E+03  0.55315009400E+03  0.00000000000E+00 0. -1.
         21   -1    0    0  502  503 -0.00000000000E+00 -0.00000000000E+00 -0.50882188349E+03  0.50882188349E+03  0.00000000000E+00 0.  1.
         25    1    1    2    0    0 -0.18364979348E+03 -0.99183088800E+02 -0.11521323368E+03  0.26919067771E+03  0.12500000000E+03 0.  0.
          4    1    1    2  501    0  0.32407125441E+03  0.19578215561E+03 -0.17516658172E+03  0.41717641561E+03  0.00000000000E+00 0.  1.
         -4    1    1    2    0  503 -0.14042146093E+03 -0.96599066809E+02  0.33470802592E+03  0.37560488417E+03  0.00000000000E+00 0. -1.
<mgrwt>
<rscale>  4 0.30180820E+03</rscale>
<asrwt>0</asrwt>
<pdfrwt beam="1">  1       21 0.85100014E-01 0.30180820E+03</pdfrwt>
<pdfrwt beam="2">  1       21 0.78280290E-01 0.30180820E+03</pdfrwt>
<totfact> 0.15901136E+03</totfact>
</mgrwt>
</event>
<event>
 5    0  0.1972558E-002  0.2441312E+03  0.7546771E-02  0.1117071E+00
         21   -1    0    0  503  502  0.00000000000E+00  0.00000000000E+00  0.11679214349E+04  0.11679214349E+04  0.00000000000E+00 0.  1.
         21   -1    0    0  501  503 -0.00000000000E+00 -0.00000000000E+00 -0.12915701805E+03  0.12915701805E+03  0.00000000000E+00 0. -1.
         25    1    1    2    0    0  0.83937544984E+02  0.19160909341E+03  0.27458106543E+02  0.24523153090E+03  0.12500000000E+03 0.  0.
          4    1    1    2  501    0 -0.18792156176E+02  0.10885909889E+02  0.46621732719E+03  0.46672287746E+03  0.00000000000E+00 0. -1.
         -4    1    1    2    0  502 -0.65145388808E+02 -0.20249500330E+03  0.54508898315E+03  0.58512404462E+03  0.00000000000E+00 0.  1.
<mgrwt>
<rscale>  4 0.24413120E+03</rscale>
<asrwt>0</asrwt>
<pdfrwt beam="1">  1       21 0.17968021E+00 0.24413120E+03</pdfrwt>
<pdfrwt beam="2">  1       21 0.19870311E-01 0.24413120E+03</pdfrwt>
<totfact> 0.40943746E+03</totfact>
</mgrwt>
</event>
<event>
 5    0  0.1972558E-002  0.4097093E+03  0.7546771E-02  0.1040469E+00
         21   -1    0    0  501  502  0.00000000000E+00  0.00000000000E+00  0.86136812328E+03  0.86136812328E+03  0.00000000000E+00 0. -1.
         21   -1    0    0  502  503 -0.00000000000E+00 -0.00000000000E+00 -0.62665532394E+03  0.62665532394E+03  0.00000000000E+00 0.  1.
         25    1    1    2    0    0 -0.39504105892E+03  0.12233583857E+02 -0.39760300618E+03  0.57438684641E+03  0.12500000000E+03 0.  0.
          3    1    1    2  501    0  0.37605594781E+03  0.80264729726E+01  0.11183400897E+03  0.39241476236E+03  0.00000000000E+00 0.  1.
         -3    1    1    2    0  503  0.18985111107E+02 -0.20260056830E+02  0.52048179654E+03  0.52122183845E+03  0.00000000000E+00 0. -1.
<mgrwt>
<rscale>  4 0.40970928E+03</rscale>
<asrwt>0</asrwt>
<pdfrwt beam="1">  1       21 0.13251817E+00 0.40970928E+03</pdfrwt>
<pdfrwt beam="2">  1       21 0.96408512E-01 0.40970928E+03</pdfrwt>
<totfact> 0.31062143E+02</totfact>
</mgrwt>
</event>
<event>
 5    0  0.1972558E-002  0.2631650E+03  0.7546771E-02  0.1105256E+00
         21   -1    0    0  501  502  0.00000000000E+00  0.00000000000E+00  0.64006320315E+03  0.64006320315E+03  0.00000000000E+00 0.  1.
         21   -1    0    0  502  503 -0.00000000000E+00 -0.00000000000E+00 -0.66643410192E+03  0.66643410192E+03  0.00000000000E+00 0. -1.
         25    1    1    2    0    0  0.11407284154E+03 -0.21684967441E+03 -0.30229122503E+03  0.40870696006E+03  0.12500000000E+03 0.  0.
          2    1    1    2  501    0 -0.24858060325E+02  0.13755153001E+02  0.54687617829E+03  0.54761362454E+03  0.00000000000E+00 0.  1.
         -2    1    1    2    0  503 -0.89214781220E+02  0.20309452141E+03 -0.27095585203E+03  0.35017672047E+03  0.00000000000E+00 0. -1.
<mgrwt>
<rscale>  4 0.26316501E+03</rscale>
<asrwt>0</asrwt>
<pdfrwt beam="1">  1       21 0.98471262E-01 0.26316501E+03</pdfrwt>
<pdfrwt beam="2">  1       21 0.10252832E+00 0.26316501E+03</pdfrwt>
<totfact> 0.61665213E+02</totfact>
</mgrwt>
</event>
<event>
 5    0  0.1972558E-002  0.2385847E+03  0.7546771E-02  0.1120739E+00
         21   -1    0    0  501  502  0.00000000000E+00  0.00000000000E+00  0.26381961693E+03  0.26381961693E+03  0.00000000000E+00 0.  1.
         21   -1    0    0  502  503 -0.00000000000E+00 -0.00000000000E+00 -0.51082972891E+03  0.51082972891E+03  0.00000000000E+00 0. -1.
         25    1    1    2    0    0  0.16631664017E+03 -0.11866906583E+03 -0.36980992881E+03  0.44059954088E+03  0.12500000000E+03 0.  0.
          3    1    1    2  501    0 -0.12634944126E+03  0.16332004296E+03  0.10492982828E+02  0.20675521862E+03  0.00000000000E+00 0. -1.
         -3    1    1    2    0  503 -0.39967198911E+02 -0.44650977133E+02  0.11230683400E+03  0.12729458634E+03  0.00000000000E+00 0.  1.
<mgrwt>
<rscale>  4 0.23858465E+03</rscale>
<asrwt>0</asrwt>
<pdfrwt beam="1">  1       21 0.40587634E-01 0.23858465E+03</pdfrwt>
<pdfrwt beam="2">  1       21 0.78589188E-01 0.23858465E+03</pdfrwt>
<totfact> 0.81203414E+03</totfact>
</mgrwt>
</event>
<event>
 5    0  0.1972558E-002  0.2749860E+03  0.7546771E-02  0.1098459E+00
         21   -1    0    0  503  502  0.00000000000E+00  0.00000000000E+00  0.24630418897E+03  0.24630418897E+03  0.00000000000E+00 0.  1.
         21   -1    0    0  501  503 -0.00000000000E+00 -0.00000000000E+00 -0.32610674919E+03  0.32610674919E+03  0.00000000000E+00 0.  1.
         25    1    1    2    0    0 -0.24440386202E+03  0.16094524150E+02 -0.14337103700E+03  0.31011697104E+03  0.12500000000E+03 0.  0.
          3    1    1    2  501    0  0.34834815308E+02 -0.27043991105E+02  0.17475982514E+02  0.47436818793E+02  0.00000000000E+00 0. -1.
         -3    1    1    2    0  502  0.20956904671E+03  0.10949466955E+02  0.46092494259E+02  0.21485714834E+03  0.00000000000E+00 0.  1.
<mgrwt>
<rscale>  4 0.27498597E+03</rscale>
<asrwt>0</asrwt>
<pdfrwt beam="1">  1       21 0.37892952E-01 0.27498597E+03</pdfrwt>
<pdfrwt beam="2">  1       21 0.50170269E-01 0.27498597E+03</pdfrwt>
<totfact> 0.24393370E+04</totfact>
</mgrwt>
</event>
<event>
 5    0  0.1972558E-002  0.4625389E+03  0.7546771E-02  0.1024047E+00
         21   -1    0    0  501  502  0.00000000000E+00  0.00000000000E+00  0.23597302380E+03  0.23597302380E+03  0.00000000000E+00 0. -1.
         21   -1    0    0  502  503 -0.00000000000E+00 -0.00000000000E+00 -0.15821220588E+04  0.15821220588E+04  0.00000000000E+00 0.  1.
         25    1    1    2    0    0  0.48395656198E+03 -0.30770276105E+02 -0.89825029940E+03  0.10284159490E+04  0.12500000000E+03 0.  0.
          3    1    1    2  501    0 -0.10025887971E+03 -0.11356996163E+03  0.35761336876E+02  0.15565619923E+03  0.00000000000E+00 0. -1.
         -3    1    1    2    0  503 -0.38369768228E+03  0.14434023773E+03 -0.48366007249E+03  0.63402293439E+03  0.00000000000E+00 0.  1.
<mgrwt>
<rscale>  4 0.46253890E+03</rscale>
<asrwt>0</asrwt>
<pdfrwt beam="1">  1       21 0.36303543E-01 0.46253890E+03</pdfrwt>
<pdfrwt beam="2">  1       21 0.24340339E+00 0.46253890E+03</pdfrwt>
<totfact> 0.42827818E+02</totfact>
</mgrwt>
</event>
<event>
 5    0  0.1972558E-002  0.4985360E+03  0.7546771E-02  0.1014162E+00
         21   -1    0    0  501  502  0.00000000000E+00  0.00000000000E+00  0.77402464790E+03  0.77402464790E+03  0.00000000000E+00 0.  1.
         21   -1    0    0  502  503 -0.00000000000E+00 -0.00000000000E+00 -0.15589385891E+04  0.15589385891E+04  0.00000000000E+00 0.  1.
         25    1    1    2    0    0 -0.29345004491E+03 -0.40613781780E+03 -0.13996383415E+04  0.14918690770E+04  0.12500000000E+03 0.  0.
          2    1    1    2  501    0  0.57460870928E+02  0.13919042425E+03  0.39440943900E+03  0.42217831714E+03  0.00000000000E+00 0.  1.
         -2    1    1    2    0  503  0.23598917398E+03  0.26694739355E+03  0.22031496134E+03  0.41891584280E+03  0.00000000000E+00 0. -1.
<mgrwt>
<rscale>  4 0.49853599E+03</rscale>
<asrwt>0</asrwt>
<pdfrwt beam="1">  1       21 0.11908072E+00 0.49853599E+03</pdfrwt>
<pdfrwt beam="2">  1       21 0.23983671E+00 0.49853599E+03</pdfrwt>
<totfact> 0.30556497E+01</totfact>
</mgrwt>
</event>
<event>
 5    0  0.1972558E-002  0.2230404E+03  0.7546771E-02  0.1131636E+00
         21   -1    0    0  501  502  0.00000000000E+00  0.00000000000E+00  0.16310120572E+03  0.16310120572E+03  0.00000000000E+00 0. -1.
         21   -1    0    0  502  503 -0.00000000000E+00 -0.00000000000E+00 -0.61496631278E+03  0.61496631278E+03  0.00000000000E+00 0.  1.
         25    1    1    2    0    0 -0.15499145016E+03 -0.17457934095E+03 -0.36787771623E+03  0.45327619616E+03  0.12500000000E+03 0.  0.
          2    1    1    2  501    0  0.10856080390E+01  0.85825515830E+02 -0.11596379012E+03  0.14427334588E+03  0.00000000000E+00 0.  1.
         -2    1    1    2    0  503  0.15390584212E+03  0.88753825124E+02  0.31976399290E+02  0.18051797646E+03  0.00000000000E+00 0. -1.
<mgrwt>
<rscale>  4 0.22304039E+03</rscale>
<asrwt>0</asrwt>
<pdfrwt beam="1">  1       21 0.25092493E-01 0.22304039E+03</pdfrwt>
<pdfrwt beam="2">  1       21 0.94610204E-01 0.22304039E+03</pdfrwt>
<totfact> 0.13797376E+04</totfact>
</mgrwt>
</event>
<event>
 5    0  0.1972558E-002  0.3298576E+03  0.7546771E-02  0.1071200E+00
         21   -1    0    0  501  502  0.00000000000E+00  0.00000000000E+00  0.19498258894E+03  0.19498258894E+03  0.00000000000E+00 0.  1.
         21   -1    0    0  502  503 -0.00000000000E+00 -0.00000000000E+00 -0.66709155145E+03  0.66709155145E+03  0.00000000000E+00 0.  1.
         25    1    1    2    0    0  0.18877975027E+03 -0.24746661443E+03 -0.40602963609E+03  0.52665224271E+03  0.12500000000E+03 0.  0.
          2    1    1    2  501    0 -0.15639260445E+03  0.24956880543E+03 -0.70012255122E+02  0.30272917143E+03  0.00000000000E+00 0.  1.
         -2    1    1    2    0  503 -0.32387145818E+02 -0.21021909971E+01  0.39329287101E+01  0.32692726247E+02  0.00000000000E+00 0. -1.
<mgrwt>
<rscale>  4 0.32985763E+03</rscale>
<asrwt>0</asrwt>
<pdfrwt beam="1">  1       21 0.29997321E-01 0.32985763E+03</pdfrwt>
<pdfrwt beam="2">  1       21 0.10262947E+00 0.32985763E+03</pdfrwt>
<totfact> 0.76041101E+03</totfact>
</mgrwt>
</event>
<event>
 5    0  0.1972558E-002  0.3126618E+03  0.7546771E-02  0.1079077E+00
         21   -1    0    0  501  502  0.00000000000E+00  0.00000000000E+00  0.23725506847E+03  0.23725506847E+03  0.00000000000E+00 0. -1.
         21   -1    0    0  502  503 -0.00000000000E+00 -0.00000000000E+00 -0.10537682445E+04  0.10537682445E+04  0.00000000000E+00 0.  1.
         25    1    1    2    0    0 -0.23193011136E+03 -0.21991055596E+03 -0.77448449824E+03  0.84711478986E+03  0.12500000000E+03 0.  0.
          4    1    1    2  501    0  0.73552638901E+02  0.22891096254E+03 -0.11821703270E+03  0.26792813641E+03  0.00000000000E+00 0.  1.
         -4    1    1    2    0  503  0.15837747246E+03 -0.90004065777E+01  0.76188354870E+02  0.17598038675E+03  0.00000000000E+00 0. -1.
<mgrwt>
<rscale>  4 0.31266181E+03</rscale>
<asrwt>0</asrwt>
<pdfrwt beam="1">  1       21 0.36500780E-01 0.31266181E+03</pdfrwt>
<pdfrwt beam="2">  1       21 0.16211819E+00 0.31266181E+03</pdfrwt>
<totfact> 0.15999342E+03</totfact>
</mgrwt>
</event>
<event>
 5    0  0.1972558E-002  0.2462036E+03  0.7546771E-02  0.1115728E+00
         21   -1    0    0  501  502  0.00000000000E+00  0.00000000000E+00  0.10230332607E+04  0.10230332607E+04  0.00000000000E+00 0.  1.
         21   -1    0    0  502  503 -0.00000000000E+00 -0.00000000000E+00 -0.18871527409E+03  0.18871527409E+03  0.00000000000E+00 0.  1.
         25    1    1    2    0    0 -0.10767462506E+03  0.20607442510E+03 -0.54507000379E+02  0.26954870924E+03  0.12500000000E+03 0.  0.
          1    1    1    2  501    0  0.88819663154E+02 -0.13563128716E+03  0.24206735825E+03  0.29134409991E+03  0.00000000000E+00 0.  1.
         -1    1    1    2    0  503  0.18854961906E+02 -0.70443137940E+02  0.64675762871E+03  0.65085572562E+03  0.00000000000E+00 0. -1.
<mgrwt>
<rscale>  4 0.24620364E+03</rscale>
<asrwt>0</asrwt>
<pdfrwt beam="1">  1       21 0.15738973E+00 0.24620364E+03</pdfrwt>
<pdfrwt beam="2">  1       21 0.29033120E-01 0.24620364E+03</pdfrwt>
<totfact> 0.28575274E+03</totfact>
</mgrwt>
</event>
<event>
 5    0  0.1972558E-002  0.2666217E+03  0.7546771E-02  0.1103229E+00
         21   -1    0    0  501  502  0.00000000000E+00  0.00000000000E+00  0.94766297228E+03  0.94766297228E+03  0.00000000000E+00 0.  1.
         21   -1    0    0  502  503 -0.00000000000E+00 -0.00000000000E+00 -0.30608298052E+03  0.30608298052E+03  0.00000000000E+00 0.  1.
         25    1    1    2    0    0  0.78585328508E+02 -0.22571619313E+03 -0.21923477152E+03  0.34758069386E+03  0.12500000000E+03 0.  0.
          4    1    1    2  501    0 -0.24454607390E+01  0.31413759203E+02  0.38881001146E+03  0.39008464409E+03  0.00000000000E+00 0. -1.
         -4    1    1    2    0  503 -0.76139867768E+02  0.19430243393E+03  0.47200475181E+03  0.51608061485E+03  0.00000000000E+00 0.  1.
<mgrwt>
<rscale>  4 0.26662166E+03</rscale>
<asrwt>0</asrwt>
<pdfrwt beam="1">  1       21 0.14579430E+00 0.26662166E+03</pdfrwt>
<pdfrwt beam="2">  1       21 0.47089690E-01 0.26662166E+03</pdfrwt>
<totfact> 0.13034881E+03</totfact>
</mgrwt>
</event>
<event>
 5    0  0.1972558E-002  0.3128442E+03  0.7546771E-02  0.1078991E+00
         21   -1    0    0  501  502  0.00000000000E+00  0.00000000000E+00  0.44647095892E+03  0.44647095892E+03  0.00000000000E+00 0. -1.
         21   -1    0    0  502  503 -0.00000000000E+00 -0.00000000000E+00 -0.34091211416E+03  0.34091211416E+03  0.00000000000E+00 0. -1.
         25    1    1    2    0    0 -0.69931061625E+02  0.29265835354E+03 -0.13492020037E+03  0.35265808617E+03  0.12500000000E+03 0.  0.
          3    1    1    2  501    0  0.36422766698E+02 -0.26102044454E+03  0.91819467605E+02  0.27908619642E+03  0.00000000000E+00 0. -1.
         -3    1    1    2    0  503  0.33508294927E+02 -0.31637909003E+02  0.14865957752E+03  0.15563879048E+03  0.00000000000E+00 0.  1.
<mgrwt>
<rscale>  4 0.31284416E+03</rscale>
<asrwt>0</asrwt>
<pdfrwt beam="1">  1       21 0.68687840E-01 0.31284416E+03</pdfrwt>
<pdfrwt beam="2">  1       21 0.52448018E-01 0.31284416E+03</pdfrwt>
<totfact> 0.61993098E+03</totfact>
</mgrwt>
</event>
<event>
 5    0  0.1972558E-002  0.2358985E+03  0.7546771E-02  0.1122556E+00
         21   -1    0    0  503  502  0.00000000000E+00  0.00000000000E+00  0.13031690883E+03  0.13031690883E+03  0.00000000000E+00 0. -1.
         21   -1    0    0  501  503 -0.00000000000E+00 -0.00000000000E+00 -0.10934515355E+04  0.10934515355E+04  0.00000000000E+00 0. -1.
         25    1    1    2    0    0 -0.18111813950E+03  0.18788168090E+03 -0.81810019733E+03  0.86776508304E+03  0.12500000000E+03 0.  0.
          4    1    1    2  501    0  0.10675543379E+03 -0.67793684673E+02  0.31098314863E+02  0.13022984110E+03  0.00000000000E+00 0. -1.
         -4    1    1    2    0  502  0.74362705712E+02 -0.12008799622E+03 -0.17613274421E+03  0.22577352019E+03  0.00000000000E+00 0.  1.
<mgrwt>
<rscale>  4 0.23589850E+03</rscale>
<asrwt>0</asrwt>
<pdfrwt beam="1">  1       21 0.20048756E-01 0.23589850E+03</pdfrwt>
<pdfrwt beam="2">  1       21 0.16822331E+00 0.23589850E+03</pdfrwt>
<totfact> 0.48728610E+03</totfact>
</mgrwt>
</event>
<event>
 5    0  0.1972558E-002  0.5716793E+03  0.7546771E-02  0.9965969E-01
         21   -1    0    0  501  502  0.00000000000E+00  0.00000000000E+00  0.39219440097E+03  0.39219440097E+03  0.00000000000E+00 0.  1.
         21   -1    0    0  502  503 -0.00000000000E+00 -0.00000000000E+00 -0.13754805101E+04  0.13754805101E+04  0.00000000000E+00 0. -1.
         25    1    1    2    0    0 -0.19216398353E+03 -0.61579362945E+03 -0.63467269885E+03  0.91354432039E+03  0.12500000000E+03 0.  0.
          3    1    1    2  501    0  0.26155308554E+02  0.49242728474E+03 -0.40681285290E+03  0.63926944883E+03  0.00000000000E+00 0.  1.
         -3    1    1    2    0  503  0.16600867497E+03  0.12336634471E+03  0.58199442599E+02  0.21486114188E+03  0.00000000000E+00 0. -1.
<mgrwt>
<rscale>  4 0.57167933E+03</rscale>
<asrwt>0</asrwt>
<pdfrwt beam="1">  1       21 0.60337599E-01 0.57167933E+03</pdfrwt>
<pdfrwt beam="2">  1       21 0.21161239E+00 0.57167933E+03</pdfrwt>
<totfact> 0.22155396E+02</totfact>
</mgrwt>
</event>
<event>
 5    0  0.1972558E-002  0.2508064E+03  0.7546771E-02  0.1112796E+00
         21   -1    0    0  501  502  0.00000000000E+00  0.00000000000E+00  0.20210791364E+03  0.20210791364E+03  0.00000000000E+00 0.  1.
         21   -1    0    0  502  503 -0.00000000000E+00 -0.00000000000E+00 -0.75096652042E+03  0.75096652042E+03  0.00000000000E+00 0. -1.
         25    1    1    2    0    0  0.18177257666E+03  0.12347880798E+03 -0.45777688574E+03  0.52294642437E+03  0.12500000000E+03 0.  0.
          4    1    1    2  501    0 -0.18885852220E+03 -0.10254559007E+03 -0.21515804316E+03  0.30409887042E+03  0.00000000000E+00 0. -1.
         -4    1    1    2    0  503  0.70859455409E+01 -0.20933217910E+02  0.12407632212E+03  0.12602913927E+03  0.00000000000E+00 0.  1.
<mgrwt>
<rscale>  4 0.25080645E+03</rscale>
<asrwt>0</asrwt>
<pdfrwt beam="1">  1       21 0.31093526E-01 0.25080645E+03</pdfrwt>
<pdfrwt beam="2">  1       21 0.11553331E+00 0.25080645E+03</pdfrwt>
<totfact> 0.55265866E+03</totfact>
</mgrwt>
</event>
<event>
 5    0  0.1972558E-002  0.2344237E+03  0.7546771E-02  0.1123564E+00
         21   -1    0    0  501  502  0.00000000000E+00  0.00000000000E+00  0.52207494197E+03  0.52207494197E+03  0.00000000000E+00 0. -1.
         21   -1    0    0  502  503 -0.00000000000E+00 -0.00000000000E+00 -0.21194847152E+03  0.21194847152E+03  0.00000000000E+00 0. -1.
         25    1    1    2    0    0 -0.30624044349E+02 -0.22884279198E+03 -0.50947403462E+02  0.26744624405E+03  0.12500000000E+03 0.  0.
          1    1    1    2  501    0 -0.14327650648E+01  0.19373174786E+03  0.37051092083E+03  0.41810571079E+03  0.00000000000E+00 0. -1.
         -1    1    1    2    0  503  0.32056809414E+02  0.35111044123E+02 -0.94370469190E+01  0.48471458651E+02  0.00000000000E+00 0.  1.
<mgrwt>
<rscale>  4 0.23442372E+03</rscale>
<asrwt>0</asrwt>
<pdfrwt beam="1">  1       21 0.80319222E-01 0.23442372E+03</pdfrwt>
<pdfrwt beam="2">  1       21 0.32607457E-01 0.23442372E+03</pdfrwt>
<totfact> 0.12016725E+04</totfact>
</mgrwt>
</event>
<event>
 5    0  0.1972558E-002  0.2842937E+03  0.7546771E-02  0.1093367E+00
         21   -1    0    0  501  502  0.00000000000E+00  0.00000000000E+00  0.82551315445E+03  0.82551315445E+03  0.00000000000E+00 0. -1.
         21   -1    0    0  502  503 -0.00000000000E+00 -0.00000000000E+00 -0.17807001435E+03  0.17807001435E+03  0.00000000000E+00 0. -1.
         25    1    1    2    0    0  0.72018352742E+02  0.24141183301E+03  0.26608922800E+03  0.38716248980E+03  0.12500000000E+03 0.  0.
          3    1    1    2  501    0  0.25837381778E+02 -0.26193633353E+03  0.46915430461E+02  0.26735607480E+03  0.00000000000E+00 0. -1.
         -3    1    1    2    0  503 -0.97855734519E+02  0.20524500513E+02  0.33443848164E+03  0.34906460420E+03  0.00000000000E+00 0.  1.
<mgrwt>
<rscale>  4 0.28429373E+03</rscale>
<asrwt>0</asrwt>
<pdfrwt beam="1">  1       21 0.12700202E+00 0.28429373E+03</pdfrwt>
<pdfrwt beam="2">  1       21 0.27395387E-01 0.28429373E+03</pdfrwt>
<totfact> 0.54767210E+03</totfact>
</mgrwt>
</event>
<event>
 5    0  0.1972558E-002  0.2481973E+03  0.7546771E-02  0.1114449E+00
         21   -1    0    0  501  502  0.00000000000E+00  0.00000000000E+00  0.54669093878E+03  0.54669093878E+03  0.00000000000E+00 0. -1.
         21   -1    0    0  502  503 -0.00000000000E+00 -0.00000000000E+00 -0.30800451186E+03  0.30800451186E+03  0.00000000000E+00 0.  1.
         25    1    1    2    0    0 -0.20444013194E+03  0.10456442240E+02  0.59147957693E+02  0.24703964385E+03  0.12500000000E+03 0.  0.
          4    1    1    2  501    0  0.21348740403E+03 -0.47882409004E+02 -0.15676467502E+03  0.26915564290E+03  0.00000000000E+00 0.  1.
         -4    1    1    2    0  503 -0.90472720878E+01  0.37425966764E+02  0.33630314425E+03  0.33850016389E+03  0.00000000000E+00 0. -1.
<mgrwt>
<rscale>  4 0.24819731E+03</rscale>
<asrwt>0</asrwt>
<pdfrwt beam="1">  1       21 0.84106298E-01 0.24819731E+03</pdfrwt>
<pdfrwt beam="2">  1       21 0.47385310E-01 0.24819731E+03</pdfrwt>
<totfact> 0.50278242E+03</totfact>
</mgrwt>
</event>
<event>
 5    0  0.1972558E-002  0.4449063E+03  0.7546771E-02  0.1029252E+00
         21   -1    0    0  501  502  0.00000000000E+00  0.00000000000E+00  0.74919307070E+03  0.74919307070E+03  0.00000000000E+00 0. -1.
         21   -1    0    0  502  503 -0.00000000000E+00 -0.00000000000E+00 -0.53848296078E+03  0.53848296078E+03  0.00000000000E+00 0. -1.
         25    1    1    2    0    0 -0.12453623315E+03  0.40049090866E+03 -0.31820039645E+03  0.54109031925E+03  0.12500000000E+03 0.  0.
          1    1    1    2  501    0  0.20257789793E+02  0.51642895710E+02  0.10179878605E+03  0.11593256473E+03  0.00000000000E+00 0.  1.
         -1    1    1    2    0  503  0.10427844336E+03 -0.45213380437E+03  0.42711172032E+03  0.63065314749E+03  0.00000000000E+00 0. -1.
<mgrwt>
<rscale>  4 0.44490630E+03</rscale>
<asrwt>0</asrwt>
<pdfrwt beam="1">  1       21 0.11526047E+00 0.44490630E+03</pdfrwt>
<pdfrwt beam="2">  1       21 0.82843532E-01 0.44490630E+03</pdfrwt>
<totfact> 0.62415027E+02</totfact>
</mgrwt>
</event>
<event>
 5    0  0.1972558E-002  0.2395214E+03  0.7546771E-02  0.1120112E+00
         21   -1    0    0  503  502  0.00000000000E+00  0.00000000000E+00  0.74881250103E+03  0.74881250103E+03  0.00000000000E+00 0.  1.
         21   -1    0    0  501  503 -0.00000000000E+00 -0.00000000000E+00 -0.32441848129E+03  0.32441848129E+03  0.00000000000E+00 0. -1.
         25    1    1    2    0    0  0.20527223646E+03 -0.34949812297E+02 -0.16196593132E+03  0.29191804218E+03  0.12500000000E+03 0.  0.
          1    1    1    2  501    0 -0.74866317061E+01  0.90197542751E+02 -0.56334207938E+02  0.10660764211E+03  0.00000000000E+00 0. -1.
         -1    1    1    2    0  502 -0.19778560476E+03 -0.55247730454E+02  0.64269415901E+03  0.67470529803E+03  0.00000000000E+00 0.  1.
<mgrwt>
<rscale>  4 0.23952144E+03</rscale>
<asrwt>0</asrwt>
<pdfrwt beam="1">  1       21 0.11520192E+00 0.23952144E+03</pdfrwt>
<pdfrwt beam="2">  1       21 0.49910536E-01 0.23952144E+03</pdfrwt>
<totfact> 0.21467442E+03</totfact>
</mgrwt>
</event>
<event>
 5    0  0.1972558E-002  0.2742625E+03  0.7546771E-02  0.1098865E+00
         21   -1    0    0  501  502  0.00000000000E+00  0.00000000000E+00  0.20711150712E+04  0.20711150712E+04  0.00000000000E+00 0. -1.
         21   -1    0    0  502  503 -0.00000000000E+00 -0.00000000000E+00 -0.43076955259E+02  0.43076955259E+02  0.00000000000E+00 0. -1.
         25    1    1    2    0    0 -0.34945327315E+02 -0.24475853180E+03  0.65194248283E+03  0.70836566525E+03  0.12500000000E+03 0.  0.
          3    1    1    2  501    0  0.54054048267E+02  0.23394129655E+03  0.97496477822E+03  0.10040949602E+04  0.00000000000E+00 0. -1.
         -3    1    1    2    0  503 -0.19108720951E+02  0.10817235251E+02  0.40113085485E+03  0.40173140095E+03  0.00000000000E+00 0.  1.
<mgrwt>
<rscale>  4 0.27426250E+03</rscale>
<asrwt>0</asrwt>
<pdfrwt beam="1">  1       21 0.31863301E+00 0.27426250E+03</pdfrwt>
<pdfrwt beam="2">  1       21 0.66272255E-02 0.27426250E+03</pdfrwt>
<totfact> 0.40751586E+03</totfact>
</mgrwt>
</event>
<event>
 5    0  0.1972558E-002  0.2602302E+03  0.7546771E-02  0.1107005E+00
         21   -1    0    0  501  502  0.00000000000E+00  0.00000000000E+00  0.10696108115E+04  0.10696108115E+04  0.00000000000E+00 0. -1.
         21   -1    0    0  502  503 -0.00000000000E+00 -0.00000000000E+00 -0.17158556804E+03  0.17158556804E+03  0.00000000000E+00 0.  1.
         25    1    1    2    0    0 -0.20524739627E+03  0.97847806607E+02 -0.27442112468E+02  0.26091906115E+03  0.12500000000E+03 0.  0.
          4    1    1    2  501    0  0.24005447734E+03 -0.38112342083E+02  0.81011989415E+03  0.84579722487E+03  0.00000000000E+00 0. -1.
         -4    1    1    2    0  503 -0.34807081063E+02 -0.59735464524E+02  0.11534746179E+03  0.13448009353E+03  0.00000000000E+00 0.  1.
<mgrwt>
<rscale>  4 0.26023016E+03</rscale>
<asrwt>0</asrwt>
<pdfrwt beam="1">  1       21 0.16455551E+00 0.26023016E+03</pdfrwt>
<pdfrwt beam="2">  1       21 0.26397780E-01 0.26023016E+03</pdfrwt>
<totfact> 0.30138649E+03</totfact>
</mgrwt>
</event>
<event>
 5    0  0.1972558E-002  0.2783144E+03  0.7546771E-02  0.1096613E+00
         21   -1    0    0  501  502  0.00000000000E+00  0.00000000000E+00  0.45120722406E+03  0.45120722406E+03  0.00000000000E+00 0.  1.
         21   -1    0    0  502  503 -0.00000000000E+00 -0.00000000000E+00 -0.45634781369E+03  0.45634781369E+03  0.00000000000E+00 0.  1.
         25    1    1    2    0    0 -0.12398161559E+03  0.26452646314E+03 -0.27989969970E+03  0.42345546707E+03  0.12500000000E+03 0.  0.
          1    1    1    2  501    0  0.31370177648E+02 -0.18998755985E+03  0.87782510962E+01  0.19276000269E+03  0.00000000000E+00 0. -1.
         -1    1    1    2    0  503  0.92611437938E+02 -0.74538903288E+02  0.26598085896E+03  0.29133956799E+03  0.00000000000E+00 0.  1.
<mgrwt>
<rscale>  4 0.27831435E+03</rscale>
<asrwt>0</asrwt>
<pdfrwt beam="1">  1       21 0.69416496E-01 0.27831435E+03</pdfrwt>
<pdfrwt beam="2">  1       21 0.70207356E-01 0.27831435E+03</pdfrwt>
<totfact> 0.32699872E+03</totfact>
</mgrwt>
</event>
<event>
 5    0  0.1972558E-002  0.2352947E+03  0.7546771E-02  0.1122968E+00
         21   -1    0    0  501  502  0.00000000000E+00  0.00000000000E+00  0.11848337369E+04  0.11848337369E+04  0.00000000000E+00 0. -1.
         21   -1    0    0  502  503 -0.00000000000E+00 -0.00000000000E+00 -0.91272134203E+02  0.91272134203E+02  0.00000000000E+00 0. -1.
         25    1    1    2    0    0  0.19774167494E+03 -0.70290882559E+02  0.94791715674E+03  0.97888432117E+03  0.12500000000E+03 0.  0.
          2    1    1    2  501    0 -0.38983064225E+02  0.58122064354E+02  0.11567966792E+03  0.13520221607E+03  0.00000000000E+00 0.  1.
         -2    1    1    2    0  503 -0.15875861072E+03  0.12168818205E+02  0.29964778001E+02  0.16201933383E+03  0.00000000000E+00 0. -1.
<mgrwt>
<rscale>  4 0.23529468E+03</rscale>
<asrwt>0</asrwt>
<pdfrwt beam="1">  1       21 0.18228210E+00 0.23529468E+03</pdfrwt>
<pdfrwt beam="2">  1       21 0.14041868E-01 0.23529468E+03</pdfrwt>
<totfact> 0.75096526E+03</totfact>
</mgrwt>
</event>
<event>
 5    0  0.1972558E-002  0.2340276E+03  0.7546771E-02  0.1123837E+00
         21   -1    0    0  501  502  0.00000000000E+00  0.00000000000E+00  0.10149550112E+04  0.10149550112E+04  0.00000000000E+00 0. -1.
         21   -1    0    0  502  503 -0.00000000000E+00 -0.00000000000E+00 -0.31802499769E+03  0.31802499769E+03  0.00000000000E+00 0.  1.
         25    1    1    2    0    0 -0.54425323696E+02 -0.23677987878E+03 -0.15624384557E+03  0.31474428690E+03  0.12500000000E+03 0.  0.
          4    1    1    2  501    0  0.13967546209E+02  0.86931580305E+02  0.85842938385E+03  0.86293290530E+03  0.00000000000E+00 0. -1.
         -4    1    1    2    0  503  0.40457777487E+02  0.14984829848E+03 -0.52555248172E+01  0.15530281664E+03  0.00000000000E+00 0.  1.
<mgrwt>
<rscale>  4 0.23402764E+03</rscale>
<asrwt>0</asrwt>
<pdfrwt beam="1">  1       21 0.15614692E+00 0.23402764E+03</pdfrwt>
<pdfrwt beam="2">  1       21 0.48926923E-01 0.23402764E+03</pdfrwt>
<totfact> 0.10289182E+03</totfact>
</mgrwt>
</event>
<event>
 5    0  0.1972558E-002  0.2417031E+03  0.7546771E-02  0.1118663E+00
         21   -1    0    0  501  502  0.00000000000E+00  0.00000000000E+00  0.12638354088E+03  0.12638354088E+03  0.00000000000E+00 0.  1.
         21   -1    0    0  502  503 -0.00000000000E+00 -0.00000000000E+00 -0.47139726631E+03  0.47139726631E+03  0.00000000000E+00 0. -1.
         25    1    1    2    0    0  0.29888216620E+02 -0.21749857057E+03 -0.21827603081E+03  0.33386877560E+03  0.12500000000E+03 0.  0.
          1    1    1    2  501    0 -0.19214153512E+02  0.19905282844E+03 -0.85491953642E+02  0.21748583021E+03  0.00000000000E+00 0.  1.
         -1    1    1    2    0  503 -0.10674063108E+02  0.18445742133E+02 -0.41245740975E+02  0.46426201381E+02  0.00000000000E+00 0. -1.
<mgrwt>
<rscale>  4 0.24170308E+03</rscale>
<asrwt>0</asrwt>
<pdfrwt beam="1">  1       21 0.19443621E-01 0.24170308E+03</pdfrwt>
<pdfrwt beam="2">  1       21 0.72522658E-01 0.24170308E+03</pdfrwt>
<totfact> 0.40712180E+04</totfact>
</mgrwt>
</event>
<event>
 5    0  0.1972558E-002  0.2160107E+03  0.7546771E-02  0.1136893E+00
         21   -1    0    0  503  502  0.00000000000E+00  0.00000000000E+00  0.29731012508E+03  0.29731012508E+03  0.00000000000E+00 0. -1.
         21   -1    0    0  501  503 -0.00000000000E+00 -0.00000000000E+00 -0.23597030978E+03  0.23597030978E+03  0.00000000000E+00 0. -1.
         25    1    1    2    0    0 -0.13493573972E+03  0.17236946131E+03 -0.17565879691E+02  0.25269041370E+03  0.12500000000E+03 0.  0.
          1    1    1    2  501    0  0.53419445567E+02 -0.30376301884E+02 -0.44239704189E+02  0.75719933356E+02  0.00000000000E+00 0.  1.
         -1    1    1    2    0  502  0.81516294151E+02 -0.14199315943E+03  0.12314539918E+03  0.20487008780E+03  0.00000000000E+00 0. -1.
<mgrwt>
<rscale>  4 0.21601066E+03</rscale>
<asrwt>0</asrwt>
<pdfrwt beam="1">  1       21 0.45740019E-01 0.21601066E+03</pdfrwt>
<pdfrwt beam="2">  1       21 0.36303125E-01 0.21601066E+03</pdfrwt>
<totfact> 0.33121355E+04</totfact>
</mgrwt>
</event>
<event>
 5    0  0.1972558E-002  0.5190731E+03  0.7546771E-02  0.1008917E+00
         21   -1    0    0  501  502  0.00000000000E+00  0.00000000000E+00  0.20412376553E+04  0.20412376553E+04  0.00000000000E+00 0.  1.
         21   -1    0    0  502  503 -0.00000000000E+00 -0.00000000000E+00 -0.37057838326E+03  0.37057838326E+03  0.00000000000E+00 0.  1.
         25    1    1    2    0    0  0.38779063916E+03  0.34954508109E+03 -0.51147424106E+02  0.53926283251E+03  0.12500000000E+03 0.  0.
          2    1    1    2  501    0 -0.38852834102E+02 -0.61524373304E+02  0.11060420720E+04  0.11084330635E+04  0.00000000000E+00 0. -1.
         -2    1    1    2    0  503 -0.34893780506E+03 -0.28802070778E+03  0.61576462423E+03  0.76412014262E+03  0.00000000000E+00 0.  1.
<mgrwt>
<rscale>  4 0.51907313E+03</rscale>
<asrwt>0</asrwt>
<pdfrwt beam="1">  1       21 0.31403656E+00 0.51907313E+03</pdfrwt>
<pdfrwt beam="2">  1       21 0.57012060E-01 0.51907313E+03</pdfrwt>
<totfact> 0.59777734E+01</totfact>
</mgrwt>
</event>
<event>
 5    0  0.1972558E-002  0.2859906E+03  0.7546771E-02  0.1092461E+00
         21   -1    0    0  501  502  0.00000000000E+00  0.00000000000E+00  0.88998652534E+03  0.88998652534E+03  0.00000000000E+00 0. -1.
         21   -1    0    0  502  503 -0.00000000000E+00 -0.00000000000E+00 -0.18222846299E+03  0.18222846299E+03  0.00000000000E+00 0. -1.
         25    1    1    2    0    0 -0.83194359199E+02  0.23639109200E+03  0.19454870345E+02  0.28072324763E+03  0.12500000000E+03 0.  0.
          3    1    1    2  501    0  0.12662890491E+03 -0.24498076324E+03  0.32820955819E+03  0.42868632822E+03  0.00000000000E+00 0. -1.
         -3    1    1    2    0  503 -0.43434545715E+02  0.85896712428E+01  0.36009363381E+03  0.36280541248E+03  0.00000000000E+00 0.  1.
<mgrwt>
<rscale>  4 0.28599058E+03</rscale>
<asrwt>0</asrwt>
<pdfrwt beam="1">  1       21 0.13692100E+00 0.28599058E+03</pdfrwt>
<pdfrwt beam="2">  1       21 0.28035149E-01 0.28599058E+03</pdfrwt>
<totfact> 0.43128195E+03</totfact>
</mgrwt>
</event>
<event>
 5    0  0.1972558E-002  0.2464538E+03  0.7546771E-02  0.1115567E+00
         21   -1    0    0  503  502  0.00000000000E+00  0.00000000000E+00  0.30959922326E+03  0.30959922326E+03  0.00000000000E+00 0.  1.
         21   -1    0    0  501  503 -0.00000000000E+00 -0.00000000000E+00 -0.40230124164E+03  0.40230124164E+03  0.00000000000E+00 0. -1.
         25    1    1    2    0    0  0.11821459930E+03  0.17646462517E+03 -0.30417972425E+03  0.39149043420E+03  0.12500000000E+03 0.  0.
          3    1    1    2  501    0 -0.88380534562E+02 -0.35542208355E+02  0.67527982275E+02  0.11676641578E+03  0.00000000000E+00 0. -1.
         -3    1    1    2    0  502 -0.29834064743E+02 -0.14092241681E+03  0.14394972359E+03  0.20364361493E+03  0.00000000000E+00 0.  1.
<mgrwt>
<rscale>  4 0.24645376E+03</rscale>
<asrwt>0</asrwt>
<pdfrwt beam="1">  1       21 0.47630650E-01 0.24645376E+03</pdfrwt>
<pdfrwt beam="2">  1       21 0.61892499E-01 0.24645376E+03</pdfrwt>
<totfact> 0.98750070E+03</totfact>
</mgrwt>
</event>
<event>
 5    0  0.1972558E-002  0.2487315E+03  0.7546771E-02  0.1114109E+00
         21   -1    0    0  501  502  0.00000000000E+00  0.00000000000E+00  0.13218300907E+04  0.13218300907E+04  0.00000000000E+00 0.  1.
         21   -1    0    0  502  503 -0.00000000000E+00 -0.00000000000E+00 -0.22791312729E+03  0.22791312729E+03  0.00000000000E+00 0. -1.
         25    1    1    2    0    0  0.10145359930E+03  0.20148455925E+03 -0.13796862459E+03  0.29248795155E+03  0.12500000000E+03 0.  0.
          4    1    1    2  501    0 -0.41231617938E+02 -0.68473713056E+02  0.73581422168E+03  0.74014273254E+03  0.00000000000E+00 0.  1.
         -4    1    1    2    0  503 -0.60221981359E+02 -0.13301084620E+03  0.49607136630E+03  0.51711253389E+03  0.00000000000E+00 0. -1.
<mgrwt>
<rscale>  4 0.24873151E+03</rscale>
<asrwt>0</asrwt>
<pdfrwt beam="1">  1       21 0.20335847E+00 0.24873151E+03</pdfrwt>
<pdfrwt beam="2">  1       21 0.35063559E-01 0.24873151E+03</pdfrwt>
<totfact> 0.94660014E+02</totfact>
</mgrwt>
</event>
<event>
 5    0  0.1972558E-002  0.2056353E+03  0.7546771E-02  0.1145070E+00
         21   -1    0    0  501  502  0.00000000000E+00  0.00000000000E+00  0.15646166537E+04  0.15646166537E+04  0.00000000000E+00 0.  1.
         21   -1    0    0  502  503 -0.00000000000E+00 -0.00000000000E+00 -0.15583438730E+03  0.15583438730E+03  0.00000000000E+00 0. -1.
         25    1    1    2    0    0 -0.17338576605E+03  0.10372338154E+03 -0.16799811151E+02  0.23817723947E+03  0.12500000000E+03 0.  0.
          4    1    1    2  501    0  0.11616037342E+03 -0.28962047212E+02  0.10769702751E+03  0.16103006634E+03  0.00000000000E+00 0. -1.
         -4    1    1    2    0  503  0.57225392630E+02 -0.74761334325E+02  0.13178850500E+04  0.13212437352E+04  0.00000000000E+00 0.  1.
<mgrwt>
<rscale>  4 0.20563525E+03</rscale>
<asrwt>0</asrwt>
<pdfrwt beam="1">  1       21 0.24071024E+00 0.20563525E+03</pdfrwt>
<pdfrwt beam="2">  1       21 0.23974522E-01 0.20563525E+03</pdfrwt>
<totfact> 0.12192385E+03</totfact>
</mgrwt>
</event>
<event>
 5    0  0.1972558E-002  0.2810112E+03  0.7546771E-02  0.1095138E+00
         21   -1    0    0  501  502  0.00000000000E+00  0.00000000000E+00  0.13689764269E+04  0.13689764269E+04  0.00000000000E+00 0. -1.
         21   -1    0    0  502  503 -0.00000000000E+00 -0.00000000000E+00 -0.23736759329E+03  0.23736759329E+03  0.00000000000E+00 0. -1.
         25    1    1    2    0    0 -0.58904253444E+01 -0.24232678510E+03  0.60375820192E+02  0.27933350596E+03  0.12500000000E+03 0.  0.
          1    1    1    2  501    0  0.78567502697E+02 -0.11890419192E+02  0.10593664840E+04  0.10623424975E+04  0.00000000000E+00 0. -1.
         -1    1    1    2    0  503 -0.72677077353E+02  0.25421720430E+03  0.11866529353E+02  0.26466801668E+03  0.00000000000E+00 0.  1.
<mgrwt>
<rscale>  4 0.28101118E+03</rscale>
<asrwt>0</asrwt>
<pdfrwt beam="1">  1       21 0.21061175E+00 0.28101118E+03</pdfrwt>
<pdfrwt beam="2">  1       21 0.36518092E-01 0.28101118E+03</pdfrwt>
<totfact> 0.76269902E+02</totfact>
</mgrwt>
</event>
<event>
 5    0  0.1972558E-002  0.2514111E+03  0.7546771E-02  0.1112416E+00
         21   -1    0    0  501  502  0.00000000000E+00  0.00000000000E+00  0.21935179733E+04  0.21935179733E+04  0.00000000000E+00 0. -1.
         21   -1    0    0  502  503 -0.00000000000E+00 -0.00000000000E+00 -0.93929891569E+02  0.93929891569E+02  0.00000000000E+00 0.  1.
         25    1    1    2    0    0 -0.22856888952E+03  0.60483608036E+01  0.12607478252E+03  0.28948259138E+03  0.12500000000E+03 0.  0.
          3    1    1    2  501    0  0.14379643089E+03  0.84792640878E+02  0.14655282646E+04  0.14750051863E+04  0.00000000000E+00 0. -1.
         -3    1    1    2    0  503  0.84772458630E+02 -0.90841001682E+02  0.50798503465E+03  0.52296008716E+03  0.00000000000E+00 0.  1.
<mgrwt>
<rscale>  4 0.25141107E+03</rscale>
<asrwt>0</asrwt>
<pdfrwt beam="1">  1       21 0.33746426E+00 0.25141107E+03</pdfrwt>
<pdfrwt beam="2">  1       21 0.14450754E-01 0.25141107E+03</pdfrwt>
<totfact> 0.80691782E+02</totfact>
</mgrwt>
</event>
<event>
 5    0  0.1972558E-002  0.3196597E+03  0.7546771E-02  0.1075806E+00
         21   -1    0    0  501  502  0.00000000000E+00  0.00000000000E+00  0.33091598679E+03  0.33091598679E+03  0.00000000000E+00 0.  1.
         21   -1    0    0  502  503 -0.00000000000E+00 -0.00000000000E+00 -0.12630598772E+04  0.12630598772E+04  0.00000000000E+00 0.  1.
         25    1    1    2    0    0  0.25573585957E+03  0.14718282688E+03 -0.10304159841E+04  0.10790948590E+04  0.12500000000E+03 0.  0.
          2    1    1    2  501    0  0.19659340701E+02 -0.44836819475E+02  0.19850703513E+03  0.20445506365E+03  0.00000000000E+00 0.  1.
         -2    1    1    2    0  503 -0.27539520027E+03 -0.10234600741E+03 -0.10023494140E+03  0.31042594132E+03  0.00000000000E+00 0. -1.
<mgrwt>
<rscale>  4 0.31965967E+03</rscale>
<asrwt>0</asrwt>
<pdfrwt beam="1">  1       21 0.50910151E-01 0.31965967E+03</pdfrwt>
<pdfrwt beam="2">  1       21 0.19431691E+00 0.31965967E+03</pdfrwt>
<totfact> 0.47651482E+02</totfact>
</mgrwt>
</event>
<event>
 5    0  0.1972558E-002  0.2693555E+03  0.7546771E-02  0.1101649E+00
         21   -1    0    0  501  502  0.00000000000E+00  0.00000000000E+00  0.50275305997E+03  0.50275305997E+03  0.00000000000E+00 0.  1.
         21   -1    0    0  502  503 -0.00000000000E+00 -0.00000000000E+00 -0.58991949838E+03  0.58991949838E+03  0.00000000000E+00 0. -1.
         25    1    1    2    0    0 -0.18581687634E+02  0.26423337237E+03 -0.35828953666E+03  0.46277526540E+03  0.12500000000E+03 0.  0.
          1    1    1    2  501    0  0.17511736556E+01 -0.20807854640E+03 -0.11608539536E+03  0.23827624115E+03  0.00000000000E+00 0. -1.
         -1    1    1    2    0  503  0.16830513979E+02 -0.56154825965E+02  0.38720849362E+03  0.39162105179E+03  0.00000000000E+00 0.  1.
<mgrwt>
<rscale>  4 0.26935554E+03</rscale>
<asrwt>0</asrwt>
<pdfrwt beam="1">  1       21 0.77346625E-01 0.26935554E+03</pdfrwt>
<pdfrwt beam="2">  1       21 0.90756845E-01 0.26935554E+03</pdfrwt>
<totfact> 0.14361923E+03</totfact>
</mgrwt>
</event>
<event>
 5    0  0.1972558E-002  0.2698278E+03  0.7546771E-02  0.1101378E+00
         21   -1    0    0  501  502  0.00000000000E+00  0.00000000000E+00  0.15576604481E+03  0.15576604481E+03  0.00000000000E+00 0.  1.
         21   -1    0    0  502  503 -0.00000000000E+00 -0.00000000000E+00 -0.71193351633E+03  0.71193351633E+03  0.00000000000E+00 0.  1.
         25    1    1    2    0    0 -0.24488645056E+03 -0.18877029029E+02 -0.29565727560E+03  0.40418305322E+03  0.12500000000E+03 0.  0.
          4    1    1    2  501    0  0.23206639724E+03 -0.61118033987E+02 -0.29079038761E+03  0.37702689073E+03  0.00000000000E+00 0.  1.
         -4    1    1    2    0  503  0.12820053312E+02  0.79995063017E+02  0.30280191690E+02  0.86489617196E+02  0.00000000000E+00 0. -1.
<mgrwt>
<rscale>  4 0.26982780E+03</rscale>
<asrwt>0</asrwt>
<pdfrwt beam="1">  1       21 0.23964007E-01 0.26982780E+03</pdfrwt>
<pdfrwt beam="2">  1       21 0.10952823E+00 0.26982780E+03</pdfrwt>
<totfact> 0.10333005E+04</totfact>
</mgrwt>
</event>
<event>
 5    0  0.1972558E-002  0.2631262E+03  0.7546771E-02  0.1105279E+00
         21   -1    0    0  501  502  0.00000000000E+00  0.00000000000E+00  0.52680047173E+03  0.52680047173E+03  0.00000000000E+00 0. -1.
         21   -1    0    0  502  503 -0.00000000000E+00 -0.00000000000E+00 -0.37270047398E+03  0.37270047398E+03  0.00000000000E+00 0.  1.
         25    1    1    2    0    0  0.87317502360E+02 -0.21832860522E+03 -0.28418222328E+03  0.38945636739E+03  0.12500000000E+03 0.  0.
          1    1    1    2  501    0 -0.34908209065E+02  0.14590561559E+02  0.14012063295E+03  0.14513875887E+03  0.00000000000E+00 0.  1.
         -1    1    1    2    0  503 -0.52409293295E+02  0.20373804366E+03  0.29816158809E+03  0.36490581945E+03  0.00000000000E+00 0. -1.
<mgrwt>
<rscale>  4 0.26312620E+03</rscale>
<asrwt>0</asrwt>
<pdfrwt beam="1">  1       21 0.81046226E-01 0.26312620E+03</pdfrwt>
<pdfrwt beam="2">  1       21 0.57338535E-01 0.26312620E+03</pdfrwt>
<totfact> 0.36246272E+03</totfact>
</mgrwt>
</event>
<event>
 5    0  0.1972558E-002  0.3133982E+03  0.7546771E-02  0.1078728E+00
         21   -1    0    0  503  502  0.00000000000E+00  0.00000000000E+00  0.12471824439E+04  0.12471824439E+04  0.00000000000E+00 0.  1.
         21   -1    0    0  501  503 -0.00000000000E+00 -0.00000000000E+00 -0.83001256588E+02  0.83001256588E+02  0.00000000000E+00 0.  1.
         25    1    1    2    0    0  0.10352905891E+03  0.28157158302E+03  0.55588040992E+03  0.64391680560E+03  0.12500000000E+03 0.  0.
          3    1    1    2  501    0 -0.13123450880E+02 -0.19935264394E+02  0.14199358577E+03  0.14398547888E+03  0.00000000000E+00 0. -1.
         -3    1    1    2    0  502 -0.90405608027E+02 -0.26163631863E+03  0.46630719164E+03  0.54228141602E+03  0.00000000000E+00 0.  1.
<mgrwt>
<rscale>  4 0.31339823E+03</rscale>
<asrwt>0</asrwt>
<pdfrwt beam="1">  1       21 0.19187421E+00 0.31339823E+03</pdfrwt>
<pdfrwt beam="2">  1       21 0.12769425E-01 0.31339823E+03</pdfrwt>
<totfact> 0.73296829E+03</totfact>
</mgrwt>
</event>
<event>
 5    0  0.1972558E-002  0.3418223E+03  0.7546771E-02  0.1066022E+00
         21   -1    0    0  501  502  0.00000000000E+00  0.00000000000E+00  0.11786007967E+04  0.11786007967E+04  0.00000000000E+00 0. -1.
         21   -1    0    0  502  503 -0.00000000000E+00 -0.00000000000E+00 -0.93754193295E+03  0.93754193295E+03  0.00000000000E+00 0.  1.
         25    1    1    2    0    0 -0.14323876330E+02  0.35257759953E+03 -0.73710788869E+03  0.82672194642E+03  0.12500000000E+03 0.  0.
          2    1    1    2  501    0  0.31458189831E+01 -0.10968176422E+03  0.10341101451E+04  0.10399152743E+04  0.00000000000E+00 0. -1.
         -2    1    1    2    0  503  0.11178057347E+02 -0.24289583531E+03 -0.55943392686E+02  0.24950550888E+03  0.00000000000E+00 0.  1.
<mgrwt>
<rscale>  4 0.34182231E+03</rscale>
<asrwt>0</asrwt>
<pdfrwt beam="1">  1       21 0.18132320E+00 0.34182231E+03</pdfrwt>
<pdfrwt beam="2">  1       21 0.14423722E+00 0.34182231E+03</pdfrwt>
<totfact> 0.49906482E+01</totfact>
</mgrwt>
</event>
<event>
 5    0  0.1972558E-002  0.3516943E+03  0.7546771E-02  0.1061922E+00
         21   -1    0    0  503  502  0.00000000000E+00  0.00000000000E+00  0.47709540861E+03  0.47709540861E+03  0.00000000000E+00 0.  1.
         21   -1    0    0  501  503 -0.00000000000E+00 -0.00000000000E+00 -0.76206728014E+03  0.76206728014E+03  0.00000000000E+00 0.  1.
         25    1    1    2    0    0  0.29420555185E+03 -0.12671601442E+03 -0.57987282026E+03  0.67415973087E+03  0.12500000000E+03 0.  0.
          1    1    1    2  501    0  0.77052749370E+02  0.22034077217E+02  0.11299070019E+03  0.13852626131E+03  0.00000000000E+00 0. -1.
         -1    1    1    2    0  502 -0.37125830122E+03  0.10468193720E+03  0.18191024854E+03  0.42647669658E+03  0.00000000000E+00 0.  1.
<mgrwt>
<rscale>  4 0.35169430E+03</rscale>
<asrwt>0</asrwt>
<pdfrwt beam="1">  1       21 0.73399294E-01 0.35169430E+03</pdfrwt>
<pdfrwt beam="2">  1       21 0.11724112E+00 0.35169430E+03</pdfrwt>
<totfact> 0.82686881E+02</totfact>
</mgrwt>
</event>
<event>
 5    0  0.1972558E-002  0.2598793E+03  0.7546771E-02  0.1107216E+00
         21   -1    0    0  503  502  0.00000000000E+00  0.00000000000E+00  0.19816086856E+03  0.19816086856E+03  0.00000000000E+00 0. -1.
         21   -1    0    0  501  503 -0.00000000000E+00 -0.00000000000E+00 -0.10833229938E+04  0.10833229938E+04  0.00000000000E+00 0. -1.
         25    1    1    2    0    0 -0.11226917382E+03  0.19392641303E+03 -0.93369687665E+03  0.96831125086E+03  0.12500000000E+03 0.  0.
          1    1    1    2  501    0 -0.41156213471E+02  0.19914797640E+02  0.10310920629E+01  0.45732879017E+02  0.00000000000E+00 0.  1.
         -1    1    1    2    0  502  0.15342538729E+03 -0.21384121067E+03  0.47503659380E+02  0.26743973246E+03  0.00000000000E+00 0. -1.
<mgrwt>
<rscale>  4 0.25987933E+03</rscale>
<asrwt>0</asrwt>
<pdfrwt beam="1">  1       21 0.30486288E-01 0.25987933E+03</pdfrwt>
<pdfrwt beam="2">  1       21 0.16666507E+00 0.25987933E+03</pdfrwt>
<totfact> 0.21977797E+03</totfact>
</mgrwt>
</event>
<event>
 5    0  0.1972558E-002  0.2493609E+03  0.7546771E-02  0.1113709E+00
         21   -1    0    0  501  502  0.00000000000E+00  0.00000000000E+00  0.51584913143E+02  0.51584913143E+02  0.00000000000E+00 0. -1.
         21   -1    0    0  502  503 -0.00000000000E+00 -0.00000000000E+00 -0.16357493621E+04  0.16357493621E+04  0.00000000000E+00 0.  1.
         25    1    1    2    0    0 -0.15530123485E+03  0.14979121837E+03 -0.13064017364E+04  0.13299873607E+04  0.12500000000E+03 0.  0.
          3    1    1    2  501    0  0.13395454925E+03 -0.13914307659E+03 -0.27056334951E+03  0.33242915505E+03  0.00000000000E+00 0. -1.
         -3    1    1    2    0  503  0.21346685603E+02 -0.10648141777E+02 -0.71993629750E+01  0.24917759466E+02  0.00000000000E+00 0.  1.
<mgrwt>
<rscale>  4 0.24936095E+03</rscale>
<asrwt>0</asrwt>
<pdfrwt beam="1">  1       21 0.79361416E-02 0.24936095E+03</pdfrwt>
<pdfrwt beam="2">  1       21 0.25165371E+00 0.24936095E+03</pdfrwt>
<totfact> 0.75253382E+03</totfact>
</mgrwt>
</event>
<event>
 5    0  0.1972558E-002  0.2594700E+03  0.7546771E-02  0.1107462E+00
         21   -1    0    0  501  502  0.00000000000E+00  0.00000000000E+00  0.19039970367E+03  0.19039970367E+03  0.00000000000E+00 0.  1.
         21   -1    0    0  502  503 -0.00000000000E+00 -0.00000000000E+00 -0.42739145374E+03  0.42739145374E+03  0.00000000000E+00 0. -1.
         25    1    1    2    0    0  0.31948204114E+02 -0.21777965250E+03 -0.17532800430E+03  0.30791812854E+03  0.12500000000E+03 0.  0.
          3    1    1    2  501    0 -0.75000629917E+02  0.22609530929E+03 -0.93271917658E+02  0.25581992493E+03  0.00000000000E+00 0.  1.
         -3    1    1    2    0  503  0.43052425803E+02 -0.83156567847E+01  0.31608171883E+02  0.54053103936E+02  0.00000000000E+00 0. -1.
<mgrwt>
<rscale>  4 0.25947003E+03</rscale>
<asrwt>0</asrwt>
<pdfrwt beam="1">  1       21 0.29292262E-01 0.25947003E+03</pdfrwt>
<pdfrwt beam="2">  1       21 0.65752532E-01 0.25947003E+03</pdfrwt>
<totfact> 0.22913511E+04</totfact>
</mgrwt>
</event>
<event>
 5    0  0.1972558E-002  0.2572289E+03  0.7546771E-02  0.1108820E+00
         21   -1    0    0  501  502  0.00000000000E+00  0.00000000000E+00  0.13218083081E+03  0.13218083081E+03  0.00000000000E+00 0.  1.
         21   -1    0    0  502  503 -0.00000000000E+00 -0.00000000000E+00 -0.10960430917E+04  0.10960430917E+04  0.00000000000E+00 0. -1.
         25    1    1    2    0    0 -0.10229362849E+03 -0.21126165701E+03 -0.45241337199E+03  0.52478408256E+03  0.12500000000E+03 0.  0.
          4    1    1    2  501    0  0.10864870235E+03  0.19078126446E+03 -0.58604640474E+03  0.62582139617E+03  0.00000000000E+00 0. -1.
         -4    1    1    2    0  503 -0.63550738676E+01  0.20480392545E+02  0.74597515852E+02  0.77618443774E+02  0.00000000000E+00 0.  1.
<mgrwt>
<rscale>  4 0.25722888E+03</rscale>
<asrwt>0</asrwt>
<pdfrwt beam="1">  1       21 0.20335514E-01 0.25722888E+03</pdfrwt>
<pdfrwt beam="2">  1       21 0.16862200E+00 0.25722888E+03</pdfrwt>
<totfact> 0.46439589E+03</totfact>
</mgrwt>
</event>
<event>
 5    0  0.1972558E-002  0.2690038E+03  0.7546771E-02  0.1101851E+00
         21   -1    0    0  501  502  0.00000000000E+00  0.00000000000E+00  0.23396835404E+03  0.23396835404E+03  0.00000000000E+00 0. -1.
         21   -1    0    0  502  503 -0.00000000000E+00 -0.00000000000E+00 -0.45008115081E+03  0.45008115081E+03  0.00000000000E+00 0. -1.
         25    1    1    2    0    0  0.20137067264E+03  0.12082736956E+03 -0.27852424595E+03  0.38516250676E+03  0.12500000000E+03 0.  0.
          1    1    1    2  501    0 -0.19147429139E+03 -0.16138488077E+03  0.56666231088E+02  0.25674607251E+03  0.00000000000E+00 0. -1.
         -1    1    1    2    0  503 -0.98963812440E+01  0.40557511207E+02  0.57452180976E+01  0.42140925571E+02  0.00000000000E+00 0.  1.
<mgrwt>
<rscale>  4 0.26900379E+03</rscale>
<asrwt>0</asrwt>
<pdfrwt beam="1">  1       21 0.35995131E-01 0.26900379E+03</pdfrwt>
<pdfrwt beam="2">  1       21 0.69243254E-01 0.26900379E+03</pdfrwt>
<totfact> 0.13525391E+04</totfact>
</mgrwt>
</event>
<event>
 5    0  0.1972558E-002  0.3084871E+03  0.7546771E-02  0.1081073E+00
         21   -1    0    0  501  502  0.00000000000E+00  0.00000000000E+00  0.38666696908E+02  0.38666696908E+02  0.00000000000E+00 0.  1.
         21   -1    0    0  502  503 -0.00000000000E+00 -0.00000000000E+00 -0.23416917547E+04  0.23416917547E+04  0.00000000000E+00 0.  1.
         25    1    1    2    0    0 -0.27083451719E+03 -0.78663726050E+02 -0.12028994723E+04  0.12418258565E+04  0.12500000000E+03 0.  0.
          2    1    1    2  501    0  0.23438537648E+03  0.79953063525E+02 -0.10315633196E+04  0.10608731684E+04  0.00000000000E+00 0.  1.
         -2    1    1    2    0  503  0.36449140709E+02 -0.12893374746E+01 -0.68562266017E+02  0.77659426800E+02  0.00000000000E+00 0. -1.
<mgrwt>
<rscale>  4 0.30848714E+03</rscale>
<asrwt>0</asrwt>
<pdfrwt beam="1">  1       21 0.59487215E-02 0.30848714E+03</pdfrwt>
<pdfrwt beam="2">  1       21 0.36026033E+00 0.30848714E+03</pdfrwt>
<totfact> 0.26917512E+03</totfact>
</mgrwt>
</event>
<event>
 5    0  0.1972558E-002  0.2019825E+03  0.7546771E-02  0.1148077E+00
         21   -1    0    0  503  502  0.00000000000E+00  0.00000000000E+00  0.56174837731E+03  0.56174837731E+03  0.00000000000E+00 0. -1.
         21   -1    0    0  501  503 -0.00000000000E+00 -0.00000000000E+00 -0.20136265714E+03  0.20136265714E+03  0.00000000000E+00 0. -1.
         25    1    1    2    0    0  0.13379415832E+03 -0.20251236106E+03  0.13141176551E+03  0.30299535524E+03  0.12500000000E+03 0.  0.
          3    1    1    2  501    0 -0.55581724306E+01  0.14426420212E+03 -0.45703717871E+02  0.15143276766E+03  0.00000000000E+00 0.  1.
         -3    1    1    2    0  502 -0.12823598589E+03  0.58248158933E+02  0.27467767253E+03  0.30868291155E+03  0.00000000000E+00 0. -1.
<mgrwt>
<rscale>  4 0.20198248E+03</rscale>
<asrwt>0</asrwt>
<pdfrwt beam="1">  1       21 0.86422827E-01 0.20198248E+03</pdfrwt>
<pdfrwt beam="2">  1       21 0.30978871E-01 0.20198248E+03</pdfrwt>
<totfact> 0.11472145E+04</totfact>
</mgrwt>
</event>
<event>
 5    0  0.1972558E-002  0.1966478E+03  0.7546771E-02  0.1152598E+00
         21   -1    0    0  501  502  0.00000000000E+00  0.00000000000E+00  0.10849351320E+03  0.10849351320E+03  0.00000000000E+00 0. -1.
         21   -1    0    0  502  503 -0.00000000000E+00 -0.00000000000E+00 -0.11823769880E+04  0.11823769880E+04  0.00000000000E+00 0. -1.
         25    1    1    2    0    0  0.60913297274E+02  0.22734378631E+03 -0.79460041077E+03  0.83809930185E+03  0.12500000000E+03 0.  0.
          4    1    1    2  501    0 -0.59810059060E+02 -0.81914753728E+02 -0.28972308941E+03  0.30696374147E+03  0.00000000000E+00 0. -1.
         -4    1    1    2    0  503 -0.11032382141E+01 -0.14542903259E+03  0.10440025340E+02  0.14580745791E+03  0.00000000000E+00 0.  1.
<mgrwt>
<rscale>  4 0.19664783E+03</rscale>
<asrwt>0</asrwt>
<pdfrwt beam="1">  1       21 0.16691309E-01 0.19664783E+03</pdfrwt>
<pdfrwt beam="2">  1       21 0.18190416E+00 0.19664783E+03</pdfrwt>
<totfact> 0.56791703E+03</totfact>
</mgrwt>
</event>
<event>
 5    0  0.1972558E-002  0.3390434E+03  0.7546771E-02  0.1067204E+00
         21   -1    0    0  501  502  0.00000000000E+00  0.00000000000E+00  0.24022116521E+04  0.24022116521E+04  0.00000000000E+00 0. -1.
         21   -1    0    0  502  503 -0.00000000000E+00 -0.00000000000E+00 -0.24647171265E+03  0.24647171265E+03  0.00000000000E+00 0.  1.
         25    1    1    2    0    0  0.10941517635E+03  0.28835153923E+03 -0.69431226659E+02  0.33994703444E+03  0.12500000000E+03 0.  0.
          4    1    1    2  501    0  0.86704890757E+01  0.43923266147E+02  0.15166595125E+04  0.15173201730E+04  0.00000000000E+00 0. -1.
         -4    1    1    2    0  503 -0.11808566542E+03 -0.33227480538E+03  0.70851165364E+03  0.79141615728E+03  0.00000000000E+00 0.  1.
<mgrwt>
<rscale>  4 0.33904338E+03</rscale>
<asrwt>0</asrwt>
<pdfrwt beam="1">  1       21 0.36957101E+00 0.33904338E+03</pdfrwt>
<pdfrwt beam="2">  1       21 0.37918727E-01 0.33904338E+03</pdfrwt>
<totfact> 0.73907797E+01</totfact>
</mgrwt>
</event>
<event>
 5    0  0.1972558E-002  0.2808072E+03  0.7546771E-02  0.1095249E+00
         21   -1    0    0  501  502  0.00000000000E+00  0.00000000000E+00  0.30645766836E+03  0.30645766836E+03  0.00000000000E+00 0. -1.
         21   -1    0    0  502  503 -0.00000000000E+00 -0.00000000000E+00 -0.99339272203E+03  0.99339272203E+03  0.00000000000E+00 0. -1.
         25    1    1    2    0    0  0.19434206034E+03 -0.18991598937E+03 -0.88119483373E+03  0.93057307850E+03  0.12500000000E+03 0.  0.
          1    1    1    2  501    0 -0.14246990592E+03  0.34707561790E+02  0.12040835894E+03  0.18973787667E+03  0.00000000000E+00 0.  1.
         -1    1    1    2    0  503 -0.51872154415E+02  0.15520842758E+03  0.73851421125E+02  0.17953943522E+03  0.00000000000E+00 0. -1.
<mgrwt>
<rscale>  4 0.28080716E+03</rscale>
<asrwt>0</asrwt>
<pdfrwt beam="1">  1       21 0.47147334E-01 0.28080716E+03</pdfrwt>
<pdfrwt beam="2">  1       21 0.15282965E+00 0.28080716E+03</pdfrwt>
<totfact> 0.11349226E+03</totfact>
</mgrwt>
</event>
<event>
 5    0  0.1972558E-002  0.2434209E+03  0.7546771E-02  0.1117535E+00
         21   -1    0    0  501  502  0.00000000000E+00  0.00000000000E+00  0.33205005705E+03  0.33205005705E+03  0.00000000000E+00 0.  1.
         21   -1    0    0  502  503 -0.00000000000E+00 -0.00000000000E+00 -0.80236630123E+03  0.80236630123E+03  0.00000000000E+00 0.  1.
         25    1    1    2    0    0 -0.18520296033E+03  0.78944422542E+02 -0.60877253522E+03  0.65326974367E+03  0.12500000000E+03 0.  0.
          1    1    1    2  501    0  0.30454573350E+03 -0.41293959057E+02  0.17119125806E+03  0.35179502794E+03  0.00000000000E+00 0.  1.
         -1    1    1    2    0  503 -0.11934277317E+03 -0.37650463485E+02 -0.32734967025E+02  0.12935158667E+03  0.00000000000E+00 0. -1.
<mgrwt>
<rscale>  4 0.24342087E+03</rscale>
<asrwt>0</asrwt>
<pdfrwt beam="1">  1       21 0.51084624E-01 0.24342087E+03</pdfrwt>
<pdfrwt beam="2">  1       21 0.12344097E+00 0.24342087E+03</pdfrwt>
<totfact> 0.17166789E+03</totfact>
</mgrwt>
</event>
<event>
 5    0  0.1972558E-002  0.2539425E+03  0.7546771E-02  0.1110838E+00
         21   -1    0    0  503  502  0.00000000000E+00  0.00000000000E+00  0.25153550598E+04  0.25153550598E+04  0.00000000000E+00 0.  1.
         21   -1    0    0  501  503 -0.00000000000E+00 -0.00000000000E+00 -0.33132128532E+02  0.33132128532E+02  0.00000000000E+00 0.  1.
         25    1    1    2    0    0 -0.19114213991E+03 -0.11102475119E+03  0.59389235879E+03  0.64590629882E+03  0.12500000000E+03 0.  0.
          1    1    1    2  501    0  0.34919576055E+02 -0.79708701070E+01  0.32295284695E+03  0.32493299758E+03  0.00000000000E+00 0. -1.
         -1    1    1    2    0  502  0.15622256385E+03  0.11899562130E+03  0.15653777255E+04  0.15776478919E+04  0.00000000000E+00 0.  1.
<mgrwt>
<rscale>  4 0.25394254E+03</rscale>
<asrwt>0</asrwt>
<pdfrwt beam="1">  1       21 0.38697755E+00 0.25394254E+03</pdfrwt>
<pdfrwt beam="2">  1       21 0.50972525E-02 0.25394254E+03</pdfrwt>
<totfact> 0.25313345E+03</totfact>
</mgrwt>
</event>
<event>
 5    0  0.1972558E-002  0.3632419E+03  0.7546771E-02  0.1057308E+00
         21   -1    0    0  501  502  0.00000000000E+00  0.00000000000E+00  0.70627502820E+03  0.70627502820E+03  0.00000000000E+00 0.  1.
         21   -1    0    0  502  503 -0.00000000000E+00 -0.00000000000E+00 -0.88792496456E+03  0.88792496456E+03  0.00000000000E+00 0. -1.
         25    1    1    2    0    0 -0.20411619143E+03 -0.33727941048E+03 -0.11369087984E+03  0.42891891599E+03  0.12500000000E+03 0.  0.
          1    1    1    2  501    0 -0.19579764565E+02  0.97429844618E+02  0.49980844419E+03  0.50959240839E+03  0.00000000000E+00 0.  1.
         -1    1    1    2    0  503  0.22369595599E+03  0.23984956586E+03 -0.56776750071E+03  0.65568866838E+03  0.00000000000E+00 0. -1.
<mgrwt>
<rscale>  4 0.36324193E+03</rscale>
<asrwt>0</asrwt>
<pdfrwt beam="1">  1       21 0.10865770E+00 0.36324193E+03</pdfrwt>
<pdfrwt beam="2">  1       21 0.13660384E+00 0.36324193E+03</pdfrwt>
<totfact> 0.22047926E+02</totfact>
</mgrwt>
</event>
<event>
 5    0  0.1972558E-002  0.4000143E+03  0.7546771E-02  0.1043775E+00
         21   -1    0    0  501  502  0.00000000000E+00  0.00000000000E+00  0.27241191655E+03  0.27241191655E+03  0.00000000000E+00 0. -1.
         21   -1    0    0  502  503 -0.00000000000E+00 -0.00000000000E+00 -0.72383807101E+03  0.72383807101E+03  0.00000000000E+00 0.  1.
         25    1    1    2    0    0 -0.28001842058E+03  0.20820033778E+03 -0.26106491514E+03  0.45336253312E+03  0.12500000000E+03 0.  0.
          1    1    1    2  501    0  0.33116053101E+03 -0.26488402283E+03 -0.19426292050E+03  0.46644284230E+03  0.00000000000E+00 0. -1.
         -1    1    1    2    0  503 -0.51142110435E+02  0.56683685052E+02  0.39016811749E+01  0.76444612150E+02  0.00000000000E+00 0.  1.
<mgrwt>
<rscale>  4 0.40001429E+03</rscale>
<asrwt>0</asrwt>
<pdfrwt beam="1">  1       21 0.41909526E-01 0.40001429E+03</pdfrwt>
<pdfrwt beam="2">  1       21 0.11135970E+00 0.40001429E+03</pdfrwt>
<totfact> 0.30755439E+03</totfact>
</mgrwt>
</event>
<event>
 5    0  0.1972558E-002  0.3760734E+03  0.7546771E-02  0.1052395E+00
         21   -1    0    0  501  502  0.00000000000E+00  0.00000000000E+00  0.15268166241E+04  0.15268166241E+04  0.00000000000E+00 0. -1.
         21   -1    0    0  502  503 -0.00000000000E+00 -0.00000000000E+00 -0.76011671385E+03  0.76011671385E+03  0.00000000000E+00 0.  1.
         25    1    1    2    0    0 -0.13666704803E+03  0.32378475606E+03 -0.61182745904E+03  0.71656980811E+03  0.12500000000E+03 0.  0.
          3    1    1    2  501    0 -0.75556092238E+01  0.25396851471E+02  0.11016624271E+04  0.11019810301E+04  0.00000000000E+00 0. -1.
         -3    1    1    2    0  503  0.14422265725E+03 -0.34918160753E+03  0.27686494220E+03  0.46838249980E+03  0.00000000000E+00 0.  1.
<mgrwt>
<rscale>  4 0.37607344E+03</rscale>
<asrwt>0</asrwt>
<pdfrwt beam="1">  1       21 0.23489486E+00 0.37607344E+03</pdfrwt>
<pdfrwt beam="2">  1       21 0.11694103E+00 0.37607344E+03</pdfrwt>
<totfact> 0.37362653E+01</totfact>
</mgrwt>
</event>
<event>
 5    0  0.1972558E-002  0.2950053E+03  0.7546771E-02  0.1087764E+00
         21   -1    0    0  501  502  0.00000000000E+00  0.00000000000E+00  0.20356014546E+03  0.20356014546E+03  0.00000000000E+00 0. -1.
         21   -1    0    0  502  503 -0.00000000000E+00 -0.00000000000E+00 -0.96133067536E+03  0.96133067536E+03  0.00000000000E+00 0. -1.
         25    1    1    2    0    0  0.95265978143E+02  0.34080501495E+03 -0.57108846504E+03  0.68336717781E+03  0.12500000000E+03 0.  0.
          1    1    1    2  501    0 -0.86334482074E+02 -0.19013020167E+03 -0.24302372390E+03  0.32041171446E+03  0.00000000000E+00 0. -1.
         -1    1    1    2    0  503 -0.89314960685E+01 -0.15067481328E+03  0.56341659038E+02  0.16111192855E+03  0.00000000000E+00 0.  1.
<mgrwt>
<rscale>  4 0.29500525E+03</rscale>
<asrwt>0</asrwt>
<pdfrwt beam="1">  1       21 0.31316945E-01 0.29500525E+03</pdfrwt>
<pdfrwt beam="2">  1       21 0.14789703E+00 0.29500525E+03</pdfrwt>
<totfact> 0.28167845E+03</totfact>
</mgrwt>
</event>
<event>
 5    0  0.1972558E-002  0.2595790E+03  0.7546771E-02  0.1107396E+00
         21   -1    0    0  501  502  0.00000000000E+00  0.00000000000E+00  0.15628025243E+03  0.15628025243E+03  0.00000000000E+00 0.  1.
         21   -1    0    0  502  503 -0.00000000000E+00 -0.00000000000E+00 -0.17688690604E+04  0.17688690604E+04  0.00000000000E+00 0.  1.
         25    1    1    2    0    0  0.85933388964E+02  0.23154141480E+03 -0.16053380033E+04  0.16290276483E+04  0.12500000000E+03 0.  0.
          1    1    1    2  501    0  0.61777368320E+01 -0.10926444052E+03  0.64522249892E+02  0.12704331201E+03  0.00000000000E+00 0.  1.
         -1    1    1    2    0  503 -0.92111125796E+02 -0.12227697427E+03 -0.71773054569E+02  0.16907835253E+03  0.00000000000E+00 0. -1.
<mgrwt>
<rscale>  4 0.25957904E+03</rscale>
<asrwt>0</asrwt>
<pdfrwt beam="1">  1       21 0.24043115E-01 0.25957904E+03</pdfrwt>
<pdfrwt beam="2">  1       21 0.27213371E+00 0.25957904E+03</pdfrwt>
<totfact> 0.74694961E+02</totfact>
</mgrwt>
</event>
<event>
 5    0  0.1972558E-002  0.2713276E+03  0.7546771E-02  0.1100522E+00
         21   -1    0    0  501  502  0.00000000000E+00  0.00000000000E+00  0.38702931307E+03  0.38702931307E+03  0.00000000000E+00 0.  1.
         21   -1    0    0  502  503 -0.00000000000E+00 -0.00000000000E+00 -0.43570909094E+03  0.43570909094E+03  0.00000000000E+00 0.  1.
         25    1    1    2    0    0  0.38644394001E+02  0.28375497667E+03 -0.10516991114E+02  0.31264338003E+03  0.12500000000E+03 0.  0.
          1    1    1    2  501    0 -0.14424578790E+02 -0.58569603746E+02  0.18351767515E+03  0.19317661362E+03  0.00000000000E+00 0.  1.
         -1    1    1    2    0  503 -0.24219815210E+02 -0.22518537293E+03 -0.22168046191E+03  0.31691841035E+03  0.00000000000E+00 0. -1.
<mgrwt>
<rscale>  4 0.27132758E+03</rscale>
<asrwt>0</asrwt>
<pdfrwt beam="1">  1       21 0.59542971E-01 0.27132758E+03</pdfrwt>
<pdfrwt beam="2">  1       21 0.67032168E-01 0.27132758E+03</pdfrwt>
<totfact> 0.50928123E+03</totfact>
</mgrwt>
</event>
<event>
 5    0  0.1972558E-002  0.2221056E+03  0.7546771E-02  0.1132323E+00
         21   -1    0    0  501  502  0.00000000000E+00  0.00000000000E+00  0.29738725968E+03  0.29738725968E+03  0.00000000000E+00 0. -1.
         21   -1    0    0  502  503 -0.00000000000E+00 -0.00000000000E+00 -0.18986644966E+03  0.18986644966E+03  0.00000000000E+00 0. -1.
         25    1    1    2    0    0  0.10300770479E+03 -0.18307449298E+03  0.83391369399E+02  0.25827500405E+03  0.12500000000E+03 0.  0.
          1    1    1    2  501    0 -0.20473468207E+02  0.32659742679E+02  0.41369183103E+02  0.56544062490E+02  0.00000000000E+00 0.  1.
         -1    1    1    2    0  503 -0.82534236581E+02  0.15041475030E+03 -0.17239742491E+02  0.17243464280E+03  0.00000000000E+00 0. -1.
<mgrwt>
<rscale>  4 0.22210561E+03</rscale>
<asrwt>0</asrwt>
<pdfrwt beam="1">  1       21 0.45751886E-01 0.22210561E+03</pdfrwt>
<pdfrwt beam="2">  1       21 0.29210223E-01 0.22210561E+03</pdfrwt>
<totfact> 0.50698614E+04</totfact>
</mgrwt>
</event>
<event>
 5    0  0.1972558E-002  0.4341510E+03  0.7546771E-02  0.1032557E+00
         21   -1    0    0  501  502  0.00000000000E+00  0.00000000000E+00  0.58232074544E+03  0.58232074544E+03  0.00000000000E+00 0. -1.
         21   -1    0    0  502  503 -0.00000000000E+00 -0.00000000000E+00 -0.48226131020E+03  0.48226131020E+03  0.00000000000E+00 0. -1.
         25    1    1    2    0    0  0.32157721626E+03 -0.26960405397E+03 -0.15866220457E+03  0.46572196329E+03  0.12500000000E+03 0.  0.
          4    1    1    2  501    0 -0.27593346060E+03  0.30566257664E+03  0.91528100557E+02  0.42183679146E+03  0.00000000000E+00 0. -1.
         -4    1    1    2    0  503 -0.45643755658E+02 -0.36058522676E+02  0.16719353926E+03  0.17702330089E+03  0.00000000000E+00 0.  1.
<mgrwt>
<rscale>  4 0.43415102E+03</rscale>
<asrwt>0</asrwt>
<pdfrwt beam="1">  1       21 0.89587807E-01 0.43415102E+03</pdfrwt>
<pdfrwt beam="2">  1       21 0.74194047E-01 0.43415102E+03</pdfrwt>
<totfact> 0.14927671E+03</totfact>
</mgrwt>
</event>
<event>
 5    0  0.1972558E-002  0.2384022E+03  0.7546771E-02  0.1120862E+00
         21   -1    0    0  501  502  0.00000000000E+00  0.00000000000E+00  0.55758473244E+03  0.55758473244E+03  0.00000000000E+00 0.  1.
         21   -1    0    0  502  503 -0.00000000000E+00 -0.00000000000E+00 -0.11995952834E+03  0.11995952834E+03  0.00000000000E+00 0.  1.
         25    1    1    2    0    0 -0.18965346084E+03  0.11175041370E+03  0.22147953292E+03  0.33635513029E+03  0.12500000000E+03 0.  0.
          1    1    1    2  501    0  0.36338502750E+02  0.70236736620E+01  0.11831993668E+03  0.12397348986E+03  0.00000000000E+00 0. -1.
         -1    1    1    2    0  503  0.15331495809E+03 -0.11877408736E+03  0.97825734504E+02  0.21721564063E+03  0.00000000000E+00 0.  1.
<mgrwt>
<rscale>  4 0.23840217E+03</rscale>
<asrwt>0</asrwt>
<pdfrwt beam="1">  1       21 0.85782265E-01 0.23840217E+03</pdfrwt>
<pdfrwt beam="2">  1       21 0.18455312E-01 0.23840217E+03</pdfrwt>
<totfact> 0.30711364E+04</totfact>
</mgrwt>
</event>
<event>
 5    0  0.1972558E-002  0.2642254E+03  0.7546771E-02  0.1104631E+00
         21   -1    0    0  501  502  0.00000000000E+00  0.00000000000E+00  0.16693614228E+03  0.16693614228E+03  0.00000000000E+00 0. -1.
         21   -1    0    0  502  503 -0.00000000000E+00 -0.00000000000E+00 -0.47440006173E+03  0.47440006173E+03  0.00000000000E+00 0. -1.
         25    1    1    2    0    0  0.22097989944E+03 -0.15596680768E+02 -0.23308602128E+03  0.34500647200E+03  0.12500000000E+03 0.  0.
          4    1    1    2  501    0 -0.25298505233E+03  0.65065378140E+01 -0.59995279615E+02  0.26008307387E+03  0.00000000000E+00 0. -1.
         -4    1    1    2    0  503  0.32005152890E+02  0.90901429539E+01 -0.14382618556E+02  0.36246658148E+02  0.00000000000E+00 0.  1.
<mgrwt>
<rscale>  4 0.26422537E+03</rscale>
<asrwt>0</asrwt>
<pdfrwt beam="1">  1       21 0.25682483E-01 0.26422537E+03</pdfrwt>
<pdfrwt beam="2">  1       21 0.72984625E-01 0.26422537E+03</pdfrwt>
<totfact> 0.23420912E+04</totfact>
</mgrwt>
</event>
<event>
 5    0  0.1972558E-002  0.2487321E+03  0.7546771E-02  0.1114109E+00
         21   -1    0    0  501  502  0.00000000000E+00  0.00000000000E+00  0.17531360174E+03  0.17531360174E+03  0.00000000000E+00 0. -1.
         21   -1    0    0  502  503 -0.00000000000E+00 -0.00000000000E+00 -0.36588759195E+03  0.36588759195E+03  0.00000000000E+00 0.  1.
         25    1    1    2    0    0  0.44835791962E+02 -0.22312213195E+03 -0.10003239309E+03  0.27825386552E+03  0.12500000000E+03 0.  0.
          4    1    1    2  501    0  0.21863432844E-01  0.21712031263E+02  0.19421531299E+02  0.29130888376E+02  0.00000000000E+00 0.  1.
         -4    1    1    2    0  503 -0.44857655395E+02  0.20141010069E+03 -0.10996312841E+03  0.23381643979E+03  0.00000000000E+00 0. -1.
<mgrwt>
<rscale>  4 0.24873206E+03</rscale>
<asrwt>0</asrwt>
<pdfrwt beam="1">  1       21 0.26971323E-01 0.24873206E+03</pdfrwt>
<pdfrwt beam="2">  1       21 0.56290399E-01 0.24873206E+03</pdfrwt>
<totfact> 0.37862178E+04</totfact>
</mgrwt>
</event>
<event>
 5    0  0.1972558E-002  0.3892275E+03  0.7546771E-02  0.1047575E+00
         21   -1    0    0  503  502  0.00000000000E+00  0.00000000000E+00  0.83443011723E+03  0.83443011723E+03  0.00000000000E+00 0.  1.
         21   -1    0    0  501  503 -0.00000000000E+00 -0.00000000000E+00 -0.56520674676E+03  0.56520674676E+03  0.00000000000E+00 0. -1.
         25    1    1    2    0    0  0.28177734245E+03  0.26529157283E+03 -0.41547500013E+03  0.58139708037E+03  0.12500000000E+03 0.  0.
          1    1    1    2  501    0 -0.26554148980E+03 -0.11524323262E+03  0.37503878655E+03  0.47375877500E+03  0.00000000000E+00 0.  1.
         -1    1    1    2    0  502 -0.16235852651E+02 -0.15004834020E+03  0.30965958405E+03  0.34448100862E+03  0.00000000000E+00 0. -1.
<mgrwt>
<rscale>  4 0.38922748E+03</rscale>
<asrwt>0</asrwt>
<pdfrwt beam="1">  1       21 0.12837386E+00 0.38922748E+03</pdfrwt>
<pdfrwt beam="2">  1       21 0.86954884E-01 0.38922748E+03</pdfrwt>
<totfact> 0.43554848E+02</totfact>
</mgrwt>
</event>
<event>
 5    0  0.1972558E-002  0.2674246E+03  0.7546771E-02  0.1102763E+00
         21   -1    0    0  501  502  0.00000000000E+00  0.00000000000E+00  0.16705387381E+04  0.16705387381E+04  0.00000000000E+00 0. -1.
         21   -1    0    0  502  503 -0.00000000000E+00 -0.00000000000E+00 -0.16484319360E+03  0.16484319360E+03  0.00000000000E+00 0.  1.
         25    1    1    2    0    0 -0.24641264758E+02 -0.23374507088E+03 -0.17049626351E+02  0.26675764253E+03  0.12500000000E+03 0.  0.
          4    1    1    2  501    0  0.73417422879E+02 -0.23683898240E+02  0.12773492084E+03  0.14922216665E+03  0.00000000000E+00 0.  1.
         -4    1    1    2    0  503 -0.48776158120E+02  0.25742896912E+03  0.13950102500E+04  0.14194021225E+04  0.00000000000E+00 0. -1.
<mgrwt>
<rscale>  4 0.26742459E+03</rscale>
<asrwt>0</asrwt>
<pdfrwt beam="1">  1       21 0.25700595E+00 0.26742459E+03</pdfrwt>
<pdfrwt beam="2">  1       21 0.25360492E-01 0.26742459E+03</pdfrwt>
<totfact> 0.82222289E+02</totfact>
</mgrwt>
</event>
<event>
 5    0  0.1972558E-002  0.2753318E+03  0.7546771E-02  0.1098266E+00
         21   -1    0    0  501  502  0.00000000000E+00  0.00000000000E+00  0.33654523312E+03  0.33654523312E+03  0.00000000000E+00 0.  1.
         21   -1    0    0  502  503 -0.00000000000E+00 -0.00000000000E+00 -0.49826108933E+03  0.49826108933E+03  0.00000000000E+00 0. -1.
         25    1    1    2    0    0  0.24516733786E+03 -0.40506172070E+02 -0.36087322416E+03  0.45563390726E+03  0.12500000000E+03 0.  0.
          3    1    1    2  501    0 -0.23486225769E+03  0.18165260586E+02  0.67228734851E+02  0.24496930332E+03  0.00000000000E+00 0.  1.
         -3    1    1    2    0  503 -0.10305080177E+02  0.22340911484E+02  0.13192863311E+03  0.13420311187E+03  0.00000000000E+00 0. -1.
<mgrwt>
<rscale>  4 0.27533176E+03</rscale>
<asrwt>0</asrwt>
<pdfrwt beam="1">  1       21 0.51776190E-01 0.27533176E+03</pdfrwt>
<pdfrwt beam="2">  1       21 0.76655553E-01 0.27533176E+03</pdfrwt>
<totfact> 0.50763769E+03</totfact>
</mgrwt>
</event>
<event>
 5    0  0.1972558E-002  0.3444875E+03  0.7546771E-02  0.1064901E+00
         21   -1    0    0  501  502  0.00000000000E+00  0.00000000000E+00  0.95473774992E+03  0.95473774992E+03  0.00000000000E+00 0.  1.
         21   -1    0    0  502  503 -0.00000000000E+00 -0.00000000000E+00 -0.70317572115E+03  0.70317572115E+03  0.00000000000E+00 0.  1.
         25    1    1    2    0    0 -0.21322229017E+03 -0.24270946697E+03 -0.62159351285E+03  0.71160039742E+03  0.12500000000E+03 0.  0.
          4    1    1    2  501    0  0.17376077003E+03  0.23721813507E+03  0.57817101765E+03  0.64865011714E+03  0.00000000000E+00 0. -1.
         -4    1    1    2    0  503  0.39461520134E+02  0.54913318986E+01  0.29498452398E+03  0.29766295652E+03  0.00000000000E+00 0.  1.
<mgrwt>
<rscale>  4 0.34448748E+03</rscale>
<asrwt>0</asrwt>
<pdfrwt beam="1">  1       21 0.14688273E+00 0.34448748E+03</pdfrwt>
<pdfrwt beam="2">  1       21 0.10818088E+00 0.34448748E+03</pdfrwt>
<totfact> 0.18619470E+02</totfact>
</mgrwt>
</event>
<event>
 5    0  0.1972558E-002  0.2301637E+03  0.7546771E-02  0.1126525E+00
         21   -1    0    0  501  502  0.00000000000E+00  0.00000000000E+00  0.13355950982E+04  0.13355950982E+04  0.00000000000E+00 0.  1.
         21   -1    0    0  502  503 -0.00000000000E+00 -0.00000000000E+00 -0.86278555690E+02  0.86278555690E+02  0.00000000000E+00 0.  1.
         25    1    1    2    0    0  0.12603001978E+03 -0.17567786081E+03  0.34538379512E+03  0.42621736544E+03  0.12500000000E+03 0.  0.
          2    1    1    2  501    0 -0.12145628061E+03  0.13646134129E+03  0.13861180914E+03  0.22931759505E+03  0.00000000000E+00 0.  1.
         -2    1    1    2    0  503 -0.45737391615E+01  0.39216519525E+02  0.76532093820E+03  0.76633869336E+03  0.00000000000E+00 0. -1.
<mgrwt>
<rscale>  4 0.23016374E+03</rscale>
<asrwt>0</asrwt>
<pdfrwt beam="1">  1       21 0.20547615E+00 0.23016374E+03</pdfrwt>
<pdfrwt beam="2">  1       21 0.13273625E-01 0.23016374E+03</pdfrwt>
<totfact> 0.58730641E+03</totfact>
</mgrwt>
</event>
<event>
 5    0  0.1972558E-002  0.2012959E+03  0.7546771E-02  0.1148650E+00
         21   -1    0    0  503  502  0.00000000000E+00  0.00000000000E+00  0.73616263611E+02  0.73616263611E+02  0.00000000000E+00 0.  1.
         21   -1    0    0  501  503 -0.00000000000E+00 -0.00000000000E+00 -0.80713152297E+03  0.80713152297E+03  0.00000000000E+00 0.  1.
         25    1    1    2    0    0 -0.20727144972E+03  0.35994284397E+02 -0.29761977411E+03  0.38530451895E+03  0.12500000000E+03 0.  0.
          1    1    1    2  501    0  0.65294140516E+02 -0.23859772978E+02 -0.54612347678E+02  0.88403179079E+02  0.00000000000E+00 0. -1.
         -1    1    1    2    0  502  0.14197730920E+03 -0.12134511419E+02 -0.38128313758E+03  0.40704008856E+03  0.00000000000E+00 0.  1.
<mgrwt>
<rscale>  4 0.20129592E+03</rscale>
<asrwt>0</asrwt>
<pdfrwt beam="1">  1       21 0.11325579E-01 0.20129592E+03</pdfrwt>
<pdfrwt beam="2">  1       21 0.12417408E+00 0.20129592E+03</pdfrwt>
<totfact> 0.31396267E+04</totfact>
</mgrwt>
</event>
<event>
 5    0  0.1972558E-002  0.2743175E+03  0.7546771E-02  0.1098834E+00
         21   -1    0    0  501  502  0.00000000000E+00  0.00000000000E+00  0.49966956112E+03  0.49966956112E+03  0.00000000000E+00 0.  1.
         21   -1    0    0  502  503 -0.00000000000E+00 -0.00000000000E+00 -0.24429977465E+03  0.24429977465E+03  0.00000000000E+00 0.  1.
         25    1    1    2    0    0 -0.21818806029E+02  0.25657971601E+03 -0.72654093827E+02  0.29531818148E+03  0.12500000000E+03 0.  0.
          1    1    1    2  501    0 -0.56265614847E+02 -0.49483955231E+02  0.13760591029E+03  0.15668397425E+03  0.00000000000E+00 0. -1.
         -1    1    1    2    0  503  0.78084420876E+02 -0.20709576078E+03  0.19041797001E+03  0.29196718004E+03  0.00000000000E+00 0.  1.
<mgrwt>
<rscale>  4 0.27431752E+03</rscale>
<asrwt>0</asrwt>
<pdfrwt beam="1">  1       21 0.76872240E-01 0.27431752E+03</pdfrwt>
<pdfrwt beam="2">  1       21 0.37584581E-01 0.27431752E+03</pdfrwt>
<totfact> 0.97828598E+03</totfact>
</mgrwt>
</event>
<event>
 5    0  0.1972558E-002  0.3286046E+03  0.7546771E-02  0.1071756E+00
         21   -1    0    0  501  502  0.00000000000E+00  0.00000000000E+00  0.10132114161E+04  0.10132114161E+04  0.00000000000E+00 0. -1.
         21   -1    0    0  502  503 -0.00000000000E+00 -0.00000000000E+00 -0.18995727137E+03  0.18995727137E+03  0.00000000000E+00 0.  1.
         25    1    1    2    0    0  0.17070071026E+03 -0.23798469417E+03  0.28009735782E+03  0.42409312303E+03  0.12500000000E+03 0.  0.
          1    1    1    2  501    0 -0.14386587117E+03  0.27632515817E+03  0.91068018243E+02  0.32457104903E+03  0.00000000000E+00 0.  1.
         -1    1    1    2    0  503 -0.26834839089E+02 -0.38340463999E+02  0.45208876865E+03  0.45450451539E+03  0.00000000000E+00 0. -1.
<mgrwt>
<rscale>  4 0.32860464E+03</rscale>
<asrwt>0</asrwt>
<pdfrwt beam="1">  1       21 0.15587868E+00 0.32860464E+03</pdfrwt>
<pdfrwt beam="2">  1       21 0.29224196E-01 0.32860464E+03</pdfrwt>
<totfact> 0.27496094E+03</totfact>
</mgrwt>
</event>
<event>
 5    0  0.1972558E-002  0.2351769E+03  0.7546771E-02  0.1123048E+00
         21   -1    0    0  501  502  0.00000000000E+00  0.00000000000E+00  0.55661164692E+03  0.55661164692E+03  0.00000000000E+00 0.  1.
         21   -1    0    0  502  503 -0.00000000000E+00 -0.00000000000E+00 -0.17429011527E+03  0.17429011527E+03  0.00000000000E+00 0. -1.
         25    1    1    2    0    0  0.15749213689E+03  0.12983874001E+03 -0.34286336802E+02  0.24179004215E+03  0.12500000000E+03 0.  0.
          1    1    1    2  501    0  0.18342233021E+02 -0.54905890544E+02  0.15233458745E+03  0.16296294322E+03  0.00000000000E+00 0. -1.
         -1    1    1    2    0  503 -0.17583436991E+03 -0.74932849467E+02  0.26427328101E+03  0.32614877682E+03  0.00000000000E+00 0.  1.
<mgrwt>
<rscale>  4 0.23517687E+03</rscale>
<asrwt>0</asrwt>
<pdfrwt beam="1">  1       21 0.85632560E-01 0.23517687E+03</pdfrwt>
<pdfrwt beam="2">  1       21 0.26813864E-01 0.23517687E+03</pdfrwt>
<totfact> 0.15206733E+04</totfact>
</mgrwt>
</event>
<event>
 5    0  0.1972558E-002  0.2726448E+03  0.7546771E-02  0.1099775E+00
         21   -1    0    0  503  502  0.00000000000E+00  0.00000000000E+00  0.44355801558E+03  0.44355801558E+03  0.00000000000E+00 0. -1.
         21   -1    0    0  501  503 -0.00000000000E+00 -0.00000000000E+00 -0.12840042546E+04  0.12840042546E+04  0.00000000000E+00 0. -1.
         25    1    1    2    0    0 -0.23791639203E+03  0.45890885219E+02 -0.12317474996E+04  0.12615613682E+04  0.12500000000E+03 0.  0.
          2    1    1    2  501    0  0.72221906640E+02 -0.10747436575E+02  0.62404617025E+02  0.96051274941E+02  0.00000000000E+00 0.  1.
         -2    1    1    2    0  502  0.16569448539E+03 -0.35143448644E+02  0.32889664351E+03  0.36994962709E+03  0.00000000000E+00 0. -1.
<mgrwt>
<rscale>  4 0.27264479E+03</rscale>
<asrwt>0</asrwt>
<pdfrwt beam="1">  1       21 0.68239696E-01 0.27264479E+03</pdfrwt>
<pdfrwt beam="2">  1       21 0.19753911E+00 0.27264479E+03</pdfrwt>
<totfact> 0.24996796E+02</totfact>
</mgrwt>
</event>
<event>
 5    0  0.1972558E-002  0.1838576E+03  0.7546771E-02  0.1164121E+00
         21   -1    0    0  501  502  0.00000000000E+00  0.00000000000E+00  0.14619425901E+03  0.14619425901E+03  0.00000000000E+00 0.  1.
         21   -1    0    0  502  503 -0.00000000000E+00 -0.00000000000E+00 -0.55685167859E+03  0.55685167859E+03  0.00000000000E+00 0.  1.
         25    1    1    2    0    0 -0.20186961929E+03  0.18805608819E+02 -0.39783463328E+02  0.24148026435E+03  0.12500000000E+03 0.  0.
          1    1    1    2  501    0  0.86164364366E+02 -0.76296246294E+02 -0.71470945776E+02  0.13547513047E+03  0.00000000000E+00 0. -1.
         -1    1    1    2    0  503  0.11570525493E+03  0.57490637474E+02 -0.29940301047E+03  0.32609054278E+03  0.00000000000E+00 0.  1.
<mgrwt>
<rscale>  4 0.18385758E+03</rscale>
<asrwt>0</asrwt>
<pdfrwt beam="1">  1       21 0.22491424E-01 0.18385758E+03</pdfrwt>
<pdfrwt beam="2">  1       21 0.85669489E-01 0.18385758E+03</pdfrwt>
<totfact> 0.21904677E+04</totfact>
</mgrwt>
</event>
<event>
 5    0  0.1972558E-002  0.2202603E+03  0.7546771E-02  0.1133689E+00
         21   -1    0    0  501  502  0.00000000000E+00  0.00000000000E+00  0.81239085614E+03  0.81239085614E+03  0.00000000000E+00 0. -1.
         21   -1    0    0  502  503 -0.00000000000E+00 -0.00000000000E+00 -0.98568324499E+02  0.98568324499E+02  0.00000000000E+00 0.  1.
         25    1    1    2    0    0  0.19806626344E+03  0.58592965523E+02  0.14253353545E+03  0.28036438620E+03  0.12500000000E+03 0.  0.
          1    1    1    2  501    0 -0.99431372382E+02 -0.10557900656E+03  0.41731023320E+03  0.44179333989E+03  0.00000000000E+00 0. -1.
         -1    1    1    2    0  503 -0.98634891058E+02  0.46986041037E+02  0.15397876299E+03  0.18880145455E+03  0.00000000000E+00 0.  1.
<mgrwt>
<rscale>  4 0.22026034E+03</rscale>
<asrwt>0</asrwt>
<pdfrwt beam="1">  1       21 0.12498320E+00 0.22026034E+03</pdfrwt>
<pdfrwt beam="2">  1       21 0.15164358E-01 0.22026034E+03</pdfrwt>
<totfact> 0.18032314E+04</totfact>
</mgrwt>
</event>
<event>
 5    0  0.1972558E-002  0.2166713E+03  0.7546771E-02  0.1136389E+00
         21   -1    0    0  501  502  0.00000000000E+00  0.00000000000E+00  0.45163530697E+03  0.45163530697E+03  0.00000000000E+00 0.  1.
         21   -1    0    0  502  503 -0.00000000000E+00 -0.00000000000E+00 -0.29722696647E+03  0.29722696647E+03  0.00000000000E+00 0.  1.
         25    1    1    2    0    0 -0.14051549605E+03  0.14770807394E+03 -0.19985898588E+03  0.31165829681E+03  0.12500000000E+03 0.  0.
          2    1    1    2  501    0  0.11787213300E+03 -0.12921125743E+03  0.36604540619E+03  0.40568291581E+03  0.00000000000E+00 0.  1.
         -2    1    1    2    0  503  0.22643363046E+02 -0.18496816510E+02 -0.11778079812E+02  0.31521060818E+02  0.00000000000E+00 0. -1.
<mgrwt>
<rscale>  4 0.21667134E+03</rscale>
<asrwt>0</asrwt>
<pdfrwt beam="1">  1       21 0.69482355E-01 0.21667134E+03</pdfrwt>
<pdfrwt beam="2">  1       21 0.45727225E-01 0.21667134E+03</pdfrwt>
<totfact> 0.84932300E+03</totfact>
</mgrwt>
</event>
<event>
 5    0  0.1972558E-002  0.2147424E+03  0.7546771E-02  0.1137865E+00
         21   -1    0    0  501  502  0.00000000000E+00  0.00000000000E+00  0.34451952747E+02  0.34451952747E+02  0.00000000000E+00 0.  1.
         21   -1    0    0  502  503 -0.00000000000E+00 -0.00000000000E+00 -0.18069393108E+04  0.18069393108E+04  0.00000000000E+00 0.  1.
         25    1    1    2    0    0  0.20372311572E+03 -0.86054290627E+00 -0.10269832182E+04  0.10544303575E+04  0.12500000000E+03 0.  0.
          1    1    1    2  501    0 -0.16208989429E+03  0.33493642299E+02 -0.34136527960E+03  0.37937476460E+03  0.00000000000E+00 0.  1.
         -1    1    1    2    0  503 -0.41633221435E+02 -0.32633099393E+02 -0.40413886031E+03  0.40758614147E+03  0.00000000000E+00 0. -1.
<mgrwt>
<rscale>  4 0.21474237E+03</rscale>
<asrwt>0</asrwt>
<pdfrwt beam="1">  1       21 0.53002986E-02 0.21474237E+03</pdfrwt>
<pdfrwt beam="2">  1       21 0.27799076E+00 0.21474237E+03</pdfrwt>
<totfact> 0.10898225E+04</totfact>
</mgrwt>
</event>
<event>
 5    0  0.1972558E-002  0.2520530E+03  0.7546771E-02  0.1112014E+00
         21   -1    0    0  501  502  0.00000000000E+00  0.00000000000E+00  0.25599522380E+03  0.25599522380E+03  0.00000000000E+00 0. -1.
         21   -1    0    0  502  503 -0.00000000000E+00 -0.00000000000E+00 -0.33868255283E+03  0.33868255283E+03  0.00000000000E+00 0.  1.
         25    1    1    2    0    0  0.54895285491E+02  0.20918777542E+03 -0.16303599965E+03  0.29829306887E+03  0.12500000000E+03 0.  0.
          4    1    1    2  501    0  0.31128719640E+02 -0.14474974670E+01  0.63710087953E+02  0.70922970484E+02  0.00000000000E+00 0.  1.
         -4    1    1    2    0  503 -0.86024005131E+02 -0.20774027796E+03  0.16638582665E+02  0.22546173728E+03  0.00000000000E+00 0. -1.
<mgrwt>
<rscale>  4 0.25205298E+03</rscale>
<asrwt>0</asrwt>
<pdfrwt beam="1">  1       21 0.39383880E-01 0.25205298E+03</pdfrwt>
<pdfrwt beam="2">  1       21 0.52105008E-01 0.25205298E+03</pdfrwt>
<totfact> 0.21043592E+04</totfact>
</mgrwt>
</event>
<event>
 5    0  0.1972558E-002  0.2432534E+03  0.7546771E-02  0.1117644E+00
         21   -1    0    0  501  502  0.00000000000E+00  0.00000000000E+00  0.33777706344E+03  0.33777706344E+03  0.00000000000E+00 0. -1.
         21   -1    0    0  502  503 -0.00000000000E+00 -0.00000000000E+00 -0.45698191822E+03  0.45698191822E+03  0.00000000000E+00 0.  1.
         25    1    1    2    0    0  0.10311475828E+03 -0.23140935927E+03 -0.25231235316E+03  0.37877363753E+03  0.12500000000E+03 0.  0.
          4    1    1    2  501    0  0.52794290007E+02  0.14165110086E+03  0.17502042692E+03  0.23126699131E+03  0.00000000000E+00 0. -1.
         -4    1    1    2    0  503 -0.15590904828E+03  0.89758258412E+02 -0.41912928536E+02  0.18471835282E+03  0.00000000000E+00 0.  1.
<mgrwt>
<rscale>  4 0.24325341E+03</rscale>
<asrwt>0</asrwt>
<pdfrwt beam="1">  1       21 0.51965702E-01 0.24325341E+03</pdfrwt>
<pdfrwt beam="2">  1       21 0.70304910E-01 0.24325341E+03</pdfrwt>
<totfact> 0.62305133E+03</totfact>
</mgrwt>
</event>
<event>
 5    0  0.1972558E-002  0.2110739E+03  0.7546771E-02  0.1140718E+00
         21   -1    0    0  501  502  0.00000000000E+00  0.00000000000E+00  0.47777577793E+02  0.47777577793E+02  0.00000000000E+00 0.  1.
         21   -1    0    0  502  503 -0.00000000000E+00 -0.00000000000E+00 -0.21314665316E+04  0.21314665316E+04  0.00000000000E+00 0.  1.
         25    1    1    2    0    0 -0.20297872941E+03  0.47322818806E+02 -0.16880094276E+04  0.17054150936E+04  0.12500000000E+03 0.  0.
          4    1    1    2  501    0  0.79628891576E+02 -0.30606894463E+02 -0.34885841174E+02  0.92165960510E+02  0.00000000000E+00 0.  1.
         -4    1    1    2    0  503  0.12334983783E+03 -0.16715924342E+02 -0.36079368511E+03  0.38166305537E+03  0.00000000000E+00 0. -1.
<mgrwt>
<rscale>  4 0.21107386E+03</rscale>
<asrwt>0</asrwt>
<pdfrwt beam="1">  1       21 0.73503969E-02 0.21107386E+03</pdfrwt>
<pdfrwt beam="2">  1       21 0.32791791E+00 0.21107386E+03</pdfrwt>
<totfact> 0.32004109E+03</totfact>
</mgrwt>
</event>
<event>
 5    0  0.1972558E-002  0.3853047E+03  0.7546771E-02  0.1048990E+00
         21   -1    0    0  501  502  0.00000000000E+00  0.00000000000E+00  0.12904494874E+04  0.12904494874E+04  0.00000000000E+00 0.  1.
         21   -1    0    0  502  503 -0.00000000000E+00 -0.00000000000E+00 -0.25835290882E+03  0.25835290882E+03  0.00000000000E+00 0. -1.
         25    1    1    2    0    0  0.38692269508E+03 -0.66863320879E+02  0.24708419098E+02  0.41281397944E+03  0.12500000000E+03 0.  0.
          3    1    1    2  501    0 -0.31242678469E+03  0.28761839232E+02  0.33716645843E+03  0.46056374139E+03  0.00000000000E+00 0.  1.
         -3    1    1    2    0  503 -0.74495910389E+02  0.38101481647E+02  0.67022170104E+03  0.67542467538E+03  0.00000000000E+00 0. -1.
<mgrwt>
<rscale>  4 0.38530468E+03</rscale>
<asrwt>0</asrwt>
<pdfrwt beam="1">  1       21 0.19853069E+00 0.38530468E+03</pdfrwt>
<pdfrwt beam="2">  1       21 0.39746602E-01 0.38530468E+03</pdfrwt>
<totfact> 0.71765905E+02</totfact>
</mgrwt>
</event>
<event>
 5    0  0.1972558E-002  0.2941375E+03  0.7546771E-02  0.1088208E+00
         21   -1    0    0  501  502  0.00000000000E+00  0.00000000000E+00  0.10306952144E+04  0.10306952144E+04  0.00000000000E+00 0.  1.
         21   -1    0    0  502  503 -0.00000000000E+00 -0.00000000000E+00 -0.26147218374E+03  0.26147218374E+03  0.00000000000E+00 0. -1.
         25    1    1    2    0    0 -0.21052109283E+03 -0.83349136674E+00  0.86450786900E+02  0.25965084977E+03  0.12500000000E+03 0.  0.
          4    1    1    2  501    0  0.31062037279E+03  0.44137651197E+02 -0.26546722460E+02  0.31486167871E+03  0.00000000000E+00 0. -1.
         -4    1    1    2    0  503 -0.10009927997E+03 -0.43304159830E+02  0.70931896619E+03  0.71765486963E+03  0.00000000000E+00 0.  1.
<mgrwt>
<rscale>  4 0.29413751E+03</rscale>
<asrwt>0</asrwt>
<pdfrwt beam="1">  1       21 0.15856849E+00 0.29413751E+03</pdfrwt>
<pdfrwt beam="2">  1       21 0.40226490E-01 0.29413751E+03</pdfrwt>
<totfact> 0.14124334E+03</totfact>
</mgrwt>
</event>
<event>
 5    0  0.1972558E-002  0.3561785E+03  0.7546771E-02  0.1060107E+00
         21   -1    0    0  503  502  0.00000000000E+00  0.00000000000E+00  0.14162638875E+04  0.14162638875E+04  0.00000000000E+00 0.  1.
         21   -1    0    0  501  503 -0.00000000000E+00 -0.00000000000E+00 -0.99084633476E+02  0.99084633476E+02  0.00000000000E+00 0.  1.
         25    1    1    2    0    0  0.28880197002E+03  0.16682799393E+03  0.91529925619E+03  0.98215878850E+03  0.12500000000E+03 0.  0.
          3    1    1    2  501    0 -0.42435402239E+02  0.18304555145E+01  0.99792008213E+02  0.10845533105E+03  0.00000000000E+00 0. -1.
         -3    1    1    2    0  502 -0.24636656778E+03 -0.16865844944E+03  0.30208798966E+03  0.42473440146E+03  0.00000000000E+00 0.  1.
<mgrwt>
<rscale>  4 0.35617855E+03</rscale>
<asrwt>0</asrwt>
<pdfrwt beam="1">  1       21 0.21788674E+00 0.35617855E+03</pdfrwt>
<pdfrwt beam="2">  1       21 0.15243791E-01 0.35617855E+03</pdfrwt>
<totfact> 0.35041364E+03</totfact>
</mgrwt>
</event>
<event>
 5    0  0.1972558E-002  0.3855576E+03  0.7546771E-02  0.1048899E+00
         21   -1    0    0  501  502  0.00000000000E+00  0.00000000000E+00  0.42326879551E+03  0.42326879551E+03  0.00000000000E+00 0. -1.
         21   -1    0    0  502  503 -0.00000000000E+00 -0.00000000000E+00 -0.10882766103E+04  0.10882766103E+04  0.00000000000E+00 0.  1.
         25    1    1    2    0    0 -0.17922859001E+03  0.30974188012E+03 -0.85500035292E+03  0.93526120590E+03  0.12500000000E+03 0.  0.
          4    1    1    2  501    0  0.26607296549E+03 -0.31227115635E+03  0.52440757799E+02  0.41359174452E+03  0.00000000000E+00 0. -1.
         -4    1    1    2    0  503 -0.86844375481E+02  0.25292762295E+01  0.13755178029E+03  0.16269245542E+03  0.00000000000E+00 0.  1.
<mgrwt>
<rscale>  4 0.38555757E+03</rscale>
<asrwt>0</asrwt>
<pdfrwt beam="1">  1       21 0.65118277E-01 0.38555757E+03</pdfrwt>
<pdfrwt beam="2">  1       21 0.16742717E+00 0.38555757E+03</pdfrwt>
<totfact> 0.41283155E+02</totfact>
</mgrwt>
</event>
<event>
 5    0  0.1983912E-002  0.2038414E+03  0.7546771E-02  0.1146538E+00
         21   -1    0    0  503  502  0.00000000000E+00  0.00000000000E+00  0.16947811573E+04  0.16947811573E+04  0.00000000000E+00 0. -1.
         21   -1    0    0  501  503 -0.00000000000E+00 -0.00000000000E+00 -0.23425052894E+03  0.23425052894E+03  0.00000000000E+00 0.  1.
         25    1    1    2    0    0 -0.20626242690E+03 -0.87881938422E+02 -0.10173919961E+03  0.27612187271E+03  0.12500000000E+03 0.  0.
          1    1    1    2  501    0  0.75955005701E+02 -0.45583661118E+01 -0.61815600013E+01  0.76342342620E+02  0.00000000000E+00 0.  1.
         -1    1    1    2    0  502  0.13030742120E+03  0.92440304534E+02  0.15684513880E+04  0.15765674710E+04  0.00000000000E+00 0. -1.
<mgrwt>
<rscale>  4 0.20384138E+03</rscale>
<asrwt>0</asrwt>
<pdfrwt beam="1">  1       21 0.26073556E+00 0.20384138E+03</pdfrwt>
<pdfrwt beam="2">  1       21 0.36038544E-01 0.20384138E+03</pdfrwt>
<totfact> 0.42086898E+02</totfact>
</mgrwt>
</event>
<event>
 5    0  0.1972558E-002  0.3503638E+03  0.7546771E-02  0.1062466E+00
         21   -1    0    0  501  502  0.00000000000E+00  0.00000000000E+00  0.83328772669E+03  0.83328772669E+03  0.00000000000E+00 0. -1.
         21   -1    0    0  502  503 -0.00000000000E+00 -0.00000000000E+00 -0.31003590507E+03  0.31003590507E+03  0.00000000000E+00 0. -1.
         25    1    1    2    0    0  0.21600478496E+03 -0.23419845814E+03 -0.10895323461E+03  0.35916958703E+03  0.12500000000E+03 0.  0.
          3    1    1    2  501    0 -0.23405540042E+03  0.26983917266E+03  0.35332795800E+03  0.50242985129E+03  0.00000000000E+00 0. -1.
         -3    1    1    2    0  503  0.18050615465E+02 -0.35640714522E+02  0.27887709823E+03  0.28172419343E+03  0.00000000000E+00 0.  1.
<mgrwt>
<rscale>  4 0.35036378E+03</rscale>
<asrwt>0</asrwt>
<pdfrwt beam="1">  1       21 0.12819811E+00 0.35036378E+03</pdfrwt>
<pdfrwt beam="2">  1       21 0.47697832E-01 0.35036378E+03</pdfrwt>
<totfact> 0.16845949E+03</totfact>
</mgrwt>
</event>
<event>
 5    0  0.1972558E-002  0.2953449E+03  0.7546771E-02  0.1087591E+00
         21   -1    0    0  501  502  0.00000000000E+00  0.00000000000E+00  0.19495410805E+03  0.19495410805E+03  0.00000000000E+00 0. -1.
         21   -1    0    0  502  503 -0.00000000000E+00 -0.00000000000E+00 -0.42242180569E+03  0.42242180569E+03  0.00000000000E+00 0.  1.
         25    1    1    2    0    0 -0.16013053328E+03  0.21438705907E+03 -0.12618748122E+03  0.32117266260E+03  0.12500000000E+03 0.  0.
          3    1    1    2  501    0  0.71831813449E+02 -0.39881275421E+02 -0.21057893291E+02  0.84816038710E+02  0.00000000000E+00 0.  1.
         -3    1    1    2    0  503  0.88298719827E+02 -0.17450578365E+03 -0.80222323134E+02  0.21138721243E+03  0.00000000000E+00 0. -1.
<mgrwt>
<rscale>  4 0.29534488E+03</rscale>
<asrwt>0</asrwt>
<pdfrwt beam="1">  1       21 0.29992940E-01 0.29534488E+03</pdfrwt>
<pdfrwt beam="2">  1       21 0.64987969E-01 0.29534488E+03</pdfrwt>
<totfact> 0.22105219E+04</totfact>
</mgrwt>
</event>
<event>
 5    0  0.1972558E-002  0.2589177E+03  0.7546771E-02  0.1107795E+00
         21   -1    0    0  501  502  0.00000000000E+00  0.00000000000E+00  0.68438677901E+02  0.68438677901E+02  0.00000000000E+00 0.  1.
         21   -1    0    0  502  503 -0.00000000000E+00 -0.00000000000E+00 -0.12175857756E+04  0.12175857756E+04  0.00000000000E+00 0. -1.
         25    1    1    2    0    0  0.11540770478E+02  0.21402989033E+03 -0.74845026702E+03  0.78850794894E+03  0.12500000000E+03 0.  0.
          3    1    1    2  501    0 -0.13739712352E+02 -0.24921755719E+03 -0.38522020122E+03  0.45901282546E+03  0.00000000000E+00 0.  1.
         -3    1    1    2    0  503  0.21989418746E+01  0.35187666865E+02 -0.15476629453E+02  0.38503679097E+02  0.00000000000E+00 0. -1.
<mgrwt>
<rscale>  4 0.25891767E+03</rscale>
<asrwt>0</asrwt>
<pdfrwt beam="1">  1       21 0.10529027E-01 0.25891767E+03</pdfrwt>
<pdfrwt beam="2">  1       21 0.18732089E+00 0.25891767E+03</pdfrwt>
<totfact> 0.11482574E+04</totfact>
</mgrwt>
</event>
<event>
 5    0  0.1972558E-002  0.2580473E+03  0.7546771E-02  0.1108322E+00
         21   -1    0    0  503  502  0.00000000000E+00  0.00000000000E+00  0.10580825147E+03  0.10580825147E+03  0.00000000000E+00 0. -1.
         21   -1    0    0  501  503 -0.00000000000E+00 -0.00000000000E+00 -0.78372249414E+03  0.78372249414E+03  0.00000000000E+00 0. -1.
         25    1    1    2    0    0 -0.21117870579E+03 -0.82788719268E+02 -0.49382426621E+03  0.55761799084E+03  0.12500000000E+03 0.  0.
          1    1    1    2  501    0 -0.86957049920E+01  0.32510743926E+02  0.91812045565E+01  0.34883495711E+02  0.00000000000E+00 0.  1.
         -1    1    1    2    0  502  0.21987441078E+03  0.50277975342E+02 -0.19327118103E+03  0.29702925906E+03  0.00000000000E+00 0. -1.
<mgrwt>
<rscale>  4 0.25804728E+03</rscale>
<asrwt>0</asrwt>
<pdfrwt beam="1">  1       21 0.16278192E-01 0.25804728E+03</pdfrwt>
<pdfrwt beam="2">  1       21 0.12057269E+00 0.25804728E+03</pdfrwt>
<totfact> 0.16968299E+04</totfact>
</mgrwt>
</event>
<event>
 5    0  0.1972558E-002  0.2931692E+03  0.7546771E-02  0.1088706E+00
         21   -1    0    0  501  502  0.00000000000E+00  0.00000000000E+00  0.47168058482E+03  0.47168058482E+03  0.00000000000E+00 0.  1.
         21   -1    0    0  502  503 -0.00000000000E+00 -0.00000000000E+00 -0.28376196016E+03  0.28376196016E+03  0.00000000000E+00 0.  1.
         25    1    1    2    0    0  0.22722028445E+02  0.26023808504E+03 -0.10268846182E+03  0.30726221973E+03  0.12500000000E+03 0.  0.
          1    1    1    2  501    0  0.61857842480E+01 -0.27589072943E+03  0.17216541851E+03  0.32526126397E+03  0.00000000000E+00 0.  1.
         -1    1    1    2    0  503 -0.28907812693E+02  0.15652644385E+02  0.11844166797E+03  0.12291906127E+03  0.00000000000E+00 0. -1.
<mgrwt>
<rscale>  4 0.29316925E+03</rscale>
<asrwt>0</asrwt>
<pdfrwt beam="1">  1       21 0.72566244E-01 0.29316925E+03</pdfrwt>
<pdfrwt beam="2">  1       21 0.43655686E-01 0.29316925E+03</pdfrwt>
<totfact> 0.81289708E+03</totfact>
</mgrwt>
</event>
<event>
 5    0  0.1972558E-002  0.3280915E+03  0.7546771E-02  0.1071984E+00
         21   -1    0    0  501  502  0.00000000000E+00  0.00000000000E+00  0.11076193603E+04  0.11076193603E+04  0.00000000000E+00 0. -1.
         21   -1    0    0  502  503 -0.00000000000E+00 -0.00000000000E+00 -0.30629784809E+03  0.30629784809E+03  0.00000000000E+00 0. -1.
         25    1    1    2    0    0  0.29615485840E+03  0.64669359515E+02 -0.17266536655E+03  0.37057813619E+03  0.12500000000E+03 0.  0.
          3    1    1    2  501    0 -0.30366412328E+03 -0.37442651981E+02  0.65315516121E+03  0.72126660575E+03  0.00000000000E+00 0. -1.
         -3    1    1    2    0  503  0.75092648798E+01 -0.27226707534E+02  0.32083171750E+03  0.32207246641E+03  0.00000000000E+00 0.  1.
<mgrwt>
<rscale>  4 0.32809155E+03</rscale>
<asrwt>0</asrwt>
<pdfrwt beam="1">  1       21 0.17040298E+00 0.32809155E+03</pdfrwt>
<pdfrwt beam="2">  1       21 0.47122746E-01 0.32809155E+03</pdfrwt>
<totfact> 0.81570076E+02</totfact>
</mgrwt>
</event>
<event>
 5    0  0.1972558E-002  0.3251182E+03  0.7546771E-02  0.1073318E+00
         21   -1    0    0  501  502  0.00000000000E+00  0.00000000000E+00  0.91275539908E+03  0.91275539908E+03  0.00000000000E+00 0. -1.
         21   -1    0    0  502  503 -0.00000000000E+00 -0.00000000000E+00 -0.19730949269E+03  0.19730949269E+03  0.00000000000E+00 0.  1.
         25    1    1    2    0    0 -0.21440335785E+03 -0.18283573130E+03  0.38268261596E+03  0.49139463678E+03  0.12500000000E+03 0.  0.
          1    1    1    2  501    0  0.23064219325E+03  0.20274932389E+03  0.23114102423E+02  0.30795676868E+03  0.00000000000E+00 0. -1.
         -1    1    1    2    0  503 -0.16238835402E+02 -0.19913592594E+02  0.30964918800E+03  0.31071348631E+03  0.00000000000E+00 0.  1.
<mgrwt>
<rscale>  4 0.32511819E+03</rscale>
<asrwt>0</asrwt>
<pdfrwt beam="1">  1       21 0.14042390E+00 0.32511819E+03</pdfrwt>
<pdfrwt beam="2">  1       21 0.30355307E-01 0.32511819E+03</pdfrwt>
<totfact> 0.33798602E+03</totfact>
</mgrwt>
</event>
<event>
 5    0  0.1972558E-002  0.2496101E+03  0.7546771E-02  0.1113551E+00
         21   -1    0    0  501  502  0.00000000000E+00  0.00000000000E+00  0.12825408978E+04  0.12825408978E+04  0.00000000000E+00 0.  1.
         21   -1    0    0  502  503 -0.00000000000E+00 -0.00000000000E+00 -0.20398541689E+03  0.20398541689E+03  0.00000000000E+00 0.  1.
         25    1    1    2    0    0  0.63400433060E+02 -0.20912552947E+03 -0.10825213460E+03  0.27403763726E+03  0.12500000000E+03 0.  0.
          1    1    1    2  501    0 -0.48698210166E+02  0.18754222573E+03  0.74091586859E+03  0.76583283192E+03  0.00000000000E+00 0. -1.
         -1    1    1    2    0  503 -0.14702222894E+02  0.21583303741E+02  0.44589174694E+03  0.44665584553E+03  0.00000000000E+00 0.  1.
<mgrwt>
<rscale>  4 0.24961012E+03</rscale>
<asrwt>0</asrwt>
<pdfrwt beam="1">  1       21 0.19731398E+00 0.24961012E+03</pdfrwt>
<pdfrwt beam="2">  1       21 0.31382373E-01 0.24961012E+03</pdfrwt>
<totfact> 0.12902384E+03</totfact>
</mgrwt>
</event>
<event>
 5    0  0.1972558E-002  0.2490828E+03  0.7546771E-02  0.1113886E+00
         21   -1    0    0  503  502  0.00000000000E+00  0.00000000000E+00  0.14584228887E+03  0.14584228887E+03  0.00000000000E+00 0. -1.
         21   -1    0    0  501  503 -0.00000000000E+00 -0.00000000000E+00 -0.10127646605E+04  0.10127646605E+04  0.00000000000E+00 0. -1.
         25    1    1    2    0    0 -0.48588573473E+01 -0.25874776686E+03 -0.64585920193E+03  0.70691804621E+03  0.12500000000E+03 0.  0.
          2    1    1    2  501    0 -0.12321581660E+03  0.11581270007E+03 -0.14487907772E+02  0.16971923412E+03  0.00000000000E+00 0.  1.
         -2    1    1    2    0  502  0.12807467394E+03  0.14293506679E+03 -0.20657526198E+03  0.28196966909E+03  0.00000000000E+00 0. -1.
<mgrwt>
<rscale>  4 0.24908284E+03</rscale>
<asrwt>0</asrwt>
<pdfrwt beam="1">  1       21 0.22437275E-01 0.24908284E+03</pdfrwt>
<pdfrwt beam="2">  1       21 0.15580995E+00 0.24908284E+03</pdfrwt>
<totfact> 0.48135614E+03</totfact>
</mgrwt>
</event>
<event>
 5    0  0.1972558E-002  0.3080948E+03  0.7546771E-02  0.1081263E+00
         21   -1    0    0  503  502  0.00000000000E+00  0.00000000000E+00  0.83142893055E+03  0.83142893055E+03  0.00000000000E+00 0.  1.
         21   -1    0    0  501  503 -0.00000000000E+00 -0.00000000000E+00 -0.13938955987E+03  0.13938955987E+03  0.00000000000E+00 0.  1.
         25    1    1    2    0    0  0.74769247529E+02  0.26128088352E+03  0.15116434305E+03  0.33516234735E+03  0.12500000000E+03 0.  0.
          3    1    1    2  501    0 -0.24208895668E+02  0.20057768487E+02  0.10480235432E+02  0.33139403145E+02  0.00000000000E+00 0. -1.
         -3    1    1    2    0  502 -0.50560351862E+02 -0.28133865201E+03  0.53039479221E+03  0.60251673993E+03  0.00000000000E+00 0.  1.
<mgrwt>
<rscale>  4 0.30809482E+03</rscale>
<asrwt>0</asrwt>
<pdfrwt beam="1">  1       21 0.12791214E+00 0.30809482E+03</pdfrwt>
<pdfrwt beam="2">  1       21 0.21444548E-01 0.30809482E+03</pdfrwt>
<totfact> 0.85078390E+03</totfact>
</mgrwt>
</event>
<event>
 5    0  0.1972558E-002  0.1976100E+03  0.7546771E-02  0.1151771E+00
         21   -1    0    0  501  502  0.00000000000E+00  0.00000000000E+00  0.39601337930E+03  0.39601337930E+03  0.00000000000E+00 0.  1.
         21   -1    0    0  502  503 -0.00000000000E+00 -0.00000000000E+00 -0.17880325113E+03  0.17880325113E+03  0.00000000000E+00 0.  1.
         25    1    1    2    0    0 -0.19765395700E+03 -0.68255876068E+02  0.44392871630E+02  0.24763214328E+03  0.12500000000E+03 0.  0.
          1    1    1    2  501    0  0.77338848542E+02  0.10817419301E+03  0.30181147509E+02  0.13635928715E+03  0.00000000000E+00 0.  1.
         -1    1    1    2    0  503  0.12031510846E+03 -0.39918316943E+02  0.14263610903E+03  0.19082519999E+03  0.00000000000E+00 0. -1.
<mgrwt>
<rscale>  4 0.19760996E+03</rscale>
<asrwt>0</asrwt>
<pdfrwt beam="1">  1       21 0.60925135E-01 0.19760996E+03</pdfrwt>
<pdfrwt beam="2">  1       21 0.27508193E-01 0.19760996E+03</pdfrwt>
<totfact> 0.31526876E+04</totfact>
</mgrwt>
</event>
<event>
 5    0  0.1972558E-002  0.2173249E+03  0.7546771E-02  0.1135893E+00
         21   -1    0    0  503  502  0.00000000000E+00  0.00000000000E+00  0.82007766075E+03  0.82007766075E+03  0.00000000000E+00 0.  1.
         21   -1    0    0  501  503 -0.00000000000E+00 -0.00000000000E+00 -0.96911326523E+02  0.96911326523E+02  0.00000000000E+00 0.  1.
         25    1    1    2    0    0 -0.48805142309E+02  0.21520253420E+03  0.16606431430E+03  0.30314423815E+03  0.12500000000E+03 0.  0.
          1    1    1    2  501    0 -0.31733921922E+02 -0.65626696191E+02  0.84286794785E+02  0.11143683784E+03  0.00000000000E+00 0. -1.
         -1    1    1    2    0  502  0.80539064231E+02 -0.14957583801E+03  0.47281522515E+03  0.50240791128E+03  0.00000000000E+00 0.  1.
<mgrwt>
<rscale>  4 0.21732495E+03</rscale>
<asrwt>0</asrwt>
<pdfrwt beam="1">  1       21 0.12616579E+00 0.21732495E+03</pdfrwt>
<pdfrwt beam="2">  1       21 0.14909435E-01 0.21732495E+03</pdfrwt>
<totfact> 0.18196278E+04</totfact>
</mgrwt>
</event>
<event>
 5    0  0.1972558E-002  0.2696772E+03  0.7546771E-02  0.1101464E+00
         21   -1    0    0  503  502  0.00000000000E+00  0.00000000000E+00  0.25834580324E+03  0.25834580324E+03  0.00000000000E+00 0.  1.
         21   -1    0    0  501  503 -0.00000000000E+00 -0.00000000000E+00 -0.30773915429E+04  0.30773915429E+04  0.00000000000E+00 0. -1.
         25    1    1    2    0    0 -0.13999002548E+03  0.19324629893E+03 -0.29551380553E+04  0.29673906492E+04  0.12500000000E+03 0.  0.
          2    1    1    2  501    0  0.25725962018E+02  0.35258314971E+02 -0.39075073772E+02  0.58581868241E+02  0.00000000000E+00 0. -1.
         -2    1    1    2    0  502  0.11426406346E+03 -0.22850461390E+03  0.17516738941E+03  0.30976482868E+03  0.00000000000E+00 0.  1.
<mgrwt>
<rscale>  4 0.26967725E+03</rscale>
<asrwt>0</asrwt>
<pdfrwt beam="1">  1       21 0.39745510E-01 0.26967725E+03</pdfrwt>
<pdfrwt beam="2">  1       21 0.47344483E+00 0.26967725E+03</pdfrwt>
<totfact> 0.15431241E+01</totfact>
</mgrwt>
</event>
<event>
 5    0  0.1972558E-002  0.4635224E+03  0.7546771E-02  0.1024822E+00
         21   -1    0    0  501  502  0.00000000000E+00  0.00000000000E+00  0.43169945175E+03  0.43169945175E+03  0.00000000000E+00 0. -1.
         21   -1    0    0  502  503 -0.00000000000E+00 -0.00000000000E+00 -0.17073319998E+04  0.17073319998E+04  0.00000000000E+00 0. -1.
         25    1    1    2    0    0 -0.32651377346E+03  0.28178059820E+03 -0.15408838860E+04  0.16049796572E+04  0.12500000000E+03 0.  0.
          1    1    1    2  501    0  0.21478447019E+03 -0.22973221958E+03  0.26427124483E+03  0.41079015591E+03  0.00000000000E+00 0. -1.
         -1    1    1    2    0  503  0.11172930326E+03 -0.52048378623E+02  0.98009317554E+00  0.12326163843E+03  0.00000000000E+00 0.  1.
<mgrwt>
<rscale>  4 0.45985851E+03</rscale>
<asrwt>0</asrwt>
<pdfrwt beam="1">  1       21 0.66415301E-01 0.46352243E+03</pdfrwt>
<pdfrwt beam="2">  1       21 0.26266646E+00 0.46352243E+03</pdfrwt>
<totfact> 0.90260745E+01</totfact>
</mgrwt>
</event>
<event>
 5    0  0.1972558E-002  0.3714869E+03  0.7546771E-02  0.1054126E+00
         21   -1    0    0  501  502  0.00000000000E+00  0.00000000000E+00  0.29777908974E+04  0.29777908974E+04  0.00000000000E+00 0. -1.
         21   -1    0    0  502  503 -0.00000000000E+00 -0.00000000000E+00 -0.68326057472E+02  0.68326057472E+02  0.00000000000E+00 0. -1.
         25    1    1    2    0    0 -0.52469471006E+02 -0.34067644780E+03  0.75027118799E+03  0.83507205857E+03  0.12500000000E+03 0.  0.
          2    1    1    2  501    0  0.95632885257E+02  0.34658374054E+03  0.12465971110E+04  0.12974090701E+04  0.00000000000E+00 0. -1.
         -2    1    1    2    0  503 -0.43163414251E+02 -0.59072927400E+01  0.91259654091E+03  0.91363582620E+03  0.00000000000E+00 0.  1.
<mgrwt>
<rscale>  4 0.37148685E+03</rscale>
<asrwt>0</asrwt>
<pdfrwt beam="1">  1       21 0.45812158E+00 0.37148685E+03</pdfrwt>
<pdfrwt beam="2">  1       21 0.10511703E-01 0.37148685E+03</pdfrwt>
<totfact> 0.21985445E+02</totfact>
</mgrwt>
</event>
<event>
 5    0  0.1972558E-002  0.2149686E+03  0.7546771E-02  0.1137691E+00
         21   -1    0    0  503  502  0.00000000000E+00  0.00000000000E+00  0.10516578703E+04  0.10516578703E+04  0.00000000000E+00 0. -1.
         21   -1    0    0  501  503 -0.00000000000E+00 -0.00000000000E+00 -0.51333247116E+02  0.51333247116E+02  0.00000000000E+00 0.  1.
         25    1    1    2    0    0 -0.20037733918E+03 -0.22606456077E+01  0.41131660728E+03  0.47430216108E+03  0.12500000000E+03 0.  0.
          2    1    1    2  501    0  0.45564507053E+02 -0.12882050579E+02  0.26595101255E+03  0.27013332377E+03  0.00000000000E+00 0. -1.
         -2    1    1    2    0  502  0.15481283213E+03  0.15142696187E+02  0.32305700337E+03  0.35855563259E+03  0.00000000000E+00 0.  1.
<mgrwt>
<rscale>  4 0.21496857E+03</rscale>
<asrwt>0</asrwt>
<pdfrwt beam="1">  1       21 0.16179350E+00 0.21496857E+03</pdfrwt>
<pdfrwt beam="2">  1       21 0.78974234E-02 0.21496857E+03</pdfrwt>
<totfact> 0.29553171E+04</totfact>
</mgrwt>
</event>
<event>
 5    0  0.1972558E-002  0.2750622E+03  0.7546771E-02  0.1098417E+00
         21   -1    0    0  501  502  0.00000000000E+00  0.00000000000E+00  0.12192226144E+03  0.12192226144E+03  0.00000000000E+00 0.  1.
         21   -1    0    0  502  503 -0.00000000000E+00 -0.00000000000E+00 -0.98679164606E+03  0.98679164606E+03  0.00000000000E+00 0. -1.
         25    1    1    2    0    0 -0.17779271082E+03  0.13826897204E+03 -0.39274460182E+03  0.46968274283E+03  0.12500000000E+03 0.  0.
          4    1    1    2  501    0  0.26196328839E+03 -0.76573963292E+02 -0.45877759854E+03  0.53382133832E+03  0.00000000000E+00 0. -1.
         -4    1    1    2    0  503 -0.84170577571E+02 -0.61695008752E+02 -0.13347184262E+02  0.10520982635E+03  0.00000000000E+00 0.  1.
<mgrwt>
<rscale>  4 0.27506219E+03</rscale>
<asrwt>0</asrwt>
<pdfrwt beam="1">  1       21 0.18757272E-01 0.27506219E+03</pdfrwt>
<pdfrwt beam="2">  1       21 0.15181409E+00 0.27506219E+03</pdfrwt>
<totfact> 0.71192696E+03</totfact>
</mgrwt>
</event>
<event>
 5    0  0.1972558E-002  0.2870331E+03  0.7546771E-02  0.1091908E+00
         21   -1    0    0  501  502  0.00000000000E+00  0.00000000000E+00  0.39993824100E+03  0.39993824100E+03  0.00000000000E+00 0.  1.
         21   -1    0    0  502  503 -0.00000000000E+00 -0.00000000000E+00 -0.95347190715E+03  0.95347190715E+03  0.00000000000E+00 0.  1.
         25    1    1    2    0    0  0.48345126120E+02 -0.27619885347E+03 -0.59497493225E+03  0.66950969215E+03  0.12500000000E+03 0.  0.
          4    1    1    2  501    0 -0.13698001371E+02  0.45514122547E+02  0.31832278695E+03  0.32185177844E+03  0.00000000000E+00 0.  1.
         -4    1    1    2    0  503 -0.34647124750E+02  0.23068473092E+03 -0.27688152086E+03  0.36204867756E+03  0.00000000000E+00 0. -1.
<mgrwt>
<rscale>  4 0.28703308E+03</rscale>
<asrwt>0</asrwt>
<pdfrwt beam="1">  1       21 0.61528960E-01 0.28703308E+03</pdfrwt>
<pdfrwt beam="2">  1       21 0.14668799E+00 0.28703308E+03</pdfrwt>
<totfact> 0.71497960E+02</totfact>
</mgrwt>
</event>
<event>
 5    0  0.1972558E-002  0.3585258E+03  0.7546771E-02  0.1059169E+00
         21   -1    0    0  503  502  0.00000000000E+00  0.00000000000E+00  0.28111924005E+03  0.28111924005E+03  0.00000000000E+00 0.  1.
         21   -1    0    0  501  503 -0.00000000000E+00 -0.00000000000E+00 -0.50173154095E+03  0.50173154095E+03  0.00000000000E+00 0.  1.
         25    1    1    2    0    0  0.27923325518E+03  0.15746139853E+03 -0.99213421245E+02  0.35809720158E+03  0.12500000000E+03 0.  0.
          1    1    1    2  501    0  0.40953115874E+01  0.53031240226E+02 -0.25557595983E+02  0.59010801802E+02  0.00000000000E+00 0. -1.
         -1    1    1    2    0  502 -0.28332856677E+03 -0.21049263876E+03 -0.95841283672E+02  0.36574277761E+03  0.00000000000E+00 0.  1.
<mgrwt>
<rscale>  4 0.35852584E+03</rscale>
<asrwt>0</asrwt>
<pdfrwt beam="1">  1       21 0.43249115E-01 0.35852584E+03</pdfrwt>
<pdfrwt beam="2">  1       21 0.77189467E-01 0.35852584E+03</pdfrwt>
<totfact> 0.70042236E+03</totfact>
</mgrwt>
</event>
<event>
 5    0  0.1972558E-002  0.2281043E+03  0.7546771E-02  0.1127981E+00
         21   -1    0    0  501  502  0.00000000000E+00  0.00000000000E+00  0.66030746772E+03  0.66030746772E+03  0.00000000000E+00 0. -1.
         21   -1    0    0  502  503 -0.00000000000E+00 -0.00000000000E+00 -0.14910540497E+03  0.14910540497E+03  0.00000000000E+00 0.  1.
         25    1    1    2    0    0 -0.70734733616E+02  0.18855240414E+03 -0.98887827907E+01  0.23723026719E+03  0.12500000000E+03 0.  0.
          1    1    1    2  501    0  0.96617505898E+02 -0.13464467114E+03  0.29547777379E+03  0.33877905000E+03  0.00000000000E+00 0. -1.
         -1    1    1    2    0  503 -0.25882772281E+02 -0.53907732999E+02  0.22561307175E+03  0.23340355551E+03  0.00000000000E+00 0.  1.
<mgrwt>
<rscale>  4 0.22810427E+03</rscale>
<asrwt>0</asrwt>
<pdfrwt beam="1">  1       21 0.10158576E+00 0.22810427E+03</pdfrwt>
<pdfrwt beam="2">  1       21 0.22939293E-01 0.22810427E+03</pdfrwt>
<totfact> 0.13791127E+04</totfact>
</mgrwt>
</event>
<event>
 5    0  0.1972558E-002  0.2784285E+03  0.7546771E-02  0.1096550E+00
         21   -1    0    0  501  502  0.00000000000E+00  0.00000000000E+00  0.14531755609E+03  0.14531755609E+03  0.00000000000E+00 0.  1.
         21   -1    0    0  502  503 -0.00000000000E+00 -0.00000000000E+00 -0.94494450374E+03  0.94494450374E+03  0.00000000000E+00 0.  1.
         25    1    1    2    0    0  0.26895602478E+03 -0.31541152097E+02 -0.13968837627E+03  0.32934788599E+03  0.12500000000E+03 0.  0.
          3    1    1    2  501    0 -0.17657429513E+03  0.13975660975E+03 -0.49004399135E+03  0.53930835811E+03  0.00000000000E+00 0.  1.
         -3    1    1    2    0  503 -0.92381729643E+02 -0.10821545765E+03 -0.16989458002E+03  0.22160581573E+03  0.00000000000E+00 0. -1.
<mgrwt>
<rscale>  4 0.27842854E+03</rscale>
<asrwt>0</asrwt>
<pdfrwt beam="1">  1       21 0.22356548E-01 0.27842854E+03</pdfrwt>
<pdfrwt beam="2">  1       21 0.14537607E+00 0.27842854E+03</pdfrwt>
<totfact> 0.57244977E+03</totfact>
</mgrwt>
</event>
<event>
 5    0  0.1972558E-002  0.2513050E+03  0.7546771E-02  0.1112483E+00
         21   -1    0    0  501  502  0.00000000000E+00  0.00000000000E+00  0.18399468469E+03  0.18399468469E+03  0.00000000000E+00 0.  1.
         21   -1    0    0  502  503 -0.00000000000E+00 -0.00000000000E+00 -0.20640710983E+04  0.20640710983E+04  0.00000000000E+00 0.  1.
         25    1    1    2    0    0 -0.59604602115E+02 -0.20158366121E+03 -0.74163818394E+03  0.78092309285E+03  0.12500000000E+03 0.  0.
          4    1    1    2  501    0  0.23041608565E+02  0.22180223114E+03 -0.12904079451E+04  0.13095341959E+04  0.00000000000E+00 0. -1.
         -4    1    1    2    0  503  0.36562993550E+02 -0.20218569928E+02  0.15196971540E+03  0.15760849427E+03  0.00000000000E+00 0.  1.
<mgrwt>
<rscale>  4 0.25130497E+03</rscale>
<asrwt>0</asrwt>
<pdfrwt beam="1">  1       21 0.28306876E-01 0.25130497E+03</pdfrwt>
<pdfrwt beam="2">  1       21 0.31754938E+00 0.25130497E+03</pdfrwt>
<totfact> 0.29809129E+02</totfact>
</mgrwt>
</event>
<event>
 5    0  0.1972558E-002  0.2865236E+03  0.7546771E-02  0.1092178E+00
         21   -1    0    0  501  502  0.00000000000E+00  0.00000000000E+00  0.89524756937E+03  0.89524756937E+03  0.00000000000E+00 0. -1.
         21   -1    0    0  502  503 -0.00000000000E+00 -0.00000000000E+00 -0.28435192000E+03  0.28435192000E+03  0.00000000000E+00 0.  1.
         25    1    1    2    0    0  0.25923469828E+03  0.17940661345E+02 -0.18196087296E+03  0.34096811495E+03  0.12500000000E+03 0.  0.
          1    1    1    2  501    0 -0.19541460844E+02  0.91137489649E+01  0.15852548731E+03  0.15998518444E+03  0.00000000000E+00 0.  1.
         -1    1    1    2    0  503 -0.23969323743E+03 -0.27054410310E+02  0.63433103502E+03  0.67864618998E+03  0.00000000000E+00 0. -1.
<mgrwt>
<rscale>  4 0.28652365E+03</rscale>
<asrwt>0</asrwt>
<pdfrwt beam="1">  1       21 0.13773039E+00 0.28652365E+03</pdfrwt>
<pdfrwt beam="2">  1       21 0.43746450E-01 0.28652365E+03</pdfrwt>
<totfact> 0.17393141E+03</totfact>
</mgrwt>
</event>
<event>
 5    0  0.1972558E-002  0.3061353E+03  0.7546771E-02  0.1082213E+00
         21   -1    0    0  501  502  0.00000000000E+00  0.00000000000E+00  0.20824431347E+03  0.20824431347E+03  0.00000000000E+00 0. -1.
         21   -1    0    0  502  503 -0.00000000000E+00 -0.00000000000E+00 -0.82406309906E+03  0.82406309906E+03  0.00000000000E+00 0.  1.
         25    1    1    2    0    0 -0.46709621894E+02  0.28923941971E+03 -0.45531095524E+03  0.55567463200E+03  0.12500000000E+03 0.  0.
          1    1    1    2  501    0  0.12447931686E+03 -0.24027043148E+03 -0.23494740345E+03  0.35836470663E+03  0.00000000000E+00 0. -1.
         -1    1    1    2    0  503 -0.77769694964E+02 -0.48968988228E+02  0.74439573095E+02  0.11826807391E+03  0.00000000000E+00 0.  1.
<mgrwt>
<rscale>  4 0.30613534E+03</rscale>
<asrwt>0</asrwt>
<pdfrwt beam="1">  1       21 0.32037586E-01 0.30613534E+03</pdfrwt>
<pdfrwt beam="2">  1       21 0.12677894E+00 0.30613534E+03</pdfrwt>
<totfact> 0.39965362E+03</totfact>
</mgrwt>
</event>
<event>
 5    0  0.1972558E-002  0.3948727E+03  0.7546771E-02  0.1045570E+00
         21   -1    0    0  501  502  0.00000000000E+00  0.00000000000E+00  0.21801901499E+03  0.21801901499E+03  0.00000000000E+00 0. -1.
         21   -1    0    0  502  503 -0.00000000000E+00 -0.00000000000E+00 -0.86003196810E+03  0.86003196810E+03  0.00000000000E+00 0.  1.
         25    1    1    2    0    0  0.29826681327E+03 -0.18798848696E+03 -0.28364148287E+03  0.46944675303E+03  0.12500000000E+03 0.  0.
          4    1    1    2  501    0 -0.32062756498E+03  0.22978228311E+03 -0.38751281738E+03  0.55296303375E+03  0.00000000000E+00 0. -1.
         -4    1    1    2    0  503  0.22360751709E+02 -0.41793796146E+02  0.29141347148E+02  0.55641196311E+02  0.00000000000E+00 0.  1.
<mgrwt>
<rscale>  4 0.39487269E+03</rscale>
<asrwt>0</asrwt>
<pdfrwt beam="1">  1       21 0.33541387E-01 0.39487269E+03</pdfrwt>
<pdfrwt beam="2">  1       21 0.13231261E+00 0.39487269E+03</pdfrwt>
<totfact> 0.31325651E+03</totfact>
</mgrwt>
</event>
<event>
 5    0  0.1972558E-002  0.2405321E+03  0.7546771E-02  0.1119439E+00
         21   -1    0    0  501  502  0.00000000000E+00  0.00000000000E+00  0.14596944491E+04  0.14596944491E+04  0.00000000000E+00 0.  1.
         21   -1    0    0  502  503 -0.00000000000E+00 -0.00000000000E+00 -0.53746391729E+02  0.53746391729E+02  0.00000000000E+00 0. -1.
         25    1    1    2    0    0  0.19592154618E+03  0.91906003585E+02  0.39617934121E+03  0.46841758736E+03  0.12500000000E+03 0.  0.
          1    1    1    2  501    0 -0.20615659093E+02 -0.13393359347E+02  0.49458157443E+03  0.49519220636E+03  0.00000000000E+00 0. -1.
         -1    1    1    2    0  503 -0.17530588709E+03 -0.78512644237E+02  0.51518714177E+03  0.54983104714E+03  0.00000000000E+00 0.  1.
<mgrwt>
<rscale>  4 0.24053211E+03</rscale>
<asrwt>0</asrwt>
<pdfrwt beam="1">  1       21 0.22456835E+00 0.24053211E+03</pdfrwt>
<pdfrwt beam="2">  1       21 0.82686768E-02 0.24053211E+03</pdfrwt>
<totfact> 0.10277496E+04</totfact>
</mgrwt>
</event>
<event>
 5    0  0.1972558E-002  0.2593363E+03  0.7546771E-02  0.1107543E+00
         21   -1    0    0  501  502  0.00000000000E+00  0.00000000000E+00  0.94410383777E+02  0.94410383777E+02  0.00000000000E+00 0.  1.
         21   -1    0    0  502  503 -0.00000000000E+00 -0.00000000000E+00 -0.10263523870E+04  0.10263523870E+04  0.00000000000E+00 0.  1.
         25    1    1    2    0    0 -0.18033323914E+03  0.12079797623E+03 -0.67117881293E+03  0.71639250912E+03  0.12500000000E+03 0.  0.
          1    1    1    2  501    0  0.19784771373E+03 -0.15210259591E+03 -0.26965494769E+03  0.36741353857E+03  0.00000000000E+00 0.  1.
         -1    1    1    2    0  503 -0.17514474588E+02  0.31304619671E+02  0.88917573823E+01  0.36956723098E+02  0.00000000000E+00 0. -1.
<mgrwt>
<rscale>  4 0.25933631E+03</rscale>
<asrwt>0</asrwt>
<pdfrwt beam="1">  1       21 0.14524675E-01 0.25933631E+03</pdfrwt>
<pdfrwt beam="2">  1       21 0.15790036E+00 0.25933631E+03</pdfrwt>
<totfact> 0.10369983E+04</totfact>
</mgrwt>
</event>
<event>
 5    0  0.1972558E-002  0.2355163E+03  0.7546771E-02  0.1122816E+00
         21   -1    0    0  501  502  0.00000000000E+00  0.00000000000E+00  0.72929689546E+02  0.72929689546E+02  0.00000000000E+00 0. -1.
         21   -1    0    0  502  503 -0.00000000000E+00 -0.00000000000E+00 -0.94340178396E+03  0.94340178396E+03  0.00000000000E+00 0.  1.
         25    1    1    2    0    0 -0.70421654541E+02  0.20073071167E+03 -0.66547390608E+03  0.70974118361E+03  0.12500000000E+03 0.  0.
          2    1    1    2  501    0  0.12301424400E+02 -0.30724136210E+02  0.11762378904E+01  0.33116176163E+02  0.00000000000E+00 0.  1.
         -2    1    1    2    0  503  0.58120230141E+02 -0.17000657546E+03 -0.20617442622E+03  0.27347411373E+03  0.00000000000E+00 0. -1.
<mgrwt>
<rscale>  4 0.23551633E+03</rscale>
<asrwt>0</asrwt>
<pdfrwt beam="1">  1       21 0.11219954E-01 0.23551633E+03</pdfrwt>
<pdfrwt beam="2">  1       21 0.14513872E+00 0.23551633E+03</pdfrwt>
<totfact> 0.20992513E+04</totfact>
</mgrwt>
</event>
<event>
 5    0  0.1972558E-002  0.2179097E+03  0.7546771E-02  0.1135451E+00
         21   -1    0    0  501  502  0.00000000000E+00  0.00000000000E+00  0.30116372305E+03  0.30116372305E+03  0.00000000000E+00 0.  1.
         21   -1    0    0  502  503 -0.00000000000E+00 -0.00000000000E+00 -0.23936798780E+03  0.23936798780E+03  0.00000000000E+00 0. -1.
         25    1    1    2    0    0 -0.15047553326E+03  0.16574806517E+03 -0.21056177042E+02  0.25726187010E+03  0.12500000000E+03 0.  0.
          4    1    1    2  501    0  0.12667459184E+03 -0.87195381704E+02 -0.16194129925E+02  0.15463420272E+03  0.00000000000E+00 0. -1.
         -4    1    1    2    0  503  0.23800941417E+02 -0.78552683464E+02  0.99046042216E+02  0.12863563803E+03  0.00000000000E+00 0.  1.
<mgrwt>
<rscale>  4 0.21790972E+03</rscale>
<asrwt>0</asrwt>
<pdfrwt beam="1">  1       21 0.46332880E-01 0.21790972E+03</pdfrwt>
<pdfrwt beam="2">  1       21 0.36825844E-01 0.21790972E+03</pdfrwt>
<totfact> 0.31311887E+04</totfact>
</mgrwt>
</event>
<event>
 5    0  0.1972558E-002  0.2612327E+03  0.7546771E-02  0.1106405E+00
         21   -1    0    0  501  502  0.00000000000E+00  0.00000000000E+00  0.31663579158E+03  0.31663579158E+03  0.00000000000E+00 0.  1.
         21   -1    0    0  502  503 -0.00000000000E+00 -0.00000000000E+00 -0.10598760952E+04  0.10598760952E+04  0.00000000000E+00 0. -1.
         25    1    1    2    0    0 -0.18565692052E+02 -0.22718433988E+03 -0.96374067377E+03  0.99818760536E+03  0.12500000000E+03 0.  0.
          1    1    1    2  501    0  0.36896539914E+02  0.24355147218E+03  0.11839963124E+03  0.27330778791E+03  0.00000000000E+00 0.  1.
         -1    1    1    2    0  503 -0.18330847862E+02 -0.16367132290E+02  0.10210073896E+03  0.10501649346E+03  0.00000000000E+00 0. -1.
<mgrwt>
<rscale>  4 0.26123265E+03</rscale>
<asrwt>0</asrwt>
<pdfrwt beam="1">  1       21 0.48713199E-01 0.26123265E+03</pdfrwt>
<pdfrwt beam="2">  1       21 0.16305786E+00 0.26123265E+03</pdfrwt>
<totfact> 0.90217907E+02</totfact>
</mgrwt>
</event>
<event>
 5    0  0.1972558E-002  0.5019584E+03  0.7546771E-02  0.1013269E+00
         21   -1    0    0  501  502  0.00000000000E+00  0.00000000000E+00  0.27203331727E+04  0.27203331727E+04  0.00000000000E+00 0. -1.
         21   -1    0    0  502  503 -0.00000000000E+00 -0.00000000000E+00 -0.70616818628E+03  0.70616818628E+03  0.00000000000E+00 0.  1.
         25    1    1    2    0    0 -0.53626710354E+02 -0.48044175410E+03 -0.48149542176E+03  0.69365909806E+03  0.12500000000E+03 0.  0.
          2    1    1    2  501    0 -0.43669079216E+03  0.21657430595E+02  0.11114887768E+04  0.11943932322E+04  0.00000000000E+00 0. -1.
         -2    1    1    2    0  503  0.49031750252E+03  0.45878432350E+03  0.13841716314E+04  0.15384490288E+04  0.00000000000E+00 0.  1.
<mgrwt>
<rscale>  4 0.50195841E+03</rscale>
<asrwt>0</asrwt>
<pdfrwt beam="1">  1       21 0.41851279E+00 0.50195841E+03</pdfrwt>
<pdfrwt beam="2">  1       21 0.10864126E+00 0.50195841E+03</pdfrwt>
<totfact> 0.30038656E+00</totfact>
</mgrwt>
</event>
<event>
 5    0  0.1972558E-002  0.5554856E+03  0.7546771E-02  0.1001126E+00
         21   -1    0    0  501  502  0.00000000000E+00  0.00000000000E+00  0.62434116833E+03  0.62434116833E+03  0.00000000000E+00 0.  1.
         21   -1    0    0  502  503 -0.00000000000E+00 -0.00000000000E+00 -0.63347532510E+03  0.63347532510E+03  0.00000000000E+00 0. -1.
         25    1    1    2    0    0  0.48912743127E+03  0.19186239569E+03 -0.31343868099E+03  0.62444025306E+03  0.12500000000E+03 0.  0.
          1    1    1    2  501    0 -0.67117432450E+02 -0.36360172037E+02  0.13055464476E+03  0.15123269196E+03  0.00000000000E+00 0. -1.
         -1    1    1    2    0  503 -0.42200999882E+03 -0.15550222366E+03  0.17374987946E+03  0.48214354841E+03  0.00000000000E+00 0.  1.
<mgrwt>
<rscale>  4 0.55159238E+03</rscale>
<asrwt>0</asrwt>
<pdfrwt beam="1">  1       21 0.96052487E-01 0.55548557E+03</pdfrwt>
<pdfrwt beam="2">  1       21 0.97457742E-01 0.55548557E+03</pdfrwt>
<totfact> 0.63680178E+02</totfact>
</mgrwt>
</event>
<event>
 5    0  0.1972558E-002  0.3222282E+03  0.7546771E-02  0.1074628E+00
         21   -1    0    0  501  502  0.00000000000E+00  0.00000000000E+00  0.14884029048E+04  0.14884029048E+04  0.00000000000E+00 0. -1.
         21   -1    0    0  502  503 -0.00000000000E+00 -0.00000000000E+00 -0.13808124030E+03  0.13808124030E+03  0.00000000000E+00 0.  1.
         25    1    1    2    0    0  0.16576544802E+03  0.20976961776E+03  0.32980169941E+03  0.44257839670E+03  0.12500000000E+03 0.  0.
          4    1    1    2  501    0 -0.18934328814E+03 -0.26007295842E+03  0.23986874148E+03  0.40128024822E+03  0.00000000000E+00 0.  1.
         -4    1    1    2    0  503  0.23577840121E+02  0.50303340662E+02  0.78065122361E+03  0.78262550019E+03  0.00000000000E+00 0. -1.
<mgrwt>
<rscale>  4 0.32222816E+03</rscale>
<asrwt>0</asrwt>
<pdfrwt beam="1">  1       21 0.22898505E+00 0.32222816E+03</pdfrwt>
<pdfrwt beam="2">  1       21 0.21243269E-01 0.32222816E+03</pdfrwt>
<totfact> 0.16356690E+03</totfact>
</mgrwt>
</event>
<event>
 5    0  0.1972558E-002  0.2456887E+03  0.7546771E-02  0.1116060E+00
         21   -1    0    0  501  502  0.00000000000E+00  0.00000000000E+00  0.51089923450E+03  0.51089923450E+03  0.00000000000E+00 0.  1.
         21   -1    0    0  502  503 -0.00000000000E+00 -0.00000000000E+00 -0.24266570609E+03  0.24266570609E+03  0.00000000000E+00 0. -1.
         25    1    1    2    0    0  0.20064350909E+03  0.35585119177E+01  0.45253055989E+02  0.24071418700E+03  0.12500000000E+03 0.  0.
          1    1    1    2  501    0 -0.19019071495E+03  0.16067676279E+03  0.17497679717E+02  0.24959106344E+03  0.00000000000E+00 0.  1.
         -1    1    1    2    0  503 -0.10452794140E+02 -0.16423527470E+03  0.20548279270E+03  0.26325969015E+03  0.00000000000E+00 0. -1.
<mgrwt>
<rscale>  4 0.24568875E+03</rscale>
<asrwt>0</asrwt>
<pdfrwt beam="1">  1       21 0.78599882E-01 0.24568875E+03</pdfrwt>
<pdfrwt beam="2">  1       21 0.37333185E-01 0.24568875E+03</pdfrwt>
<totfact> 0.95742931E+03</totfact>
</mgrwt>
</event>
<event>
 5    0  0.1972558E-002  0.2223252E+03  0.7546771E-02  0.1132161E+00
         21   -1    0    0  501  502  0.00000000000E+00  0.00000000000E+00  0.12945029358E+04  0.12945029358E+04  0.00000000000E+00 0.  1.
         21   -1    0    0  502  503 -0.00000000000E+00 -0.00000000000E+00 -0.12952624819E+03  0.12952624819E+03  0.00000000000E+00 0.  1.
         25    1    1    2    0    0 -0.11142024704E+03 -0.20144021946E+03  0.85020718091E+02  0.27540180822E+03  0.12500000000E+03 0.  0.
          3    1    1    2  501    0  0.82594424634E+02  0.11720415133E+03  0.12705636800E+03  0.19157758929E+03  0.00000000000E+00 0. -1.
         -3    1    1    2    0  503  0.28825822409E+02  0.84236068134E+02  0.95289960149E+03  0.95704978644E+03  0.00000000000E+00 0.  1.
<mgrwt>
<rscale>  4 0.22232523E+03</rscale>
<asrwt>0</asrwt>
<pdfrwt beam="1">  1       21 0.19915429E+00 0.22232523E+03</pdfrwt>
<pdfrwt beam="2">  1       21 0.19927116E-01 0.22232523E+03</pdfrwt>
<totfact> 0.30732073E+03</totfact>
</mgrwt>
</event>
<event>
 5    0  0.1972558E-002  0.2595979E+03  0.7546771E-02  0.1107385E+00
         21   -1    0    0  501  502  0.00000000000E+00  0.00000000000E+00  0.24719166870E+03  0.24719166870E+03  0.00000000000E+00 0.  1.
         21   -1    0    0  502  503 -0.00000000000E+00 -0.00000000000E+00 -0.55922567120E+03  0.55922567120E+03  0.00000000000E+00 0.  1.
         25    1    1    2    0    0  0.20293624595E+03  0.10419746855E+03 -0.34675177001E+03  0.43347666878E+03  0.12500000000E+03 0.  0.
          2    1    1    2  501    0 -0.17406883976E+02  0.28326745891E+02  0.12377699208E+03  0.12816453453E+03  0.00000000000E+00 0. -1.
         -2    1    1    2    0  503 -0.18552936197E+03 -0.13252421444E+03 -0.89059224565E+02  0.24477613660E+03  0.00000000000E+00 0.  1.
<mgrwt>
<rscale>  4 0.25959792E+03</rscale>
<asrwt>0</asrwt>
<pdfrwt beam="1">  1       21 0.38029487E-01 0.25959792E+03</pdfrwt>
<pdfrwt beam="2">  1       21 0.86034719E-01 0.25959792E+03</pdfrwt>
<totfact> 0.74415188E+03</totfact>
</mgrwt>
</event>
<event>
 5    0  0.1972558E-002  0.2893881E+03  0.7546771E-02  0.1090669E+00
         21   -1    0    0  501  502  0.00000000000E+00  0.00000000000E+00  0.12581154249E+04  0.12581154249E+04  0.00000000000E+00 0. -1.
         21   -1    0    0  502  503 -0.00000000000E+00 -0.00000000000E+00 -0.66470534317E+03  0.66470534317E+03  0.00000000000E+00 0.  1.
         25    1    1    2    0    0  0.22347611483E+03 -0.13482922286E+03 -0.61622634693E+03  0.68079395112E+03  0.12500000000E+03 0.  0.
          1    1    1    2  501    0 -0.78919515193E+02 -0.70394796030E+01  0.34737001223E+03  0.35629169167E+03  0.00000000000E+00 0.  1.
         -1    1    1    2    0  503 -0.14455659963E+03  0.14186870246E+03  0.86226641639E+03  0.88573512523E+03  0.00000000000E+00 0. -1.
<mgrwt>
<rscale>  4 0.28938814E+03</rscale>
<asrwt>0</asrwt>
<pdfrwt beam="1">  1       21 0.19355622E+00 0.28938814E+03</pdfrwt>
<pdfrwt beam="2">  1       21 0.10226236E+00 0.28938814E+03</pdfrwt>
<totfact> 0.10287057E+02</totfact>
</mgrwt>
</event>
<event>
 5    0  0.1972558E-002  0.2849706E+03  0.7546771E-02  0.1093005E+00
         21   -1    0    0  501  502  0.00000000000E+00  0.00000000000E+00  0.41125063392E+03  0.41125063392E+03  0.00000000000E+00 0. -1.
         21   -1    0    0  502  503 -0.00000000000E+00 -0.00000000000E+00 -0.18254974592E+03  0.18254974592E+03  0.00000000000E+00 0. -1.
         25    1    1    2    0    0  0.21118027570E+03 -0.14486589685E+03  0.10147912864E+03  0.30250000077E+03  0.12500000000E+03 0.  0.
          4    1    1    2  501    0 -0.18125068800E+03  0.12547037910E+03  0.85574237017E+02  0.23646897888E+03  0.00000000000E+00 0. -1.
         -4    1    1    2    0  503 -0.29929587708E+02  0.19395517749E+02  0.41647522340E+02  0.54831400184E+02  0.00000000000E+00 0.  1.
<mgrwt>
<rscale>  4 0.28497059E+03</rscale>
<asrwt>0</asrwt>
<pdfrwt beam="1">  1       21 0.63269328E-01 0.28497059E+03</pdfrwt>
<pdfrwt beam="2">  1       21 0.28084576E-01 0.28497059E+03</pdfrwt>
<totfact> 0.26778973E+04</totfact>
</mgrwt>
</event>
<event>
 5    0  0.1972558E-002  0.2839123E+03  0.7546771E-02  0.1093571E+00
         21   -1    0    0  501  502  0.00000000000E+00  0.00000000000E+00  0.43820903438E+03  0.43820903438E+03  0.00000000000E+00 0.  1.
         21   -1    0    0  502  503 -0.00000000000E+00 -0.00000000000E+00 -0.11205158743E+04  0.11205158743E+04  0.00000000000E+00 0. -1.
         25    1    1    2    0    0  0.18787687118E+03  0.96896158664E+02 -0.30002023528E+02  0.24740999516E+03  0.12500000000E+03 0.  0.
          2    1    1    2  501    0  0.47278583420E+02  0.18467700843E+02  0.30993437236E+03  0.31406310766E+03  0.00000000000E+00 0.  1.
         -2    1    1    2    0  503 -0.23515545460E+03 -0.11536385951E+03 -0.96223918872E+03  0.99725180583E+03  0.00000000000E+00 0. -1.
<mgrwt>
<rscale>  4 0.28391230E+03</rscale>
<asrwt>0</asrwt>
<pdfrwt beam="1">  1       21 0.67416775E-01 0.28391230E+03</pdfrwt>
<pdfrwt beam="2">  1       21 0.17238706E+00 0.28391230E+03</pdfrwt>
<totfact> 0.37731634E+02</totfact>
</mgrwt>
</event>
<event>
 5    0  0.1972558E-002  0.2482986E+03  0.7546771E-02  0.1114385E+00
         21   -1    0    0  501  502  0.00000000000E+00  0.00000000000E+00  0.55403369821E+03  0.55403369821E+03  0.00000000000E+00 0.  1.
         21   -1    0    0  502  503 -0.00000000000E+00 -0.00000000000E+00 -0.12095570501E+04  0.12095570501E+04  0.00000000000E+00 0. -1.
         25    1    1    2    0    0  0.57945206643E+01 -0.21516616343E+03 -0.11716678079E+04  0.11978148882E+04  0.12500000000E+03 0.  0.
          1    1    1    2  501    0  0.21096489327E+02  0.23349523275E+02  0.13026905461E+03  0.13401600161E+03  0.00000000000E+00 0. -1.
         -1    1    1    2    0  503 -0.26891009991E+02  0.19181664016E+03  0.38587540148E+03  0.43175985840E+03  0.00000000000E+00 0.  1.
<mgrwt>
<rscale>  4 0.24829864E+03</rscale>
<asrwt>0</asrwt>
<pdfrwt beam="1">  1       21 0.85235955E-01 0.24829864E+03</pdfrwt>
<pdfrwt beam="2">  1       21 0.18608570E+00 0.24829864E+03</pdfrwt>
<totfact> 0.18462180E+02</totfact>
</mgrwt>
</event>
<event>
 5    0  0.1972558E-002  0.2527799E+03  0.7546771E-02  0.1111560E+00
         21   -1    0    0  503  502  0.00000000000E+00  0.00000000000E+00  0.15082779251E+03  0.15082779251E+03  0.00000000000E+00 0. -1.
         21   -1    0    0  501  503 -0.00000000000E+00 -0.00000000000E+00 -0.47867615576E+03  0.47867615576E+03  0.00000000000E+00 0.  1.
         25    1    1    2    0    0 -0.20725511118E+03 -0.72924569391E+02 -0.29732797422E+03  0.39025837363E+03  0.12500000000E+03 0.  0.
          1    1    1    2  501    0  0.72393405566E+02 -0.16822116028E+02  0.41803363598E+00  0.74323371218E+02  0.00000000000E+00 0.  1.
         -1    1    1    2    0  502  0.13486170562E+03  0.89746685419E+02 -0.30938422670E+02  0.16492220342E+03  0.00000000000E+00 0. -1.
<mgrwt>
<rscale>  4 0.25277989E+03</rscale>
<asrwt>0</asrwt>
<pdfrwt beam="1">  1       21 0.23204276E-01 0.25277989E+03</pdfrwt>
<pdfrwt beam="2">  1       21 0.73642485E-01 0.25277989E+03</pdfrwt>
<totfact> 0.28028938E+04</totfact>
</mgrwt>
</event>
<event>
 5    0  0.1972558E-002  0.2524847E+03  0.7546771E-02  0.1111745E+00
         21   -1    0    0  501  502  0.00000000000E+00  0.00000000000E+00  0.87952942614E+03  0.87952942614E+03  0.00000000000E+00 0. -1.
         21   -1    0    0  502  503 -0.00000000000E+00 -0.00000000000E+00 -0.21902357093E+03  0.21902357093E+03  0.00000000000E+00 0.  1.
         25    1    1    2    0    0  0.19806524337E+03  0.80394653906E+02 -0.59380369813E+02  0.25464518320E+03  0.12500000000E+03 0.  0.
          2    1    1    2  501    0  0.27812825180E+02 -0.21430982577E+02  0.55966994532E+03  0.56077026308E+03  0.00000000000E+00 0.  1.
         -2    1    1    2    0  503 -0.22587806855E+03 -0.58963671328E+02  0.16021627970E+03  0.28313755080E+03  0.00000000000E+00 0. -1.
<mgrwt>
<rscale>  4 0.25248468E+03</rscale>
<asrwt>0</asrwt>
<pdfrwt beam="1">  1       21 0.13531222E+00 0.25248468E+03</pdfrwt>
<pdfrwt beam="2">  1       21 0.33695934E-01 0.25248468E+03</pdfrwt>
<totfact> 0.31610373E+03</totfact>
</mgrwt>
</event>
<event>
 5    0  0.1972558E-002  0.2832358E+03  0.7546771E-02  0.1093935E+00
         21   -1    0    0  501  502  0.00000000000E+00  0.00000000000E+00  0.38859119927E+03  0.38859119927E+03  0.00000000000E+00 0. -1.
         21   -1    0    0  502  503 -0.00000000000E+00 -0.00000000000E+00 -0.59651098776E+03  0.59651098776E+03  0.00000000000E+00 0.  1.
         25    1    1    2    0    0 -0.14802461353E+03  0.18893312765E+03 -0.37785988157E+03  0.46476887055E+03  0.12500000000E+03 0.  0.
          2    1    1    2  501    0  0.54476684384E+01  0.76381677695E+02  0.20334800724E+03  0.21728840242E+03  0.00000000000E+00 0. -1.
         -2    1    1    2    0  503  0.14257694509E+03 -0.26531480534E+03 -0.33407914161E+02  0.30304491405E+03  0.00000000000E+00 0.  1.
<mgrwt>
<rscale>  4 0.28323576E+03</rscale>
<asrwt>0</asrwt>
<pdfrwt beam="1">  1       21 0.59783262E-01 0.28323576E+03</pdfrwt>
<pdfrwt beam="2">  1       21 0.91770921E-01 0.28323576E+03</pdfrwt>
<totfact> 0.24531837E+03</totfact>
</mgrwt>
</event>
<event>
 5    0  0.1972558E-002  0.3386204E+03  0.7546771E-02  0.1067385E+00
         21   -1    0    0  501  502  0.00000000000E+00  0.00000000000E+00  0.28680355795E+03  0.28680355795E+03  0.00000000000E+00 0.  1.
         21   -1    0    0  502  503 -0.00000000000E+00 -0.00000000000E+00 -0.16839514914E+04  0.16839514914E+04  0.00000000000E+00 0. -1.
         25    1    1    2    0    0 -0.23729585704E+03  0.20671103847E+03 -0.15702597109E+04  0.16063559185E+04  0.12500000000E+03 0.  0.
          3    1    1    2  501    0  0.16634232875E+03 -0.17633411190E+03  0.11832592509E+03  0.26974898313E+03  0.00000000000E+00 0. -1.
         -3    1    1    2    0  503  0.70953528291E+02 -0.30376926573E+02  0.54785852357E+02  0.94650147720E+02  0.00000000000E+00 0.  1.
<mgrwt>
<rscale>  4 0.33862040E+03</rscale>
<asrwt>0</asrwt>
<pdfrwt beam="1">  1       21 0.44123625E-01 0.33862040E+03</pdfrwt>
<pdfrwt beam="2">  1       21 0.25906945E+00 0.33862040E+03</pdfrwt>
<totfact> 0.24894092E+02</totfact>
</mgrwt>
</event>
<event>
 5    0  0.1972558E-002  0.2821097E+03  0.7546771E-02  0.1094542E+00
         21   -1    0    0  501  502  0.00000000000E+00  0.00000000000E+00  0.43423741705E+03  0.43423741705E+03  0.00000000000E+00 0. -1.
         21   -1    0    0  502  503 -0.00000000000E+00 -0.00000000000E+00 -0.76904759660E+03  0.76904759660E+03  0.00000000000E+00 0. -1.
         25    1    1    2    0    0  0.24599243891E+02  0.25055906935E+03 -0.66149927285E+03  0.71874283162E+03  0.12500000000E+03 0.  0.
          4    1    1    2  501    0  0.49863384297E+02  0.51782447695E+01  0.16614333337E+03  0.17354186393E+03  0.00000000000E+00 0. -1.
         -4    1    1    2    0  503 -0.74462628188E+02 -0.25573731412E+03  0.16054575993E+03  0.31100031810E+03  0.00000000000E+00 0.  1.
<mgrwt>
<rscale>  4 0.28210973E+03</rscale>
<asrwt>0</asrwt>
<pdfrwt beam="1">  1       21 0.66805757E-01 0.28210973E+03</pdfrwt>
<pdfrwt beam="2">  1       21 0.11831501E+00 0.28210973E+03</pdfrwt>
<totfact> 0.10413487E+03</totfact>
</mgrwt>
</event>
<event>
 5    0  0.1972558E-002  0.2660374E+03  0.7546771E-02  0.1103569E+00
         21   -1    0    0  501  502  0.00000000000E+00  0.00000000000E+00  0.37860786735E+03  0.37860786735E+03  0.00000000000E+00 0. -1.
         21   -1    0    0  502  503 -0.00000000000E+00 -0.00000000000E+00 -0.20116828503E+03  0.20116828503E+03  0.00000000000E+00 0.  1.
         25    1    1    2    0    0 -0.12563164597E+03  0.18756484335E+03  0.99424900033E+02  0.27653967469E+03  0.12500000000E+03 0.  0.
          4    1    1    2  501    0  0.11890594319E+03 -0.21021341982E+03  0.22083584691E+02  0.24252008146E+03  0.00000000000E+00 0. -1.
         -4    1    1    2    0  503  0.67257027800E+01  0.22648576470E+02  0.55931097592E+02  0.60716396236E+02  0.00000000000E+00 0.  1.
<mgrwt>
<rscale>  4 0.26603741E+03</rscale>
<asrwt>0</asrwt>
<pdfrwt beam="1">  1       21 0.58247364E-01 0.26603741E+03</pdfrwt>
<pdfrwt beam="2">  1       21 0.30948967E-01 0.26603741E+03</pdfrwt>
<totfact> 0.26694323E+04</totfact>
</mgrwt>
</event>
<event>
 5    0  0.1972558E-002  0.2394424E+03  0.7546771E-02  0.1120165E+00
         21   -1    0    0  501  502  0.00000000000E+00  0.00000000000E+00  0.42397832848E+02  0.42397832848E+02  0.00000000000E+00 0. -1.
         21   -1    0    0  502  503 -0.00000000000E+00 -0.00000000000E+00 -0.19815098530E+04  0.19815098530E+04  0.00000000000E+00 0. -1.
         25    1    1    2    0    0 -0.17748208916E+03 -0.10103351725E+03 -0.16024908309E+04  0.16202806938E+04  0.12500000000E+03 0.  0.
          3    1    1    2  501    0  0.50142830247E+02  0.73361671817E+02 -0.10226684465E+03  0.13547968789E+03  0.00000000000E+00 0.  1.
         -3    1    1    2    0  503  0.12733925891E+03  0.27671845435E+02 -0.23435434458E+03  0.26814730413E+03  0.00000000000E+00 0. -1.
<mgrwt>
<rscale>  4 0.23944240E+03</rscale>
<asrwt>0</asrwt>
<pdfrwt beam="1">  1       21 0.65227432E-02 0.23944240E+03</pdfrwt>
<pdfrwt beam="2">  1       21 0.30484769E+00 0.23944240E+03</pdfrwt>
<totfact> 0.52052255E+03</totfact>
</mgrwt>
</event>
<event>
 5    0  0.1972558E-002  0.3153466E+03  0.7546771E-02  0.1077811E+00
         21   -1    0    0  501  502  0.00000000000E+00  0.00000000000E+00  0.10884016429E+04  0.10884016429E+04  0.00000000000E+00 0.  1.
         21   -1    0    0  502  503 -0.00000000000E+00 -0.00000000000E+00 -0.10246969016E+04  0.10246969016E+04  0.00000000000E+00 0. -1.
         25    1    1    2    0    0  0.28855055605E+03 -0.21553986355E+02 -0.63141413799E+03  0.70571581488E+03  0.12500000000E+03 0.  0.
          2    1    1    2  501    0 -0.23254958942E+03  0.29974795521E+03 -0.22732760920E+03  0.44227365973E+03  0.00000000000E+00 0. -1.
         -2    1    1    2    0  503 -0.56000966631E+02 -0.27819396885E+03  0.92244648852E+03  0.96510906987E+03  0.00000000000E+00 0.  1.
<mgrwt>
<rscale>  4 0.31534664E+03</rscale>
<asrwt>0</asrwt>
<pdfrwt beam="1">  1       21 0.16744641E+00 0.31534664E+03</pdfrwt>
<pdfrwt beam="2">  1       21 0.15764568E+00 0.31534664E+03</pdfrwt>
<totfact> 0.50433008E+01</totfact>
</mgrwt>
</event>
<event>
 5    0  0.1972558E-002  0.2844190E+03  0.7546771E-02  0.1093300E+00
         21   -1    0    0  503  502  0.00000000000E+00  0.00000000000E+00  0.10493267866E+04  0.10493267866E+04  0.00000000000E+00 0. -1.
         21   -1    0    0  501  503 -0.00000000000E+00 -0.00000000000E+00 -0.22795526300E+03  0.22795526300E+03  0.00000000000E+00 0.  1.
         25    1    1    2    0    0 -0.17195945278E+03 -0.18766487399E+03 -0.10796778910E+03  0.30343071995E+03  0.12500000000E+03 0.  0.
          4    1    1    2  501    0  0.96543715853E+01 -0.21782858014E+02  0.48773545053E+02  0.54282211552E+02  0.00000000000E+00 0.  1.
         -4    1    1    2    0  502  0.16230508119E+03  0.20944773201E+03  0.88056576769E+03  0.91956911814E+03  0.00000000000E+00 0. -1.
<mgrwt>
<rscale>  4 0.28441902E+03</rscale>
<asrwt>0</asrwt>
<pdfrwt beam="1">  1       21 0.16143489E+00 0.28441902E+03</pdfrwt>
<pdfrwt beam="2">  1       21 0.35070041E-01 0.28441902E+03</pdfrwt>
<totfact> 0.17861218E+03</totfact>
</mgrwt>
</event>
<event>
 5    0  0.1972558E-002  0.2460106E+03  0.7546771E-02  0.1115852E+00
         21   -1    0    0  501  502  0.00000000000E+00  0.00000000000E+00  0.16047499220E+04  0.16047499220E+04  0.00000000000E+00 0.  1.
         21   -1    0    0  502  503 -0.00000000000E+00 -0.00000000000E+00 -0.65678871948E+02  0.65678871948E+02  0.00000000000E+00 0. -1.
         25    1    1    2    0    0  0.19319376268E+03  0.87019336470E+02  0.21233578970E+03  0.32497335651E+03  0.12500000000E+03 0.  0.
          1    1    1    2  501    0 -0.12500570678E+03 -0.86360296308E+02  0.79739157680E+03  0.81173755257E+03  0.00000000000E+00 0. -1.
         -1    1    1    2    0  503 -0.68188055899E+02 -0.65904016230E+00  0.52934368358E+03  0.53371788488E+03  0.00000000000E+00 0.  1.
<mgrwt>
<rscale>  4 0.24601056E+03</rscale>
<asrwt>0</asrwt>
<pdfrwt beam="1">  1       21 0.24688457E+00 0.24601056E+03</pdfrwt>
<pdfrwt beam="2">  1       21 0.10104443E-01 0.24601056E+03</pdfrwt>
<totfact> 0.52618157E+03</totfact>
</mgrwt>
</event>
<event>
 5    0  0.1972558E-002  0.2285524E+03  0.7546771E-02  0.1127663E+00
         21   -1    0    0  501  502  0.00000000000E+00  0.00000000000E+00  0.20441700029E+03  0.20441700029E+03  0.00000000000E+00 0. -1.
         21   -1    0    0  502  503 -0.00000000000E+00 -0.00000000000E+00 -0.70556758609E+03  0.70556758609E+03  0.00000000000E+00 0.  1.
         25    1    1    2    0    0 -0.20116121838E+03 -0.20279868418E+02 -0.49391289385E+03  0.54813507054E+03  0.12500000000E+03 0.  0.
          1    1    1    2  501    0  0.35040013957E+02 -0.42652591834E+02  0.12746950437E+03  0.13890831765E+03  0.00000000000E+00 0. -1.
         -1    1    1    2    0  503  0.16612120443E+03  0.62932460252E+02 -0.13470719632E+03  0.22294119820E+03  0.00000000000E+00 0.  1.
<mgrwt>
<rscale>  4 0.22855245E+03</rscale>
<asrwt>0</asrwt>
<pdfrwt beam="1">  1       21 0.31448769E-01 0.22855245E+03</pdfrwt>
<pdfrwt beam="2">  1       21 0.10854886E+00 0.22855245E+03</pdfrwt>
<totfact> 0.63848463E+03</totfact>
</mgrwt>
</event>
<event>
 5    0  0.1972558E-002  0.2860851E+03  0.7546771E-02  0.1092411E+00
         21   -1    0    0  501  502  0.00000000000E+00  0.00000000000E+00  0.65554886589E+03  0.65554886589E+03  0.00000000000E+00 0. -1.
         21   -1    0    0  502  503 -0.00000000000E+00 -0.00000000000E+00 -0.85120891653E+03  0.85120891653E+03  0.00000000000E+00 0. -1.
         25    1    1    2    0    0 -0.24122155514E+03  0.99013812612E+02 -0.76433691713E+03  0.81720713203E+03  0.12500000000E+03 0.  0.
          1    1    1    2  501    0  0.25203753411E+02 -0.22546260708E+02  0.40866190553E+03  0.41005867396E+03  0.00000000000E+00 0. -1.
         -1    1    1    2    0  503  0.21601780173E+03 -0.76467551904E+02  0.16001496097E+03  0.27949197643E+03  0.00000000000E+00 0.  1.
<mgrwt>
<rscale>  4 0.28608512E+03</rscale>
<asrwt>0</asrwt>
<pdfrwt beam="1">  1       21 0.10085367E+00 0.28608512E+03</pdfrwt>
<pdfrwt beam="2">  1       21 0.13095522E+00 0.28608512E+03</pdfrwt>
<totfact> 0.31151893E+02</totfact>
</mgrwt>
</event>
<event>
 5    0  0.1972558E-002  0.2369677E+03  0.7546771E-02  0.1121830E+00
         21   -1    0    0  501  502  0.00000000000E+00  0.00000000000E+00  0.46511544078E+03  0.46511544078E+03  0.00000000000E+00 0. -1.
         21   -1    0    0  502  503 -0.00000000000E+00 -0.00000000000E+00 -0.50590637602E+03  0.50590637602E+03  0.00000000000E+00 0.  1.
         25    1    1    2    0    0 -0.19883702288E+03  0.26481002620E+02 -0.41536515028E+03  0.47790230512E+03  0.12500000000E+03 0.  0.
          3    1    1    2  501    0 -0.77704668913E+01 -0.22427593350E+02  0.25146066508E+03  0.25257839017E+03  0.00000000000E+00 0. -1.
         -3    1    1    2    0  503  0.20660748977E+03 -0.40534092699E+01  0.12311354995E+03  0.24054112151E+03  0.00000000000E+00 0.  1.
<mgrwt>
<rscale>  4 0.23696765E+03</rscale>
<asrwt>0</asrwt>
<pdfrwt beam="1">  1       21 0.71556222E-01 0.23696765E+03</pdfrwt>
<pdfrwt beam="2">  1       21 0.77831750E-01 0.23696765E+03</pdfrwt>
<totfact> 0.24917121E+03</totfact>
</mgrwt>
</event>
<event>
 5    0  0.1972558E-002  0.2823365E+03  0.7546771E-02  0.1094420E+00
         21   -1    0    0  501  502  0.00000000000E+00  0.00000000000E+00  0.52585319357E+03  0.52585319357E+03  0.00000000000E+00 0. -1.
         21   -1    0    0  502  503 -0.00000000000E+00 -0.00000000000E+00 -0.12753773524E+04  0.12753773524E+04  0.00000000000E+00 0.  1.
         25    1    1    2    0    0  0.42645937157E+02  0.24202272914E+03 -0.38471051340E+03  0.47330841583E+03  0.12500000000E+03 0.  0.
          2    1    1    2  501    0 -0.13334337728E+03  0.99268407880E+01  0.45041409180E+03  0.46984236987E+03  0.00000000000E+00 0. -1.
         -2    1    1    2    0  503  0.90697440125E+02 -0.25194956993E+03 -0.81522773728E+03  0.85807976032E+03  0.00000000000E+00 0.  1.
<mgrwt>
<rscale>  4 0.28233648E+03</rscale>
<asrwt>0</asrwt>
<pdfrwt beam="1">  1       21 0.80900492E-01 0.28233648E+03</pdfrwt>
<pdfrwt beam="2">  1       21 0.19621190E+00 0.28233648E+03</pdfrwt>
<totfact> 0.17233151E+02</totfact>
</mgrwt>
</event>
<event>
 5    0  0.1972558E-002  0.2091598E+03  0.7546771E-02  0.1142233E+00
         21   -1    0    0  501  502  0.00000000000E+00  0.00000000000E+00  0.10665272142E+04  0.10665272142E+04  0.00000000000E+00 0.  1.
         21   -1    0    0  502  503 -0.00000000000E+00 -0.00000000000E+00 -0.81079407394E+02  0.81079407394E+02  0.00000000000E+00 0.  1.
         25    1    1    2    0    0 -0.20529246446E+03 -0.48925529421E+02  0.19846580532E+03  0.31551922172E+03  0.12500000000E+03 0.  0.
          2    1    1    2  501    0  0.14512023799E+03  0.71472325395E+02  0.72492934624E+03  0.74275886653E+03  0.00000000000E+00 0.  1.
         -2    1    1    2    0  503  0.60172226473E+02 -0.22546795974E+02  0.62052655273E+02  0.89328533369E+02  0.00000000000E+00 0. -1.
<mgrwt>
<rscale>  4 0.20915983E+03</rscale>
<asrwt>0</asrwt>
<pdfrwt beam="1">  1       21 0.16408110E+00 0.20915983E+03</pdfrwt>
<pdfrwt beam="2">  1       21 0.12473756E-01 0.20915983E+03</pdfrwt>
<totfact> 0.12715405E+04</totfact>
</mgrwt>
</event>
<event>
 5    0  0.1972558E-002  0.2704787E+03  0.7546771E-02  0.1101006E+00
         21   -1    0    0  501  502  0.00000000000E+00  0.00000000000E+00  0.13677217718E+03  0.13677217718E+03  0.00000000000E+00 0. -1.
         21   -1    0    0  502  503 -0.00000000000E+00 -0.00000000000E+00 -0.70255568425E+03  0.70255568425E+03  0.00000000000E+00 0.  1.
         25    1    1    2    0    0  0.21027376271E+03  0.77930605991E+02 -0.36081504316E+03  0.44283262075E+03  0.12500000000E+03 0.  0.
          4    1    1    2  501    0 -0.25506002802E+03 -0.67145146883E+02 -0.22459659522E+03  0.34642130308E+03  0.00000000000E+00 0. -1.
         -4    1    1    2    0  503  0.44786265302E+02 -0.10785459108E+02  0.19628131305E+02  0.50073937596E+02  0.00000000000E+00 0.  1.
<mgrwt>
<rscale>  4 0.27047870E+03</rscale>
<asrwt>0</asrwt>
<pdfrwt beam="1">  1       21 0.21041874E-01 0.27047870E+03</pdfrwt>
<pdfrwt beam="2">  1       21 0.10808549E+00 0.27047870E+03</pdfrwt>
<totfact> 0.13666370E+04</totfact>
</mgrwt>
</event>
<event>
 5    0  0.1972558E-002  0.3521498E+03  0.7546771E-02  0.1061736E+00
         21   -1    0    0  501  502  0.00000000000E+00  0.00000000000E+00  0.32925812556E+03  0.32925812556E+03  0.00000000000E+00 0.  1.
         21   -1    0    0  502  503 -0.00000000000E+00 -0.00000000000E+00 -0.41962093855E+03  0.41962093855E+03  0.00000000000E+00 0. -1.
         25    1    1    2    0    0  0.20621743960E+03 -0.25662977554E+03 -0.17958241752E+03  0.39529649476E+03  0.12500000000E+03 0.  0.
          4    1    1    2  501    0 -0.17950284735E+03  0.15986125631E+03  0.77284782169E+02  0.25248728885E+03  0.00000000000E+00 0.  1.
         -4    1    1    2    0  503 -0.26714592255E+02  0.96768519230E+02  0.11934822360E+02  0.10109528049E+03  0.00000000000E+00 0. -1.
<mgrwt>
<rscale>  4 0.35214979E+03</rscale>
<asrwt>0</asrwt>
<pdfrwt beam="1">  1       21 0.50655096E-01 0.35214979E+03</pdfrwt>
<pdfrwt beam="2">  1       21 0.64557067E-01 0.35214979E+03</pdfrwt>
<totfact> 0.75282930E+03</totfact>
</mgrwt>
</event>
<event>
 5    0  0.1972558E-002  0.2604209E+03  0.7546771E-02  0.1106891E+00
         21   -1    0    0  501  502  0.00000000000E+00  0.00000000000E+00  0.10567725248E+03  0.10567725248E+03  0.00000000000E+00 0. -1.
         21   -1    0    0  502  503 -0.00000000000E+00 -0.00000000000E+00 -0.73582568506E+03  0.73582568506E+03  0.00000000000E+00 0. -1.
         25    1    1    2    0    0 -0.14390907345E+03  0.18283754736E+03 -0.48887762534E+03  0.55566691705E+03  0.12500000000E+03 0.  0.
          4    1    1    2  501    0  0.24548798928E+02  0.36158414831E+01 -0.34411456925E+01  0.25051134148E+02  0.00000000000E+00 0.  1.
         -4    1    1    2    0  503  0.11936027453E+03 -0.18645338884E+03 -0.13782966154E+03  0.26078488634E+03  0.00000000000E+00 0. -1.
<mgrwt>
<rscale>  4 0.26042088E+03</rscale>
<asrwt>0</asrwt>
<pdfrwt beam="1">  1       21 0.16258039E-01 0.26042088E+03</pdfrwt>
<pdfrwt beam="2">  1       21 0.11320395E+00 0.26042088E+03</pdfrwt>
<totfact> 0.19856546E+04</totfact>
</mgrwt>
</event>
<event>
 5    0  0.1972558E-002  0.3453221E+03  0.7546771E-02  0.1064552E+00
         21   -1    0    0  503  502  0.00000000000E+00  0.00000000000E+00  0.93850031954E+03  0.93850031954E+03  0.00000000000E+00 0.  1.
         21   -1    0    0  501  503 -0.00000000000E+00 -0.00000000000E+00 -0.22588857723E+03  0.22588857723E+03  0.00000000000E+00 0.  1.
         25    1    1    2    0    0  0.15302374943E+03  0.28320673934E+03 -0.31039890526E+02  0.34671429146E+03  0.12500000000E+03 0.  0.
          4    1    1    2  501    0  0.15851246457E+01 -0.71715791651E+02  0.23225137108E+03  0.24307687418E+03  0.00000000000E+00 0. -1.
         -4    1    1    2    0  502 -0.15460887408E+03 -0.21149094769E+03  0.51140026176E+03  0.57459773114E+03  0.00000000000E+00 0.  1.
<mgrwt>
<rscale>  4 0.34532206E+03</rscale>
<asrwt>0</asrwt>
<pdfrwt beam="1">  1       21 0.14438466E+00 0.34532206E+03</pdfrwt>
<pdfrwt beam="2">  1       21 0.34752089E-01 0.34532206E+03</pdfrwt>
<totfact> 0.23728310E+03</totfact>
</mgrwt>
</event>
<event>
 5    0  0.1972558E-002  0.2263331E+03  0.7546771E-02  0.1129248E+00
         21   -1    0    0  501  502  0.00000000000E+00  0.00000000000E+00  0.22084120874E+03  0.22084120874E+03  0.00000000000E+00 0. -1.
         21   -1    0    0  502  503 -0.00000000000E+00 -0.00000000000E+00 -0.25705498824E+03  0.25705498824E+03  0.00000000000E+00 0.  1.
         25    1    1    2    0    0  0.39762955256E+02 -0.19697667241E+03 -0.74829038953E+02  0.24820412397E+03  0.12500000000E+03 0.  0.
          2    1    1    2  501    0 -0.40654393341E+02  0.17203278878E+03 -0.78520160203E+01  0.17694551215E+03  0.00000000000E+00 0. -1.
         -2    1    1    2    0  503  0.89143808523E+00  0.24943883626E+02  0.46467275479E+02  0.52746560861E+02  0.00000000000E+00 0.  1.
<mgrwt>
<rscale>  4 0.22633309E+03</rscale>
<asrwt>0</asrwt>
<pdfrwt beam="1">  1       21 0.33975571E-01 0.22633309E+03</pdfrwt>
<pdfrwt beam="2">  1       21 0.39546921E-01 0.22633309E+03</pdfrwt>
<totfact> 0.50644967E+04</totfact>
</mgrwt>
</event>
<event>
 5    0  0.1972558E-002  0.5494115E+03  0.7546771E-02  0.1001630E+00
         21   -1    0    0  501  502  0.00000000000E+00  0.00000000000E+00  0.56711658164E+03  0.56711658164E+03  0.00000000000E+00 0.  1.
         21   -1    0    0  502  503 -0.00000000000E+00 -0.00000000000E+00 -0.96748215715E+03  0.96748215715E+03  0.00000000000E+00 0. -1.
         25    1    1    2    0    0  0.39791721036E+03  0.34319078952E+03 -0.52005331720E+03  0.74979895775E+03  0.12500000000E+03 0.  0.
          4    1    1    2  501    0 -0.40343407010E+03 -0.38063322955E+03 -0.98518897720E+02  0.56333531539E+03  0.00000000000E+00 0.  1.
         -4    1    1    2    0  503  0.55168597470E+01  0.37442440027E+02  0.21820663941E+03  0.22146446564E+03  0.00000000000E+00 0. -1.
<mgrwt>
<rscale>  4 0.54941146E+03</rscale>
<asrwt>0</asrwt>
<pdfrwt beam="1">  1       21 0.87248704E-01 0.54941146E+03</pdfrwt>
<pdfrwt beam="2">  1       21 0.14884341E+00 0.54941146E+03</pdfrwt>
<totfact> 0.27112808E+02</totfact>
</mgrwt>
</event>
<event>
 5    0  0.1972558E-002  0.2611128E+03  0.7546771E-02  0.1106476E+00
         21   -1    0    0  501  502  0.00000000000E+00  0.00000000000E+00  0.18569030851E+03  0.18569030851E+03  0.00000000000E+00 0.  1.
         21   -1    0    0  502  503 -0.00000000000E+00 -0.00000000000E+00 -0.20086804376E+04  0.20086804376E+04  0.00000000000E+00 0.  1.
         25    1    1    2    0    0  0.15958725723E+03  0.15442007959E+03 -0.60786876816E+03  0.65912297255E+03  0.12500000000E+03 0.  0.
          3    1    1    2  501    0 -0.18746472207E+03 -0.13766226524E+03 -0.13635772691E+04  0.13832703605E+04  0.00000000000E+00 0. -1.
         -3    1    1    2    0  503  0.27877464840E+02 -0.16757814345E+02  0.14845590823E+03  0.15197741304E+03  0.00000000000E+00 0.  1.
<mgrwt>
<rscale>  4 0.26111280E+03</rscale>
<asrwt>0</asrwt>
<pdfrwt beam="1">  1       21 0.28567741E-01 0.26111280E+03</pdfrwt>
<pdfrwt beam="2">  1       21 0.30902775E+00 0.26111280E+03</pdfrwt>
<totfact> 0.32485593E+02</totfact>
</mgrwt>
</event>
<event>
 5    0  0.1972558E-002  0.1970046E+03  0.7546771E-02  0.1152291E+00
         21   -1    0    0  501  502  0.00000000000E+00  0.00000000000E+00  0.41311414380E+03  0.41311414380E+03  0.00000000000E+00 0.  1.
         21   -1    0    0  502  503 -0.00000000000E+00 -0.00000000000E+00 -0.39379257737E+03  0.39379257737E+03  0.00000000000E+00 0. -1.
         25    1    1    2    0    0  0.18513360325E+03  0.13179482476E+03 -0.15865180573E+03  0.30403901452E+03  0.12500000000E+03 0.  0.
          1    1    1    2  501    0 -0.75601240743E+02 -0.69586923184E+02  0.30628404305E+03  0.32306006021E+03  0.00000000000E+00 0.  1.
         -1    1    1    2    0  503 -0.10953236251E+03 -0.62207901577E+02 -0.12831067088E+03  0.17980764644E+03  0.00000000000E+00 0. -1.
<mgrwt>
<rscale>  4 0.19700460E+03</rscale>
<asrwt>0</asrwt>
<pdfrwt beam="1">  1       21 0.63556022E-01 0.19700460E+03</pdfrwt>
<pdfrwt beam="2">  1       21 0.60583473E-01 0.19700460E+03</pdfrwt>
<totfact> 0.57887454E+03</totfact>
</mgrwt>
</event>
<event>
 5    0  0.1972558E-002  0.2347685E+03  0.7546771E-02  0.1123328E+00
         21   -1    0    0  503  502  0.00000000000E+00  0.00000000000E+00  0.65275729732E+03  0.65275729732E+03  0.00000000000E+00 0. -1.
         21   -1    0    0  501  503 -0.00000000000E+00 -0.00000000000E+00 -0.90798687164E+02  0.90798687164E+02  0.00000000000E+00 0. -1.
         25    1    1    2    0    0 -0.61634376593E+02 -0.19859049652E+03  0.19350475045E+03  0.31033219319E+03  0.12500000000E+03 0.  0.
          3    1    1    2  501    0  0.37232763539E+02  0.12376342951E+02  0.50561880807E+02  0.63999658877E+02  0.00000000000E+00 0.  1.
         -3    1    1    2    0  502  0.24401613054E+02  0.18621415357E+03  0.31789197890E+03  0.36922413242E+03  0.00000000000E+00 0. -1.
<mgrwt>
<rscale>  4 0.23476852E+03</rscale>
<asrwt>0</asrwt>
<pdfrwt beam="1">  1       21 0.10042420E+00 0.23476852E+03</pdfrwt>
<pdfrwt beam="2">  1       21 0.13969029E-01 0.23476852E+03</pdfrwt>
<totfact> 0.35495388E+04</totfact>
</mgrwt>
</event>
<event>
 5    0  0.1972558E-002  0.2500211E+03  0.7546771E-02  0.1113291E+00
         21   -1    0    0  501  502  0.00000000000E+00  0.00000000000E+00  0.63143768886E+02  0.63143768886E+02  0.00000000000E+00 0. -1.
         21   -1    0    0  502  503 -0.00000000000E+00 -0.00000000000E+00 -0.15009126721E+04  0.15009126721E+04  0.00000000000E+00 0. -1.
         25    1    1    2    0    0  0.21899719315E+03 -0.98556714226E+02 -0.10311918294E+04  0.10661401341E+04  0.12500000000E+03 0.  0.
          2    1    1    2  501    0 -0.14272016832E+03  0.12483835236E+03 -0.35410303255E+03  0.40167476685E+03  0.00000000000E+00 0. -1.
         -2    1    1    2    0  503 -0.76277024837E+02 -0.26281638133E+02 -0.52474041264E+02  0.96241540031E+02  0.00000000000E+00 0.  1.
<mgrwt>
<rscale>  4 0.25002109E+03</rscale>
<asrwt>0</asrwt>
<pdfrwt beam="1">  1       21 0.97144257E-02 0.25002109E+03</pdfrwt>
<pdfrwt beam="2">  1       21 0.23090965E+00 0.25002109E+03</pdfrwt>
<totfact> 0.70244318E+03</totfact>
</mgrwt>
</event>
<event>
 5    0  0.1972558E-002  0.4139338E+03  0.7546771E-02  0.1039059E+00
         21   -1    0    0  501  502  0.00000000000E+00  0.00000000000E+00  0.58932172025E+03  0.58932172025E+03  0.00000000000E+00 0. -1.
         21   -1    0    0  502  503 -0.00000000000E+00 -0.00000000000E+00 -0.54507986072E+03  0.54507986072E+03  0.00000000000E+00 0.  1.
         25    1    1    2    0    0 -0.13795410164E+03 -0.37386944453E+03 -0.22586854968E+03  0.47481712000E+03  0.12500000000E+03 0.  0.
          1    1    1    2  501    0  0.96617029779E+02  0.37755778164E+03  0.34758421881E+01  0.38973941345E+03  0.00000000000E+00 0.  1.
         -1    1    1    2    0  503  0.41337071858E+02 -0.36883371027E+01  0.26663456702E+03  0.26984504752E+03  0.00000000000E+00 0. -1.
<mgrwt>
<rscale>  4 0.41393384E+03</rscale>
<asrwt>0</asrwt>
<pdfrwt beam="1">  1       21 0.90664880E-01 0.41393384E+03</pdfrwt>
<pdfrwt beam="2">  1       21 0.83858440E-01 0.41393384E+03</pdfrwt>
<totfact> 0.11042573E+03</totfact>
</mgrwt>
</event>
<event>
 5    0  0.1972558E-002  0.2497819E+03  0.7546771E-02  0.1113443E+00
         21   -1    0    0  501  502  0.00000000000E+00  0.00000000000E+00  0.43910942718E+03  0.43910942718E+03  0.00000000000E+00 0.  1.
         21   -1    0    0  502  503 -0.00000000000E+00 -0.00000000000E+00 -0.21772600891E+03  0.21772600891E+03  0.00000000000E+00 0.  1.
         25    1    1    2    0    0  0.97601222145E+02  0.22093654147E+03 -0.50759010979E+02  0.27665941357E+03  0.12500000000E+03 0.  0.
          2    1    1    2  501    0 -0.91494955269E+02 -0.18989814399E+03  0.27709387678E+03  0.34815750528E+03  0.00000000000E+00 0.  1.
         -2    1    1    2    0  503 -0.61062668761E+01 -0.31038397482E+02 -0.49514475371E+01  0.32018517238E+02  0.00000000000E+00 0. -1.
<mgrwt>
<rscale>  4 0.24978190E+03</rscale>
<asrwt>0</asrwt>
<pdfrwt beam="1">  1       21 0.67555296E-01 0.24978190E+03</pdfrwt>
<pdfrwt beam="2">  1       21 0.33496309E-01 0.24978190E+03</pdfrwt>
<totfact> 0.16648657E+04</totfact>
</mgrwt>
</event>
<event>
 5    0  0.1972558E-002  0.5149183E+03  0.7546771E-02  0.1009957E+00
         21   -1    0    0  501  502  0.00000000000E+00  0.00000000000E+00  0.58005629605E+03  0.58005629605E+03  0.00000000000E+00 0.  1.
         21   -1    0    0  502  503 -0.00000000000E+00 -0.00000000000E+00 -0.21696697675E+04  0.21696697675E+04  0.00000000000E+00 0. -1.
         25    1    1    2    0    0 -0.49530636524E+03 -0.66170521763E+01 -0.14412159575E+04  0.15290848953E+04  0.12500000000E+03 0.  0.
          2    1    1    2  501    0  0.50649897453E+03  0.68952536708E+02 -0.58649345116E+03  0.77799115147E+03  0.00000000000E+00 0. -1.
         -2    1    1    2    0  503 -0.11192609287E+02 -0.62335484531E+02  0.43809593723E+03  0.44265001678E+03  0.00000000000E+00 0.  1.
<mgrwt>
<rscale>  4 0.51491825E+03</rscale>
<asrwt>0</asrwt>
<pdfrwt beam="1">  1       21 0.89239431E-01 0.51491825E+03</pdfrwt>
<pdfrwt beam="2">  1       21 0.33379534E+00 0.51491825E+03</pdfrwt>
<totfact> 0.16432608E+01</totfact>
</mgrwt>
</event>
<event>
 5    0  0.1972558E-002  0.3863598E+03  0.7546771E-02  0.1048608E+00
         21   -1    0    0  501  502  0.00000000000E+00  0.00000000000E+00  0.50180325441E+03  0.50180325441E+03  0.00000000000E+00 0.  1.
         21   -1    0    0  502  503 -0.00000000000E+00 -0.00000000000E+00 -0.37528339157E+03  0.37528339157E+03  0.00000000000E+00 0.  1.
         25    1    1    2    0    0  0.28486246029E+03  0.21379535875E+03  0.41405975674E+02  0.37972955051E+03  0.12500000000E+03 0.  0.
          3    1    1    2  501    0  0.38906651054E+02 -0.25598867417E+02  0.11260614784E+03  0.12185718707E+03  0.00000000000E+00 0. -1.
         -3    1    1    2    0  503 -0.32376911135E+03 -0.18819649134E+03 -0.27492260672E+02  0.37549990840E+03  0.00000000000E+00 0.  1.
<mgrwt>
<rscale>  4 0.38635976E+03</rscale>
<asrwt>0</asrwt>
<pdfrwt beam="1">  1       21 0.77200501E-01 0.38635976E+03</pdfrwt>
<pdfrwt beam="2">  1       21 0.57735906E-01 0.38635976E+03</pdfrwt>
<totfact> 0.37541183E+03</totfact>
</mgrwt>
</event>
<event>
 5    0  0.1972558E-002  0.2310109E+03  0.7546771E-02  0.1125930E+00
         21   -1    0    0  501  502  0.00000000000E+00  0.00000000000E+00  0.13606995452E+03  0.13606995452E+03  0.00000000000E+00 0. -1.
         21   -1    0    0  502  503 -0.00000000000E+00 -0.00000000000E+00 -0.53211310789E+03  0.53211310789E+03  0.00000000000E+00 0. -1.
         25    1    1    2    0    0  0.42778179746E+02 -0.19563378511E+03 -0.35066400162E+03  0.42272070279E+03  0.12500000000E+03 0.  0.
          1    1    1    2  501    0 -0.53945325264E+02  0.17665698087E+03 -0.82504339955E+02  0.20229867305E+03  0.00000000000E+00 0. -1.
         -1    1    1    2    0  503  0.11167145519E+02  0.18976804247E+02  0.37125188209E+02  0.43163686566E+02  0.00000000000E+00 0.  1.
<mgrwt>
<rscale>  4 0.23101093E+03</rscale>
<asrwt>0</asrwt>
<pdfrwt beam="1">  1       21 0.20933839E-01 0.23101093E+03</pdfrwt>
<pdfrwt beam="2">  1       21 0.81863556E-01 0.23101093E+03</pdfrwt>
<totfact> 0.27095589E+04</totfact>
</mgrwt>
</event>
<event>
 5    0  0.1972558E-002  0.2230629E+03  0.7546771E-02  0.1131620E+00
         21   -1    0    0  503  502  0.00000000000E+00  0.00000000000E+00  0.22912964344E+03  0.22912964344E+03  0.00000000000E+00 0.  1.
         21   -1    0    0  501  503 -0.00000000000E+00 -0.00000000000E+00 -0.32086934652E+03  0.32086934652E+03  0.00000000000E+00 0.  1.
         25    1    1    2    0    0  0.60285927222E+02  0.22629262815E+03 -0.81793200797E+01  0.26558359861E+03  0.12500000000E+03 0.  0.
          3    1    1    2  501    0 -0.20637573303E+02 -0.72518382056E+02 -0.99470862124E+02  0.12481697633E+03  0.00000000000E+00 0. -1.
         -3    1    1    2    0  502 -0.39648353919E+02 -0.15377424609E+03  0.15910479122E+02  0.15959841502E+03  0.00000000000E+00 0.  1.
<mgrwt>
<rscale>  4 0.22306288E+03</rscale>
<asrwt>0</asrwt>
<pdfrwt beam="1">  1       21 0.35250715E-01 0.22306288E+03</pdfrwt>
<pdfrwt beam="2">  1       21 0.49364514E-01 0.22306288E+03</pdfrwt>
<totfact> 0.29875458E+04</totfact>
</mgrwt>
</event>
<event>
 5    0  0.1972558E-002  0.2642954E+03  0.7546771E-02  0.1104590E+00
         21   -1    0    0  501  502  0.00000000000E+00  0.00000000000E+00  0.44836294046E+03  0.44836294046E+03  0.00000000000E+00 0. -1.
         21   -1    0    0  502  503 -0.00000000000E+00 -0.00000000000E+00 -0.19879720999E+03  0.19879720999E+03  0.00000000000E+00 0. -1.
         25    1    1    2    0    0  0.71068516347E+02  0.21877405287E+03  0.12721593290E+02  0.26210619825E+03  0.12500000000E+03 0.  0.
          4    1    1    2  501    0 -0.25588169102E+02  0.14778131939E+02  0.11302925785E+03  0.11682791067E+03  0.00000000000E+00 0.  1.
         -4    1    1    2    0  503 -0.45480347245E+02 -0.23355218481E+03  0.12381487933E+03  0.26822604153E+03  0.00000000000E+00 0. -1.
<mgrwt>
<rscale>  4 0.26429537E+03</rscale>
<asrwt>0</asrwt>
<pdfrwt beam="1">  1       21 0.68978914E-01 0.26429537E+03</pdfrwt>
<pdfrwt beam="2">  1       21 0.30584186E-01 0.26429537E+03</pdfrwt>
<totfact> 0.18898211E+04</totfact>
</mgrwt>
</event>
<event>
 5    0  0.1972558E-002  0.2544320E+03  0.7546771E-02  0.1110536E+00
         21   -1    0    0  501  502  0.00000000000E+00  0.00000000000E+00  0.10386435564E+04  0.10386435564E+04  0.00000000000E+00 0.  1.
         21   -1    0    0  502  503 -0.00000000000E+00 -0.00000000000E+00 -0.10230713520E+03  0.10230713520E+03  0.00000000000E+00 0. -1.
         25    1    1    2    0    0 -0.90841672148E+02  0.20814672933E+03  0.14414913188E+03  0.29661632212E+03  0.12500000000E+03 0.  0.
          1    1    1    2  501    0  0.70377577726E+02 -0.19910562236E+03  0.40724359574E+03  0.45874110190E+03  0.00000000000E+00 0.  1.
         -1    1    1    2    0  503  0.20464094422E+02 -0.90411069742E+01  0.38494369358E+03  0.38559326758E+03  0.00000000000E+00 0. -1.
<mgrwt>
<rscale>  4 0.25443198E+03</rscale>
<asrwt>0</asrwt>
<pdfrwt beam="1">  1       21 0.15979131E+00 0.25443198E+03</pdfrwt>
<pdfrwt beam="2">  1       21 0.15739560E-01 0.25443198E+03</pdfrwt>
<totfact> 0.86894233E+03</totfact>
</mgrwt>
</event>
<event>
 5    0  0.1972558E-002  0.2503488E+03  0.7546771E-02  0.1113085E+00
         21   -1    0    0  503  502  0.00000000000E+00  0.00000000000E+00  0.17129864282E+04  0.17129864282E+04  0.00000000000E+00 0.  1.
         21   -1    0    0  501  503 -0.00000000000E+00 -0.00000000000E+00 -0.38878666930E+03  0.38878666930E+03  0.00000000000E+00 0.  1.
         25    1    1    2    0    0 -0.12872875076E+03 -0.17445207532E+03 -0.33679974021E+03  0.41959943143E+03  0.12500000000E+03 0.  0.
          3    1    1    2  501    0  0.30574733524E+02 -0.26718957389E+02  0.32917686273E+03  0.33167171114E+03  0.00000000000E+00 0. -1.
         -3    1    1    2    0  502  0.98154017238E+02  0.20117103271E+03  0.13318226364E+04  0.13505019550E+04  0.00000000000E+00 0.  1.
<mgrwt>
<rscale>  4 0.25034883E+03</rscale>
<asrwt>0</asrwt>
<pdfrwt beam="1">  1       21 0.26353637E+00 0.25034883E+03</pdfrwt>
<pdfrwt beam="2">  1       21 0.59813335E-01 0.25034883E+03</pdfrwt>
<totfact> 0.13383707E+02</totfact>
</mgrwt>
</event>
<event>
 5    0  0.1972558E-002  0.4019067E+03  0.7546771E-02  0.1043121E+00
         21   -1    0    0  501  502  0.00000000000E+00  0.00000000000E+00  0.13189190349E+03  0.13189190349E+03  0.00000000000E+00 0. -1.
         21   -1    0    0  502  503 -0.00000000000E+00 -0.00000000000E+00 -0.15130654594E+04  0.15130654594E+04  0.00000000000E+00 0. -1.
         25    1    1    2    0    0 -0.45781012870E+02  0.38958031402E+03 -0.92430818426E+03  0.10118494659E+04  0.12500000000E+03 0.  0.
          3    1    1    2  501    0  0.61264584298E+02 -0.36229199262E+03 -0.47209423763E+03  0.59823223451E+03  0.00000000000E+00 0. -1.
         -3    1    1    2    0  503 -0.15483571428E+02 -0.27288321394E+02  0.15228866010E+02  0.34875662411E+02  0.00000000000E+00 0.  1.
<mgrwt>
<rscale>  4 0.40190675E+03</rscale>
<asrwt>0</asrwt>
<pdfrwt beam="1">  1       21 0.20291061E-01 0.40190675E+03</pdfrwt>
<pdfrwt beam="2">  1       21 0.23277931E+00 0.40190675E+03</pdfrwt>
<totfact> 0.16127955E+03</totfact>
</mgrwt>
</event>
<event>
 5    0  0.1972558E-002  0.3588509E+03  0.7546771E-02  0.1059040E+00
         21   -1    0    0  503  502  0.00000000000E+00  0.00000000000E+00  0.10391559871E+04  0.10391559871E+04  0.00000000000E+00 0. -1.
         21   -1    0    0  501  503 -0.00000000000E+00 -0.00000000000E+00 -0.13855288941E+03  0.13855288941E+03  0.00000000000E+00 0.  1.
         25    1    1    2    0    0 -0.26842397246E+03  0.17839590329E+03  0.29807889530E+03  0.45645652052E+03  0.12500000000E+03 0.  0.
          1    1    1    2  501    0 -0.25686591935E+02  0.27307517055E+02  0.53753270481E+02  0.65535605440E+02  0.00000000000E+00 0.  1.
         -1    1    1    2    0  502  0.29411056440E+03 -0.20570342035E+03  0.54877093192E+03  0.65571675055E+03  0.00000000000E+00 0. -1.
<mgrwt>
<rscale>  4 0.35885085E+03</rscale>
<asrwt>0</asrwt>
<pdfrwt beam="1">  1       21 0.15987015E+00 0.35885085E+03</pdfrwt>
<pdfrwt beam="2">  1       21 0.21315830E-01 0.35885085E+03</pdfrwt>
<totfact> 0.46533289E+03</totfact>
</mgrwt>
</event>
<event>
 5    0  0.1972558E-002  0.2032400E+03  0.7546771E-02  0.1147034E+00
         21   -1    0    0  501  502  0.00000000000E+00  0.00000000000E+00  0.46126477154E+03  0.46126477154E+03  0.00000000000E+00 0.  1.
         21   -1    0    0  502  503 -0.00000000000E+00 -0.00000000000E+00 -0.13689934541E+03  0.13689934541E+03  0.00000000000E+00 0. -1.
         25    1    1    2    0    0  0.22114269248E+02 -0.20036765191E+03  0.83626544584E+02  0.25150474309E+03  0.12500000000E+03 0.  0.
          2    1    1    2  501    0  0.35273502619E+02  0.13269129575E+03  0.69710229273E+02  0.15398284327E+03  0.00000000000E+00 0.  1.
         -2    1    1    2    0  503 -0.57387771868E+02  0.67676356157E+02  0.17102865228E+03  0.19267653060E+03  0.00000000000E+00 0. -1.
<mgrwt>
<rscale>  4 0.20323999E+03</rscale>
<asrwt>0</asrwt>
<pdfrwt beam="1">  1       21 0.70963810E-01 0.20323999E+03</pdfrwt>
<pdfrwt beam="2">  1       21 0.21061438E-01 0.20323999E+03</pdfrwt>
<totfact> 0.37458472E+04</totfact>
</mgrwt>
</event>
<event>
 5    0  0.1972558E-002  0.2428398E+03  0.7546771E-02  0.1117915E+00
         21   -1    0    0  501  502  0.00000000000E+00  0.00000000000E+00  0.96137769170E+02  0.96137769170E+02  0.00000000000E+00 0. -1.
         21   -1    0    0  502  503 -0.00000000000E+00 -0.00000000000E+00 -0.10647497163E+04  0.10647497163E+04  0.00000000000E+00 0.  1.
         25    1    1    2    0    0  0.53305609062E+02  0.20125770179E+03 -0.88117316254E+03  0.91402258882E+03  0.12500000000E+03 0.  0.
          3    1    1    2  501    0 -0.14839844013E+02 -0.10723553372E+03  0.65671051070E+01  0.10845647759E+03  0.00000000000E+00 0.  1.
         -3    1    1    2    0  503 -0.38465765049E+02 -0.94022168070E+02 -0.94005889699E+02  0.13840841906E+03  0.00000000000E+00 0. -1.
<mgrwt>
<rscale>  4 0.24283976E+03</rscale>
<asrwt>0</asrwt>
<pdfrwt beam="1">  1       21 0.14790427E-01 0.24283976E+03</pdfrwt>
<pdfrwt beam="2">  1       21 0.16380764E+00 0.24283976E+03</pdfrwt>
<totfact> 0.91663713E+03</totfact>
</mgrwt>
</event>
<event>
 5    0  0.1972558E-002  0.2697513E+03  0.7546771E-02  0.1101422E+00
         21   -1    0    0  501  502  0.00000000000E+00  0.00000000000E+00  0.25626803609E+04  0.25626803609E+04  0.00000000000E+00 0.  1.
         21   -1    0    0  502  503 -0.00000000000E+00 -0.00000000000E+00 -0.98752303397E+02  0.98752303397E+02  0.00000000000E+00 0. -1.
         25    1    1    2    0    0 -0.73939049201E+01  0.21683273157E+03  0.16991554036E+03  0.30260104786E+03  0.12500000000E+03 0.  0.
          2    1    1    2  501    0 -0.17192564222E+02  0.96080220567E+02  0.15265151850E+04  0.15296325059E+04  0.00000000000E+00 0.  1.
         -2    1    1    2    0  503  0.24586469142E+02 -0.31291295214E+03  0.76749733217E+03  0.82919911056E+03  0.00000000000E+00 0. -1.
<mgrwt>
<rscale>  4 0.26975133E+03</rscale>
<asrwt>0</asrwt>
<pdfrwt beam="1">  1       21 0.39425847E+00 0.26975133E+03</pdfrwt>
<pdfrwt beam="2">  1       21 0.15192664E-01 0.26975133E+03</pdfrwt>
<totfact> 0.32543969E+02</totfact>
</mgrwt>
</event>
<event>
 5    0  0.1972558E-002  0.6342231E+03  0.7546771E-02  0.9836842E-01
         21   -1    0    0  501  502  0.00000000000E+00  0.00000000000E+00  0.10370174012E+04  0.10370174012E+04  0.00000000000E+00 0. -1.
         21   -1    0    0  502  503 -0.00000000000E+00 -0.00000000000E+00 -0.45790619496E+03  0.45790619496E+03  0.00000000000E+00 0.  1.
         25    1    1    2    0    0  0.36030745046E+03 -0.51935886458E+03  0.15623836975E+03  0.66301622700E+03  0.12500000000E+03 0.  0.
          1    1    1    2  501    0 -0.16069331881E+01  0.25557126278E+02  0.16891826347E+03  0.17084826213E+03  0.00000000000E+00 0.  1.
         -1    1    1    2    0  503 -0.35870051728E+03  0.49380173831E+03  0.25395457303E+03  0.66105910705E+03  0.00000000000E+00 0. -1.
<mgrwt>
<rscale>  4 0.63422313E+03</rscale>
<asrwt>0</asrwt>
<pdfrwt beam="1">  1       21 0.15954114E+00 0.63422313E+03</pdfrwt>
<pdfrwt beam="2">  1       21 0.70447107E-01 0.63422313E+03</pdfrwt>
<totfact> 0.35604134E+02</totfact>
</mgrwt>
</event>
<event>
 5    0  0.1972558E-002  0.2627885E+03  0.7546771E-02  0.1105479E+00
         21   -1    0    0  503  502  0.00000000000E+00  0.00000000000E+00  0.52682685360E+03  0.52682685360E+03  0.00000000000E+00 0. -1.
         21   -1    0    0  501  503 -0.00000000000E+00 -0.00000000000E+00 -0.11626151310E+04  0.11626151310E+04  0.00000000000E+00 0. -1.
         25    1    1    2    0    0  0.78873409582E+02 -0.21868889719E+03 -0.11134829745E+04  0.11443405013E+04  0.12500000000E+03 0.  0.
          3    1    1    2  501    0  0.34782363903E+01  0.45924950208E+02  0.22396684994E+02  0.51213383785E+02  0.00000000000E+00 0.  1.
         -3    1    1    2    0  502 -0.82351645973E+02  0.17276394698E+03  0.45529801211E+03  0.49388809947E+03  0.00000000000E+00 0. -1.
<mgrwt>
<rscale>  4 0.26278848E+03</rscale>
<asrwt>0</asrwt>
<pdfrwt beam="1">  1       21 0.81050286E-01 0.26278848E+03</pdfrwt>
<pdfrwt beam="2">  1       21 0.17886386E+00 0.26278848E+03</pdfrwt>
<totfact> 0.22888583E+02</totfact>
</mgrwt>
</event>
<event>
 5    0  0.1972558E-002  0.2117438E+03  0.7546771E-02  0.1140192E+00
         21   -1    0    0  501  502  0.00000000000E+00  0.00000000000E+00  0.10555389962E+04  0.10555389962E+04  0.00000000000E+00 0. -1.
         21   -1    0    0  502  503 -0.00000000000E+00 -0.00000000000E+00 -0.62712963004E+02  0.62712963004E+02  0.00000000000E+00 0. -1.
         25    1    1    2    0    0  0.75779093145E+02 -0.18557568414E+03  0.27277931234E+03  0.36085226720E+03  0.12500000000E+03 0.  0.
          4    1    1    2  501    0 -0.64054971786E+02  0.43081128594E+02  0.39232445632E+03  0.39984684828E+03  0.00000000000E+00 0.  1.
         -4    1    1    2    0  503 -0.11724121358E+02  0.14249455555E+03  0.32772226456E+03  0.35755284374E+03  0.00000000000E+00 0. -1.
<mgrwt>
<rscale>  4 0.21174384E+03</rscale>
<asrwt>0</asrwt>
<pdfrwt beam="1">  1       21 0.16239060E+00 0.21174384E+03</pdfrwt>
<pdfrwt beam="2">  1       21 0.96481489E-02 0.21174384E+03</pdfrwt>
<totfact> 0.20632474E+04</totfact>
</mgrwt>
</event>
<event>
 5    0  0.1972558E-002  0.2829920E+03  0.7546771E-02  0.1094066E+00
         21   -1    0    0  501  502  0.00000000000E+00  0.00000000000E+00  0.25173728816E+03  0.25173728816E+03  0.00000000000E+00 0. -1.
         21   -1    0    0  502  503 -0.00000000000E+00 -0.00000000000E+00 -0.69203998568E+03  0.69203998568E+03  0.00000000000E+00 0.  1.
         25    1    1    2    0    0  0.25720995778E+03  0.45773603046E+02 -0.51863001045E+03  0.59401538099E+03  0.12500000000E+03 0.  0.
          1    1    1    2  501    0 -0.24018095268E+02 -0.22916962337E+02  0.10854872429E+03  0.11351159239E+03  0.00000000000E+00 0. -1.
         -1    1    1    2    0  503 -0.23319186251E+03 -0.22856640710E+02 -0.30221411358E+02  0.23625030046E+03  0.00000000000E+00 0.  1.
<mgrwt>
<rscale>  4 0.28299204E+03</rscale>
<asrwt>0</asrwt>
<pdfrwt beam="1">  1       21 0.38728814E-01 0.28299204E+03</pdfrwt>
<pdfrwt beam="2">  1       21 0.10646769E+00 0.28299204E+03</pdfrwt>
<totfact> 0.42697526E+03</totfact>
</mgrwt>
</event>
<event>
 5    0  0.1972558E-002  0.2946135E+03  0.7546771E-02  0.1087965E+00
         21   -1    0    0  501  502  0.00000000000E+00  0.00000000000E+00  0.55388720193E+03  0.55388720193E+03  0.00000000000E+00 0. -1.
         21   -1    0    0  502  503 -0.00000000000E+00 -0.00000000000E+00 -0.52410284014E+03  0.52410284014E+03  0.00000000000E+00 0.  1.
         25    1    1    2    0    0 -0.18808046563E+03 -0.12167235592E+03 -0.10965085830E+03  0.27897443336E+03  0.12500000000E+03 0.  0.
          4    1    1    2  501    0 -0.12643084052E+02 -0.11392306601E+03  0.38640633479E+03  0.40304859274E+03  0.00000000000E+00 0. -1.
         -4    1    1    2    0  503  0.20072354968E+03  0.23559542193E+03 -0.24697111471E+03  0.39596701597E+03  0.00000000000E+00 0.  1.
<mgrwt>
<rscale>  4 0.29461352E+03</rscale>
<asrwt>0</asrwt>
<pdfrwt beam="1">  1       21 0.85213416E-01 0.29461352E+03</pdfrwt>
<pdfrwt beam="2">  1       21 0.80631206E-01 0.29461352E+03</pdfrwt>
<totfact> 0.14881171E+03</totfact>
</mgrwt>
</event>
<event>
 5    0  0.1972558E-002  0.2523793E+03  0.7546771E-02  0.1111810E+00
         21   -1    0    0  501  502  0.00000000000E+00  0.00000000000E+00  0.26947320676E+03  0.26947320676E+03  0.00000000000E+00 0. -1.
         21   -1    0    0  502  503 -0.00000000000E+00 -0.00000000000E+00 -0.61990976492E+03  0.61990976492E+03  0.00000000000E+00 0. -1.
         25    1    1    2    0    0 -0.23446123554E+03 -0.10000763107E+02 -0.39549426852E+03  0.47656353476E+03  0.12500000000E+03 0.  0.
          4    1    1    2  501    0  0.19294055894E+03 -0.72797328071E+02 -0.10885535077E+03  0.23318447129E+03  0.00000000000E+00 0. -1.
         -4    1    1    2    0  503  0.41520676592E+02  0.82798091178E+02  0.15391306114E+03  0.17963496563E+03  0.00000000000E+00 0.  1.
<mgrwt>
<rscale>  4 0.25237930E+03</rscale>
<asrwt>0</asrwt>
<pdfrwt beam="1">  1       21 0.41457416E-01 0.25237930E+03</pdfrwt>
<pdfrwt beam="2">  1       21 0.95370733E-01 0.25237930E+03</pdfrwt>
<totfact> 0.49294943E+03</totfact>
</mgrwt>
</event>
<event>
 5    0  0.1972558E-002  0.2279367E+03  0.7546771E-02  0.1128100E+00
         21   -1    0    0  501  502  0.00000000000E+00  0.00000000000E+00  0.13289863694E+03  0.13289863694E+03  0.00000000000E+00 0. -1.
         21   -1    0    0  502  503 -0.00000000000E+00 -0.00000000000E+00 -0.45397505242E+03  0.45397505242E+03  0.00000000000E+00 0.  1.
         25    1    1    2    0    0 -0.19174200146E+03 -0.58091008033E+02 -0.25997492512E+03  0.35121435339E+03  0.12500000000E+03 0.  0.
          2    1    1    2  501    0  0.23809591273E+02 -0.35646293333E+01  0.27062355494E+02  0.36221185842E+02  0.00000000000E+00 0.  1.
         -2    1    1    2    0  503  0.16793241019E+03  0.61655637367E+02 -0.88163845857E+02  0.19943815013E+03  0.00000000000E+00 0. -1.
<mgrwt>
<rscale>  4 0.22793672E+03</rscale>
<asrwt>0</asrwt>
<pdfrwt beam="1">  1       21 0.20445944E-01 0.22793672E+03</pdfrwt>
<pdfrwt beam="2">  1       21 0.69842316E-01 0.22793672E+03</pdfrwt>
<totfact> 0.40531503E+04</totfact>
</mgrwt>
</event>
<event>
 5    0  0.1972558E-002  0.2587591E+03  0.7546771E-02  0.1107891E+00
         21   -1    0    0  501  502  0.00000000000E+00  0.00000000000E+00  0.18372990447E+04  0.18372990447E+04  0.00000000000E+00 0.  1.
         21   -1    0    0  502  503 -0.00000000000E+00 -0.00000000000E+00 -0.23344408505E+03  0.23344408505E+03  0.00000000000E+00 0. -1.
         25    1    1    2    0    0  0.16059065339E+03 -0.17135697549E+03 -0.13111502780E+03  0.29659521493E+03  0.12500000000E+03 0.  0.
          1    1    1    2  501    0 -0.91540871084E+02 -0.42202052159E+01  0.12563079221E+04  0.12596456392E+04  0.00000000000E+00 0.  1.
         -1    1    1    2    0  503 -0.69049782307E+02  0.17557718070E+03  0.47866206536E+03  0.51450227563E+03  0.00000000000E+00 0. -1.
<mgrwt>
<rscale>  4 0.25875913E+03</rscale>
<asrwt>0</asrwt>
<pdfrwt beam="1">  1       21 0.28266138E+00 0.25875913E+03</pdfrwt>
<pdfrwt beam="2">  1       21 0.35914476E-01 0.25875913E+03</pdfrwt>
<totfact> 0.29548770E+02</totfact>
</mgrwt>
</event>
<event>
 5    0  0.1972558E-002  0.2442313E+03  0.7546771E-02  0.1117006E+00
         21   -1    0    0  501  502  0.00000000000E+00  0.00000000000E+00  0.23310049841E+04  0.23310049841E+04  0.00000000000E+00 0. -1.
         21   -1    0    0  502  503 -0.00000000000E+00 -0.00000000000E+00 -0.17269101497E+03  0.17269101497E+03  0.00000000000E+00 0. -1.
         25    1    1    2    0    0  0.94294637779E+02 -0.18877218648E+03 -0.64213411059E+02  0.25352471135E+03  0.12500000000E+03 0.  0.
          3    1    1    2  501    0  0.12779323648E+02  0.18238143695E+02  0.14984754307E+04  0.14986409034E+04  0.00000000000E+00 0. -1.
         -3    1    1    2    0  503 -0.10707396143E+03  0.17053404279E+03  0.72405194948E+03  0.75153038429E+03  0.00000000000E+00 0.  1.
<mgrwt>
<rscale>  4 0.24423127E+03</rscale>
<asrwt>0</asrwt>
<pdfrwt beam="1">  1       21 0.35861613E+00 0.24423127E+03</pdfrwt>
<pdfrwt beam="2">  1       21 0.26567850E-01 0.24423127E+03</pdfrwt>
<totfact> 0.19411652E+02</totfact>
</mgrwt>
</event>
<event>
 5    0  0.1972558E-002  0.3789696E+03  0.7546771E-02  0.1051315E+00
         21   -1    0    0  501  502  0.00000000000E+00  0.00000000000E+00  0.68152387391E+03  0.68152387391E+03  0.00000000000E+00 0.  1.
         21   -1    0    0  502  503 -0.00000000000E+00 -0.00000000000E+00 -0.97623698149E+03  0.97623698149E+03  0.00000000000E+00 0.  1.
         25    1    1    2    0    0  0.10521798525E+03  0.34354530847E+03 -0.83786355409E+03  0.92018179653E+03  0.12500000000E+03 0.  0.
          3    1    1    2  501    0 -0.81830113503E+02 -0.33691179361E+03  0.21379039552E+03  0.40732303810E+03  0.00000000000E+00 0.  1.
         -3    1    1    2    0  503 -0.23387871747E+02 -0.66335148549E+01  0.32936005099E+03  0.33025602077E+03  0.00000000000E+00 0. -1.
<mgrwt>
<rscale>  4 0.37896962E+03</rscale>
<asrwt>0</asrwt>
<pdfrwt beam="1">  1       21 0.10484983E+00 0.37896962E+03</pdfrwt>
<pdfrwt beam="2">  1       21 0.15019031E+00 0.37896962E+03</pdfrwt>
<totfact> 0.18512136E+02</totfact>
</mgrwt>
</event>
<event>
 5    0  0.1972558E-002  0.4382616E+03  0.7546771E-02  0.1031282E+00
         21   -1    0    0  501  502  0.00000000000E+00  0.00000000000E+00  0.37093096717E+03  0.37093096717E+03  0.00000000000E+00 0. -1.
         21   -1    0    0  502  503 -0.00000000000E+00 -0.00000000000E+00 -0.15758369673E+04  0.15758369673E+04  0.00000000000E+00 0.  1.
         25    1    1    2    0    0  0.56210376852E+02  0.37569878363E+03 -0.14835135536E+03  0.42654695770E+03  0.12500000000E+03 0.  0.
          1    1    1    2  501    0  0.31371568904E+02  0.45909372914E+02  0.19179382832E+03  0.19969155826E+03  0.00000000000E+00 0. -1.
         -1    1    1    2    0  503 -0.87581945756E+02 -0.42160815654E+03 -0.12483484731E+04  0.13205294185E+04  0.00000000000E+00 0.  1.
<mgrwt>
<rscale>  4 0.43826162E+03</rscale>
<asrwt>0</asrwt>
<pdfrwt beam="1">  1       21 0.57066304E-01 0.43826162E+03</pdfrwt>
<pdfrwt beam="2">  1       21 0.24243645E+00 0.43826162E+03</pdfrwt>
<totfact> 0.17027334E+02</totfact>
</mgrwt>
</event>
<event>
 5    0  0.1972558E-002  0.2778346E+03  0.7546771E-02  0.1096878E+00
         21   -1    0    0  501  502  0.00000000000E+00  0.00000000000E+00  0.31676755635E+03  0.31676755635E+03  0.00000000000E+00 0. -1.
         21   -1    0    0  502  503 -0.00000000000E+00 -0.00000000000E+00 -0.45989989828E+03  0.45989989828E+03  0.00000000000E+00 0.  1.
         25    1    1    2    0    0  0.23262298562E+03  0.70741932507E+02  0.26146789685E+02  0.27463890668E+03  0.12500000000E+03 0.  0.
          4    1    1    2  501    0  0.14954497406E+02 -0.33800560313E+02  0.11644100573E+03  0.12216637298E+03  0.00000000000E+00 0. -1.
         -4    1    1    2    0  503 -0.24757748303E+03 -0.36941372195E+02 -0.28572013735E+03  0.37986217496E+03  0.00000000000E+00 0.  1.
<mgrwt>
<rscale>  4 0.27783459E+03</rscale>
<asrwt>0</asrwt>
<pdfrwt beam="1">  1       21 0.48733470E-01 0.27783459E+03</pdfrwt>
<pdfrwt beam="2">  1       21 0.70753830E-01 0.27783459E+03</pdfrwt>
<totfact> 0.68944681E+03</totfact>
</mgrwt>
</event>
<event>
 5    0  0.1972558E-002  0.2408737E+03  0.7546771E-02  0.1119212E+00
         21   -1    0    0  501  502  0.00000000000E+00  0.00000000000E+00  0.43531172934E+03  0.43531172934E+03  0.00000000000E+00 0.  1.
         21   -1    0    0  502  503 -0.00000000000E+00 -0.00000000000E+00 -0.15960189499E+03  0.15960189499E+03  0.00000000000E+00 0.  1.
         25    1    1    2    0    0 -0.14842987614E+03  0.14270149620E+03  0.45920676706E+01  0.24091748013E+03  0.12500000000E+03 0.  0.
          3    1    1    2  501    0  0.12951731094E+03 -0.82142867280E+02  0.23607000254E+03  0.28151595084E+03  0.00000000000E+00 0.  1.
         -3    1    1    2    0  503  0.18912565204E+02 -0.60558628916E+02  0.35047764136E+02  0.72480193362E+02  0.00000000000E+00 0. -1.
<mgrwt>
<rscale>  4 0.24087371E+03</rscale>
<asrwt>0</asrwt>
<pdfrwt beam="1">  1       21 0.66971035E-01 0.24087371E+03</pdfrwt>
<pdfrwt beam="2">  1       21 0.24554138E-01 0.24087371E+03</pdfrwt>
<totfact> 0.31231399E+04</totfact>
</mgrwt>
</event>
<event>
 5    0  0.1972558E-002  0.3365426E+03  0.7546771E-02  0.1068278E+00
         21   -1    0    0  501  502  0.00000000000E+00  0.00000000000E+00  0.21032631016E+03  0.21032631016E+03  0.00000000000E+00 0.  1.
         21   -1    0    0  502  503 -0.00000000000E+00 -0.00000000000E+00 -0.75877451947E+03  0.75877451947E+03  0.00000000000E+00 0.  1.
         25    1    1    2    0    0  0.12457816149E+03  0.32094320286E+03 -0.37907985803E+03  0.52711554383E+03  0.12500000000E+03 0.  0.
          3    1    1    2  501    0 -0.79742429080E+02 -0.40252438576E+02  0.30624781596E+02  0.94429820791E+02  0.00000000000E+00 0.  1.
         -3    1    1    2    0  503 -0.44835732406E+02 -0.28069076429E+03 -0.19999313288E+03  0.34755546501E+03  0.00000000000E+00 0. -1.
<mgrwt>
<rscale>  4 0.33654260E+03</rscale>
<asrwt>0</asrwt>
<pdfrwt beam="1">  1       21 0.32357895E-01 0.33654260E+03</pdfrwt>
<pdfrwt beam="2">  1       21 0.11673454E+00 0.33654260E+03</pdfrwt>
<totfact> 0.47533905E+03</totfact>
</mgrwt>
</event>
<event>
 5    0  0.1972558E-002  0.3633548E+03  0.7546771E-02  0.1057263E+00
         21   -1    0    0  501  502  0.00000000000E+00  0.00000000000E+00  0.46644853919E+03  0.46644853919E+03  0.00000000000E+00 0. -1.
         21   -1    0    0  502  503 -0.00000000000E+00 -0.00000000000E+00 -0.31063451934E+04  0.31063451934E+04  0.00000000000E+00 0.  1.
         25    1    1    2    0    0 -0.61641919637E+02  0.33987564152E+03 -0.29918569217E+04  0.30143238077E+04  0.12500000000E+03 0.  0.
          3    1    1    2  501    0  0.10407017086E+03 -0.69007832238E+02  0.22278331984E+03  0.25539202997E+03  0.00000000000E+00 0.  1.
         -3    1    1    2    0  503 -0.42428251222E+02 -0.27086780928E+03  0.12917694761E+03  0.30307789494E+03  0.00000000000E+00 0. -1.
<mgrwt>
<rscale>  4 0.36335477E+03</rscale>
<asrwt>0</asrwt>
<pdfrwt beam="1">  1       21 0.71761312E-01 0.36335477E+03</pdfrwt>
<pdfrwt beam="2">  1       21 0.47789927E+00 0.36335477E+03</pdfrwt>
<totfact> 0.36147408E+00</totfact>
</mgrwt>
</event>
<event>
 5    0  0.1972558E-002  0.2716234E+03  0.7546771E-02  0.1100354E+00
         21   -1    0    0  501  502  0.00000000000E+00  0.00000000000E+00  0.37486597252E+03  0.37486597252E+03  0.00000000000E+00 0.  1.
         21   -1    0    0  502  503 -0.00000000000E+00 -0.00000000000E+00 -0.60568805050E+03  0.60568805050E+03  0.00000000000E+00 0. -1.
         25    1    1    2    0    0 -0.54569486744E+02 -0.25001843279E+03 -0.33930012634E+03  0.44298602840E+03  0.12500000000E+03 0.  0.
          2    1    1    2  501    0  0.59447008139E+02  0.21651654539E+03 -0.15441626713E+03  0.27250274266E+03  0.00000000000E+00 0. -1.
         -2    1    1    2    0  503 -0.48775213946E+01  0.33501887402E+02  0.26289431550E+03  0.26506525196E+03  0.00000000000E+00 0.  1.
<mgrwt>
<rscale>  4 0.27162339E+03</rscale>
<asrwt>0</asrwt>
<pdfrwt beam="1">  1       21 0.57671689E-01 0.27162339E+03</pdfrwt>
<pdfrwt beam="2">  1       21 0.93182776E-01 0.27162339E+03</pdfrwt>
<totfact> 0.25762544E+03</totfact>
</mgrwt>
</event>
<event>
 5    0  0.1972558E-002  0.2342508E+03  0.7546771E-02  0.1123683E+00
         21   -1    0    0  501  502  0.00000000000E+00  0.00000000000E+00  0.20158065324E+04  0.20158065324E+04  0.00000000000E+00 0.  1.
         21   -1    0    0  502  503 -0.00000000000E+00 -0.00000000000E+00 -0.36061406687E+02  0.36061406687E+02  0.00000000000E+00 0.  1.
         25    1    1    2    0    0 -0.15480469283E+03 -0.14413198838E+03  0.72313964097E+03  0.76373716902E+03  0.12500000000E+03 0.  0.
          3    1    1    2  501    0  0.13674146987E+03  0.12885967877E+03  0.55148660126E+03  0.58261523990E+03  0.00000000000E+00 0.  1.
         -3    1    1    2    0  503  0.18063222961E+02  0.15272309604E+02  0.70511888349E+03  0.70551553018E+03  0.00000000000E+00 0. -1.
<mgrwt>
<rscale>  4 0.23425082E+03</rscale>
<asrwt>0</asrwt>
<pdfrwt beam="1">  1       21 0.31012399E+00 0.23425082E+03</pdfrwt>
<pdfrwt beam="2">  1       21 0.55479103E-02 0.23425082E+03</pdfrwt>
<totfact> 0.64368765E+03</totfact>
</mgrwt>
</event>
<event>
 5    0  0.1972558E-002  0.2322686E+03  0.7546771E-02  0.1125053E+00
         21   -1    0    0  503  502  0.00000000000E+00  0.00000000000E+00  0.41745119632E+03  0.41745119632E+03  0.00000000000E+00 0. -1.
         21   -1    0    0  501  503 -0.00000000000E+00 -0.00000000000E+00 -0.35442611867E+03  0.35442611867E+03  0.00000000000E+00 0. -1.
         25    1    1    2    0    0 -0.51704858111E+02 -0.20629240696E+03 -0.23917295474E+03  0.34359664114E+03  0.12500000000E+03 0.  0.
          4    1    1    2  501    0  0.86683391034E+01  0.51095014918E+02  0.25534333640E+03  0.26054953483E+03  0.00000000000E+00 0. -1.
         -4    1    1    2    0  502  0.43036519008E+02  0.15519739204E+03  0.46854695976E+02  0.16773113903E+03  0.00000000000E+00 0.  1.
<mgrwt>
<rscale>  4 0.23226862E+03</rscale>
<asrwt>0</asrwt>
<pdfrwt beam="1">  1       21 0.64223261E-01 0.23226862E+03</pdfrwt>
<pdfrwt beam="2">  1       21 0.54527095E-01 0.23226862E+03</pdfrwt>
<totfact> 0.69142400E+03</totfact>
</mgrwt>
</event>
<event>
 5    0  0.1972558E-002  0.2591776E+03  0.7546771E-02  0.1107638E+00
         21   -1    0    0  501  502  0.00000000000E+00  0.00000000000E+00  0.21447064202E+03  0.21447064202E+03  0.00000000000E+00 0.  1.
         21   -1    0    0  502  503 -0.00000000000E+00 -0.00000000000E+00 -0.89923467533E+03  0.89923467533E+03  0.00000000000E+00 0.  1.
         25    1    1    2    0    0 -0.27798435990E+03 -0.17107256584E+01 -0.26342847406E+03  0.40286200103E+03  0.12500000000E+03 0.  0.
          1    1    1    2  501    0  0.72917922473E+02  0.64412366442E+02  0.10461084267E+03  0.14286148807E+03  0.00000000000E+00 0. -1.
         -1    1    1    2    0  503  0.20506643743E+03 -0.62701640784E+02 -0.52594640192E+03  0.56798182824E+03  0.00000000000E+00 0.  1.
<mgrwt>
<rscale>  4 0.25917756E+03</rscale>
<asrwt>0</asrwt>
<pdfrwt beam="1">  1       21 0.32995484E-01 0.25917756E+03</pdfrwt>
<pdfrwt beam="2">  1       21 0.13834379E+00 0.25917756E+03</pdfrwt>
<totfact> 0.30980226E+03</totfact>
</mgrwt>
</event>
<event>
 5    0  0.1972558E-002  0.2523677E+03  0.7546771E-02  0.1111818E+00
         21   -1    0    0  501  502  0.00000000000E+00  0.00000000000E+00  0.23295676169E+03  0.23295676169E+03  0.00000000000E+00 0. -1.
         21   -1    0    0  502  503 -0.00000000000E+00 -0.00000000000E+00 -0.31971763444E+03  0.31971763444E+03  0.00000000000E+00 0. -1.
         25    1    1    2    0    0  0.29794150803E+02 -0.21720216059E+03 -0.17902834487E+03  0.30941980909E+03  0.12500000000E+03 0.  0.
          1    1    1    2  501    0 -0.38823465079E+02  0.19506360665E+03  0.70779863456E+02  0.21110864774E+03  0.00000000000E+00 0. -1.
         -1    1    1    2    0  503  0.90293142766E+01  0.22138553948E+02  0.21487608672E+02  0.32145939303E+02  0.00000000000E+00 0.  1.
<mgrwt>
<rscale>  4 0.25236773E+03</rscale>
<asrwt>0</asrwt>
<pdfrwt beam="1">  1       21 0.35839502E-01 0.25236773E+03</pdfrwt>
<pdfrwt beam="2">  1       21 0.49187328E-01 0.25236773E+03</pdfrwt>
<totfact> 0.28723878E+04</totfact>
</mgrwt>
</event>
<event>
 5    0  0.1972558E-002  0.2445226E+03  0.7546771E-02  0.1116816E+00
         21   -1    0    0  501  502  0.00000000000E+00  0.00000000000E+00  0.47767778475E+02  0.47767778475E+02  0.00000000000E+00 0.  1.
         21   -1    0    0  502  503 -0.00000000000E+00 -0.00000000000E+00 -0.14478855705E+04  0.14478855705E+04  0.00000000000E+00 0.  1.
         25    1    1    2    0    0 -0.15503429309E+02  0.20105134653E+03 -0.86914391563E+03  0.90094292068E+03  0.12500000000E+03 0.  0.
          1    1    1    2  501    0 -0.17642450274E+02 -0.22475440678E+03 -0.47136678796E+03  0.52250593127E+03  0.00000000000E+00 0.  1.
         -1    1    1    2    0  503  0.33145879583E+02  0.23703060248E+02 -0.59607088445E+02  0.72204497029E+02  0.00000000000E+00 0. -1.
<mgrwt>
<rscale>  4 0.24452263E+03</rscale>
<asrwt>0</asrwt>
<pdfrwt beam="1">  1       21 0.73488891E-02 0.24452263E+03</pdfrwt>
<pdfrwt beam="2">  1       21 0.22275162E+00 0.24452263E+03</pdfrwt>
<totfact> 0.12922545E+04</totfact>
</mgrwt>
</event>
<event>
 5    0  0.1972558E-002  0.4230643E+03  0.7546771E-02  0.1036074E+00
         21   -1    0    0  501  502  0.00000000000E+00  0.00000000000E+00  0.35965866349E+03  0.35965866349E+03  0.00000000000E+00 0.  1.
         21   -1    0    0  502  503 -0.00000000000E+00 -0.00000000000E+00 -0.58739784852E+03  0.58739784852E+03  0.00000000000E+00 0.  1.
         25    1    1    2    0    0 -0.38163287513E+03  0.11508537457E+03 -0.14086028268E+03  0.44085702224E+03  0.12500000000E+03 0.  0.
          1    1    1    2  501    0 -0.16546978058E+02 -0.18339893526E+02  0.64733501504E+02  0.69286220811E+02  0.00000000000E+00 0. -1.
         -1    1    1    2    0  503  0.39817985319E+03 -0.96745481048E+02 -0.15161240385E+03  0.43691326895E+03  0.00000000000E+00 0.  1.
<mgrwt>
<rscale>  4 0.42306426E+03</rscale>
<asrwt>0</asrwt>
<pdfrwt beam="1">  1       21 0.55332102E-01 0.42306426E+03</pdfrwt>
<pdfrwt beam="2">  1       21 0.90368900E-01 0.42306426E+03</pdfrwt>
<totfact> 0.28127305E+03</totfact>
</mgrwt>
</event>
<event>
 5    0  0.1972558E-002  0.3155690E+03  0.7546771E-02  0.1077707E+00
         21   -1    0    0  501  502  0.00000000000E+00  0.00000000000E+00  0.12313119882E+04  0.12313119882E+04  0.00000000000E+00 0.  1.
         21   -1    0    0  502  503 -0.00000000000E+00 -0.00000000000E+00 -0.28228772172E+03  0.28228772172E+03  0.00000000000E+00 0.  1.
         25    1    1    2    0    0 -0.32444890806E+03 -0.10909101872E+03  0.46660270125E+02  0.36738280459E+03  0.12500000000E+03 0.  0.
          1    1    1    2  501    0  0.25234278446E+03  0.44311073736E+02  0.18301758262E+02  0.25685658738E+03  0.00000000000E+00 0.  1.
         -1    1    1    2    0  503  0.72106123596E+02  0.64779944981E+02  0.88406223807E+03  0.88936031793E+03  0.00000000000E+00 0. -1.
<mgrwt>
<rscale>  4 0.31556901E+03</rscale>
<asrwt>0</asrwt>
<pdfrwt beam="1">  1       21 0.18943261E+00 0.31556901E+03</pdfrwt>
<pdfrwt beam="2">  1       21 0.43428881E-01 0.31556901E+03</pdfrwt>
<totfact> 0.71861796E+02</totfact>
</mgrwt>
</event>
<event>
 5    0  0.1972558E-002  0.2521168E+03  0.7546771E-02  0.1111974E+00
         21   -1    0    0  501  502  0.00000000000E+00  0.00000000000E+00  0.65547613773E+03  0.65547613773E+03  0.00000000000E+00 0. -1.
         21   -1    0    0  502  503 -0.00000000000E+00 -0.00000000000E+00 -0.33658803589E+03  0.33658803589E+03  0.00000000000E+00 0.  1.
         25    1    1    2    0    0  0.15879804249E+03  0.15977935315E+03 -0.22579895248E+03  0.34257324316E+03  0.12500000000E+03 0.  0.
          1    1    1    2  501    0  0.24859906960E+01 -0.41807923644E+02  0.40145765054E+03  0.40363638067E+03  0.00000000000E+00 0.  1.
         -1    1    1    2    0  503 -0.16128403319E+03 -0.11797142951E+03  0.14322940378E+03  0.24585454978E+03  0.00000000000E+00 0. -1.
<mgrwt>
<rscale>  4 0.25211684E+03</rscale>
<asrwt>0</asrwt>
<pdfrwt beam="1">  1       21 0.10084248E+00 0.25211684E+03</pdfrwt>
<pdfrwt beam="2">  1       21 0.51782775E-01 0.25211684E+03</pdfrwt>
<totfact> 0.27210366E+03</totfact>
</mgrwt>
</event>
<event>
 5    0  0.1972558E-002  0.2316858E+03  0.7546771E-02  0.1125459E+00
         21   -1    0    0  501  502  0.00000000000E+00  0.00000000000E+00  0.49174596764E+03  0.49174596764E+03  0.00000000000E+00 0.  1.
         21   -1    0    0  502  503 -0.00000000000E+00 -0.00000000000E+00 -0.34969746579E+03  0.34969746579E+03  0.00000000000E+00 0.  1.
         25    1    1    2    0    0  0.18637978784E+03 -0.80181547199E+02 -0.26657362347E+03  0.35756538221E+03  0.12500000000E+03 0.  0.
          2    1    1    2  501    0 -0.83765163621E+02 -0.10260290241E+02  0.45559385662E+02  0.95903773722E+02  0.00000000000E+00 0. -1.
         -2    1    1    2    0  503 -0.10261462422E+03  0.90441837440E+02  0.36306273966E+03  0.38797427749E+03  0.00000000000E+00 0.  1.
<mgrwt>
<rscale>  4 0.23168578E+03</rscale>
<asrwt>0</asrwt>
<pdfrwt beam="1">  1       21 0.75653226E-01 0.23168578E+03</pdfrwt>
<pdfrwt beam="2">  1       21 0.53799610E-01 0.23168578E+03</pdfrwt>
<totfact> 0.49518104E+03</totfact>
</mgrwt>
</event>
<event>
 5    0  0.2512239E-002  0.2302847E+03  0.7546771E-02  0.1126440E+00
         21   -1    0    0  501  502  0.00000000000E+00  0.00000000000E+00  0.41951472558E+03  0.41951472558E+03  0.00000000000E+00 0. -1.
         21   -1    0    0  502  503 -0.00000000000E+00 -0.00000000000E+00 -0.64107160420E+03  0.64107160420E+03  0.00000000000E+00 0. -1.
         25    1    1    2    0    0  0.17418033254E+03  0.11647206478E+03 -0.30710573042E+03  0.39222883598E+03  0.12500000000E+03 0.  0.
          1    1    1    2  501    0 -0.97004136887E+01 -0.35850342204E+02  0.34707821990E+03  0.34905964503E+03  0.00000000000E+00 0. -1.
         -1    1    1    2    0  503 -0.16447991885E+03 -0.80621722575E+02 -0.26152936810E+03  0.31929784878E+03  0.00000000000E+00 0.  1.
<mgrwt>
<rscale>  4 0.23028469E+03</rscale>
<asrwt>0</asrwt>
<pdfrwt beam="1">  1       21 0.64540726E-01 0.23028469E+03</pdfrwt>
<pdfrwt beam="2">  1       21 0.98626402E-01 0.23028469E+03</pdfrwt>
<totfact> 0.18172292E+03</totfact>
</mgrwt>
</event>
<event>
 5    0  0.1972558E-002  0.2327949E+03  0.7546771E-02  0.1124688E+00
         21   -1    0    0  501  502  0.00000000000E+00  0.00000000000E+00  0.11856871601E+04  0.11856871601E+04  0.00000000000E+00 0. -1.
         21   -1    0    0  502  503 -0.00000000000E+00 -0.00000000000E+00 -0.14774587585E+03  0.14774587585E+03  0.00000000000E+00 0.  1.
         25    1    1    2    0    0  0.19882887435E+03 -0.42514930038E+02 -0.23810688529E+02  0.23985910331E+03  0.12500000000E+03 0.  0.
          4    1    1    2  501    0 -0.16582523680E+03  0.22922679367E+02  0.44206650864E+03  0.47270102226E+03  0.00000000000E+00 0.  1.
         -4    1    1    2    0  503 -0.33003637548E+02  0.19592250671E+02  0.61968546411E+03  0.62087291035E+03  0.00000000000E+00 0. -1.
<mgrwt>
<rscale>  4 0.23279495E+03</rscale>
<asrwt>0</asrwt>
<pdfrwt beam="1">  1       21 0.18241340E+00 0.23279495E+03</pdfrwt>
<pdfrwt beam="2">  1       21 0.22730136E-01 0.23279495E+03</pdfrwt>
<totfact> 0.30687263E+03</totfact>
</mgrwt>
</event>
<event>
 5    0  0.1972558E-002  0.2339554E+03  0.7546771E-02  0.1123886E+00
         21   -1    0    0  503  502  0.00000000000E+00  0.00000000000E+00  0.35006654495E+03  0.35006654495E+03  0.00000000000E+00 0.  1.
         21   -1    0    0  501  503 -0.00000000000E+00 -0.00000000000E+00 -0.22047729830E+03  0.22047729830E+03  0.00000000000E+00 0.  1.
         25    1    1    2    0    0  0.11929161142E+03 -0.19207287526E+03  0.12655137221E+02  0.25866509324E+03  0.12500000000E+03 0.  0.
          4    1    1    2  501    0 -0.10707889088E+03  0.11001512119E+02  0.42936365738E+02  0.11588983409E+03  0.00000000000E+00 0. -1.
         -4    1    1    2    0  502 -0.12212720537E+02  0.18107136314E+03  0.73997743687E+02  0.19598891592E+03  0.00000000000E+00 0.  1.
<mgrwt>
<rscale>  4 0.23395538E+03</rscale>
<asrwt>0</asrwt>
<pdfrwt beam="1">  1       21 0.53856392E-01 0.23395538E+03</pdfrwt>
<pdfrwt beam="2">  1       21 0.33919584E-01 0.23395538E+03</pdfrwt>
<totfact> 0.26710457E+04</totfact>
</mgrwt>
</event>
<event>
 5    0  0.1972558E-002  0.3485616E+03  0.7546771E-02  0.1063207E+00
         21   -1    0    0  503  502  0.00000000000E+00  0.00000000000E+00  0.80745004402E+03  0.80745004402E+03  0.00000000000E+00 0.  1.
         21   -1    0    0  501  503 -0.00000000000E+00 -0.00000000000E+00 -0.28167631105E+03  0.28167631105E+03  0.00000000000E+00 0.  1.
         25    1    1    2    0    0  0.23626656851E+03 -0.22271990289E+03 -0.10367151175E+03  0.36304108430E+03  0.12500000000E+03 0.  0.
          1    1    1    2  501    0  0.20905934748E+02  0.16440039198E+02  0.20337545949E+02  0.33480573050E+02  0.00000000000E+00 0. -1.
         -1    1    1    2    0  502 -0.25717250326E+03  0.20627986370E+03  0.60910769877E+03  0.69260469772E+03  0.00000000000E+00 0.  1.
<mgrwt>
<rscale>  4 0.34856161E+03</rscale>
<asrwt>0</asrwt>
<pdfrwt beam="1">  1       21 0.12422308E+00 0.34856161E+03</pdfrwt>
<pdfrwt beam="2">  1       21 0.43334817E-01 0.34856161E+03</pdfrwt>
<totfact> 0.22324821E+03</totfact>
</mgrwt>
</event>
<event>
 5    0  0.1972558E-002  0.2650574E+03  0.7546771E-02  0.1104142E+00
         21   -1    0    0  501  502  0.00000000000E+00  0.00000000000E+00  0.30371778473E+03  0.30371778473E+03  0.00000000000E+00 0. -1.
         21   -1    0    0  502  503 -0.00000000000E+00 -0.00000000000E+00 -0.52358163676E+03  0.52358163676E+03  0.00000000000E+00 0. -1.
         25    1    1    2    0    0 -0.48306743309E+02 -0.22892470289E+03 -0.41101170401E+03  0.48917857872E+03  0.12500000000E+03 0.  0.
          4    1    1    2  501    0  0.42601532150E+02 -0.67739598163E+01  0.29247073820E+02  0.52116872509E+02  0.00000000000E+00 0.  1.
         -4    1    1    2    0  503  0.57052111597E+01  0.23569866271E+03  0.16190077817E+03  0.28600397027E+03  0.00000000000E+00 0. -1.
<mgrwt>
<rscale>  4 0.26505738E+03</rscale>
<asrwt>0</asrwt>
<pdfrwt beam="1">  1       21 0.46725813E-01 0.26505738E+03</pdfrwt>
<pdfrwt beam="2">  1       21 0.80551021E-01 0.26505738E+03</pdfrwt>
<totfact> 0.56578054E+03</totfact>
</mgrwt>
</event>
<event>
 5    0  0.1972558E-002  0.2492792E+03  0.7546771E-02  0.1113761E+00
         21   -1    0    0  501  502  0.00000000000E+00  0.00000000000E+00  0.57029382820E+03  0.57029382820E+03  0.00000000000E+00 0.  1.
         21   -1    0    0  502  503 -0.00000000000E+00 -0.00000000000E+00 -0.37456188872E+03  0.37456188872E+03  0.00000000000E+00 0.  1.
         25    1    1    2    0    0 -0.16395869526E+03  0.15217952187E+03 -0.28778851082E+03  0.38534178023E+03  0.12500000000E+03 0.  0.
          3    1    1    2  501    0  0.12394225734E+03 -0.12972126874E+03  0.18582491623E+03  0.25830251685E+03  0.00000000000E+00 0. -1.
         -3    1    1    2    0  503  0.40016437925E+02 -0.22458253127E+02  0.29769553408E+03  0.30121141985E+03  0.00000000000E+00 0.  1.
<mgrwt>
<rscale>  4 0.24927925E+03</rscale>
<asrwt>0</asrwt>
<pdfrwt beam="1">  1       21 0.87737512E-01 0.24927925E+03</pdfrwt>
<pdfrwt beam="2">  1       21 0.57624906E-01 0.24927925E+03</pdfrwt>
<totfact> 0.30142179E+03</totfact>
</mgrwt>
</event>
<event>
 5    0  0.1972558E-002  0.2673252E+03  0.7546771E-02  0.1102820E+00
         21   -1    0    0  501  502  0.00000000000E+00  0.00000000000E+00  0.13755057817E+03  0.13755057817E+03  0.00000000000E+00 0.  1.
         21   -1    0    0  502  503 -0.00000000000E+00 -0.00000000000E+00 -0.11132137948E+04  0.11132137948E+04  0.00000000000E+00 0. -1.
         25    1    1    2    0    0  0.22884733239E+03  0.27373851809E+02 -0.79614989291E+03  0.83821243207E+03  0.12500000000E+03 0.  0.
          1    1    1    2  501    0  0.19605917482E+02  0.98581021172E+01  0.60956451979E+02  0.64786288793E+02  0.00000000000E+00 0.  1.
         -1    1    1    2    0  503 -0.24845324987E+03 -0.37231953926E+02 -0.24046977573E+03  0.34776565213E+03  0.00000000000E+00 0. -1.
<mgrwt>
<rscale>  4 0.26732518E+03</rscale>
<asrwt>0</asrwt>
<pdfrwt beam="1">  1       21 0.21161628E-01 0.26732518E+03</pdfrwt>
<pdfrwt beam="2">  1       21 0.17126365E+00 0.26732518E+03</pdfrwt>
<totfact> 0.40972717E+03</totfact>
</mgrwt>
</event>
<event>
 5    0  0.1972558E-002  0.2427920E+03  0.7546771E-02  0.1117947E+00
         21   -1    0    0  503  502  0.00000000000E+00  0.00000000000E+00  0.54900549594E+03  0.54900549594E+03  0.00000000000E+00 0.  1.
         21   -1    0    0  501  503 -0.00000000000E+00 -0.00000000000E+00 -0.18657269112E+03  0.18657269112E+03  0.00000000000E+00 0. -1.
         25    1    1    2    0    0 -0.89593516479E+02  0.17943121862E+03  0.39554348174E+02  0.23960823623E+03  0.12500000000E+03 0.  0.
          2    1    1    2  501    0 -0.33261673178E+02 -0.10367227249E+01  0.27126676096E+03  0.27330032802E+03  0.00000000000E+00 0.  1.
         -2    1    1    2    0  502  0.12285518966E+03 -0.17839449589E+03  0.51611695690E+02  0.22266962281E+03  0.00000000000E+00 0. -1.
<mgrwt>
<rscale>  4 0.24279203E+03</rscale>
<asrwt>0</asrwt>
<pdfrwt beam="1">  1       21 0.84462383E-01 0.24279203E+03</pdfrwt>
<pdfrwt beam="2">  1       21 0.28703491E-01 0.24279203E+03</pdfrwt>
<totfact> 0.13695429E+04</totfact>
</mgrwt>
</event>
<event>
 5    0  0.1972558E-002  0.2496926E+03  0.7546771E-02  0.1113499E+00
         21   -1    0    0  501  502  0.00000000000E+00  0.00000000000E+00  0.17735195472E+03  0.17735195472E+03  0.00000000000E+00 0. -1.
         21   -1    0    0  502  503 -0.00000000000E+00 -0.00000000000E+00 -0.71799358164E+03  0.71799358164E+03  0.00000000000E+00 0. -1.
         25    1    1    2    0    0 -0.80644488903E+02 -0.19930362765E+03 -0.58558339640E+03  0.63620624308E+03  0.12500000000E+03 0.  0.
          2    1    1    2  501    0  0.58398701686E+02  0.21532015180E+03  0.23491457647E+02  0.22433239782E+03  0.00000000000E+00 0. -1.
         -2    1    1    2    0  503  0.22245787216E+02 -0.16016524146E+02  0.21450311834E+02  0.34806895472E+02  0.00000000000E+00 0.  1.
<mgrwt>
<rscale>  4 0.24969261E+03</rscale>
<asrwt>0</asrwt>
<pdfrwt beam="1">  1       21 0.27284916E-01 0.24969261E+03</pdfrwt>
<pdfrwt beam="2">  1       21 0.11046055E+00 0.24969261E+03</pdfrwt>
<totfact> 0.79700917E+03</totfact>
</mgrwt>
</event>
<event>
 5    0  0.1972558E-002  0.2424651E+03  0.7546771E-02  0.1118161E+00
         21   -1    0    0  501  502  0.00000000000E+00  0.00000000000E+00  0.41194212379E+03  0.41194212379E+03  0.00000000000E+00 0. -1.
         21   -1    0    0  502  503 -0.00000000000E+00 -0.00000000000E+00 -0.25587211224E+03  0.25587211224E+03  0.00000000000E+00 0. -1.
         25    1    1    2    0    0 -0.15747910057E+03 -0.12653464416E+03 -0.12739447662E+03  0.26956453024E+03  0.12500000000E+03 0.  0.
          3    1    1    2  501    0  0.17380195840E+03  0.14481776069E+03  0.17217900255E+03  0.28429722734E+03  0.00000000000E+00 0. -1.
         -3    1    1    2    0  503 -0.16322857820E+02 -0.18283116523E+02  0.11128548562E+03  0.11395247845E+03  0.00000000000E+00 0.  1.
<mgrwt>
<rscale>  4 0.24246506E+03</rscale>
<asrwt>0</asrwt>
<pdfrwt beam="1">  1       21 0.63375711E-01 0.24246506E+03</pdfrwt>
<pdfrwt beam="2">  1       21 0.39364940E-01 0.24246506E+03</pdfrwt>
<totfact> 0.13905703E+04</totfact>
</mgrwt>
</event>
<event>
 5    0  0.1972558E-002  0.4329878E+03  0.7546771E-02  0.1032920E+00
         21   -1    0    0  501  502  0.00000000000E+00  0.00000000000E+00  0.10747024709E+04  0.10747024709E+04  0.00000000000E+00 0.  1.
         21   -1    0    0  502  503 -0.00000000000E+00 -0.00000000000E+00 -0.83642960597E+03  0.83642960597E+03  0.00000000000E+00 0. -1.
         25    1    1    2    0    0 -0.48493500848E+02  0.41303213562E+03 -0.49453448962E+03  0.65813108581E+03  0.12500000000E+03 0.  0.
          2    1    1    2  501    0  0.25009596195E+02 -0.41159488443E+03 -0.96389908501E+02  0.42347000278E+03  0.00000000000E+00 0. -1.
         -2    1    1    2    0  503  0.23483904653E+02 -0.14372511849E+01  0.82919726307E+03  0.82953098830E+03  0.00000000000E+00 0.  1.
<mgrwt>
<rscale>  4 0.43298784E+03</rscale>
<asrwt>0</asrwt>
<pdfrwt beam="1">  1       21 0.16533884E+00 0.43298784E+03</pdfrwt>
<pdfrwt beam="2">  1       21 0.12868148E+00 0.43298784E+03</pdfrwt>
<totfact> 0.82150025E+01</totfact>
</mgrwt>
</event>
<event>
 5    0  0.1972558E-002  0.2980698E+03  0.7546771E-02  0.1086209E+00
         21   -1    0    0  503  502  0.00000000000E+00  0.00000000000E+00  0.17070667516E+03  0.17070667516E+03  0.00000000000E+00 0. -1.
         21   -1    0    0  501  503 -0.00000000000E+00 -0.00000000000E+00 -0.10375619524E+04  0.10375619524E+04  0.00000000000E+00 0. -1.
         25    1    1    2    0    0 -0.99770309200E+01 -0.27099941756E+03 -0.78144567085E+03  0.83655398030E+03  0.12500000000E+03 0.  0.
          2    1    1    2  501    0  0.81423092296E+02  0.23806662259E+01 -0.18889441662E+01  0.81479786701E+02  0.00000000000E+00 0.  1.
         -2    1    1    2    0  502 -0.71446061376E+02  0.26861875133E+03 -0.83520662201E+02  0.29023486053E+03  0.00000000000E+00 0. -1.
<mgrwt>
<rscale>  4 0.29806984E+03</rscale>
<asrwt>0</asrwt>
<pdfrwt beam="1">  1       21 0.26262565E-01 0.29806984E+03</pdfrwt>
<pdfrwt beam="2">  1       21 0.15962492E+00 0.29806984E+03</pdfrwt>
<totfact> 0.32300178E+03</totfact>
</mgrwt>
</event>
<event>
 5    0  0.1972558E-002  0.1888846E+03  0.7546771E-02  0.1159471E+00
         21   -1    0    0  501  502  0.00000000000E+00  0.00000000000E+00  0.54762064876E+02  0.54762064876E+02  0.00000000000E+00 0.  1.
         21   -1    0    0  502  503 -0.00000000000E+00 -0.00000000000E+00 -0.11330812062E+04  0.11330812062E+04  0.00000000000E+00 0.  1.
         25    1    1    2    0    0  0.72996643584E+02  0.20445433346E+03 -0.59088499365E+03  0.64179448437E+03  0.12500000000E+03 0.  0.
          2    1    1    2  501    0 -0.29983912574E+01 -0.12164679527E+03 -0.15926163815E+03  0.20042754935E+03  0.00000000000E+00 0. -1.
         -2    1    1    2    0  503 -0.69998252327E+02 -0.82807538183E+02 -0.32817250953E+03  0.34562123737E+03  0.00000000000E+00 0.  1.
<mgrwt>
<rscale>  4 0.18888458E+03</rscale>
<asrwt>0</asrwt>
<pdfrwt beam="1">  1       21 0.84249329E-02 0.18888458E+03</pdfrwt>
<pdfrwt beam="2">  1       21 0.17432019E+00 0.18888458E+03</pdfrwt>
<totfact> 0.21885700E+04</totfact>
</mgrwt>
</event>
<event>
 5    0  0.1972558E-002  0.2464905E+03  0.7546771E-02  0.1115543E+00
         21   -1    0    0  501  502  0.00000000000E+00  0.00000000000E+00  0.18455735252E+03  0.18455735252E+03  0.00000000000E+00 0.  1.
         21   -1    0    0  502  503 -0.00000000000E+00 -0.00000000000E+00 -0.45963682679E+03  0.45963682679E+03  0.00000000000E+00 0.  1.
         25    1    1    2    0    0 -0.24809817750E+03  0.52608617255E+02 -0.15646302901E+03  0.32315019996E+03  0.12500000000E+03 0.  0.
          1    1    1    2  501    0  0.19081310385E+03  0.18088056490E+01 -0.14288597729E+03  0.23838899909E+03  0.00000000000E+00 0.  1.
         -1    1    1    2    0  503  0.57285073650E+02 -0.54417422904E+02  0.24269532019E+02  0.82654980268E+02  0.00000000000E+00 0. -1.
<mgrwt>
<rscale>  4 0.24649049E+03</rscale>
<asrwt>0</asrwt>
<pdfrwt beam="1">  1       21 0.28393439E-01 0.24649049E+03</pdfrwt>
<pdfrwt beam="2">  1       21 0.70713357E-01 0.24649049E+03</pdfrwt>
<totfact> 0.20861743E+04</totfact>
</mgrwt>
</event>
<event>
 5    0  0.1972558E-002  0.4034691E+03  0.7546771E-02  0.1042585E+00
         21   -1    0    0  501  502  0.00000000000E+00  0.00000000000E+00  0.10551401382E+03  0.10551401382E+03  0.00000000000E+00 0. -1.
         21   -1    0    0  502  503 -0.00000000000E+00 -0.00000000000E+00 -0.25600963654E+04  0.25600963654E+04  0.00000000000E+00 0. -1.
         25    1    1    2    0    0  0.35204672179E+03 -0.17011440774E+03 -0.18345804624E+04  0.18799431585E+04  0.12500000000E+03 0.  0.
          3    1    1    2  501    0 -0.33272773508E+03  0.15694348093E+03 -0.65044967731E+03  0.74727758203E+03  0.00000000000E+00 0. -1.
         -3    1    1    2    0  503 -0.19318986712E+02  0.13170926808E+02  0.30447788123E+02  0.38389638734E+02  0.00000000000E+00 0.  1.
<mgrwt>
<rscale>  4 0.40346910E+03</rscale>
<asrwt>0</asrwt>
<pdfrwt beam="1">  1       21 0.16232926E-01 0.40346910E+03</pdfrwt>
<pdfrwt beam="2">  1       21 0.39386096E+00 0.40346910E+03</pdfrwt>
<totfact> 0.25578243E+02</totfact>
</mgrwt>
</event>
<event>
 5    0  0.2086934E-002  0.2306375E+03  0.7546771E-02  0.1126192E+00
         21   -1    0    0  503  502  0.00000000000E+00  0.00000000000E+00  0.22171290882E+03  0.22171290882E+03  0.00000000000E+00 0. -1.
         21   -1    0    0  501  503 -0.00000000000E+00 -0.00000000000E+00 -0.44159896969E+03  0.44159896969E+03  0.00000000000E+00 0. -1.
         25    1    1    2    0    0  0.16086723329E+03 -0.18884235476E+03 -0.21148807581E+03  0.34913021626E+03  0.12500000000E+03 0.  0.
          3    1    1    2  501    0 -0.23443819854E+02  0.68413288708E+02 -0.88823156517E+02  0.11454057750E+03  0.00000000000E+00 0.  1.
         -3    1    1    2    0  502 -0.13742341344E+03  0.12042906605E+03  0.80425171457E+02  0.19964108474E+03  0.00000000000E+00 0. -1.
<mgrwt>
<rscale>  4 0.23063755E+03</rscale>
<asrwt>0</asrwt>
<pdfrwt beam="1">  1       21 0.34109678E-01 0.23063755E+03</pdfrwt>
<pdfrwt beam="2">  1       21 0.67938303E-01 0.23063755E+03</pdfrwt>
<totfact> 0.16019576E+04</totfact>
</mgrwt>
</event>
<event>
 5    0  0.1972558E-002  0.3084643E+03  0.7546771E-02  0.1081084E+00
         21   -1    0    0  501  502  0.00000000000E+00  0.00000000000E+00  0.14207590741E+04  0.14207590741E+04  0.00000000000E+00 0.  1.
         21   -1    0    0  502  503 -0.00000000000E+00 -0.00000000000E+00 -0.17816139320E+03  0.17816139320E+03  0.00000000000E+00 0.  1.
         25    1    1    2    0    0 -0.92785257751E+02  0.27327728139E+03  0.62878073288E+01  0.31456972693E+03  0.12500000000E+03 0.  0.
          4    1    1    2  501    0  0.76980281909E+02 -0.16923543179E+02  0.45868961295E+03  0.46541221637E+03  0.00000000000E+00 0.  1.
         -4    1    1    2    0  503  0.15804975842E+02 -0.25635373821E+03  0.77762026066E+03  0.81893852403E+03  0.00000000000E+00 0. -1.
<mgrwt>
<rscale>  4 0.30846433E+03</rscale>
<asrwt>0</asrwt>
<pdfrwt beam="1">  1       21 0.21857831E+00 0.30846433E+03</pdfrwt>
<pdfrwt beam="2">  1       21 0.27409446E-01 0.30846433E+03</pdfrwt>
<totfact> 0.11744244E+03</totfact>
</mgrwt>
</event>
<event>
 5    0  0.1972558E-002  0.2856178E+03  0.7546771E-02  0.1092660E+00
         21   -1    0    0  501  502  0.00000000000E+00  0.00000000000E+00  0.10037342202E+04  0.10037342202E+04  0.00000000000E+00 0.  1.
         21   -1    0    0  502  503 -0.00000000000E+00 -0.00000000000E+00 -0.31886599112E+03  0.31886599112E+03  0.00000000000E+00 0.  1.
         25    1    1    2    0    0  0.24462772468E+03  0.11719832828E+03 -0.19464556453E+03  0.35649693916E+03  0.12500000000E+03 0.  0.
          1    1    1    2  501    0 -0.19414624956E+03 -0.80071884497E+02  0.22194344206E+03  0.30555386494E+03  0.00000000000E+00 0. -1.
         -1    1    1    2    0  503 -0.50481475121E+02 -0.37126443786E+02  0.65757035151E+03  0.66054940719E+03  0.00000000000E+00 0.  1.
<mgrwt>
<rscale>  4 0.28561782E+03</rscale>
<asrwt>0</asrwt>
<pdfrwt beam="1">  1       21 0.15442065E+00 0.28561782E+03</pdfrwt>
<pdfrwt beam="2">  1       21 0.49056307E-01 0.28561782E+03</pdfrwt>
<totfact> 0.10123397E+03</totfact>
</mgrwt>
</event>
<event>
 5    0  0.1972558E-002  0.2586818E+03  0.7546771E-02  0.1107938E+00
         21   -1    0    0  501  502  0.00000000000E+00  0.00000000000E+00  0.83748488356E+02  0.83748488356E+02  0.00000000000E+00 0.  1.
         21   -1    0    0  502  503 -0.00000000000E+00 -0.00000000000E+00 -0.10411289910E+04  0.10411289910E+04  0.00000000000E+00 0.  1.
         25    1    1    2    0    0 -0.72766546286E+02  0.21699065753E+03 -0.71388023677E+03  0.76001967617E+03  0.12500000000E+03 0.  0.
          3    1    1    2  501    0  0.89608947079E+02 -0.20393795312E+03 -0.25663516930E+03  0.33982651786E+03  0.00000000000E+00 0.  1.
         -3    1    1    2    0  503 -0.16842400793E+02 -0.13052704415E+02  0.13134903428E+02  0.25031285326E+02  0.00000000000E+00 0. -1.
<mgrwt>
<rscale>  4 0.25868179E+03</rscale>
<asrwt>0</asrwt>
<pdfrwt beam="1">  1       21 0.12884383E-01 0.25868179E+03</pdfrwt>
<pdfrwt beam="2">  1       21 0.16017369E+00 0.25868179E+03</pdfrwt>
<totfact> 0.12409469E+04</totfact>
</mgrwt>
</event>
<event>
 5    0  0.1972558E-002  0.3087595E+03  0.7546771E-02  0.1080942E+00
         21   -1    0    0  503  502  0.00000000000E+00  0.00000000000E+00  0.99794192985E+03  0.99794192985E+03  0.00000000000E+00 0. -1.
         21   -1    0    0  501  503 -0.00000000000E+00 -0.00000000000E+00 -0.13890060892E+03  0.13890060892E+03  0.00000000000E+00 0. -1.
         25    1    1    2    0    0 -0.20004743724E+03 -0.20509537986E+03  0.12170900063E+03  0.33544175772E+03  0.12500000000E+03 0.  0.
          1    1    1    2  501    0 -0.14239504038E+02  0.36873589950E+02  0.12743626756E+03  0.13342573740E+03  0.00000000000E+00 0.  1.
         -1    1    1    2    0  502  0.21428694128E+03  0.16822178991E+03  0.60989605273E+03  0.66797504365E+03  0.00000000000E+00 0. -1.
<mgrwt>
<rscale>  4 0.30875948E+03</rscale>
<asrwt>0</asrwt>
<pdfrwt beam="1">  1       21 0.15352952E+00 0.30875948E+03</pdfrwt>
<pdfrwt beam="2">  1       21 0.21369325E-01 0.30875948E+03</pdfrwt>
<totfact> 0.53027052E+03</totfact>
</mgrwt>
</event>
<event>
 5    0  0.1972558E-002  0.3104397E+03  0.7546771E-02  0.1080135E+00
         21   -1    0    0  501  502  0.00000000000E+00  0.00000000000E+00  0.57188775875E+03  0.57188775875E+03  0.00000000000E+00 0.  1.
         21   -1    0    0  502  503 -0.00000000000E+00 -0.00000000000E+00 -0.30698844585E+03  0.30698844585E+03  0.00000000000E+00 0.  1.
         25    1    1    2    0    0  0.13448309951E+02  0.31898531691E+03  0.21192479400E+03  0.40307518871E+03  0.12500000000E+03 0.  0.
          2    1    1    2  501    0 -0.43794355559E+02 -0.27074779512E+03 -0.11576514182E+03  0.29769763553E+03  0.00000000000E+00 0.  1.
         -2    1    1    2    0  503  0.30346045608E+02 -0.48237521788E+02  0.16873966073E+03  0.17810338036E+03  0.00000000000E+00 0. -1.
<mgrwt>
<rscale>  4 0.31043975E+03</rscale>
<asrwt>0</asrwt>
<pdfrwt beam="1">  1       21 0.87982732E-01 0.31043975E+03</pdfrwt>
<pdfrwt beam="2">  1       21 0.47228992E-01 0.31043975E+03</pdfrwt>
<totfact> 0.44049829E+03</totfact>
</mgrwt>
</event>
<event>
 5    0  0.1972558E-002  0.3783957E+03  0.7546771E-02  0.1051528E+00
         21   -1    0    0  501  502  0.00000000000E+00  0.00000000000E+00  0.52298900627E+03  0.52298900627E+03  0.00000000000E+00 0.  1.
         21   -1    0    0  502  503 -0.00000000000E+00 -0.00000000000E+00 -0.65364792383E+03  0.65364792383E+03  0.00000000000E+00 0. -1.
         25    1    1    2    0    0 -0.21940676541E+02 -0.35647851126E+03 -0.52161777688E+03  0.64441324276E+03  0.12500000000E+03 0.  0.
          2    1    1    2  501    0  0.26914210727E+02  0.33207432096E+03  0.34292244530E+03  0.47811456040E+03  0.00000000000E+00 0.  1.
         -2    1    1    2    0  503 -0.49735341861E+01  0.24404190304E+02  0.48036414023E+02  0.54109126946E+02  0.00000000000E+00 0. -1.
<mgrwt>
<rscale>  4 0.37839572E+03</rscale>
<asrwt>0</asrwt>
<pdfrwt beam="1">  1       21 0.80459847E-01 0.37839572E+03</pdfrwt>
<pdfrwt beam="2">  1       21 0.10056122E+00 0.37839572E+03</pdfrwt>
<totfact> 0.96467914E+02</totfact>
</mgrwt>
</event>
<event>
 5    0  0.1972558E-002  0.4956176E+03  0.7546771E-02  0.1014929E+00
         21   -1    0    0  503  502  0.00000000000E+00  0.00000000000E+00  0.74374161142E+03  0.74374161142E+03  0.00000000000E+00 0.  1.
         21   -1    0    0  501  503 -0.00000000000E+00 -0.00000000000E+00 -0.18654410183E+04  0.18654410183E+04  0.00000000000E+00 0. -1.
         25    1    1    2    0    0  0.48124174821E+01  0.48948997853E+03 -0.17188132224E+04  0.17915265814E+04  0.12500000000E+03 0.  0.
          2    1    1    2  501    0 -0.12375235051E+03 -0.13361159055E+03  0.22110702216E+03  0.28645246837E+03  0.00000000000E+00 0. -1.
         -2    1    1    2    0  502  0.11893993303E+03 -0.35587838798E+03  0.37600679334E+03  0.53120357994E+03  0.00000000000E+00 0.  1.
<mgrwt>
<rscale>  4 0.49561764E+03</rscale>
<asrwt>0</asrwt>
<pdfrwt beam="1">  1       21 0.11442179E+00 0.49561764E+03</pdfrwt>
<pdfrwt beam="2">  1       21 0.28699092E+00 0.49561764E+03</pdfrwt>
<totfact> 0.17421963E+01</totfact>
</mgrwt>
</event>
<event>
 5    0  0.1972558E-002  0.2338590E+03  0.7546771E-02  0.1123953E+00
         21   -1    0    0  501  502  0.00000000000E+00  0.00000000000E+00  0.20133498900E+04  0.20133498900E+04  0.00000000000E+00 0. -1.
         21   -1    0    0  502  503 -0.00000000000E+00 -0.00000000000E+00 -0.49476901680E+02  0.49476901680E+02  0.00000000000E+00 0. -1.
         25    1    1    2    0    0 -0.14380877437E+03 -0.14220690827E+03  0.29646966828E+03  0.38003030478E+03  0.12500000000E+03 0.  0.
          1    1    1    2  501    0  0.10105631015E+03  0.15241196448E+03  0.13108840063E+04  0.13235779776E+04  0.00000000000E+00 0. -1.
         -1    1    1    2    0  503  0.42752464217E+02 -0.10205056210E+02  0.35651931370E+03  0.35921850928E+03  0.00000000000E+00 0.  1.
<mgrwt>
<rscale>  4 0.23385903E+03</rscale>
<asrwt>0</asrwt>
<pdfrwt beam="1">  1       21 0.30974607E+00 0.23385903E+03</pdfrwt>
<pdfrwt beam="2">  1       21 0.76118326E-02 0.23385903E+03</pdfrwt>
<totfact> 0.37478162E+03</totfact>
</mgrwt>
</event>
<event>
 5    0  0.1972558E-002  0.3269446E+03  0.7546771E-02  0.1072497E+00
         21   -1    0    0  503  502  0.00000000000E+00  0.00000000000E+00  0.51597914933E+03  0.51597914933E+03  0.00000000000E+00 0.  1.
         21   -1    0    0  501  503 -0.00000000000E+00 -0.00000000000E+00 -0.19668857219E+04  0.19668857219E+04  0.00000000000E+00 0. -1.
         25    1    1    2    0    0  0.30087059914E+03  0.34336680047E+02 -0.18776446937E+04  0.19060106822E+04  0.12500000000E+03 0.  0.
          2    1    1    2  501    0 -0.29111604029E+03  0.22848378936E+02  0.22991615103E+03  0.37166118151E+03  0.00000000000E+00 0.  1.
         -2    1    1    2    0  502 -0.97545588497E+01 -0.57185058983E+02  0.19682197012E+03  0.20519300746E+03  0.00000000000E+00 0. -1.
<mgrwt>
<rscale>  4 0.32694465E+03</rscale>
<asrwt>0</asrwt>
<pdfrwt beam="1">  1       21 0.79381408E-01 0.32694465E+03</pdfrwt>
<pdfrwt beam="2">  1       21 0.30259780E+00 0.32694465E+03</pdfrwt>
<totfact> 0.38648823E+01</totfact>
</mgrwt>
</event>
<event>
 5    0  0.1972558E-002  0.2351667E+03  0.7546771E-02  0.1123055E+00
         21   -1    0    0  501  502  0.00000000000E+00  0.00000000000E+00  0.12124261459E+03  0.12124261459E+03  0.00000000000E+00 0.  1.
         21   -1    0    0  502  503 -0.00000000000E+00 -0.00000000000E+00 -0.13684670354E+04  0.13684670354E+04  0.00000000000E+00 0.  1.
         25    1    1    2    0    0 -0.21354159206E+03 -0.21558241637E+02 -0.49336812385E+03  0.55236027641E+03  0.12500000000E+03 0.  0.
          2    1    1    2  501    0  0.23490737041E+02 -0.15436806060E+02  0.78181364127E+02  0.83080896750E+02  0.00000000000E+00 0. -1.
         -2    1    1    2    0  503  0.19005085502E+03  0.36995047697E+02 -0.83203766112E+03  0.85426847687E+03  0.00000000000E+00 0.  1.
<mgrwt>
<rscale>  4 0.23516670E+03</rscale>
<asrwt>0</asrwt>
<pdfrwt beam="1">  1       21 0.18652709E-01 0.23516670E+03</pdfrwt>
<pdfrwt beam="2">  1       21 0.21053340E+00 0.23516670E+03</pdfrwt>
<totfact> 0.29082884E+03</totfact>
</mgrwt>
</event>
<event>
 5    0  0.2645064E-002  0.3039758E+03  0.7546771E-02  0.1083270E+00
         21   -1    0    0  501  502  0.00000000000E+00  0.00000000000E+00  0.13413893473E+04  0.13413893473E+04  0.00000000000E+00 0. -1.
         21   -1    0    0  502  503 -0.00000000000E+00 -0.00000000000E+00 -0.11355340669E+03  0.11355340669E+03  0.00000000000E+00 0. -1.
         25    1    1    2    0    0 -0.20118780851E+03  0.26314803143E+03  0.58018716717E+03  0.67968049088E+03  0.12500000000E+03 0.  0.
          2    1    1    2  501    0  0.12417900317E+03 -0.21918517378E+03  0.63815797426E+03  0.68608174829E+03  0.00000000000E+00 0. -1.
         -2    1    1    2    0  503  0.77008805336E+02 -0.43962857652E+02  0.94907991752E+01  0.89180514807E+02  0.00000000000E+00 0.  1.
<mgrwt>
<rscale>  4 0.30397579E+03</rscale>
<asrwt>0</asrwt>
<pdfrwt beam="1">  1       21 0.20636758E+00 0.30397579E+03</pdfrwt>
<pdfrwt beam="2">  1       21 0.17469756E-01 0.30397579E+03</pdfrwt>
<totfact> 0.33237020E+03</totfact>
</mgrwt>
</event>
<event>
 5    0  0.1972558E-002  0.2886440E+03  0.7546771E-02  0.1091059E+00
         21   -1    0    0  501  502  0.00000000000E+00  0.00000000000E+00  0.32924895479E+03  0.32924895479E+03  0.00000000000E+00 0.  1.
         21   -1    0    0  502  503 -0.00000000000E+00 -0.00000000000E+00 -0.36822324123E+03  0.36822324123E+03  0.00000000000E+00 0. -1.
         25    1    1    2    0    0 -0.14710698848E+03 -0.22584379977E+03 -0.14203297155E+03  0.32930875021E+03  0.12500000000E+03 0.  0.
          2    1    1    2  501    0  0.15228030393E+03  0.19677529137E+03 -0.12266259695E+02  0.24911898239E+03  0.00000000000E+00 0. -1.
         -2    1    1    2    0  503 -0.51733154508E+01  0.29068508404E+02  0.11532494481E+03  0.11904446341E+03  0.00000000000E+00 0.  1.
<mgrwt>
<rscale>  4 0.28864401E+03</rscale>
<asrwt>0</asrwt>
<pdfrwt beam="1">  1       21 0.50653685E-01 0.28864401E+03</pdfrwt>
<pdfrwt beam="2">  1       21 0.56649730E-01 0.28864401E+03</pdfrwt>
<totfact> 0.10284531E+04</totfact>
</mgrwt>
</event>
<event>
 5    0  0.1972558E-002  0.2355061E+03  0.7546771E-02  0.1122823E+00
         21   -1    0    0  501  502  0.00000000000E+00  0.00000000000E+00  0.13124712071E+03  0.13124712071E+03  0.00000000000E+00 0.  1.
         21   -1    0    0  502  503 -0.00000000000E+00 -0.00000000000E+00 -0.45739046469E+03  0.45739046469E+03  0.00000000000E+00 0.  1.
         25    1    1    2    0    0 -0.13135920029E+03 -0.16973618693E+03 -0.14692083929E+03  0.28857641219E+03  0.12500000000E+03 0.  0.
          3    1    1    2  501    0  0.13045061464E+02  0.19447997825E+02  0.14725780675E+02  0.27663095714E+02  0.00000000000E+00 0. -1.
         -3    1    1    2    0  503  0.11831413883E+03  0.15028818910E+03 -0.19394828537E+03  0.27239807750E+03  0.00000000000E+00 0.  1.
<mgrwt>
<rscale>  4 0.23550612E+03</rscale>
<asrwt>0</asrwt>
<pdfrwt beam="1">  1       21 0.20191865E-01 0.23550612E+03</pdfrwt>
<pdfrwt beam="2">  1       21 0.70367763E-01 0.23550612E+03</pdfrwt>
<totfact> 0.40671805E+04</totfact>
</mgrwt>
</event>
<event>
 5    0  0.1972558E-002  0.3628479E+03  0.7546771E-02  0.1057462E+00
         21   -1    0    0  501  502  0.00000000000E+00  0.00000000000E+00  0.45331597667E+03  0.45331597667E+03  0.00000000000E+00 0.  1.
         21   -1    0    0  502  503 -0.00000000000E+00 -0.00000000000E+00 -0.48077599009E+03  0.48077599009E+03  0.00000000000E+00 0. -1.
         25    1    1    2    0    0  0.32630209172E+03 -0.11689250509E+03 -0.21297001192E+03  0.42557976782E+03  0.12500000000E+03 0.  0.
          1    1    1    2  501    0 -0.24261166374E+02 -0.20177109108E+02  0.17377514306E+03  0.17661687426E+03  0.00000000000E+00 0. -1.
         -1    1    1    2    0  503 -0.30204092534E+03  0.13706961419E+03  0.11734855442E+02  0.33189532469E+03  0.00000000000E+00 0.  1.
<mgrwt>
<rscale>  4 0.36284792E+03</rscale>
<asrwt>0</asrwt>
<pdfrwt beam="1">  1       21 0.69740919E-01 0.36284792E+03</pdfrwt>
<pdfrwt beam="2">  1       21 0.73965537E-01 0.36284792E+03</pdfrwt>
<totfact> 0.27564141E+03</totfact>
</mgrwt>
</event>
<event>
 5    0  0.1972558E-002  0.2648248E+03  0.7546771E-02  0.1104279E+00
         21   -1    0    0  501  502  0.00000000000E+00  0.00000000000E+00  0.19904858014E+03  0.19904858014E+03  0.00000000000E+00 0.  1.
         21   -1    0    0  502  503 -0.00000000000E+00 -0.00000000000E+00 -0.36440102298E+03  0.36440102298E+03  0.00000000000E+00 0.  1.
         25    1    1    2    0    0 -0.58899110505E+02  0.22591606469E+03 -0.18829588105E+03  0.32494232154E+03  0.12500000000E+03 0.  0.
          4    1    1    2  501    0  0.44128984326E+02 -0.21073143585E+03  0.14792298354E+02  0.21580991034E+03  0.00000000000E+00 0.  1.
         -4    1    1    2    0  503  0.14770126179E+02 -0.15184628843E+02  0.81511398525E+01  0.22697371243E+02  0.00000000000E+00 0. -1.
<mgrwt>
<rscale>  4 0.26482480E+03</rscale>
<asrwt>0</asrwt>
<pdfrwt beam="1">  1       21 0.30622859E-01 0.26482480E+03</pdfrwt>
<pdfrwt beam="2">  1       21 0.56061696E-01 0.26482480E+03</pdfrwt>
<totfact> 0.29604398E+04</totfact>
</mgrwt>
</event>
<event>
 5    0  0.1972558E-002  0.4398456E+03  0.7546771E-02  0.1030794E+00
         21   -1    0    0  501  502  0.00000000000E+00  0.00000000000E+00  0.58961732638E+03  0.58961732638E+03  0.00000000000E+00 0. -1.
         21   -1    0    0  502  503 -0.00000000000E+00 -0.00000000000E+00 -0.70662827769E+03  0.70662827769E+03  0.00000000000E+00 0. -1.
         25    1    1    2    0    0 -0.63634113707E+02  0.41424080639E+03 -0.20372938042E+03  0.48246803682E+03  0.12500000000E+03 0.  0.
          2    1    1    2  501    0  0.55944121480E+01 -0.42597027786E+03 -0.23508861118E+03  0.48656821739E+03  0.00000000000E+00 0. -1.
         -2    1    1    2    0  503  0.58039701559E+02  0.11729471474E+02  0.32180704029E+03  0.32720934986E+03  0.00000000000E+00 0.  1.
<mgrwt>
<rscale>  4 0.43984563E+03</rscale>
<asrwt>0</asrwt>
<pdfrwt beam="1">  1       21 0.90710357E-01 0.43984563E+03</pdfrwt>
<pdfrwt beam="2">  1       21 0.10871204E+00 0.43984563E+03</pdfrwt>
<totfact> 0.58470722E+02</totfact>
</mgrwt>
</event>
<event>
 5    0  0.1972558E-002  0.2413063E+03  0.7546771E-02  0.1118926E+00
         21   -1    0    0  501  502  0.00000000000E+00  0.00000000000E+00  0.11303492893E+04  0.11303492893E+04  0.00000000000E+00 0. -1.
         21   -1    0    0  502  503 -0.00000000000E+00 -0.00000000000E+00 -0.11216788525E+03  0.11216788525E+03  0.00000000000E+00 0.  1.
         25    1    1    2    0    0  0.21416130058E+03 -0.75580618213E+01  0.12592399027E+03  0.27821581244E+03  0.12500000000E+03 0.  0.
          1    1    1    2  501    0 -0.19606776649E+03 -0.10468044640E+02  0.23363665629E+03  0.30518557662E+03  0.00000000000E+00 0.  1.
         -1    1    1    2    0  503 -0.18093534093E+02  0.18026106462E+02  0.65862075752E+03  0.65911578552E+03  0.00000000000E+00 0. -1.
<mgrwt>
<rscale>  4 0.24130633E+03</rscale>
<asrwt>0</asrwt>
<pdfrwt beam="1">  1       21 0.17389988E+00 0.24130633E+03</pdfrwt>
<pdfrwt beam="2">  1       21 0.17256598E-01 0.24130633E+03</pdfrwt>
<totfact> 0.58536440E+03</totfact>
</mgrwt>
</event>
<event>
 5    0  0.1972558E-002  0.4608050E+03  0.7546771E-02  0.1024548E+00
         21   -1    0    0  501  502  0.00000000000E+00  0.00000000000E+00  0.51016680340E+03  0.51016680340E+03  0.00000000000E+00 0. -1.
         21   -1    0    0  502  503 -0.00000000000E+00 -0.00000000000E+00 -0.11444854744E+04  0.11444854744E+04  0.00000000000E+00 0.  1.
         25    1    1    2    0    0 -0.41077092163E+03  0.17420665596E+03 -0.95474014305E+03  0.10612419374E+04  0.12500000000E+03 0.  0.
          3    1    1    2  501    0  0.38972478878E+03 -0.17406098292E+03  0.20035516558E+03  0.47151333930E+03  0.00000000000E+00 0.  1.
         -3    1    1    2    0  503  0.21046132847E+02 -0.14567303229E+00  0.12006630645E+03  0.12189700108E+03  0.00000000000E+00 0. -1.
<mgrwt>
<rscale>  4 0.46080504E+03</rscale>
<asrwt>0</asrwt>
<pdfrwt beam="1">  1       21 0.78487202E-01 0.46080504E+03</pdfrwt>
<pdfrwt beam="2">  1       21 0.17607469E+00 0.46080504E+03</pdfrwt>
<totfact> 0.22528148E+02</totfact>
</mgrwt>
</event>
<event>
 5    0  0.1972558E-002  0.2813553E+03  0.7546771E-02  0.1094951E+00
         21   -1    0    0  501  502  0.00000000000E+00  0.00000000000E+00  0.11130669199E+04  0.11130669199E+04  0.00000000000E+00 0. -1.
         21   -1    0    0  502  503 -0.00000000000E+00 -0.00000000000E+00 -0.20415153270E+03  0.20415153270E+03  0.00000000000E+00 0.  1.
         25    1    1    2    0    0 -0.12130807855E+03  0.22095281189E+03 -0.82096464712E+02  0.29308808321E+03  0.12500000000E+03 0.  0.
          1    1    1    2  501    0  0.28351170678E+02 -0.20429630891E+02  0.18989559215E+03  0.19308416459E+03  0.00000000000E+00 0.  1.
         -1    1    1    2    0  503  0.92956907875E+02 -0.20052318099E+03  0.80111625974E+03  0.83104620477E+03  0.00000000000E+00 0. -1.
<mgrwt>
<rscale>  4 0.28135528E+03</rscale>
<asrwt>0</asrwt>
<pdfrwt beam="1">  1       21 0.17124106E+00 0.28135528E+03</pdfrwt>
<pdfrwt beam="2">  1       21 0.31407929E-01 0.28135528E+03</pdfrwt>
<totfact> 0.18926214E+03</totfact>
</mgrwt>
</event>
<event>
 5    0  0.1972558E-002  0.3226246E+03  0.7546771E-02  0.1074448E+00
         21   -1    0    0  501  502  0.00000000000E+00  0.00000000000E+00  0.43695791675E+03  0.43695791675E+03  0.00000000000E+00 0. -1.
         21   -1    0    0  502  503 -0.00000000000E+00 -0.00000000000E+00 -0.45055017343E+03  0.45055017343E+03  0.00000000000E+00 0. -1.
         25    1    1    2    0    0  0.29259834859E+03 -0.60534865940E+02 -0.29033087377E+03  0.43496583757E+03  0.12500000000E+03 0.  0.
          2    1    1    2  501    0 -0.27935567126E+03  0.92008426600E+02  0.16832455095E+03  0.33887799587E+03  0.00000000000E+00 0. -1.
         -2    1    1    2    0  503 -0.13242677327E+02 -0.31473560660E+02  0.10841406613E+03  0.11366425673E+03  0.00000000000E+00 0.  1.
<mgrwt>
<rscale>  4 0.32262460E+03</rscale>
<asrwt>0</asrwt>
<pdfrwt beam="1">  1       21 0.67224295E-01 0.32262460E+03</pdfrwt>
<pdfrwt beam="2">  1       21 0.69315411E-01 0.32262460E+03</pdfrwt>
<totfact> 0.35279648E+03</totfact>
</mgrwt>
</event>
<event>
 5    0  0.1972558E-002  0.3397579E+03  0.7546771E-02  0.1066899E+00
         21   -1    0    0  501  502  0.00000000000E+00  0.00000000000E+00  0.16809423601E+03  0.16809423601E+03  0.00000000000E+00 0.  1.
         21   -1    0    0  502  503 -0.00000000000E+00 -0.00000000000E+00 -0.10720233828E+04  0.10720233828E+04  0.00000000000E+00 0. -1.
         25    1    1    2    0    0 -0.11972055971E+03  0.34107685316E+03 -0.55776135361E+03  0.67630552250E+03  0.12500000000E+03 0.  0.
          4    1    1    2  501    0  0.99989765867E+02 -0.39882796224E+02 -0.20291801014E+03  0.22970483136E+03  0.00000000000E+00 0. -1.
         -4    1    1    2    0  503  0.19730793848E+02 -0.30119405693E+03 -0.14324978307E+03  0.33410726497E+03  0.00000000000E+00 0.  1.
<mgrwt>
<rscale>  4 0.33975790E+03</rscale>
<asrwt>0</asrwt>
<pdfrwt beam="1">  1       21 0.25860651E-01 0.33975790E+03</pdfrwt>
<pdfrwt beam="2">  1       21 0.16492668E+00 0.33975790E+03</pdfrwt>
<totfact> 0.29705872E+03</totfact>
</mgrwt>
</event>
<event>
 5    0  0.1972558E-002  0.2294636E+03  0.7546771E-02  0.1127018E+00
         21   -1    0    0  501  502  0.00000000000E+00  0.00000000000E+00  0.78798759149E+03  0.78798759149E+03  0.00000000000E+00 0. -1.
         21   -1    0    0  502  503 -0.00000000000E+00 -0.00000000000E+00 -0.69209095031E+02  0.69209095031E+02  0.00000000000E+00 0. -1.
         25    1    1    2    0    0 -0.95974797556E+02  0.17937957309E+03  0.32830681965E+03  0.40595389004E+03  0.12500000000E+03 0.  0.
          3    1    1    2  501    0  0.91490375626E+02 -0.15952925143E+03  0.25581912658E+03  0.31506109950E+03  0.00000000000E+00 0. -1.
         -3    1    1    2    0  503  0.44844219298E+01 -0.19850321654E+02  0.13465255023E+03  0.13618169698E+03  0.00000000000E+00 0.  1.
<mgrwt>
<rscale>  4 0.22946355E+03</rscale>
<asrwt>0</asrwt>
<pdfrwt beam="1">  1       21 0.12122885E+00 0.22946355E+03</pdfrwt>
<pdfrwt beam="2">  1       21 0.10647554E-01 0.22946355E+03</pdfrwt>
<totfact> 0.36651336E+04</totfact>
</mgrwt>
</event>
<event>
 5    0  0.1972558E-002  0.3286744E+03  0.7546771E-02  0.1071725E+00
         21   -1    0    0  501  502  0.00000000000E+00  0.00000000000E+00  0.13334748390E+04  0.13334748390E+04  0.00000000000E+00 0.  1.
         21   -1    0    0  502  503 -0.00000000000E+00 -0.00000000000E+00 -0.96445449192E+02  0.96445449192E+02  0.00000000000E+00 0.  1.
         25    1    1    2    0    0  0.66557129206E+02 -0.27026044522E+03  0.69639997680E+03  0.76030815291E+03  0.12500000000E+03 0.  0.
          4    1    1    2  501    0 -0.12791087387E+03  0.29480713964E+03  0.39153518162E+03  0.50652960395E+03  0.00000000000E+00 0.  1.
         -4    1    1    2    0  503  0.61353744665E+02 -0.24546694413E+02  0.14909423142E+03  0.16308253136E+03  0.00000000000E+00 0. -1.
<mgrwt>
<rscale>  4 0.32867437E+03</rscale>
<asrwt>0</asrwt>
<pdfrwt beam="1">  1       21 0.20514996E+00 0.32867437E+03</pdfrwt>
<pdfrwt beam="2">  1       21 0.14837762E-01 0.32867437E+03</pdfrwt>
<totfact> 0.45135159E+03</totfact>
</mgrwt>
</event>
<event>
 5    0  0.1972558E-002  0.2635181E+03  0.7546771E-02  0.1105048E+00
         21   -1    0    0  503  502  0.00000000000E+00  0.00000000000E+00  0.82714554810E+03  0.82714554810E+03  0.00000000000E+00 0. -1.
         21   -1    0    0  501  503 -0.00000000000E+00 -0.00000000000E+00 -0.25111987132E+03  0.25111987132E+03  0.00000000000E+00 0.  1.
         25    1    1    2    0    0  0.43134360867E+02  0.22793904592E+03 -0.15539839040E+03  0.30592554892E+03  0.12500000000E+03 0.  0.
          1    1    1    2  501    0  0.65833946775E+01 -0.11059773222E+03  0.23482937532E+03  0.25965368277E+03  0.00000000000E+00 0.  1.
         -1    1    1    2    0  502 -0.49717755545E+02 -0.11734131370E+03  0.49659469186E+03  0.51268618774E+03  0.00000000000E+00 0. -1.
<mgrwt>
<rscale>  4 0.26351809E+03</rscale>
<asrwt>0</asrwt>
<pdfrwt beam="1">  1       21 0.12725316E+00 0.26351809E+03</pdfrwt>
<pdfrwt beam="2">  1       21 0.38633827E-01 0.26351809E+03</pdfrwt>
<totfact> 0.27895976E+03</totfact>
</mgrwt>
</event>
<event>
 5    0  0.1972558E-002  0.2491746E+03  0.7546771E-02  0.1113828E+00
         21   -1    0    0  503  502  0.00000000000E+00  0.00000000000E+00  0.38046313045E+03  0.38046313045E+03  0.00000000000E+00 0. -1.
         21   -1    0    0  501  503 -0.00000000000E+00 -0.00000000000E+00 -0.12858643138E+04  0.12858643138E+04  0.00000000000E+00 0.  1.
         25    1    1    2    0    0 -0.40783572763E+02  0.20974582570E+03 -0.11948591061E+04  0.12202335410E+04  0.12500000000E+03 0.  0.
          2    1    1    2  501    0  0.12501519129E+02  0.55086452875E+02  0.54651284821E+01  0.56750972680E+02  0.00000000000E+00 0.  1.
         -2    1    1    2    0  502  0.28282053634E+02 -0.26483227857E+03  0.28399279430E+03  0.38934293052E+03  0.00000000000E+00 0. -1.
<mgrwt>
<rscale>  4 0.24917462E+03</rscale>
<asrwt>0</asrwt>
<pdfrwt beam="1">  1       21 0.58532788E-01 0.24917462E+03</pdfrwt>
<pdfrwt beam="2">  1       21 0.19782528E+00 0.24917462E+03</pdfrwt>
<totfact> 0.35576095E+02</totfact>
</mgrwt>
</event>
<event>
 5    0  0.1972558E-002  0.2523862E+03  0.7546771E-02  0.1111806E+00
         21   -1    0    0  501  502  0.00000000000E+00  0.00000000000E+00  0.31627935186E+03  0.31627935186E+03  0.00000000000E+00 0. -1.
         21   -1    0    0  502  503 -0.00000000000E+00 -0.00000000000E+00 -0.89686146326E+03  0.89686146326E+03  0.00000000000E+00 0. -1.
         25    1    1    2    0    0 -0.19935150697E+03  0.10069927056E+03 -0.80245788302E+03  0.84228559316E+03  0.12500000000E+03 0.  0.
          4    1    1    2  501    0  0.21576590055E+02 -0.24752486608E+02  0.16657844211E+03  0.16978401635E+03  0.00000000000E+00 0. -1.
         -4    1    1    2    0  503  0.17777491692E+03 -0.75946783949E+02  0.55297329506E+02  0.20107120561E+03  0.00000000000E+00 0.  1.
<mgrwt>
<rscale>  4 0.25238621E+03</rscale>
<asrwt>0</asrwt>
<pdfrwt beam="1">  1       21 0.48658363E-01 0.25238621E+03</pdfrwt>
<pdfrwt beam="2">  1       21 0.13797868E+00 0.25238621E+03</pdfrwt>
<totfact> 0.14216303E+03</totfact>
</mgrwt>
</event>
<event>
 5    0  0.1972558E-002  0.2471303E+03  0.7546771E-02  0.1115132E+00
         21   -1    0    0  503  502  0.00000000000E+00  0.00000000000E+00  0.58234621931E+02  0.58234621931E+02  0.00000000000E+00 0. -1.
         21   -1    0    0  501  503 -0.00000000000E+00 -0.00000000000E+00 -0.97558057455E+03  0.97558057455E+03  0.00000000000E+00 0. -1.
         25    1    1    2    0    0  0.54570952637E+02  0.20608347512E+03 -0.44226045026E+03  0.50662381848E+03  0.12500000000E+03 0.  0.
          4    1    1    2  501    0  0.42389407969E+01 -0.73449649855E+02 -0.93642482261E+02  0.11908708648E+03  0.00000000000E+00 0.  1.
         -4    1    1    2    0  502 -0.58809893434E+02 -0.13263382527E+03 -0.38144302010E+03  0.40810429152E+03  0.00000000000E+00 0. -1.
<mgrwt>
<rscale>  4 0.24713030E+03</rscale>
<asrwt>0</asrwt>
<pdfrwt beam="1">  1       21 0.89591730E-02 0.24713030E+03</pdfrwt>
<pdfrwt beam="2">  1       21 0.15008931E+00 0.24713030E+03</pdfrwt>
<totfact> 0.28473222E+04</totfact>
</mgrwt>
</event>
<event>
 5    0  0.1972558E-002  0.2244242E+03  0.7546771E-02  0.1130627E+00
         21   -1    0    0  501  502  0.00000000000E+00  0.00000000000E+00  0.16846105178E+04  0.16846105178E+04  0.00000000000E+00 0.  1.
         21   -1    0    0  502  503 -0.00000000000E+00 -0.00000000000E+00 -0.41470505612E+02  0.41470505612E+02  0.00000000000E+00 0.  1.
         25    1    1    2    0    0  0.15131763098E+03  0.15027032862E+03  0.11248970870E+04  0.11517363646E+04  0.12500000000E+03 0.  0.
          4    1    1    2  501    0 -0.14291120276E+03 -0.10861564132E+03  0.28180443993E+03  0.33411781122E+03  0.00000000000E+00 0.  1.
         -4    1    1    2    0  503 -0.84064282128E+01 -0.41654687305E+02  0.23643848523E+03  0.24022684760E+03  0.00000000000E+00 0. -1.
<mgrwt>
<rscale>  4 0.22442425E+03</rscale>
<asrwt>0</asrwt>
<pdfrwt beam="1">  1       21 0.25917080E+00 0.22442425E+03</pdfrwt>
<pdfrwt beam="2">  1       21 0.63800791E-02 0.22442425E+03</pdfrwt>
<totfact> 0.10126608E+04</totfact>
</mgrwt>
</event>
<event>
 5    0  0.1972558E-002  0.3191815E+03  0.7546771E-02  0.1076027E+00
         21   -1    0    0  501  502  0.00000000000E+00  0.00000000000E+00  0.11165071643E+04  0.11165071643E+04  0.00000000000E+00 0. -1.
         21   -1    0    0  502  503 -0.00000000000E+00 -0.00000000000E+00 -0.11890453699E+03  0.11890453699E+03  0.00000000000E+00 0. -1.
         25    1    1    2    0    0 -0.14020316777E+03 -0.27189886301E+03  0.37432371293E+03  0.49932871139E+03  0.12500000000E+03 0.  0.
          1    1    1    2  501    0  0.42909061124E+01  0.22917635836E+02  0.31990057328E+03  0.32074913358E+03  0.00000000000E+00 0.  1.
         -1    1    1    2    0  503  0.13591226166E+03  0.24898122718E+03  0.30337834114E+03  0.41533385635E+03  0.00000000000E+00 0. -1.
<mgrwt>
<rscale>  4 0.31918150E+03</rscale>
<asrwt>0</asrwt>
<pdfrwt beam="1">  1       21 0.17177033E+00 0.31918150E+03</pdfrwt>
<pdfrwt beam="2">  1       21 0.18293006E-01 0.31918150E+03</pdfrwt>
<totfact> 0.51851446E+03</totfact>
</mgrwt>
</event>
<event>
 5    0  0.1972558E-002  0.2781561E+03  0.7546771E-02  0.1096700E+00
         21   -1    0    0  501  502  0.00000000000E+00  0.00000000000E+00  0.44637703604E+03  0.44637703604E+03  0.00000000000E+00 0. -1.
         21   -1    0    0  502  503 -0.00000000000E+00 -0.00000000000E+00 -0.33381723987E+03  0.33381723987E+03  0.00000000000E+00 0. -1.
         25    1    1    2    0    0 -0.25445302299E+03 -0.41313450245E+02 -0.20306805784E+03  0.35116203980E+03  0.12500000000E+03 0.  0.
          3    1    1    2  501    0  0.21644643265E+03  0.41831477407E+02  0.16961022251E+03  0.27814844650E+03  0.00000000000E+00 0. -1.
         -3    1    1    2    0  503  0.38006590337E+02 -0.51802716224E+00  0.14601763150E+03  0.15088378962E+03  0.00000000000E+00 0.  1.
<mgrwt>
<rscale>  4 0.27815606E+03</rscale>
<asrwt>0</asrwt>
<pdfrwt beam="1">  1       21 0.68673390E-01 0.27815606E+03</pdfrwt>
<pdfrwt beam="2">  1       21 0.51356499E-01 0.27815606E+03</pdfrwt>
<totfact> 0.65970116E+03</totfact>
</mgrwt>
</event>
<event>
 5    0  0.1972558E-002  0.3196018E+03  0.7546771E-02  0.1075833E+00
         21   -1    0    0  501  502  0.00000000000E+00  0.00000000000E+00  0.35739294266E+03  0.35739294266E+03  0.00000000000E+00 0. -1.
         21   -1    0    0  502  503 -0.00000000000E+00 -0.00000000000E+00 -0.73659021669E+03  0.73659021669E+03  0.00000000000E+00 0.  1.
         25    1    1    2    0    0 -0.27253758405E+03 -0.10957582945E+03 -0.55572496386E+03  0.64088909538E+03  0.12500000000E+03 0.  0.
          4    1    1    2  501    0  0.28284731635E+03  0.88541529891E+02  0.22433634241E+02  0.29722966680E+03  0.00000000000E+00 0. -1.
         -4    1    1    2    0  503 -0.10309732302E+02  0.21034299555E+02  0.15409405559E+03  0.15586439717E+03  0.00000000000E+00 0.  1.
<mgrwt>
<rscale>  4 0.31960183E+03</rscale>
<asrwt>0</asrwt>
<pdfrwt beam="1">  1       21 0.54983531E-01 0.31960183E+03</pdfrwt>
<pdfrwt beam="2">  1       21 0.11332157E+00 0.31960183E+03</pdfrwt>
<totfact> 0.17289731E+03</totfact>
</mgrwt>
</event>
<event>
 5    0  0.1972558E-002  0.2550964E+03  0.7546771E-02  0.1110126E+00
         21   -1    0    0  501  502  0.00000000000E+00  0.00000000000E+00  0.24269101414E+04  0.24269101414E+04  0.00000000000E+00 0. -1.
         21   -1    0    0  502  503 -0.00000000000E+00 -0.00000000000E+00 -0.74741870419E+03  0.74741870419E+03  0.00000000000E+00 0.  1.
         25    1    1    2    0    0 -0.17907776976E+03 -0.12451828964E+03 -0.67437792467E+03  0.71971121803E+03  0.12500000000E+03 0.  0.
          1    1    1    2  501    0  0.25547502382E+03  0.19764602016E+03  0.48473696869E+03  0.58249580762E+03  0.00000000000E+00 0.  1.
         -1    1    1    2    0  503 -0.76397254059E+02 -0.73127730524E+02  0.18691323932E+04  0.18721218199E+04  0.00000000000E+00 0. -1.
<mgrwt>
<rscale>  4 0.25509643E+03</rscale>
<asrwt>0</asrwt>
<pdfrwt beam="1">  1       21 0.37337079E+00 0.25509643E+03</pdfrwt>
<pdfrwt beam="2">  1       21 0.11498749E+00 0.25509643E+03</pdfrwt>
<totfact> 0.66223616E+00</totfact>
</mgrwt>
</event>
<event>
 5    0  0.1972558E-002  0.3322045E+03  0.7546771E-02  0.1070166E+00
         21   -1    0    0  501  502  0.00000000000E+00  0.00000000000E+00  0.60880515509E+03  0.60880515509E+03  0.00000000000E+00 0.  1.
         21   -1    0    0  502  503 -0.00000000000E+00 -0.00000000000E+00 -0.21841963412E+03  0.21841963412E+03  0.00000000000E+00 0.  1.
         25    1    1    2    0    0 -0.30671854412E+03 -0.25662153654E+02  0.10083208123E+02  0.33235746196E+03  0.12500000000E+03 0.  0.
          3    1    1    2  501    0  0.19988706257E+02 -0.90732121859E+01  0.58373177194E+02  0.62364247553E+02  0.00000000000E+00 0. -1.
         -3    1    1    2    0  503  0.28672983786E+03  0.34735365840E+02  0.32192913565E+03  0.43250307969E+03  0.00000000000E+00 0.  1.
<mgrwt>
<rscale>  4 0.33220447E+03</rscale>
<asrwt>0</asrwt>
<pdfrwt beam="1">  1       21 0.93662331E-01 0.33220447E+03</pdfrwt>
<pdfrwt beam="2">  1       21 0.33603021E-01 0.33220447E+03</pdfrwt>
<totfact> 0.75483520E+03</totfact>
</mgrwt>
</event>
<event>
 5    0  0.1972558E-002  0.2076219E+03  0.7546771E-02  0.1143463E+00
         21   -1    0    0  503  502  0.00000000000E+00  0.00000000000E+00  0.22239995021E+03  0.22239995021E+03  0.00000000000E+00 0. -1.
         21   -1    0    0  501  503 -0.00000000000E+00 -0.00000000000E+00 -0.50373560044E+03  0.50373560044E+03  0.00000000000E+00 0. -1.
         25    1    1    2    0    0 -0.13190344944E+03  0.16033963071E+03 -0.34342894837E+03  0.42032815719E+03  0.12500000000E+03 0.  0.
          2    1    1    2  501    0  0.13513857407E+02 -0.13034632203E+03 -0.49781837292E+02  0.14018209348E+03  0.00000000000E+00 0.  1.
         -2    1    1    2    0  502  0.11838959203E+03 -0.29993308683E+02  0.11187513543E+03  0.16562529998E+03  0.00000000000E+00 0. -1.
<mgrwt>
<rscale>  4 0.20762194E+03</rscale>
<asrwt>0</asrwt>
<pdfrwt beam="1">  1       21 0.34215377E-01 0.20762194E+03</pdfrwt>
<pdfrwt beam="2">  1       21 0.77497784E-01 0.20762194E+03</pdfrwt>
<totfact> 0.12040536E+04</totfact>
</mgrwt>
</event>
<event>
 5    0  0.1972558E-002  0.2552393E+03  0.7546771E-02  0.1110038E+00
         21   -1    0    0  501  502  0.00000000000E+00  0.00000000000E+00  0.31744218091E+03  0.31744218091E+03  0.00000000000E+00 0. -1.
         21   -1    0    0  502  503 -0.00000000000E+00 -0.00000000000E+00 -0.20994065404E+04  0.20994065404E+04  0.00000000000E+00 0.  1.
         25    1    1    2    0    0  0.29869371800E+03  0.24739052137E+02 -0.12975466659E+04  0.13375658145E+04  0.12500000000E+03 0.  0.
          2    1    1    2  501    0 -0.93007851613E+02 -0.10562364013E+03 -0.73315336118E+03  0.74653912478E+03  0.00000000000E+00 0.  1.
         -2    1    1    2    0  503 -0.20568586639E+03  0.80884587995E+02  0.24873566755E+03  0.33274378209E+03  0.00000000000E+00 0. -1.
<mgrwt>
<rscale>  4 0.25523926E+03</rscale>
<asrwt>0</asrwt>
<pdfrwt beam="1">  1       21 0.48837258E-01 0.25523926E+03</pdfrwt>
<pdfrwt beam="2">  1       21 0.32298562E+00 0.25523926E+03</pdfrwt>
<totfact> 0.91796592E+01</totfact>
</mgrwt>
</event>
<event>
 5    0  0.1972558E-002  0.3689049E+03  0.7546771E-02  0.1055112E+00
         21   -1    0    0  501  502  0.00000000000E+00  0.00000000000E+00  0.10307266479E+04  0.10307266479E+04  0.00000000000E+00 0.  1.
         21   -1    0    0  502  503 -0.00000000000E+00 -0.00000000000E+00 -0.29006960657E+03  0.29006960657E+03  0.00000000000E+00 0.  1.
         25    1    1    2    0    0  0.11502165140E+03  0.36456359393E+03  0.12613605118E+02  0.40239370937E+03  0.12500000000E+03 0.  0.
          2    1    1    2  501    0 -0.20704146333E+02 -0.74954814546E+02  0.56996270856E+03  0.57524288353E+03  0.00000000000E+00 0.  1.
         -2    1    1    2    0  503 -0.94317505068E+02 -0.28960877938E+03  0.15808072760E+03  0.34315966152E+03  0.00000000000E+00 0. -1.
<mgrwt>
<rscale>  4 0.36890492E+03</rscale>
<asrwt>0</asrwt>
<pdfrwt beam="1">  1       21 0.15857333E+00 0.36890492E+03</pdfrwt>
<pdfrwt beam="2">  1       21 0.44626094E-01 0.36890492E+03</pdfrwt>
<totfact> 0.10905943E+03</totfact>
</mgrwt>
</event>
<event>
 5    0  0.1972558E-002  0.2519013E+03  0.7546771E-02  0.1112109E+00
         21   -1    0    0  501  502  0.00000000000E+00  0.00000000000E+00  0.38932476754E+03  0.38932476754E+03  0.00000000000E+00 0.  1.
         21   -1    0    0  502  503 -0.00000000000E+00 -0.00000000000E+00 -0.22471533548E+03  0.22471533548E+03  0.00000000000E+00 0. -1.
         25    1    1    2    0    0  0.14591212446E+03  0.18245725678E+03 -0.30399256914E+02  0.26670229365E+03  0.12500000000E+03 0.  0.
          2    1    1    2  501    0 -0.38307710804E+01 -0.39156007103E+02  0.12923576718E+03  0.13509164007E+03  0.00000000000E+00 0. -1.
         -2    1    1    2    0  503 -0.14208135338E+03 -0.14330124968E+03  0.65772921793E+02  0.21224616929E+03  0.00000000000E+00 0.  1.
<mgrwt>
<rscale>  4 0.25190134E+03</rscale>
<asrwt>0</asrwt>
<pdfrwt beam="1">  1       21 0.59896118E-01 0.25190134E+03</pdfrwt>
<pdfrwt beam="2">  1       21 0.34571590E-01 0.25190134E+03</pdfrwt>
<totfact> 0.20310123E+04</totfact>
</mgrwt>
</event>
<event>
 5    0  0.1972558E-002  0.3997978E+03  0.7546771E-02  0.1043850E+00
         21   -1    0    0  501  502  0.00000000000E+00  0.00000000000E+00  0.15997517134E+04  0.15997517134E+04  0.00000000000E+00 0. -1.
         21   -1    0    0  502  503 -0.00000000000E+00 -0.00000000000E+00 -0.26947648864E+03  0.26947648864E+03  0.00000000000E+00 0. -1.
         25    1    1    2    0    0 -0.32451605445E+03 -0.19343966396E+03 -0.51956515659E+02  0.40131540303E+03  0.12500000000E+03 0.  0.
          1    1    1    2  501    0  0.30197558354E+03  0.25451334392E+03  0.92088776752E+03  0.10019982912E+04  0.00000000000E+00 0. -1.
         -1    1    1    2    0  503  0.22540470912E+02 -0.61073679955E+02  0.46134397291E+03  0.46591450778E+03  0.00000000000E+00 0.  1.
<mgrwt>
<rscale>  4 0.39979783E+03</rscale>
<asrwt>0</asrwt>
<pdfrwt beam="1">  1       21 0.24611564E+00 0.39979783E+03</pdfrwt>
<pdfrwt beam="2">  1       21 0.41457922E-01 0.39979783E+03</pdfrwt>
<totfact> 0.32528961E+02</totfact>
</mgrwt>
</event>
<event>
 5    0  0.1972558E-002  0.2328336E+03  0.7546771E-02  0.1124661E+00
         21   -1    0    0  501  502  0.00000000000E+00  0.00000000000E+00  0.12748126503E+03  0.12748126503E+03  0.00000000000E+00 0.  1.
         21   -1    0    0  502  503 -0.00000000000E+00 -0.00000000000E+00 -0.25240630745E+04  0.25240630745E+04  0.00000000000E+00 0. -1.
         25    1    1    2    0    0 -0.21480840512E+03  0.42401154473E+02 -0.33228201234E+03  0.41710531589E+03  0.12500000000E+03 0.  0.
          3    1    1    2  501    0  0.20694224355E+02 -0.59929169890E+02  0.68161087852E+02  0.93089689131E+02  0.00000000000E+00 0.  1.
         -3    1    1    2    0  503  0.19411418077E+03  0.17528015417E+02 -0.21324608850E+04  0.21413493345E+04  0.00000000000E+00 0. -1.
<mgrwt>
<rscale>  4 0.23283356E+03</rscale>
<asrwt>0</asrwt>
<pdfrwt beam="1">  1       21 0.19612504E-01 0.23283356E+03</pdfrwt>
<pdfrwt beam="2">  1       21 0.38831737E+00 0.23283356E+03</pdfrwt>
<totfact> 0.23129745E+02</totfact>
</mgrwt>
</event>
<event>
 5    0  0.1972558E-002  0.2475843E+03  0.7546771E-02  0.1114841E+00
         21   -1    0    0  501  502  0.00000000000E+00  0.00000000000E+00  0.41665391102E+03  0.41665391102E+03  0.00000000000E+00 0. -1.
         21   -1    0    0  502  503 -0.00000000000E+00 -0.00000000000E+00 -0.31143689047E+03  0.31143689047E+03  0.00000000000E+00 0. -1.
         25    1    1    2    0    0  0.23519984573E+03  0.47971769112E+02 -0.17410266976E+03  0.32180273100E+03  0.12500000000E+03 0.  0.
          4    1    1    2  501    0 -0.65804124762E+02 -0.37508866012E+02  0.20949508395E+03  0.22276734066E+03  0.00000000000E+00 0.  1.
         -4    1    1    2    0  503 -0.16939572097E+03 -0.10462903100E+02  0.69824606361E+02  0.18352072983E+03  0.00000000000E+00 0. -1.
<mgrwt>
<rscale>  4 0.24758429E+03</rscale>
<asrwt>0</asrwt>
<pdfrwt beam="1">  1       21 0.64100602E-01 0.24758429E+03</pdfrwt>
<pdfrwt beam="2">  1       21 0.47913368E-01 0.24758429E+03</pdfrwt>
<totfact> 0.90310669E+03</totfact>
</mgrwt>
</event>
<event>
 5    0  0.1972558E-002  0.3643724E+03  0.7546771E-02  0.1056866E+00
         21   -1    0    0  501  502  0.00000000000E+00  0.00000000000E+00  0.11886301535E+04  0.11886301535E+04  0.00000000000E+00 0.  1.
         21   -1    0    0  502  503 -0.00000000000E+00 -0.00000000000E+00 -0.20357953072E+03  0.20357953072E+03  0.00000000000E+00 0.  1.
         25    1    1    2    0    0  0.29511368330E+03 -0.16794678717E+03  0.13071677937E+03  0.38472078940E+03  0.12500000000E+03 0.  0.
          2    1    1    2  501    0 -0.80375330952E+01 -0.27092743795E+02  0.53537646453E+03  0.53612179351E+03  0.00000000000E+00 0. -1.
         -2    1    1    2    0  503 -0.28707615021E+03  0.19503953096E+03  0.31895737890E+03  0.47136710132E+03  0.00000000000E+00 0.  1.
<mgrwt>
<rscale>  4 0.36437242E+03</rscale>
<asrwt>0</asrwt>
<pdfrwt beam="1">  1       21 0.18286617E+00 0.36437242E+03</pdfrwt>
<pdfrwt beam="2">  1       21 0.31319929E-01 0.36437242E+03</pdfrwt>
<totfact> 0.14997679E+03</totfact>
</mgrwt>
</event>
<event>
 5    0  0.1972558E-002  0.3240712E+03  0.7546771E-02  0.1073791E+00
         21   -1    0    0  501  502  0.00000000000E+00  0.00000000000E+00  0.18880715687E+03  0.18880715687E+03  0.00000000000E+00 0. -1.
         21   -1    0    0  502  503 -0.00000000000E+00 -0.00000000000E+00 -0.73283571932E+03  0.73283571932E+03  0.00000000000E+00 0.  1.
         25    1    1    2    0    0  0.29634583174E+03 -0.39702428189E+02 -0.52079896750E+03  0.61339522280E+03  0.12500000000E+03 0.  0.
          2    1    1    2  501    0 -0.87486792969E+02 -0.15532120635E+02  0.10929597272E+02  0.89524531901E+02  0.00000000000E+00 0.  1.
         -2    1    1    2    0  503 -0.20885903877E+03  0.55234548824E+02 -0.34159192214E+02  0.21872312149E+03  0.00000000000E+00 0. -1.
<mgrwt>
<rscale>  4 0.32407119E+03</rscale>
<asrwt>0</asrwt>
<pdfrwt beam="1">  1       21 0.29047255E-01 0.32407119E+03</pdfrwt>
<pdfrwt beam="2">  1       21 0.11274396E+00 0.32407119E+03</pdfrwt>
<totfact> 0.64524724E+03</totfact>
</mgrwt>
</event>
<event>
 5    0  0.1972558E-002  0.3790115E+03  0.7546771E-02  0.1051300E+00
         21   -1    0    0  501  502  0.00000000000E+00  0.00000000000E+00  0.74883046299E+03  0.74883046299E+03  0.00000000000E+00 0.  1.
         21   -1    0    0  502  503 -0.00000000000E+00 -0.00000000000E+00 -0.55424031201E+03  0.55424031201E+03  0.00000000000E+00 0. -1.
         25    1    1    2    0    0 -0.34573366177E+03  0.65866894385E+02 -0.40069109740E+03  0.54776689220E+03  0.12500000000E+03 0.  0.
          3    1    1    2  501    0 -0.46763666427E+02  0.80252368714E+01  0.14915301550E+03  0.15651794452E+03  0.00000000000E+00 0. -1.
         -3    1    1    2    0  503  0.39249732820E+03 -0.73892131256E+02  0.44612823288E+03  0.59878593828E+03  0.00000000000E+00 0.  1.
<mgrwt>
<rscale>  4 0.37901149E+03</rscale>
<asrwt>0</asrwt>
<pdfrwt beam="1">  1       21 0.11520469E+00 0.37901149E+03</pdfrwt>
<pdfrwt beam="2">  1       21 0.85267741E-01 0.37901149E+03</pdfrwt>
<totfact> 0.60341444E+02</totfact>
</mgrwt>
</event>
<event>
 5    0  0.1972558E-002  0.2324108E+03  0.7546771E-02  0.1124954E+00
         21   -1    0    0  501  502  0.00000000000E+00  0.00000000000E+00  0.17337107224E+03  0.17337107224E+03  0.00000000000E+00 0. -1.
         21   -1    0    0  502  503 -0.00000000000E+00 -0.00000000000E+00 -0.78440790380E+03  0.78440790380E+03  0.00000000000E+00 0.  1.
         25    1    1    2    0    0  0.48136617965E+02 -0.21220776725E+03 -0.45889659611E+03  0.52302997657E+03  0.12500000000E+03 0.  0.
          4    1    1    2  501    0 -0.12963306164E+03  0.13630058794E+03 -0.23128530306E+03  0.29811989594E+03  0.00000000000E+00 0.  1.
         -4    1    1    2    0  503  0.81496443675E+02  0.75907179314E+02  0.79145067609E+02  0.13662910352E+03  0.00000000000E+00 0. -1.
<mgrwt>
<rscale>  4 0.23241075E+03</rscale>
<asrwt>0</asrwt>
<pdfrwt beam="1">  1       21 0.26672473E-01 0.23241075E+03</pdfrwt>
<pdfrwt beam="2">  1       21 0.12067814E+00 0.23241075E+03</pdfrwt>
<totfact> 0.67697563E+03</totfact>
</mgrwt>
</event>
<event>
 5    0  0.1972558E-002  0.3608709E+03  0.7546771E-02  0.1058240E+00
         21   -1    0    0  501  502  0.00000000000E+00  0.00000000000E+00  0.17910250354E+03  0.17910250354E+03  0.00000000000E+00 0.  1.
         21   -1    0    0  502  503 -0.00000000000E+00 -0.00000000000E+00 -0.19017357421E+04  0.19017357421E+04  0.00000000000E+00 0. -1.
         25    1    1    2    0    0  0.10399762818E+03 -0.31816780624E+03 -0.15907855947E+04  0.16304202121E+04  0.12500000000E+03 0.  0.
          1    1    1    2  501    0  0.49733736819E+01 -0.25093839047E+02  0.43030990665E+02  0.50060976434E+02  0.00000000000E+00 0. -1.
         -1    1    1    2    0  503 -0.10897100186E+03  0.34326164528E+03 -0.17487863446E+03  0.40035705709E+03  0.00000000000E+00 0.  1.
<mgrwt>
<rscale>  4 0.36087086E+03</rscale>
<asrwt>0</asrwt>
<pdfrwt beam="1">  1       21 0.27554232E-01 0.36087086E+03</pdfrwt>
<pdfrwt beam="2">  1       21 0.29257473E+00 0.36087086E+03</pdfrwt>
<totfact> 0.39869539E+02</totfact>
</mgrwt>
</event>
<event>
 5    0  0.1972558E-002  0.3547383E+03  0.7546771E-02  0.1060687E+00
         21   -1    0    0  501  502  0.00000000000E+00  0.00000000000E+00  0.36600345894E+03  0.36600345894E+03  0.00000000000E+00 0. -1.
         21   -1    0    0  502  503 -0.00000000000E+00 -0.00000000000E+00 -0.13073822556E+04  0.13073822556E+04  0.00000000000E+00 0.  1.
         25    1    1    2    0    0  0.29386760931E+03  0.15445426730E+03 -0.11973746809E+04  0.12488176083E+04  0.12500000000E+03 0.  0.
          2    1    1    2  501    0 -0.22481630998E+03 -0.13213596555E+03  0.16669302638E+03  0.30949774097E+03  0.00000000000E+00 0. -1.
         -2    1    1    2    0  503 -0.69051299329E+02 -0.22318301757E+02  0.89302857841E+02  0.11507036522E+03  0.00000000000E+00 0.  1.
<mgrwt>
<rscale>  4 0.35473834E+03</rscale>
<asrwt>0</asrwt>
<pdfrwt beam="1">  1       21 0.56308225E-01 0.35473834E+03</pdfrwt>
<pdfrwt beam="2">  1       21 0.20113573E+00 0.35473834E+03</pdfrwt>
<totfact> 0.33795643E+02</totfact>
</mgrwt>
</event>
<event>
 5    0  0.1972558E-002  0.2385435E+03  0.7546771E-02  0.1120767E+00
         21   -1    0    0  501  502  0.00000000000E+00  0.00000000000E+00  0.15574260245E+04  0.15574260245E+04  0.00000000000E+00 0. -1.
         21   -1    0    0  502  503 -0.00000000000E+00 -0.00000000000E+00 -0.44898504761E+02  0.44898504761E+02  0.00000000000E+00 0. -1.
         25    1    1    2    0    0 -0.17334606540E+03  0.11482547221E+03  0.40284178595E+03  0.47025551774E+03  0.12500000000E+03 0.  0.
          3    1    1    2  501    0  0.17179957995E+03 -0.87452887054E+02  0.10275923845E+04  0.10455186329E+04  0.00000000000E+00 0. -1.
         -3    1    1    2    0  503  0.15464854515E+01 -0.27372585161E+02  0.82093349294E+02  0.86550378589E+02  0.00000000000E+00 0.  1.
<mgrwt>
<rscale>  4 0.23854349E+03</rscale>
<asrwt>0</asrwt>
<pdfrwt beam="1">  1       21 0.23960396E+00 0.23854349E+03</pdfrwt>
<pdfrwt beam="2">  1       21 0.69074634E-02 0.23854349E+03</pdfrwt>
<totfact> 0.11408020E+04</totfact>
</mgrwt>
</event>
<event>
 5    0  0.1972558E-002  0.2637284E+03  0.7546771E-02  0.1104924E+00
         21   -1    0    0  503  502  0.00000000000E+00  0.00000000000E+00  0.98594023720E+03  0.98594023720E+03  0.00000000000E+00 0. -1.
         21   -1    0    0  501  503 -0.00000000000E+00 -0.00000000000E+00 -0.31488547610E+03  0.31488547610E+03  0.00000000000E+00 0.  1.
         25    1    1    2    0    0 -0.19480079157E+03  0.14281858378E+03 -0.22798220482E+03  0.35488784423E+03  0.12500000000E+03 0.  0.
          1    1    1    2  501    0  0.10494756089E+03 -0.14550943321E+03  0.39347327053E+03  0.43244444766E+03  0.00000000000E+00 0.  1.
         -1    1    1    2    0  502  0.89853230677E+02  0.26908494297E+01  0.50556369539E+03  0.51349342141E+03  0.00000000000E+00 0. -1.
<mgrwt>
<rscale>  4 0.26372840E+03</rscale>
<asrwt>0</asrwt>
<pdfrwt beam="1">  1       21 0.15168311E+00 0.26372840E+03</pdfrwt>
<pdfrwt beam="2">  1       21 0.48443920E-01 0.26372840E+03</pdfrwt>
<totfact> 0.11082544E+03</totfact>
</mgrwt>
</event>
<event>
 5    0  0.1972558E-002  0.2387726E+03  0.7546771E-02  0.1123000E+00
         21   -1    0    0  501  502  0.00000000000E+00  0.00000000000E+00  0.10307269458E+03  0.10307269458E+03  0.00000000000E+00 0.  1.
         21   -1    0    0  502  503 -0.00000000000E+00 -0.00000000000E+00 -0.17116247556E+04  0.17116247556E+04  0.00000000000E+00 0. -1.
         25    1    1    2    0    0 -0.17764900506E+03 -0.11542502953E+03 -0.36179549354E+03  0.43749638351E+03  0.12500000000E+03 0.  0.
          4    1    1    2  501    0 -0.25783181482E+02  0.25445758778E+03 -0.27866150818E+03  0.37824023129E+03  0.00000000000E+00 0.  1.
         -4    1    1    2    0  503  0.20343218654E+03 -0.13903255825E+03 -0.96809505929E+03  0.99896083536E+03  0.00000000000E+00 0. -1.
<mgrwt>
<rscale>  4 0.23524752E+03</rscale>
<asrwt>0</asrwt>
<pdfrwt beam="1">  1       21 0.15857340E-01 0.23877257E+03</pdfrwt>
<pdfrwt beam="2">  1       21 0.26332685E+00 0.23877257E+03</pdfrwt>
<totfact> 0.18740880E+03</totfact>
</mgrwt>
</event>
<event>
 5    0  0.1972558E-002  0.2560265E+03  0.7546771E-02  0.1109554E+00
         21   -1    0    0  503  502  0.00000000000E+00  0.00000000000E+00  0.25615185962E+03  0.25615185962E+03  0.00000000000E+00 0.  1.
         21   -1    0    0  501  503 -0.00000000000E+00 -0.00000000000E+00 -0.57057258126E+03  0.57057258126E+03  0.00000000000E+00 0.  1.
         25    1    1    2    0    0  0.10797698729E+03  0.20042920094E+03 -0.28254806825E+03  0.38378288816E+03  0.12500000000E+03 0.  0.
          1    1    1    2  501    0 -0.12389873347E+03 -0.18153894759E+03 -0.18533694722E+03  0.28750142548E+03  0.00000000000E+00 0. -1.
         -1    1    1    2    0  502  0.15921746185E+02 -0.18890253348E+02  0.15346429383E+03  0.15544012723E+03  0.00000000000E+00 0.  1.
<mgrwt>
<rscale>  4 0.25602648E+03</rscale>
<asrwt>0</asrwt>
<pdfrwt beam="1">  1       21 0.39407978E-01 0.25602648E+03</pdfrwt>
<pdfrwt beam="2">  1       21 0.87780397E-01 0.25602648E+03</pdfrwt>
<totfact> 0.66226038E+03</totfact>
</mgrwt>
</event>
<event>
 5    0  0.1972558E-002  0.2373982E+03  0.7546771E-02  0.1121538E+00
         21   -1    0    0  501  502  0.00000000000E+00  0.00000000000E+00  0.98965510045E+02  0.98965510045E+02  0.00000000000E+00 0.  1.
         21   -1    0    0  502  503 -0.00000000000E+00 -0.00000000000E+00 -0.20768247259E+04  0.20768247259E+04  0.00000000000E+00 0. -1.
         25    1    1    2    0    0 -0.16649525811E+03  0.12401893603E+03 -0.19050136984E+04  0.19203654753E+04  0.12500000000E+03 0.  0.
          4    1    1    2  501    0  0.13412435145E+03 -0.10072818062E+03 -0.11026942990E+03  0.20073578453E+03  0.00000000000E+00 0.  1.
         -4    1    1    2    0  503  0.32370906657E+02 -0.23290755412E+02  0.37423912471E+02  0.54688976130E+02  0.00000000000E+00 0. -1.
<mgrwt>
<rscale>  4 0.23739822E+03</rscale>
<asrwt>0</asrwt>
<pdfrwt beam="1">  1       21 0.15225463E-01 0.23739822E+03</pdfrwt>
<pdfrwt beam="2">  1       21 0.31951150E+00 0.23739822E+03</pdfrwt>
<totfact> 0.95004441E+02</totfact>
</mgrwt>
</event>
<event>
 5    0  0.1972558E-002  0.2443747E+03  0.7546771E-02  0.1116912E+00
         21   -1    0    0  501  502  0.00000000000E+00  0.00000000000E+00  0.11056152413E+04  0.11056152413E+04  0.00000000000E+00 0.  1.
         21   -1    0    0  502  503 -0.00000000000E+00 -0.00000000000E+00 -0.76855914843E+02  0.76855914843E+02  0.00000000000E+00 0. -1.
         25    1    1    2    0    0  0.65040920657E+02 -0.19965893036E+03  0.17500377413E+03  0.30057500028E+03  0.12500000000E+03 0.  0.
          2    1    1    2  501    0 -0.10025369080E+02  0.13389006936E+03  0.56090400556E+03  0.57674982631E+03  0.00000000000E+00 0.  1.
         -2    1    1    2    0  503 -0.55015551578E+02  0.65768861005E+02  0.29285154674E+03  0.30514632953E+03  0.00000000000E+00 0. -1.
<mgrwt>
<rscale>  4 0.24437473E+03</rscale>
<asrwt>0</asrwt>
<pdfrwt beam="1">  1       21 0.17009464E+00 0.24437473E+03</pdfrwt>
<pdfrwt beam="2">  1       21 0.11823988E-01 0.24437473E+03</pdfrwt>
<totfact> 0.12382831E+04</totfact>
</mgrwt>
</event>
<event>
 5    0  0.1972558E-002  0.2795667E+03  0.7546771E-02  0.1095926E+00
         21   -1    0    0  503  502  0.00000000000E+00  0.00000000000E+00  0.17835685112E+03  0.17835685112E+03  0.00000000000E+00 0. -1.
         21   -1    0    0  501  503 -0.00000000000E+00 -0.00000000000E+00 -0.16827626893E+04  0.16827626893E+04  0.00000000000E+00 0. -1.
         25    1    1    2    0    0 -0.88071497103E+02 -0.23390605647E+03 -0.15559248970E+04  0.15808212793E+04  0.12500000000E+03 0.  0.
          3    1    1    2  501    0  0.20486979304E+02 -0.94644832919E+01  0.26013070979E+00  0.22569014887E+02  0.00000000000E+00 0.  1.
         -3    1    1    2    0  502  0.67584517799E+02  0.24337053976E+03  0.51258928124E+02  0.25772924627E+03  0.00000000000E+00 0. -1.
<mgrwt>
<rscale>  4 0.27956668E+03</rscale>
<asrwt>0</asrwt>
<pdfrwt beam="1">  1       21 0.27439515E-01 0.27956668E+03</pdfrwt>
<pdfrwt beam="2">  1       21 0.25888658E+00 0.27956668E+03</pdfrwt>
<totfact> 0.68032582E+02</totfact>
</mgrwt>
</event>
<event>
 5    0  0.1972558E-002  0.2427696E+03  0.7546771E-02  0.1117961E+00
         21   -1    0    0  503  502  0.00000000000E+00  0.00000000000E+00  0.64736626841E+02  0.64736626841E+02  0.00000000000E+00 0.  1.
         21   -1    0    0  501  503 -0.00000000000E+00 -0.00000000000E+00 -0.16103451786E+04  0.16103451786E+04  0.00000000000E+00 0.  1.
         25    1    1    2    0    0  0.21807181578E+03 -0.13713808506E+02 -0.85847276859E+03  0.89461940500E+03  0.12500000000E+03 0.  0.
          3    1    1    2  501    0 -0.32563825945E+02  0.12031326800E+03 -0.42057794438E+03  0.43865874266E+03  0.00000000000E+00 0. -1.
         -3    1    1    2    0  502 -0.18550798984E+03 -0.10659945949E+03 -0.26655783881E+03  0.34180365780E+03  0.00000000000E+00 0.  1.
<mgrwt>
<rscale>  4 0.24276962E+03</rscale>
<asrwt>0</asrwt>
<pdfrwt beam="1">  1       21 0.99594818E-02 0.24276962E+03</pdfrwt>
<pdfrwt beam="2">  1       21 0.24774539E+00 0.24276962E+03</pdfrwt>
<totfact> 0.53490459E+03</totfact>
</mgrwt>
</event>
<event>
 5    0  0.1972558E-002  0.3049377E+03  0.7546771E-02  0.1082798E+00
         21   -1    0    0  501  502  0.00000000000E+00  0.00000000000E+00  0.11797982485E+04  0.11797982485E+04  0.00000000000E+00 0. -1.
         21   -1    0    0  502  503 -0.00000000000E+00 -0.00000000000E+00 -0.18692675027E+03  0.18692675027E+03  0.00000000000E+00 0. -1.
         25    1    1    2    0    0  0.75136185579E+02  0.29446926520E+03  0.71552114203E+02  0.33630685330E+03  0.12500000000E+03 0.  0.
          4    1    1    2  501    0  0.63307614751E+01 -0.24657166726E+03  0.24543838337E+03  0.34796216126E+03  0.00000000000E+00 0. -1.
         -4    1    1    2    0  503 -0.81466947054E+02 -0.47897597941E+02  0.67588100064E+03  0.68245598421E+03  0.00000000000E+00 0.  1.
<mgrwt>
<rscale>  4 0.30493768E+03</rscale>
<asrwt>0</asrwt>
<pdfrwt beam="1">  1       21 0.18150742E+00 0.30493768E+03</pdfrwt>
<pdfrwt beam="2">  1       21 0.28757962E-01 0.30493768E+03</pdfrwt>
<totfact> 0.18781959E+03</totfact>
</mgrwt>
</event>
<event>
 5    0  0.1972558E-002  0.3065776E+03  0.7546771E-02  0.1081998E+00
         21   -1    0    0  501  502  0.00000000000E+00  0.00000000000E+00  0.86542078507E+03  0.86542078507E+03  0.00000000000E+00 0.  1.
         21   -1    0    0  502  503 -0.00000000000E+00 -0.00000000000E+00 -0.17546402928E+03  0.17546402928E+03  0.00000000000E+00 0. -1.
         25    1    1    2    0    0 -0.30402996996E+02 -0.27883428104E+03  0.21067072078E+03  0.37239770556E+03  0.12500000000E+03 0.  0.
          1    1    1    2  501    0  0.76077121057E+02  0.27066556259E+03  0.11912483949E+03  0.30534947602E+03  0.00000000000E+00 0. -1.
         -1    1    1    2    0  503 -0.45674124060E+02  0.81687184531E+01  0.36016119553E+03  0.36313763277E+03  0.00000000000E+00 0.  1.
<mgrwt>
<rscale>  4 0.30657764E+03</rscale>
<asrwt>0</asrwt>
<pdfrwt beam="1">  1       21 0.13314166E+00 0.30657764E+03</pdfrwt>
<pdfrwt beam="2">  1       21 0.26994466E-01 0.30657764E+03</pdfrwt>
<totfact> 0.49353512E+03</totfact>
</mgrwt>
</event>
<event>
 5    0  0.1972558E-002  0.2440025E+03  0.7546771E-02  0.1117155E+00
         21   -1    0    0  503  502  0.00000000000E+00  0.00000000000E+00  0.86580211584E+03  0.86580211584E+03  0.00000000000E+00 0.  1.
         21   -1    0    0  501  503 -0.00000000000E+00 -0.00000000000E+00 -0.69416639350E+03  0.69416639350E+03  0.00000000000E+00 0.  1.
         25    1    1    2    0    0 -0.19428838332E+03  0.13217479659E+03 -0.62312676112E+03  0.67759140577E+03  0.12500000000E+03 0.  0.
          4    1    1    2  501    0  0.88409164878E+02 -0.84363605866E+02  0.55801476477E+02  0.13433987943E+03  0.00000000000E+00 0. -1.
         -4    1    1    2    0  502  0.10587921844E+03 -0.47811190720E+02  0.73896100698E+03  0.74803722414E+03  0.00000000000E+00 0.  1.
<mgrwt>
<rscale>  4 0.24400254E+03</rscale>
<asrwt>0</asrwt>
<pdfrwt beam="1">  1       21 0.13320032E+00 0.24400254E+03</pdfrwt>
<pdfrwt beam="2">  1       21 0.10679483E+00 0.24400254E+03</pdfrwt>
<totfact> 0.26950532E+02</totfact>
</mgrwt>
</event>
<event>
 5    0  0.1972558E-002  0.2108396E+03  0.7546771E-02  0.1140903E+00
         21   -1    0    0  503  502  0.00000000000E+00  0.00000000000E+00  0.55231619319E+02  0.55231619319E+02  0.00000000000E+00 0. -1.
         21   -1    0    0  501  503 -0.00000000000E+00 -0.00000000000E+00 -0.21756610427E+04  0.21756610427E+04  0.00000000000E+00 0. -1.
         25    1    1    2    0    0 -0.16968034359E+03  0.11269091320E+03 -0.97905229191E+03  0.10077991125E+04  0.12500000000E+03 0.  0.
          1    1    1    2  501    0  0.38154922052E+02 -0.26429221946E+02  0.20412599705E+02  0.50704793425E+02  0.00000000000E+00 0.  1.
         -1    1    1    2    0  502  0.13152542153E+03 -0.86261691250E+02 -0.11617897312E+04  0.11723887561E+04  0.00000000000E+00 0. -1.
<mgrwt>
<rscale>  4 0.21083957E+03</rscale>
<asrwt>0</asrwt>
<pdfrwt beam="1">  1       21 0.84971724E-02 0.21083957E+03</pdfrwt>
<pdfrwt beam="2">  1       21 0.33471707E+00 0.21083957E+03</pdfrwt>
<totfact> 0.22688742E+03</totfact>
</mgrwt>
</event>
<event>
 5    0  0.1972558E-002  0.2303386E+03  0.7546771E-02  0.1126402E+00
         21   -1    0    0  501  502  0.00000000000E+00  0.00000000000E+00  0.13023418799E+03  0.13023418799E+03  0.00000000000E+00 0. -1.
         21   -1    0    0  502  503 -0.00000000000E+00 -0.00000000000E+00 -0.12024677938E+04  0.12024677938E+04  0.00000000000E+00 0. -1.
         25    1    1    2    0    0 -0.60973384619E+02 -0.19119301853E+03 -0.98153813803E+03  0.10096111332E+04  0.12500000000E+03 0.  0.
          4    1    1    2  501    0  0.30162198631E+02  0.18729200374E+02  0.74353619621E+02  0.82395399894E+02  0.00000000000E+00 0. -1.
         -4    1    1    2    0  503  0.30811185989E+02  0.17246381815E+03 -0.16504908741E+03  0.24069544866E+03  0.00000000000E+00 0.  1.
<mgrwt>
<rscale>  4 0.23033864E+03</rscale>
<asrwt>0</asrwt>
<pdfrwt beam="1">  1       21 0.20036028E-01 0.23033864E+03</pdfrwt>
<pdfrwt beam="2">  1       21 0.18499505E+00 0.23033864E+03</pdfrwt>
<totfact> 0.37476753E+03</totfact>
</mgrwt>
</event>
<event>
 5    0  0.1972558E-002  0.2433218E+03  0.7546771E-02  0.1117600E+00
         21   -1    0    0  503  502  0.00000000000E+00  0.00000000000E+00  0.39454835204E+03  0.39454835204E+03  0.00000000000E+00 0. -1.
         21   -1    0    0  501  503 -0.00000000000E+00 -0.00000000000E+00 -0.13997333289E+04  0.13997333289E+04  0.00000000000E+00 0. -1.
         25    1    1    2    0    0  0.19380490312E+03 -0.77589545481E+02 -0.13582365188E+04  0.13798593838E+04  0.12500000000E+03 0.  0.
          3    1    1    2  501    0 -0.18638032765E+02 -0.82727914805E+01  0.50153634349E+02  0.54140579814E+02  0.00000000000E+00 0.  1.
         -3    1    1    2    0  502 -0.17516687035E+03  0.85862336961E+02  0.30289790762E+03  0.36028171730E+03  0.00000000000E+00 0. -1.
<mgrwt>
<rscale>  4 0.24332176E+03</rscale>
<asrwt>0</asrwt>
<pdfrwt beam="1">  1       21 0.60699747E-01 0.24332176E+03</pdfrwt>
<pdfrwt beam="2">  1       21 0.21534359E+00 0.24332176E+03</pdfrwt>
<totfact> 0.25564008E+02</totfact>
</mgrwt>
</event>
<event>
 5    0  0.1972558E-002  0.2544971E+03  0.7546771E-02  0.1110495E+00
         21   -1    0    0  501  502  0.00000000000E+00  0.00000000000E+00  0.15144966048E+04  0.15144966048E+04  0.00000000000E+00 0. -1.
         21   -1    0    0  502  503 -0.00000000000E+00 -0.00000000000E+00 -0.22438938230E+03  0.22438938230E+03  0.00000000000E+00 0. -1.
         25    1    1    2    0    0 -0.21085701133E+03  0.48559956920E+02 -0.99091313524E+02  0.26881747908E+03  0.12500000000E+03 0.  0.
          3    1    1    2  501    0 -0.41320090849E+02 -0.49116319307E+02  0.10254405818E+04  0.10274473950E+04  0.00000000000E+00 0. -1.
         -3    1    1    2    0  503  0.25217710218E+03  0.55636238690E+00  0.36375795420E+03  0.44262111297E+03  0.00000000000E+00 0.  1.
<mgrwt>
<rscale>  4 0.25449713E+03</rscale>
<asrwt>0</asrwt>
<pdfrwt beam="1">  1       21 0.23299947E+00 0.25449713E+03</pdfrwt>
<pdfrwt beam="2">  1       21 0.34521444E-01 0.25449713E+03</pdfrwt>
<totfact> 0.63398071E+02</totfact>
</mgrwt>
</event>
<event>
 5    0  0.1972558E-002  0.4043605E+03  0.7546771E-02  0.1042280E+00
         21   -1    0    0  501  502  0.00000000000E+00  0.00000000000E+00  0.14937891682E+04  0.14937891682E+04  0.00000000000E+00 0.  1.
         21   -1    0    0  502  503 -0.00000000000E+00 -0.00000000000E+00 -0.48377441276E+03  0.48377441276E+03  0.00000000000E+00 0. -1.
         25    1    1    2    0    0  0.14576856369E+03 -0.35585668389E+03 -0.36616398343E+03  0.54551215971E+03  0.12500000000E+03 0.  0.
          2    1    1    2  501    0 -0.15702426442E+03  0.29907058139E+03  0.11974463483E+04  0.12441774750E+04  0.00000000000E+00 0.  1.
         -2    1    1    2    0  503  0.11255700729E+02  0.56786102501E+02  0.17873239058E+03  0.18787394625E+03  0.00000000000E+00 0. -1.
<mgrwt>
<rscale>  4 0.40436055E+03</rscale>
<asrwt>0</asrwt>
<pdfrwt beam="1">  1       21 0.22981372E+00 0.40436055E+03</pdfrwt>
<pdfrwt beam="2">  1       21 0.74426833E-01 0.40436055E+03</pdfrwt>
<totfact> 0.11552389E+02</totfact>
</mgrwt>
</event>
<event>
 5    0  0.1972558E-002  0.2462093E+03  0.7546771E-02  0.1115724E+00
         21   -1    0    0  501  502  0.00000000000E+00  0.00000000000E+00  0.29999841771E+03  0.29999841771E+03  0.00000000000E+00 0.  1.
         21   -1    0    0  502  503 -0.00000000000E+00 -0.00000000000E+00 -0.66832644578E+03  0.66832644578E+03  0.00000000000E+00 0.  1.
         25    1    1    2    0    0  0.12737250319E+03  0.17092869732E+03 -0.59539968621E+03  0.64464421232E+03  0.12500000000E+03 0.  0.
          2    1    1    2  501    0 -0.24006582844E+02  0.42445653329E+01  0.42638628778E+02  0.49116036269E+02  0.00000000000E+00 0. -1.
         -2    1    1    2    0  503 -0.10336592035E+03 -0.17517326265E+03  0.18443302936E+03  0.27456461490E+03  0.00000000000E+00 0.  1.
<mgrwt>
<rscale>  4 0.24620926E+03</rscale>
<asrwt>0</asrwt>
<pdfrwt beam="1">  1       21 0.46153604E-01 0.24620926E+03</pdfrwt>
<pdfrwt beam="2">  1       21 0.10281945E+00 0.24620926E+03</pdfrwt>
<totfact> 0.33168265E+03</totfact>
</mgrwt>
</event>
<event>
 5    0  0.1972558E-002  0.2371067E+03  0.7546771E-02  0.1121735E+00
         21   -1    0    0  501  502  0.00000000000E+00  0.00000000000E+00  0.38796126028E+03  0.38796126028E+03  0.00000000000E+00 0. -1.
         21   -1    0    0  502  503 -0.00000000000E+00 -0.00000000000E+00 -0.68804222707E+03  0.68804222707E+03  0.00000000000E+00 0. -1.
         25    1    1    2    0    0  0.12619752492E+03 -0.17491416681E+03 -0.50556249840E+03  0.56368361768E+03  0.12500000000E+03 0.  0.
          2    1    1    2  501    0  0.44725024696E+02  0.95311189225E+02  0.28789743685E+03  0.30654442544E+03  0.00000000000E+00 0. -1.
         -2    1    1    2    0  503 -0.17092254962E+03  0.79602977590E+02 -0.82415905236E+02  0.20577544422E+03  0.00000000000E+00 0.  1.
<mgrwt>
<rscale>  4 0.23710673E+03</rscale>
<asrwt>0</asrwt>
<pdfrwt beam="1">  1       21 0.59686348E-01 0.23710673E+03</pdfrwt>
<pdfrwt beam="2">  1       21 0.10585265E+00 0.23710673E+03</pdfrwt>
<totfact> 0.18075298E+03</totfact>
</mgrwt>
</event>
<event>
 5    0  0.1972558E-002  0.2292322E+03  0.7546771E-02  0.1127181E+00
         21   -1    0    0  501  502  0.00000000000E+00  0.00000000000E+00  0.44904074624E+03  0.44904074624E+03  0.00000000000E+00 0.  1.
         21   -1    0    0  502  503 -0.00000000000E+00 -0.00000000000E+00 -0.52243530571E+03  0.52243530571E+03  0.00000000000E+00 0.  1.
         25    1    1    2    0    0 -0.20871453045E+02  0.21748372273E+03 -0.23877086009E+02  0.25284363239E+03  0.12500000000E+03 0.  0.
          4    1    1    2  501    0  0.53245844645E+01 -0.18690866850E+03 -0.36031732659E+03  0.40594553502E+03  0.00000000000E+00 0.  1.
         -4    1    1    2    0  503  0.15546868581E+02 -0.30575054234E+02  0.31079985313E+03  0.31268688455E+03  0.00000000000E+00 0. -1.
<mgrwt>
<rscale>  4 0.22923216E+03</rscale>
<asrwt>0</asrwt>
<pdfrwt beam="1">  1       21 0.69083192E-01 0.22923216E+03</pdfrwt>
<pdfrwt beam="2">  1       21 0.80374663E-01 0.22923216E+03</pdfrwt>
<totfact> 0.25189139E+03</totfact>
</mgrwt>
</event>
<event>
 5    0  0.1972558E-002  0.3842531E+03  0.7546771E-02  0.1049373E+00
         21   -1    0    0  501  502  0.00000000000E+00  0.00000000000E+00  0.30281116263E+03  0.30281116263E+03  0.00000000000E+00 0. -1.
         21   -1    0    0  502  503 -0.00000000000E+00 -0.00000000000E+00 -0.53534338605E+03  0.53534338605E+03  0.00000000000E+00 0. -1.
         25    1    1    2    0    0  0.30192052956E+03 -0.19878034873E+03 -0.11412555144E+03  0.39914818640E+03  0.12500000000E+03 0.  0.
          3    1    1    2  501    0 -0.32169034269E+03  0.17372866156E+03 -0.14899774048E+03  0.39479950746E+03  0.00000000000E+00 0. -1.
         -3    1    1    2    0  503  0.19769813123E+02  0.25051687173E+02  0.30591068505E+02  0.44206854824E+02  0.00000000000E+00 0.  1.
<mgrwt>
<rscale>  4 0.38425313E+03</rscale>
<asrwt>0</asrwt>
<pdfrwt beam="1">  1       21 0.46586334E-01 0.38425313E+03</pdfrwt>
<pdfrwt beam="2">  1       21 0.82360519E-01 0.38425313E+03</pdfrwt>
<totfact> 0.51161093E+03</totfact>
</mgrwt>
</event>
<event>
 5    0  0.1972558E-002  0.2295002E+03  0.7546771E-02  0.1126992E+00
         21   -1    0    0  501  502  0.00000000000E+00  0.00000000000E+00  0.24493289114E+03  0.24493289114E+03  0.00000000000E+00 0. -1.
         21   -1    0    0  502  503 -0.00000000000E+00 -0.00000000000E+00 -0.37447066489E+03  0.37447066489E+03  0.00000000000E+00 0. -1.
         25    1    1    2    0    0  0.17383972679E+03  0.10570646909E+03 -0.25210267151E+03  0.34723891660E+03  0.12500000000E+03 0.  0.
          2    1    1    2  501    0 -0.16437529624E+03 -0.31707142043E+02  0.95973642076E+02  0.19296507675E+03  0.00000000000E+00 0. -1.
         -2    1    1    2    0  503 -0.94644305542E+01 -0.73999327050E+02  0.26591255688E+02  0.79199562680E+02  0.00000000000E+00 0.  1.
<mgrwt>
<rscale>  4 0.22950020E+03</rscale>
<asrwt>0</asrwt>
<pdfrwt beam="1">  1       21 0.37681983E-01 0.22950020E+03</pdfrwt>
<pdfrwt beam="2">  1       21 0.57610872E-01 0.22950020E+03</pdfrwt>
<totfact> 0.18793392E+04</totfact>
</mgrwt>
</event>
<event>
 5    0  0.1972558E-002  0.3434466E+03  0.7546771E-02  0.1065337E+00
         21   -1    0    0  501  502  0.00000000000E+00  0.00000000000E+00  0.49392019928E+03  0.49392019928E+03  0.00000000000E+00 0. -1.
         21   -1    0    0  502  503 -0.00000000000E+00 -0.00000000000E+00 -0.56816249977E+03  0.56816249977E+03  0.00000000000E+00 0.  1.
         25    1    1    2    0    0 -0.32915927591E+03  0.59695337672E+02 -0.34402102244E+03  0.49586775065E+03  0.12500000000E+03 0.  0.
          3    1    1    2  501    0  0.27862087563E+03 -0.91331235905E+02  0.33821530370E+01  0.29322760093E+03  0.00000000000E+00 0.  1.
         -3    1    1    2    0  503  0.50538400280E+02  0.31635898233E+02  0.26639656890E+03  0.27298734747E+03  0.00000000000E+00 0. -1.
<mgrwt>
<rscale>  4 0.34344655E+03</rscale>
<asrwt>0</asrwt>
<pdfrwt beam="1">  1       21 0.75987723E-01 0.34344655E+03</pdfrwt>
<pdfrwt beam="2">  1       21 0.87409615E-01 0.34344655E+03</pdfrwt>
<totfact> 0.15617035E+03</totfact>
</mgrwt>
</event>
<event>
 5    0  0.1972558E-002  0.2999031E+03  0.7546771E-02  0.1085289E+00
         21   -1    0    0  501  502  0.00000000000E+00  0.00000000000E+00  0.20974216914E+03  0.20974216914E+03  0.00000000000E+00 0.  1.
         21   -1    0    0  502  503 -0.00000000000E+00 -0.00000000000E+00 -0.23370846047E+04  0.23370846047E+04  0.00000000000E+00 0. -1.
         25    1    1    2    0    0  0.21849267972E+03  0.15777674723E+03 -0.31492677069E+03  0.43293928437E+03  0.12500000000E+03 0.  0.
          4    1    1    2  501    0 -0.19094926386E+03 -0.19605625590E+03 -0.19496560057E+04  0.19687707376E+04  0.00000000000E+00 0. -1.
         -4    1    1    2    0  503 -0.27543415855E+02  0.38279508672E+02  0.13724034078E+03  0.14511675188E+03  0.00000000000E+00 0.  1.
<mgrwt>
<rscale>  4 0.29990308E+03</rscale>
<asrwt>0</asrwt>
<pdfrwt beam="1">  1       21 0.32268028E-01 0.29990308E+03</pdfrwt>
<pdfrwt beam="2">  1       21 0.35955146E+00 0.29990308E+03</pdfrwt>
<totfact> 0.12256940E+02</totfact>
</mgrwt>
</event>
<event>
 5    0  0.1972558E-002  0.2696401E+03  0.7546771E-02  0.1101486E+00
         21   -1    0    0  501  502  0.00000000000E+00  0.00000000000E+00  0.15909332046E+03  0.15909332046E+03  0.00000000000E+00 0. -1.
         21   -1    0    0  502  503 -0.00000000000E+00 -0.00000000000E+00 -0.69048660618E+03  0.69048660618E+03  0.00000000000E+00 0.  1.
         25    1    1    2    0    0  0.26611965134E+03 -0.65232720543E+02 -0.39750421073E+03  0.49870790470E+03  0.12500000000E+03 0.  0.
          1    1    1    2  501    0 -0.40027261581E+02  0.27974693606E+02 -0.11016740008E+03  0.12050568946E+03  0.00000000000E+00 0.  1.
         -1    1    1    2    0  503 -0.22609238976E+03  0.37258026936E+02 -0.23721674897E+02  0.23036633248E+03  0.00000000000E+00 0. -1.
<mgrwt>
<rscale>  4 0.26964006E+03</rscale>
<asrwt>0</asrwt>
<pdfrwt beam="1">  1       21 0.24475895E-01 0.26964006E+03</pdfrwt>
<pdfrwt beam="2">  1       21 0.10622871E+00 0.26964006E+03</pdfrwt>
<totfact> 0.10691504E+04</totfact>
</mgrwt>
</event>
<event>
 5    0  0.1972558E-002  0.4122116E+03  0.7546771E-02  0.1039631E+00
         21   -1    0    0  501  502  0.00000000000E+00  0.00000000000E+00  0.80661909757E+03  0.80661909757E+03  0.00000000000E+00 0. -1.
         21   -1    0    0  502  503 -0.00000000000E+00 -0.00000000000E+00 -0.24398751962E+03  0.24398751962E+03  0.00000000000E+00 0.  1.
         25    1    1    2    0    0  0.35439241319E+03 -0.22788814152E+03  0.27252844131E+03  0.51713029199E+03  0.12500000000E+03 0.  0.
          2    1    1    2  501    0 -0.32410269601E+03  0.18138443164E+03  0.18571098146E+03  0.41524864628E+03  0.00000000000E+00 0. -1.
         -2    1    1    2    0  503 -0.30289717177E+02  0.46503709878E+02  0.10439215518E+03  0.11822767892E+03  0.00000000000E+00 0.  1.
<mgrwt>
<rscale>  4 0.41221162E+03</rscale>
<asrwt>0</asrwt>
<pdfrwt beam="1">  1       21 0.12409524E+00 0.41221162E+03</pdfrwt>
<pdfrwt beam="2">  1       21 0.37536542E-01 0.41221162E+03</pdfrwt>
<totfact> 0.29220759E+03</totfact>
</mgrwt>
</event>
<event>
 5    0  0.1972558E-002  0.2264977E+03  0.7546771E-02  0.1129129E+00
         21   -1    0    0  503  502  0.00000000000E+00  0.00000000000E+00  0.13055829128E+03  0.13055829128E+03  0.00000000000E+00 0. -1.
         21   -1    0    0  501  503 -0.00000000000E+00 -0.00000000000E+00 -0.10670882284E+04  0.10670882284E+04  0.00000000000E+00 0.  1.
         25    1    1    2    0    0  0.42001484607E+02 -0.20492636176E+03 -0.89965378991E+03  0.93207343067E+03  0.12500000000E+03 0.  0.
          3    1    1    2  501    0 -0.41759785891E+02  0.13630518186E+03 -0.98552477210E+02  0.17330774098E+03  0.00000000000E+00 0.  1.
         -3    1    1    2    0  502 -0.24169871590E+00  0.68621179901E+02  0.61676330059E+02  0.92265347985E+02  0.00000000000E+00 0. -1.
<mgrwt>
<rscale>  4 0.22649766E+03</rscale>
<asrwt>0</asrwt>
<pdfrwt beam="1">  1       21 0.20085892E-01 0.22649766E+03</pdfrwt>
<pdfrwt beam="2">  1       21 0.16416741E+00 0.22649766E+03</pdfrwt>
<totfact> 0.52298126E+03</totfact>
</mgrwt>
</event>
<event>
 5    0  0.1972558E-002  0.2755976E+03  0.7546771E-02  0.1098118E+00
         21   -1    0    0  501  502  0.00000000000E+00  0.00000000000E+00  0.42025419543E+03  0.42025419543E+03  0.00000000000E+00 0.  1.
         21   -1    0    0  502  503 -0.00000000000E+00 -0.00000000000E+00 -0.26279265626E+03  0.26279265626E+03  0.00000000000E+00 0. -1.
         25    1    1    2    0    0  0.13035291456E+03  0.20817574321E+03 -0.12626934516E+03  0.30314677950E+03  0.12500000000E+03 0.  0.
          3    1    1    2  501    0 -0.12768711678E+02 -0.52571511094E+02  0.89939655705E+02  0.10495687422E+03  0.00000000000E+00 0. -1.
         -3    1    1    2    0  503 -0.11758420288E+03 -0.15560423212E+03  0.19379122863E+03  0.27494319798E+03  0.00000000000E+00 0.  1.
<mgrwt>
<rscale>  4 0.27559757E+03</rscale>
<asrwt>0</asrwt>
<pdfrwt beam="1">  1       21 0.64654492E-01 0.27559757E+03</pdfrwt>
<pdfrwt beam="2">  1       21 0.40429639E-01 0.27559757E+03</pdfrwt>
<totfact> 0.12398828E+04</totfact>
</mgrwt>
</event>
<event>
 5    0  0.1972558E-002  0.2994623E+03  0.7546771E-02  0.1085510E+00
         21   -1    0    0  501  502  0.00000000000E+00  0.00000000000E+00  0.28320227375E+03  0.28320227375E+03  0.00000000000E+00 0. -1.
         21   -1    0    0  502  503 -0.00000000000E+00 -0.00000000000E+00 -0.11967122535E+04  0.11967122535E+04  0.00000000000E+00 0.  1.
         25    1    1    2    0    0  0.24165015830E+03  0.12780228606E+03 -0.88045854870E+03  0.93035502864E+03  0.12500000000E+03 0.  0.
          3    1    1    2  501    0  0.39891849636E+02 -0.96713280291E+02  0.17099825340E+03  0.20046251749E+03  0.00000000000E+00 0. -1.
         -3    1    1    2    0  503 -0.28154200794E+03 -0.31089005772E+02 -0.20404968446E+03  0.34909698114E+03  0.00000000000E+00 0.  1.
<mgrwt>
<rscale>  4 0.29946235E+03</rscale>
<asrwt>0</asrwt>
<pdfrwt beam="1">  1       21 0.43569579E-01 0.29946235E+03</pdfrwt>
<pdfrwt beam="2">  1       21 0.18410958E+00 0.29946235E+03</pdfrwt>
<totfact> 0.78467872E+02</totfact>
</mgrwt>
</event>
<event>
 5    0  0.1972558E-002  0.2094029E+03  0.7546771E-02  0.1142040E+00
         21   -1    0    0  501  502  0.00000000000E+00  0.00000000000E+00  0.17445557785E+03  0.17445557785E+03  0.00000000000E+00 0. -1.
         21   -1    0    0  502  503 -0.00000000000E+00 -0.00000000000E+00 -0.89318098457E+03  0.89318098457E+03  0.00000000000E+00 0. -1.
         25    1    1    2    0    0 -0.17674309467E+03  0.16271759125E+03 -0.63470806709E+03  0.69006845055E+03  0.12500000000E+03 0.  0.
          2    1    1    2  501    0  0.11571493697E+03 -0.11450917556E+03  0.90676098940E+02  0.18634498342E+03  0.00000000000E+00 0.  1.
         -2    1    1    2    0  503  0.61028157698E+02 -0.48208415681E+02 -0.17469343857E+03  0.19122312845E+03  0.00000000000E+00 0. -1.
<mgrwt>
<rscale>  4 0.20940293E+03</rscale>
<asrwt>0</asrwt>
<pdfrwt beam="1">  1       21 0.26839320E-01 0.20940293E+03</pdfrwt>
<pdfrwt beam="2">  1       21 0.13741246E+00 0.20940293E+03</pdfrwt>
<totfact> 0.48963417E+03</totfact>
</mgrwt>
</event>
<event>
 5    0  0.1972558E-002  0.2471645E+03  0.7546771E-02  0.1115110E+00
         21   -1    0    0  501  502  0.00000000000E+00  0.00000000000E+00  0.13009789539E+03  0.13009789539E+03  0.00000000000E+00 0.  1.
         21   -1    0    0  502  503 -0.00000000000E+00 -0.00000000000E+00 -0.75307694953E+03  0.75307694953E+03  0.00000000000E+00 0.  1.
         25    1    1    2    0    0  0.58234456837E+02  0.23596698662E+03 -0.21498914623E+03  0.34773122341E+03  0.12500000000E+03 0.  0.
          1    1    1    2  501    0 -0.97619613217E+02 -0.17978717330E+03 -0.41869554818E+03  0.46600319595E+03  0.00000000000E+00 0.  1.
         -1    1    1    2    0  503  0.39385156380E+02 -0.56179813322E+02  0.10705640268E+02  0.69440425557E+02  0.00000000000E+00 0. -1.
<mgrwt>
<rscale>  4 0.24716454E+03</rscale>
<asrwt>0</asrwt>
<pdfrwt beam="1">  1       21 0.20015061E-01 0.24716454E+03</pdfrwt>
<pdfrwt beam="2">  1       21 0.11585799E+00 0.24716454E+03</pdfrwt>
<totfact> 0.12825232E+04</totfact>
</mgrwt>
</event>
<event>
 5    0  0.1972558E-002  0.2197390E+03  0.7546771E-02  0.1134078E+00
         21   -1    0    0  503  502  0.00000000000E+00  0.00000000000E+00  0.17896639846E+03  0.17896639846E+03  0.00000000000E+00 0.  1.
         21   -1    0    0  501  503 -0.00000000000E+00 -0.00000000000E+00 -0.62811698746E+03  0.62811698746E+03  0.00000000000E+00 0. -1.
         25    1    1    2    0    0 -0.20337228562E+03 -0.62141226469E+02 -0.40169707126E+03  0.47138875214E+03  0.12500000000E+03 0.  0.
          3    1    1    2  501    0  0.31002337255E+02  0.23063374442E+02 -0.13359881484E+03  0.13907446740E+03  0.00000000000E+00 0. -1.
         -3    1    1    2    0  502  0.17236994836E+03  0.39077852026E+02  0.86145297104E+02  0.19662016639E+03  0.00000000000E+00 0.  1.
<mgrwt>
<rscale>  4 0.21973902E+03</rscale>
<asrwt>0</asrwt>
<pdfrwt beam="1">  1       21 0.27533292E-01 0.21973902E+03</pdfrwt>
<pdfrwt beam="2">  1       21 0.96633382E-01 0.21973902E+03</pdfrwt>
<totfact> 0.11000458E+04</totfact>
</mgrwt>
</event>
<event>
 5    0  0.1972558E-002  0.3968865E+03  0.7546771E-02  0.1044863E+00
         21   -1    0    0  501  502  0.00000000000E+00  0.00000000000E+00  0.12326883039E+04  0.12326883039E+04  0.00000000000E+00 0.  1.
         21   -1    0    0  502  503 -0.00000000000E+00 -0.00000000000E+00 -0.97757913873E+03  0.97757913873E+03  0.00000000000E+00 0.  1.
         25    1    1    2    0    0  0.36738505038E+03  0.80909898214E+02 -0.88428366818E+03  0.96907212976E+03  0.12500000000E+03 0.  0.
          4    1    1    2  501    0  0.15231206078E+02 -0.26565145455E+02  0.44865213217E+03  0.44969593315E+03  0.00000000000E+00 0.  1.
         -4    1    1    2    0  503 -0.38261625646E+03 -0.54344752759E+02  0.69074070122E+03  0.79149937977E+03  0.00000000000E+00 0. -1.
<mgrwt>
<rscale>  4 0.39688648E+03</rscale>
<asrwt>0</asrwt>
<pdfrwt beam="1">  1       21 0.18964435E+00 0.39688648E+03</pdfrwt>
<pdfrwt beam="2">  1       21 0.15039679E+00 0.39688648E+03</pdfrwt>
<totfact> 0.37463835E+01</totfact>
</mgrwt>
</event>
<event>
 5    0  0.1972558E-002  0.2531441E+03  0.7546771E-02  0.1111334E+00
         21   -1    0    0  501  502  0.00000000000E+00  0.00000000000E+00  0.30145829660E+03  0.30145829660E+03  0.00000000000E+00 0. -1.
         21   -1    0    0  502  503 -0.00000000000E+00 -0.00000000000E+00 -0.94224413638E+03  0.94224413638E+03  0.00000000000E+00 0. -1.
         25    1    1    2    0    0 -0.51172926938E+02 -0.22534575886E+03 -0.81633685194E+03  0.85757229160E+03  0.12500000000E+03 0.  0.
          3    1    1    2  501    0 -0.24590103908E+02  0.18155385687E+03 -0.73646949739E+01  0.18335952358E+03  0.00000000000E+00 0.  1.
         -3    1    1    2    0  503  0.75763030846E+02  0.43791901987E+02  0.18291570714E+03  0.20277061780E+03  0.00000000000E+00 0. -1.
<mgrwt>
<rscale>  4 0.25314409E+03</rscale>
<asrwt>0</asrwt>
<pdfrwt beam="1">  1       21 0.46378199E-01 0.25314409E+03</pdfrwt>
<pdfrwt beam="2">  1       21 0.14496064E+00 0.25314409E+03</pdfrwt>
<totfact> 0.13799022E+03</totfact>
</mgrwt>
</event>
<event>
 5    0  0.1972558E-002  0.2490880E+03  0.7546771E-02  0.1113883E+00
         21   -1    0    0  501  502  0.00000000000E+00  0.00000000000E+00  0.48140567778E+03  0.48140567778E+03  0.00000000000E+00 0. -1.
         21   -1    0    0  502  503 -0.00000000000E+00 -0.00000000000E+00 -0.14428605776E+04  0.14428605776E+04  0.00000000000E+00 0.  1.
         25    1    1    2    0    0  0.10581409411E+03 -0.18697895460E+03 -0.13812793695E+04  0.14034655139E+04  0.12500000000E+03 0.  0.
          1    1    1    2  501    0 -0.96163469440E+01 -0.23028124584E+02  0.20124069867E+03  0.20278211817E+03  0.00000000000E+00 0.  1.
         -1    1    1    2    0  503 -0.96197747163E+02  0.21000707919E+03  0.21858377099E+03  0.31801862337E+03  0.00000000000E+00 0. -1.
<mgrwt>
<rscale>  4 0.24908803E+03</rscale>
<asrwt>0</asrwt>
<pdfrwt beam="1">  1       21 0.74062414E-01 0.24908803E+03</pdfrwt>
<pdfrwt beam="2">  1       21 0.22197854E+00 0.24908803E+03</pdfrwt>
<totfact> 0.14902943E+02</totfact>
</mgrwt>
</event>
<event>
 5    0  0.1972558E-002  0.2569639E+03  0.7546771E-02  0.1108981E+00
         21   -1    0    0  501  502  0.00000000000E+00  0.00000000000E+00  0.73305904507E+03  0.73305904507E+03  0.00000000000E+00 0. -1.
         21   -1    0    0  502  503 -0.00000000000E+00 -0.00000000000E+00 -0.20391368555E+03  0.20391368555E+03  0.00000000000E+00 0. -1.
         25    1    1    2    0    0 -0.20732687798E+03  0.92875235296E+02 -0.47233563457E+02  0.26356451427E+03  0.12500000000E+03 0.  0.
          2    1    1    2  501    0 -0.26308580783E+01 -0.28776604661E+02  0.37311036177E+03  0.37422767996E+03  0.00000000000E+00 0.  1.
         -2    1    1    2    0  503  0.20995773606E+03 -0.64098630635E+02  0.20326856121E+03  0.29918053639E+03  0.00000000000E+00 0. -1.
<mgrwt>
<rscale>  4 0.25696390E+03</rscale>
<asrwt>0</asrwt>
<pdfrwt beam="1">  1       21 0.11277831E+00 0.25696390E+03</pdfrwt>
<pdfrwt beam="2">  1       21 0.31371337E-01 0.25696390E+03</pdfrwt>
<totfact> 0.57404663E+03</totfact>
</mgrwt>
</event>
<event>
 5    0  0.1972558E-002  0.3758115E+03  0.7546771E-02  0.1052493E+00
         21   -1    0    0  501  502  0.00000000000E+00  0.00000000000E+00  0.13709804505E+04  0.13709804505E+04  0.00000000000E+00 0. -1.
         21   -1    0    0  502  503 -0.00000000000E+00 -0.00000000000E+00 -0.27188703428E+03  0.27188703428E+03  0.00000000000E+00 0. -1.
         25    1    1    2    0    0  0.52651923909E+02 -0.36112621338E+03 -0.26852126862E+02  0.38669161330E+03  0.12500000000E+03 0.  0.
          4    1    1    2  501    0 -0.71637613537E+02  0.32245466203E+03  0.35831833310E+03  0.48734072739E+03  0.00000000000E+00 0.  1.
         -4    1    1    2    0  503  0.18985689628E+02  0.38671551354E+02  0.76762720999E+03  0.76883514411E+03  0.00000000000E+00 0. -1.
<mgrwt>
<rscale>  4 0.37581147E+03</rscale>
<asrwt>0</asrwt>
<pdfrwt beam="1">  1       21 0.21092007E+00 0.37581147E+03</pdfrwt>
<pdfrwt beam="2">  1       21 0.41828775E-01 0.37581147E+03</pdfrwt>
<totfact> 0.53896927E+02</totfact>
</mgrwt>
</event>
<event>
 5    0  0.1972558E-002  0.2300339E+03  0.7546771E-02  0.1126616E+00
         21   -1    0    0  503  502  0.00000000000E+00  0.00000000000E+00  0.13130074561E+03  0.13130074561E+03  0.00000000000E+00 0.  1.
         21   -1    0    0  501  503 -0.00000000000E+00 -0.00000000000E+00 -0.55067440892E+03  0.55067440892E+03  0.00000000000E+00 0.  1.
         25    1    1    2    0    0 -0.20595553775E+03  0.80235031985E+02 -0.25086147288E+03  0.35694792682E+03  0.12500000000E+03 0.  0.
          3    1    1    2  501    0  0.67892430072E+02  0.42715407645E+02 -0.99236410063E+02  0.12760036518E+03  0.00000000000E+00 0. -1.
         -3    1    1    2    0  502  0.13806310767E+03 -0.12295043963E+03 -0.69275780371E+02  0.19742686254E+03  0.00000000000E+00 0.  1.
<mgrwt>
<rscale>  4 0.23003387E+03</rscale>
<asrwt>0</asrwt>
<pdfrwt beam="1">  1       21 0.20200115E-01 0.23003387E+03</pdfrwt>
<pdfrwt beam="2">  1       21 0.84719139E-01 0.23003387E+03</pdfrwt>
<totfact> 0.26801608E+04</totfact>
</mgrwt>
</event>
<event>
 5    0  0.1972558E-002  0.2392435E+03  0.7546771E-02  0.1120298E+00
         21   -1    0    0  501  502  0.00000000000E+00  0.00000000000E+00  0.87120801624E+03  0.87120801624E+03  0.00000000000E+00 0. -1.
         21   -1    0    0  502  503 -0.00000000000E+00 -0.00000000000E+00 -0.22732730685E+03  0.22732730685E+03  0.00000000000E+00 0. -1.
         25    1    1    2    0    0  0.20971136076E+03  0.49872639811E+01 -0.88120634320E+02  0.25960349348E+03  0.12500000000E+03 0.  0.
          1    1    1    2  501    0 -0.18164371797E+02  0.16386921989E+02  0.61072500274E+03  0.61121477779E+03  0.00000000000E+00 0.  1.
         -1    1    1    2    0  503 -0.19154698897E+03 -0.21374185971E+02  0.12127634098E+03  0.22771705182E+03  0.00000000000E+00 0. -1.
<mgrwt>
<rscale>  4 0.23924347E+03</rscale>
<asrwt>0</asrwt>
<pdfrwt beam="1">  1       21 0.13403200E+00 0.23924347E+03</pdfrwt>
<pdfrwt beam="2">  1       21 0.34973432E-01 0.23924347E+03</pdfrwt>
<totfact> 0.30358024E+03</totfact>
</mgrwt>
</event>
<event>
 5    0  0.1972558E-002  0.2551173E+03  0.7546771E-02  0.1110113E+00
         21   -1    0    0  501  502  0.00000000000E+00  0.00000000000E+00  0.65359103731E+03  0.65359103731E+03  0.00000000000E+00 0.  1.
         21   -1    0    0  502  503 -0.00000000000E+00 -0.00000000000E+00 -0.16190766157E+03  0.16190766157E+03  0.00000000000E+00 0. -1.
         25    1    1    2    0    0  0.11902346195E+02 -0.22207695732E+03 -0.19112384268E+02  0.25583221855E+03  0.12500000000E+03 0.  0.
          2    1    1    2  501    0 -0.65535526546E+01  0.20136282851E+03  0.49012811144E+03  0.52992028022E+03  0.00000000000E+00 0.  1.
         -2    1    1    2    0  503 -0.53487935404E+01  0.20714128800E+02  0.20667648557E+02  0.29746200113E+02  0.00000000000E+00 0. -1.
<mgrwt>
<rscale>  4 0.25511731E+03</rscale>
<asrwt>0</asrwt>
<pdfrwt beam="1">  1       21 0.10055247E+00 0.25511731E+03</pdfrwt>
<pdfrwt beam="2">  1       21 0.24908871E-01 0.25511731E+03</pdfrwt>
<totfact> 0.11894868E+04</totfact>
</mgrwt>
</event>
<event>
 5    0  0.1972558E-002  0.2575384E+03  0.7546771E-02  0.1108631E+00
         21   -1    0    0  501  502  0.00000000000E+00  0.00000000000E+00  0.61719694385E+03  0.61719694385E+03  0.00000000000E+00 0.  1.
         21   -1    0    0  502  503 -0.00000000000E+00 -0.00000000000E+00 -0.16527344061E+03  0.16527344061E+03  0.00000000000E+00 0. -1.
         25    1    1    2    0    0  0.18309323238E+03  0.13787499901E+03  0.58587755518E+02  0.26756339845E+03  0.12500000000E+03 0.  0.
          1    1    1    2  501    0 -0.12739413170E+03 -0.18736407213E+03  0.18135836232E+03  0.29021615375E+03  0.00000000000E+00 0.  1.
         -1    1    1    2    0  503 -0.55699100677E+02  0.49489073117E+02  0.21197738540E+03  0.22469083225E+03  0.00000000000E+00 0. -1.
<mgrwt>
<rscale>  4 0.25753843E+03</rscale>
<asrwt>0</asrwt>
<pdfrwt beam="1">  1       21 0.94953375E-01 0.25753843E+03</pdfrwt>
<pdfrwt beam="2">  1       21 0.25426683E-01 0.25753843E+03</pdfrwt>
<totfact> 0.13084311E+04</totfact>
</mgrwt>
</event>
<event>
 5    0  0.1972558E-002  0.2273595E+03  0.7546771E-02  0.1128512E+00
         21   -1    0    0  501  502  0.00000000000E+00  0.00000000000E+00  0.27656751602E+03  0.27656751602E+03  0.00000000000E+00 0.  1.
         21   -1    0    0  502  503 -0.00000000000E+00 -0.00000000000E+00 -0.25145965833E+03  0.25145965833E+03  0.00000000000E+00 0. -1.
         25    1    1    2    0    0  0.17632098486E+03 -0.99621963362E+02 -0.48378930168E+02  0.24285622531E+03  0.12500000000E+03 0.  0.
          2    1    1    2  501    0 -0.17899707036E+03  0.37433895401E+02 -0.75045919844E+01  0.18302340458E+03  0.00000000000E+00 0.  1.
         -2    1    1    2    0  503  0.26760855012E+01  0.62188067961E+02  0.80991379838E+02  0.10214754446E+03  0.00000000000E+00 0. -1.
<mgrwt>
<rscale>  4 0.22735951E+03</rscale>
<asrwt>0</asrwt>
<pdfrwt beam="1">  1       21 0.42548848E-01 0.22735951E+03</pdfrwt>
<pdfrwt beam="2">  1       21 0.38686101E-01 0.22735951E+03</pdfrwt>
<totfact> 0.33634013E+04</totfact>
</mgrwt>
</event>
<event>
 5    0  0.1972558E-002  0.2460564E+03  0.7546771E-02  0.1115823E+00
         21   -1    0    0  501  502  0.00000000000E+00  0.00000000000E+00  0.11187059960E+04  0.11187059960E+04  0.00000000000E+00 0. -1.
         21   -1    0    0  502  503 -0.00000000000E+00 -0.00000000000E+00 -0.22366950865E+04  0.22366950865E+04  0.00000000000E+00 0.  1.
         25    1    1    2    0    0  0.68381135572E+01 -0.21228953192E+03 -0.21889174925E+04  0.22027479188E+04  0.12500000000E+03 0.  0.
          3    1    1    2  501    0  0.11809053866E+02  0.16601077670E+02  0.87457023744E+03  0.87480749296E+03  0.00000000000E+00 0. -1.
         -3    1    1    2    0  503 -0.18647167423E+02  0.19568845425E+03  0.19635816451E+03  0.27784567074E+03  0.00000000000E+00 0.  1.
<mgrwt>
<rscale>  4 0.24605643E+03</rscale>
<asrwt>0</asrwt>
<pdfrwt beam="1">  1       21 0.17210862E+00 0.24605643E+03</pdfrwt>
<pdfrwt beam="2">  1       21 0.34410694E+00 0.24605643E+03</pdfrwt>
<totfact> 0.35128039E+00</totfact>
</mgrwt>
</event>
<event>
 5    0  0.1972558E-002  0.2519951E+03  0.7546771E-02  0.1112050E+00
         21   -1    0    0  501  502  0.00000000000E+00  0.00000000000E+00  0.51017948360E+03  0.51017948360E+03  0.00000000000E+00 0.  1.
         21   -1    0    0  502  503 -0.00000000000E+00 -0.00000000000E+00 -0.31035257360E+03  0.31035257360E+03  0.00000000000E+00 0. -1.
         25    1    1    2    0    0 -0.10450572153E+03 -0.20933932862E+03 -0.17225314973E+03  0.31629187143E+03  0.12500000000E+03 0.  0.
          2    1    1    2  501    0  0.10861878329E+03  0.15623014935E+03  0.78447860141E+02  0.20581536971E+03  0.00000000000E+00 0. -1.
         -2    1    1    2    0  503 -0.41130617596E+01  0.53109179270E+02  0.29363219960E+03  0.29842481606E+03  0.00000000000E+00 0.  1.
<mgrwt>
<rscale>  4 0.25199510E+03</rscale>
<asrwt>0</asrwt>
<pdfrwt beam="1">  1       21 0.78489151E-01 0.25199510E+03</pdfrwt>
<pdfrwt beam="2">  1       21 0.47746550E-01 0.25199510E+03</pdfrwt>
<totfact> 0.57815421E+03</totfact>
</mgrwt>
</event>
<event>
 5    0  0.1972558E-002  0.2344170E+03  0.7546771E-02  0.1123569E+00
         21   -1    0    0  501  502  0.00000000000E+00  0.00000000000E+00  0.37017283177E+03  0.37017283177E+03  0.00000000000E+00 0. -1.
         21   -1    0    0  502  503 -0.00000000000E+00 -0.00000000000E+00 -0.33180157276E+03  0.33180157276E+03  0.00000000000E+00 0. -1.
         25    1    1    2    0    0  0.15658537389E+03 -0.16869414110E+03 -0.20484203748E+03  0.33250857565E+03  0.12500000000E+03 0.  0.
          2    1    1    2  501    0 -0.86946583378E+02  0.12037706084E+03  0.47042009612E+02  0.15576679944E+03  0.00000000000E+00 0.  1.
         -2    1    1    2    0  503 -0.69638790515E+02  0.48317080259E+02  0.19617128688E+03  0.21369902945E+03  0.00000000000E+00 0. -1.
<mgrwt>
<rscale>  4 0.23441695E+03</rscale>
<asrwt>0</asrwt>
<pdfrwt beam="1">  1       21 0.56949666E-01 0.23441695E+03</pdfrwt>
<pdfrwt beam="2">  1       21 0.51046396E-01 0.23441695E+03</pdfrwt>
<totfact> 0.10291597E+04</totfact>
</mgrwt>
</event>
<event>
 5    0  0.1972558E-002  0.2502829E+03  0.7546771E-02  0.1113126E+00
         21   -1    0    0  503  502  0.00000000000E+00  0.00000000000E+00  0.70976822654E+03  0.70976822654E+03  0.00000000000E+00 0. -1.
         21   -1    0    0  501  503 -0.00000000000E+00 -0.00000000000E+00 -0.29357105211E+03  0.29357105211E+03  0.00000000000E+00 0. -1.
         25    1    1    2    0    0 -0.96364499136E+02  0.19214982101E+03 -0.21042524469E+03  0.32574753109E+03  0.12500000000E+03 0.  0.
          4    1    1    2  501    0 -0.86708525375E+01  0.18649914776E+02  0.75577232257E+02  0.78325736769E+02  0.00000000000E+00 0.  1.
         -4    1    1    2    0  502  0.10503535167E+03 -0.21079973579E+03  0.55104518687E+03  0.59926601079E+03  0.00000000000E+00 0. -1.
<mgrwt>
<rscale>  4 0.25028286E+03</rscale>
<asrwt>0</asrwt>
<pdfrwt beam="1">  1       21 0.10919511E+00 0.25028286E+03</pdfrwt>
<pdfrwt beam="2">  1       21 0.45164777E-01 0.25028286E+03</pdfrwt>
<totfact> 0.29900882E+03</totfact>
</mgrwt>
</event>
<event>
 5    0  0.1972558E-002  0.6205421E+03  0.7546771E-02  0.9863681E-01
         21   -1    0    0  501  502  0.00000000000E+00  0.00000000000E+00  0.39594946475E+03  0.39594946475E+03  0.00000000000E+00 0. -1.
         21   -1    0    0  502  503 -0.00000000000E+00 -0.00000000000E+00 -0.15693621112E+04  0.15693621112E+04  0.00000000000E+00 0.  1.
         25    1    1    2    0    0  0.43568384777E+03 -0.44164938455E+03 -0.78158710039E+03  0.10056729039E+04  0.12500000000E+03 0.  0.
          3    1    1    2  501    0  0.11260542815E+02  0.50444928754E+02  0.14815145913E+03  0.15690871710E+03  0.00000000000E+00 0. -1.
         -3    1    1    2    0  503 -0.44694439059E+03  0.39120445580E+03 -0.53997700523E+03  0.80272995502E+03  0.00000000000E+00 0.  1.
<mgrwt>
<rscale>  4 0.62054210E+03</rscale>
<asrwt>0</asrwt>
<pdfrwt beam="1">  1       21 0.60915302E-01 0.62054210E+03</pdfrwt>
<pdfrwt beam="2">  1       21 0.24144032E+00 0.62054210E+03</pdfrwt>
<totfact> 0.13687647E+02</totfact>
</mgrwt>
</event>
<event>
 5    0  0.1972558E-002  0.2369111E+03  0.7546771E-02  0.1121868E+00
         21   -1    0    0  501  502  0.00000000000E+00  0.00000000000E+00  0.36163414243E+03  0.36163414243E+03  0.00000000000E+00 0. -1.
         21   -1    0    0  502  503 -0.00000000000E+00 -0.00000000000E+00 -0.28754434562E+03  0.28754434562E+03  0.00000000000E+00 0.  1.
         25    1    1    2    0    0 -0.15884386680E+03  0.12357390986E+03 -0.19684955583E+03  0.30802050719E+03  0.12500000000E+03 0.  0.
          1    1    1    2  501    0  0.15136444759E+03 -0.97210151224E+02  0.23677906283E+03  0.29736397577E+03  0.00000000000E+00 0. -1.
         -1    1    1    2    0  503  0.74794192191E+01 -0.26363758640E+02  0.34160289809E+02  0.43794005084E+02  0.00000000000E+00 0.  1.
<mgrwt>
<rscale>  4 0.23691113E+03</rscale>
<asrwt>0</asrwt>
<pdfrwt beam="1">  1       21 0.55636022E-01 0.23691113E+03</pdfrwt>
<pdfrwt beam="2">  1       21 0.44237592E-01 0.23691113E+03</pdfrwt>
<totfact> 0.14549363E+04</totfact>
</mgrwt>
</event>
<event>
 5    0  0.1972558E-002  0.3331207E+03  0.7546771E-02  0.1069764E+00
         21   -1    0    0  501  502  0.00000000000E+00  0.00000000000E+00  0.50207837393E+03  0.50207837393E+03  0.00000000000E+00 0.  1.
         21   -1    0    0  502  503 -0.00000000000E+00 -0.00000000000E+00 -0.65109324753E+03  0.65109324753E+03  0.00000000000E+00 0.  1.
         25    1    1    2    0    0  0.27314088840E+03 -0.14781715871E+03 -0.54553334476E+03  0.64006834601E+03  0.12500000000E+03 0.  0.
          4    1    1    2  501    0 -0.24652511385E+03  0.16115114742E+03  0.34514852791E+03  0.45373101106E+03  0.00000000000E+00 0.  1.
         -4    1    1    2    0  503 -0.26615774550E+02 -0.13333988709E+02  0.51369943246E+02  0.59372264391E+02  0.00000000000E+00 0. -1.
<mgrwt>
<rscale>  4 0.33312070E+03</rscale>
<asrwt>0</asrwt>
<pdfrwt beam="1">  1       21 0.77242827E-01 0.33312070E+03</pdfrwt>
<pdfrwt beam="2">  1       21 0.10016819E+00 0.33312070E+03</pdfrwt>
<totfact> 0.10953231E+03</totfact>
</mgrwt>
</event>
<event>
 5    0  0.1972558E-002  0.3008338E+03  0.7546771E-02  0.1084825E+00
         21   -1    0    0  501  502  0.00000000000E+00  0.00000000000E+00  0.77975382893E+02  0.77975382893E+02  0.00000000000E+00 0. -1.
         21   -1    0    0  502  503 -0.00000000000E+00 -0.00000000000E+00 -0.29556452703E+04  0.29556452703E+04  0.00000000000E+00 0. -1.
         25    1    1    2    0    0 -0.26791872256E+03  0.93169188039E+02 -0.34622734430E+03  0.46471422772E+03  0.12500000000E+03 0.  0.
          1    1    1    2  501    0  0.27315446707E+01 -0.30230194388E+02 -0.88285387138E+01  0.31611217706E+02  0.00000000000E+00 0.  1.
         -1    1    1    2    0  503  0.26518717789E+03 -0.62938993651E+02 -0.25226140044E+04  0.25372952078E+04  0.00000000000E+00 0. -1.
<mgrwt>
<rscale>  4 0.30083383E+03</rscale>
<asrwt>0</asrwt>
<pdfrwt beam="1">  1       21 0.11996213E-01 0.30083383E+03</pdfrwt>
<pdfrwt beam="2">  1       21 0.45471466E+00 0.30083383E+03</pdfrwt>
<totfact> 0.19554290E+02</totfact>
</mgrwt>
</event>
<event>
 5    0  0.1972558E-002  0.2109050E+03  0.7546771E-02  0.1140851E+00
         21   -1    0    0  501  502  0.00000000000E+00  0.00000000000E+00  0.16761810549E+03  0.16761810549E+03  0.00000000000E+00 0. -1.
         21   -1    0    0  502  503 -0.00000000000E+00 -0.00000000000E+00 -0.12613484079E+04  0.12613484079E+04  0.00000000000E+00 0.  1.
         25    1    1    2    0    0 -0.15437766851E+02  0.20371055067E+03 -0.37235700175E+03  0.44273135178E+03  0.12500000000E+03 0.  0.
          2    1    1    2  501    0  0.12459794956E+03 -0.11790269302E+03  0.68160844733E+02  0.18458492574E+03  0.00000000000E+00 0. -1.
         -2    1    1    2    0  503 -0.10916018271E+03 -0.85807857643E+02 -0.78953414542E+03  0.80165023589E+03  0.00000000000E+00 0.  1.
<mgrwt>
<rscale>  4 0.21090501E+03</rscale>
<asrwt>0</asrwt>
<pdfrwt beam="1">  1       21 0.25787400E-01 0.21090501E+03</pdfrwt>
<pdfrwt beam="2">  1       21 0.19405361E+00 0.21090501E+03</pdfrwt>
<totfact> 0.20564765E+03</totfact>
</mgrwt>
</event>
<event>
 5    0  0.1972558E-002  0.2786889E+03  0.7546771E-02  0.1096407E+00
         21   -1    0    0  501  502  0.00000000000E+00  0.00000000000E+00  0.39886351279E+03  0.39886351279E+03  0.00000000000E+00 0. -1.
         21   -1    0    0  502  503 -0.00000000000E+00 -0.00000000000E+00 -0.68890334672E+03  0.68890334672E+03  0.00000000000E+00 0.  1.
         25    1    1    2    0    0 -0.52736108606E+02 -0.24475670945E+03 -0.59767160534E+03  0.65994188517E+03  0.12500000000E+03 0.  0.
          4    1    1    2  501    0  0.66583212717E+02  0.23012980865E+03  0.18271184310E+03  0.30129167041E+03  0.00000000000E+00 0. -1.
         -4    1    1    2    0  503 -0.13847104111E+02  0.14626900798E+02  0.12491992830E+03  0.12653330394E+03  0.00000000000E+00 0.  1.
<mgrwt>
<rscale>  4 0.27868892E+03</rscale>
<asrwt>0</asrwt>
<pdfrwt beam="1">  1       21 0.61363617E-01 0.27868892E+03</pdfrwt>
<pdfrwt beam="2">  1       21 0.10598513E+00 0.27868892E+03</pdfrwt>
<totfact> 0.16476322E+03</totfact>
</mgrwt>
</event>
<event>
 5    0  0.1972558E-002  0.1964250E+03  0.7546771E-02  0.1152791E+00
         21   -1    0    0  501  502  0.00000000000E+00  0.00000000000E+00  0.22486600981E+03  0.22486600981E+03  0.00000000000E+00 0. -1.
         21   -1    0    0  502  503 -0.00000000000E+00 -0.00000000000E+00 -0.65643165966E+03  0.65643165966E+03  0.00000000000E+00 0.  1.
         25    1    1    2    0    0  0.16001629643E+03  0.12642455236E+03 -0.42808403632E+03  0.49037671714E+03  0.12500000000E+03 0.  0.
          3    1    1    2  501    0 -0.76396049455E+02 -0.40777851315E+02  0.16376605877E+03  0.18525256148E+03  0.00000000000E+00 0. -1.
         -3    1    1    2    0  503 -0.83620246975E+02 -0.85646701044E+02 -0.16724767230E+03  0.20566839085E+03  0.00000000000E+00 0.  1.
<mgrwt>
<rscale>  4 0.19642504E+03</rscale>
<asrwt>0</asrwt>
<pdfrwt beam="1">  1       21 0.34594770E-01 0.19642504E+03</pdfrwt>
<pdfrwt beam="2">  1       21 0.10098949E+00 0.19642504E+03</pdfrwt>
<totfact> 0.64398879E+03</totfact>
</mgrwt>
</event>
<event>
 5    0  0.1972558E-002  0.2490804E+03  0.7546771E-02  0.1113887E+00
         21   -1    0    0  501  502  0.00000000000E+00  0.00000000000E+00  0.27740630423E+03  0.27740630423E+03  0.00000000000E+00 0. -1.
         21   -1    0    0  502  503 -0.00000000000E+00 -0.00000000000E+00 -0.27896068240E+03  0.27896068240E+03  0.00000000000E+00 0. -1.
         25    1    1    2    0    0  0.13207872531E+03  0.18105293749E+03 -0.12394708860E+03  0.28497865995E+03  0.12500000000E+03 0.  0.
          2    1    1    2  501    0 -0.11963660171E+03 -0.16082623703E+03  0.67375724500E+02  0.21146508752E+03  0.00000000000E+00 0. -1.
         -2    1    1    2    0  503 -0.12442123598E+02 -0.20226700460E+02  0.55016985927E+02  0.59923239162E+02  0.00000000000E+00 0.  1.
<mgrwt>
<rscale>  4 0.24908036E+03</rscale>
<asrwt>0</asrwt>
<pdfrwt beam="1">  1       21 0.42677893E-01 0.24908036E+03</pdfrwt>
<pdfrwt beam="2">  1       21 0.42917028E-01 0.24908036E+03</pdfrwt>
<totfact> 0.26787968E+04</totfact>
</mgrwt>
</event>
<event>
 5    0  0.1972558E-002  0.2630487E+03  0.7546771E-02  0.1105325E+00
         21   -1    0    0  501  502  0.00000000000E+00  0.00000000000E+00  0.35167453412E+03  0.35167453412E+03  0.00000000000E+00 0.  1.
         21   -1    0    0  502  503 -0.00000000000E+00 -0.00000000000E+00 -0.95620355193E+03  0.95620355193E+03  0.00000000000E+00 0.  1.
         25    1    1    2    0    0 -0.19831565351E+03 -0.12645669439E+03 -0.82923406026E+03  0.87096183652E+03  0.12500000000E+03 0.  0.
          3    1    1    2  501    0  0.16496682128E+03  0.13508464594E+03  0.37075235514E+01  0.21325022725E+03  0.00000000000E+00 0. -1.
         -3    1    1    2    0  503  0.33348832224E+02 -0.86279515466E+01  0.22099751890E+03  0.22366602227E+03  0.00000000000E+00 0.  1.
<mgrwt>
<rscale>  4 0.26304871E+03</rscale>
<asrwt>0</asrwt>
<pdfrwt beam="1">  1       21 0.54103774E-01 0.26304871E+03</pdfrwt>
<pdfrwt beam="2">  1       21 0.14710824E+00 0.26304871E+03</pdfrwt>
<totfact> 0.95291825E+02</totfact>
</mgrwt>
</event>
<event>
 5    0  0.1972558E-002  0.2361515E+03  0.7546771E-02  0.1122383E+00
         21   -1    0    0  501  502  0.00000000000E+00  0.00000000000E+00  0.25894839951E+03  0.25894839951E+03  0.00000000000E+00 0. -1.
         21   -1    0    0  502  503 -0.00000000000E+00 -0.00000000000E+00 -0.33489453661E+03  0.33489453661E+03  0.00000000000E+00 0.  1.
         25    1    1    2    0    0  0.19160215851E+03 -0.11819002628E+03 -0.92078704244E+02  0.27346619029E+03  0.12500000000E+03 0.  0.
          2    1    1    2  501    0 -0.11878015522E+03  0.15516717465E+03  0.85427695932E+02  0.21326853635E+03  0.00000000000E+00 0. -1.
         -2    1    1    2    0  503 -0.72822003291E+02 -0.36977148371E+02 -0.69295128788E+02  0.10710820948E+03  0.00000000000E+00 0.  1.
<mgrwt>
<rscale>  4 0.23615154E+03</rscale>
<asrwt>0</asrwt>
<pdfrwt beam="1">  1       21 0.39838216E-01 0.23615154E+03</pdfrwt>
<pdfrwt beam="2">  1       21 0.51522236E-01 0.23615154E+03</pdfrwt>
<totfact> 0.21216068E+04</totfact>
</mgrwt>
</event>
<event>
 5    0  0.1972558E-002  0.2296032E+03  0.7546771E-02  0.1126919E+00
         21   -1    0    0  501  502  0.00000000000E+00  0.00000000000E+00  0.14890427094E+04  0.14890427094E+04  0.00000000000E+00 0. -1.
         21   -1    0    0  502  503 -0.00000000000E+00 -0.00000000000E+00 -0.21170618578E+03  0.21170618578E+03  0.00000000000E+00 0. -1.
         25    1    1    2    0    0 -0.14082499601E+03  0.14318057517E+03 -0.13256720854E+03  0.27116677781E+03  0.12500000000E+03 0.  0.
          1    1    1    2  501    0  0.27584700153E+02 -0.11663458168E+03  0.74631723307E+03  0.75587958943E+03  0.00000000000E+00 0. -1.
         -1    1    1    2    0  503  0.11324029586E+03 -0.26545993490E+02  0.66358649905E+03  0.67370252790E+03  0.00000000000E+00 0.  1.
<mgrwt>
<rscale>  4 0.22960320E+03</rscale>
<asrwt>0</asrwt>
<pdfrwt beam="1">  1       21 0.22908349E+00 0.22960320E+03</pdfrwt>
<pdfrwt beam="2">  1       21 0.32570183E-01 0.22960320E+03</pdfrwt>
<totfact> 0.77051617E+02</totfact>
</mgrwt>
</event>
<event>
 5    0  0.1972558E-002  0.2747510E+03  0.7546771E-02  0.1098591E+00
         21   -1    0    0  501  502  0.00000000000E+00  0.00000000000E+00  0.12294340159E+04  0.12294340159E+04  0.00000000000E+00 0. -1.
         21   -1    0    0  502  503 -0.00000000000E+00 -0.00000000000E+00 -0.40094007697E+03  0.40094007697E+03  0.00000000000E+00 0. -1.
         25    1    1    2    0    0 -0.10924799129E+03  0.21802749160E+03 -0.33035340778E+03  0.42921962295E+03  0.12500000000E+03 0.  0.
          4    1    1    2  501    0 -0.47253142564E+02 -0.65405158821E+01  0.27019691993E+03  0.27437567926E+03  0.00000000000E+00 0.  1.
         -4    1    1    2    0  503  0.15650113386E+03 -0.21148697571E+03  0.88865042680E+03  0.92677879067E+03  0.00000000000E+00 0. -1.
<mgrwt>
<rscale>  4 0.27475100E+03</rscale>
<asrwt>0</asrwt>
<pdfrwt beam="1">  1       21 0.18914369E+00 0.27475100E+03</pdfrwt>
<pdfrwt beam="2">  1       21 0.61683089E-01 0.27475100E+03</pdfrwt>
<totfact> 0.35411094E+02</totfact>
</mgrwt>
</event>
<event>
 5    0  0.1972558E-002  0.2342680E+03  0.7546771E-02  0.1123671E+00
         21   -1    0    0  501  502  0.00000000000E+00  0.00000000000E+00  0.31539354771E+03  0.31539354771E+03  0.00000000000E+00 0. -1.
         21   -1    0    0  502  503 -0.00000000000E+00 -0.00000000000E+00 -0.35664152812E+03  0.35664152812E+03  0.00000000000E+00 0. -1.
         25    1    1    2    0    0  0.70567986032E+02 -0.20551719070E+03 -0.20345335167E+03  0.32285511090E+03  0.12500000000E+03 0.  0.
          3    1    1    2  501    0 -0.11218976260E+03  0.13541555862E+03  0.95410691498E+01  0.17611061396E+03  0.00000000000E+00 0.  1.
         -3    1    1    2    0  503  0.41621776573E+02  0.70101632083E+02  0.15266430211E+03  0.17306935097E+03  0.00000000000E+00 0. -1.
<mgrwt>
<rscale>  4 0.23426800E+03</rscale>
<asrwt>0</asrwt>
<pdfrwt beam="1">  1       21 0.48522084E-01 0.23426800E+03</pdfrwt>
<pdfrwt beam="2">  1       21 0.54867927E-01 0.23426800E+03</pdfrwt>
<totfact> 0.12391178E+04</totfact>
</mgrwt>
</event>
<event>
 5    0  0.1972558E-002  0.2483623E+03  0.7546771E-02  0.1114344E+00
         21   -1    0    0  501  502  0.00000000000E+00  0.00000000000E+00  0.14212592751E+03  0.14212592751E+03  0.00000000000E+00 0. -1.
         21   -1    0    0  502  503 -0.00000000000E+00 -0.00000000000E+00 -0.13930445123E+04  0.13930445123E+04  0.00000000000E+00 0.  1.
         25    1    1    2    0    0 -0.13935352363E+03 -0.16592111581E+03 -0.12507673383E+04  0.12755364188E+04  0.12500000000E+03 0.  0.
          2    1    1    2  501    0  0.35225739254E+02 -0.82303360536E+01  0.38772348441E+02  0.53027220756E+02  0.00000000000E+00 0.  1.
         -2    1    1    2    0  503  0.10412778437E+03  0.17415145186E+03 -0.38923594957E+02  0.20660680025E+03  0.00000000000E+00 0. -1.
<mgrwt>
<rscale>  4 0.24836233E+03</rscale>
<asrwt>0</asrwt>
<pdfrwt beam="1">  1       21 0.21865528E-01 0.24836233E+03</pdfrwt>
<pdfrwt beam="2">  1       21 0.21431453E+00 0.24836233E+03</pdfrwt>
<totfact> 0.20196911E+03</totfact>
</mgrwt>
</event>
<event>
 5    0  0.1972558E-002  0.2616122E+03  0.7546771E-02  0.1106178E+00
         21   -1    0    0  501  502  0.00000000000E+00  0.00000000000E+00  0.10107742787E+04  0.10107742787E+04  0.00000000000E+00 0. -1.
         21   -1    0    0  502  503 -0.00000000000E+00 -0.00000000000E+00 -0.44987855843E+03  0.44987855843E+03  0.00000000000E+00 0.  1.
         25    1    1    2    0    0 -0.19754702339E+03  0.10609077827E+03 -0.28482747860E+03  0.38344722225E+03  0.12500000000E+03 0.  0.
          4    1    1    2  501    0  0.21346021589E+03 -0.11918333072E+03  0.13631330725E+02  0.24485861894E+03  0.00000000000E+00 0.  1.
         -4    1    1    2    0  503 -0.15913192507E+02  0.13092552448E+02  0.83209186816E+03  0.83234699596E+03  0.00000000000E+00 0. -1.
<mgrwt>
<rscale>  4 0.26161216E+03</rscale>
<asrwt>0</asrwt>
<pdfrwt beam="1">  1       21 0.15550373E+00 0.26161216E+03</pdfrwt>
<pdfrwt beam="2">  1       21 0.69212086E-01 0.26161216E+03</pdfrwt>
<totfact> 0.48189127E+02</totfact>
</mgrwt>
</event>
<event>
 5    0  0.1972558E-002  0.3887219E+03  0.7546771E-02  0.1047756E+00
         21   -1    0    0  501  502  0.00000000000E+00  0.00000000000E+00  0.23520117938E+03  0.23520117938E+03  0.00000000000E+00 0. -1.
         21   -1    0    0  502  503 -0.00000000000E+00 -0.00000000000E+00 -0.10008432145E+04  0.10008432145E+04  0.00000000000E+00 0.  1.
         25    1    1    2    0    0  0.21006039034E+03 -0.31998560280E+03 -0.70926602998E+03  0.81559760598E+03  0.12500000000E+03 0.  0.
          3    1    1    2  501    0 -0.20398881831E+03  0.26501895644E+03 -0.10103708967E+03  0.34936367693E+03  0.00000000000E+00 0. -1.
         -3    1    1    2    0  503 -0.60715720275E+01  0.54966646363E+02  0.44661084510E+02  0.71083110996E+02  0.00000000000E+00 0.  1.
<mgrwt>
<rscale>  4 0.38872188E+03</rscale>
<asrwt>0</asrwt>
<pdfrwt beam="1">  1       21 0.36184797E-01 0.38872188E+03</pdfrwt>
<pdfrwt beam="2">  1       21 0.15397588E+00 0.38872188E+03</pdfrwt>
<totfact> 0.18006054E+03</totfact>
</mgrwt>
</event>
<event>
 5    0  0.1972558E-002  0.2679232E+03  0.7546771E-02  0.1102474E+00
         21   -1    0    0  501  502  0.00000000000E+00  0.00000000000E+00  0.25045511943E+03  0.25045511943E+03  0.00000000000E+00 0. -1.
         21   -1    0    0  502  503 -0.00000000000E+00 -0.00000000000E+00 -0.80628794220E+03  0.80628794220E+03  0.00000000000E+00 0.  1.
         25    1    1    2    0    0  0.23707872454E+03  0.34184660487E+02 -0.70728171284E+03  0.75713098864E+03  0.12500000000E+03 0.  0.
          1    1    1    2  501    0 -0.18429742292E+02 -0.10562859574E+02  0.55957817390E+02  0.59854045230E+02  0.00000000000E+00 0.  1.
         -1    1    1    2    0  503 -0.21864898225E+03 -0.23621800912E+02  0.95491072673E+02  0.23975802776E+03  0.00000000000E+00 0. -1.
<mgrwt>
<rscale>  4 0.26792316E+03</rscale>
<asrwt>0</asrwt>
<pdfrwt beam="1">  1       21 0.38531556E-01 0.26792316E+03</pdfrwt>
<pdfrwt beam="2">  1       21 0.12404430E+00 0.26792316E+03</pdfrwt>
<totfact> 0.29833945E+03</totfact>
</mgrwt>
</event>
<event>
 5    0  0.1972558E-002  0.2447114E+03  0.7546771E-02  0.1116693E+00
         21   -1    0    0  501  502  0.00000000000E+00  0.00000000000E+00  0.24203802100E+03  0.24203802100E+03  0.00000000000E+00 0. -1.
         21   -1    0    0  502  503 -0.00000000000E+00 -0.00000000000E+00 -0.78361546846E+03  0.78361546846E+03  0.00000000000E+00 0.  1.
         25    1    1    2    0    0 -0.14127630705E+03 -0.18111816945E+03 -0.59390349441E+03  0.64892923105E+03  0.12500000000E+03 0.  0.
          2    1    1    2  501    0  0.93536995837E+02  0.14946144525E+03 -0.10780000065E+03  0.20666091393E+03  0.00000000000E+00 0. -1.
         -2    1    1    2    0  503  0.47739311215E+02  0.31656724201E+02  0.16012604758E+03  0.17006334448E+03  0.00000000000E+00 0.  1.
<mgrwt>
<rscale>  4 0.24471144E+03</rscale>
<asrwt>0</asrwt>
<pdfrwt beam="1">  1       21 0.37236620E-01 0.24471144E+03</pdfrwt>
<pdfrwt beam="2">  1       21 0.12055622E+00 0.24471144E+03</pdfrwt>
<totfact> 0.34875512E+03</totfact>
</mgrwt>
</event>
<event>
 5    0  0.1972558E-002  0.3544599E+03  0.7546771E-02  0.1060799E+00
         21   -1    0    0  501  502  0.00000000000E+00  0.00000000000E+00  0.96891185989E+03  0.96891185989E+03  0.00000000000E+00 0. -1.
         21   -1    0    0  502  503 -0.00000000000E+00 -0.00000000000E+00 -0.16028682273E+03  0.16028682273E+03  0.00000000000E+00 0.  1.
         25    1    1    2    0    0  0.23999883075E+03 -0.24262605211E+03  0.26526474151E+03  0.44995246751E+03  0.12500000000E+03 0.  0.
          2    1    1    2  501    0 -0.71382385233E+01  0.20967786075E+02  0.22742365871E+03  0.22849972219E+03  0.00000000000E+00 0. -1.
         -2    1    1    2    0  503 -0.23286059223E+03  0.22165826604E+03  0.31593663695E+03  0.45074649292E+03  0.00000000000E+00 0.  1.
<mgrwt>
<rscale>  4 0.35445987E+03</rscale>
<asrwt>0</asrwt>
<pdfrwt beam="1">  1       21 0.14906336E+00 0.35445987E+03</pdfrwt>
<pdfrwt beam="2">  1       21 0.24659512E-01 0.35445987E+03</pdfrwt>
<totfact> 0.42653429E+03</totfact>
</mgrwt>
</event>
<event>
 5    0  0.1972558E-002  0.2187450E+03  0.7546771E-02  0.1134822E+00
         21   -1    0    0  501  502  0.00000000000E+00  0.00000000000E+00  0.14853146939E+04  0.14853146939E+04  0.00000000000E+00 0. -1.
         21   -1    0    0  502  503 -0.00000000000E+00 -0.00000000000E+00 -0.58545571335E+02  0.58545571335E+02  0.00000000000E+00 0.  1.
         25    1    1    2    0    0 -0.15111790487E+03  0.14013414364E+03  0.29415957151E+03  0.38030126597E+03  0.12500000000E+03 0.  0.
          1    1    1    2  501    0  0.31966635372E+02 -0.13333872365E+03  0.76103850428E+03  0.77329210910E+03  0.00000000000E+00 0.  1.
         -1    1    1    2    0  503  0.11915126950E+03 -0.67954199928E+01  0.37157104676E+03  0.39026689015E+03  0.00000000000E+00 0. -1.
<mgrwt>
<rscale>  4 0.21874502E+03</rscale>
<asrwt>0</asrwt>
<pdfrwt beam="1">  1       21 0.22850992E+00 0.21874502E+03</pdfrwt>
<pdfrwt beam="2">  1       21 0.90070121E-02 0.21874502E+03</pdfrwt>
<totfact> 0.85110104E+03</totfact>
</mgrwt>
</event>
<event>
 5    0  0.1972558E-002  0.2851394E+03  0.7546771E-02  0.1092915E+00
         21   -1    0    0  501  502  0.00000000000E+00  0.00000000000E+00  0.20600868660E+03  0.20600868660E+03  0.00000000000E+00 0.  1.
         21   -1    0    0  502  503 -0.00000000000E+00 -0.00000000000E+00 -0.13722997231E+04  0.13722997231E+04  0.00000000000E+00 0.  1.
         25    1    1    2    0    0 -0.25222802693E+03  0.69984693787E+02 -0.10775332725E+04  0.11158941654E+04  0.12500000000E+03 0.  0.
          2    1    1    2  501    0  0.22749976312E+03 -0.81212912691E+02 -0.22100556395E+03  0.32740668701E+03  0.00000000000E+00 0. -1.
         -2    1    1    2    0  503  0.24728263812E+02  0.11228218904E+02  0.13224779998E+03  0.13500755731E+03  0.00000000000E+00 0.  1.
<mgrwt>
<rscale>  4 0.28513942E+03</rscale>
<asrwt>0</asrwt>
<pdfrwt beam="1">  1       21 0.31693644E-01 0.28513942E+03</pdfrwt>
<pdfrwt beam="2">  1       21 0.21112304E+00 0.28513942E+03</pdfrwt>
<totfact> 0.10012688E+03</totfact>
</mgrwt>
</event>
<event>
 5    0  0.1972558E-002  0.2638005E+03  0.7546771E-02  0.1104881E+00
         21   -1    0    0  501  502  0.00000000000E+00  0.00000000000E+00  0.15269640431E+04  0.15269640431E+04  0.00000000000E+00 0. -1.
         21   -1    0    0  502  503 -0.00000000000E+00 -0.00000000000E+00 -0.13321681473E+03  0.13321681473E+03  0.00000000000E+00 0. -1.
         25    1    1    2    0    0 -0.23186201883E+03  0.24877470846E+02  0.25226111962E+02  0.26578231893E+03  0.12500000000E+03 0.  0.
          3    1    1    2  501    0  0.22729118651E+03  0.22325011844E+01  0.10309761445E+04  0.10557357994E+04  0.00000000000E+00 0. -1.
         -3    1    1    2    0  503  0.45708323161E+01 -0.27109972031E+02  0.33754497187E+03  0.33866273950E+03  0.00000000000E+00 0.  1.
<mgrwt>
<rscale>  4 0.26380050E+03</rscale>
<asrwt>0</asrwt>
<pdfrwt beam="1">  1       21 0.23491753E+00 0.26380050E+03</pdfrwt>
<pdfrwt beam="2">  1       21 0.20494896E-01 0.26380050E+03</pdfrwt>
<totfact> 0.16807312E+03</totfact>
</mgrwt>
</event>
<event>
 5    0  0.1972558E-002  0.2910222E+03  0.7546771E-02  0.1089817E+00
         21   -1    0    0  501  502  0.00000000000E+00  0.00000000000E+00  0.21415458551E+03  0.21415458551E+03  0.00000000000E+00 0. -1.
         21   -1    0    0  502  503 -0.00000000000E+00 -0.00000000000E+00 -0.56332350159E+03  0.56332350159E+03  0.00000000000E+00 0.  1.
         25    1    1    2    0    0  0.10429631026E+03 -0.23485633447E+03 -0.21230807153E+03  0.35599850479E+03  0.12500000000E+03 0.  0.
          1    1    1    2  501    0 -0.12663565955E+03  0.23666653515E+03 -0.21265143055E+03  0.34244455032E+03  0.00000000000E+00 0.  1.
         -1    1    1    2    0  503  0.22339349293E+02 -0.18102006783E+01  0.75790586008E+02  0.79035031985E+02  0.00000000000E+00 0. -1.
<mgrwt>
<rscale>  4 0.29102222E+03</rscale>
<asrwt>0</asrwt>
<pdfrwt beam="1">  1       21 0.32946860E-01 0.29102222E+03</pdfrwt>
<pdfrwt beam="2">  1       21 0.86665154E-01 0.29102222E+03</pdfrwt>
<totfact> 0.95977338E+03</totfact>
</mgrwt>
</event>
<event>
 5    0  0.1972558E-002  0.2484288E+03  0.7546771E-02  0.1114302E+00
         21   -1    0    0  501  502  0.00000000000E+00  0.00000000000E+00  0.10860505333E+03  0.10860505333E+03  0.00000000000E+00 0.  1.
         21   -1    0    0  502  503 -0.00000000000E+00 -0.00000000000E+00 -0.19782350380E+04  0.19782350380E+04  0.00000000000E+00 0.  1.
         25    1    1    2    0    0  0.15084515225E+03 -0.19145489805E+03 -0.13588705290E+04  0.13862046575E+04  0.12500000000E+03 0.  0.
          1    1    1    2  501    0 -0.10686497500E+03  0.15029915959E+03 -0.58014590481E+03  0.60875219188E+03  0.00000000000E+00 0. -1.
         -1    1    1    2    0  503 -0.43980177253E+02  0.41155738463E+02  0.69386449216E+02  0.91883241859E+02  0.00000000000E+00 0.  1.
<mgrwt>
<rscale>  4 0.24842879E+03</rscale>
<asrwt>0</asrwt>
<pdfrwt beam="1">  1       21 0.16708470E-01 0.24842879E+03</pdfrwt>
<pdfrwt beam="2">  1       21 0.30434385E+00 0.24842879E+03</pdfrwt>
<totfact> 0.97041102E+02</totfact>
</mgrwt>
</event>
<event>
 5    0  0.1972558E-002  0.4643787E+03  0.7546771E-02  0.1023519E+00
         21   -1    0    0  501  502  0.00000000000E+00  0.00000000000E+00  0.10186357664E+04  0.10186357664E+04  0.00000000000E+00 0.  1.
         21   -1    0    0  502  503 -0.00000000000E+00 -0.00000000000E+00 -0.53641998530E+03  0.53641998530E+03  0.00000000000E+00 0.  1.
         25    1    1    2    0    0 -0.25820064543E+02  0.45016842276E+03 -0.35478656441E+03  0.58721102754E+03  0.12500000000E+03 0.  0.
          4    1    1    2  501    0 -0.45597261158E+01 -0.42551622882E+03  0.65080086997E+03  0.77757740736E+03  0.00000000000E+00 0.  1.
         -4    1    1    2    0  503  0.30379790658E+02 -0.24652193939E+02  0.18620147551E+03  0.19026731677E+03  0.00000000000E+00 0. -1.
<mgrwt>
<rscale>  4 0.46437867E+03</rscale>
<asrwt>0</asrwt>
<pdfrwt beam="1">  1       21 0.15671320E+00 0.46437867E+03</pdfrwt>
<pdfrwt beam="2">  1       21 0.82526151E-01 0.46437867E+03</pdfrwt>
<totfact> 0.27835944E+02</totfact>
</mgrwt>
</event>
<event>
 5    0  0.1972558E-002  0.3806788E+03  0.7546771E-02  0.1050683E+00
         21   -1    0    0  501  502  0.00000000000E+00  0.00000000000E+00  0.76024637630E+03  0.76024637630E+03  0.00000000000E+00 0. -1.
         21   -1    0    0  502  503 -0.00000000000E+00 -0.00000000000E+00 -0.30352778609E+03  0.30352778609E+03  0.00000000000E+00 0. -1.
         25    1    1    2    0    0 -0.17591311486E+02  0.36285301828E+03 -0.47740381591E+02  0.38713810346E+03  0.12500000000E+03 0.  0.
          4    1    1    2  501    0  0.77155942869E+02 -0.11311312070E+02  0.17322599503E+03  0.18996902551E+03  0.00000000000E+00 0.  1.
         -4    1    1    2    0  503 -0.59564631383E+02 -0.35154170621E+03  0.33123297677E+03  0.48666703342E+03  0.00000000000E+00 0. -1.
<mgrwt>
<rscale>  4 0.38067879E+03</rscale>
<asrwt>0</asrwt>
<pdfrwt beam="1">  1       21 0.11696098E+00 0.38067879E+03</pdfrwt>
<pdfrwt beam="2">  1       21 0.46696583E-01 0.38067879E+03</pdfrwt>
<totfact> 0.21912377E+03</totfact>
</mgrwt>
</event>
<event>
 5    0  0.1972558E-002  0.2686328E+03  0.7546771E-02  0.1102065E+00
         21   -1    0    0  501  502  0.00000000000E+00  0.00000000000E+00  0.16638663583E+04  0.16638663583E+04  0.00000000000E+00 0.  1.
         21   -1    0    0  502  503 -0.00000000000E+00 -0.00000000000E+00 -0.45415549471E+03  0.45415549471E+03  0.00000000000E+00 0. -1.
         25    1    1    2    0    0 -0.10537675439E+03  0.23747574526E+03 -0.34046722877E+03  0.44614114786E+03  0.12500000000E+03 0.  0.
          1    1    1    2  501    0 -0.53132138907E+02 -0.12720982822E+03  0.14458521419E+04  0.14524096464E+04  0.00000000000E+00 0.  1.
         -1    1    1    2    0  503  0.15850889329E+03 -0.11026591705E+03  0.10432595047E+03  0.21947105881E+03  0.00000000000E+00 0. -1.
<mgrwt>
<rscale>  4 0.26863281E+03</rscale>
<asrwt>0</asrwt>
<pdfrwt beam="1">  1       21 0.25597944E+00 0.26863281E+03</pdfrwt>
<pdfrwt beam="2">  1       21 0.69870077E-01 0.26863281E+03</pdfrwt>
<totfact> 0.10338776E+02</totfact>
</mgrwt>
</event>
<event>
 5    0  0.1972558E-002  0.2419452E+03  0.7546771E-02  0.1118504E+00
         21   -1    0    0  501  502  0.00000000000E+00  0.00000000000E+00  0.87613968395E+03  0.87613968395E+03  0.00000000000E+00 0. -1.
         21   -1    0    0  502  503 -0.00000000000E+00 -0.00000000000E+00 -0.21492958384E+03  0.21492958384E+03  0.00000000000E+00 0.  1.
         25    1    1    2    0    0  0.17628645823E+03  0.11967269759E+03 -0.28081179539E+02  0.24862023761E+03  0.12500000000E+03 0.  0.
          1    1    1    2  501    0 -0.22292195556E+02  0.89381918162E+01  0.63383448470E+03  0.63428935609E+03  0.00000000000E+00 0. -1.
         -1    1    1    2    0  503 -0.15399426268E+03 -0.12861088941E+03  0.55456794939E+02  0.20815967409E+03  0.00000000000E+00 0.  1.
<mgrwt>
<rscale>  4 0.24194521E+03</rscale>
<asrwt>0</asrwt>
<pdfrwt beam="1">  1       21 0.13479072E+00 0.24194521E+03</pdfrwt>
<pdfrwt beam="2">  1       21 0.33066090E-01 0.24194521E+03</pdfrwt>
<totfact> 0.33387809E+03</totfact>
</mgrwt>
</event>
<event>
 5    0  0.1972558E-002  0.7233703E+03  0.7546771E-02  0.9678080E-01
         21   -1    0    0  501  502  0.00000000000E+00  0.00000000000E+00  0.82035896451E+03  0.82035896451E+03  0.00000000000E+00 0.  1.
         21   -1    0    0  502  503 -0.00000000000E+00 -0.00000000000E+00 -0.14138557010E+04  0.14138557010E+04  0.00000000000E+00 0. -1.
         25    1    1    2    0    0 -0.18078927361E+03  0.69375951443E+03 -0.10159064285E+04  0.12496711154E+04  0.12500000000E+03 0.  0.
          4    1    1    2  501    0 -0.91072724655E+01 -0.23958965090E+02  0.27082208011E+03  0.27203230230E+03  0.00000000000E+00 0. -1.
         -4    1    1    2    0  503  0.18989654607E+03 -0.66980054934E+03  0.15158761191E+03  0.71251124776E+03  0.00000000000E+00 0.  1.
<mgrwt>
<rscale>  4 0.72337026E+03</rscale>
<asrwt>0</asrwt>
<pdfrwt beam="1">  1       21 0.12620907E+00 0.72337026E+03</pdfrwt>
<pdfrwt beam="2">  1       21 0.21751626E+00 0.72337026E+03</pdfrwt>
<totfact> 0.32812611E+01</totfact>
</mgrwt>
</event>
<event>
 5    0  0.1972558E-002  0.2434748E+03  0.7546771E-02  0.1117499E+00
         21   -1    0    0  501  502  0.00000000000E+00  0.00000000000E+00  0.20762313957E+04  0.20762313957E+04  0.00000000000E+00 0. -1.
         21   -1    0    0  502  503 -0.00000000000E+00 -0.00000000000E+00 -0.29083832850E+03  0.29083832850E+03  0.00000000000E+00 0.  1.
         25    1    1    2    0    0  0.18910271777E+03 -0.90537405445E+02 -0.22743512244E+03  0.33362942701E+03  0.12500000000E+03 0.  0.
          1    1    1    2  501    0 -0.19076231614E+03  0.54119955868E+02  0.97435134837E+03  0.99432378074E+03  0.00000000000E+00 0.  1.
         -1    1    1    2    0  503  0.16595983678E+01  0.36417449577E+02  0.10384768413E+04  0.10391165165E+04  0.00000000000E+00 0. -1.
<mgrwt>
<rscale>  4 0.24347477E+03</rscale>
<asrwt>0</asrwt>
<pdfrwt beam="1">  1       21 0.31942021E+00 0.24347477E+03</pdfrwt>
<pdfrwt beam="2">  1       21 0.44744360E-01 0.24347477E+03</pdfrwt>
<totfact> 0.11729255E+02</totfact>
</mgrwt>
</event>
<event>
 5    0  0.1972558E-002  0.3244742E+03  0.7546771E-02  0.1073608E+00
         21   -1    0    0  501  502  0.00000000000E+00  0.00000000000E+00  0.81666749730E+03  0.81666749730E+03  0.00000000000E+00 0. -1.
         21   -1    0    0  502  503 -0.00000000000E+00 -0.00000000000E+00 -0.14301787344E+04  0.14301787344E+04  0.00000000000E+00 0.  1.
         25    1    1    2    0    0 -0.63377318641E+02  0.29385206790E+03 -0.11985542107E+04  0.12419834613E+04  0.12500000000E+03 0.  0.
          1    1    1    2  501    0  0.11811535655E+03 -0.27395752364E+03 -0.10204950731E+03  0.31530630211E+03  0.00000000000E+00 0.  1.
         -1    1    1    2    0  503 -0.54738037908E+02 -0.19894544263E+02  0.68709248086E+03  0.68955646827E+03  0.00000000000E+00 0. -1.
<mgrwt>
<rscale>  4 0.32447422E+03</rscale>
<asrwt>0</asrwt>
<pdfrwt beam="1">  1       21 0.12564115E+00 0.32447422E+03</pdfrwt>
<pdfrwt beam="2">  1       21 0.22002750E+00 0.32447422E+03</pdfrwt>
<totfact> 0.40334201E+01</totfact>
</mgrwt>
</event>
<event>
 5    0  0.1972558E-002  0.2941934E+03  0.7546771E-02  0.1088180E+00
         21   -1    0    0  501  502  0.00000000000E+00  0.00000000000E+00  0.14360481991E+04  0.14360481991E+04  0.00000000000E+00 0. -1.
         21   -1    0    0  502  503 -0.00000000000E+00 -0.00000000000E+00 -0.12969897116E+03  0.12969897116E+03  0.00000000000E+00 0. -1.
         25    1    1    2    0    0  0.30564892036E+02  0.25524640121E+03  0.11357477329E+03  0.30758603201E+03  0.12500000000E+03 0.  0.
          2    1    1    2  501    0 -0.78441636848E+00 -0.29921865301E+03  0.68351710494E+03  0.74614211137E+03  0.00000000000E+00 0. -1.
         -2    1    1    2    0  503 -0.29780475668E+02  0.43972251791E+02  0.50925734971E+03  0.51201902689E+03  0.00000000000E+00 0.  1.
<mgrwt>
<rscale>  4 0.29419337E+03</rscale>
<asrwt>0</asrwt>
<pdfrwt beam="1">  1       21 0.22093048E+00 0.29419337E+03</pdfrwt>
<pdfrwt beam="2">  1       21 0.19953689E-01 0.29419337E+03</pdfrwt>
<totfact> 0.21068628E+03</totfact>
</mgrwt>
</event>
<event>
 5    0  0.1972558E-002  0.3028222E+03  0.7546771E-02  0.1083838E+00
         21   -1    0    0  501  502  0.00000000000E+00  0.00000000000E+00  0.79617714332E+03  0.79617714332E+03  0.00000000000E+00 0. -1.
         21   -1    0    0  502  503 -0.00000000000E+00 -0.00000000000E+00 -0.31475545587E+03  0.31475545587E+03  0.00000000000E+00 0. -1.
         25    1    1    2    0    0  0.19043652595E+03  0.20509995339E+03 -0.10263298622E+03  0.32325004433E+03  0.12500000000E+03 0.  0.
          3    1    1    2  501    0 -0.17059422924E+03 -0.20873253528E+03  0.77181298799E+02  0.28040794428E+03  0.00000000000E+00 0.  1.
         -3    1    1    2    0  503 -0.19842296714E+02  0.36325818851E+01  0.50687337486E+03  0.50727461058E+03  0.00000000000E+00 0. -1.
<mgrwt>
<rscale>  4 0.30282221E+03</rscale>
<asrwt>0</asrwt>
<pdfrwt beam="1">  1       21 0.12248879E+00 0.30282221E+03</pdfrwt>
<pdfrwt beam="2">  1       21 0.48423917E-01 0.30282221E+03</pdfrwt>
<totfact> 0.18819751E+03</totfact>
</mgrwt>
</event>
<event>
 5    0  0.1972558E-002  0.2593029E+03  0.7546771E-02  0.1107563E+00
         21   -1    0    0  501  502  0.00000000000E+00  0.00000000000E+00  0.15112975925E+03  0.15112975925E+03  0.00000000000E+00 0. -1.
         21   -1    0    0  502  503 -0.00000000000E+00 -0.00000000000E+00 -0.53006677933E+03  0.53006677933E+03  0.00000000000E+00 0. -1.
         25    1    1    2    0    0  0.22012056498E+03 -0.11502051335E+03 -0.14283693086E+03  0.31258626079E+03  0.12500000000E+03 0.  0.
          4    1    1    2  501    0 -0.19503486534E+03  0.95496821001E+02 -0.25233780279E+03  0.33291531691E+03  0.00000000000E+00 0. -1.
         -4    1    1    2    0  503 -0.25085699642E+02  0.19523692353E+02  0.16237713569E+02  0.35694960871E+02  0.00000000000E+00 0.  1.
<mgrwt>
<rscale>  4 0.25930286E+03</rscale>
<asrwt>0</asrwt>
<pdfrwt beam="1">  1       21 0.23250732E-01 0.25930286E+03</pdfrwt>
<pdfrwt beam="2">  1       21 0.81548736E-01 0.25930286E+03</pdfrwt>
<totfact> 0.22100543E+04</totfact>
</mgrwt>
</event>
<event>
 5    0  0.1972558E-002  0.2796722E+03  0.7546771E-02  0.1095868E+00
         21   -1    0    0  501  502  0.00000000000E+00  0.00000000000E+00  0.17312126709E+03  0.17312126709E+03  0.00000000000E+00 0. -1.
         21   -1    0    0  502  503 -0.00000000000E+00 -0.00000000000E+00 -0.82322330271E+03  0.82322330271E+03  0.00000000000E+00 0.  1.
         25    1    1    2    0    0  0.11144769524E+03 -0.23766574912E+03 -0.63024953871E+03  0.69407858210E+03  0.12500000000E+03 0.  0.
          2    1    1    2  501    0 -0.11839151071E+03  0.18575937773E+03 -0.68606047136E+02  0.23071602876E+03  0.00000000000E+00 0.  1.
         -2    1    1    2    0  503  0.69438154605E+01  0.51906371390E+02  0.48753550232E+02  0.71549958939E+02  0.00000000000E+00 0. -1.
<mgrwt>
<rscale>  4 0.27967219E+03</rscale>
<asrwt>0</asrwt>
<pdfrwt beam="1">  1       21 0.26634041E-01 0.27967219E+03</pdfrwt>
<pdfrwt beam="2">  1       21 0.12664974E+00 0.27967219E+03</pdfrwt>
<totfact> 0.58408599E+03</totfact>
</mgrwt>
</event>
<event>
 5    0  0.1972558E-002  0.4281339E+03  0.7546771E-02  0.1034451E+00
         21   -1    0    0  503  502  0.00000000000E+00  0.00000000000E+00  0.17887688252E+04  0.17887688252E+04  0.00000000000E+00 0. -1.
         21   -1    0    0  501  503 -0.00000000000E+00 -0.00000000000E+00 -0.12473130847E+03  0.12473130847E+03  0.00000000000E+00 0. -1.
         25    1    1    2    0    0 -0.40938215674E+03 -0.89361950161E+01  0.42576270538E+03  0.60379838285E+03  0.12500000000E+03 0.  0.
          1    1    1    2  501    0  0.18319241083E+03  0.13715585593E+02  0.74014358213E+03  0.76260087781E+03  0.00000000000E+00 0. -1.
         -1    1    1    2    0  502  0.22618974591E+03 -0.47793905772E+01  0.49813122925E+03  0.54710087304E+03  0.00000000000E+00 0.  1.
<mgrwt>
<rscale>  4 0.42813386E+03</rscale>
<asrwt>0</asrwt>
<pdfrwt beam="1">  1       21 0.27519519E+00 0.42813386E+03</pdfrwt>
<pdfrwt beam="2">  1       21 0.19189433E-01 0.42813386E+03</pdfrwt>
<totfact> 0.97375389E+02</totfact>
</mgrwt>
</event>
<event>
 5    0  0.1972558E-002  0.2486149E+03  0.7546771E-02  0.1114183E+00
         21   -1    0    0  501  502  0.00000000000E+00  0.00000000000E+00  0.59159843356E+03  0.59159843356E+03  0.00000000000E+00 0. -1.
         21   -1    0    0  502  503 -0.00000000000E+00 -0.00000000000E+00 -0.42461821805E+03  0.42461821805E+03  0.00000000000E+00 0. -1.
         25    1    1    2    0    0  0.14294625074E+03 -0.16343613105E+03 -0.35441228759E+03  0.43402542452E+03  0.12500000000E+03 0.  0.
          4    1    1    2  501    0 -0.13151860759E+03  0.14646548425E+03  0.29360756440E+03  0.35348929841E+03  0.00000000000E+00 0. -1.
         -4    1    1    2    0  503 -0.11427643145E+02  0.16970646795E+02  0.22778493871E+03  0.22870192868E+03  0.00000000000E+00 0.  1.
<mgrwt>
<rscale>  4 0.24861494E+03</rscale>
<asrwt>0</asrwt>
<pdfrwt beam="1">  1       21 0.91015145E-01 0.24861494E+03</pdfrwt>
<pdfrwt beam="2">  1       21 0.65325879E-01 0.24861494E+03</pdfrwt>
<totfact> 0.21091504E+03</totfact>
</mgrwt>
</event>
<event>
 5    0  0.1972558E-002  0.2264879E+03  0.7546771E-02  0.1129136E+00
         21   -1    0    0  501  502  0.00000000000E+00  0.00000000000E+00  0.48545723405E+03  0.48545723405E+03  0.00000000000E+00 0. -1.
         21   -1    0    0  502  503 -0.00000000000E+00 -0.00000000000E+00 -0.47747031868E+03  0.47747031868E+03  0.00000000000E+00 0.  1.
         25    1    1    2    0    0  0.12257679654E+03  0.16941478289E+03 -0.32720390080E+03  0.40793851548E+03  0.12500000000E+03 0.  0.
          4    1    1    2  501    0 -0.59205441085E+02 -0.21235652997E+02  0.38201877712E+03  0.38716221831E+03  0.00000000000E+00 0. -1.
         -4    1    1    2    0  503 -0.63371355458E+02 -0.14817912989E+03 -0.46827960948E+02  0.16782681894E+03  0.00000000000E+00 0.  1.
<mgrwt>
<rscale>  4 0.22648790E+03</rscale>
<asrwt>0</asrwt>
<pdfrwt beam="1">  1       21 0.74685729E-01 0.22648790E+03</pdfrwt>
<pdfrwt beam="2">  1       21 0.73456972E-01 0.22648790E+03</pdfrwt>
<totfact> 0.25991995E+03</totfact>
</mgrwt>
</event>
<event>
 5    0  0.1972558E-002  0.2366478E+03  0.7546771E-02  0.1122046E+00
         21   -1    0    0  501  502  0.00000000000E+00  0.00000000000E+00  0.18526145900E+03  0.18526145900E+03  0.00000000000E+00 0. -1.
         21   -1    0    0  502  503 -0.00000000000E+00 -0.00000000000E+00 -0.62031144638E+03  0.62031144638E+03  0.00000000000E+00 0. -1.
         25    1    1    2    0    0  0.19799379053E+03 -0.40661290319E+02 -0.51327492234E+03  0.56562445803E+03  0.12500000000E+03 0.  0.
          1    1    1    2  501    0 -0.19617810520E+03  0.10486595365E+02  0.70742595836E+02  0.20880692639E+03  0.00000000000E+00 0. -1.
         -1    1    1    2    0  503 -0.18156853208E+01  0.30174694954E+02  0.74823391286E+01  0.31141520958E+02  0.00000000000E+00 0.  1.
<mgrwt>
<rscale>  4 0.23664777E+03</rscale>
<asrwt>0</asrwt>
<pdfrwt beam="1">  1       21 0.28501763E-01 0.23664777E+03</pdfrwt>
<pdfrwt beam="2">  1       21 0.95432530E-01 0.23664777E+03</pdfrwt>
<totfact> 0.10485149E+04</totfact>
</mgrwt>
</event>
<event>
 5    0  0.1972558E-002  0.2174034E+03  0.7546771E-02  0.1135834E+00
         21   -1    0    0  501  502  0.00000000000E+00  0.00000000000E+00  0.15638450918E+03  0.15638450918E+03  0.00000000000E+00 0.  1.
         21   -1    0    0  502  503 -0.00000000000E+00 -0.00000000000E+00 -0.10722937094E+04  0.10722937094E+04  0.00000000000E+00 0. -1.
         25    1    1    2    0    0  0.20582130154E+03  0.10264189580E+02 -0.68811286330E+03  0.72910361019E+03  0.12500000000E+03 0.  0.
          4    1    1    2  501    0 -0.14966166553E+03 -0.46155240300E+02 -0.33701348770E+03  0.37162751678E+03  0.00000000000E+00 0. -1.
         -4    1    1    2    0  503 -0.56159636012E+02  0.35891050720E+02  0.10921715076E+03  0.12794709164E+03  0.00000000000E+00 0.  1.
<mgrwt>
<rscale>  4 0.21740335E+03</rscale>
<asrwt>0</asrwt>
<pdfrwt beam="1">  1       21 0.24059155E-01 0.21740335E+03</pdfrwt>
<pdfrwt beam="2">  1       21 0.16496826E+00 0.21740335E+03</pdfrwt>
<totfact> 0.36947427E+03</totfact>
</mgrwt>
</event>
<event>
 5    0  0.1972558E-002  0.3226863E+03  0.7546771E-02  0.1074420E+00
         21   -1    0    0  501  502  0.00000000000E+00  0.00000000000E+00  0.12662774007E+03  0.12662774007E+03  0.00000000000E+00 0. -1.
         21   -1    0    0  502  503 -0.00000000000E+00 -0.00000000000E+00 -0.89781424810E+03  0.89781424810E+03  0.00000000000E+00 0.  1.
         25    1    1    2    0    0 -0.99710643371E+00 -0.30015379011E+03 -0.52401382180E+03  0.61669180097E+03  0.12500000000E+03 0.  0.
          4    1    1    2  501    0 -0.22182714383E+02  0.29325675654E+03 -0.24620404375E+03  0.38354664544E+03  0.00000000000E+00 0. -1.
         -4    1    1    2    0  503  0.23179820817E+02  0.68970335747E+01 -0.96864248045E+00  0.24203541755E+02  0.00000000000E+00 0.  1.
<mgrwt>
<rscale>  4 0.32268626E+03</rscale>
<asrwt>0</asrwt>
<pdfrwt beam="1">  1       21 0.19481191E-01 0.32268626E+03</pdfrwt>
<pdfrwt beam="2">  1       21 0.13812526E+00 0.32268626E+03</pdfrwt>
<totfact> 0.83113071E+03</totfact>
</mgrwt>
</event>
<event>
 5    0  0.1972558E-002  0.4702437E+03  0.7546771E-02  0.1021851E+00
         21   -1    0    0  501  502  0.00000000000E+00  0.00000000000E+00  0.16122585138E+04  0.16122585138E+04  0.00000000000E+00 0.  1.
         21   -1    0    0  502  503 -0.00000000000E+00 -0.00000000000E+00 -0.31203670044E+03  0.31203670044E+03  0.00000000000E+00 0.  1.
         25    1    1    2    0    0  0.33167830713E+03 -0.31664840966E+03 -0.46105969282E+02  0.47752222478E+03  0.12500000000E+03 0.  0.
          1    1    1    2  501    0  0.36726060136E+00  0.41395877013E+02  0.45185534513E+03  0.45374773436E+03  0.00000000000E+00 0. -1.
         -1    1    1    2    0  503 -0.33204556773E+03  0.27525253264E+03  0.89447243752E+03  0.99302525510E+03  0.00000000000E+00 0.  1.
<mgrwt>
<rscale>  4 0.47024365E+03</rscale>
<asrwt>0</asrwt>
<pdfrwt beam="1">  1       21 0.24803977E+00 0.47024365E+03</pdfrwt>
<pdfrwt beam="2">  1       21 0.48005647E-01 0.47024365E+03</pdfrwt>
<totfact> 0.22365717E+02</totfact>
</mgrwt>
</event>
<event>
 5    0  0.1972558E-002  0.2382779E+03  0.7546771E-02  0.1120945E+00
         21   -1    0    0  501  502  0.00000000000E+00  0.00000000000E+00  0.82278004448E+02  0.82278004448E+02  0.00000000000E+00 0.  1.
         21   -1    0    0  502  503 -0.00000000000E+00 -0.00000000000E+00 -0.10566244198E+04  0.10566244198E+04  0.00000000000E+00 0.  1.
         25    1    1    2    0    0 -0.16868246691E+03 -0.12249949587E+03 -0.77252263610E+03  0.80986179341E+03  0.12500000000E+03 0.  0.
          2    1    1    2  501    0  0.21968476148E+02 -0.22224854173E+01  0.23766465033E+02  0.32440688123E+02  0.00000000000E+00 0.  1.
         -2    1    1    2    0  503  0.14671399076E+03  0.12472198129E+03 -0.22559024427E+03  0.29659994271E+03  0.00000000000E+00 0. -1.
<mgrwt>
<rscale>  4 0.23827786E+03</rscale>
<asrwt>0</asrwt>
<pdfrwt beam="1">  1       21 0.12658154E-01 0.23827786E+03</pdfrwt>
<pdfrwt beam="2">  1       21 0.16255760E+00 0.23827786E+03</pdfrwt>
<totfact> 0.12456760E+04</totfact>
</mgrwt>
</event>
<event>
 5    0  0.1972558E-002  0.4456780E+03  0.7546771E-02  0.1029019E+00
         21   -1    0    0  501  502  0.00000000000E+00  0.00000000000E+00  0.28165390056E+04  0.28165390056E+04  0.00000000000E+00 0. -1.
         21   -1    0    0  502  503 -0.00000000000E+00 -0.00000000000E+00 -0.92979168023E+02  0.92979168023E+02  0.00000000000E+00 0. -1.
         25    1    1    2    0    0 -0.34940480985E+03 -0.25860214725E+03  0.76216389073E+03  0.88627173488E+03  0.12500000000E+03 0.  0.
          2    1    1    2  501    0  0.41491898980E+02 -0.22660880839E+02  0.53640452974E+03  0.53848390202E+03  0.00000000000E+00 0.  1.
         -2    1    1    2    0  503  0.30791291087E+03  0.28126302809E+03  0.14249914171E+04  0.14847625368E+04  0.00000000000E+00 0. -1.
<mgrwt>
<rscale>  4 0.44567798E+03</rscale>
<asrwt>0</asrwt>
<pdfrwt beam="1">  1       21 0.43331363E+00 0.44567798E+03</pdfrwt>
<pdfrwt beam="2">  1       21 0.14304490E-01 0.44567798E+03</pdfrwt>
<totfact> 0.17394118E+02</totfact>
</mgrwt>
</event>
<event>
 5    0  0.1972558E-002  0.2353443E+03  0.7546771E-02  0.1122934E+00
         21   -1    0    0  501  502  0.00000000000E+00  0.00000000000E+00  0.24350337791E+03  0.24350337791E+03  0.00000000000E+00 0.  1.
         21   -1    0    0  502  503 -0.00000000000E+00 -0.00000000000E+00 -0.29952934750E+03  0.29952934750E+03  0.00000000000E+00 0. -1.
         25    1    1    2    0    0  0.21687929342E+03 -0.60453017513E+02 -0.97720120914E+02  0.27543677546E+03  0.12500000000E+03 0.  0.
          3    1    1    2  501    0 -0.76595696945E+02 -0.43704166266E+02  0.98319177900E+00  0.88192525792E+02  0.00000000000E+00 0. -1.
         -3    1    1    2    0  503 -0.14028359648E+03  0.10415718378E+03  0.40710959547E+02  0.17940342416E+03  0.00000000000E+00 0.  1.
<mgrwt>
<rscale>  4 0.23534432E+03</rscale>
<asrwt>0</asrwt>
<pdfrwt beam="1">  1       21 0.37462058E-01 0.23534432E+03</pdfrwt>
<pdfrwt beam="2">  1       21 0.46081438E-01 0.23534432E+03</pdfrwt>
<totfact> 0.30337374E+04</totfact>
</mgrwt>
</event>
<event>
 5    0  0.1972558E-002  0.3242744E+03  0.7546771E-02  0.1073699E+00
         21   -1    0    0  501  502  0.00000000000E+00  0.00000000000E+00  0.25032524414E+03  0.25032524414E+03  0.00000000000E+00 0. -1.
         21   -1    0    0  502  503 -0.00000000000E+00 -0.00000000000E+00 -0.71274658461E+03  0.71274658461E+03  0.00000000000E+00 0. -1.
         25    1    1    2    0    0 -0.21512012668E+03  0.19422741767E+03 -0.43100518190E+03  0.53422039039E+03  0.12500000000E+03 0.  0.
          4    1    1    2  501    0  0.24065266600E+03 -0.21040276419E+03 -0.11519775226E+03  0.33978456551E+03  0.00000000000E+00 0. -1.
         -4    1    1    2    0  503 -0.25532539325E+02  0.16175346514E+02  0.83781593684E+02  0.89066872851E+02  0.00000000000E+00 0.  1.
<mgrwt>
<rscale>  4 0.32427439E+03</rscale>
<asrwt>0</asrwt>
<pdfrwt beam="1">  1       21 0.38511577E-01 0.32427439E+03</pdfrwt>
<pdfrwt beam="2">  1       21 0.10965332E+00 0.32427439E+03</pdfrwt>
<totfact> 0.39318518E+03</totfact>
</mgrwt>
</event>
<event>
 5    0  0.1972558E-002  0.6507020E+03  0.7546771E-02  0.9810132E-01
         21   -1    0    0  501  502  0.00000000000E+00  0.00000000000E+00  0.12372739177E+04  0.12372739177E+04  0.00000000000E+00 0.  1.
         21   -1    0    0  502  503 -0.00000000000E+00 -0.00000000000E+00 -0.42768331548E+03  0.42768331548E+03  0.00000000000E+00 0. -1.
         25    1    1    2    0    0  0.58722775142E+03  0.22401476806E+03  0.19102815420E+02  0.64109980963E+03  0.12500000000E+03 0.  0.
          3    1    1    2  501    0 -0.53529214772E+03 -0.16620823908E+03  0.74979152174E+03  0.93613577446E+03  0.00000000000E+00 0.  1.
         -3    1    1    2    0  503 -0.51935603697E+02 -0.57806528984E+02  0.40696265018E+02  0.87721649044E+02  0.00000000000E+00 0. -1.
<mgrwt>
<rscale>  4 0.64821607E+03</rscale>
<asrwt>0</asrwt>
<pdfrwt beam="1">  1       21 0.19034983E+00 0.65070199E+03</pdfrwt>
<pdfrwt beam="2">  1       21 0.65797434E-01 0.65070199E+03</pdfrwt>
<totfact> 0.24666657E+02</totfact>
</mgrwt>
</event>
<event>
 5    0  0.1972558E-002  0.2683052E+03  0.7546771E-02  0.1102254E+00
         21   -1    0    0  503  502  0.00000000000E+00  0.00000000000E+00  0.61307617519E+02  0.61307617519E+02  0.00000000000E+00 0. -1.
         21   -1    0    0  501  503 -0.00000000000E+00 -0.00000000000E+00 -0.22361192673E+04  0.22361192673E+04  0.00000000000E+00 0. -1.
         25    1    1    2    0    0 -0.23908544989E+03  0.86536106273E+02 -0.15962537763E+04  0.16212037097E+04  0.12500000000E+03 0.  0.
          3    1    1    2  501    0  0.59659927879E+02  0.67904317522E+02 -0.28562737262E+03  0.29958855005E+03  0.00000000000E+00 0.  1.
         -3    1    1    2    0  502  0.17942552201E+03 -0.15444042379E+03 -0.29293050084E+03  0.37663462503E+03  0.00000000000E+00 0. -1.
<mgrwt>
<rscale>  4 0.26830518E+03</rscale>
<asrwt>0</asrwt>
<pdfrwt beam="1">  1       21 0.94319411E-02 0.26830518E+03</pdfrwt>
<pdfrwt beam="2">  1       21 0.34401835E+00 0.26830518E+03</pdfrwt>
<totfact> 0.15608754E+03</totfact>
</mgrwt>
</event>
<event>
 5    0  0.1972558E-002  0.2284259E+03  0.7546771E-02  0.1127753E+00
         21   -1    0    0  501  502  0.00000000000E+00  0.00000000000E+00  0.99599380171E+03  0.99599380171E+03  0.00000000000E+00 0.  1.
         21   -1    0    0  502  503 -0.00000000000E+00 -0.00000000000E+00 -0.74017146951E+02  0.74017146951E+02  0.00000000000E+00 0. -1.
         25    1    1    2    0    0 -0.41495601516E+02 -0.19711718739E+03  0.60940184493E+03  0.65389041827E+03  0.12500000000E+03 0.  0.
          1    1    1    2  501    0  0.70843486578E+02  0.17519222530E+03  0.12871158198E+03  0.22864336144E+03  0.00000000000E+00 0.  1.
         -1    1    1    2    0  503 -0.29347885062E+02  0.21924962088E+02  0.18386322785E+03  0.18747716894E+03  0.00000000000E+00 0. -1.
<mgrwt>
<rscale>  4 0.22842592E+03</rscale>
<asrwt>0</asrwt>
<pdfrwt beam="1">  1       21 0.15322981E+00 0.22842592E+03</pdfrwt>
<pdfrwt beam="2">  1       21 0.11387254E-01 0.22842592E+03</pdfrwt>
<totfact> 0.17783226E+04</totfact>
</mgrwt>
</event>
<event>
 5    0  0.1972558E-002  0.2382266E+03  0.7546771E-02  0.1120980E+00
         21   -1    0    0  501  502  0.00000000000E+00  0.00000000000E+00  0.21923970701E+04  0.21923970701E+04  0.00000000000E+00 0.  1.
         21   -1    0    0  502  503 -0.00000000000E+00 -0.00000000000E+00 -0.10594058922E+03  0.10594058922E+03  0.00000000000E+00 0.  1.
         25    1    1    2    0    0 -0.19250724899E+03  0.81098486416E+02  0.49226274044E+02  0.24836310408E+03  0.12500000000E+03 0.  0.
          4    1    1    2  501    0  0.14289384960E+03 -0.67154643425E+02  0.10936586359E+04  0.11049966563E+04  0.00000000000E+00 0.  1.
         -4    1    1    2    0  503  0.49613399393E+02 -0.13943842991E+02  0.94357157086E+03  0.94497789894E+03  0.00000000000E+00 0. -1.
<mgrwt>
<rscale>  4 0.23822658E+03</rscale>
<asrwt>0</asrwt>
<pdfrwt beam="1">  1       21 0.33729182E+00 0.23822658E+03</pdfrwt>
<pdfrwt beam="2">  1       21 0.16298554E-01 0.23822658E+03</pdfrwt>
<totfact> 0.65838508E+02</totfact>
</mgrwt>
</event>
<event>
 5    0  0.1972558E-002  0.4144669E+03  0.7546771E-02  0.1038882E+00
         21   -1    0    0  501  502  0.00000000000E+00  0.00000000000E+00  0.12042805695E+04  0.12042805695E+04  0.00000000000E+00 0.  1.
         21   -1    0    0  502  503 -0.00000000000E+00 -0.00000000000E+00 -0.41929188792E+03  0.41929188792E+03  0.00000000000E+00 0. -1.
         25    1    1    2    0    0 -0.19197793961E+03  0.23016908190E+03  0.11546938679E+03  0.34466144961E+03  0.12500000000E+03 0.  0.
          1    1    1    2  501    0 -0.98448464576E+02  0.14499802868E+03  0.77358277405E+03  0.79318776894E+03  0.00000000000E+00 0. -1.
         -1    1    1    2    0  503  0.29042640419E+03 -0.37516711059E+03 -0.10406347921E+03  0.48572323891E+03  0.00000000000E+00 0.  1.
<mgrwt>
<rscale>  4 0.41446691E+03</rscale>
<asrwt>0</asrwt>
<pdfrwt beam="1">  1       21 0.18527393E+00 0.41446691E+03</pdfrwt>
<pdfrwt beam="2">  1       21 0.64506445E-01 0.41446691E+03</pdfrwt>
<totfact> 0.30973989E+02</totfact>
</mgrwt>
</event>
<event>
 5    0  0.1972558E-002  0.2429287E+03  0.7546771E-02  0.1117857E+00
         21   -1    0    0  501  502  0.00000000000E+00  0.00000000000E+00  0.64860007329E+03  0.64860007329E+03  0.00000000000E+00 0. -1.
         21   -1    0    0  502  503 -0.00000000000E+00 -0.00000000000E+00 -0.18139417368E+03  0.18139417368E+03  0.00000000000E+00 0.  1.
         25    1    1    2    0    0 -0.45839712216E+02 -0.20319472026E+03 -0.66761358975E+02  0.25193541357E+03  0.12500000000E+03 0.  0.
          4    1    1    2  501    0  0.39062206120E+02  0.14031140414E+03  0.27173133678E+03  0.30830352815E+03  0.00000000000E+00 0.  1.
         -4    1    1    2    0  503  0.67775060961E+01  0.62883316115E+02  0.26223592180E+03  0.26975530527E+03  0.00000000000E+00 0. -1.
<mgrwt>
<rscale>  4 0.24292874E+03</rscale>
<asrwt>0</asrwt>
<pdfrwt beam="1">  1       21 0.99784625E-01 0.24292874E+03</pdfrwt>
<pdfrwt beam="2">  1       21 0.27906796E-01 0.24292874E+03</pdfrwt>
<totfact> 0.97930129E+03</totfact>
</mgrwt>
</event>
<event>
 5    0  0.1972558E-002  0.4319934E+03  0.7546771E-02  0.1033232E+00
         21   -1    0    0  501  502  0.00000000000E+00  0.00000000000E+00  0.50060759542E+03  0.50060759542E+03  0.00000000000E+00 0.  1.
         21   -1    0    0  502  503 -0.00000000000E+00 -0.00000000000E+00 -0.62701123725E+03  0.62701123725E+03  0.00000000000E+00 0. -1.
         25    1    1    2    0    0  0.18930884107E+03  0.43494524262E+03 -0.23544070477E+03  0.54412546977E+03  0.12500000000E+03 0.  0.
          4    1    1    2  501    0 -0.10895814858E+03 -0.33985503978E+03 -0.71704658128E+02  0.36402593892E+03  0.00000000000E+00 0. -1.
         -4    1    1    2    0  503 -0.80350692484E+02 -0.95090202845E+02  0.18074172106E+03  0.21946742399E+03  0.00000000000E+00 0.  1.
<mgrwt>
<rscale>  4 0.43199341E+03</rscale>
<asrwt>0</asrwt>
<pdfrwt beam="1">  1       21 0.77016554E-01 0.43199341E+03</pdfrwt>
<pdfrwt beam="2">  1       21 0.96463266E-01 0.43199341E+03</pdfrwt>
<totfact> 0.11503730E+03</totfact>
</mgrwt>
</event>
<event>
 5    0  0.1972558E-002  0.2637104E+03  0.7546771E-02  0.1104934E+00
         21   -1    0    0  501  502  0.00000000000E+00  0.00000000000E+00  0.59667157599E+03  0.59667157599E+03  0.00000000000E+00 0.  1.
         21   -1    0    0  502  503 -0.00000000000E+00 -0.00000000000E+00 -0.40569772551E+03  0.40569772551E+03  0.00000000000E+00 0. -1.
         25    1    1    2    0    0  0.22187310419E+03 -0.98122397041E+02 -0.32120666351E+03  0.42149068774E+03  0.12500000000E+03 0.  0.
          1    1    1    2  501    0 -0.50261308423E+02  0.48902027221E+02  0.27625756464E+03  0.28501903342E+03  0.00000000000E+00 0.  1.
         -1    1    1    2    0  503 -0.17161179577E+03  0.49220369819E+02  0.23592294935E+03  0.29585958034E+03  0.00000000000E+00 0. -1.
<mgrwt>
<rscale>  4 0.26371044E+03</rscale>
<asrwt>0</asrwt>
<pdfrwt beam="1">  1       21 0.91795627E-01 0.26371044E+03</pdfrwt>
<pdfrwt beam="2">  1       21 0.62415035E-01 0.26371044E+03</pdfrwt>
<totfact> 0.22604736E+03</totfact>
</mgrwt>
</event>
<event>
 5    0  0.1972558E-002  0.2930259E+03  0.7546771E-02  0.1088780E+00
         21   -1    0    0  501  502  0.00000000000E+00  0.00000000000E+00  0.33089802104E+03  0.33089802104E+03  0.00000000000E+00 0. -1.
         21   -1    0    0  502  503 -0.00000000000E+00 -0.00000000000E+00 -0.80445812907E+03  0.80445812907E+03  0.00000000000E+00 0. -1.
         25    1    1    2    0    0 -0.23990796804E+03 -0.10660919284E+03 -0.67216908058E+03  0.73236440794E+03  0.12500000000E+03 0.  0.
          2    1    1    2  501    0  0.25351651470E+03  0.12206950870E+03  0.94431449210E+02  0.29679772031E+03  0.00000000000E+00 0. -1.
         -2    1    1    2    0  503 -0.13608546654E+02 -0.15460315858E+02  0.10417752335E+03  0.10619402186E+03  0.00000000000E+00 0.  1.
<mgrwt>
<rscale>  4 0.29302585E+03</rscale>
<asrwt>0</asrwt>
<pdfrwt beam="1">  1       21 0.50907389E-01 0.29302585E+03</pdfrwt>
<pdfrwt beam="2">  1       21 0.12376279E+00 0.29302585E+03</pdfrwt>
<totfact> 0.16599722E+03</totfact>
</mgrwt>
</event>
<event>
 5    0  0.1972558E-002  0.4031347E+03  0.7546771E-02  0.1042700E+00
         21   -1    0    0  501  502  0.00000000000E+00  0.00000000000E+00  0.62438479302E+03  0.62438479302E+03  0.00000000000E+00 0.  1.
         21   -1    0    0  502  503 -0.00000000000E+00 -0.00000000000E+00 -0.36394460243E+03  0.36394460243E+03  0.00000000000E+00 0.  1.
         25    1    1    2    0    0  0.11265414362E+03  0.37558490231E+03 -0.29524723964E+02  0.41261566165E+03  0.12500000000E+03 0.  0.
          4    1    1    2  501    0  0.22033254625E+01 -0.21679456907E+02  0.18890330298E+03  0.19015601850E+03  0.00000000000E+00 0. -1.
         -4    1    1    2    0  503 -0.11485746908E+03 -0.35390544540E+03  0.10106161157E+03  0.38555771529E+03  0.00000000000E+00 0.  1.
<mgrwt>
<rscale>  4 0.40313467E+03</rscale>
<asrwt>0</asrwt>
<pdfrwt beam="1">  1       21 0.96059199E-01 0.40313467E+03</pdfrwt>
<pdfrwt beam="2">  1       21 0.55991477E-01 0.40313467E+03</pdfrwt>
<totfact> 0.23895201E+03</totfact>
</mgrwt>
</event>
<event>
 5    0  0.1972558E-002  0.2800030E+03  0.7546771E-02  0.1095687E+00
         21   -1    0    0  503  502  0.00000000000E+00  0.00000000000E+00  0.15124942024E+04  0.15124942024E+04  0.00000000000E+00 0.  1.
         21   -1    0    0  501  503 -0.00000000000E+00 -0.00000000000E+00 -0.26225929929E+03  0.26225929929E+03  0.00000000000E+00 0. -1.
         25    1    1    2    0    0  0.68798792898E+01  0.24782698437E+03 -0.12345728863E+03  0.30386222048E+03  0.12500000000E+03 0.  0.
          1    1    1    2  501    0  0.62000107324E+02 -0.26166019136E+03  0.33385363063E+03  0.42868206836E+03  0.00000000000E+00 0. -1.
         -1    1    1    2    0  502 -0.68879986614E+02  0.13833206984E+02  0.10398385611E+04  0.10422092128E+04  0.00000000000E+00 0.  1.
<mgrwt>
<rscale>  4 0.28000300E+03</rscale>
<asrwt>0</asrwt>
<pdfrwt beam="1">  1       21 0.23269141E+00 0.28000300E+03</pdfrwt>
<pdfrwt beam="2">  1       21 0.40347585E-01 0.28000300E+03</pdfrwt>
<totfact> 0.45405058E+02</totfact>
</mgrwt>
</event>
<event>
 5    0  0.1972558E-002  0.2504692E+03  0.7546771E-02  0.1113009E+00
         21   -1    0    0  501  502  0.00000000000E+00  0.00000000000E+00  0.14885423434E+04  0.14885423434E+04  0.00000000000E+00 0. -1.
         21   -1    0    0  502  503 -0.00000000000E+00 -0.00000000000E+00 -0.61431051966E+02  0.61431051966E+02  0.00000000000E+00 0. -1.
         25    1    1    2    0    0  0.17947248235E+03 -0.13178476183E+03  0.30556980730E+03  0.39821539712E+03  0.12500000000E+03 0.  0.
          4    1    1    2  501    0 -0.15690837268E+03  0.13344676748E+03  0.70171350995E+03  0.73132081005E+03  0.00000000000E+00 0. -1.
         -4    1    1    2    0  503 -0.22564109665E+02 -0.16620056414E+01  0.41982797421E+03  0.42043718822E+03  0.00000000000E+00 0.  1.
<mgrwt>
<rscale>  4 0.25046920E+03</rscale>
<asrwt>0</asrwt>
<pdfrwt beam="1">  1       21 0.22900649E+00 0.25046920E+03</pdfrwt>
<pdfrwt beam="2">  1       21 0.94509322E-02 0.25046920E+03</pdfrwt>
<totfact> 0.75732215E+03</totfact>
</mgrwt>
</event>
<event>
 5    0  0.1972558E-002  0.3213697E+03  0.7546771E-02  0.1075021E+00
         21   -1    0    0  501  502  0.00000000000E+00  0.00000000000E+00  0.85473566799E+03  0.85473566799E+03  0.00000000000E+00 0.  1.
         21   -1    0    0  502  503 -0.00000000000E+00 -0.00000000000E+00 -0.63893927521E+03  0.63893927521E+03  0.00000000000E+00 0.  1.
         25    1    1    2    0    0 -0.20983108374E+03 -0.37152652021E+03 -0.46203848588E+02  0.44701323755E+03  0.12500000000E+03 0.  0.
          3    1    1    2  501    0  0.30465736302E+02  0.17347506786E+03  0.59453508022E+03  0.62007557755E+03  0.00000000000E+00 0.  1.
         -3    1    1    2    0  503  0.17936534744E+03  0.19805145235E+03 -0.33253483885E+03  0.42658612811E+03  0.00000000000E+00 0. -1.
<mgrwt>
<rscale>  4 0.32136970E+03</rscale>
<asrwt>0</asrwt>
<pdfrwt beam="1">  1       21 0.13149780E+00 0.32136970E+03</pdfrwt>
<pdfrwt beam="2">  1       21 0.98298349E-01 0.32136970E+03</pdfrwt>
<totfact> 0.31932099E+02</totfact>
</mgrwt>
</event>
<event>
 5    0  0.1972558E-002  0.2150139E+03  0.7546771E-02  0.1137656E+00
         21   -1    0    0  501  502  0.00000000000E+00  0.00000000000E+00  0.11763349230E+04  0.11763349230E+04  0.00000000000E+00 0.  1.
         21   -1    0    0  502  503 -0.00000000000E+00 -0.00000000000E+00 -0.46022586243E+03  0.46022586243E+03  0.00000000000E+00 0. -1.
         25    1    1    2    0    0  0.14117558634E+03  0.14825669637E+03 -0.11603316520E+03  0.26645691889E+03  0.12500000000E+03 0.  0.
          1    1    1    2  501    0 -0.28106351900E+02 -0.28192408946E+02  0.10754394171E+04  0.10761759702E+04  0.00000000000E+00 0.  1.
         -1    1    1    2    0  503 -0.11306923444E+03 -0.12006428742E+03 -0.24329719139E+03  0.29392789631E+03  0.00000000000E+00 0. -1.
<mgrwt>
<rscale>  4 0.21501391E+03</rscale>
<asrwt>0</asrwt>
<pdfrwt beam="1">  1       21 0.18097460E+00 0.21501391E+03</pdfrwt>
<pdfrwt beam="2">  1       21 0.70803979E-01 0.21501391E+03</pdfrwt>
<totfact> 0.31524188E+02</totfact>
</mgrwt>
</event>
<event>
 5    0  0.1972558E-002  0.2834669E+03  0.7546771E-02  0.1093810E+00
         21   -1    0    0  503  502  0.00000000000E+00  0.00000000000E+00  0.83423403316E+03  0.83423403316E+03  0.00000000000E+00 0. -1.
         21   -1    0    0  501  503 -0.00000000000E+00 -0.00000000000E+00 -0.10479372507E+03  0.10479372507E+03  0.00000000000E+00 0. -1.
         25    1    1    2    0    0  0.18970677056E+03 -0.16952826337E+03  0.19927223613E+03  0.34650095955E+03  0.12500000000E+03 0.  0.
          4    1    1    2  501    0 -0.52003869278E+02  0.11224259544E+02  0.83079284422E+02  0.98653707089E+02  0.00000000000E+00 0.  1.
         -4    1    1    2    0  502 -0.13770290128E+03  0.15830400383E+03  0.44708878754E+03  0.49387309159E+03  0.00000000000E+00 0. -1.
<mgrwt>
<rscale>  4 0.28346691E+03</rscale>
<asrwt>0</asrwt>
<pdfrwt beam="1">  1       21 0.12834369E+00 0.28346691E+03</pdfrwt>
<pdfrwt beam="2">  1       21 0.16122112E-01 0.28346691E+03</pdfrwt>
<totfact> 0.14564575E+04</totfact>
</mgrwt>
</event>
<event>
 5    0  0.1972558E-002  0.2978512E+03  0.7546771E-02  0.1086320E+00
         21   -1    0    0  501  502  0.00000000000E+00  0.00000000000E+00  0.23821436970E+03  0.23821436970E+03  0.00000000000E+00 0.  1.
         21   -1    0    0  502  503 -0.00000000000E+00 -0.00000000000E+00 -0.86476963932E+03  0.86476963932E+03  0.00000000000E+00 0.  1.
         25    1    1    2    0    0  0.21538193941E+03  0.16097486869E+03 -0.68401693540E+03  0.74552428269E+03  0.12500000000E+03 0.  0.
          3    1    1    2  501    0 -0.25100594609E+03 -0.12548653757E+03 -0.63176717087E+00  0.28062654047E+03  0.00000000000E+00 0.  1.
         -3    1    1    2    0  503  0.35624006685E+02 -0.35488331124E+02  0.58093432943E+02  0.76833185860E+02  0.00000000000E+00 0. -1.
<mgrwt>
<rscale>  4 0.29785122E+03</rscale>
<asrwt>0</asrwt>
<pdfrwt beam="1">  1       21 0.36648364E-01 0.29785122E+03</pdfrwt>
<pdfrwt beam="2">  1       21 0.13304148E+00 0.29785122E+03</pdfrwt>
<totfact> 0.27114640E+03</totfact>
</mgrwt>
</event>
<event>
 5    0  0.1972558E-002  0.2440240E+03  0.7546771E-02  0.1117141E+00
         21   -1    0    0  501  502  0.00000000000E+00  0.00000000000E+00  0.23482412039E+03  0.23482412039E+03  0.00000000000E+00 0.  1.
         21   -1    0    0  502  503 -0.00000000000E+00 -0.00000000000E+00 -0.70666225614E+03  0.70666225614E+03  0.00000000000E+00 0. -1.
         25    1    1    2    0    0 -0.20951362124E+03  0.61265451694E+02 -0.43739505289E+03  0.50456797892E+03  0.12500000000E+03 0.  0.
          2    1    1    2  501    0  0.17241698753E+03 -0.10572441499E+03 -0.18593922611E+03  0.27473380811E+03  0.00000000000E+00 0. -1.
         -2    1    1    2    0  503  0.37096633715E+02  0.44458963292E+02  0.15149614325E+03  0.16218458949E+03  0.00000000000E+00 0.  1.
<mgrwt>
<rscale>  4 0.24402403E+03</rscale>
<asrwt>0</asrwt>
<pdfrwt beam="1">  1       21 0.36126788E-01 0.24402403E+03</pdfrwt>
<pdfrwt beam="2">  1       21 0.10871727E+00 0.24402403E+03</pdfrwt>
<totfact> 0.47807745E+03</totfact>
</mgrwt>
</event>
<event>
 5    0  0.1972558E-002  0.2591549E+03  0.7546771E-02  0.1107652E+00
         21   -1    0    0  501  502  0.00000000000E+00  0.00000000000E+00  0.88531313725E+02  0.88531313725E+02  0.00000000000E+00 0.  1.
         21   -1    0    0  502  503 -0.00000000000E+00 -0.00000000000E+00 -0.83751020272E+03  0.83751020272E+03  0.00000000000E+00 0.  1.
         25    1    1    2    0    0 -0.11555299878E+03 -0.20525648173E+03 -0.51071686883E+03  0.57614185660E+03  0.12500000000E+03 0.  0.
          4    1    1    2  501    0  0.21468954373E+01  0.20888140520E+02  0.76004443177E+01  0.22331375422E+02  0.00000000000E+00 0.  1.
         -4    1    1    2    0  503  0.11340610334E+03  0.18436834122E+03 -0.24586246448E+03  0.32756828442E+03  0.00000000000E+00 0. -1.
<mgrwt>
<rscale>  4 0.25915493E+03</rscale>
<asrwt>0</asrwt>
<pdfrwt beam="1">  1       21 0.13620202E-01 0.25915493E+03</pdfrwt>
<pdfrwt beam="2">  1       21 0.12884773E+00 0.25915493E+03</pdfrwt>
<totfact> 0.19881307E+04</totfact>
</mgrwt>
</event>
<event>
 5    0  0.1972558E-002  0.2226400E+03  0.7546771E-02  0.1131930E+00
         21   -1    0    0  501  502  0.00000000000E+00  0.00000000000E+00  0.68575754776E+03  0.68575754776E+03  0.00000000000E+00 0.  1.
         21   -1    0    0  502  503 -0.00000000000E+00 -0.00000000000E+00 -0.18916654562E+03  0.18916654562E+03  0.00000000000E+00 0.  1.
         25    1    1    2    0    0  0.27061146901E+03 -0.12853994429E+02  0.18944552191E+03  0.35342665167E+03  0.12500000000E+03 0.  0.
          4    1    1    2  501    0 -0.11989541958E+03 -0.53561419628E+02  0.33004815774E+03  0.35521194200E+03  0.00000000000E+00 0. -1.
         -4    1    1    2    0  503 -0.15071604943E+03  0.66415414057E+02 -0.22902677516E+02  0.16628549972E+03  0.00000000000E+00 0.  1.
<mgrwt>
<rscale>  4 0.22264004E+03</rscale>
<asrwt>0</asrwt>
<pdfrwt beam="1">  1       21 0.10550116E+00 0.22264004E+03</pdfrwt>
<pdfrwt beam="2">  1       21 0.29102546E-01 0.22264004E+03</pdfrwt>
<totfact> 0.79938828E+03</totfact>
</mgrwt>
</event>
<event>
 5    0  0.1972558E-002  0.2614141E+03  0.7546771E-02  0.1106297E+00
         21   -1    0    0  501  502  0.00000000000E+00  0.00000000000E+00  0.19888348182E+04  0.19888348182E+04  0.00000000000E+00 0.  1.
         21   -1    0    0  502  503 -0.00000000000E+00 -0.00000000000E+00 -0.14955235781E+03  0.14955235781E+03  0.00000000000E+00 0.  1.
         25    1    1    2    0    0  0.23071622969E+03  0.25372015371E+02 -0.17084041595E+02  0.26417907238E+03  0.12500000000E+03 0.  0.
          3    1    1    2  501    0 -0.19177574883E+03 -0.28877252318E+02  0.17529857708E+04  0.17636810783E+04  0.00000000000E+00 0.  1.
         -3    1    1    2    0  503 -0.38940480859E+02  0.35052369468E+01  0.10338073125E+03  0.11052702533E+03  0.00000000000E+00 0. -1.
<mgrwt>
<rscale>  4 0.26141411E+03</rscale>
<asrwt>0</asrwt>
<pdfrwt beam="1">  1       21 0.30597457E+00 0.26141411E+03</pdfrwt>
<pdfrwt beam="2">  1       21 0.23008056E-01 0.26141411E+03</pdfrwt>
<totfact> 0.51371204E+02</totfact>
</mgrwt>
</event>
<event>
 5    0  0.1972558E-002  0.2642355E+03  0.7546771E-02  0.1104625E+00
         21   -1    0    0  501  502  0.00000000000E+00  0.00000000000E+00  0.26449381296E+03  0.26449381296E+03  0.00000000000E+00 0.  1.
         21   -1    0    0  502  503 -0.00000000000E+00 -0.00000000000E+00 -0.45646372721E+03  0.45646372721E+03  0.00000000000E+00 0.  1.
         25    1    1    2    0    0  0.69364665863E+02 -0.21170136762E+03 -0.27476355504E+03  0.37516521308E+03  0.12500000000E+03 0.  0.
          2    1    1    2  501    0 -0.43492559495E+02  0.26001509239E+03  0.22918154345E+02  0.26462179200E+03  0.00000000000E+00 0.  1.
         -2    1    1    2    0  503 -0.25872106368E+02 -0.48313724771E+02  0.59875486448E+02  0.81170535089E+02  0.00000000000E+00 0. -1.
<mgrwt>
<rscale>  4 0.26423545E+03</rscale>
<asrwt>0</asrwt>
<pdfrwt beam="1">  1       21 0.40691356E-01 0.26423545E+03</pdfrwt>
<pdfrwt beam="2">  1       21 0.70225188E-01 0.26423545E+03</pdfrwt>
<totfact> 0.10252319E+04</totfact>
</mgrwt>
</event>
<event>
 5    0  0.1972558E-002  0.2293680E+03  0.7546771E-02  0.1127085E+00
         21   -1    0    0  501  502  0.00000000000E+00  0.00000000000E+00  0.34289034302E+03  0.34289034302E+03  0.00000000000E+00 0.  1.
         21   -1    0    0  502  503 -0.00000000000E+00 -0.00000000000E+00 -0.66235265107E+03  0.66235265107E+03  0.00000000000E+00 0.  1.
         25    1    1    2    0    0  0.11001646896E+03 -0.17997790939E+03 -0.55661360106E+03  0.60822641524E+03  0.12500000000E+03 0.  0.
          1    1    1    2  501    0  0.34675629156E+02  0.13327822235E+03  0.19592824535E+03  0.23948561781E+03  0.00000000000E+00 0.  1.
         -1    1    1    2    0  503 -0.14469209812E+03  0.46699687040E+02  0.41223047652E+02  0.15753096104E+03  0.00000000000E+00 0. -1.
<mgrwt>
<rscale>  4 0.22936801E+03</rscale>
<asrwt>0</asrwt>
<pdfrwt beam="1">  1       21 0.52752361E-01 0.22936801E+03</pdfrwt>
<pdfrwt beam="2">  1       21 0.10190041E+00 0.22936801E+03</pdfrwt>
<totfact> 0.25936081E+03</totfact>
</mgrwt>
</event>
<event>
 5    0  0.1972558E-002  0.2451154E+03  0.7546771E-02  0.1116431E+00
         21   -1    0    0  501  502  0.00000000000E+00  0.00000000000E+00  0.49295501313E+03  0.49295501313E+03  0.00000000000E+00 0.  1.
         21   -1    0    0  502  503 -0.00000000000E+00 -0.00000000000E+00 -0.43192129809E+03  0.43192129809E+03  0.00000000000E+00 0.  1.
         25    1    1    2    0    0 -0.16190070409E+03  0.12955067532E+03 -0.33823144955E+03  0.41595760472E+03  0.12500000000E+03 0.  0.
          3    1    1    2  501    0  0.20939986533E+03 -0.11501139321E+03  0.22669953607E+03  0.32934572082E+03  0.00000000000E+00 0. -1.
         -3    1    1    2    0  503 -0.47499161236E+02 -0.14539282110E+02  0.17256562852E+03  0.17957298569E+03  0.00000000000E+00 0.  1.
<mgrwt>
<rscale>  4 0.24511543E+03</rscale>
<asrwt>0</asrwt>
<pdfrwt beam="1">  1       21 0.75839233E-01 0.24511543E+03</pdfrwt>
<pdfrwt beam="2">  1       21 0.66449430E-01 0.24511543E+03</pdfrwt>
<totfact> 0.30943391E+03</totfact>
</mgrwt>
</event>
<event>
 5    0  0.1972558E-002  0.2654362E+03  0.7546771E-02  0.1103920E+00
         21   -1    0    0  501  502  0.00000000000E+00  0.00000000000E+00  0.63963652284E+02  0.63963652284E+02  0.00000000000E+00 0. -1.
         21   -1    0    0  502  503 -0.00000000000E+00 -0.00000000000E+00 -0.23083207168E+04  0.23083207168E+04  0.00000000000E+00 0.  1.
         25    1    1    2    0    0 -0.17088435141E+03 -0.17326008876E+03 -0.18937031976E+04  0.19133628303E+04  0.12500000000E+03 0.  0.
          3    1    1    2  501    0  0.21617132024E+01  0.49402283380E+02  0.12637342353E+01  0.49465701566E+02  0.00000000000E+00 0.  1.
         -3    1    1    2    0  503  0.16872263821E+03  0.12385780538E+03 -0.35191760112E+03  0.40945583715E+03  0.00000000000E+00 0. -1.
<mgrwt>
<rscale>  4 0.26543618E+03</rscale>
<asrwt>0</asrwt>
<pdfrwt beam="1">  1       21 0.98405639E-02 0.26543618E+03</pdfrwt>
<pdfrwt beam="2">  1       21 0.35512619E+00 0.26543618E+03</pdfrwt>
<totfact> 0.12455126E+03</totfact>
</mgrwt>
</event>
<event>
 5    0  0.1972558E-002  0.1911738E+03  0.7546771E-02  0.1157407E+00
         21   -1    0    0  503  502  0.00000000000E+00  0.00000000000E+00  0.20890381707E+04  0.20890381707E+04  0.00000000000E+00 0.  1.
         21   -1    0    0  501  503 -0.00000000000E+00 -0.00000000000E+00 -0.27707939416E+03  0.27707939416E+03  0.00000000000E+00 0.  1.
         25    1    1    2    0    0  0.20147568523E+03 -0.35346767414E+02 -0.18392389032E+03  0.30215036511E+03  0.12500000000E+03 0.  0.
          4    1    1    2  501    0 -0.61581276432E+02  0.11584529309E+01 -0.12933619124E+01  0.61605749774E+02  0.00000000000E+00 0. -1.
         -4    1    1    2    0  502 -0.13989440880E+03  0.34188314483E+02  0.19971760288E+04  0.20023614500E+04  0.00000000000E+00 0.  1.
<mgrwt>
<rscale>  4 0.19117377E+03</rscale>
<asrwt>0</asrwt>
<pdfrwt beam="1">  1       21 0.32139048E+00 0.19117377E+03</pdfrwt>
<pdfrwt beam="2">  1       21 0.42627600E-01 0.19117377E+03</pdfrwt>
<totfact> 0.13634809E+02</totfact>
</mgrwt>
</event>
<event>
 5    0  0.1972558E-002  0.2543582E+03  0.7546771E-02  0.1110581E+00
         21   -1    0    0  501  502  0.00000000000E+00  0.00000000000E+00  0.70384474956E+03  0.70384474956E+03  0.00000000000E+00 0.  1.
         21   -1    0    0  502  503 -0.00000000000E+00 -0.00000000000E+00 -0.27992844437E+03  0.27992844437E+03  0.00000000000E+00 0. -1.
         25    1    1    2    0    0 -0.69555934257E+02 -0.21351246571E+03 -0.19251046605E+03  0.32110882975E+03  0.12500000000E+03 0.  0.
          3    1    1    2  501    0  0.47878414868E+01  0.23913077644E+02  0.18948402766E+03  0.19104699801E+03  0.00000000000E+00 0.  1.
         -3    1    1    2    0  503  0.64768092770E+02  0.18959938806E+03  0.42694274357E+03  0.47161736618E+03  0.00000000000E+00 0. -1.
<mgrwt>
<rscale>  4 0.25435817E+03</rscale>
<asrwt>0</asrwt>
<pdfrwt beam="1">  1       21 0.10828381E+00 0.25435817E+03</pdfrwt>
<pdfrwt beam="2">  1       21 0.43065915E-01 0.25435817E+03</pdfrwt>
<totfact> 0.33571491E+03</totfact>
</mgrwt>
</event>
<event>
 5    0  0.1972558E-002  0.2562453E+03  0.7546771E-02  0.1109420E+00
         21   -1    0    0  501  502  0.00000000000E+00  0.00000000000E+00  0.60508481711E+03  0.60508481711E+03  0.00000000000E+00 0.  1.
         21   -1    0    0  502  503 -0.00000000000E+00 -0.00000000000E+00 -0.21374951192E+03  0.21374951192E+03  0.00000000000E+00 0. -1.
         25    1    1    2    0    0 -0.32594710184E+01 -0.21993576886E+03 -0.72521792500E+02  0.26318582212E+03  0.12500000000E+03 0.  0.
          1    1    1    2  501    0 -0.22593723370E+02  0.23598633438E+03  0.26952424748E+03  0.35894755374E+03  0.00000000000E+00 0.  1.
         -1    1    1    2    0  503  0.25853194388E+02 -0.16050565525E+02  0.19433285021E+03  0.19670095319E+03  0.00000000000E+00 0. -1.
<mgrwt>
<rscale>  4 0.25624530E+03</rscale>
<asrwt>0</asrwt>
<pdfrwt beam="1">  1       21 0.93089971E-01 0.25624530E+03</pdfrwt>
<pdfrwt beam="2">  1       21 0.32884541E-01 0.25624530E+03</pdfrwt>
<totfact> 0.82992911E+03</totfact>
</mgrwt>
</event>
<event>
 5    0  0.1972558E-002  0.2780117E+03  0.7546771E-02  0.1096780E+00
         21   -1    0    0  503  502  0.00000000000E+00  0.00000000000E+00  0.54162799066E+03  0.54162799066E+03  0.00000000000E+00 0. -1.
         21   -1    0    0  501  503 -0.00000000000E+00 -0.00000000000E+00 -0.22915290713E+03  0.22915290713E+03  0.00000000000E+00 0.  1.
         25    1    1    2    0    0 -0.20105018168E+03 -0.14575442895E+03 -0.92016115037E+02  0.29284380570E+03  0.12500000000E+03 0.  0.
          3    1    1    2  501    0  0.13590102654E+03  0.11373304989E+03  0.24180868996E+03  0.29979282545E+03  0.00000000000E+00 0. -1.
         -3    1    1    2    0  502  0.65149155131E+02  0.32021379064E+02  0.16268250861E+03  0.17814426664E+03  0.00000000000E+00 0.  1.
<mgrwt>
<rscale>  4 0.27801174E+03</rscale>
<asrwt>0</asrwt>
<pdfrwt beam="1">  1       21 0.83327383E-01 0.27801174E+03</pdfrwt>
<pdfrwt beam="2">  1       21 0.35254294E-01 0.27801174E+03</pdfrwt>
<totfact> 0.92395778E+03</totfact>
</mgrwt>
</event>
<event>
 5    0  0.1972558E-002  0.2145208E+03  0.7546771E-02  0.1138035E+00
         21   -1    0    0  501  502  0.00000000000E+00  0.00000000000E+00  0.22530706523E+03  0.22530706523E+03  0.00000000000E+00 0. -1.
         21   -1    0    0  502  503 -0.00000000000E+00 -0.00000000000E+00 -0.10927280574E+04  0.10927280574E+04  0.00000000000E+00 0. -1.
         25    1    1    2    0    0  0.75932353912E+02  0.19402490006E+03 -0.91502464729E+03  0.94673464569E+03  0.12500000000E+03 0.  0.
          2    1    1    2  501    0 -0.77630531401E+01 -0.92008028815E+02  0.17285154484E+03  0.19596785173E+03  0.00000000000E+00 0. -1.
         -2    1    1    2    0  503 -0.68169300772E+02 -0.10201687124E+03 -0.12524788974E+03  0.17533262523E+03  0.00000000000E+00 0.  1.
<mgrwt>
<rscale>  4 0.21452081E+03</rscale>
<asrwt>0</asrwt>
<pdfrwt beam="1">  1       21 0.34662626E-01 0.21452081E+03</pdfrwt>
<pdfrwt beam="2">  1       21 0.16811200E+00 0.21452081E+03</pdfrwt>
<totfact> 0.17280241E+03</totfact>
</mgrwt>
</event>
<event>
 5    0  0.1972558E-002  0.2528429E+03  0.7546771E-02  0.1111521E+00
         21   -1    0    0  501  502  0.00000000000E+00  0.00000000000E+00  0.27408113568E+03  0.27408113568E+03  0.00000000000E+00 0.  1.
         21   -1    0    0  502  503 -0.00000000000E+00 -0.00000000000E+00 -0.13875354119E+04  0.13875354119E+04  0.00000000000E+00 0.  1.
         25    1    1    2    0    0  0.17916898253E+03 -0.12729112212E+03 -0.13251904030E+04  0.13490956817E+04  0.12500000000E+03 0.  0.
          2    1    1    2  501    0 -0.12798646214E+03  0.71417313038E+02  0.99673401415E+02  0.17724489849E+03  0.00000000000E+00 0.  1.
         -2    1    1    2    0  503 -0.51182520391E+02  0.55873809077E+02  0.11206272539E+03  0.13527596740E+03  0.00000000000E+00 0. -1.
<mgrwt>
<rscale>  4 0.25284294E+03</rscale>
<asrwt>0</asrwt>
<pdfrwt beam="1">  1       21 0.42166328E-01 0.25284294E+03</pdfrwt>
<pdfrwt beam="2">  1       21 0.21346699E+00 0.25284294E+03</pdfrwt>
<totfact> 0.55993951E+02</totfact>
</mgrwt>
</event>
<event>
 5    0  0.1972558E-002  0.2662120E+03  0.7546771E-02  0.1103467E+00
         21   -1    0    0  501  502  0.00000000000E+00  0.00000000000E+00  0.49244358565E+03  0.49244358565E+03  0.00000000000E+00 0.  1.
         21   -1    0    0  502  503 -0.00000000000E+00 -0.00000000000E+00 -0.30682416559E+03  0.30682416559E+03  0.00000000000E+00 0. -1.
         25    1    1    2    0    0 -0.23270323389E+03 -0.49363612860E+02  0.23947055189E+02  0.26978884853E+03  0.12500000000E+03 0.  0.
          4    1    1    2  501    0  0.23285273439E+03  0.23703516458E+02 -0.10857702380E+03  0.25801399710E+03  0.00000000000E+00 0. -1.
         -4    1    1    2    0  503 -0.14950049844E+00  0.25660096402E+02  0.27024938868E+03  0.27146490561E+03  0.00000000000E+00 0.  1.
<mgrwt>
<rscale>  4 0.26621201E+03</rscale>
<asrwt>0</asrwt>
<pdfrwt beam="1">  1       21 0.75760551E-01 0.26621201E+03</pdfrwt>
<pdfrwt beam="2">  1       21 0.47203718E-01 0.26621201E+03</pdfrwt>
<totfact> 0.63619183E+03</totfact>
</mgrwt>
</event>
<event>
 5    0  0.1972558E-002  0.2704606E+03  0.7546771E-02  0.1101016E+00
         21   -1    0    0  501  502  0.00000000000E+00  0.00000000000E+00  0.39711591874E+03  0.39711591874E+03  0.00000000000E+00 0. -1.
         21   -1    0    0  502  503 -0.00000000000E+00 -0.00000000000E+00 -0.55913129244E+03  0.55913129244E+03  0.00000000000E+00 0.  1.
         25    1    1    2    0    0 -0.23845905838E+03 -0.37196562734E+02 -0.45629172490E+03  0.53110586988E+03  0.12500000000E+03 0.  0.
          3    1    1    2  501    0  0.23167185318E+03  0.15797244355E+02  0.14408166807E+03  0.27327811394E+03  0.00000000000E+00 0. -1.
         -3    1    1    2    0  503  0.67872051961E+01  0.21399318379E+02  0.15019468314E+03  0.15186322736E+03  0.00000000000E+00 0.  1.
<mgrwt>
<rscale>  4 0.27046057E+03</rscale>
<asrwt>0</asrwt>
<pdfrwt beam="1">  1       21 0.61094757E-01 0.27046057E+03</pdfrwt>
<pdfrwt beam="2">  1       21 0.86020198E-01 0.27046057E+03</pdfrwt>
<totfact> 0.27431935E+03</totfact>
</mgrwt>
</event>
<event>
 5    0  0.1972558E-002  0.2820682E+03  0.7546771E-02  0.1094565E+00
         21   -1    0    0  501  502  0.00000000000E+00  0.00000000000E+00  0.35274707781E+03  0.35274707781E+03  0.00000000000E+00 0.  1.
         21   -1    0    0  502  503 -0.00000000000E+00 -0.00000000000E+00 -0.65971894774E+03  0.65971894774E+03  0.00000000000E+00 0. -1.
         25    1    1    2    0    0  0.55142445339E+02 -0.20490223246E+03 -0.25981926218E+03  0.35798975285E+03  0.12500000000E+03 0.  0.
          4    1    1    2  501    0 -0.12441178819E+03 -0.15795269585E+03  0.13541791572E+03  0.24241567413E+03  0.00000000000E+00 0.  1.
         -4    1    1    2    0  503  0.69269342849E+02  0.36285492831E+03 -0.18257052347E+03  0.41206059857E+03  0.00000000000E+00 0. -1.
<mgrwt>
<rscale>  4 0.28206816E+03</rscale>
<asrwt>0</asrwt>
<pdfrwt beam="1">  1       21 0.54268782E-01 0.28206816E+03</pdfrwt>
<pdfrwt beam="2">  1       21 0.10149522E+00 0.28206816E+03</pdfrwt>
<totfact> 0.23788349E+03</totfact>
</mgrwt>
</event>
<event>
 5    0  0.1972558E-002  0.4880640E+03  0.7546771E-02  0.1016942E+00
         21   -1    0    0  501  502  0.00000000000E+00  0.00000000000E+00  0.33310487933E+03  0.33310487933E+03  0.00000000000E+00 0.  1.
         21   -1    0    0  502  503 -0.00000000000E+00 -0.00000000000E+00 -0.13262519416E+04  0.13262519416E+04  0.00000000000E+00 0.  1.
         25    1    1    2    0    0  0.45203362622E+03 -0.26219468913E+03 -0.86748807391E+03  0.10204121778E+04  0.12500000000E+03 0.  0.
          1    1    1    2  501    0 -0.33760536581E+03  0.21058883593E+03 -0.24372958372E+03  0.46661456345E+03  0.00000000000E+00 0.  1.
         -1    1    1    2    0  503 -0.11442826041E+03  0.51605853204E+02  0.11807059538E+03  0.17233007966E+03  0.00000000000E+00 0. -1.
<mgrwt>
<rscale>  4 0.48806402E+03</rscale>
<asrwt>0</asrwt>
<pdfrwt beam="1">  1       21 0.51246904E-01 0.48806402E+03</pdfrwt>
<pdfrwt beam="2">  1       21 0.20403876E+00 0.48806402E+03</pdfrwt>
<totfact> 0.36753676E+02</totfact>
</mgrwt>
</event>
<event>
 5    0  0.1972558E-002  0.2693029E+03  0.7546771E-02  0.1101679E+00
         21   -1    0    0  501  502  0.00000000000E+00  0.00000000000E+00  0.23710898128E+03  0.23710898128E+03  0.00000000000E+00 0. -1.
         21   -1    0    0  502  503 -0.00000000000E+00 -0.00000000000E+00 -0.65139208291E+03  0.65139208291E+03  0.00000000000E+00 0. -1.
         25    1    1    2    0    0 -0.22444418874E+03  0.11314425646E+03 -0.23477739781E+03  0.36595388118E+03  0.12500000000E+03 0.  0.
          1    1    1    2  501    0  0.11485069740E+02 -0.22969019056E+02  0.13205861869E+03  0.13453238062E+03  0.00000000000E+00 0. -1.
         -1    1    1    2    0  503  0.21295911900E+03 -0.90175237407E+02 -0.31156432252E+03  0.38801480239E+03  0.00000000000E+00 0.  1.
<mgrwt>
<rscale>  4 0.26930290E+03</rscale>
<asrwt>0</asrwt>
<pdfrwt beam="1">  1       21 0.36478305E-01 0.26930290E+03</pdfrwt>
<pdfrwt beam="2">  1       21 0.10021417E+00 0.26930290E+03</pdfrwt>
<totfact> 0.56224508E+03</totfact>
</mgrwt>
</event>
<event>
 5    0  0.1972558E-002  0.3016454E+03  0.7546771E-02  0.1084421E+00
         21   -1    0    0  501  502  0.00000000000E+00  0.00000000000E+00  0.90287034680E+03  0.90287034680E+03  0.00000000000E+00 0. -1.
         21   -1    0    0  502  503 -0.00000000000E+00 -0.00000000000E+00 -0.44623469833E+03  0.44623469833E+03  0.00000000000E+00 0. -1.
         25    1    1    2    0    0  0.28187230873E+03 -0.25170567796E+02 -0.35702336076E+03  0.47241532155E+03  0.12500000000E+03 0.  0.
          3    1    1    2  501    0 -0.74926709980E+02 -0.36541209108E+02  0.41508331621E+03  0.42337150498E+03  0.00000000000E+00 0.  1.
         -3    1    1    2    0  503 -0.20694559875E+03  0.61711776904E+02  0.39857569302E+03  0.45331821860E+03  0.00000000000E+00 0. -1.
<mgrwt>
<rscale>  4 0.30164541E+03</rscale>
<asrwt>0</asrwt>
<pdfrwt beam="1">  1       21 0.13890313E+00 0.30164541E+03</pdfrwt>
<pdfrwt beam="2">  1       21 0.68651492E-01 0.30164541E+03</pdfrwt>
<totfact> 0.64217226E+02</totfact>
</mgrwt>
</event>
<event>
 5    0  0.1972558E-002  0.3682060E+03  0.7546771E-02  0.1055381E+00
         21   -1    0    0  501  502  0.00000000000E+00  0.00000000000E+00  0.18681364313E+04  0.18681364313E+04  0.00000000000E+00 0. -1.
         21   -1    0    0  502  503 -0.00000000000E+00 -0.00000000000E+00 -0.10963645824E+03  0.10963645824E+03  0.00000000000E+00 0. -1.
         25    1    1    2    0    0  0.26004262331E+03 -0.25997421322E+03  0.38507051389E+03  0.54691229475E+03  0.12500000000E+03 0.  0.
          1    1    1    2  501    0 -0.24423694108E+03  0.18515813621E+03  0.88702351126E+03  0.93848064888E+03  0.00000000000E+00 0. -1.
         -1    1    1    2    0  503 -0.15805682227E+02  0.74816077017E+02  0.48640594790E+03  0.49237994590E+03  0.00000000000E+00 0.  1.
<mgrwt>
<rscale>  4 0.36820604E+03</rscale>
<asrwt>0</asrwt>
<pdfrwt beam="1">  1       21 0.28740558E+00 0.36820604E+03</pdfrwt>
<pdfrwt beam="2">  1       21 0.16867149E-01 0.36820604E+03</pdfrwt>
<totfact> 0.10870041E+03</totfact>
</mgrwt>
</event>
<event>
 5    0  0.1972558E-002  0.2574069E+03  0.7546771E-02  0.1108711E+00
         21   -1    0    0  501  502  0.00000000000E+00  0.00000000000E+00  0.10966871209E+04  0.10966871209E+04  0.00000000000E+00 0.  1.
         21   -1    0    0  502  503 -0.00000000000E+00 -0.00000000000E+00 -0.31159801506E+03  0.31159801506E+03  0.00000000000E+00 0. -1.
         25    1    1    2    0    0  0.20065332546E+03 -0.44131734693E+02 -0.10227985506E+03  0.26133414583E+03  0.12500000000E+03 0.  0.
          4    1    1    2  501    0  0.54310565545E+02  0.10975750178E+02  0.88811246385E+03  0.88983922878E+03  0.00000000000E+00 0.  1.
         -4    1    1    2    0  503 -0.25496389101E+03  0.33155984515E+02 -0.74350295248E+00  0.25711176135E+03  0.00000000000E+00 0. -1.
<mgrwt>
<rscale>  4 0.25740690E+03</rscale>
<asrwt>0</asrwt>
<pdfrwt beam="1">  1       21 0.16872109E+00 0.25740690E+03</pdfrwt>
<pdfrwt beam="2">  1       21 0.47938157E-01 0.25740690E+03</pdfrwt>
<totfact> 0.85161026E+02</totfact>
</mgrwt>
</event>
<event>
 5    0  0.1972558E-002  0.2592562E+03  0.7546771E-02  0.1107591E+00
         21   -1    0    0  501  502  0.00000000000E+00  0.00000000000E+00  0.12058846354E+04  0.12058846354E+04  0.00000000000E+00 0. -1.
         21   -1    0    0  502  503 -0.00000000000E+00 -0.00000000000E+00 -0.61931294437E+02  0.61931294437E+02  0.00000000000E+00 0. -1.
         25    1    1    2    0    0  0.10289499652E+03  0.19008203895E+03  0.45794492476E+03  0.52159094696E+03  0.12500000000E+03 0.  0.
          3    1    1    2  501    0 -0.89243992440E+02 -0.22172220911E+03  0.46788747428E+03  0.52539881689E+03  0.00000000000E+00 0. -1.
         -3    1    1    2    0  503 -0.13651004078E+02  0.31640170161E+02  0.21812094194E+03  0.22082616601E+03  0.00000000000E+00 0.  1.
<mgrwt>
<rscale>  4 0.25925621E+03</rscale>
<asrwt>0</asrwt>
<pdfrwt beam="1">  1       21 0.18552070E+00 0.25925621E+03</pdfrwt>
<pdfrwt beam="2">  1       21 0.95278923E-02 0.25925621E+03</pdfrwt>
<totfact> 0.14102107E+04</totfact>
</mgrwt>
</event>
<event>
 5    0  0.1972558E-002  0.2365380E+03  0.7546771E-02  0.1122121E+00
         21   -1    0    0  501  502  0.00000000000E+00  0.00000000000E+00  0.49069713788E+03  0.49069713788E+03  0.00000000000E+00 0.  1.
         21   -1    0    0  502  503 -0.00000000000E+00 -0.00000000000E+00 -0.25956992266E+03  0.25956992266E+03  0.00000000000E+00 0.  1.
         25    1    1    2    0    0 -0.22594363192E+02  0.20502747693E+03 -0.16634484558E+03  0.29298870148E+03  0.12500000000E+03 0.  0.
          3    1    1    2  501    0  0.26933464596E+02 -0.17507315818E+03  0.24793732886E+03  0.30471124244E+03  0.00000000000E+00 0.  1.
         -3    1    1    2    0  503 -0.43391014039E+01 -0.29954318749E+02  0.14953473195E+03  0.15256711661E+03  0.00000000000E+00 0. -1.
<mgrwt>
<rscale>  4 0.23653795E+03</rscale>
<asrwt>0</asrwt>
<pdfrwt beam="1">  1       21 0.75491867E-01 0.23653795E+03</pdfrwt>
<pdfrwt beam="2">  1       21 0.39933834E-01 0.23653795E+03</pdfrwt>
<totfact> 0.92011723E+03</totfact>
</mgrwt>
</event>
<event>
 5    0  0.1972558E-002  0.2469142E+03  0.7546771E-02  0.1115271E+00
         21   -1    0    0  501  502  0.00000000000E+00  0.00000000000E+00  0.10054013060E+04  0.10054013060E+04  0.00000000000E+00 0.  1.
         21   -1    0    0  502  503 -0.00000000000E+00 -0.00000000000E+00 -0.18428873645E+03  0.18428873645E+03  0.00000000000E+00 0. -1.
         25    1    1    2    0    0  0.23746565823E+03  0.64108998146E+02 -0.43302351234E+02  0.27928479390E+03  0.12500000000E+03 0.  0.
          1    1    1    2  501    0 -0.13869142525E+03 -0.11198818806E+02  0.25235807184E+03  0.28817585152E+03  0.00000000000E+00 0. -1.
         -1    1    1    2    0  503 -0.98774232977E+02 -0.52910179340E+02  0.61205684899E+03  0.62222939707E+03  0.00000000000E+00 0.  1.
<mgrwt>
<rscale>  4 0.24691423E+03</rscale>
<asrwt>0</asrwt>
<pdfrwt beam="1">  1       21 0.15467712E+00 0.24691423E+03</pdfrwt>
<pdfrwt beam="2">  1       21 0.28352114E-01 0.24691423E+03</pdfrwt>
<totfact> 0.31351506E+03</totfact>
</mgrwt>
</event>
<event>
 5    0  0.1972558E-002  0.2792864E+03  0.7546771E-02  0.1096079E+00
         21   -1    0    0  501  502  0.00000000000E+00  0.00000000000E+00  0.56009147796E+03  0.56009147796E+03  0.00000000000E+00 0. -1.
         21   -1    0    0  502  503 -0.00000000000E+00 -0.00000000000E+00 -0.44768363609E+03  0.44768363609E+03  0.00000000000E+00 0.  1.
         25    1    1    2    0    0  0.25637590860E+03 -0.47225989793E+02 -0.31282842646E+03  0.42596422975E+03  0.12500000000E+03 0.  0.
          1    1    1    2  501    0 -0.37202264947E+02  0.28038797603E+02  0.34421761244E+03  0.34735564973E+03  0.00000000000E+00 0. -1.
         -1    1    1    2    0  503 -0.21917364365E+03  0.19187192190E+02  0.81018655895E+02  0.23445523457E+03  0.00000000000E+00 0.  1.
<mgrwt>
<rscale>  4 0.27928638E+03</rscale>
<asrwt>0</asrwt>
<pdfrwt beam="1">  1       21 0.86167920E-01 0.27928638E+03</pdfrwt>
<pdfrwt beam="2">  1       21 0.68874406E-01 0.27928638E+03</pdfrwt>
<totfact> 0.20883981E+03</totfact>
</mgrwt>
</event>
<event>
 5    0  0.1972558E-002  0.2601514E+03  0.7546771E-02  0.1107052E+00
         21   -1    0    0  501  502  0.00000000000E+00  0.00000000000E+00  0.12414824862E+03  0.12414824862E+03  0.00000000000E+00 0.  1.
         21   -1    0    0  502  503 -0.00000000000E+00 -0.00000000000E+00 -0.81523617036E+03  0.81523617036E+03  0.00000000000E+00 0. -1.
         25    1    1    2    0    0  0.23352553850E+03 -0.80704235054E+01 -0.42790128549E+03  0.50331284405E+03  0.12500000000E+03 0.  0.
          3    1    1    2  501    0 -0.22171855812E+03 -0.39393610567E+02 -0.29981460258E+03  0.37496636048E+03  0.00000000000E+00 0.  1.
         -3    1    1    2    0  503 -0.11806980375E+02  0.47464034073E+02  0.36627966321E+02  0.61105214449E+02  0.00000000000E+00 0. -1.
<mgrwt>
<rscale>  4 0.26015136E+03</rscale>
<asrwt>0</asrwt>
<pdfrwt beam="1">  1       21 0.19099730E-01 0.26015136E+03</pdfrwt>
<pdfrwt beam="2">  1       21 0.12542095E+00 0.26015136E+03</pdfrwt>
<totfact> 0.11402838E+04</totfact>
</mgrwt>
</event>
<event>
 5    0  0.1972558E-002  0.2371128E+03  0.7546771E-02  0.1121731E+00
         21   -1    0    0  501  502  0.00000000000E+00  0.00000000000E+00  0.53293997950E+03  0.53293997950E+03  0.00000000000E+00 0.  1.
         21   -1    0    0  502  503 -0.00000000000E+00 -0.00000000000E+00 -0.72661307085E+03  0.72661307085E+03  0.00000000000E+00 0.  1.
         25    1    1    2    0    0 -0.86315716126E+02 -0.19012938860E+03 -0.62587034849E+03  0.67151938199E+03  0.12500000000E+03 0.  0.
          2    1    1    2  501    0  0.51856397538E+02  0.16371190893E+03  0.19243351596E+02  0.17280330341E+03  0.00000000000E+00 0. -1.
         -2    1    1    2    0  503  0.34459318588E+02  0.26417479668E+02  0.41295390554E+03  0.41523036495E+03  0.00000000000E+00 0.  1.
<mgrwt>
<rscale>  4 0.23711275E+03</rscale>
<asrwt>0</asrwt>
<pdfrwt beam="1">  1       21 0.81990767E-01 0.23711275E+03</pdfrwt>
<pdfrwt beam="2">  1       21 0.11178663E+00 0.23711275E+03</pdfrwt>
<totfact> 0.78282897E+02</totfact>
</mgrwt>
</event>
<event>
 5    0  0.1972558E-002  0.2403080E+03  0.7546771E-02  0.1119588E+00
         21   -1    0    0  501  502  0.00000000000E+00  0.00000000000E+00  0.61276892198E+03  0.61276892198E+03  0.00000000000E+00 0.  1.
         21   -1    0    0  502  503 -0.00000000000E+00 -0.00000000000E+00 -0.29285470287E+03  0.29285470287E+03  0.00000000000E+00 0. -1.
         25    1    1    2    0    0 -0.18860408970E+03  0.10250124975E+03 -0.20459698358E+03  0.32181195525E+03  0.12500000000E+03 0.  0.
          4    1    1    2  501    0  0.13979743334E+03 -0.88715379152E+02  0.22127055781E+03  0.27635918769E+03  0.00000000000E+00 0. -1.
         -4    1    1    2    0  503  0.48806656352E+02 -0.13785870594E+02  0.30324064487E+03  0.30745248192E+03  0.00000000000E+00 0.  1.
<mgrwt>
<rscale>  4 0.24030803E+03</rscale>
<asrwt>0</asrwt>
<pdfrwt beam="1">  1       21 0.94272141E-01 0.24030803E+03</pdfrwt>
<pdfrwt beam="2">  1       21 0.45054570E-01 0.24030803E+03</pdfrwt>
<totfact> 0.43029816E+03</totfact>
</mgrwt>
</event>
<event>
 5    0  0.1972558E-002  0.2507418E+03  0.7546771E-02  0.1112837E+00
         21   -1    0    0  503  502  0.00000000000E+00  0.00000000000E+00  0.73699511590E+03  0.73699511590E+03  0.00000000000E+00 0.  1.
         21   -1    0    0  501  503 -0.00000000000E+00 -0.00000000000E+00 -0.13646632622E+03  0.13646632622E+03  0.00000000000E+00 0.  1.
         25    1    1    2    0    0 -0.21697076223E+03 -0.13043796910E+02  0.20916605360E+02  0.25161271168E+03  0.12500000000E+03 0.  0.
          2    1    1    2  501    0  0.66590944458E+02  0.18133321799E+02  0.12243178497E+03  0.14054434608E+03  0.00000000000E+00 0. -1.
         -2    1    1    2    0  502  0.15037981777E+03 -0.50895248883E+01  0.45718039935E+03  0.48130438436E+03  0.00000000000E+00 0.  1.
<mgrwt>
<rscale>  4 0.25074180E+03</rscale>
<asrwt>0</asrwt>
<pdfrwt beam="1">  1       21 0.11338386E+00 0.25074180E+03</pdfrwt>
<pdfrwt beam="2">  1       21 0.20994820E-01 0.25074180E+03</pdfrwt>
<totfact> 0.12335158E+04</totfact>
</mgrwt>
</event>
<event>
 5    0  0.1972558E-002  0.2868057E+03  0.7546771E-02  0.1092029E+00
         21   -1    0    0  501  502  0.00000000000E+00  0.00000000000E+00  0.10504893040E+04  0.10504893040E+04  0.00000000000E+00 0. -1.
         21   -1    0    0  502  503 -0.00000000000E+00 -0.00000000000E+00 -0.29134404880E+03  0.29134404880E+03  0.00000000000E+00 0.  1.
         25    1    1    2    0    0  0.22248171945E+03  0.12456960994E+03 -0.15602076237E+03  0.32401108237E+03  0.12500000000E+03 0.  0.
          2    1    1    2  501    0 -0.22611329080E+03 -0.15211435770E+03  0.31298524828E+03  0.41500092016E+03  0.00000000000E+00 0.  1.
         -2    1    1    2    0  503  0.36315713499E+01  0.27544747764E+02  0.60218076930E+03  0.60282135028E+03  0.00000000000E+00 0. -1.
<mgrwt>
<rscale>  4 0.28680566E+03</rscale>
<asrwt>0</asrwt>
<pdfrwt beam="1">  1       21 0.16161374E+00 0.28680566E+03</pdfrwt>
<pdfrwt beam="2">  1       21 0.44822162E-01 0.28680566E+03</pdfrwt>
<totfact> 0.10784588E+03</totfact>
</mgrwt>
</event>
<event>
 5    0  0.1972558E-002  0.3143822E+03  0.7546771E-02  0.1078264E+00
         21   -1    0    0  501  502  0.00000000000E+00  0.00000000000E+00  0.14337383193E+03  0.14337383193E+03  0.00000000000E+00 0.  1.
         21   -1    0    0  502  503 -0.00000000000E+00 -0.00000000000E+00 -0.14670302920E+04  0.14670302920E+04  0.00000000000E+00 0.  1.
         25    1    1    2    0    0 -0.14418729860E+03  0.25550208235E+03 -0.57398330984E+03  0.65662251799E+03  0.12500000000E+03 0.  0.
          2    1    1    2  501    0  0.64565965620E+02  0.21797339572E+02  0.62142290670E+02  0.92225550791E+02  0.00000000000E+00 0. -1.
         -2    1    1    2    0  503  0.79621332983E+02 -0.27729942192E+03 -0.81181544093E+03  0.86155605517E+03  0.00000000000E+00 0.  1.
<mgrwt>
<rscale>  4 0.31438217E+03</rscale>
<asrwt>0</asrwt>
<pdfrwt beam="1">  1       21 0.22057513E-01 0.31438217E+03</pdfrwt>
<pdfrwt beam="2">  1       21 0.22569696E+00 0.31438217E+03</pdfrwt>
<totfact> 0.16044155E+03</totfact>
</mgrwt>
</event>
<event>
 5    0  0.1972558E-002  0.2353160E+03  0.7546771E-02  0.1122953E+00
         21   -1    0    0  501  502  0.00000000000E+00  0.00000000000E+00  0.59527074877E+03  0.59527074877E+03  0.00000000000E+00 0.  1.
         21   -1    0    0  502  503 -0.00000000000E+00 -0.00000000000E+00 -0.12727209070E+03  0.12727209070E+03  0.00000000000E+00 0.  1.
         25    1    1    2    0    0  0.19848813162E+03  0.10682247127E+03  0.90696404628E+02  0.27323875379E+03  0.12500000000E+03 0.  0.
          4    1    1    2  501    0 -0.16697840196E+03 -0.96015504031E+02  0.36693314854E+03  0.41441609432E+03  0.00000000000E+00 0.  1.
         -4    1    1    2    0  503 -0.31509729661E+02 -0.10806967238E+02  0.10369104903E+02  0.34887991354E+02  0.00000000000E+00 0. -1.
<mgrwt>
<rscale>  4 0.23531600E+03</rscale>
<asrwt>0</asrwt>
<pdfrwt beam="1">  1       21 0.91580114E-01 0.23531600E+03</pdfrwt>
<pdfrwt beam="2">  1       21 0.19580322E-01 0.23531600E+03</pdfrwt>
<totfact> 0.23660698E+04</totfact>
</mgrwt>
</event>
<event>
 5    0  0.1972558E-002  0.2895093E+03  0.7546771E-02  0.1090606E+00
         21   -1    0    0  501  502  0.00000000000E+00  0.00000000000E+00  0.75407962925E+03  0.75407962925E+03  0.00000000000E+00 0. -1.
         21   -1    0    0  502  503 -0.00000000000E+00 -0.00000000000E+00 -0.75285845390E+03  0.75285845390E+03  0.00000000000E+00 0.  1.
         25    1    1    2    0    0  0.19499798574E+03  0.17392002299E+03 -0.67304340013E+03  0.73272423687E+03  0.12500000000E+03 0.  0.
          2    1    1    2  501    0  0.24520984022E+02 -0.30840818007E+02  0.37243051255E+03  0.37450890696E+03  0.00000000000E+00 0. -1.
         -2    1    1    2    0  503 -0.21951896976E+03 -0.14307920498E+03  0.30183406292E+03  0.39970493933E+03  0.00000000000E+00 0.  1.
<mgrwt>
<rscale>  4 0.28950928E+03</rscale>
<asrwt>0</asrwt>
<pdfrwt beam="1">  1       21 0.11601225E+00 0.28950928E+03</pdfrwt>
<pdfrwt beam="2">  1       21 0.11582438E+00 0.28950928E+03</pdfrwt>
<totfact> 0.30085585E+02</totfact>
</mgrwt>
</event>
<event>
 5    0  0.1972558E-002  0.2505500E+03  0.7546771E-02  0.1112958E+00
         21   -1    0    0  501  502  0.00000000000E+00  0.00000000000E+00  0.57995713212E+03  0.57995713212E+03  0.00000000000E+00 0. -1.
         21   -1    0    0  502  503 -0.00000000000E+00 -0.00000000000E+00 -0.13975204082E+03  0.13975204082E+03  0.00000000000E+00 0. -1.
         25    1    1    2    0    0  0.20832902121E+03  0.61231795656E+02  0.33295711640E+02  0.25275268206E+03  0.12500000000E+03 0.  0.
          2    1    1    2  501    0 -0.16986976724E+03 -0.65599831651E+02  0.27773903103E+03  0.33211149497E+03  0.00000000000E+00 0. -1.
         -2    1    1    2    0  503 -0.38459253967E+02  0.43680359949E+01  0.12917034863E+03  0.13484499590E+03  0.00000000000E+00 0.  1.
<mgrwt>
<rscale>  4 0.25055002E+03</rscale>
<asrwt>0</asrwt>
<pdfrwt beam="1">  1       21 0.89224173E-01 0.25055002E+03</pdfrwt>
<pdfrwt beam="2">  1       21 0.21500314E-01 0.25055002E+03</pdfrwt>
<totfact> 0.20925073E+04</totfact>
</mgrwt>
</event>
<event>
 5    0  0.1972558E-002  0.2454505E+03  0.7546771E-02  0.1116214E+00
         21   -1    0    0  501  502  0.00000000000E+00  0.00000000000E+00  0.28965317437E+03  0.28965317437E+03  0.00000000000E+00 0. -1.
         21   -1    0    0  502  503 -0.00000000000E+00 -0.00000000000E+00 -0.22153112710E+04  0.22153112710E+04  0.00000000000E+00 0. -1.
         25    1    1    2    0    0  0.21277176417E+03  0.94543454680E+01 -0.21267932978E+04  0.21410828895E+04  0.12500000000E+03 0.  0.
          1    1    1    2  501    0 -0.59866295796E+02  0.86888571434E+02  0.18840960343E+02  0.10718478905E+03  0.00000000000E+00 0.  1.
         -1    1    1    2    0  503 -0.15290546838E+03 -0.96342916902E+02  0.18229424077E+03  0.25669676685E+03  0.00000000000E+00 0. -1.
<mgrwt>
<rscale>  4 0.24545050E+03</rscale>
<asrwt>0</asrwt>
<pdfrwt beam="1">  1       21 0.44562024E-01 0.24545050E+03</pdfrwt>
<pdfrwt beam="2">  1       21 0.34081714E+00 0.24545050E+03</pdfrwt>
<totfact> 0.88253150E+01</totfact>
</mgrwt>
</event>
<event>
 5    0  0.1972558E-002  0.2594641E+03  0.7546771E-02  0.1107466E+00
         21   -1    0    0  501  502  0.00000000000E+00  0.00000000000E+00  0.42845298617E+03  0.42845298617E+03  0.00000000000E+00 0.  1.
         21   -1    0    0  502  503 -0.00000000000E+00 -0.00000000000E+00 -0.40300850861E+03  0.40300850861E+03  0.00000000000E+00 0.  1.
         25    1    1    2    0    0  0.32324542995E+02 -0.23496218623E+03 -0.24133012702E+03  0.36071780555E+03  0.12500000000E+03 0.  0.
          4    1    1    2  501    0 -0.14976204919E+03  0.15515647446E+03  0.24617737442E+03  0.32726977041E+03  0.00000000000E+00 0.  1.
         -4    1    1    2    0  503  0.11743750620E+03  0.79805711761E+02  0.20597230156E+02  0.14347391882E+03  0.00000000000E+00 0. -1.
<mgrwt>
<rscale>  4 0.25946415E+03</rscale>
<asrwt>0</asrwt>
<pdfrwt beam="1">  1       21 0.65915844E-01 0.25946415E+03</pdfrwt>
<pdfrwt beam="2">  1       21 0.62001309E-01 0.25946415E+03</pdfrwt>
<totfact> 0.48742131E+03</totfact>
</mgrwt>
</event>
<event>
 5    0  0.1972558E-002  0.3974385E+03  0.7546771E-02  0.1044829E+00
         21   -1    0    0  501  502  0.00000000000E+00  0.00000000000E+00  0.10779532367E+03  0.10779532367E+03  0.00000000000E+00 0.  1.
         21   -1    0    0  502  503 -0.00000000000E+00 -0.00000000000E+00 -0.15702314311E+04  0.15702314311E+04  0.00000000000E+00 0. -1.
         25    1    1    2    0    0  0.26863412658E+03 -0.26216854423E+03 -0.95329581494E+03  0.10321310723E+04  0.12500000000E+03 0.  0.
          4    1    1    2  501    0 -0.26733565748E+03  0.20088415762E+03 -0.40679374742E+03  0.52659657375E+03  0.00000000000E+00 0.  1.
         -4    1    1    2    0  503 -0.12984691045E+01  0.61284386608E+02 -0.10234654511E+03  0.11929910879E+03  0.00000000000E+00 0. -1.
<mgrwt>
<rscale>  4 0.39698517E+03</rscale>
<asrwt>0</asrwt>
<pdfrwt beam="1">  1       21 0.16583896E-01 0.39743854E+03</pdfrwt>
<pdfrwt beam="2">  1       21 0.24157406E+00 0.39743854E+03</pdfrwt>
<totfact> 0.20850196E+03</totfact>
</mgrwt>
</event>
<event>
 5    0  0.1972558E-002  0.2885317E+03  0.7546771E-02  0.1091118E+00
         21   -1    0    0  501  502  0.00000000000E+00  0.00000000000E+00  0.14267692919E+04  0.14267692919E+04  0.00000000000E+00 0. -1.
         21   -1    0    0  502  503 -0.00000000000E+00 -0.00000000000E+00 -0.10854174228E+03  0.10854174228E+03  0.00000000000E+00 0. -1.
         25    1    1    2    0    0  0.64096631283E+02  0.25487943908E+03  0.17416913896E+03  0.33916337594E+03  0.12500000000E+03 0.  0.
          4    1    1    2  501    0 -0.33735221141E+02 -0.20246267790E+01  0.53397168100E+03  0.53504011099E+03  0.00000000000E+00 0.  1.
         -4    1    1    2    0  503 -0.30361410142E+02 -0.25285481230E+03  0.61008672970E+03  0.66110754729E+03  0.00000000000E+00 0. -1.
<mgrwt>
<rscale>  4 0.28853167E+03</rscale>
<asrwt>0</asrwt>
<pdfrwt beam="1">  1       21 0.21950295E+00 0.28853167E+03</pdfrwt>
<pdfrwt beam="2">  1       21 0.16698731E-01 0.28853167E+03</pdfrwt>
<totfact> 0.30119657E+03</totfact>
</mgrwt>
</event>
<event>
 5    0  0.1972558E-002  0.3134449E+03  0.7546771E-02  0.1078706E+00
         21   -1    0    0  503  502  0.00000000000E+00  0.00000000000E+00  0.55773239900E+03  0.55773239900E+03  0.00000000000E+00 0.  1.
         21   -1    0    0  501  503 -0.00000000000E+00 -0.00000000000E+00 -0.21484686307E+03  0.21484686307E+03  0.00000000000E+00 0.  1.
         25    1    1    2    0    0 -0.61272673731E+02  0.29135166431E+03  0.49251176942E+02  0.32663559401E+03  0.12500000000E+03 0.  0.
          2    1    1    2  501    0  0.46930157129E+02 -0.17036488824E+02  0.93784557001E+02  0.10624605749E+03  0.00000000000E+00 0. -1.
         -2    1    1    2    0  502  0.14342516603E+02 -0.27431517548E+03  0.19984980198E+03  0.33969761058E+03  0.00000000000E+00 0.  1.
<mgrwt>
<rscale>  4 0.31344494E+03</rscale>
<asrwt>0</asrwt>
<pdfrwt beam="1">  1       21 0.85804984E-01 0.31344494E+03</pdfrwt>
<pdfrwt beam="2">  1       21 0.33053364E-01 0.31344494E+03</pdfrwt>
<totfact> 0.96605822E+03</totfact>
</mgrwt>
</event>
<event>
 5    0  0.1972558E-002  0.2609103E+03  0.7546771E-02  0.1106598E+00
         21   -1    0    0  501  502  0.00000000000E+00  0.00000000000E+00  0.12155854369E+03  0.12155854369E+03  0.00000000000E+00 0.  1.
         21   -1    0    0  502  503 -0.00000000000E+00 -0.00000000000E+00 -0.14125032677E+04  0.14125032677E+04  0.00000000000E+00 0.  1.
         25    1    1    2    0    0 -0.22309215956E+03  0.11807442901E+03 -0.94206901780E+03  0.98327550398E+03  0.12500000000E+03 0.  0.
          3    1    1    2  501    0  0.12049603143E+03  0.73893393207E+02 -0.21070867197E+01  0.14136465953E+03  0.00000000000E+00 0.  1.
         -3    1    1    2    0  503  0.10259612812E+03 -0.19196782221E+03 -0.34676861947E+03  0.40942164784E+03  0.00000000000E+00 0. -1.
<mgrwt>
<rscale>  4 0.26091034E+03</rscale>
<asrwt>0</asrwt>
<pdfrwt beam="1">  1       21 0.18701314E-01 0.26091034E+03</pdfrwt>
<pdfrwt beam="2">  1       21 0.21730820E+00 0.26091034E+03</pdfrwt>
<totfact> 0.25696380E+03</totfact>
</mgrwt>
</event>
<event>
 5    0  0.1972558E-002  0.2756764E+03  0.7546771E-02  0.1098074E+00
         21   -1    0    0  501  502  0.00000000000E+00  0.00000000000E+00  0.88899402611E+03  0.88899402611E+03  0.00000000000E+00 0. -1.
         21   -1    0    0  502  503 -0.00000000000E+00 -0.00000000000E+00 -0.22389524586E+03  0.22389524586E+03  0.00000000000E+00 0.  1.
         25    1    1    2    0    0 -0.85283686310E+02  0.34171938367E+03  0.14546396163E+03  0.40103641787E+03  0.12500000000E+03 0.  0.
          2    1    1    2  501    0  0.14448736060E+03 -0.17805122369E+03  0.48202966925E+03  0.53378969423E+03  0.00000000000E+00 0. -1.
         -2    1    1    2    0  503 -0.59203674289E+02 -0.16366815998E+03  0.37605149368E+02  0.17806315986E+03  0.00000000000E+00 0.  1.
<mgrwt>
<rscale>  4 0.27567645E+03</rscale>
<asrwt>0</asrwt>
<pdfrwt beam="1">  1       21 0.13676831E+00 0.27567645E+03</pdfrwt>
<pdfrwt beam="2">  1       21 0.34445423E-01 0.27567645E+03</pdfrwt>
<totfact> 0.28982343E+03</totfact>
</mgrwt>
</event>
<event>
 5    0  0.1972558E-002  0.3134794E+03  0.7546771E-02  0.1078690E+00
         21   -1    0    0  501  502  0.00000000000E+00  0.00000000000E+00  0.46243478828E+03  0.46243478828E+03  0.00000000000E+00 0. -1.
         21   -1    0    0  502  503 -0.00000000000E+00 -0.00000000000E+00 -0.30668815199E+03  0.30668815199E+03  0.00000000000E+00 0. -1.
         25    1    1    2    0    0 -0.27903680782E+03  0.80433433117E+01 -0.87331641435E+02  0.31808497463E+03  0.12500000000E+03 0.  0.
          2    1    1    2  501    0  0.30318699605E+03 -0.20723060987E+02  0.12290335227E+03  0.32780639688E+03  0.00000000000E+00 0. -1.
         -2    1    1    2    0  503 -0.24150188234E+02  0.12679717676E+02  0.12017492545E+03  0.12323156876E+03  0.00000000000E+00 0.  1.
<mgrwt>
<rscale>  4 0.31347937E+03</rscale>
<asrwt>0</asrwt>
<pdfrwt beam="1">  1       21 0.71143814E-01 0.31347937E+03</pdfrwt>
<pdfrwt beam="2">  1       21 0.47182793E-01 0.31347937E+03</pdfrwt>
<totfact> 0.71619752E+03</totfact>
</mgrwt>
</event>
<event>
 5    0  0.1972558E-002  0.2731500E+03  0.7546771E-02  0.1099490E+00
         21   -1    0    0  503  502  0.00000000000E+00  0.00000000000E+00  0.31403605990E+03  0.31403605990E+03  0.00000000000E+00 0. -1.
         21   -1    0    0  501  503 -0.00000000000E+00 -0.00000000000E+00 -0.33339096210E+03  0.33339096210E+03  0.00000000000E+00 0. -1.
         25    1    1    2    0    0  0.71646924677E+02  0.23544644776E+03 -0.16504711196E+03  0.32161135046E+03  0.12500000000E+03 0.  0.
          3    1    1    2  501    0 -0.34321894275E+02  0.41768273704E+01 -0.11935308756E+02  0.36577177428E+02  0.00000000000E+00 0.  1.
         -3    1    1    2    0  502 -0.37325030403E+02 -0.23962327513E+03  0.15762751852E+03  0.28923849411E+03  0.00000000000E+00 0. -1.
<mgrwt>
<rscale>  4 0.27315002E+03</rscale>
<asrwt>0</asrwt>
<pdfrwt beam="1">  1       21 0.48313240E-01 0.27315002E+03</pdfrwt>
<pdfrwt beam="2">  1       21 0.51290917E-01 0.27315002E+03</pdfrwt>
<totfact> 0.14137735E+04</totfact>
</mgrwt>
</event>
<event>
 5    0  0.1972558E-002  0.1902010E+03  0.7546771E-02  0.1158280E+00
         21   -1    0    0  501  502  0.00000000000E+00  0.00000000000E+00  0.10806530519E+03  0.10806530519E+03  0.00000000000E+00 0.  1.
         21   -1    0    0  502  503 -0.00000000000E+00 -0.00000000000E+00 -0.94448992006E+03  0.94448992006E+03  0.00000000000E+00 0. -1.
         25    1    1    2    0    0 -0.20827226960E+03 -0.97055124512E+02 -0.62597290194E+03  0.67842767444E+03  0.12500000000E+03 0.  0.
          3    1    1    2  501    0  0.13219151300E+03  0.28504412717E+02  0.52694749917E+01  0.13533242412E+03  0.00000000000E+00 0.  1.
         -3    1    1    2    0  503  0.76080756607E+02  0.68550711795E+02 -0.21572118791E+03  0.23879512668E+03  0.00000000000E+00 0. -1.
<mgrwt>
<rscale>  4 0.19020104E+03</rscale>
<asrwt>0</asrwt>
<pdfrwt beam="1">  1       21 0.16625432E-01 0.19020104E+03</pdfrwt>
<pdfrwt beam="2">  1       21 0.14530614E+00 0.19020104E+03</pdfrwt>
<totfact> 0.10578245E+04</totfact>
</mgrwt>
</event>
<event>
 5    0  0.1972558E-002  0.2335064E+03  0.7546771E-02  0.1124196E+00
         21   -1    0    0  501  502  0.00000000000E+00  0.00000000000E+00  0.74567122634E+03  0.74567122634E+03  0.00000000000E+00 0.  1.
         21   -1    0    0  502  503 -0.00000000000E+00 -0.00000000000E+00 -0.14022869432E+03  0.14022869432E+03  0.00000000000E+00 0.  1.
         25    1    1    2    0    0  0.16124820651E+03 -0.12703922153E+03  0.60792152366E+02  0.24791255252E+03  0.12500000000E+03 0.  0.
          1    1    1    2  501    0 -0.43631889912E+02 -0.22035121517E+02  0.39011428494E+03  0.39316465217E+03  0.00000000000E+00 0.  1.
         -1    1    1    2    0  503 -0.11761631659E+03  0.14907434305E+03  0.15453609472E+03  0.24482271597E+03  0.00000000000E+00 0. -1.
<mgrwt>
<rscale>  4 0.23350640E+03</rscale>
<asrwt>0</asrwt>
<pdfrwt beam="1">  1       21 0.11471865E+00 0.23350640E+03</pdfrwt>
<pdfrwt beam="2">  1       21 0.21573646E-01 0.23350640E+03</pdfrwt>
<totfact> 0.11498210E+04</totfact>
</mgrwt>
</event>
<event>
 5    0  0.1972558E-002  0.2472031E+03  0.7546771E-02  0.1115085E+00
         21   -1    0    0  501  502  0.00000000000E+00  0.00000000000E+00  0.42716964417E+03  0.42716964417E+03  0.00000000000E+00 0. -1.
         21   -1    0    0  502  503 -0.00000000000E+00 -0.00000000000E+00 -0.34172986382E+03  0.34172986382E+03  0.00000000000E+00 0. -1.
         25    1    1    2    0    0  0.14992287940E+03 -0.14996140487E+03 -0.10582518586E+03  0.26793518373E+03  0.12500000000E+03 0.  0.
          4    1    1    2  501    0 -0.16555073664E+03  0.13694593007E+03 -0.79758964309E+02  0.22917837279E+03  0.00000000000E+00 0.  1.
         -4    1    1    2    0  503  0.15627857243E+02  0.13015474796E+02  0.27102393052E+03  0.27178595148E+03  0.00000000000E+00 0. -1.
<mgrwt>
<rscale>  4 0.24720313E+03</rscale>
<asrwt>0</asrwt>
<pdfrwt beam="1">  1       21 0.65718407E-01 0.24720313E+03</pdfrwt>
<pdfrwt beam="2">  1       21 0.52573825E-01 0.24720313E+03</pdfrwt>
<totfact> 0.70387776E+03</totfact>
</mgrwt>
</event>
<event>
 5    0  0.1972558E-002  0.2418046E+03  0.7546771E-02  0.1118596E+00
         21   -1    0    0  501  502  0.00000000000E+00  0.00000000000E+00  0.32580893804E+03  0.32580893804E+03  0.00000000000E+00 0.  1.
         21   -1    0    0  502  503 -0.00000000000E+00 -0.00000000000E+00 -0.23043819799E+03  0.23043819799E+03  0.00000000000E+00 0.  1.
         25    1    1    2    0    0  0.10671159574E+03 -0.19356369238E+03  0.15291339074E+03  0.29641486592E+03  0.12500000000E+03 0.  0.
          4    1    1    2  501    0 -0.24121951411E+02  0.81389476754E+01  0.29503999364E+02  0.38969179971E+02  0.00000000000E+00 0. -1.
         -4    1    1    2    0  503 -0.82589644332E+02  0.18542474470E+03 -0.87046650046E+02  0.22086309013E+03  0.00000000000E+00 0.  1.
<mgrwt>
<rscale>  4 0.24180460E+03</rscale>
<asrwt>0</asrwt>
<pdfrwt beam="1">  1       21 0.50124452E-01 0.24180460E+03</pdfrwt>
<pdfrwt beam="2">  1       21 0.35452030E-01 0.24180460E+03</pdfrwt>
<totfact> 0.28351920E+04</totfact>
</mgrwt>
</event>
<event>
 5    0  0.1972558E-002  0.3570461E+03  0.7546771E-02  0.1059760E+00
         21   -1    0    0  501  502  0.00000000000E+00  0.00000000000E+00  0.10171889272E+04  0.10171889272E+04  0.00000000000E+00 0.  1.
         21   -1    0    0  502  503 -0.00000000000E+00 -0.00000000000E+00 -0.24500060315E+03  0.24500060315E+03  0.00000000000E+00 0. -1.
         25    1    1    2    0    0 -0.89843879656E+02 -0.33237363515E+03 -0.36563271160E+02  0.36811143537E+03  0.12500000000E+03 0.  0.
          4    1    1    2  501    0  0.10544700947E+03  0.28287690288E+03  0.52491812536E+03  0.60553897672E+03  0.00000000000E+00 0.  1.
         -4    1    1    2    0  503 -0.15603129814E+02  0.49496732262E+02  0.28383346983E+03  0.28853911825E+03  0.00000000000E+00 0. -1.
<mgrwt>
<rscale>  4 0.35704608E+03</rscale>
<asrwt>0</asrwt>
<pdfrwt beam="1">  1       21 0.15649060E+00 0.35704608E+03</pdfrwt>
<pdfrwt beam="2">  1       21 0.37692401E-01 0.35704608E+03</pdfrwt>
<totfact> 0.16109724E+03</totfact>
</mgrwt>
</event>
<event>
 5    0  0.1972558E-002  0.3289449E+03  0.7546771E-02  0.1071605E+00
         21   -1    0    0  501  502  0.00000000000E+00  0.00000000000E+00  0.75841881444E+03  0.75841881444E+03  0.00000000000E+00 0.  1.
         21   -1    0    0  502  503 -0.00000000000E+00 -0.00000000000E+00 -0.14638658787E+04  0.14638658787E+04  0.00000000000E+00 0. -1.
         25    1    1    2    0    0 -0.28680623708E+03  0.11232263979E+03 -0.13901535599E+04  0.14293446446E+04  0.12500000000E+03 0.  0.
          3    1    1    2  501    0  0.63351830222E+02 -0.43752512290E+01  0.43951874578E+03  0.44408256564E+03  0.00000000000E+00 0.  1.
         -3    1    1    2    0  503  0.22345440686E+03 -0.10794738856E+03  0.24518774988E+03  0.34885748284E+03  0.00000000000E+00 0. -1.
<mgrwt>
<rscale>  4 0.32894492E+03</rscale>
<asrwt>0</asrwt>
<pdfrwt beam="1">  1       21 0.11667982E+00 0.32894492E+03</pdfrwt>
<pdfrwt beam="2">  1       21 0.22521013E+00 0.32894492E+03</pdfrwt>
<totfact> 0.44923645E+01</totfact>
</mgrwt>
</event>
<event>
 5    0  0.1972558E-002  0.2475205E+03  0.7546771E-02  0.1114882E+00
         21   -1    0    0  501  502  0.00000000000E+00  0.00000000000E+00  0.78005100863E+02  0.78005100863E+02  0.00000000000E+00 0.  1.
         21   -1    0    0  502  503 -0.00000000000E+00 -0.00000000000E+00 -0.11616603481E+04  0.11616603481E+04  0.00000000000E+00 0.  1.
         25    1    1    2    0    0  0.21413792309E+03 -0.85475309042E+02 -0.28387001953E+03  0.38648190973E+03  0.12500000000E+03 0.  0.
          4    1    1    2  501    0 -0.86090754830E+01  0.43386511873E+02 -0.25665357741E+02  0.51139184401E+02  0.00000000000E+00 0. -1.
         -4    1    1    2    0  503 -0.20552884761E+03  0.42088797169E+02 -0.77411986999E+03  0.80204435485E+03  0.00000000000E+00 0.  1.
<mgrwt>
<rscale>  4 0.24752053E+03</rscale>
<asrwt>0</asrwt>
<pdfrwt beam="1">  1       21 0.12000786E-01 0.24752053E+03</pdfrwt>
<pdfrwt beam="2">  1       21 0.17871696E+00 0.24752053E+03</pdfrwt>
<totfact> 0.10470841E+04</totfact>
</mgrwt>
</event>
<event>
 5    0  0.1972558E-002  0.2427991E+03  0.7546771E-02  0.1117942E+00
         21   -1    0    0  501  502  0.00000000000E+00  0.00000000000E+00  0.23246395406E+03  0.23246395406E+03  0.00000000000E+00 0.  1.
         21   -1    0    0  502  503 -0.00000000000E+00 -0.00000000000E+00 -0.53860561303E+03  0.53860561303E+03  0.00000000000E+00 0. -1.
         25    1    1    2    0    0  0.14794341070E+03 -0.14058699275E+03 -0.35076855216E+03  0.42463576449E+03  0.12500000000E+03 0.  0.
          1    1    1    2  501    0 -0.91664383622E+01 -0.27500664068E+02  0.11404642223E+03  0.11767283689E+03  0.00000000000E+00 0.  1.
         -1    1    1    2    0  503 -0.13877697234E+03  0.16808765682E+03 -0.69419529043E+02  0.22876096572E+03  0.00000000000E+00 0. -1.
<mgrwt>
<rscale>  4 0.24279907E+03</rscale>
<asrwt>0</asrwt>
<pdfrwt beam="1">  1       21 0.35763686E-01 0.24279907E+03</pdfrwt>
<pdfrwt beam="2">  1       21 0.82862400E-01 0.24279907E+03</pdfrwt>
<totfact> 0.92681890E+03</totfact>
</mgrwt>
</event>
<event>
 5    0  0.1972558E-002  0.2498898E+03  0.7546771E-02  0.1113375E+00
         21   -1    0    0  501  502  0.00000000000E+00  0.00000000000E+00  0.20063763991E+03  0.20063763991E+03  0.00000000000E+00 0.  1.
         21   -1    0    0  502  503 -0.00000000000E+00 -0.00000000000E+00 -0.39564495585E+03  0.39564495585E+03  0.00000000000E+00 0.  1.
         25    1    1    2    0    0 -0.37117957512E+01  0.21634720030E+03 -0.26277688082E+03  0.36262456839E+03  0.12500000000E+03 0.  0.
          2    1    1    2  501    0  0.13814397911E+02 -0.19219522576E+03  0.74557867190E+02  0.20661248257E+03  0.00000000000E+00 0.  1.
         -2    1    1    2    0  503 -0.10102602160E+02 -0.24151974542E+02 -0.67883023098E+01  0.27045544789E+02  0.00000000000E+00 0. -1.
<mgrwt>
<rscale>  4 0.24988975E+03</rscale>
<asrwt>0</asrwt>
<pdfrwt beam="1">  1       21 0.30867330E-01 0.24988975E+03</pdfrwt>
<pdfrwt beam="2">  1       21 0.60868454E-01 0.24988975E+03</pdfrwt>
<totfact> 0.24575021E+04</totfact>
</mgrwt>
</event>
<event>
 5    0  0.1972558E-002  0.2785746E+03  0.7546771E-02  0.1096470E+00
         21   -1    0    0  503  502  0.00000000000E+00  0.00000000000E+00  0.12050344475E+04  0.12050344475E+04  0.00000000000E+00 0.  1.
         21   -1    0    0  501  503 -0.00000000000E+00 -0.00000000000E+00 -0.26038413483E+03  0.26038413483E+03  0.00000000000E+00 0. -1.
         25    1    1    2    0    0 -0.16730850609E+03 -0.23596519667E+03 -0.12599405294E+03  0.33936884304E+03  0.12500000000E+03 0.  0.
          1    1    1    2  501    0  0.24426870419E+02  0.35119703630E+02  0.20631169802E+02  0.47494323334E+02  0.00000000000E+00 0. -1.
         -1    1    1    2    0  502  0.14288163567E+03  0.20084549304E+03  0.10500131958E+04  0.10785554160E+04  0.00000000000E+00 0.  1.
<mgrwt>
<rscale>  4 0.27857461E+03</rscale>
<asrwt>0</asrwt>
<pdfrwt beam="1">  1       21 0.18538991E+00 0.27857461E+03</pdfrwt>
<pdfrwt beam="2">  1       21 0.40059098E-01 0.27857461E+03</pdfrwt>
<totfact> 0.92796013E+02</totfact>
</mgrwt>
</event>
<event>
 5    0  0.1972558E-002  0.3444730E+03  0.7546771E-02  0.1064907E+00
         21   -1    0    0  501  502  0.00000000000E+00  0.00000000000E+00  0.13769560228E+04  0.13769560228E+04  0.00000000000E+00 0. -1.
         21   -1    0    0  502  503 -0.00000000000E+00 -0.00000000000E+00 -0.28439232938E+03  0.28439232938E+03  0.00000000000E+00 0. -1.
         25    1    1    2    0    0 -0.12066623721E+03 -0.17358590190E+03 -0.11914580269E+03  0.27297092965E+03  0.12500000000E+03 0.  0.
          3    1    1    2  501    0  0.25338942094E+03  0.21833454669E+03  0.12023434281E+04  0.12480007580E+04  0.00000000000E+00 0. -1.
         -3    1    1    2    0  503 -0.13272318373E+03 -0.44748644797E+02  0.93660680240E+01  0.14037666452E+03  0.00000000000E+00 0.  1.
<mgrwt>
<rscale>  4 0.34447300E+03</rscale>
<asrwt>0</asrwt>
<pdfrwt beam="1">  1       21 0.21183938E+00 0.34447300E+03</pdfrwt>
<pdfrwt beam="2">  1       21 0.43752667E-01 0.34447300E+03</pdfrwt>
<totfact> 0.49413196E+02</totfact>
</mgrwt>
</event>
<event>
 5    0  0.1972558E-002  0.1845032E+03  0.7546771E-02  0.1163515E+00
         21   -1    0    0  501  502  0.00000000000E+00  0.00000000000E+00  0.30308729884E+03  0.30308729884E+03  0.00000000000E+00 0. -1.
         21   -1    0    0  502  503 -0.00000000000E+00 -0.00000000000E+00 -0.73354999351E+03  0.73354999351E+03  0.00000000000E+00 0. -1.
         25    1    1    2    0    0 -0.21332173255E+03 -0.79299806711E+02 -0.39213414130E+03  0.47030713975E+03  0.12500000000E+03 0.  0.
          1    1    1    2  501    0  0.80758913328E+02  0.83668536019E+02 -0.27301976815E+03  0.29675279241E+03  0.00000000000E+00 0. -1.
         -1    1    1    2    0  503  0.13256281923E+03 -0.43687293083E+01  0.23469121477E+03  0.26957736019E+03  0.00000000000E+00 0.  1.
<mgrwt>
<rscale>  4 0.18450319E+03</rscale>
<asrwt>0</asrwt>
<pdfrwt beam="1">  1       21 0.46628816E-01 0.18450319E+03</pdfrwt>
<pdfrwt beam="2">  1       21 0.11285384E+00 0.18450319E+03</pdfrwt>
<totfact> 0.27228697E+03</totfact>
</mgrwt>
</event>
<event>
 5    0  0.1972558E-002  0.3459199E+03  0.7546771E-02  0.1064302E+00
         21   -1    0    0  501  502  0.00000000000E+00  0.00000000000E+00  0.32355213884E+03  0.32355213884E+03  0.00000000000E+00 0. -1.
         21   -1    0    0  502  503 -0.00000000000E+00 -0.00000000000E+00 -0.12680583331E+04  0.12680583331E+04  0.00000000000E+00 0.  1.
         25    1    1    2    0    0  0.18297531950E+03 -0.28903531063E+03 -0.96706475198E+03  0.10333734140E+04  0.12500000000E+03 0.  0.
          4    1    1    2  501    0 -0.15617670161E+03  0.23124243691E+03 -0.18917869146E+03  0.33712431544E+03  0.00000000000E+00 0.  1.
         -4    1    1    2    0  503 -0.26798617888E+02  0.57792873723E+02  0.21173724920E+03  0.22111274245E+03  0.00000000000E+00 0. -1.
<mgrwt>
<rscale>  4 0.34591985E+03</rscale>
<asrwt>0</asrwt>
<pdfrwt beam="1">  1       21 0.49777251E-01 0.34591985E+03</pdfrwt>
<pdfrwt beam="2">  1       21 0.19508590E+00 0.34591985E+03</pdfrwt>
<totfact> 0.48500501E+02</totfact>
</mgrwt>
</event>
<event>
 5    0  0.1972558E-002  0.2379839E+03  0.7546771E-02  0.1121143E+00
         21   -1    0    0  501  502  0.00000000000E+00  0.00000000000E+00  0.13327966800E+04  0.13327966800E+04  0.00000000000E+00 0.  1.
         21   -1    0    0  502  503 -0.00000000000E+00 -0.00000000000E+00 -0.68518677807E+02  0.68518677807E+02  0.00000000000E+00 0. -1.
         25    1    1    2    0    0 -0.84559563964E+02  0.18669349266E+03  0.31822474244E+03  0.39861857303E+03  0.12500000000E+03 0.  0.
          3    1    1    2  501    0  0.42706213940E+02  0.11353462986E+02  0.60121767596E+03  0.60283946098E+03  0.00000000000E+00 0.  1.
         -3    1    1    2    0  503  0.41853350024E+02 -0.19804695565E+03  0.34483558381E+03  0.39985732382E+03  0.00000000000E+00 0. -1.
<mgrwt>
<rscale>  4 0.23798394E+03</rscale>
<asrwt>0</asrwt>
<pdfrwt beam="1">  1       21 0.20504562E+00 0.23798394E+03</pdfrwt>
<pdfrwt beam="2">  1       21 0.10541336E-01 0.23798394E+03</pdfrwt>
<totfact> 0.88876638E+03</totfact>
</mgrwt>
</event>
<event>
 5    0  0.1972558E-002  0.3040969E+03  0.7546771E-02  0.1083210E+00
         21   -1    0    0  501  502  0.00000000000E+00  0.00000000000E+00  0.16150938686E+04  0.16150938686E+04  0.00000000000E+00 0. -1.
         21   -1    0    0  502  503 -0.00000000000E+00 -0.00000000000E+00 -0.91945127066E+02  0.91945127066E+02  0.00000000000E+00 0. -1.
         25    1    1    2    0    0  0.12957340614E+03 -0.25559831996E+03  0.44794760025E+03  0.54626167842E+03  0.12500000000E+03 0.  0.
          3    1    1    2  501    0 -0.39529451118E+02  0.86938763206E+00  0.68517183826E+03  0.68631172312E+03  0.00000000000E+00 0.  1.
         -3    1    1    2    0  503 -0.90043955018E+02  0.25472893232E+03  0.39002930304E+03  0.47446559415E+03  0.00000000000E+00 0. -1.
<mgrwt>
<rscale>  4 0.30409689E+03</rscale>
<asrwt>0</asrwt>
<pdfrwt beam="1">  1       21 0.24847596E+00 0.30409689E+03</pdfrwt>
<pdfrwt beam="2">  1       21 0.14145405E-01 0.30409689E+03</pdfrwt>
<totfact> 0.26863387E+03</totfact>
</mgrwt>
</event>
<event>
 5    0  0.1972558E-002  0.2827946E+03  0.7546771E-02  0.1094172E+00
         21   -1    0    0  503  502  0.00000000000E+00  0.00000000000E+00  0.15648354102E+04  0.15648354102E+04  0.00000000000E+00 0.  1.
         21   -1    0    0  501  503 -0.00000000000E+00 -0.00000000000E+00 -0.17573851081E+03  0.17573851081E+03  0.00000000000E+00 0. -1.
         25    1    1    2    0    0 -0.26025630269E+03  0.69582084611E+02 -0.10869542011E+01  0.29698685335E+03  0.12500000000E+03 0.  0.
          2    1    1    2  501    0  0.19383135151E+03 -0.79239817423E+02  0.40330046149E+03  0.45442359504E+03  0.00000000000E+00 0.  1.
         -2    1    1    2    0  502  0.66424951180E+02  0.96577328114E+01  0.98688339208E+03  0.98916347259E+03  0.00000000000E+00 0. -1.
<mgrwt>
<rscale>  4 0.28279464E+03</rscale>
<asrwt>0</asrwt>
<pdfrwt beam="1">  1       21 0.24074390E+00 0.28279464E+03</pdfrwt>
<pdfrwt beam="2">  1       21 0.27036695E-01 0.28279464E+03</pdfrwt>
<totfact> 0.89734084E+02</totfact>
</mgrwt>
</event>
<event>
 5    0  0.1972558E-002  0.2926423E+03  0.7546771E-02  0.1088978E+00
         21   -1    0    0  501  502  0.00000000000E+00  0.00000000000E+00  0.82199820111E+02  0.82199820111E+02  0.00000000000E+00 0. -1.
         21   -1    0    0  502  503 -0.00000000000E+00 -0.00000000000E+00 -0.22723616530E+04  0.22723616530E+04  0.00000000000E+00 0.  1.
         25    1    1    2    0    0  0.25101641588E+03 -0.59491208045E+02 -0.63386437193E+03  0.69567053041E+03  0.12500000000E+03 0.  0.
          4    1    1    2  501    0 -0.26530169436E+03  0.33401157313E+02 -0.15909261998E+04  0.16132410853E+04  0.00000000000E+00 0.  1.
         -4    1    1    2    0  503  0.14285278477E+02  0.26090050732E+02  0.34628738788E+02  0.45649857375E+02  0.00000000000E+00 0. -1.
<mgrwt>
<rscale>  4 0.29264230E+03</rscale>
<asrwt>0</asrwt>
<pdfrwt beam="1">  1       21 0.12646128E-01 0.29264230E+03</pdfrwt>
<pdfrwt beam="2">  1       21 0.34959406E+00 0.29264230E+03</pdfrwt>
<totfact> 0.83445716E+02</totfact>
</mgrwt>
</event>
<event>
 5    0  0.1972558E-002  0.2274025E+03  0.7546771E-02  0.1128481E+00
         21   -1    0    0  501  502  0.00000000000E+00  0.00000000000E+00  0.86904352232E+02  0.86904352232E+02  0.00000000000E+00 0. -1.
         21   -1    0    0  502  503 -0.00000000000E+00 -0.00000000000E+00 -0.11192971665E+04  0.11192971665E+04  0.00000000000E+00 0. -1.
         25    1    1    2    0    0  0.59881613210E+02 -0.21083858715E+03 -0.59168994969E+03  0.64324234468E+03  0.12500000000E+03 0.  0.
          4    1    1    2  501    0 -0.19416205123E+02  0.17231301428E+03 -0.46921591254E+03  0.50023228254E+03  0.00000000000E+00 0. -1.
         -4    1    1    2    0  503 -0.40465408087E+02  0.38525572866E+02  0.28513047951E+02  0.62726891520E+02  0.00000000000E+00 0.  1.
<mgrwt>
<rscale>  4 0.22740252E+03</rscale>
<asrwt>0</asrwt>
<pdfrwt beam="1">  1       21 0.13369900E-01 0.22740252E+03</pdfrwt>
<pdfrwt beam="2">  1       21 0.17219957E+00 0.22740252E+03</pdfrwt>
<totfact> 0.96945695E+03</totfact>
</mgrwt>
</event>
<event>
 5    0  0.1972558E-002  0.2006392E+03  0.7546771E-02  0.1149201E+00
         21   -1    0    0  501  502  0.00000000000E+00  0.00000000000E+00  0.15328702944E+03  0.15328702944E+03  0.00000000000E+00 0.  1.
         21   -1    0    0  502  503 -0.00000000000E+00 -0.00000000000E+00 -0.45245173300E+03  0.45245173300E+03  0.00000000000E+00 0.  1.
         25    1    1    2    0    0 -0.11678143216E+03  0.18284855487E+03 -0.88868787380E+02  0.26569561209E+03  0.12500000000E+03 0.  0.
          4    1    1    2  501    0  0.46230491040E+02 -0.72656456744E+02 -0.18871129401E+03  0.20743232992E+03  0.00000000000E+00 0.  1.
         -4    1    1    2    0  503  0.70550941119E+02 -0.11019209812E+03 -0.21584622169E+02  0.13261082043E+03  0.00000000000E+00 0. -1.
<mgrwt>
<rscale>  4 0.20063915E+03</rscale>
<asrwt>0</asrwt>
<pdfrwt beam="1">  1       21 0.23582620E-01 0.20063915E+03</pdfrwt>
<pdfrwt beam="2">  1       21 0.69607958E-01 0.20063915E+03</pdfrwt>
<totfact> 0.31614607E+04</totfact>
</mgrwt>
</event>
<event>
 5    0  0.1972558E-002  0.4425450E+03  0.7546771E-02  0.1029969E+00
         21   -1    0    0  503  502  0.00000000000E+00  0.00000000000E+00  0.15067353099E+03  0.15067353099E+03  0.00000000000E+00 0.  1.
         21   -1    0    0  501  503 -0.00000000000E+00 -0.00000000000E+00 -0.19295622708E+04  0.19295622708E+04  0.00000000000E+00 0.  1.
         25    1    1    2    0    0  0.24877360891E+03  0.32346476298E+03 -0.11545467144E+04  0.12309024645E+04  0.12500000000E+03 0.  0.
          2    1    1    2  501    0 -0.35775668194E+02  0.96795707936E+02 -0.13648562928E+03  0.17110708492E+03  0.00000000000E+00 0. -1.
         -2    1    1    2    0  502 -0.21299794072E+03 -0.42026047092E+03 -0.48785639611E+03  0.67822625236E+03  0.00000000000E+00 0.  1.
<mgrwt>
<rscale>  4 0.44254504E+03</rscale>
<asrwt>0</asrwt>
<pdfrwt beam="1">  1       21 0.23180545E-01 0.44254504E+03</pdfrwt>
<pdfrwt beam="2">  1       21 0.29685572E+00 0.44254504E+03</pdfrwt>
<totfact> 0.49869515E+02</totfact>
</mgrwt>
</event>
<event>
 5    0  0.1972558E-002  0.2370059E+03  0.7546771E-02  0.1121804E+00
         21   -1    0    0  501  502  0.00000000000E+00  0.00000000000E+00  0.10426152089E+04  0.10426152089E+04  0.00000000000E+00 0. -1.
         21   -1    0    0  502  503 -0.00000000000E+00 -0.00000000000E+00 -0.91788821716E+02  0.91788821716E+02  0.00000000000E+00 0.  1.
         25    1    1    2    0    0  0.13472764601E+02 -0.20932948781E+03  0.13615052067E+03  0.27957523876E+03  0.12500000000E+03 0.  0.
          4    1    1    2  501    0 -0.63565924224E+02  0.16721164379E+03  0.70286638571E+03  0.72527340825E+03  0.00000000000E+00 0. -1.
         -4    1    1    2    0  503  0.50093159622E+02  0.42117844011E+02  0.11180948081E+03  0.12955538362E+03  0.00000000000E+00 0.  1.
<mgrwt>
<rscale>  4 0.23700591E+03</rscale>
<asrwt>0</asrwt>
<pdfrwt beam="1">  1       21 0.16040233E+00 0.23700591E+03</pdfrwt>
<pdfrwt beam="2">  1       21 0.14121358E-01 0.23700591E+03</pdfrwt>
<totfact> 0.10603075E+04</totfact>
</mgrwt>
</event>
<event>
 5    0  0.1972558E-002  0.2375822E+03  0.7546771E-02  0.1121414E+00
         21   -1    0    0  501  502  0.00000000000E+00  0.00000000000E+00  0.56620778993E+02  0.56620778993E+02  0.00000000000E+00 0.  1.
         21   -1    0    0  502  503 -0.00000000000E+00 -0.00000000000E+00 -0.13717961749E+04  0.13717961749E+04  0.00000000000E+00 0.  1.
         25    1    1    2    0    0 -0.27631427536E+02  0.21962233390E+03 -0.60570460008E+03  0.65688699781E+03  0.12500000000E+03 0.  0.
          3    1    1    2  501    0  0.10306099870E+03 -0.16809538449E+03 -0.58357181993E+03  0.61598189645E+03  0.00000000000E+00 0.  1.
         -3    1    1    2    0  503 -0.75429571160E+02 -0.51526949417E+02 -0.12589897587E+03  0.15554805961E+03  0.00000000000E+00 0. -1.
<mgrwt>
<rscale>  4 0.23758217E+03</rscale>
<asrwt>0</asrwt>
<pdfrwt beam="1">  1       21 0.87108902E-02 0.23758217E+03</pdfrwt>
<pdfrwt beam="2">  1       21 0.21104554E+00 0.23758217E+03</pdfrwt>
<totfact> 0.11412827E+04</totfact>
</mgrwt>
</event>
<event>
 5    0  0.1972558E-002  0.2867560E+03  0.7546771E-02  0.1092055E+00
         21   -1    0    0  501  502  0.00000000000E+00  0.00000000000E+00  0.14526357965E+03  0.14526357965E+03  0.00000000000E+00 0.  1.
         21   -1    0    0  502  503 -0.00000000000E+00 -0.00000000000E+00 -0.95721431471E+03  0.95721431471E+03  0.00000000000E+00 0. -1.
         25    1    1    2    0    0  0.28657226801E+03 -0.24609204657E+02 -0.63110013099E+03  0.70472807031E+03  0.12500000000E+03 0.  0.
          2    1    1    2  501    0 -0.21417477086E+03  0.61084218919E+02 -0.21520697274E+03  0.30970333449E+03  0.00000000000E+00 0.  1.
         -2    1    1    2    0  503 -0.72397497143E+02 -0.36475014262E+02  0.34356368673E+02  0.88046489575E+02  0.00000000000E+00 0. -1.
<mgrwt>
<rscale>  4 0.28675601E+03</rscale>
<asrwt>0</asrwt>
<pdfrwt beam="1">  1       21 0.22348243E-01 0.28675601E+03</pdfrwt>
<pdfrwt beam="2">  1       21 0.14726374E+00 0.28675601E+03</pdfrwt>
<totfact> 0.55096969E+03</totfact>
</mgrwt>
</event>
<event>
 5    0  0.1972558E-002  0.2963196E+03  0.7546771E-02  0.1087095E+00
         21   -1    0    0  501  502  0.00000000000E+00  0.00000000000E+00  0.10693818236E+04  0.10693818236E+04  0.00000000000E+00 0.  1.
         21   -1    0    0  502  503 -0.00000000000E+00 -0.00000000000E+00 -0.24655076353E+03  0.24655076353E+03  0.00000000000E+00 0. -1.
         25    1    1    2    0    0 -0.18728451247E+03 -0.14784803859E+03  0.12997142323E+03  0.29908544262E+03  0.12500000000E+03 0.  0.
          1    1    1    2  501    0 -0.50274004985E+02 -0.12851550162E+02  0.72625118400E+03  0.72810261652E+03  0.00000000000E+00 0.  1.
         -1    1    1    2    0  503  0.23755851746E+03  0.16069958876E+03 -0.33391547132E+02  0.28874452802E+03  0.00000000000E+00 0. -1.
<mgrwt>
<rscale>  4 0.29631956E+03</rscale>
<asrwt>0</asrwt>
<pdfrwt beam="1">  1       21 0.16452028E+00 0.29631956E+03</pdfrwt>
<pdfrwt beam="2">  1       21 0.37930887E-01 0.29631956E+03</pdfrwt>
<totfact> 0.14361675E+03</totfact>
</mgrwt>
</event>
<event>
 5    0  0.1972558E-002  0.3136798E+03  0.7546771E-02  0.1078595E+00
         21   -1    0    0  503  502  0.00000000000E+00  0.00000000000E+00  0.52716155501E+03  0.52716155501E+03  0.00000000000E+00 0. -1.
         21   -1    0    0  501  503 -0.00000000000E+00 -0.00000000000E+00 -0.27839947464E+03  0.27839947464E+03  0.00000000000E+00 0.  1.
         25    1    1    2    0    0  0.22081447957E+03  0.21156919835E+03 -0.35490527390E+02  0.33227268562E+03  0.12500000000E+03 0.  0.
          2    1    1    2  501    0  0.57091633994E+01 -0.42191116092E+02 -0.28785976407E+02  0.51393747300E+02  0.00000000000E+00 0.  1.
         -2    1    1    2    0  502 -0.22652364297E+03 -0.16937808226E+03  0.31303858416E+03  0.42189459673E+03  0.00000000000E+00 0. -1.
<mgrwt>
<rscale>  4 0.31367978E+03</rscale>
<asrwt>0</asrwt>
<pdfrwt beam="1">  1       21 0.81101778E-01 0.31367978E+03</pdfrwt>
<pdfrwt beam="2">  1       21 0.42830688E-01 0.31367978E+03</pdfrwt>
<totfact> 0.65063937E+03</totfact>
</mgrwt>
</event>
<event>
 5    0  0.1972558E-002  0.2886398E+03  0.7546771E-02  0.1091061E+00
         21   -1    0    0  501  502  0.00000000000E+00  0.00000000000E+00  0.15237859498E+03  0.15237859498E+03  0.00000000000E+00 0. -1.
         21   -1    0    0  502  503 -0.00000000000E+00 -0.00000000000E+00 -0.87133851851E+03  0.87133851851E+03  0.00000000000E+00 0.  1.
         25    1    1    2    0    0 -0.19644349553E+03  0.17531901655E+03 -0.62743582782E+03  0.69182911367E+03  0.12500000000E+03 0.  0.
          2    1    1    2  501    0 -0.19595921910E+02 -0.30776770907E+02 -0.59764293105E+02  0.70021286144E+02  0.00000000000E+00 0.  1.
         -2    1    1    2    0  503  0.21603941744E+03 -0.14454224564E+03 -0.31759802609E+02  0.26186671367E+03  0.00000000000E+00 0. -1.
<mgrwt>
<rscale>  4 0.28863976E+03</rscale>
<asrwt>0</asrwt>
<pdfrwt beam="1">  1       21 0.23442861E-01 0.28863976E+03</pdfrwt>
<pdfrwt beam="2">  1       21 0.13405208E+00 0.28863976E+03</pdfrwt>
<totfact> 0.64273502E+03</totfact>
</mgrwt>
</event>
<event>
 5    0  0.1972558E-002  0.2413579E+03  0.7546771E-02  0.1118892E+00
         21   -1    0    0  503  502  0.00000000000E+00  0.00000000000E+00  0.21984825499E+03  0.21984825499E+03  0.00000000000E+00 0. -1.
         21   -1    0    0  501  503 -0.00000000000E+00 -0.00000000000E+00 -0.31032035594E+03  0.31032035594E+03  0.00000000000E+00 0. -1.
         25    1    1    2    0    0 -0.11864106698E+03  0.19747426196E+03 -0.46224782656E+01  0.26214147748E+03  0.12500000000E+03 0.  0.
          1    1    1    2  501    0  0.11913308083E+02 -0.33210413193E+02  0.24723925253E+02  0.43082838043E+02  0.00000000000E+00 0.  1.
         -1    1    1    2    0  502  0.10672775890E+03 -0.16426384877E+03 -0.11057354793E+03  0.22494429540E+03  0.00000000000E+00 0. -1.
<mgrwt>
<rscale>  4 0.24135792E+03</rscale>
<asrwt>0</asrwt>
<pdfrwt beam="1">  1       21 0.33822808E-01 0.24135792E+03</pdfrwt>
<pdfrwt beam="2">  1       21 0.47741593E-01 0.24135792E+03</pdfrwt>
<totfact> 0.34483043E+04</totfact>
</mgrwt>
</event>
<event>
 5    0  0.1972558E-002  0.2556441E+03  0.7546771E-02  0.1109789E+00
         21   -1    0    0  501  502  0.00000000000E+00  0.00000000000E+00  0.14541992060E+04  0.14541992060E+04  0.00000000000E+00 0. -1.
         21   -1    0    0  502  503 -0.00000000000E+00 -0.00000000000E+00 -0.15642761931E+03  0.15642761931E+03  0.00000000000E+00 0.  1.
         25    1    1    2    0    0  0.38825177229E+02 -0.22060493421E+03 -0.25367331793E+02  0.25776429719E+03  0.12500000000E+03 0.  0.
          1    1    1    2  501    0 -0.21350066364E+02  0.43642485639E+01  0.53404373337E+03  0.53448814875E+03  0.00000000000E+00 0. -1.
         -1    1    1    2    0  503 -0.17475110865E+02  0.21624068565E+03  0.78909518515E+03  0.81837437940E+03  0.00000000000E+00 0.  1.
<mgrwt>
<rscale>  4 0.25564406E+03</rscale>
<asrwt>0</asrwt>
<pdfrwt beam="1">  1       21 0.22372295E+00 0.25564406E+03</pdfrwt>
<pdfrwt beam="2">  1       21 0.24065789E-01 0.25564406E+03</pdfrwt>
<totfact> 0.14609667E+03</totfact>
</mgrwt>
</event>
<event>
 5    0  0.1972558E-002  0.2826684E+03  0.7546771E-02  0.1094240E+00
         21   -1    0    0  501  502  0.00000000000E+00  0.00000000000E+00  0.79272465440E+03  0.79272465440E+03  0.00000000000E+00 0.  1.
         21   -1    0    0  502  503 -0.00000000000E+00 -0.00000000000E+00 -0.34813449742E+03  0.34813449742E+03  0.00000000000E+00 0. -1.
         25    1    1    2    0    0  0.14186419914E+03 -0.20742412907E+03 -0.16136045234E+03  0.32374745698E+03  0.12500000000E+03 0.  0.
          3    1    1    2  501    0  0.45762419863E+02  0.25289015031E+02  0.54643976282E+03  0.54893546774E+03  0.00000000000E+00 0.  1.
         -3    1    1    2    0  503 -0.18762661900E+03  0.18213511404E+03  0.59510846498E+02  0.26817622709E+03  0.00000000000E+00 0. -1.
<mgrwt>
<rscale>  4 0.28266840E+03</rscale>
<asrwt>0</asrwt>
<pdfrwt beam="1">  1       21 0.12195764E+00 0.28266840E+03</pdfrwt>
<pdfrwt beam="2">  1       21 0.53559154E-01 0.28266840E+03</pdfrwt>
<totfact> 0.15571776E+03</totfact>
</mgrwt>
</event>
<event>
 5    0  0.1972558E-002  0.2290900E+03  0.7546771E-02  0.1127282E+00
         21   -1    0    0  501  502  0.00000000000E+00  0.00000000000E+00  0.24293637524E+03  0.24293637524E+03  0.00000000000E+00 0. -1.
         21   -1    0    0  502  503 -0.00000000000E+00 -0.00000000000E+00 -0.36011227559E+03  0.36011227559E+03  0.00000000000E+00 0.  1.
         25    1    1    2    0    0 -0.45866104134E+01 -0.22465319484E+03 -0.17696235823E+03  0.31213902540E+03  0.12500000000E+03 0.  0.
          2    1    1    2  501    0 -0.15875992438E+02  0.63542565033E+02  0.10371890272E+03  0.12266749972E+03  0.00000000000E+00 0. -1.
         -2    1    1    2    0  503  0.20462602852E+02  0.16111062981E+03 -0.43932444844E+02  0.16824212571E+03  0.00000000000E+00 0.  1.
<mgrwt>
<rscale>  4 0.22909000E+03</rscale>
<asrwt>0</asrwt>
<pdfrwt beam="1">  1       21 0.37374827E-01 0.22909000E+03</pdfrwt>
<pdfrwt beam="2">  1       21 0.55401888E-01 0.22909000E+03</pdfrwt>
<totfact> 0.20772424E+04</totfact>
</mgrwt>
</event>
<event>
 5    0  0.1972558E-002  0.3295033E+03  0.7546771E-02  0.1071357E+00
         21   -1    0    0  501  502  0.00000000000E+00  0.00000000000E+00  0.39091881134E+03  0.39091881134E+03  0.00000000000E+00 0. -1.
         21   -1    0    0  502  503 -0.00000000000E+00 -0.00000000000E+00 -0.38661565731E+03  0.38661565731E+03  0.00000000000E+00 0. -1.
         25    1    1    2    0    0 -0.16991342465E+03 -0.26056822140E+03 -0.18437685008E+03  0.38260448602E+03  0.12500000000E+03 0.  0.
          4    1    1    2  501    0  0.12539955348E+03  0.26455143460E+03  0.12789467410E+03  0.31948326595E+03  0.00000000000E+00 0. -1.
         -4    1    1    2    0  503  0.44513871163E+02 -0.39832131971E+01  0.60785330008E+02  0.75446716678E+02  0.00000000000E+00 0.  1.
<mgrwt>
<rscale>  4 0.32950327E+03</rscale>
<asrwt>0</asrwt>
<pdfrwt beam="1">  1       21 0.60141356E-01 0.32950327E+03</pdfrwt>
<pdfrwt beam="2">  1       21 0.59479332E-01 0.32950327E+03</pdfrwt>
<totfact> 0.62900083E+03</totfact>
</mgrwt>
</event>
<event>
 5    0  0.1972558E-002  0.2275546E+03  0.7546771E-02  0.1128373E+00
         21   -1    0    0  501  502  0.00000000000E+00  0.00000000000E+00  0.10277734187E+04  0.10277734187E+04  0.00000000000E+00 0. -1.
         21   -1    0    0  502  503 -0.00000000000E+00 -0.00000000000E+00 -0.66840871744E+02  0.66840871744E+02  0.00000000000E+00 0. -1.
         25    1    1    2    0    0 -0.30151338224E+02 -0.22533772999E+03  0.45430366468E+03  0.52316633635E+03  0.12500000000E+03 0.  0.
          1    1    1    2  501    0 -0.27401298228E+01  0.17393799481E+03  0.46785274636E+03  0.49914739970E+03  0.00000000000E+00 0. -1.
         -1    1    1    2    0  503  0.32891468047E+02  0.51399735180E+02  0.38776135891E+02  0.72300554365E+02  0.00000000000E+00 0.  1.
<mgrwt>
<rscale>  4 0.22755457E+03</rscale>
<asrwt>0</asrwt>
<pdfrwt beam="1">  1       21 0.15811898E+00 0.22755457E+03</pdfrwt>
<pdfrwt beam="2">  1       21 0.10283212E-01 0.22755457E+03</pdfrwt>
<totfact> 0.19613911E+04</totfact>
</mgrwt>
</event>
<event>
 5    0  0.1972558E-002  0.2393331E+03  0.7546771E-02  0.1120238E+00
         21   -1    0    0  501  502  0.00000000000E+00  0.00000000000E+00  0.53230619400E+02  0.53230619400E+02  0.00000000000E+00 0. -1.
         21   -1    0    0  502  503 -0.00000000000E+00 -0.00000000000E+00 -0.10311308990E+04  0.10311308990E+04  0.00000000000E+00 0. -1.
         25    1    1    2    0    0 -0.20606704935E+02  0.20305340988E+03 -0.59483254508E+03  0.64117554557E+03  0.12500000000E+03 0.  0.
          2    1    1    2  501    0 -0.25592017151E+02 -0.11785021057E+03 -0.16338016221E+03  0.20306821730E+03  0.00000000000E+00 0. -1.
         -2    1    1    2    0  503  0.46198722087E+02 -0.85203199304E+02 -0.21968757235E+03  0.24011775557E+03  0.00000000000E+00 0.  1.
<mgrwt>
<rscale>  4 0.23933308E+03</rscale>
<asrwt>0</asrwt>
<pdfrwt beam="1">  1       21 0.81893256E-02 0.23933308E+03</pdfrwt>
<pdfrwt beam="2">  1       21 0.15863553E+00 0.23933308E+03</pdfrwt>
<totfact> 0.28855887E+04</totfact>
</mgrwt>
</event>
<event>
 5    0  0.1972558E-002  0.2814781E+03  0.7546771E-02  0.1094884E+00
         21   -1    0    0  501  502  0.00000000000E+00  0.00000000000E+00  0.17086713688E+03  0.17086713688E+03  0.00000000000E+00 0.  1.
         21   -1    0    0  502  503 -0.00000000000E+00 -0.00000000000E+00 -0.27587606573E+04  0.27587606573E+04  0.00000000000E+00 0. -1.
         25    1    1    2    0    0  0.17829772913E+02 -0.24640482871E+03 -0.22678491450E+04  0.22846877215E+04  0.12500000000E+03 0.  0.
          1    1    1    2  501    0 -0.11641128619E+02  0.27641812715E+03 -0.44075976988E+03  0.52039568756E+03  0.00000000000E+00 0. -1.
         -1    1    1    2    0  503 -0.61886442945E+01 -0.30013298438E+02  0.12071539445E+03  0.12454438510E+03  0.00000000000E+00 0.  1.
<mgrwt>
<rscale>  4 0.28147808E+03</rscale>
<asrwt>0</asrwt>
<pdfrwt beam="1">  1       21 0.26287255E-01 0.28147808E+03</pdfrwt>
<pdfrwt beam="2">  1       21 0.42442466E+00 0.28147808E+03</pdfrwt>
<totfact> 0.73301661E+01</totfact>
</mgrwt>
</event>
<event>
 5    0  0.1972558E-002  0.2376484E+03  0.7546771E-02  0.1121369E+00
         21   -1    0    0  501  502  0.00000000000E+00  0.00000000000E+00  0.50494461487E+03  0.50494461487E+03  0.00000000000E+00 0. -1.
         21   -1    0    0  502  503 -0.00000000000E+00 -0.00000000000E+00 -0.31906600184E+03  0.31906600184E+03  0.00000000000E+00 0. -1.
         25    1    1    2    0    0  0.18914907416E+03  0.82765863952E+02 -0.19936744980E+03  0.31304942187E+03  0.12500000000E+03 0.  0.
          4    1    1    2  501    0 -0.47139358794E+02  0.56593215496E+02  0.27248324359E+03  0.28226234114E+03  0.00000000000E+00 0.  1.
         -4    1    1    2    0  503 -0.14200971537E+03 -0.13935907945E+03  0.11276281925E+03  0.22869885371E+03  0.00000000000E+00 0. -1.
<mgrwt>
<rscale>  4 0.23764836E+03</rscale>
<asrwt>0</asrwt>
<pdfrwt beam="1">  1       21 0.77683787E-01 0.23764836E+03</pdfrwt>
<pdfrwt beam="2">  1       21 0.49087077E-01 0.23764836E+03</pdfrwt>
<totfact> 0.56353310E+03</totfact>
</mgrwt>
</event>
<event>
 5    0  0.1972558E-002  0.2228900E+03  0.7546771E-02  0.1131747E+00
         21   -1    0    0  501  502  0.00000000000E+00  0.00000000000E+00  0.29852084495E+03  0.29852084495E+03  0.00000000000E+00 0. -1.
         21   -1    0    0  502  503 -0.00000000000E+00 -0.00000000000E+00 -0.25020653420E+03  0.25020653420E+03  0.00000000000E+00 0. -1.
         25    1    1    2    0    0 -0.86798456513E+01  0.21296939660E+03 -0.10045773275E+03  0.26673593623E+03  0.12500000000E+03 0.  0.
          1    1    1    2  501    0  0.52740271095E+01 -0.17839607048E+03  0.16553040886E+03  0.24341998600E+03  0.00000000000E+00 0. -1.
         -1    1    1    2    0  503  0.34058185418E+01 -0.34573326114E+02 -0.16758365367E+02  0.38571456912E+02  0.00000000000E+00 0.  1.
<mgrwt>
<rscale>  4 0.22288996E+03</rscale>
<asrwt>0</asrwt>
<pdfrwt beam="1">  1       21 0.45926284E-01 0.22288996E+03</pdfrwt>
<pdfrwt beam="2">  1       21 0.38493313E-01 0.22288996E+03</pdfrwt>
<totfact> 0.29099414E+04</totfact>
</mgrwt>
</event>
<event>
 5    0  0.1972558E-002  0.2284753E+03  0.7546771E-02  0.1127718E+00
         21   -1    0    0  503  502  0.00000000000E+00  0.00000000000E+00  0.14088570517E+03  0.14088570517E+03  0.00000000000E+00 0.  1.
         21   -1    0    0  501  503 -0.00000000000E+00 -0.00000000000E+00 -0.76977485776E+03  0.76977485776E+03  0.00000000000E+00 0.  1.
         25    1    1    2    0    0 -0.17808250180E+02 -0.22091680181E+03 -0.57764721569E+03  0.63120731372E+03  0.12500000000E+03 0.  0.
          2    1    1    2  501    0 -0.70471792064E+02  0.11977319987E+03 -0.11495346111E+02  0.13944187272E+03  0.00000000000E+00 0. -1.
         -2    1    1    2    0  502  0.88280042244E+02  0.10114360193E+03 -0.39746590785E+02  0.14001137650E+03  0.00000000000E+00 0.  1.
<mgrwt>
<rscale>  4 0.22847527E+03</rscale>
<asrwt>0</asrwt>
<pdfrwt beam="1">  1       21 0.21674724E-01 0.22847527E+03</pdfrwt>
<pdfrwt beam="2">  1       21 0.11842690E+00 0.22847527E+03</pdfrwt>
<totfact> 0.10572380E+04</totfact>
</mgrwt>
</event>
<event>
 5    0  0.1972558E-002  0.2373611E+03  0.7546771E-02  0.1121563E+00
         21   -1    0    0  501  502  0.00000000000E+00  0.00000000000E+00  0.24989215820E+03  0.24989215820E+03  0.00000000000E+00 0. -1.
         21   -1    0    0  502  503 -0.00000000000E+00 -0.00000000000E+00 -0.70059480119E+03  0.70059480119E+03  0.00000000000E+00 0.  1.
         25    1    1    2    0    0  0.18560339898E+03  0.92553538808E+02 -0.58637798138E+03  0.63441226053E+03  0.12500000000E+03 0.  0.
          4    1    1    2  501    0 -0.77007345771E+02  0.39317974095E+02 -0.15637745064E+02  0.87866793844E+02  0.00000000000E+00 0.  1.
         -4    1    1    2    0  503 -0.10859605321E+03 -0.13187151290E+03  0.15131308345E+03  0.22820790502E+03  0.00000000000E+00 0. -1.
<mgrwt>
<rscale>  4 0.23736113E+03</rscale>
<asrwt>0</asrwt>
<pdfrwt beam="1">  1       21 0.38444948E-01 0.23736113E+03</pdfrwt>
<pdfrwt beam="2">  1       21 0.10778381E+00 0.23736113E+03</pdfrwt>
<totfact> 0.43269959E+03</totfact>
</mgrwt>
</event>
<event>
 5    0  0.1972558E-002  0.2299401E+03  0.7546771E-02  0.1126682E+00
         21   -1    0    0  501  502  0.00000000000E+00  0.00000000000E+00  0.22045625473E+03  0.22045625473E+03  0.00000000000E+00 0. -1.
         21   -1    0    0  502  503 -0.00000000000E+00 -0.00000000000E+00 -0.29281920266E+03  0.29281920266E+03  0.00000000000E+00 0. -1.
         25    1    1    2    0    0 -0.17246375300E+03  0.13253525135E+03 -0.25580375963E+02  0.25216798882E+03  0.12500000000E+03 0.  0.
          1    1    1    2  501    0  0.42610607047E+02 -0.88555140179E+01 -0.67785182840E+02  0.80553801736E+02  0.00000000000E+00 0.  1.
         -1    1    1    2    0  503  0.12985314596E+03 -0.12367973734E+03  0.21002610877E+02  0.18055366683E+03  0.00000000000E+00 0. -1.
<mgrwt>
<rscale>  4 0.22994010E+03</rscale>
<asrwt>0</asrwt>
<pdfrwt beam="1">  1       21 0.33916347E-01 0.22994010E+03</pdfrwt>
<pdfrwt beam="2">  1       21 0.45049108E-01 0.22994010E+03</pdfrwt>
<totfact> 0.38877920E+04</totfact>
</mgrwt>
</event>
<event>
 5    0  0.1972558E-002  0.3152738E+03  0.7546771E-02  0.1077845E+00
         21   -1    0    0  501  502  0.00000000000E+00  0.00000000000E+00  0.72520971577E+03  0.72520971577E+03  0.00000000000E+00 0.  1.
         21   -1    0    0  502  503 -0.00000000000E+00 -0.00000000000E+00 -0.80077318355E+03  0.80077318355E+03  0.00000000000E+00 0. -1.
         25    1    1    2    0    0  0.20775992011E+03 -0.21442530546E+03 -0.59867399848E+03  0.68057178349E+03  0.12500000000E+03 0.  0.
          1    1    1    2  501    0 -0.55609220889E+02 -0.52460716479E+01  0.57117962408E+03  0.57390423390E+03  0.00000000000E+00 0.  1.
         -1    1    1    2    0  503 -0.15215069922E+03  0.21967137711E+03 -0.48069093382E+02  0.27150688193E+03  0.00000000000E+00 0. -1.
<mgrwt>
<rscale>  4 0.31527378E+03</rscale>
<asrwt>0</asrwt>
<pdfrwt beam="1">  1       21 0.11157073E+00 0.31527378E+03</pdfrwt>
<pdfrwt beam="2">  1       21 0.12319587E+00 0.31527378E+03</pdfrwt>
<totfact> 0.27835917E+02</totfact>
</mgrwt>
</event>
<event>
 5    0  0.1972558E-002  0.2356768E+03  0.7546771E-02  0.1122707E+00
         21   -1    0    0  501  502  0.00000000000E+00  0.00000000000E+00  0.19797663058E+03  0.19797663058E+03  0.00000000000E+00 0.  1.
         21   -1    0    0  502  503 -0.00000000000E+00 -0.00000000000E+00 -0.41689896361E+03  0.41689896361E+03  0.00000000000E+00 0.  1.
         25    1    1    2    0    0  0.25057217226E+02 -0.20593587711E+03 -0.27033730462E+03  0.36296653825E+03  0.12500000000E+03 0.  0.
          2    1    1    2  501    0  0.50372898791E+01  0.22976794696E+02  0.61876268600E+02  0.66196525586E+02  0.00000000000E+00 0. -1.
         -2    1    1    2    0  503 -0.30094507105E+02  0.18295908242E+03 -0.10461297004E+02  0.18571253036E+03  0.00000000000E+00 0.  1.
<mgrwt>
<rscale>  4 0.23567681E+03</rscale>
<asrwt>0</asrwt>
<pdfrwt beam="1">  1       21 0.30457943E-01 0.23567681E+03</pdfrwt>
<pdfrwt beam="2">  1       21 0.64138302E-01 0.23567681E+03</pdfrwt>
<totfact> 0.22668589E+04</totfact>
</mgrwt>
</event>
<event>
 5    0  0.1972558E-002  0.2282616E+03  0.7546771E-02  0.1127869E+00
         21   -1    0    0  501  502  0.00000000000E+00  0.00000000000E+00  0.29471878388E+03  0.29471878388E+03  0.00000000000E+00 0. -1.
         21   -1    0    0  502  503 -0.00000000000E+00 -0.00000000000E+00 -0.24562136571E+03  0.24562136571E+03  0.00000000000E+00 0. -1.
         25    1    1    2    0    0 -0.15737619607E+03  0.16952115366E+03  0.51541408277E+02  0.26792947840E+03  0.12500000000E+03 0.  0.
          2    1    1    2  501    0  0.95151826125E+02 -0.14801626473E+03 -0.59029088708E+02  0.18559934793E+03  0.00000000000E+00 0. -1.
         -2    1    1    2    0  503  0.62224369945E+02 -0.21504888935E+02  0.56585098602E+02  0.86811323265E+02  0.00000000000E+00 0.  1.
<mgrwt>
<rscale>  4 0.22826162E+03</rscale>
<asrwt>0</asrwt>
<pdfrwt beam="1">  1       21 0.45341351E-01 0.22826162E+03</pdfrwt>
<pdfrwt beam="2">  1       21 0.37787902E-01 0.22826162E+03</pdfrwt>
<totfact> 0.30932390E+04</totfact>
</mgrwt>
</event>
<event>
 5    0  0.1972558E-002  0.2369352E+03  0.7546771E-02  0.1121852E+00
         21   -1    0    0  503  502  0.00000000000E+00  0.00000000000E+00  0.36834848317E+03  0.36834848317E+03  0.00000000000E+00 0.  1.
         21   -1    0    0  501  503 -0.00000000000E+00 -0.00000000000E+00 -0.60729671052E+03  0.60729671052E+03  0.00000000000E+00 0.  1.
         25    1    1    2    0    0 -0.13318297700E+03 -0.14979567840E+03 -0.46524046973E+03  0.52177595317E+03  0.12500000000E+03 0.  0.
          3    1    1    2  501    0  0.53791769129E+02 -0.35891573720E+02 -0.70001189467E+02  0.95299139644E+02  0.00000000000E+00 0. -1.
         -3    1    1    2    0  502  0.79391207874E+02  0.18568725212E+03  0.29629343185E+03  0.35857010088E+03  0.00000000000E+00 0.  1.
<mgrwt>
<rscale>  4 0.23693517E+03</rscale>
<asrwt>0</asrwt>
<pdfrwt beam="1">  1       21 0.56668998E-01 0.23693517E+03</pdfrwt>
<pdfrwt beam="2">  1       21 0.93430262E-01 0.23693517E+03</pdfrwt>
<totfact> 0.27211473E+03</totfact>
</mgrwt>
</event>
<event>
 5    0  0.1972558E-002  0.2401572E+03  0.7546771E-02  0.1119688E+00
         21   -1    0    0  501  502  0.00000000000E+00  0.00000000000E+00  0.23562163216E+04  0.23562163216E+04  0.00000000000E+00 0. -1.
         21   -1    0    0  502  503 -0.00000000000E+00 -0.00000000000E+00 -0.31077881969E+02  0.31077881969E+02  0.00000000000E+00 0.  1.
         25    1    1    2    0    0 -0.21102125224E+03 -0.77758257568E+00  0.65144437841E+03  0.69608573587E+03  0.12500000000E+03 0.  0.
          4    1    1    2  501    0  0.19508094121E+03 -0.12592947815E+02  0.11066953440E+04  0.11238281632E+04  0.00000000000E+00 0. -1.
         -4    1    1    2    0  503  0.15940311026E+02  0.13370530391E+02  0.56699871726E+03  0.56738030453E+03  0.00000000000E+00 0.  1.
<mgrwt>
<rscale>  4 0.24015724E+03</rscale>
<asrwt>0</asrwt>
<pdfrwt beam="1">  1       21 0.36249468E+00 0.24015724E+03</pdfrwt>
<pdfrwt beam="2">  1       21 0.47812145E-02 0.24015724E+03</pdfrwt>
<totfact> 0.40425794E+03</totfact>
</mgrwt>
</event>
<event>
 5    0  0.1972558E-002  0.2820890E+03  0.7546771E-02  0.1094553E+00
         21   -1    0    0  501  502  0.00000000000E+00  0.00000000000E+00  0.22147643416E+03  0.22147643416E+03  0.00000000000E+00 0. -1.
         21   -1    0    0  502  503 -0.00000000000E+00 -0.00000000000E+00 -0.55030008027E+03  0.55030008027E+03  0.00000000000E+00 0.  1.
         25    1    1    2    0    0 -0.56131819463E+02 -0.25341129526E+03 -0.38563169593E+03  0.48135732116E+03  0.12500000000E+03 0.  0.
          1    1    1    2  501    0 -0.13738650413E+00  0.24314659648E+02  0.48632075446E+02  0.54371870587E+02  0.00000000000E+00 0.  1.
         -1    1    1    2    0  503  0.56269205967E+02  0.22909663561E+03  0.81759743788E+01  0.23604732268E+03  0.00000000000E+00 0. -1.
<mgrwt>
<rscale>  4 0.28208902E+03</rscale>
<asrwt>0</asrwt>
<pdfrwt beam="1">  1       21 0.34073298E-01 0.28208902E+03</pdfrwt>
<pdfrwt beam="2">  1       21 0.84661550E-01 0.28208902E+03</pdfrwt>
<totfact> 0.95161421E+03</totfact>
</mgrwt>
</event>
<event>
 5    0  0.1972558E-002  0.9219095E+03  0.7546771E-02  0.9398600E-01
         21   -1    0    0  501  502  0.00000000000E+00  0.00000000000E+00  0.10157853507E+04  0.10157853507E+04  0.00000000000E+00 0.  1.
         21   -1    0    0  502  503 -0.00000000000E+00 -0.00000000000E+00 -0.21394303085E+04  0.21394303085E+04  0.00000000000E+00 0.  1.
         25    1    1    2    0    0 -0.45914709566E+03  0.78215080074E+03 -0.13844003895E+04  0.16597485860E+04  0.12500000000E+03 0.  0.
          2    1    1    2  501    0 -0.26508526993E+02  0.10841791163E+02  0.52733996383E+03  0.52811711191E+03  0.00000000000E+00 0. -1.
         -2    1    1    2    0  503  0.48565562265E+03 -0.79299259190E+03 -0.26658453216E+03  0.96734996119E+03  0.00000000000E+00 0.  1.
<mgrwt>
<rscale>  4 0.92190946E+03</rscale>
<asrwt>0</asrwt>
<pdfrwt beam="1">  1       21 0.15627467E+00 0.92190946E+03</pdfrwt>
<pdfrwt beam="2">  1       21 0.32914312E+00 0.92190946E+03</pdfrwt>
<totfact> 0.34044883E+00</totfact>
</mgrwt>
</event>
<event>
 5    0  0.1972558E-002  0.2847243E+03  0.7546771E-02  0.1093136E+00
         21   -1    0    0  501  502  0.00000000000E+00  0.00000000000E+00  0.15925343210E+03  0.15925343210E+03  0.00000000000E+00 0.  1.
         21   -1    0    0  502  503 -0.00000000000E+00 -0.00000000000E+00 -0.60574781339E+03  0.60574781339E+03  0.00000000000E+00 0.  1.
         25    1    1    2    0    0  0.17798056861E+03  0.18375489800E+03 -0.40772224667E+03  0.49729807537E+03  0.12500000000E+03 0.  0.
          3    1    1    2  501    0 -0.15869723007E+02 -0.22158393486E+02  0.16984634971E+02  0.32114176547E+02  0.00000000000E+00 0. -1.
         -3    1    1    2    0  503 -0.16211084561E+03 -0.16159650452E+03 -0.55756769587E+02  0.23558899357E+03  0.00000000000E+00 0.  1.
<mgrwt>
<rscale>  4 0.28472433E+03</rscale>
<asrwt>0</asrwt>
<pdfrwt beam="1">  1       21 0.24500528E-01 0.28472433E+03</pdfrwt>
<pdfrwt beam="2">  1       21 0.93191970E-01 0.28472433E+03</pdfrwt>
<totfact> 0.14493866E+04</totfact>
</mgrwt>
</event>
<event>
 5    0  0.1972558E-002  0.2591994E+03  0.7546771E-02  0.1107625E+00
         21   -1    0    0  501  502  0.00000000000E+00  0.00000000000E+00  0.45027031703E+03  0.45027031703E+03  0.00000000000E+00 0. -1.
         21   -1    0    0  502  503 -0.00000000000E+00 -0.00000000000E+00 -0.35999929810E+03  0.35999929810E+03  0.00000000000E+00 0. -1.
         25    1    1    2    0    0 -0.12467818901E+03  0.18939553175E+03 -0.26615618292E+03  0.37132119784E+03  0.12500000000E+03 0.  0.
          3    1    1    2  501    0 -0.17834534959E+02 -0.91018478327E+01  0.63778600652E+02  0.66847768641E+02  0.00000000000E+00 0.  1.
         -3    1    1    2    0  503  0.14251272396E+03 -0.18029368391E+03  0.29264860119E+03  0.37210064866E+03  0.00000000000E+00 0. -1.
<mgrwt>
<rscale>  4 0.25919938E+03</rscale>
<asrwt>0</asrwt>
<pdfrwt beam="1">  1       21 0.69272357E-01 0.25919938E+03</pdfrwt>
<pdfrwt beam="2">  1       21 0.55384507E-01 0.25919938E+03</pdfrwt>
<totfact> 0.55711972E+03</totfact>
</mgrwt>
</event>
<event>
 5    0  0.1972558E-002  0.3188403E+03  0.7546771E-02  0.1076184E+00
         21   -1    0    0  501  502  0.00000000000E+00  0.00000000000E+00  0.25542848982E+04  0.25542848982E+04  0.00000000000E+00 0. -1.
         21   -1    0    0  502  503 -0.00000000000E+00 -0.00000000000E+00 -0.51238561481E+02  0.51238561481E+02  0.00000000000E+00 0.  1.
         25    1    1    2    0    0 -0.13093023900E+03 -0.26437720056E+03  0.71577428411E+03  0.78421671588E+03  0.12500000000E+03 0.  0.
          2    1    1    2  501    0  0.17615452248E+03  0.23455674685E+03  0.14122937211E+04  0.14424357309E+04  0.00000000000E+00 0. -1.
         -2    1    1    2    0  503 -0.45224283484E+02  0.29820453718E+02  0.37497833159E+03  0.37887101293E+03  0.00000000000E+00 0.  1.
<mgrwt>
<rscale>  4 0.31884031E+03</rscale>
<asrwt>0</asrwt>
<pdfrwt beam="1">  1       21 0.39296681E+00 0.31884031E+03</pdfrwt>
<pdfrwt beam="2">  1       21 0.78828576E-02 0.31884031E+03</pdfrwt>
<totfact> 0.10247725E+03</totfact>
</mgrwt>
</event>
<event>
 5    0  0.1972558E-002  0.2274870E+03  0.7546771E-02  0.1128421E+00
         21   -1    0    0  501  502  0.00000000000E+00  0.00000000000E+00  0.43411885549E+03  0.43411885549E+03  0.00000000000E+00 0.  1.
         21   -1    0    0  502  503 -0.00000000000E+00 -0.00000000000E+00 -0.63571034602E+03  0.63571034602E+03  0.00000000000E+00 0. -1.
         25    1    1    2    0    0 -0.21498455697E+03  0.80258863475E+02 -0.18783470641E+03  0.32181783952E+03  0.12500000000E+03 0.  0.
          1    1    1    2  501    0  0.18110742884E+03  0.40234014841E+02 -0.34620569975E+03  0.39278119007E+03  0.00000000000E+00 0. -1.
         -1    1    1    2    0  503  0.33877128134E+02 -0.12049287832E+03  0.33244891563E+03  0.35523017192E+03  0.00000000000E+00 0.  1.
<mgrwt>
<rscale>  4 0.22748696E+03</rscale>
<asrwt>0</asrwt>
<pdfrwt beam="1">  1       21 0.66787517E-01 0.22748696E+03</pdfrwt>
<pdfrwt beam="2">  1       21 0.97801591E-01 0.22748696E+03</pdfrwt>
<totfact> 0.17238228E+03</totfact>
</mgrwt>
</event>
<event>
 5    0  0.1972558E-002  0.2627855E+03  0.7546771E-02  0.1105481E+00
         21   -1    0    0  501  502  0.00000000000E+00  0.00000000000E+00  0.22558324589E+04  0.22558324589E+04  0.00000000000E+00 0.  1.
         21   -1    0    0  502  503 -0.00000000000E+00 -0.00000000000E+00 -0.50634761926E+02  0.50634761926E+02  0.00000000000E+00 0. -1.
         25    1    1    2    0    0 -0.17675045815E+03 -0.17083983828E+03  0.49985403144E+03  0.57088179823E+03  0.12500000000E+03 0.  0.
          4    1    1    2  501    0  0.64126143206E+01  0.45733442876E+02  0.95305905080E+03  0.95417724964E+03  0.00000000000E+00 0.  1.
         -4    1    1    2    0  503  0.17033784383E+03  0.12510639540E+03  0.75228461476E+03  0.78140817299E+03  0.00000000000E+00 0. -1.
<mgrwt>
<rscale>  4 0.26278551E+03</rscale>
<asrwt>0</asrwt>
<pdfrwt beam="1">  1       21 0.34705107E+00 0.26278551E+03</pdfrwt>
<pdfrwt beam="2">  1       21 0.77899651E-02 0.26278551E+03</pdfrwt>
<totfact> 0.21082993E+03</totfact>
</mgrwt>
</event>
<event>
 5    0  0.1972558E-002  0.4503046E+03  0.7546771E-02  0.1027631E+00
         21   -1    0    0  501  502  0.00000000000E+00  0.00000000000E+00  0.12796249529E+04  0.12796249529E+04  0.00000000000E+00 0.  1.
         21   -1    0    0  502  503 -0.00000000000E+00 -0.00000000000E+00 -0.44767477156E+03  0.44767477156E+03  0.00000000000E+00 0.  1.
         25    1    1    2    0    0  0.35189345886E+03 -0.24925788766E+03 -0.25977393774E+03  0.51871572145E+03  0.12500000000E+03 0.  0.
          4    1    1    2  501    0 -0.37792304897E+03  0.23031703932E+03  0.79309111831E+03  0.90822094860E+03  0.00000000000E+00 0.  1.
         -4    1    1    2    0  503  0.26029590115E+02  0.18940848338E+02  0.29863300079E+03  0.30036305441E+03  0.00000000000E+00 0. -1.
<mgrwt>
<rscale>  4 0.45030456E+03</rscale>
<asrwt>0</asrwt>
<pdfrwt beam="1">  1       21 0.19686538E+00 0.45030456E+03</pdfrwt>
<pdfrwt beam="2">  1       21 0.68873042E-01 0.45030456E+03</pdfrwt>
<totfact> 0.21888054E+02</totfact>
</mgrwt>
</event>
<event>
 5    0  0.1972558E-002  0.1863304E+03  0.7546771E-02  0.1161813E+00
         21   -1    0    0  501  502  0.00000000000E+00  0.00000000000E+00  0.11276342254E+03  0.11276342254E+03  0.00000000000E+00 0.  1.
         21   -1    0    0  502  503 -0.00000000000E+00 -0.00000000000E+00 -0.57158113809E+03  0.57158113809E+03  0.00000000000E+00 0.  1.
         25    1    1    2    0    0  0.20422292240E+03  0.19862755058E+02 -0.20030844441E+03  0.31280985274E+03  0.12500000000E+03 0.  0.
          4    1    1    2  501    0 -0.82149410032E+02 -0.18002715288E+02  0.16909889039E+01  0.84115888926E+02  0.00000000000E+00 0.  1.
         -4    1    1    2    0  503 -0.12207351236E+03 -0.18600397700E+01 -0.26020026005E+03  0.28741881897E+03  0.00000000000E+00 0. -1.
<mgrwt>
<rscale>  4 0.18633043E+03</rscale>
<asrwt>0</asrwt>
<pdfrwt beam="1">  1       21 0.17348219E-01 0.18633043E+03</pdfrwt>
<pdfrwt beam="2">  1       21 0.87935560E-01 0.18633043E+03</pdfrwt>
<totfact> 0.33425343E+04</totfact>
</mgrwt>
</event>
<event>
 5    0  0.1972558E-002  0.2329327E+03  0.7546771E-02  0.1124592E+00
         21   -1    0    0  501  502  0.00000000000E+00  0.00000000000E+00  0.18407401837E+04  0.18407401837E+04  0.00000000000E+00 0. -1.
         21   -1    0    0  502  503 -0.00000000000E+00 -0.00000000000E+00 -0.39954115657E+02  0.39954115657E+02  0.00000000000E+00 0.  1.
         25    1    1    2    0    0 -0.11427292613E+03  0.16419723871E+03  0.52542686452E+03  0.57594915124E+03  0.12500000000E+03 0.  0.
          2    1    1    2  501    0 -0.11468902076E+02 -0.17749168948E+02  0.64842202333E+03  0.64876628230E+03  0.00000000000E+00 0.  1.
         -2    1    1    2    0  503  0.12574182821E+03 -0.14644806977E+03  0.62693718023E+03  0.65597886586E+03  0.00000000000E+00 0. -1.
<mgrwt>
<rscale>  4 0.23293273E+03</rscale>
<asrwt>0</asrwt>
<pdfrwt beam="1">  1       21 0.28319073E+00 0.23293273E+03</pdfrwt>
<pdfrwt beam="2">  1       21 0.61467885E-02 0.23293273E+03</pdfrwt>
<totfact> 0.77548748E+03</totfact>
</mgrwt>
</event>
<event>
 5    0  0.1972558E-002  0.2646246E+03  0.7546771E-02  0.1104396E+00
         21   -1    0    0  501  502  0.00000000000E+00  0.00000000000E+00  0.31244703886E+02  0.31244703886E+02  0.00000000000E+00 0.  1.
         21   -1    0    0  502  503 -0.00000000000E+00 -0.00000000000E+00 -0.29750199464E+04  0.29750199464E+04  0.00000000000E+00 0.  1.
         25    1    1    2    0    0  0.20700929966E+03  0.12979073127E+03 -0.16331795419E+04  0.16560793761E+04  0.12500000000E+03 0.  0.
          2    1    1    2  501    0 -0.21045884440E+02 -0.47804907126E+01 -0.10504178958E+01  0.21607538525E+02  0.00000000000E+00 0. -1.
         -2    1    1    2    0  503 -0.18596341522E+03 -0.12501024056E+03 -0.13095452828E+04  0.13285777357E+04  0.00000000000E+00 0.  1.
<mgrwt>
<rscale>  4 0.26462465E+03</rscale>
<asrwt>0</asrwt>
<pdfrwt beam="1">  1       21 0.48068770E-02 0.26462465E+03</pdfrwt>
<pdfrwt beam="2">  1       21 0.45769542E+00 0.26462465E+03</pdfrwt>
<totfact> 0.96482206E+02</totfact>
</mgrwt>
</event>
<event>
 5    0  0.1972558E-002  0.2392589E+03  0.7546771E-02  0.1120288E+00
         21   -1    0    0  501  502  0.00000000000E+00  0.00000000000E+00  0.52537382778E+03  0.52537382778E+03  0.00000000000E+00 0.  1.
         21   -1    0    0  502  503 -0.00000000000E+00 -0.00000000000E+00 -0.33710892489E+03  0.33710892489E+03  0.00000000000E+00 0. -1.
         25    1    1    2    0    0 -0.20847299764E+03 -0.16584176758E+02 -0.24500560429E+03  0.34552680330E+03  0.12500000000E+03 0.  0.
          3    1    1    2  501    0  0.17874253184E+03  0.46549840582E+02  0.17229701016E+03  0.25259065710E+03  0.00000000000E+00 0.  1.
         -3    1    1    2    0  503  0.29730465801E+02 -0.29965663824E+02  0.26097349702E+03  0.26436529227E+03  0.00000000000E+00 0. -1.
<mgrwt>
<rscale>  4 0.23925886E+03</rscale>
<asrwt>0</asrwt>
<pdfrwt beam="1">  1       21 0.80826742E-01 0.23925886E+03</pdfrwt>
<pdfrwt beam="2">  1       21 0.51862912E-01 0.23925886E+03</pdfrwt>
<totfact> 0.45839293E+03</totfact>
</mgrwt>
</event>
<event>
 5    0  0.1972558E-002  0.2318268E+03  0.7546771E-02  0.1125361E+00
         21   -1    0    0  501  502  0.00000000000E+00  0.00000000000E+00  0.10487049203E+04  0.10487049203E+04  0.00000000000E+00 0.  1.
         21   -1    0    0  502  503 -0.00000000000E+00 -0.00000000000E+00 -0.11577951385E+03  0.11577951385E+03  0.00000000000E+00 0. -1.
         25    1    1    2    0    0  0.12411354775E+03 -0.18198628702E+03  0.80078024507E+03  0.83987926649E+03  0.12500000000E+03 0.  0.
          3    1    1    2  501    0  0.14276425233E+02  0.15046716225E+03  0.43557804210E+02  0.15729420059E+03  0.00000000000E+00 0. -1.
         -3    1    1    2    0  503 -0.13838997298E+03  0.31519124768E+02  0.88587357160E+02  0.16731096705E+03  0.00000000000E+00 0.  1.
<mgrwt>
<rscale>  4 0.23182677E+03</rscale>
<asrwt>0</asrwt>
<pdfrwt beam="1">  1       21 0.16133921E+00 0.23182677E+03</pdfrwt>
<pdfrwt beam="2">  1       21 0.17812234E-01 0.23182677E+03</pdfrwt>
<totfact> 0.68347657E+03</totfact>
</mgrwt>
</event>
<event>
 5    0  0.1972558E-002  0.2217678E+03  0.7546771E-02  0.1132572E+00
         21   -1    0    0  501  502  0.00000000000E+00  0.00000000000E+00  0.31126865830E+03  0.31126865830E+03  0.00000000000E+00 0. -1.
         21   -1    0    0  502  503 -0.00000000000E+00 -0.00000000000E+00 -0.74049200256E+03  0.74049200256E+03  0.00000000000E+00 0.  1.
         25    1    1    2    0    0  0.15541785481E+03  0.18028311529E+03 -0.17748744371E+03  0.32215447215E+03  0.12500000000E+03 0.  0.
          3    1    1    2  501    0 -0.57855622090E+02 -0.38788644834E+02  0.21829478662E+03  0.22913848616E+03  0.00000000000E+00 0. -1.
         -3    1    1    2    0  503 -0.97562232717E+02 -0.14149447046E+03 -0.47003068716E+03  0.50046770255E+03  0.00000000000E+00 0.  1.
<mgrwt>
<rscale>  4 0.22176782E+03</rscale>
<asrwt>0</asrwt>
<pdfrwt beam="1">  1       21 0.47887486E-01 0.22176782E+03</pdfrwt>
<pdfrwt beam="2">  1       21 0.11392185E+00 0.22176782E+03</pdfrwt>
<totfact> 0.24387929E+03</totfact>
</mgrwt>
</event>
<event>
 5    0  0.1972558E-002  0.2583130E+03  0.7546771E-02  0.1108161E+00
         21   -1    0    0  501  502  0.00000000000E+00  0.00000000000E+00  0.92924999694E+03  0.92924999694E+03  0.00000000000E+00 0.  1.
         21   -1    0    0  502  503 -0.00000000000E+00 -0.00000000000E+00 -0.10840690446E+04  0.10840690446E+04  0.00000000000E+00 0. -1.
         25    1    1    2    0    0 -0.21688776292E+03  0.55952331808E+02 -0.88867835853E+03  0.92495685848E+03  0.12500000000E+03 0.  0.
          2    1    1    2  501    0  0.21664175256E+03 -0.98923393906E+02 -0.96445631666E+02  0.25694599955E+03  0.00000000000E+00 0. -1.
         -2    1    1    2    0  503  0.24601036015E+00  0.42971062098E+02  0.83030494250E+03  0.83141618353E+03  0.00000000000E+00 0.  1.
<mgrwt>
<rscale>  4 0.25831297E+03</rscale>
<asrwt>0</asrwt>
<pdfrwt beam="1">  1       21 0.14296154E+00 0.25831297E+03</pdfrwt>
<pdfrwt beam="2">  1       21 0.16677985E+00 0.25831297E+03</pdfrwt>
<totfact> 0.70111976E+01</totfact>
</mgrwt>
</event>
<event>
 5    0  0.1972558E-002  0.2553114E+03  0.7546771E-02  0.1109993E+00
         21   -1    0    0  503  502  0.00000000000E+00  0.00000000000E+00  0.64079281673E+03  0.64079281673E+03  0.00000000000E+00 0.  1.
         21   -1    0    0  501  503 -0.00000000000E+00 -0.00000000000E+00 -0.45813750277E+03  0.45813750277E+03  0.00000000000E+00 0.  1.
         25    1    1    2    0    0 -0.14682804465E+03  0.20404104375E+03  0.62000271030E+01  0.28081072374E+03  0.12500000000E+03 0.  0.
          4    1    1    2  501    0 -0.75701436344E+02 -0.15588536505E+03 -0.26776521161E+03  0.31895009492E+03  0.00000000000E+00 0. -1.
         -4    1    1    2    0  502  0.22252948100E+03 -0.48155678704E+02  0.44422049847E+03  0.49916950083E+03  0.00000000000E+00 0.  1.
<mgrwt>
<rscale>  4 0.25531144E+03</rscale>
<asrwt>0</asrwt>
<pdfrwt beam="1">  1       21 0.98583510E-01 0.25531144E+03</pdfrwt>
<pdfrwt beam="2">  1       21 0.70482693E-01 0.25531144E+03</pdfrwt>
<totfact> 0.14701257E+03</totfact>
</mgrwt>
</event>
<event>
 5    0  0.1972558E-002  0.2480000E+03  0.7546771E-02  0.1114575E+00
         21   -1    0    0  501  502  0.00000000000E+00  0.00000000000E+00  0.19247494776E+03  0.19247494776E+03  0.00000000000E+00 0.  1.
         21   -1    0    0  502  503 -0.00000000000E+00 -0.00000000000E+00 -0.58771465379E+03  0.58771465379E+03  0.00000000000E+00 0. -1.
         25    1    1    2    0    0 -0.16087614773E+03  0.14771521584E+03 -0.36783631804E+03  0.44567866986E+03  0.12500000000E+03 0.  0.
          4    1    1    2  501    0 -0.17771747697E+02 -0.37674580404E+02  0.86326371633E+02  0.95851194380E+02  0.00000000000E+00 0.  1.
         -4    1    1    2    0  503  0.17864789543E+03 -0.11004063544E+03 -0.11372975963E+03  0.23865973731E+03  0.00000000000E+00 0. -1.
<mgrwt>
<rscale>  4 0.24799996E+03</rscale>
<asrwt>0</asrwt>
<pdfrwt beam="1">  1       21 0.29611531E-01 0.24799996E+03</pdfrwt>
<pdfrwt beam="2">  1       21 0.90417638E-01 0.24799996E+03</pdfrwt>
<totfact> 0.10974258E+04</totfact>
</mgrwt>
</event>
<event>
 5    0  0.1972558E-002  0.3404456E+03  0.7546771E-02  0.1066606E+00
         21   -1    0    0  501  502  0.00000000000E+00  0.00000000000E+00  0.12557886992E+03  0.12557886992E+03  0.00000000000E+00 0. -1.
         21   -1    0    0  502  503 -0.00000000000E+00 -0.00000000000E+00 -0.21325386315E+04  0.21325386315E+04  0.00000000000E+00 0. -1.
         25    1    1    2    0    0  0.29706813775E+03  0.15819262772E+03 -0.16274229540E+04  0.16665547867E+04  0.12500000000E+03 0.  0.
          4    1    1    2  501    0 -0.15479115522E+03  0.65660990528E+02 -0.23659434670E+03  0.29025601166E+03  0.00000000000E+00 0.  1.
         -4    1    1    2    0  503 -0.14227698253E+03 -0.22385361825E+03 -0.14294246084E+03  0.30130670300E+03  0.00000000000E+00 0. -1.
<mgrwt>
<rscale>  4 0.34044555E+03</rscale>
<asrwt>0</asrwt>
<pdfrwt beam="1">  1       21 0.19319827E-01 0.34044555E+03</pdfrwt>
<pdfrwt beam="2">  1       21 0.32808286E+00 0.34044555E+03</pdfrwt>
<totfact> 0.49203176E+02</totfact>
</mgrwt>
</event>
<event>
 5    0  0.1972558E-002  0.2197443E+03  0.7546771E-02  0.1134074E+00
         21   -1    0    0  503  502  0.00000000000E+00  0.00000000000E+00  0.20391992027E+03  0.20391992027E+03  0.00000000000E+00 0.  1.
         21   -1    0    0  501  503 -0.00000000000E+00 -0.00000000000E+00 -0.35371790428E+03  0.35371790428E+03  0.00000000000E+00 0. -1.
         25    1    1    2    0    0 -0.21893454643E+03  0.53929486851E+02 -0.11982443806E+03  0.28429495446E+03  0.12500000000E+03 0.  0.
          3    1    1    2  501    0  0.64433269764E+02 -0.82519142229E+02  0.23626557231E+02  0.10732785889E+03  0.00000000000E+00 0. -1.
         -3    1    1    2    0  502  0.15450127667E+03  0.28589655377E+02 -0.53600103174E+02  0.16601501121E+03  0.00000000000E+00 0.  1.
<mgrwt>
<rscale>  4 0.21974429E+03</rscale>
<asrwt>0</asrwt>
<pdfrwt beam="1">  1       21 0.31372296E-01 0.21974429E+03</pdfrwt>
<pdfrwt beam="2">  1       21 0.54418138E-01 0.21974429E+03</pdfrwt>
<totfact> 0.30703248E+04</totfact>
</mgrwt>
</event>
<event>
 5    0  0.1972558E-002  0.2946852E+03  0.7546771E-02  0.1087928E+00
         21   -1    0    0  501  502  0.00000000000E+00  0.00000000000E+00  0.72577622760E+03  0.72577622760E+03  0.00000000000E+00 0.  1.
         21   -1    0    0  502  503 -0.00000000000E+00 -0.00000000000E+00 -0.14586215753E+04  0.14586215753E+04  0.00000000000E+00 0.  1.
         25    1    1    2    0    0 -0.24969139521E+02 -0.28046939364E+03 -0.13068851269E+04  0.13427063244E+04  0.12500000000E+03 0.  0.
          1    1    1    2  501    0 -0.10079617552E+03  0.10445619810E+03  0.60588650707E+03  0.62303244360E+03  0.00000000000E+00 0.  1.
         -1    1    1    2    0  503  0.12576531504E+03  0.17601319555E+03 -0.31846727898E+02  0.21865903492E+03  0.00000000000E+00 0. -1.
<mgrwt>
<rscale>  4 0.29468518E+03</rscale>
<asrwt>0</asrwt>
<pdfrwt beam="1">  1       21 0.11165788E+00 0.29468518E+03</pdfrwt>
<pdfrwt beam="2">  1       21 0.22440332E+00 0.29468518E+03</pdfrwt>
<totfact> 0.52357246E+01</totfact>
</mgrwt>
</event>
<event>
 5    0  0.1972558E-002  0.3134084E+03  0.7546771E-02  0.1078724E+00
         21   -1    0    0  501  502  0.00000000000E+00  0.00000000000E+00  0.95268017937E+02  0.95268017937E+02  0.00000000000E+00 0.  1.
         21   -1    0    0  502  503 -0.00000000000E+00 -0.00000000000E+00 -0.19581000158E+04  0.19581000158E+04  0.00000000000E+00 0. -1.
         25    1    1    2    0    0 -0.93922341276E+02  0.18481675502E+03 -0.47608181765E+03  0.53409506291E+03  0.12500000000E+03 0.  0.
          3    1    1    2  501    0  0.15992049912E+03 -0.31282823516E+03 -0.13095569625E+04  0.13558670690E+04  0.00000000000E+00 0. -1.
         -3    1    1    2    0  503 -0.65998157842E+02  0.12801148014E+03 -0.77193217674E+02  0.16340590179E+03  0.00000000000E+00 0.  1.
<mgrwt>
<rscale>  4 0.31340845E+03</rscale>
<asrwt>0</asrwt>
<pdfrwt beam="1">  1       21 0.14656617E-01 0.31340845E+03</pdfrwt>
<pdfrwt beam="2">  1       21 0.30124617E+00 0.31340845E+03</pdfrwt>
<totfact> 0.12140562E+03</totfact>
</mgrwt>
</event>
<event>
 5    0  0.1972558E-002  0.2796469E+03  0.7546771E-02  0.1095882E+00
         21   -1    0    0  501  502  0.00000000000E+00  0.00000000000E+00  0.37126992176E+03  0.37126992176E+03  0.00000000000E+00 0.  1.
         21   -1    0    0  502  503 -0.00000000000E+00 -0.00000000000E+00 -0.57309369007E+03  0.57309369007E+03  0.00000000000E+00 0.  1.
         25    1    1    2    0    0 -0.16620744120E+03 -0.19738667951E+03 -0.46618805657E+03  0.54730495964E+03  0.12500000000E+03 0.  0.
          4    1    1    2  501    0  0.27536402980E+02  0.33499446318E+02  0.14516554594E+03  0.15150413235E+03  0.00000000000E+00 0. -1.
         -4    1    1    2    0  503  0.13867103822E+03  0.16388723319E+03  0.11919874232E+03  0.24555451984E+03  0.00000000000E+00 0.  1.
<mgrwt>
<rscale>  4 0.27964692E+03</rscale>
<asrwt>0</asrwt>
<pdfrwt beam="1">  1       21 0.57118450E-01 0.27964692E+03</pdfrwt>
<pdfrwt beam="2">  1       21 0.88168259E-01 0.27964692E+03</pdfrwt>
<totfact> 0.29791400E+03</totfact>
</mgrwt>
</event>
<event>
 5    0  0.1972558E-002  0.2483417E+03  0.7546771E-02  0.1114357E+00
         21   -1    0    0  501  502  0.00000000000E+00  0.00000000000E+00  0.50462203736E+02  0.50462203736E+02  0.00000000000E+00 0.  1.
         21   -1    0    0  502  503 -0.00000000000E+00 -0.00000000000E+00 -0.15791896462E+04  0.15791896462E+04  0.00000000000E+00 0.  1.
         25    1    1    2    0    0 -0.24029826437E+02  0.22498367044E+03 -0.75659846366E+03  0.79953819155E+03  0.12500000000E+03 0.  0.
          4    1    1    2  501    0  0.15957060159E+02 -0.17742456007E+02  0.61764271633E+01  0.24648950618E+02  0.00000000000E+00 0. -1.
         -4    1    1    2    0  503  0.80727662788E+01 -0.20724121443E+03 -0.77830540594E+03  0.80546470775E+03  0.00000000000E+00 0.  1.
<mgrwt>
<rscale>  4 0.24834172E+03</rscale>
<asrwt>0</asrwt>
<pdfrwt beam="1">  1       21 0.77634152E-02 0.24834172E+03</pdfrwt>
<pdfrwt beam="2">  1       21 0.24295228E+00 0.24834172E+03</pdfrwt>
<totfact> 0.88227896E+03</totfact>
</mgrwt>
</event>
<event>
 5    0  0.1972558E-002  0.1956521E+03  0.7546771E-02  0.1153460E+00
         21   -1    0    0  501  502  0.00000000000E+00  0.00000000000E+00  0.46003143138E+03  0.46003143138E+03  0.00000000000E+00 0. -1.
         21   -1    0    0  502  503 -0.00000000000E+00 -0.00000000000E+00 -0.56151314010E+03  0.56151314010E+03  0.00000000000E+00 0. -1.
         25    1    1    2    0    0 -0.20354851222E+03 -0.23833958223E+02  0.10783606609E+03  0.26316092328E+03  0.12500000000E+03 0.  0.
          3    1    1    2  501    0  0.56549758001E+02  0.15624438753E+02  0.25998834367E+03  0.26652567805E+03  0.00000000000E+00 0.  1.
         -3    1    1    2    0  503  0.14699875422E+03  0.82095194699E+01 -0.46930611848E+03  0.49185797014E+03  0.00000000000E+00 0. -1.
<mgrwt>
<rscale>  4 0.19565208E+03</rscale>
<asrwt>0</asrwt>
<pdfrwt beam="1">  1       21 0.70774066E-01 0.19565208E+03</pdfrwt>
<pdfrwt beam="2">  1       21 0.86386637E-01 0.19565208E+03</pdfrwt>
<totfact> 0.20825540E+03</totfact>
</mgrwt>
</event>
<event>
 5    0  0.1972558E-002  0.2377763E+03  0.7546771E-02  0.1121283E+00
         21   -1    0    0  501  502  0.00000000000E+00  0.00000000000E+00  0.79347880064E+02  0.79347880064E+02  0.00000000000E+00 0.  1.
         21   -1    0    0  502  503 -0.00000000000E+00 -0.00000000000E+00 -0.27789532004E+04  0.27789532004E+04  0.00000000000E+00 0.  1.
         25    1    1    2    0    0  0.10058796868E+03  0.18711941325E+03 -0.25600375466E+04  0.25718765239E+04  0.12500000000E+03 0.  0.
          1    1    1    2  501    0 -0.80042417468E+02 -0.18519036851E+03 -0.69503625063E+02  0.21338466459E+03  0.00000000000E+00 0.  1.
         -1    1    1    2    0  503 -0.20545551216E+02 -0.19290447372E+01 -0.70064148641E+02  0.73039891929E+02  0.00000000000E+00 0. -1.
<mgrwt>
<rscale>  4 0.23777633E+03</rscale>
<asrwt>0</asrwt>
<pdfrwt beam="1">  1       21 0.12207367E-01 0.23777633E+03</pdfrwt>
<pdfrwt beam="2">  1       21 0.42753124E+00 0.23777633E+03</pdfrwt>
<totfact> 0.30959370E+02</totfact>
</mgrwt>
</event>
<event>
 5    0  0.1972558E-002  0.2228043E+03  0.7546771E-02  0.1131809E+00
         21   -1    0    0  501  502  0.00000000000E+00  0.00000000000E+00  0.76925408089E+03  0.76925408089E+03  0.00000000000E+00 0.  1.
         21   -1    0    0  502  503 -0.00000000000E+00 -0.00000000000E+00 -0.36686491648E+03  0.36686491648E+03  0.00000000000E+00 0. -1.
         25    1    1    2    0    0  0.22021857908E+03 -0.94822017213E+02  0.25111432863E+02  0.27155666367E+03  0.12500000000E+03 0.  0.
          4    1    1    2  501    0 -0.16907975164E+03 -0.78076213747E+02  0.57059162853E+03  0.60021551472E+03  0.00000000000E+00 0.  1.
         -4    1    1    2    0  503 -0.51138827444E+02  0.17289823096E+03 -0.19331389698E+03  0.26434681898E+03  0.00000000000E+00 0. -1.
<mgrwt>
<rscale>  4 0.22280426E+03</rscale>
<asrwt>0</asrwt>
<pdfrwt beam="1">  1       21 0.11834678E+00 0.22280426E+03</pdfrwt>
<pdfrwt beam="2">  1       21 0.56440756E-01 0.22280426E+03</pdfrwt>
<totfact> 0.15701835E+03</totfact>
</mgrwt>
</event>
<event>
 5    0  0.1972558E-002  0.2573842E+03  0.7546771E-02  0.1108725E+00
         21   -1    0    0  501  502  0.00000000000E+00  0.00000000000E+00  0.10730930843E+04  0.10730930843E+04  0.00000000000E+00 0. -1.
         21   -1    0    0  502  503 -0.00000000000E+00 -0.00000000000E+00 -0.12122472888E+03  0.12122472888E+03  0.00000000000E+00 0. -1.
         25    1    1    2    0    0 -0.35245789293E+02 -0.23127116079E+03  0.10801163984E+03  0.28639156730E+03  0.12500000000E+03 0.  0.
          1    1    1    2  501    0  0.65504835737E+02  0.20028112808E+03  0.32544603992E+03  0.38770934818E+03  0.00000000000E+00 0. -1.
         -1    1    1    2    0  503 -0.30259046444E+02  0.30990032711E+02  0.51841067563E+03  0.52021689767E+03  0.00000000000E+00 0.  1.
<mgrwt>
<rscale>  4 0.25738423E+03</rscale>
<asrwt>0</asrwt>
<pdfrwt beam="1">  1       21 0.16509124E+00 0.25738423E+03</pdfrwt>
<pdfrwt beam="2">  1       21 0.18649959E-01 0.25738423E+03</pdfrwt>
<totfact> 0.57911829E+03</totfact>
</mgrwt>
</event>
<event>
 5    0  0.1972558E-002  0.3534002E+03  0.7546771E-02  0.1061228E+00
         21   -1    0    0  501  502  0.00000000000E+00  0.00000000000E+00  0.18973124070E+04  0.18973124070E+04  0.00000000000E+00 0.  1.
         21   -1    0    0  502  503 -0.00000000000E+00 -0.00000000000E+00 -0.32178216545E+03  0.32178216545E+03  0.00000000000E+00 0. -1.
         25    1    1    2    0    0 -0.51535860775E+02  0.32231225288E+03 -0.17232400377E+03  0.38969436174E+03  0.12500000000E+03 0.  0.
          1    1    1    2  501    0 -0.69480518795E+02 -0.39171712152E+03  0.12086022935E+04  0.12723951232E+04  0.00000000000E+00 0.  1.
         -1    1    1    2    0  503  0.12101637957E+03  0.69404868639E+02  0.53925195187E+03  0.55700508751E+03  0.00000000000E+00 0. -1.
<mgrwt>
<rscale>  4 0.35340022E+03</rscale>
<asrwt>0</asrwt>
<pdfrwt beam="1">  1       21 0.29189421E+00 0.35340022E+03</pdfrwt>
<pdfrwt beam="2">  1       21 0.49504950E-01 0.35340022E+03</pdfrwt>
<totfact> 0.12316397E+02</totfact>
</mgrwt>
</event>
<event>
 5    0  0.1972558E-002  0.2929310E+03  0.7546771E-02  0.1088829E+00
         21   -1    0    0  501  502  0.00000000000E+00  0.00000000000E+00  0.11812059878E+04  0.11812059878E+04  0.00000000000E+00 0.  1.
         21   -1    0    0  502  503 -0.00000000000E+00 -0.00000000000E+00 -0.10431108734E+03  0.10431108734E+03  0.00000000000E+00 0.  1.
         25    1    1    2    0    0 -0.24643858212E+03 -0.72271275726E+02  0.19987645847E+03  0.34861255098E+03  0.12500000000E+03 0.  0.
          2    1    1    2  501    0  0.28217841397E+03  0.57317263330E+02  0.72651762848E+03  0.78149714682E+03  0.00000000000E+00 0.  1.
         -2    1    1    2    0  503 -0.35739831852E+02  0.14954012396E+02  0.15050081347E+03  0.15540737732E+03  0.00000000000E+00 0. -1.
<mgrwt>
<rscale>  4 0.29293100E+03</rscale>
<asrwt>0</asrwt>
<pdfrwt beam="1">  1       21 0.18172399E+00 0.29293100E+03</pdfrwt>
<pdfrwt beam="2">  1       21 0.16047860E-01 0.29293100E+03</pdfrwt>
<totfact> 0.57152591E+03</totfact>
</mgrwt>
</event>
<event>
 5    0  0.1972558E-002  0.2710063E+03  0.7546771E-02  0.1100705E+00
         21   -1    0    0  501  502  0.00000000000E+00  0.00000000000E+00  0.27347598675E+03  0.27347598675E+03  0.00000000000E+00 0.  1.
         21   -1    0    0  502  503 -0.00000000000E+00 -0.00000000000E+00 -0.33136652823E+03  0.33136652823E+03  0.00000000000E+00 0. -1.
         25    1    1    2    0    0 -0.23868031647E+03 -0.95806429826E+02 -0.12705205586E+03  0.31291275200E+03  0.12500000000E+03 0.  0.
          2    1    1    2  501    0  0.19073601628E+03  0.11000820657E+03  0.18843154134E+02  0.22099117150E+03  0.00000000000E+00 0.  1.
         -2    1    1    2    0  503  0.47944300187E+02 -0.14201776748E+02  0.50318360250E+02  0.70938591482E+02  0.00000000000E+00 0. -1.
<mgrwt>
<rscale>  4 0.27100634E+03</rscale>
<asrwt>0</asrwt>
<pdfrwt beam="1">  1       21 0.42073229E-01 0.27100634E+03</pdfrwt>
<pdfrwt beam="2">  1       21 0.50979466E-01 0.27100634E+03</pdfrwt>
<totfact> 0.19090523E+04</totfact>
</mgrwt>
</event>
<event>
 5    0  0.1972558E-002  0.2419074E+03  0.7546771E-02  0.1118529E+00
         21   -1    0    0  501  502  0.00000000000E+00  0.00000000000E+00  0.24733954466E+03  0.24733954466E+03  0.00000000000E+00 0.  1.
         21   -1    0    0  502  503 -0.00000000000E+00 -0.00000000000E+00 -0.73870107309E+03  0.73870107309E+03  0.00000000000E+00 0.  1.
         25    1    1    2    0    0  0.67292405978E+02  0.19294513817E+03 -0.62601846284E+03  0.67028367880E+03  0.12500000000E+03 0.  0.
          2    1    1    2  501    0 -0.59162862450E+02 -0.21765126503E+03  0.55275826842E+02  0.23222345811E+03  0.00000000000E+00 0.  1.
         -2    1    1    2    0  503 -0.81295435276E+01  0.24706126861E+02  0.79381107577E+02  0.83533480848E+02  0.00000000000E+00 0. -1.
<mgrwt>
<rscale>  4 0.24190742E+03</rscale>
<asrwt>0</asrwt>
<pdfrwt beam="1">  1       21 0.38052238E-01 0.24190742E+03</pdfrwt>
<pdfrwt beam="2">  1       21 0.11364632E+00 0.24190742E+03</pdfrwt>
<totfact> 0.38703319E+03</totfact>
</mgrwt>
</event>
<event>
 5    0  0.1972558E-002  0.2714304E+03  0.7546771E-02  0.1100464E+00
         21   -1    0    0  501  502  0.00000000000E+00  0.00000000000E+00  0.80964788532E+03  0.80964788532E+03  0.00000000000E+00 0.  1.
         21   -1    0    0  502  503 -0.00000000000E+00 -0.00000000000E+00 -0.24131985209E+03  0.24131985209E+03  0.00000000000E+00 0.  1.
         25    1    1    2    0    0 -0.21406063215E+03 -0.11271248894E+03  0.10754851650E+03  0.29277592593E+03  0.12500000000E+03 0.  0.
          3    1    1    2  501    0  0.34880172988E+02 -0.51612350871E+02  0.50691752600E+03  0.51073069165E+03  0.00000000000E+00 0. -1.
         -3    1    1    2    0  503  0.17918045916E+03  0.16432483981E+03 -0.46138009277E+02  0.24746111983E+03  0.00000000000E+00 0.  1.
<mgrwt>
<rscale>  4 0.27143044E+03</rscale>
<asrwt>0</asrwt>
<pdfrwt beam="1">  1       21 0.12456121E+00 0.27143044E+03</pdfrwt>
<pdfrwt beam="2">  1       21 0.37126131E-01 0.27143044E+03</pdfrwt>
<totfact> 0.31752457E+03</totfact>
</mgrwt>
</event>
<event>
 5    0  0.1972558E-002  0.2763625E+03  0.7546771E-02  0.1097692E+00
         21   -1    0    0  501  502  0.00000000000E+00  0.00000000000E+00  0.15140860821E+03  0.15140860821E+03  0.00000000000E+00 0.  1.
         21   -1    0    0  502  503 -0.00000000000E+00 -0.00000000000E+00 -0.90351702579E+03  0.90351702579E+03  0.00000000000E+00 0. -1.
         25    1    1    2    0    0 -0.12479361278E+03  0.21178131138E+03 -0.63041823264E+03  0.68809659038E+03  0.12500000000E+03 0.  0.
          4    1    1    2  501    0  0.23943536228E+02  0.15997020270E+02  0.54549177943E+02  0.61683145177E+02  0.00000000000E+00 0.  1.
         -4    1    1    2    0  503  0.10085007656E+03 -0.22777833165E+03 -0.17623936288E+03  0.30514589845E+03  0.00000000000E+00 0. -1.
<mgrwt>
<rscale>  4 0.27636249E+03</rscale>
<asrwt>0</asrwt>
<pdfrwt beam="1">  1       21 0.23293632E-01 0.27636249E+03</pdfrwt>
<pdfrwt beam="2">  1       21 0.13900262E+00 0.27636249E+03</pdfrwt>
<totfact> 0.59627173E+03</totfact>
</mgrwt>
</event>
<event>
 5    0  0.1972558E-002  0.3028451E+03  0.7546771E-02  0.1083827E+00
         21   -1    0    0  503  502  0.00000000000E+00  0.00000000000E+00  0.24198720047E+03  0.24198720047E+03  0.00000000000E+00 0.  1.
         21   -1    0    0  501  503 -0.00000000000E+00 -0.00000000000E+00 -0.46775338796E+03  0.46775338796E+03  0.00000000000E+00 0.  1.
         25    1    1    2    0    0  0.11014093139E+03 -0.25290144477E+03 -0.28669052273E+03  0.41702112820E+03  0.12500000000E+03 0.  0.
          1    1    1    2  501    0 -0.10220857599E+02  0.39653460139E+02  0.38417719012E+02  0.56149656857E+02  0.00000000000E+00 0. -1.
         -1    1    1    2    0  502 -0.99920073790E+02  0.21324798463E+03  0.22506616229E+02  0.23656980338E+03  0.00000000000E+00 0.  1.
<mgrwt>
<rscale>  4 0.30284512E+03</rscale>
<asrwt>0</asrwt>
<pdfrwt beam="1">  1       21 0.37228801E-01 0.30284512E+03</pdfrwt>
<pdfrwt beam="2">  1       21 0.71962059E-01 0.30284512E+03</pdfrwt>
<totfact> 0.11418262E+04</totfact>
</mgrwt>
</event>
<event>
 5    0  0.1972558E-002  0.2413413E+03  0.7546771E-02  0.1118903E+00
         21   -1    0    0  501  502  0.00000000000E+00  0.00000000000E+00  0.66733001203E+02  0.66733001203E+02  0.00000000000E+00 0.  1.
         21   -1    0    0  502  503 -0.00000000000E+00 -0.00000000000E+00 -0.13899405114E+04  0.13899405114E+04  0.00000000000E+00 0.  1.
         25    1    1    2    0    0 -0.19001525673E+03 -0.96252548766E+02 -0.11322166829E+04  0.11588399233E+04  0.12500000000E+03 0.  0.
          4    1    1    2  501    0  0.17145663012E+03  0.76948079516E+02 -0.19492714194E+03  0.27076737916E+03  0.00000000000E+00 0.  1.
         -4    1    1    2    0  503  0.18558626605E+02  0.19304469250E+02  0.39363146527E+01  0.27066210069E+02  0.00000000000E+00 0. -1.
<mgrwt>
<rscale>  4 0.24134130E+03</rscale>
<asrwt>0</asrwt>
<pdfrwt beam="1">  1       21 0.10266617E-01 0.24134130E+03</pdfrwt>
<pdfrwt beam="2">  1       21 0.21383698E+00 0.24134130E+03</pdfrwt>
<totfact> 0.81734694E+03</totfact>
</mgrwt>
</event>
<event>
 5    0  0.1972558E-002  0.3664469E+03  0.7546771E-02  0.1056060E+00
         21   -1    0    0  501  502  0.00000000000E+00  0.00000000000E+00  0.16377741981E+03  0.16377741981E+03  0.00000000000E+00 0. -1.
         21   -1    0    0  502  503 -0.00000000000E+00 -0.00000000000E+00 -0.16032369005E+04  0.16032369005E+04  0.00000000000E+00 0.  1.
         25    1    1    2    0    0  0.33803292200E+03  0.66272561737E+02 -0.13493262953E+04  0.13982005435E+04  0.12500000000E+03 0.  0.
          1    1    1    2  501    0 -0.29243275458E+03 -0.63987269666E+02 -0.11013319204E+03  0.31896803385E+03  0.00000000000E+00 0.  1.
         -1    1    1    2    0  503 -0.45600167418E+02 -0.22852920708E+01  0.20000006583E+02  0.49845742965E+02  0.00000000000E+00 0. -1.
<mgrwt>
<rscale>  4 0.36644687E+03</rscale>
<asrwt>0</asrwt>
<pdfrwt beam="1">  1       21 0.25196527E-01 0.36644687E+03</pdfrwt>
<pdfrwt beam="2">  1       21 0.24665182E+00 0.36644687E+03</pdfrwt>
<totfact> 0.89209672E+02</totfact>
</mgrwt>
</event>
<event>
 5    0  0.1972558E-002  0.3004787E+03  0.7546771E-02  0.1085002E+00
         21   -1    0    0  501  502  0.00000000000E+00  0.00000000000E+00  0.31607164026E+04  0.31607164026E+04  0.00000000000E+00 0. -1.
         21   -1    0    0  502  503 -0.00000000000E+00 -0.00000000000E+00 -0.32495713633E+02  0.32495713633E+02  0.00000000000E+00 0.  1.
         25    1    1    2    0    0  0.74631312151E+02 -0.25569727822E+03  0.10403032804E+04  0.10811137064E+04  0.12500000000E+03 0.  0.
          2    1    1    2  501    0 -0.56654486196E+02  0.27983573944E+03  0.17850529516E+04  0.18077421862E+04  0.00000000000E+00 0. -1.
         -2    1    1    2    0  503 -0.17976825955E+02 -0.24138461223E+02  0.30286445698E+03  0.30435622367E+03  0.00000000000E+00 0.  1.
<mgrwt>
<rscale>  4 0.30047871E+03</rscale>
<asrwt>0</asrwt>
<pdfrwt beam="1">  1       21 0.48626382E+00 0.30047871E+03</pdfrwt>
<pdfrwt beam="2">  1       21 0.49993430E-02 0.30047871E+03</pdfrwt>
<totfact> 0.55245085E+02</totfact>
</mgrwt>
</event>
<event>
 5    0  0.1972558E-002  0.2812744E+03  0.7546771E-02  0.1094995E+00
         21   -1    0    0  501  502  0.00000000000E+00  0.00000000000E+00  0.16884952540E+04  0.16884952540E+04  0.00000000000E+00 0. -1.
         21   -1    0    0  502  503 -0.00000000000E+00 -0.00000000000E+00 -0.87563229312E+02  0.87563229312E+02  0.00000000000E+00 0.  1.
         25    1    1    2    0    0  0.18120496039E+03  0.18359248266E+03  0.20532726261E+03  0.35259852826E+03  0.12500000000E+03 0.  0.
          2    1    1    2  501    0 -0.30478593319E+02 -0.86506486159E+01  0.40756863637E+03  0.40879820416E+03  0.00000000000E+00 0.  1.
         -2    1    1    2    0  503 -0.15072636707E+03 -0.17494183404E+03  0.98803612575E+03  0.10146617509E+04  0.00000000000E+00 0. -1.
<mgrwt>
<rscale>  4 0.28127438E+03</rscale>
<asrwt>0</asrwt>
<pdfrwt beam="1">  1       21 0.25976848E+00 0.28127438E+03</pdfrwt>
<pdfrwt beam="2">  1       21 0.13471267E-01 0.28127438E+03</pdfrwt>
<totfact> 0.25549584E+03</totfact>
</mgrwt>
</event>
<event>
 5    0  0.1972558E-002  0.2509365E+03  0.7546771E-02  0.1112714E+00
         21   -1    0    0  503  502  0.00000000000E+00  0.00000000000E+00  0.17105959268E+03  0.17105959268E+03  0.00000000000E+00 0. -1.
         21   -1    0    0  501  503 -0.00000000000E+00 -0.00000000000E+00 -0.13949761269E+04  0.13949761269E+04  0.00000000000E+00 0.  1.
         25    1    1    2    0    0 -0.21554394608E+03  0.15652060560E+02 -0.12688316181E+04  0.12931600268E+04  0.12500000000E+03 0.  0.
          2    1    1    2  501    0 -0.20354272511E+02 -0.12025581042E+01 -0.19185466679E+02  0.27996869238E+02  0.00000000000E+00 0.  1.
         -2    1    1    2    0  502  0.23589821859E+03 -0.14449502456E+02  0.64100550569E+02  0.24487882358E+03  0.00000000000E+00 0. -1.
<mgrwt>
<rscale>  4 0.25093645E+03</rscale>
<asrwt>0</asrwt>
<pdfrwt beam="1">  1       21 0.26316861E-01 0.25093645E+03</pdfrwt>
<pdfrwt beam="2">  1       21 0.21461171E+00 0.25093645E+03</pdfrwt>
<totfact> 0.14077617E+03</totfact>
</mgrwt>
</event>
<event>
 5    0  0.1972558E-002  0.2287562E+03  0.7546771E-02  0.1127518E+00
         21   -1    0    0  503  502  0.00000000000E+00  0.00000000000E+00  0.12973220552E+04  0.12973220552E+04  0.00000000000E+00 0. -1.
         21   -1    0    0  501  503 -0.00000000000E+00 -0.00000000000E+00 -0.63160565863E+02  0.63160565863E+02  0.00000000000E+00 0.  1.
         25    1    1    2    0    0 -0.18404387627E+03 -0.10610168569E+03  0.25503133037E+03  0.35467688897E+03  0.12500000000E+03 0.  0.
          1    1    1    2  501    0  0.23187773870E+02  0.93215877287E+01  0.33910692975E+02  0.42124813981E+02  0.00000000000E+00 0.  1.
         -1    1    1    2    0  502  0.16085610240E+03  0.96780097963E+02  0.94521946595E+03  0.96368091807E+03  0.00000000000E+00 0. -1.
<mgrwt>
<rscale>  4 0.22875623E+03</rscale>
<asrwt>0</asrwt>
<pdfrwt beam="1">  1       21 0.19958799E+00 0.22875623E+03</pdfrwt>
<pdfrwt beam="2">  1       21 0.97170111E-02 0.22875623E+03</pdfrwt>
<totfact> 0.11210224E+04</totfact>
</mgrwt>
</event>
<event>
 5    0  0.1972558E-002  0.2766889E+03  0.7546771E-02  0.1097511E+00
         21   -1    0    0  501  502  0.00000000000E+00  0.00000000000E+00  0.13447474268E+04  0.13447474268E+04  0.00000000000E+00 0.  1.
         21   -1    0    0  502  503 -0.00000000000E+00 -0.00000000000E+00 -0.27210076949E+03  0.27210076949E+03  0.00000000000E+00 0. -1.
         25    1    1    2    0    0  0.25560855054E+03 -0.22421133243E+02 -0.10476247297E+03  0.30403719191E+03  0.12500000000E+03 0.  0.
          1    1    1    2  501    0 -0.17751288254E+03 -0.23757513036E+03  0.74963898005E+03  0.80617080475E+03  0.00000000000E+00 0. -1.
         -1    1    1    2    0  503 -0.78095667996E+02  0.25999626360E+03  0.42777015019E+03  0.50664019959E+03  0.00000000000E+00 0.  1.
<mgrwt>
<rscale>  4 0.27668890E+03</rscale>
<asrwt>0</asrwt>
<pdfrwt beam="1">  1       21 0.20688422E+00 0.27668890E+03</pdfrwt>
<pdfrwt beam="2">  1       21 0.41861657E-01 0.27668890E+03</pdfrwt>
<totfact> 0.61270223E+02</totfact>
</mgrwt>
</event>
<event>
 5    0  0.1972558E-002  0.2426285E+03  0.7546771E-02  0.1118054E+00
         21   -1    0    0  501  502  0.00000000000E+00  0.00000000000E+00  0.45893246941E+03  0.45893246941E+03  0.00000000000E+00 0.  1.
         21   -1    0    0  502  503 -0.00000000000E+00 -0.00000000000E+00 -0.19034723092E+03  0.19034723092E+03  0.00000000000E+00 0. -1.
         25    1    1    2    0    0 -0.11455297318E+03 -0.17846512498E+03 -0.56524427129E+02  0.25257116890E+03  0.12500000000E+03 0.  0.
          2    1    1    2  501    0  0.28992446224E+02  0.15079853258E+01  0.60280378753E+02  0.66907099925E+02  0.00000000000E+00 0. -1.
         -2    1    1    2    0  503  0.85560526954E+02  0.17695713965E+03  0.26482928687E+03  0.32980143151E+03  0.00000000000E+00 0.  1.
<mgrwt>
<rscale>  4 0.24262850E+03</rscale>
<asrwt>0</asrwt>
<pdfrwt beam="1">  1       21 0.70604995E-01 0.24262850E+03</pdfrwt>
<pdfrwt beam="2">  1       21 0.29284189E-01 0.24262850E+03</pdfrwt>
<totfact> 0.19745950E+04</totfact>
</mgrwt>
</event>
<event>
 5    0  0.1972558E-002  0.2433533E+03  0.7546771E-02  0.1117579E+00
         21   -1    0    0  501  502  0.00000000000E+00  0.00000000000E+00  0.73354224042E+03  0.73354224042E+03  0.00000000000E+00 0. -1.
         21   -1    0    0  502  503 -0.00000000000E+00 -0.00000000000E+00 -0.15507079046E+03  0.15507079046E+03  0.00000000000E+00 0. -1.
         25    1    1    2    0    0 -0.90350313134E+02  0.19422643619E+03  0.15903873489E+02  0.24852569443E+03  0.12500000000E+03 0.  0.
          3    1    1    2  501    0  0.51763931812E+02  0.35912506169E+01  0.32243719499E+03  0.32658558822E+03  0.00000000000E+00 0. -1.
         -3    1    1    2    0  503  0.38586381321E+02 -0.19781768681E+03  0.24013038147E+03  0.31350174823E+03  0.00000000000E+00 0.  1.
<mgrwt>
<rscale>  4 0.24335329E+03</rscale>
<asrwt>0</asrwt>
<pdfrwt beam="1">  1       21 0.11285265E+00 0.24335329E+03</pdfrwt>
<pdfrwt beam="2">  1       21 0.23857045E-01 0.24335329E+03</pdfrwt>
<totfact> 0.98297035E+03</totfact>
</mgrwt>
</event>
<event>
 5    0  0.1972558E-002  0.2653656E+03  0.7546771E-02  0.1103962E+00
         21   -1    0    0  501  502  0.00000000000E+00  0.00000000000E+00  0.13776315619E+04  0.13776315619E+04  0.00000000000E+00 0. -1.
         21   -1    0    0  502  503 -0.00000000000E+00 -0.00000000000E+00 -0.22783952640E+03  0.22783952640E+03  0.00000000000E+00 0.  1.
         25    1    1    2    0    0 -0.20278110911E+03  0.11317973403E+03 -0.12375354312E+03  0.29132416625E+03  0.12500000000E+03 0.  0.
          4    1    1    2  501    0 -0.24124259766E+02 -0.34881250042E+01  0.49971356094E+03  0.50030769523E+03  0.00000000000E+00 0.  1.
         -4    1    1    2    0  503  0.22690536887E+03 -0.10969160903E+03  0.77383201765E+03  0.81383922678E+03  0.00000000000E+00 0. -1.
<mgrwt>
<rscale>  4 0.26536564E+03</rscale>
<asrwt>0</asrwt>
<pdfrwt beam="1">  1       21 0.21194331E+00 0.26536564E+03</pdfrwt>
<pdfrwt beam="2">  1       21 0.35052236E-01 0.26536564E+03</pdfrwt>
<totfact> 0.82283066E+02</totfact>
</mgrwt>
</event>
<event>
 5    0  0.1972558E-002  0.2732256E+03  0.7546771E-02  0.1099448E+00
         21   -1    0    0  501  502  0.00000000000E+00  0.00000000000E+00  0.92744699186E+03  0.92744699186E+03  0.00000000000E+00 0. -1.
         21   -1    0    0  502  503 -0.00000000000E+00 -0.00000000000E+00 -0.28544735739E+03  0.28544735739E+03  0.00000000000E+00 0. -1.
         25    1    1    2    0    0  0.23946237416E+03  0.46323090187E+02 -0.18374984245E+03  0.32996524351E+03  0.12500000000E+03 0.  0.
          1    1    1    2  501    0 -0.23979265427E+03 -0.65842895380E+00  0.50609919096E+03  0.56003333977E+03  0.00000000000E+00 0. -1.
         -1    1    1    2    0  503  0.33028011033E+00 -0.45664661234E+02  0.31965028595E+03  0.32289576597E+03  0.00000000000E+00 0.  1.
<mgrwt>
<rscale>  4 0.27322560E+03</rscale>
<asrwt>0</asrwt>
<pdfrwt beam="1">  1       21 0.14268415E+00 0.27322560E+03</pdfrwt>
<pdfrwt beam="2">  1       21 0.43914979E-01 0.27322560E+03</pdfrwt>
<totfact> 0.15870909E+03</totfact>
</mgrwt>
</event>
<event>
 5    0  0.1972558E-002  0.2473493E+03  0.7546771E-02  0.1114992E+00
         21   -1    0    0  501  502  0.00000000000E+00  0.00000000000E+00  0.32856939520E+03  0.32856939520E+03  0.00000000000E+00 0. -1.
         21   -1    0    0  502  503 -0.00000000000E+00 -0.00000000000E+00 -0.40751431558E+03  0.40751431558E+03  0.00000000000E+00 0.  1.
         25    1    1    2    0    0 -0.17676896349E+03  0.10069263363E+03 -0.20613600367E+03  0.31544147623E+03  0.12500000000E+03 0.  0.
          3    1    1    2  501    0 -0.37881209101E+02 -0.13592655405E+02  0.17883411099E+03  0.18330680712E+03  0.00000000000E+00 0. -1.
         -3    1    1    2    0  503  0.21465017259E+03 -0.87099978222E+02 -0.51643027697E+02  0.23733542742E+03  0.00000000000E+00 0.  1.
<mgrwt>
<rscale>  4 0.24734930E+03</rscale>
<asrwt>0</asrwt>
<pdfrwt beam="1">  1       21 0.50549138E-01 0.24734930E+03</pdfrwt>
<pdfrwt beam="2">  1       21 0.62694510E-01 0.24734930E+03</pdfrwt>
<totfact> 0.84747045E+03</totfact>
</mgrwt>
</event>
<event>
 5    0  0.1972558E-002  0.3152733E+03  0.7546771E-02  0.1077845E+00
         21   -1    0    0  501  502  0.00000000000E+00  0.00000000000E+00  0.14758495649E+04  0.14758495649E+04  0.00000000000E+00 0. -1.
         21   -1    0    0  502  503 -0.00000000000E+00 -0.00000000000E+00 -0.47896348673E+03  0.47896348673E+03  0.00000000000E+00 0.  1.
         25    1    1    2    0    0 -0.31101406408E+03 -0.20478803996E+02 -0.12354782877E+03  0.35782425220E+03  0.12500000000E+03 0.  0.
          1    1    1    2  501    0  0.37146599679E+02  0.60664123209E+02  0.12769985389E+04  0.12789782148E+04  0.00000000000E+00 0. -1.
         -1    1    1    2    0  503  0.27386746440E+03 -0.40185319213E+02 -0.15656463194E+03  0.31801058459E+03  0.00000000000E+00 0.  1.
<mgrwt>
<rscale>  4 0.31527328E+03</rscale>
<asrwt>0</asrwt>
<pdfrwt beam="1">  1       21 0.22705378E+00 0.31527328E+03</pdfrwt>
<pdfrwt beam="2">  1       21 0.73686691E-01 0.31527328E+03</pdfrwt>
<totfact> 0.13149055E+02</totfact>
</mgrwt>
</event>
<event>
 5    0  0.1972558E-002  0.2367428E+03  0.7546771E-02  0.1121982E+00
         21   -1    0    0  501  502  0.00000000000E+00  0.00000000000E+00  0.15221422808E+04  0.15221422808E+04  0.00000000000E+00 0.  1.
         21   -1    0    0  502  503 -0.00000000000E+00 -0.00000000000E+00 -0.17903846911E+03  0.17903846911E+03  0.00000000000E+00 0. -1.
         25    1    1    2    0    0 -0.18390951187E+03  0.98603923191E+02 -0.43336477928E+02  0.24707993149E+03  0.12500000000E+03 0.  0.
          4    1    1    2  501    0  0.66940180657E+02  0.54379643062E+02  0.11305867469E+04  0.11338714767E+04  0.00000000000E+00 0.  1.
         -4    1    1    2    0  503  0.11696933121E+03 -0.15298356625E+03  0.25585354273E+03  0.32022934175E+03  0.00000000000E+00 0. -1.
<mgrwt>
<rscale>  4 0.23674276E+03</rscale>
<asrwt>0</asrwt>
<pdfrwt beam="1">  1       21 0.23417573E+00 0.23674276E+03</pdfrwt>
<pdfrwt beam="2">  1       21 0.27544381E-01 0.23674276E+03</pdfrwt>
<totfact> 0.98894103E+02</totfact>
</mgrwt>
</event>
<event>
 5    0  0.1972558E-002  0.4033680E+03  0.7546771E-02  0.1042620E+00
         21   -1    0    0  501  502  0.00000000000E+00  0.00000000000E+00  0.98323366533E+03  0.98323366533E+03  0.00000000000E+00 0.  1.
         21   -1    0    0  502  503 -0.00000000000E+00 -0.00000000000E+00 -0.24469984049E+03  0.24469984049E+03  0.00000000000E+00 0. -1.
         25    1    1    2    0    0 -0.32633379461E+03 -0.15085568213E+03  0.13092857653E+03  0.40251518541E+03  0.12500000000E+03 0.  0.
          4    1    1    2  501    0  0.40807882461E+03  0.12235723661E+03  0.34279375830E+03  0.54681549098E+03  0.00000000000E+00 0.  1.
         -4    1    1    2    0  503 -0.81745030004E+02  0.28498445522E+02  0.26481149000E+03  0.27860282943E+03  0.00000000000E+00 0. -1.
<mgrwt>
<rscale>  4 0.40336798E+03</rscale>
<asrwt>0</asrwt>
<pdfrwt beam="1">  1       21 0.15126672E+00 0.40336798E+03</pdfrwt>
<pdfrwt beam="2">  1       21 0.37646130E-01 0.40336798E+03</pdfrwt>
<totfact> 0.17316049E+03</totfact>
</mgrwt>
</event>
<event>
 5    0  0.1972558E-002  0.3001743E+03  0.7546771E-02  0.1085153E+00
         21   -1    0    0  503  502  0.00000000000E+00  0.00000000000E+00  0.18664007983E+04  0.18664007983E+04  0.00000000000E+00 0.  1.
         21   -1    0    0  501  503 -0.00000000000E+00 -0.00000000000E+00 -0.44304960718E+03  0.44304960718E+03  0.00000000000E+00 0. -1.
         25    1    1    2    0    0  0.96885688158E+02 -0.25293713411E+03 -0.35305560897E+03  0.46220914466E+03  0.12500000000E+03 0.  0.
          4    1    1    2  501    0  0.10072518290E+03  0.73295672894E+01  0.10568175747E+04  0.10616320790E+04  0.00000000000E+00 0. -1.
         -4    1    1    2    0  502 -0.19761087106E+03  0.24560756682E+03  0.71958922545E+03  0.78560918186E+03  0.00000000000E+00 0.  1.
<mgrwt>
<rscale>  4 0.30017433E+03</rscale>
<asrwt>0</asrwt>
<pdfrwt beam="1">  1       21 0.28713858E+00 0.30017433E+03</pdfrwt>
<pdfrwt beam="2">  1       21 0.68161479E-01 0.30017433E+03</pdfrwt>
<totfact> 0.69099275E+01</totfact>
</mgrwt>
</event>
<event>
 5    0  0.1972558E-002  0.3152483E+03  0.7546771E-02  0.1077857E+00
         21   -1    0    0  501  502  0.00000000000E+00  0.00000000000E+00  0.58233923562E+03  0.58233923562E+03  0.00000000000E+00 0. -1.
         21   -1    0    0  502  503 -0.00000000000E+00 -0.00000000000E+00 -0.42137852325E+03  0.42137852325E+03  0.00000000000E+00 0. -1.
         25    1    1    2    0    0 -0.27742313348E+03 -0.82419150779E+02 -0.31342410783E+03  0.44454041748E+03  0.12500000000E+03 0.  0.
          2    1    1    2  501    0  0.26178903906E+03  0.61605694123E+02  0.44466835834E+03  0.51967173430E+03  0.00000000000E+00 0. -1.
         -2    1    1    2    0  503  0.15634094418E+02  0.20813456655E+02  0.29716461860E+02  0.39505607091E+02  0.00000000000E+00 0.  1.
<mgrwt>
<rscale>  4 0.31524833E+03</rscale>
<asrwt>0</asrwt>
<pdfrwt beam="1">  1       21 0.89590652E-01 0.31524833E+03</pdfrwt>
<pdfrwt beam="2">  1       21 0.64827465E-01 0.31524833E+03</pdfrwt>
<totfact> 0.21351125E+03</totfact>
</mgrwt>
</event>
<event>
 5    0  0.1972558E-002  0.3976957E+03  0.7546771E-02  0.1044580E+00
         21   -1    0    0  501  502  0.00000000000E+00  0.00000000000E+00  0.81339788221E+03  0.81339788221E+03  0.00000000000E+00 0.  1.
         21   -1    0    0  502  503 -0.00000000000E+00 -0.00000000000E+00 -0.84682578847E+03  0.84682578847E+03  0.00000000000E+00 0. -1.
         25    1    1    2    0    0  0.16536243210E+03  0.32460619763E+03 -0.60149160856E+03  0.71423460618E+03  0.12500000000E+03 0.  0.
          1    1    1    2  501    0 -0.80153006278E+02  0.13309756279E+03  0.43479773111E+03  0.46172343737E+03  0.00000000000E+00 0. -1.
         -1    1    1    2    0  503 -0.85209425820E+02 -0.45770376042E+03  0.13326597119E+03  0.48426562714E+03  0.00000000000E+00 0.  1.
<mgrwt>
<rscale>  4 0.39769573E+03</rscale>
<asrwt>0</asrwt>
<pdfrwt beam="1">  1       21 0.12513814E+00 0.39769573E+03</pdfrwt>
<pdfrwt beam="2">  1       21 0.13028089E+00 0.39769573E+03</pdfrwt>
<totfact> 0.17131235E+02</totfact>
</mgrwt>
</event>
<event>
 5    0  0.1972558E-002  0.2396526E+03  0.7546771E-02  0.1120024E+00
         21   -1    0    0  503  502  0.00000000000E+00  0.00000000000E+00  0.41565440279E+02  0.41565440279E+02  0.00000000000E+00 0. -1.
         21   -1    0    0  501  503 -0.00000000000E+00 -0.00000000000E+00 -0.13103233781E+04  0.13103233781E+04  0.00000000000E+00 0. -1.
         25    1    1    2    0    0 -0.13103871847E+03 -0.15696249479E+03 -0.81094986767E+03  0.84561992549E+03  0.12500000000E+03 0.  0.
          3    1    1    2  501    0  0.96244494984E+02  0.93900336822E+02 -0.22042945827E+03  0.25820422565E+03  0.00000000000E+00 0. -1.
         -3    1    1    2    0  502  0.34794223487E+02  0.63062157969E+02 -0.23737861191E+03  0.24806466727E+03  0.00000000000E+00 0.  1.
<mgrwt>
<rscale>  4 0.23965260E+03</rscale>
<asrwt>0</asrwt>
<pdfrwt beam="1">  1       21 0.63946838E-02 0.23965260E+03</pdfrwt>
<pdfrwt beam="2">  1       21 0.20158819E+00 0.23965260E+03</pdfrwt>
<totfact> 0.22441088E+04</totfact>
</mgrwt>
</event>
<event>
 5    0  0.1972558E-002  0.3536185E+03  0.7546771E-02  0.1061140E+00
         21   -1    0    0  503  502  0.00000000000E+00  0.00000000000E+00  0.10462594263E+04  0.10462594263E+04  0.00000000000E+00 0. -1.
         21   -1    0    0  501  503 -0.00000000000E+00 -0.00000000000E+00 -0.20735419028E+03  0.20735419028E+03  0.00000000000E+00 0. -1.
         25    1    1    2    0    0  0.29038823198E+03 -0.21183740575E+03  0.31078370539E+03  0.49133687352E+03  0.12500000000E+03 0.  0.
          1    1    1    2  501    0 -0.73201825484E+02 -0.19209927979E+02  0.42073328511E+03  0.42748570243E+03  0.00000000000E+00 0.  1.
         -1    1    1    2    0  502 -0.21718640649E+03  0.23104733373E+03  0.10738824548E+03  0.33479104058E+03  0.00000000000E+00 0. -1.
<mgrwt>
<rscale>  4 0.35361853E+03</rscale>
<asrwt>0</asrwt>
<pdfrwt beam="1">  1       21 0.16096299E+00 0.35361853E+03</pdfrwt>
<pdfrwt beam="2">  1       21 0.31900645E-01 0.35361853E+03</pdfrwt>
<totfact> 0.20886780E+03</totfact>
</mgrwt>
</event>
<event>
 5    0  0.1972558E-002  0.4501857E+03  0.7546771E-02  0.1027667E+00
         21   -1    0    0  503  502  0.00000000000E+00  0.00000000000E+00  0.87518699471E+03  0.87518699471E+03  0.00000000000E+00 0. -1.
         21   -1    0    0  501  503 -0.00000000000E+00 -0.00000000000E+00 -0.28753791180E+03  0.28753791180E+03  0.00000000000E+00 0.  1.
         25    1    1    2    0    0  0.94130953100E+02 -0.42211555392E+03  0.34588656508E+02  0.45151251628E+03  0.12500000000E+03 0.  0.
          2    1    1    2  501    0  0.40888909451E+01  0.80415062681E+02  0.17275925642E+03  0.19060184158E+03  0.00000000000E+00 0.  1.
         -2    1    1    2    0  502 -0.98219844045E+02  0.34170049124E+03  0.38030116997E+03  0.52061054865E+03  0.00000000000E+00 0. -1.
<mgrwt>
<rscale>  4 0.45018571E+03</rscale>
<asrwt>0</asrwt>
<pdfrwt beam="1">  1       21 0.13464415E+00 0.45018571E+03</pdfrwt>
<pdfrwt beam="2">  1       21 0.44236602E-01 0.45018571E+03</pdfrwt>
<totfact> 0.16604668E+03</totfact>
</mgrwt>
</event>
<event>
 5    0  0.1972558E-002  0.2451564E+03  0.7546771E-02  0.1116405E+00
         21   -1    0    0  501  502  0.00000000000E+00  0.00000000000E+00  0.70995264124E+03  0.70995264124E+03  0.00000000000E+00 0.  1.
         21   -1    0    0  502  503 -0.00000000000E+00 -0.00000000000E+00 -0.36551267769E+03  0.36551267769E+03  0.00000000000E+00 0. -1.
         25    1    1    2    0    0 -0.20307706630E+03 -0.85847695203E+02 -0.32793316777E+02  0.25555923629E+03  0.12500000000E+03 0.  0.
          4    1    1    2  501    0 -0.11201164646E+02  0.11150380351E+03  0.53879250831E+03  0.55032347878E+03  0.00000000000E+00 0.  1.
         -4    1    1    2    0  503  0.21427823094E+03 -0.25656108309E+02 -0.16155922799E+03  0.26958260385E+03  0.00000000000E+00 0. -1.
<mgrwt>
<rscale>  4 0.24515636E+03</rscale>
<asrwt>0</asrwt>
<pdfrwt beam="1">  1       21 0.10922348E+00 0.24515636E+03</pdfrwt>
<pdfrwt beam="2">  1       21 0.56232720E-01 0.24515636E+03</pdfrwt>
<totfact> 0.18922754E+03</totfact>
</mgrwt>
</event>
<event>
 5    0  0.1972558E-002  0.2301399E+03  0.7546771E-02  0.1126541E+00
         21   -1    0    0  501  502  0.00000000000E+00  0.00000000000E+00  0.89125779451E+03  0.89125779451E+03  0.00000000000E+00 0. -1.
         21   -1    0    0  502  503 -0.00000000000E+00 -0.00000000000E+00 -0.19474403608E+03  0.19474403608E+03  0.00000000000E+00 0.  1.
         25    1    1    2    0    0 -0.20672395620E+03  0.24958139058E+02 -0.41327140333E+02  0.24635469409E+03  0.12500000000E+03 0.  0.
          2    1    1    2  501    0  0.17232247216E+03 -0.10714151041E+01  0.97614712359E+02  0.19805255467E+03  0.00000000000E+00 0.  1.
         -2    1    1    2    0  503  0.34401484046E+02 -0.23886723954E+02  0.64022618641E+03  0.64159458184E+03  0.00000000000E+00 0. -1.
<mgrwt>
<rscale>  4 0.23013987E+03</rscale>
<asrwt>0</asrwt>
<pdfrwt beam="1">  1       21 0.13711658E+00 0.23013987E+03</pdfrwt>
<pdfrwt beam="2">  1       21 0.29960621E-01 0.23013987E+03</pdfrwt>
<totfact> 0.39133783E+03</totfact>
</mgrwt>
</event>
<event>
 5    0  0.1972558E-002  0.3062749E+03  0.7546771E-02  0.1082145E+00
         21   -1    0    0  501  502  0.00000000000E+00  0.00000000000E+00  0.14176274512E+04  0.14176274512E+04  0.00000000000E+00 0.  1.
         21   -1    0    0  502  503 -0.00000000000E+00 -0.00000000000E+00 -0.22136269898E+03  0.22136269898E+03  0.00000000000E+00 0. -1.
         25    1    1    2    0    0  0.20610473672E+03  0.21805332807E+03 -0.82040800986E+01  0.32514415774E+03  0.12500000000E+03 0.  0.
          1    1    1    2  501    0 -0.27355102039E+03 -0.68694428664E+02  0.10549634965E+04  0.10920151392E+04  0.00000000000E+00 0.  1.
         -1    1    1    2    0  503  0.67446283672E+02 -0.14935889941E+03  0.14950533582E+03  0.22183085325E+03  0.00000000000E+00 0. -1.
<mgrwt>
<rscale>  4 0.30627493E+03</rscale>
<asrwt>0</asrwt>
<pdfrwt beam="1">  1       21 0.21809653E+00 0.30627493E+03</pdfrwt>
<pdfrwt beam="2">  1       21 0.34055801E-01 0.30627493E+03</pdfrwt>
<totfact> 0.77149523E+02</totfact>
</mgrwt>
</event>
<event>
 5    0  0.1972558E-002  0.1990920E+03  0.7546771E-02  0.1150507E+00
         21   -1    0    0  501  502  0.00000000000E+00  0.00000000000E+00  0.92812298738E+03  0.92812298738E+03  0.00000000000E+00 0. -1.
         21   -1    0    0  502  503 -0.00000000000E+00 -0.00000000000E+00 -0.20629194393E+03  0.20629194393E+03  0.00000000000E+00 0.  1.
         25    1    1    2    0    0  0.74003542118E+02  0.19649528309E+03  0.35822333947E+03  0.43363104302E+03  0.12500000000E+03 0.  0.
          4    1    1    2  501    0 -0.79064106846E+02 -0.53028744667E+02 -0.14435776517E+03  0.17292294561E+03  0.00000000000E+00 0.  1.
         -4    1    1    2    0  503  0.50605647272E+01 -0.14346653843E+03  0.50796546915E+03  0.52786094269E+03  0.00000000000E+00 0. -1.
<mgrwt>
<rscale>  4 0.19909196E+03</rscale>
<asrwt>0</asrwt>
<pdfrwt beam="1">  1       21 0.14278815E+00 0.19909196E+03</pdfrwt>
<pdfrwt beam="2">  1       21 0.31737223E-01 0.19909196E+03</pdfrwt>
<totfact> 0.32270464E+03</totfact>
</mgrwt>
</event>
<event>
 5    0  0.1972558E-002  0.2431660E+03  0.7546771E-02  0.1117702E+00
         21   -1    0    0  501  502  0.00000000000E+00  0.00000000000E+00  0.13290877278E+04  0.13290877278E+04  0.00000000000E+00 0.  1.
         21   -1    0    0  502  503 -0.00000000000E+00 -0.00000000000E+00 -0.38995027294E+03  0.38995027294E+03  0.00000000000E+00 0. -1.
         25    1    1    2    0    0 -0.69450169378E+02  0.19456303399E+03 -0.33009512210E+03  0.40898152752E+03  0.12500000000E+03 0.  0.
          4    1    1    2  501    0  0.10281621243E+02  0.50892509787E+02  0.44500677045E+03  0.44802542900E+03  0.00000000000E+00 0. -1.
         -4    1    1    2    0  503  0.59168548135E+02 -0.24545554378E+03  0.82422580649E+03  0.86203104419E+03  0.00000000000E+00 0.  1.
<mgrwt>
<rscale>  4 0.24316601E+03</rscale>
<asrwt>0</asrwt>
<pdfrwt beam="1">  1       21 0.20447503E+00 0.24316601E+03</pdfrwt>
<pdfrwt beam="2">  1       21 0.59992350E-01 0.24316601E+03</pdfrwt>
<totfact> 0.30734211E+02</totfact>
</mgrwt>
</event>
<event>
 5    0  0.1972558E-002  0.2243954E+03  0.7546771E-02  0.1130648E+00
         21   -1    0    0  503  502  0.00000000000E+00  0.00000000000E+00  0.12923022467E+03  0.12923022467E+03  0.00000000000E+00 0. -1.
         21   -1    0    0  501  503 -0.00000000000E+00 -0.00000000000E+00 -0.52745293663E+03  0.52745293663E+03  0.00000000000E+00 0. -1.
         25    1    1    2    0    0  0.59978042514E+02 -0.20208443196E+03 -0.30213093083E+03  0.38902902538E+03  0.12500000000E+03 0.  0.
          4    1    1    2  501    0 -0.76997350974E+02  0.39936005316E+02 -0.31301638427E+02  0.92213172301E+02  0.00000000000E+00 0.  1.
         -4    1    1    2    0  502  0.17019308460E+02  0.16214842664E+03 -0.64790142713E+02  0.17544096362E+03  0.00000000000E+00 0. -1.
<mgrwt>
<rscale>  4 0.22439539E+03</rscale>
<asrwt>0</asrwt>
<pdfrwt beam="1">  1       21 0.19881573E-01 0.22439539E+03</pdfrwt>
<pdfrwt beam="2">  1       21 0.81146605E-01 0.22439539E+03</pdfrwt>
<totfact> 0.30558505E+04</totfact>
</mgrwt>
</event>
<event>
 5    0  0.1972558E-002  0.2442146E+03  0.7546771E-02  0.1117017E+00
         21   -1    0    0  501  502  0.00000000000E+00  0.00000000000E+00  0.65083398436E+03  0.65083398436E+03  0.00000000000E+00 0.  1.
         21   -1    0    0  502  503 -0.00000000000E+00 -0.00000000000E+00 -0.26679237040E+03  0.26679237040E+03  0.00000000000E+00 0. -1.
         25    1    1    2    0    0 -0.15761683633E+03 -0.14426813453E+03 -0.16867888157E+03  0.29955621647E+03  0.12500000000E+03 0.  0.
          2    1    1    2  501    0  0.57189573340E+02 -0.25244983162E+02  0.24362950999E+03  0.25152195652E+03  0.00000000000E+00 0.  1.
         -2    1    1    2    0  503  0.10042726299E+03  0.16951311769E+03  0.30909098554E+03  0.36654818178E+03  0.00000000000E+00 0. -1.
<mgrwt>
<rscale>  4 0.24421464E+03</rscale>
<asrwt>0</asrwt>
<pdfrwt beam="1">  1       21 0.10012830E+00 0.24421464E+03</pdfrwt>
<pdfrwt beam="2">  1       21 0.41044980E-01 0.24421464E+03</pdfrwt>
<totfact> 0.45054005E+03</totfact>
</mgrwt>
</event>
<event>
 5    0  0.1972558E-002  0.2495968E+03  0.7546771E-02  0.1113560E+00
         21   -1    0    0  503  502  0.00000000000E+00  0.00000000000E+00  0.89972112203E+03  0.89972112203E+03  0.00000000000E+00 0. -1.
         21   -1    0    0  501  503 -0.00000000000E+00 -0.00000000000E+00 -0.68939323291E+02  0.68939323291E+02  0.00000000000E+00 0. -1.
         25    1    1    2    0    0 -0.12577055658E+03 -0.17565685056E+03  0.29256165299E+03  0.38456583682E+03  0.12500000000E+03 0.  0.
          4    1    1    2  501    0  0.59587583545E+01  0.46847037631E+02  0.75388442476E+02  0.88958242985E+02  0.00000000000E+00 0.  1.
         -4    1    1    2    0  502  0.11981179822E+03  0.12880981293E+03  0.46283170327E+03  0.49513636551E+03  0.00000000000E+00 0. -1.
<mgrwt>
<rscale>  4 0.24959680E+03</rscale>
<asrwt>0</asrwt>
<pdfrwt beam="1">  1       21 0.13841863E+00 0.24959680E+03</pdfrwt>
<pdfrwt beam="2">  1       21 0.10606050E-01 0.24959680E+03</pdfrwt>
<totfact> 0.26081234E+04</totfact>
</mgrwt>
</event>
<event>
 5    0  0.1972558E-002  0.2449659E+03  0.7546771E-02  0.1116528E+00
         21   -1    0    0  501  502  0.00000000000E+00  0.00000000000E+00  0.14984362968E+03  0.14984362968E+03  0.00000000000E+00 0. -1.
         21   -1    0    0  502  503 -0.00000000000E+00 -0.00000000000E+00 -0.64979272021E+03  0.64979272021E+03  0.00000000000E+00 0. -1.
         25    1    1    2    0    0 -0.14174601664E+03  0.15087638859E+03 -0.34286693762E+03  0.41956924909E+03  0.12500000000E+03 0.  0.
          1    1    1    2  501    0  0.16643023260E+03 -0.13730427430E+03 -0.22183351595E+03  0.30945370391E+03  0.00000000000E+00 0. -1.
         -1    1    1    2    0  503 -0.24684215959E+02 -0.13572114298E+02  0.64751363045E+02  0.70613396889E+02  0.00000000000E+00 0.  1.
<mgrwt>
<rscale>  4 0.24496585E+03</rscale>
<asrwt>0</asrwt>
<pdfrwt beam="1">  1       21 0.23052866E-01 0.24496585E+03</pdfrwt>
<pdfrwt beam="2">  1       21 0.99968112E-01 0.24496585E+03</pdfrwt>
<totfact> 0.14064153E+04</totfact>
</mgrwt>
</event>
<event>
 5    0  0.1972558E-002  0.3238864E+03  0.7546771E-02  0.1073874E+00
         21   -1    0    0  501  502  0.00000000000E+00  0.00000000000E+00  0.80981462320E+03  0.80981462320E+03  0.00000000000E+00 0.  1.
         21   -1    0    0  502  503 -0.00000000000E+00 -0.00000000000E+00 -0.76996574768E+03  0.76996574768E+03  0.00000000000E+00 0.  1.
         25    1    1    2    0    0 -0.28698884327E+03  0.89508858834E+02 -0.68188152665E+03  0.75562017467E+03  0.12500000000E+03 0.  0.
          3    1    1    2  501    0  0.15122796151E+02 -0.22219430772E+02  0.38606115467E+03  0.38699562945E+03  0.00000000000E+00 0.  1.
         -3    1    1    2    0  503  0.27186604712E+03 -0.67289428062E+02  0.33566924750E+03  0.43716456676E+03  0.00000000000E+00 0. -1.
<mgrwt>
<rscale>  4 0.32388638E+03</rscale>
<asrwt>0</asrwt>
<pdfrwt beam="1">  1       21 0.12458687E+00 0.32388638E+03</pdfrwt>
<pdfrwt beam="2">  1       21 0.11845627E+00 0.32388638E+03</pdfrwt>
<totfact> 0.23178413E+02</totfact>
</mgrwt>
</event>
<event>
 5    0  0.1972558E-002  0.3665618E+03  0.7546771E-02  0.1056015E+00
         21   -1    0    0  501  502  0.00000000000E+00  0.00000000000E+00  0.23262234942E+04  0.23262234942E+04  0.00000000000E+00 0.  1.
         21   -1    0    0  502  503 -0.00000000000E+00 -0.00000000000E+00 -0.88111737517E+02  0.88111737517E+02  0.00000000000E+00 0.  1.
         25    1    1    2    0    0 -0.12756983674E+02  0.38598840175E+03  0.98757504269E+03  0.10677449376E+04  0.12500000000E+03 0.  0.
          3    1    1    2  501    0 -0.33164139080E+02 -0.66736436947E+02  0.73297511179E+03  0.73675377613E+03  0.00000000000E+00 0. -1.
         -3    1    1    2    0  503  0.45921122754E+02 -0.31925196481E+03  0.51756160224E+03  0.60983651798E+03  0.00000000000E+00 0.  1.
<mgrwt>
<rscale>  4 0.36656177E+03</rscale>
<asrwt>0</asrwt>
<pdfrwt beam="1">  1       21 0.35788049E+00 0.36656177E+03</pdfrwt>
<pdfrwt beam="2">  1       21 0.13555654E-01 0.36656177E+03</pdfrwt>
<totfact> 0.61518477E+02</totfact>
</mgrwt>
</event>
<event>
 5    0  0.1972558E-002  0.2587124E+03  0.7546771E-02  0.1107919E+00
         21   -1    0    0  501  502  0.00000000000E+00  0.00000000000E+00  0.15874184405E+03  0.15874184405E+03  0.00000000000E+00 0.  1.
         21   -1    0    0  502  503 -0.00000000000E+00 -0.00000000000E+00 -0.44354030574E+03  0.44354030574E+03  0.00000000000E+00 0. -1.
         25    1    1    2    0    0  0.11381396855E+02 -0.21766481285E+03 -0.22468461687E+03  0.33706925698E+03  0.12500000000E+03 0.  0.
          1    1    1    2  501    0 -0.34065379105E+02  0.22856893220E+03 -0.43766998850E+02  0.23520152425E+03  0.00000000000E+00 0.  1.
         -1    1    1    2    0  503  0.22683982251E+02 -0.10904119351E+02 -0.16346845975E+02  0.30011368561E+02  0.00000000000E+00 0. -1.
<mgrwt>
<rscale>  4 0.25871242E+03</rscale>
<asrwt>0</asrwt>
<pdfrwt beam="1">  1       21 0.24421822E-01 0.25871242E+03</pdfrwt>
<pdfrwt beam="2">  1       21 0.68236971E-01 0.25871242E+03</pdfrwt>
<totfact> 0.30040788E+04</totfact>
</mgrwt>
</event>
<event>
 5    0  0.1972558E-002  0.2454735E+03  0.7546771E-02  0.1116199E+00
         21   -1    0    0  501  502  0.00000000000E+00  0.00000000000E+00  0.10211367493E+04  0.10211367493E+04  0.00000000000E+00 0. -1.
         21   -1    0    0  502  503 -0.00000000000E+00 -0.00000000000E+00 -0.12398123230E+03  0.12398123230E+03  0.00000000000E+00 0. -1.
         25    1    1    2    0    0  0.51977235982E+02  0.20927253110E+03  0.34992477107E+02  0.25168650895E+03  0.12500000000E+03 0.  0.
          4    1    1    2  501    0 -0.21953202590E+02 -0.19155539555E+03  0.63556345587E+03  0.66416588222E+03  0.00000000000E+00 0. -1.
         -4    1    1    2    0  503 -0.30024033392E+02 -0.17717135555E+02  0.22659958398E+03  0.22926559038E+03  0.00000000000E+00 0.  1.
<mgrwt>
<rscale>  4 0.24547354E+03</rscale>
<asrwt>0</asrwt>
<pdfrwt beam="1">  1       21 0.15709796E+00 0.24547354E+03</pdfrwt>
<pdfrwt beam="2">  1       21 0.19074036E-01 0.24547354E+03</pdfrwt>
<totfact> 0.64089067E+03</totfact>
</mgrwt>
</event>
<event>
 5    0  0.1972558E-002  0.2421830E+03  0.7546771E-02  0.1118347E+00
         21   -1    0    0  501  502  0.00000000000E+00  0.00000000000E+00  0.18350826242E+04  0.18350826242E+04  0.00000000000E+00 0. -1.
         21   -1    0    0  502  503 -0.00000000000E+00 -0.00000000000E+00 -0.13067565737E+03  0.13067565737E+03  0.00000000000E+00 0.  1.
         25    1    1    2    0    0  0.16076542135E+03  0.13108049344E+03 -0.52246458585E+01  0.24223937208E+03  0.12500000000E+03 0.  0.
          4    1    1    2  501    0 -0.11571485985E+03 -0.99649971591E+02  0.14571931881E+04  0.14651730386E+04  0.00000000000E+00 0. -1.
         -4    1    1    2    0  503 -0.45050561500E+02 -0.31430521847E+02  0.25243842458E+03  0.25834587087E+03  0.00000000000E+00 0.  1.
<mgrwt>
<rscale>  4 0.24218302E+03</rscale>
<asrwt>0</asrwt>
<pdfrwt beam="1">  1       21 0.28232038E+00 0.24218302E+03</pdfrwt>
<pdfrwt beam="2">  1       21 0.20103949E-01 0.24218302E+03</pdfrwt>
<totfact> 0.93027453E+02</totfact>
</mgrwt>
</event>
<event>
 5    0  0.1972558E-002  0.4331469E+03  0.7546771E-02  0.1032870E+00
         21   -1    0    0  503  502  0.00000000000E+00  0.00000000000E+00  0.22977647984E+03  0.22977647984E+03  0.00000000000E+00 0. -1.
         21   -1    0    0  501  503 -0.00000000000E+00 -0.00000000000E+00 -0.98081814260E+03  0.98081814260E+03  0.00000000000E+00 0. -1.
         25    1    1    2    0    0 -0.30092194803E+02 -0.39846040445E+03 -0.46950197729E+03  0.62907339857E+03  0.12500000000E+03 0.  0.
          2    1    1    2  501    0 -0.56800990741E+02 -0.34713701668E+02 -0.45329797460E+02  0.80536849767E+02  0.00000000000E+00 0.  1.
         -2    1    1    2    0  502  0.86893185544E+02  0.43317410612E+03 -0.23620988800E+03  0.50098437411E+03  0.00000000000E+00 0. -1.
<mgrwt>
<rscale>  4 0.43314685E+03</rscale>
<asrwt>0</asrwt>
<pdfrwt beam="1">  1       21 0.35350228E-01 0.43314685E+03</pdfrwt>
<pdfrwt beam="2">  1       21 0.15089510E+00 0.43314685E+03</pdfrwt>
<totfact> 0.19555403E+03</totfact>
</mgrwt>
</event>
<event>
 5    0  0.1972558E-002  0.2421408E+03  0.7546771E-02  0.1118375E+00
         21   -1    0    0  501  502  0.00000000000E+00  0.00000000000E+00  0.10748285640E+04  0.10748285640E+04  0.00000000000E+00 0. -1.
         21   -1    0    0  502  503 -0.00000000000E+00 -0.00000000000E+00 -0.13970073713E+03  0.13970073713E+03  0.00000000000E+00 0.  1.
         25    1    1    2    0    0  0.20027033859E+03  0.10815437728E+03  0.20163617214E+02  0.26045565708E+03  0.12500000000E+03 0.  0.
          4    1    1    2  501    0 -0.70140928999E+02 -0.20954283409E+02  0.57637398927E+03  0.58100413718E+03  0.00000000000E+00 0. -1.
         -4    1    1    2    0  503 -0.13012940960E+03 -0.87200093868E+02  0.33859022034E+03  0.37306950683E+03  0.00000000000E+00 0.  1.
<mgrwt>
<rscale>  4 0.24214084E+03</rscale>
<asrwt>0</asrwt>
<pdfrwt beam="1">  1       21 0.16535824E+00 0.24214084E+03</pdfrwt>
<pdfrwt beam="2">  1       21 0.21492422E-01 0.24214084E+03</pdfrwt>
<totfact> 0.44620178E+03</totfact>
</mgrwt>
</event>
<event>
 5    0  0.1972558E-002  0.2702929E+03  0.7546771E-02  0.1101112E+00
         21   -1    0    0  501  502  0.00000000000E+00  0.00000000000E+00  0.15657831728E+03  0.15657831728E+03  0.00000000000E+00 0. -1.
         21   -1    0    0  502  503 -0.00000000000E+00 -0.00000000000E+00 -0.69176431036E+03  0.69176431036E+03  0.00000000000E+00 0. -1.
         25    1    1    2    0    0 -0.55284940935E+02 -0.25407492115E+03 -0.46897213901E+03  0.55060907859E+03  0.12500000000E+03 0.  0.
          3    1    1    2  501    0  0.31950373284E+02  0.23267631179E+03 -0.12264069726E+02  0.23517971815E+03  0.00000000000E+00 0. -1.
         -3    1    1    2    0  503  0.23334567651E+02  0.21398609360E+02 -0.53949784342E+02  0.62553830902E+02  0.00000000000E+00 0.  1.
<mgrwt>
<rscale>  4 0.27029291E+03</rscale>
<asrwt>0</asrwt>
<pdfrwt beam="1">  1       21 0.24088972E-01 0.27029291E+03</pdfrwt>
<pdfrwt beam="2">  1       21 0.10642528E+00 0.27029291E+03</pdfrwt>
<totfact> 0.10970267E+04</totfact>
</mgrwt>
</event>
<event>
 5    0  0.1972558E-002  0.3595235E+03  0.7546771E-02  0.1058773E+00
         21   -1    0    0  501  502  0.00000000000E+00  0.00000000000E+00  0.88471315617E+03  0.88471315617E+03  0.00000000000E+00 0.  1.
         21   -1    0    0  502  503 -0.00000000000E+00 -0.00000000000E+00 -0.28612072871E+03  0.28612072871E+03  0.00000000000E+00 0. -1.
         25    1    1    2    0    0 -0.15854490980E+03 -0.27242324472E+03 -0.51908707035E+01  0.33912071276E+03  0.12500000000E+03 0.  0.
          2    1    1    2  501    0 -0.26573311931E+02 -0.58929083902E+02  0.39154908078E+03  0.39684941791E+03  0.00000000000E+00 0.  1.
         -2    1    1    2    0  503  0.18511822173E+03  0.33135232862E+03  0.21223421738E+03  0.43486375421E+03  0.00000000000E+00 0. -1.
<mgrwt>
<rscale>  4 0.35952352E+03</rscale>
<asrwt>0</asrwt>
<pdfrwt beam="1">  1       21 0.13610972E+00 0.35952352E+03</pdfrwt>
<pdfrwt beam="2">  1       21 0.44018574E-01 0.35952352E+03</pdfrwt>
<totfact> 0.16985669E+03</totfact>
</mgrwt>
</event>
<event>
 5    0  0.1972558E-002  0.2809487E+03  0.7546771E-02  0.1095172E+00
         21   -1    0    0  501  502  0.00000000000E+00  0.00000000000E+00  0.37468019524E+03  0.37468019524E+03  0.00000000000E+00 0. -1.
         21   -1    0    0  502  503 -0.00000000000E+00 -0.00000000000E+00 -0.23035206248E+03  0.23035206248E+03  0.00000000000E+00 0. -1.
         25    1    1    2    0    0  0.12700672687E+03 -0.21720137782E+03  0.17538876702E+03  0.33119988949E+03  0.12500000000E+03 0.  0.
          3    1    1    2  501    0 -0.12443237061E+03  0.15511290505E+03  0.10403221878E+02  0.19912723368E+03  0.00000000000E+00 0. -1.
         -3    1    1    2    0  503 -0.25743562591E+01  0.62088472778E+02 -0.41463856138E+02  0.74705134548E+02  0.00000000000E+00 0.  1.
<mgrwt>
<rscale>  4 0.28094866E+03</rscale>
<asrwt>0</asrwt>
<pdfrwt beam="1">  1       21 0.57643107E-01 0.28094866E+03</pdfrwt>
<pdfrwt beam="2">  1       21 0.35438779E-01 0.28094866E+03</pdfrwt>
<totfact> 0.20722073E+04</totfact>
</mgrwt>
</event>
<event>
 5    0  0.1972558E-002  0.2461091E+03  0.7546771E-02  0.1115789E+00
         21   -1    0    0  503  502  0.00000000000E+00  0.00000000000E+00  0.17057320169E+04  0.17057320169E+04  0.00000000000E+00 0.  1.
         21   -1    0    0  501  503 -0.00000000000E+00 -0.00000000000E+00 -0.91153817378E+02  0.91153817378E+02  0.00000000000E+00 0.  1.
         25    1    1    2    0    0  0.19303678519E+03  0.69435056668E+02  0.26331812952E+03  0.35643493777E+03  0.12500000000E+03 0.  0.
          3    1    1    2  501    0  0.36433090244E+02 -0.99087920636E+02  0.10746706585E+04  0.10798438824E+04  0.00000000000E+00 0. -1.
         -3    1    1    2    0  502 -0.22946987543E+03  0.29652863968E+02  0.27658941145E+03  0.36060701407E+03  0.00000000000E+00 0.  1.
<mgrwt>
<rscale>  4 0.24610913E+03</rscale>
<asrwt>0</asrwt>
<pdfrwt beam="1">  1       21 0.26242029E+00 0.24610913E+03</pdfrwt>
<pdfrwt beam="2">  1       21 0.14023666E-01 0.24610913E+03</pdfrwt>
<totfact> 0.23595983E+03</totfact>
</mgrwt>
</event>
<event>
 5    0  0.1972558E-002  0.2519910E+03  0.7546771E-02  0.1112053E+00
         21   -1    0    0  501  502  0.00000000000E+00  0.00000000000E+00  0.99200119058E+03  0.99200119058E+03  0.00000000000E+00 0. -1.
         21   -1    0    0  502  503 -0.00000000000E+00 -0.00000000000E+00 -0.14603792324E+03  0.14603792324E+03  0.00000000000E+00 0.  1.
         25    1    1    2    0    0  0.43453381274E+02  0.22212435534E+03  0.23659404042E+02  0.25963858146E+03  0.12500000000E+03 0.  0.
          1    1    1    2  501    0 -0.53005839658E+02 -0.19278488686E+03  0.33505891186E+03  0.39017958181E+03  0.00000000000E+00 0.  1.
         -1    1    1    2    0  503  0.95524583841E+01 -0.29339468480E+02  0.48724495143E+03  0.48822095056E+03  0.00000000000E+00 0. -1.
<mgrwt>
<rscale>  4 0.25199104E+03</rscale>
<asrwt>0</asrwt>
<pdfrwt beam="1">  1       21 0.15261556E+00 0.25199104E+03</pdfrwt>
<pdfrwt beam="2">  1       21 0.22467373E-01 0.25199104E+03</pdfrwt>
<totfact> 0.50659117E+03</totfact>
</mgrwt>
</event>
<event>
 5    0  0.1972558E-002  0.2399792E+03  0.7546771E-02  0.1119807E+00
         21   -1    0    0  501  502  0.00000000000E+00  0.00000000000E+00  0.18939571458E+03  0.18939571458E+03  0.00000000000E+00 0.  1.
         21   -1    0    0  502  503 -0.00000000000E+00 -0.00000000000E+00 -0.84182327616E+03  0.84182327616E+03  0.00000000000E+00 0.  1.
         25    1    1    2    0    0 -0.19222063255E+02 -0.20638373114E+03 -0.74915699161E+03  0.78728961017E+03  0.12500000000E+03 0.  0.
          4    1    1    2  501    0  0.30380129608E+02  0.18299920231E+02  0.13452462559E+02  0.37931624067E+02  0.00000000000E+00 0. -1.
         -4    1    1    2    0  503 -0.11158066353E+02  0.18808381091E+03  0.83276967473E+02  0.20599775650E+03  0.00000000000E+00 0.  1.
<mgrwt>
<rscale>  4 0.23997919E+03</rscale>
<asrwt>0</asrwt>
<pdfrwt beam="1">  1       21 0.29137803E-01 0.23997919E+03</pdfrwt>
<pdfrwt beam="2">  1       21 0.12951127E+00 0.23997919E+03</pdfrwt>
<totfact> 0.47480410E+03</totfact>
</mgrwt>
</event>
<event>
 5    0  0.1972558E-002  0.1794694E+03  0.7546771E-02  0.1168318E+00
         21   -1    0    0  501  502  0.00000000000E+00  0.00000000000E+00  0.83342962629E+02  0.83342962629E+02  0.00000000000E+00 0. -1.
         21   -1    0    0  502  503 -0.00000000000E+00 -0.00000000000E+00 -0.11409085445E+04  0.11409085445E+04  0.00000000000E+00 0.  1.
         25    1    1    2    0    0 -0.65650929988E+01 -0.21403521914E+03 -0.82245851540E+03  0.85902106204E+03  0.12500000000E+03 0.  0.
          3    1    1    2  501    0 -0.27071350622E+02  0.11922808740E+03 -0.14943041467E+02  0.12317259978E+03  0.00000000000E+00 0. -1.
         -3    1    1    2    0  503  0.33636443621E+02  0.94807131737E+02 -0.22016402502E+03  0.24205784532E+03  0.00000000000E+00 0.  1.
<mgrwt>
<rscale>  4 0.17946940E+03</rscale>
<asrwt>0</asrwt>
<pdfrwt beam="1">  1       21 0.12821996E-01 0.17946940E+03</pdfrwt>
<pdfrwt beam="2">  1       21 0.17552437E+00 0.17946940E+03</pdfrwt>
<totfact> 0.10284905E+04</totfact>
</mgrwt>
</event>
<event>
 5    0  0.1972558E-002  0.1133644E+04  0.7546771E-02  0.9173007E-01
         21   -1    0    0  501  502  0.00000000000E+00  0.00000000000E+00  0.19678922498E+04  0.19678922498E+04  0.00000000000E+00 0. -1.
         21   -1    0    0  502  503 -0.00000000000E+00 -0.00000000000E+00 -0.17468841492E+04  0.17468841492E+04  0.00000000000E+00 0. -1.
         25    1    1    2    0    0 -0.85430863890E+03 -0.74162794293E+03 -0.11906829385E+04  0.16471812639E+04  0.12500000000E+03 0.  0.
          1    1    1    2  501    0 -0.35331939108E+02  0.77489677780E+02  0.79119160219E+03  0.79576199172E+03  0.00000000000E+00 0.  1.
         -1    1    1    2    0  503  0.88964057801E+03  0.66413826515E+03  0.62049943689E+03  0.12718331433E+04  0.00000000000E+00 0. -1.
<mgrwt>
<rscale>  4 0.11336440E+04</rscale>
<asrwt>0</asrwt>
<pdfrwt beam="1">  1       21 0.30275265E+00 0.11336440E+04</pdfrwt>
<pdfrwt beam="2">  1       21 0.26875141E+00 0.11336440E+04</pdfrwt>
<totfact> 0.78622351E-01</totfact>
</mgrwt>
</event>
<event>
 5    0  0.1972558E-002  0.4092401E+03  0.7546771E-02  0.1040626E+00
         21   -1    0    0  501  502  0.00000000000E+00  0.00000000000E+00  0.79033803852E+03  0.79033803852E+03  0.00000000000E+00 0.  1.
         21   -1    0    0  502  503 -0.00000000000E+00 -0.00000000000E+00 -0.54696255206E+03  0.54696255206E+03  0.00000000000E+00 0.  1.
         25    1    1    2    0    0 -0.16993373558E+03  0.34255275154E+03 -0.26411669788E+03  0.48125096589E+03  0.12500000000E+03 0.  0.
          4    1    1    2  501    0  0.19530515238E+03 -0.35575164009E+03  0.63069918050E+02  0.41070810381E+03  0.00000000000E+00 0.  1.
         -4    1    1    2    0  503 -0.25371416799E+02  0.13198888551E+02  0.44442226629E+03  0.44534152088E+03  0.00000000000E+00 0. -1.
<mgrwt>
<rscale>  4 0.40924006E+03</rscale>
<asrwt>0</asrwt>
<pdfrwt beam="1">  1       21 0.12159047E+00 0.40924006E+03</pdfrwt>
<pdfrwt beam="2">  1       21 0.84148085E-01 0.40924006E+03</pdfrwt>
<totfact> 0.53473736E+02</totfact>
</mgrwt>
</event>
<event>
 5    0  0.1972558E-002  0.2616500E+03  0.7546771E-02  0.1106156E+00
         21   -1    0    0  501  502  0.00000000000E+00  0.00000000000E+00  0.72949273949E+03  0.72949273949E+03  0.00000000000E+00 0. -1.
         21   -1    0    0  502  503 -0.00000000000E+00 -0.00000000000E+00 -0.15549109473E+03  0.15549109473E+03  0.00000000000E+00 0. -1.
         25    1    1    2    0    0  0.17246725364E+03 -0.15731984338E+03  0.20174609281E+02  0.26556826158E+03  0.12500000000E+03 0.  0.
          4    1    1    2  501    0 -0.17991751204E+03  0.12889208863E+03  0.35437351541E+03  0.41780865247E+03  0.00000000000E+00 0. -1.
         -4    1    1    2    0  503  0.74502583987E+01  0.28427754749E+02  0.19945352007E+03  0.20160692017E+03  0.00000000000E+00 0.  1.
<mgrwt>
<rscale>  4 0.26164999E+03</rscale>
<asrwt>0</asrwt>
<pdfrwt beam="1">  1       21 0.11222965E+00 0.26164999E+03</pdfrwt>
<pdfrwt beam="2">  1       21 0.23921707E-01 0.26164999E+03</pdfrwt>
<totfact> 0.98106659E+03</totfact>
</mgrwt>
</event>
<event>
 5    0  0.1972558E-002  0.2324388E+03  0.7546771E-02  0.1124935E+00
         21   -1    0    0  501  502  0.00000000000E+00  0.00000000000E+00  0.63595434435E+03  0.63595434435E+03  0.00000000000E+00 0.  1.
         21   -1    0    0  502  503 -0.00000000000E+00 -0.00000000000E+00 -0.17919451180E+03  0.17919451180E+03  0.00000000000E+00 0.  1.
         25    1    1    2    0    0  0.12077361637E+03  0.17283051188E+03  0.82063157755E+00  0.24511696328E+03  0.12500000000E+03 0.  0.
          4    1    1    2  501    0 -0.82871209459E+02 -0.15914743872E+03  0.87920877339E+02  0.19981397669E+03  0.00000000000E+00 0.  1.
         -4    1    1    2    0  503 -0.37902406912E+02 -0.13683073164E+02  0.36801832363E+03  0.37021791619E+03  0.00000000000E+00 0. -1.
<mgrwt>
<rscale>  4 0.23243876E+03</rscale>
<asrwt>0</asrwt>
<pdfrwt beam="1">  1       21 0.97839128E-01 0.23243876E+03</pdfrwt>
<pdfrwt beam="2">  1       21 0.27568387E-01 0.23243876E+03</pdfrwt>
<totfact> 0.10572790E+04</totfact>
</mgrwt>
</event>
<event>
 5    0  0.1972558E-002  0.2474071E+03  0.7546771E-02  0.1114955E+00
         21   -1    0    0  501  502  0.00000000000E+00  0.00000000000E+00  0.14168608567E+04  0.14168608567E+04  0.00000000000E+00 0.  1.
         21   -1    0    0  502  503 -0.00000000000E+00 -0.00000000000E+00 -0.76829979026E+03  0.76829979026E+03  0.00000000000E+00 0. -1.
         25    1    1    2    0    0 -0.22689847122E+01  0.21353088737E+03 -0.73499297097E+03  0.77552579295E+03  0.12500000000E+03 0.  0.
          1    1    1    2  501    0 -0.20767373888E+02 -0.18425279577E+01  0.51275607514E+03  0.51317976511E+03  0.00000000000E+00 0. -1.
         -1    1    1    2    0  503  0.23036358600E+02 -0.21168835941E+03  0.87079796231E+03  0.89645508894E+03  0.00000000000E+00 0.  1.
<mgrwt>
<rscale>  4 0.24740711E+03</rscale>
<asrwt>0</asrwt>
<pdfrwt beam="1">  1       21 0.21797859E+00 0.24740711E+03</pdfrwt>
<pdfrwt beam="2">  1       21 0.11819997E+00 0.24740711E+03</pdfrwt>
<totfact> 0.52587209E+01</totfact>
</mgrwt>
</event>
<event>
 5    0  0.1972558E-002  0.3708622E+03  0.7546771E-02  0.1054364E+00
         21   -1    0    0  501  502  0.00000000000E+00  0.00000000000E+00  0.69015736616E+03  0.69015736616E+03  0.00000000000E+00 0.  1.
         21   -1    0    0  502  503 -0.00000000000E+00 -0.00000000000E+00 -0.10596246499E+04  0.10596246499E+04  0.00000000000E+00 0.  1.
         25    1    1    2    0    0 -0.35045445999E+03 -0.52261582536E+02 -0.94294128856E+03  0.10150432874E+04  0.12500000000E+03 0.  0.
          3    1    1    2  501    0  0.30726736973E+03  0.11588176608E+02  0.22440410798E+03  0.38066353387E+03  0.00000000000E+00 0.  1.
         -3    1    1    2    0  503  0.43187090267E+02  0.40673405928E+02  0.34906989684E+03  0.35407519484E+03  0.00000000000E+00 0. -1.
<mgrwt>
<rscale>  4 0.37086224E+03</rscale>
<asrwt>0</asrwt>
<pdfrwt beam="1">  1       21 0.10617806E+00 0.37086224E+03</pdfrwt>
<pdfrwt beam="2">  1       21 0.16301918E+00 0.37086224E+03</pdfrwt>
<totfact> 0.14411494E+02</totfact>
</mgrwt>
</event>
<event>
 5    0  0.1972558E-002  0.2606650E+03  0.7546771E-02  0.1106744E+00
         21   -1    0    0  503  502  0.00000000000E+00  0.00000000000E+00  0.15997049655E+04  0.15997049655E+04  0.00000000000E+00 0.  1.
         21   -1    0    0  501  503 -0.00000000000E+00 -0.00000000000E+00 -0.13446945844E+03  0.13446945844E+03  0.00000000000E+00 0.  1.
         25    1    1    2    0    0  0.22109154054E+03  0.87579511810E+02  0.26764557158E+02  0.26998700285E+03  0.12500000000E+03 0.  0.
          4    1    1    2  501    0 -0.51595224612E+02 -0.13725813753E+02  0.73131790256E+03  0.73326416779E+03  0.00000000000E+00 0. -1.
         -4    1    1    2    0  502 -0.16949631593E+03 -0.73853698057E+02  0.70715304736E+03  0.73092325330E+03  0.00000000000E+00 0.  1.
<mgrwt>
<rscale>  4 0.26066501E+03</rscale>
<asrwt>0</asrwt>
<pdfrwt beam="1">  1       21 0.24610844E+00 0.26066501E+03</pdfrwt>
<pdfrwt beam="2">  1       21 0.20687610E-01 0.26066501E+03</pdfrwt>
<totfact> 0.14170483E+03</totfact>
</mgrwt>
</event>
<event>
 5    0  0.1972558E-002  0.2554732E+03  0.7546771E-02  0.1109894E+00
         21   -1    0    0  501  502  0.00000000000E+00  0.00000000000E+00  0.82996098830E+03  0.82996098830E+03  0.00000000000E+00 0. -1.
         21   -1    0    0  502  503 -0.00000000000E+00 -0.00000000000E+00 -0.23353891717E+03  0.23353891717E+03  0.00000000000E+00 0. -1.
         25    1    1    2    0    0  0.21813904177E+03 -0.65722476259E+02 -0.12349795071E+03  0.28771657801E+03  0.12500000000E+03 0.  0.
          2    1    1    2  501    0 -0.18918707678E+03  0.66473932093E+02  0.33976012962E+03  0.39452183633E+03  0.00000000000E+00 0.  1.
         -2    1    1    2    0  503 -0.28951965000E+02 -0.75145583430E+00  0.38015989222E+03  0.38126149113E+03  0.00000000000E+00 0. -1.
<mgrwt>
<rscale>  4 0.25547324E+03</rscale>
<asrwt>0</asrwt>
<pdfrwt beam="1">  1       21 0.12768630E+00 0.25547324E+03</pdfrwt>
<pdfrwt beam="2">  1       21 0.35929065E-01 0.25547324E+03</pdfrwt>
<totfact> 0.32183764E+03</totfact>
</mgrwt>
</event>
<event>
 5    0  0.1972558E-002  0.2517736E+03  0.7546771E-02  0.1112189E+00
         21   -1    0    0  501  502  0.00000000000E+00  0.00000000000E+00  0.19865574012E+03  0.19865574012E+03  0.00000000000E+00 0.  1.
         21   -1    0    0  502  503 -0.00000000000E+00 -0.00000000000E+00 -0.38329983994E+03  0.38329983994E+03  0.00000000000E+00 0.  1.
         25    1    1    2    0    0  0.24057038012E+03  0.30793197517E+02 -0.75491872489E+02  0.28310130981E+03  0.12500000000E+03 0.  0.
          4    1    1    2  501    0 -0.19195417820E+03 -0.76577619748E+02 -0.10534182447E+03  0.23196430405E+03  0.00000000000E+00 0.  1.
         -4    1    1    2    0  503 -0.48616201919E+02  0.45784422231E+02 -0.38104028707E+01  0.66889966199E+02  0.00000000000E+00 0. -1.
<mgrwt>
<rscale>  4 0.25177361E+03</rscale>
<asrwt>0</asrwt>
<pdfrwt beam="1">  1       21 0.30562422E-01 0.25177361E+03</pdfrwt>
<pdfrwt beam="2">  1       21 0.58969205E-01 0.25177361E+03</pdfrwt>
<totfact> 0.26813437E+04</totfact>
</mgrwt>
</event>
<event>
 5    0  0.1972558E-002  0.3537136E+03  0.7546771E-02  0.1061101E+00
         21   -1    0    0  501  502  0.00000000000E+00  0.00000000000E+00  0.16069321483E+04  0.16069321483E+04  0.00000000000E+00 0.  1.
         21   -1    0    0  502  503 -0.00000000000E+00 -0.00000000000E+00 -0.17507396129E+03  0.17507396129E+03  0.00000000000E+00 0. -1.
         25    1    1    2    0    0 -0.12706091005E+03  0.31600817958E+03  0.91205501607E+02  0.37409769840E+03  0.12500000000E+03 0.  0.
          3    1    1    2  501    0  0.25258498304E+02 -0.31444681631E+02  0.68239338394E+03  0.68358429632E+03  0.00000000000E+00 0.  1.
         -3    1    1    2    0  503  0.10180241175E+03 -0.28456349795E+03  0.65825930142E+03  0.72432411482E+03  0.00000000000E+00 0. -1.
<mgrwt>
<rscale>  4 0.35371360E+03</rscale>
<asrwt>0</asrwt>
<pdfrwt beam="1">  1       21 0.24722032E+00 0.35371360E+03</pdfrwt>
<pdfrwt beam="2">  1       21 0.26934457E-01 0.35371360E+03</pdfrwt>
<totfact> 0.78367791E+02</totfact>
</mgrwt>
</event>
<event>
 5    0  0.1972558E-002  0.2461867E+03  0.7546771E-02  0.1115739E+00
         21   -1    0    0  503  502  0.00000000000E+00  0.00000000000E+00  0.18540222165E+03  0.18540222165E+03  0.00000000000E+00 0. -1.
         21   -1    0    0  501  503 -0.00000000000E+00 -0.00000000000E+00 -0.77186850393E+03  0.77186850393E+03  0.00000000000E+00 0. -1.
         25    1    1    2    0    0  0.11386764160E+03 -0.18547806270E+03 -0.66369099084E+03  0.70956231781E+03  0.12500000000E+03 0.  0.
          1    1    1    2  501    0 -0.95138852886E+01  0.42674768482E+02 -0.17472366739E+02  0.47084323057E+02  0.00000000000E+00 0.  1.
         -1    1    1    2    0  502 -0.10435375631E+03  0.14280329421E+03  0.94697075291E+02  0.20062408471E+03  0.00000000000E+00 0. -1.
<mgrwt>
<rscale>  4 0.24618672E+03</rscale>
<asrwt>0</asrwt>
<pdfrwt beam="1">  1       21 0.28523418E-01 0.24618672E+03</pdfrwt>
<pdfrwt beam="2">  1       21 0.11874900E+00 0.24618672E+03</pdfrwt>
<totfact> 0.61331976E+03</totfact>
</mgrwt>
</event>
<event>
 5    0  0.1972558E-002  0.2550337E+03  0.7546771E-02  0.1110164E+00
         21   -1    0    0  501  502  0.00000000000E+00  0.00000000000E+00  0.99268952210E+03  0.99268952210E+03  0.00000000000E+00 0.  1.
         21   -1    0    0  502  503 -0.00000000000E+00 -0.00000000000E+00 -0.14664230847E+03  0.14664230847E+03  0.00000000000E+00 0.  1.
         25    1    1    2    0    0 -0.23134483107E+03 -0.12019918386E+02  0.12762016862E+03  0.29253515471E+03  0.12500000000E+03 0.  0.
          1    1    1    2  501    0  0.19669723687E+03  0.10810697121E+03  0.15162247607E+03  0.27086213369E+03  0.00000000000E+00 0.  1.
         -1    1    1    2    0  503  0.34647594200E+02 -0.96087052825E+02  0.56680456894E+03  0.57593454218E+03  0.00000000000E+00 0. -1.
<mgrwt>
<rscale>  4 0.25503369E+03</rscale>
<asrwt>0</asrwt>
<pdfrwt beam="1">  1       21 0.15272146E+00 0.25503369E+03</pdfrwt>
<pdfrwt beam="2">  1       21 0.22560356E-01 0.25503369E+03</pdfrwt>
<totfact> 0.50069664E+03</totfact>
</mgrwt>
</event>
<event>
 5    0  0.1972558E-002  0.2430518E+03  0.7546771E-02  0.1117776E+00
         21   -1    0    0  501  502  0.00000000000E+00  0.00000000000E+00  0.11615763918E+04  0.11615763918E+04  0.00000000000E+00 0. -1.
         21   -1    0    0  502  503 -0.00000000000E+00 -0.00000000000E+00 -0.86640110605E+03  0.86640110605E+03  0.00000000000E+00 0.  1.
         25    1    1    2    0    0  0.17646471686E+03 -0.12092726021E+03 -0.83456904544E+03  0.87057089899E+03  0.12500000000E+03 0.  0.
          1    1    1    2  501    0 -0.10185953431E+03  0.33389562778E+02  0.82038205040E+03  0.82735538691E+03  0.00000000000E+00 0. -1.
         -1    1    1    2    0  503 -0.74605182554E+02  0.87537697429E+02  0.30936228084E+03  0.33005121200E+03  0.00000000000E+00 0.  1.
<mgrwt>
<rscale>  4 0.24305182E+03</rscale>
<asrwt>0</asrwt>
<pdfrwt beam="1">  1       21 0.17870406E+00 0.24305182E+03</pdfrwt>
<pdfrwt beam="2">  1       21 0.13329248E+00 0.24305182E+03</pdfrwt>
<totfact> 0.70483158E+01</totfact>
</mgrwt>
</event>
<event>
 5    0  0.1972558E-002  0.3470483E+03  0.7546771E-02  0.1063833E+00
         21   -1    0    0  501  502  0.00000000000E+00  0.00000000000E+00  0.54162071926E+03  0.54162071926E+03  0.00000000000E+00 0.  1.
         21   -1    0    0  502  503 -0.00000000000E+00 -0.00000000000E+00 -0.87577001382E+03  0.87577001382E+03  0.00000000000E+00 0. -1.
         25    1    1    2    0    0  0.10985057229E+03 -0.30321931175E+03 -0.75521951476E+03  0.83065673700E+03  0.12500000000E+03 0.  0.
          4    1    1    2  501    0  0.43167472717E+02  0.19269262751E+01  0.14214090229E+03  0.14856372319E+03  0.00000000000E+00 0. -1.
         -4    1    1    2    0  503 -0.15301804501E+03  0.30129238547E+03  0.27892931792E+03  0.43817027288E+03  0.00000000000E+00 0.  1.
<mgrwt>
<rscale>  4 0.34704828E+03</rscale>
<asrwt>0</asrwt>
<pdfrwt beam="1">  1       21 0.83326265E-01 0.34704828E+03</pdfrwt>
<pdfrwt beam="2">  1       21 0.13473385E+00 0.34704828E+03</pdfrwt>
<totfact> 0.43497742E+02</totfact>
</mgrwt>
</event>
<event>
 5    0  0.1972558E-002  0.2573656E+03  0.7546771E-02  0.1108736E+00
         21   -1    0    0  501  502  0.00000000000E+00  0.00000000000E+00  0.60163011615E+03  0.60163011615E+03  0.00000000000E+00 0. -1.
         21   -1    0    0  502  503 -0.00000000000E+00 -0.00000000000E+00 -0.17028709465E+03  0.17028709465E+03  0.00000000000E+00 0. -1.
         25    1    1    2    0    0 -0.23063885218E+03 -0.14695820580E+02 -0.13429232027E+01  0.26274902611E+03  0.12500000000E+03 0.  0.
          1    1    1    2  501    0  0.20018063920E+02  0.62853366435E+00  0.17462536448E+03  0.17577012220E+03  0.00000000000E+00 0.  1.
         -1    1    1    2    0  503  0.21062078826E+03  0.14067286915E+02  0.25806058022E+03  0.33339806249E+03  0.00000000000E+00 0. -1.
<mgrwt>
<rscale>  4 0.25736559E+03</rscale>
<asrwt>0</asrwt>
<pdfrwt beam="1">  1       21 0.92558478E-01 0.25736559E+03</pdfrwt>
<pdfrwt beam="2">  1       21 0.26198015E-01 0.25736559E+03</pdfrwt>
<totfact> 0.13118216E+04</totfact>
</mgrwt>
</event>
<event>
 5    0  0.1972558E-002  0.2991290E+03  0.7546771E-02  0.1085677E+00
         21   -1    0    0  501  502  0.00000000000E+00  0.00000000000E+00  0.30970343901E+03  0.30970343901E+03  0.00000000000E+00 0.  1.
         21   -1    0    0  502  503 -0.00000000000E+00 -0.00000000000E+00 -0.82086084928E+03  0.82086084928E+03  0.00000000000E+00 0.  1.
         25    1    1    2    0    0  0.15760874615E+03 -0.19273938439E+03 -0.65413672629E+03  0.71099145131E+03  0.12500000000E+03 0.  0.
          3    1    1    2  501    0 -0.10736646989E+03  0.25339349564E+03  0.18372808746E+03  0.33089550104E+03  0.00000000000E+00 0.  1.
         -3    1    1    2    0  503 -0.50242276259E+02 -0.60654111245E+02 -0.40748771434E+02  0.88677335932E+02  0.00000000000E+00 0. -1.
<mgrwt>
<rscale>  4 0.29912899E+03</rscale>
<asrwt>0</asrwt>
<pdfrwt beam="1">  1       21 0.47646684E-01 0.29912899E+03</pdfrwt>
<pdfrwt beam="2">  1       21 0.12628628E+00 0.29912899E+03</pdfrwt>
<totfact> 0.18057589E+03</totfact>
</mgrwt>
</event>
<event>
 5    0  0.1972558E-002  0.3143320E+03  0.7546771E-02  0.1078288E+00
         21   -1    0    0  501  502  0.00000000000E+00  0.00000000000E+00  0.42932134251E+03  0.42932134251E+03  0.00000000000E+00 0. -1.
         21   -1    0    0  502  503 -0.00000000000E+00 -0.00000000000E+00 -0.83090402582E+03  0.83090402582E+03  0.00000000000E+00 0.  1.
         25    1    1    2    0    0  0.15045802516E+03  0.24656454822E+03 -0.73591442349E+03  0.80039161195E+03  0.12500000000E+03 0.  0.
          4    1    1    2  501    0 -0.16569816439E+03 -0.23140364801E+03  0.27116033575E+03  0.39310489399E+03  0.00000000000E+00 0. -1.
         -4    1    1    2    0  503  0.15240139224E+02 -0.15160900208E+02  0.63171404431E+02  0.66728862395E+02  0.00000000000E+00 0.  1.
<mgrwt>
<rscale>  4 0.31433197E+03</rscale>
<asrwt>0</asrwt>
<pdfrwt beam="1">  1       21 0.66049438E-01 0.31433197E+03</pdfrwt>
<pdfrwt beam="2">  1       21 0.12783139E+00 0.31433197E+03</pdfrwt>
<totfact> 0.85965469E+02</totfact>
</mgrwt>
</event>
<event>
 5    0  0.1972558E-002  0.2932105E+03  0.7546771E-02  0.1088685E+00
         21   -1    0    0  501  502  0.00000000000E+00  0.00000000000E+00  0.10483370729E+04  0.10483370729E+04  0.00000000000E+00 0. -1.
         21   -1    0    0  502  503 -0.00000000000E+00 -0.00000000000E+00 -0.83647630403E+02  0.83647630403E+02  0.00000000000E+00 0. -1.
         25    1    1    2    0    0  0.21450121500E+03  0.12641966781E+03  0.41832897287E+03  0.50261002098E+03  0.12500000000E+03 0.  0.
          1    1    1    2  501    0 -0.24689850010E+03 -0.13099183910E+03  0.49574088859E+03  0.56910171313E+03  0.00000000000E+00 0. -1.
         -1    1    1    2    0  503  0.32397285103E+02  0.45721712964E+01  0.50619581082E+02  0.60272969242E+02  0.00000000000E+00 0.  1.
<mgrwt>
<rscale>  4 0.29321049E+03</rscale>
<asrwt>0</asrwt>
<pdfrwt beam="1">  1       21 0.16128262E+00 0.29321049E+03</pdfrwt>
<pdfrwt beam="2">  1       21 0.12868867E-01 0.29321049E+03</pdfrwt>
<totfact> 0.11978881E+04</totfact>
</mgrwt>
</event>
<event>
 5    0  0.1972558E-002  0.2821620E+03  0.7546771E-02  0.1094514E+00
         21   -1    0    0  501  502  0.00000000000E+00  0.00000000000E+00  0.55534244208E+03  0.55534244208E+03  0.00000000000E+00 0. -1.
         21   -1    0    0  502  503 -0.00000000000E+00 -0.00000000000E+00 -0.14871405071E+04  0.14871405071E+04  0.00000000000E+00 0.  1.
         25    1    1    2    0    0 -0.25034466222E+03  0.28476628419E+02 -0.14215485651E+04  0.14491061697E+04  0.12500000000E+03 0.  0.
          1    1    1    2  501    0 -0.29206356522E+02  0.65563190363E+01  0.14543953176E+03  0.14848789170E+03  0.00000000000E+00 0.  1.
         -1    1    1    2    0  503  0.27955101874E+03 -0.35032947456E+02  0.34431096834E+03  0.44488888771E+03  0.00000000000E+00 0. -1.
<mgrwt>
<rscale>  4 0.28216198E+03</rscale>
<asrwt>0</asrwt>
<pdfrwt beam="1">  1       21 0.85437298E-01 0.28216198E+03</pdfrwt>
<pdfrwt beam="2">  1       21 0.22879085E+00 0.28216198E+03</pdfrwt>
<totfact> 0.94333787E+01</totfact>
</mgrwt>
</event>
<event>
 5    0  0.1972558E-002  0.3703515E+03  0.7546771E-02  0.1054559E+00
         21   -1    0    0  501  502  0.00000000000E+00  0.00000000000E+00  0.69271700278E+03  0.69271700278E+03  0.00000000000E+00 0.  1.
         21   -1    0    0  502  503 -0.00000000000E+00 -0.00000000000E+00 -0.62484357774E+03  0.62484357774E+03  0.00000000000E+00 0.  1.
         25    1    1    2    0    0  0.22380377351E+03  0.27156044875E+03 -0.30551468279E+03  0.48249085770E+03  0.12500000000E+03 0.  0.
          3    1    1    2  501    0 -0.24028993590E+03 -0.24692400996E+03 -0.10155742400E+03  0.35919998658E+03  0.00000000000E+00 0. -1.
         -3    1    1    2    0  503  0.16486162392E+02 -0.24636438783E+02  0.47494553183E+03  0.47586973624E+03  0.00000000000E+00 0.  1.
<mgrwt>
<rscale>  4 0.37035148E+03</rscale>
<asrwt>0</asrwt>
<pdfrwt beam="1">  1       21 0.10657185E+00 0.37035148E+03</pdfrwt>
<pdfrwt beam="2">  1       21 0.96129781E-01 0.37035148E+03</pdfrwt>
<totfact> 0.55380577E+02</totfact>
</mgrwt>
</event>
<event>
 5    0  0.1972558E-002  0.2385062E+03  0.7546771E-02  0.1120792E+00
         21   -1    0    0  501  502  0.00000000000E+00  0.00000000000E+00  0.36681264307E+03  0.36681264307E+03  0.00000000000E+00 0.  1.
         21   -1    0    0  502  503 -0.00000000000E+00 -0.00000000000E+00 -0.25103979107E+03  0.25103979107E+03  0.00000000000E+00 0.  1.
         25    1    1    2    0    0 -0.20928641026E+03 -0.43734688968E+02 -0.13042905715E+03  0.27991117071E+03  0.12500000000E+03 0.  0.
          2    1    1    2  501    0  0.17392689789E+03  0.32626402010E+02  0.14057602961E+03  0.22600147791E+03  0.00000000000E+00 0.  1.
         -2    1    1    2    0  503  0.35359512378E+02  0.11108286958E+02  0.10562587954E+03  0.11193978552E+03  0.00000000000E+00 0. -1.
<mgrwt>
<rscale>  4 0.23850620E+03</rscale>
<asrwt>0</asrwt>
<pdfrwt beam="1">  1       21 0.56432714E-01 0.23850620E+03</pdfrwt>
<pdfrwt beam="2">  1       21 0.38621506E-01 0.23850620E+03</pdfrwt>
<totfact> 0.18603483E+04</totfact>
</mgrwt>
</event>
<event>
 5    0  0.1972558E-002  0.5302478E+03  0.7546771E-02  0.1006172E+00
         21   -1    0    0  501  502  0.00000000000E+00  0.00000000000E+00  0.19725211970E+04  0.19725211970E+04  0.00000000000E+00 0.  1.
         21   -1    0    0  502  503 -0.00000000000E+00 -0.00000000000E+00 -0.44382187300E+03  0.44382187300E+03  0.00000000000E+00 0. -1.
         25    1    1    2    0    0 -0.26505029991E+02  0.49650055743E+03 -0.10542182635E+03  0.52340623001E+03  0.12500000000E+03 0.  0.
          3    1    1    2  501    0 -0.57449482343E+02 -0.57443087534E+03  0.53252373955E+03  0.78539977511E+03  0.00000000000E+00 0. -1.
         -3    1    1    2    0  503  0.83954512333E+02  0.77930317905E+02  0.11015974108E+04  0.11075370649E+04  0.00000000000E+00 0.  1.
<mgrwt>
<rscale>  4 0.53024784E+03</rscale>
<asrwt>0</asrwt>
<pdfrwt beam="1">  1       21 0.30346480E+00 0.53024784E+03</pdfrwt>
<pdfrwt beam="2">  1       21 0.68280289E-01 0.53024784E+03</pdfrwt>
<totfact> 0.46174261E+01</totfact>
</mgrwt>
</event>
<event>
 5    0  0.1972558E-002  0.2946356E+03  0.7546771E-02  0.1087953E+00
         21   -1    0    0  503  502  0.00000000000E+00  0.00000000000E+00  0.14343812863E+03  0.14343812863E+03  0.00000000000E+00 0.  1.
         21   -1    0    0  501  503 -0.00000000000E+00 -0.00000000000E+00 -0.11131008675E+04  0.11131008675E+04  0.00000000000E+00 0.  1.
         25    1    1    2    0    0 -0.13228653639E+03  0.21226138623E+03 -0.69150282205E+03  0.74589260399E+03  0.12500000000E+03 0.  0.
          2    1    1    2  501    0 -0.92872777367E+02  0.27935564547E+02 -0.84847701840E+02  0.12885992802E+03  0.00000000000E+00 0. -1.
         -2    1    1    2    0  502  0.22515931376E+03 -0.24019695077E+03 -0.19331221502E+03  0.38178646415E+03  0.00000000000E+00 0.  1.
<mgrwt>
<rscale>  4 0.29463558E+03</rscale>
<asrwt>0</asrwt>
<pdfrwt beam="1">  1       21 0.22067403E-01 0.29463558E+03</pdfrwt>
<pdfrwt beam="2">  1       21 0.17124630E+00 0.29463558E+03</pdfrwt>
<totfact> 0.37205891E+03</totfact>
</mgrwt>
</event>
<event>
 5    0  0.1972558E-002  0.6589232E+03  0.7546771E-02  0.9790178E-01
         21   -1    0    0  501  502  0.00000000000E+00  0.00000000000E+00  0.20172240475E+04  0.20172240475E+04  0.00000000000E+00 0. -1.
         21   -1    0    0  502  503 -0.00000000000E+00 -0.00000000000E+00 -0.69430063259E+03  0.69430063259E+03  0.00000000000E+00 0.  1.
         25    1    1    2    0    0  0.70473957888E+03  0.96297399004E+02 -0.35544427408E+03  0.80492030355E+03  0.12500000000E+03 0.  0.
          1    1    1    2  501    0 -0.22675960228E+03 -0.15365260665E+02  0.12147071762E+04  0.12357870093E+04  0.00000000000E+00 0. -1.
         -1    1    1    2    0  503 -0.47797997660E+03 -0.80932138339E+02  0.46366051279E+03  0.67081736722E+03  0.00000000000E+00 0.  1.
<mgrwt>
<rscale>  4 0.65892325E+03</rscale>
<asrwt>0</asrwt>
<pdfrwt beam="1">  1       21 0.31034216E+00 0.65892325E+03</pdfrwt>
<pdfrwt beam="2">  1       21 0.10681548E+00 0.65892325E+03</pdfrwt>
<totfact> 0.13607667E+01</totfact>
</mgrwt>
</event>
<event>
 5    0  0.1972558E-002  0.2405689E+03  0.7546771E-02  0.1119414E+00
         21   -1    0    0  501  502  0.00000000000E+00  0.00000000000E+00  0.18665591963E+04  0.18665591963E+04  0.00000000000E+00 0.  1.
         21   -1    0    0  502  503 -0.00000000000E+00 -0.00000000000E+00 -0.57597221290E+02  0.57597221290E+02  0.00000000000E+00 0.  1.
         25    1    1    2    0    0  0.16563178222E+02 -0.20024814898E+03  0.25514201492E+03  0.34798866048E+03  0.12500000000E+03 0.  0.
          4    1    1    2  501    0 -0.19473373606E+01 -0.22334465345E+02  0.42092670122E+03  0.42152331877E+03  0.00000000000E+00 0. -1.
         -4    1    1    2    0  503 -0.14615840861E+02  0.22258261433E+03  0.11328932588E+04  0.11546444383E+04  0.00000000000E+00 0.  1.
<mgrwt>
<rscale>  4 0.24056892E+03</rscale>
<asrwt>0</asrwt>
<pdfrwt beam="1">  1       21 0.28716291E+00 0.24056892E+03</pdfrwt>
<pdfrwt beam="2">  1       21 0.88611124E-02 0.24056892E+03</pdfrwt>
<totfact> 0.38633568E+03</totfact>
</mgrwt>
</event>
<event>
 5    0  0.1972558E-002  0.2425284E+03  0.7546771E-02  0.1118120E+00
         21   -1    0    0  501  502  0.00000000000E+00  0.00000000000E+00  0.15141151391E+04  0.15141151391E+04  0.00000000000E+00 0. -1.
         21   -1    0    0  502  503 -0.00000000000E+00 -0.00000000000E+00 -0.11759488944E+03  0.11759488944E+03  0.00000000000E+00 0. -1.
         25    1    1    2    0    0 -0.38635054243E+02 -0.29254842029E+03  0.36099219632E+03  0.48271897770E+03  0.12500000000E+03 0.  0.
          4    1    1    2  501    0  0.10714710719E+03  0.12338514525E+03  0.91682447967E+03  0.93127413964E+03  0.00000000000E+00 0. -1.
         -4    1    1    2    0  503 -0.68512052951E+02  0.16916327503E+03  0.11870357365E+03  0.21771691119E+03  0.00000000000E+00 0.  1.
<mgrwt>
<rscale>  4 0.24252841E+03</rscale>
<asrwt>0</asrwt>
<pdfrwt beam="1">  1       21 0.23294078E+00 0.24252841E+03</pdfrwt>
<pdfrwt beam="2">  1       21 0.18091523E-01 0.24252841E+03</pdfrwt>
<totfact> 0.22226429E+03</totfact>
</mgrwt>
</event>
<event>
 5    0  0.1972558E-002  0.2973736E+03  0.7546771E-02  0.1086561E+00
         21   -1    0    0  501  502  0.00000000000E+00  0.00000000000E+00  0.80921461334E+02  0.80921461334E+02  0.00000000000E+00 0. -1.
         21   -1    0    0  502  503 -0.00000000000E+00 -0.00000000000E+00 -0.10402221251E+04  0.10402221251E+04  0.00000000000E+00 0. -1.
         25    1    1    2    0    0  0.78448220453E+02  0.25817035850E+03 -0.46494172649E+03  0.55190747987E+03  0.12500000000E+03 0.  0.
          4    1    1    2  501    0 -0.14082543771E+02 -0.26546362638E+02 -0.16423542976E+02  0.34245586172E+02  0.00000000000E+00 0.  1.
         -4    1    1    2    0  503 -0.64365676682E+02 -0.23162399586E+03 -0.47793539434E+03  0.53499052043E+03  0.00000000000E+00 0. -1.
<mgrwt>
<rscale>  4 0.29737360E+03</rscale>
<asrwt>0</asrwt>
<pdfrwt beam="1">  1       21 0.12449456E-01 0.29737360E+03</pdfrwt>
<pdfrwt beam="2">  1       21 0.16003416E+00 0.29737360E+03</pdfrwt>
<totfact> 0.12968512E+04</totfact>
</mgrwt>
</event>
<event>
 5    0  0.1972558E-002  0.4641410E+03  0.7546771E-02  0.1023587E+00
         21   -1    0    0  501  502  0.00000000000E+00  0.00000000000E+00  0.61790010543E+03  0.61790010543E+03  0.00000000000E+00 0. -1.
         21   -1    0    0  502  503 -0.00000000000E+00 -0.00000000000E+00 -0.43856442972E+03  0.43856442972E+03  0.00000000000E+00 0.  1.
         25    1    1    2    0    0  0.35545698221E+03  0.20592868925E+03 -0.79016760959E+02  0.43660616094E+03  0.12500000000E+03 0.  0.
          2    1    1    2  501    0 -0.37012265891E+03 -0.28521271149E+03  0.26798087126E+03  0.53865649610E+03  0.00000000000E+00 0. -1.
         -2    1    1    2    0  503  0.14665676702E+02  0.79284022236E+02 -0.96284345890E+01  0.81201878104E+02  0.00000000000E+00 0.  1.
<mgrwt>
<rscale>  4 0.46414096E+03</rscale>
<asrwt>0</asrwt>
<pdfrwt beam="1">  1       21 0.95061555E-01 0.46414096E+03</pdfrwt>
<pdfrwt beam="2">  1       21 0.67471451E-01 0.46414096E+03</pdfrwt>
<totfact> 0.15872390E+03</totfact>
</mgrwt>
</event>
<event>
 5    0  0.1972558E-002  0.2635415E+03  0.7546771E-02  0.1105034E+00
         21   -1    0    0  501  502  0.00000000000E+00  0.00000000000E+00  0.37933299073E+03  0.37933299073E+03  0.00000000000E+00 0. -1.
         21   -1    0    0  502  503 -0.00000000000E+00 -0.00000000000E+00 -0.65281246638E+03  0.65281246638E+03  0.00000000000E+00 0.  1.
         25    1    1    2    0    0  0.21926200558E+03  0.77962654651E+02 -0.57271284212E+03  0.63069723492E+03  0.12500000000E+03 0.  0.
          4    1    1    2  501    0 -0.20511242550E+03 -0.96691651215E+02  0.20959932280E+03  0.30879161036E+03  0.00000000000E+00 0. -1.
         -4    1    1    2    0  503 -0.14149580076E+02  0.18728996564E+02  0.89634043675E+02  0.92656611821E+02  0.00000000000E+00 0.  1.
<mgrwt>
<rscale>  4 0.26354154E+03</rscale>
<asrwt>0</asrwt>
<pdfrwt beam="1">  1       21 0.58358923E-01 0.26354154E+03</pdfrwt>
<pdfrwt beam="2">  1       21 0.10043269E+00 0.26354154E+03</pdfrwt>
<totfact> 0.21133348E+03</totfact>
</mgrwt>
</event>
<event>
 5    0  0.1972558E-002  0.2372652E+03  0.7546771E-02  0.1121628E+00
         21   -1    0    0  501  502  0.00000000000E+00  0.00000000000E+00  0.37937039045E+03  0.37937039045E+03  0.00000000000E+00 0.  1.
         21   -1    0    0  502  503 -0.00000000000E+00 -0.00000000000E+00 -0.18633561098E+03  0.18633561098E+03  0.00000000000E+00 0.  1.
         25    1    1    2    0    0  0.21835010384E+03 -0.78548852233E+01  0.24818580671E+02  0.25294155257E+03  0.12500000000E+03 0.  0.
          3    1    1    2  501    0 -0.18094144161E+03  0.50659170232E+02  0.72422881893E+02  0.20137336130E+03  0.00000000000E+00 0.  1.
         -3    1    1    2    0  503 -0.37408662232E+02 -0.42804285009E+02  0.95793316906E+02  0.11139108757E+03  0.00000000000E+00 0. -1.
<mgrwt>
<rscale>  4 0.23726520E+03</rscale>
<asrwt>0</asrwt>
<pdfrwt beam="1">  1       21 0.58364675E-01 0.23726520E+03</pdfrwt>
<pdfrwt beam="2">  1       21 0.28667017E-01 0.23726520E+03</pdfrwt>
<totfact> 0.31280655E+04</totfact>
</mgrwt>
</event>
<event>
 5    0  0.1972558E-002  0.2843380E+03  0.7546771E-02  0.1093343E+00
         21   -1    0    0  501  502  0.00000000000E+00  0.00000000000E+00  0.19807512185E+04  0.19807512185E+04  0.00000000000E+00 0. -1.
         21   -1    0    0  502  503 -0.00000000000E+00 -0.00000000000E+00 -0.55009251300E+02  0.55009251300E+02  0.00000000000E+00 0. -1.
         25    1    1    2    0    0 -0.15235274108E+03  0.22693468475E+03  0.67707103638E+03  0.74078397469E+03  0.12500000000E+03 0.  0.
          3    1    1    2  501    0  0.13146631713E+03 -0.21088295320E+03  0.12435554320E+04  0.12681423915E+04  0.00000000000E+00 0. -1.
         -3    1    1    2    0  503  0.20886423952E+02 -0.16051731541E+02  0.51154987999E+01  0.26834103655E+02  0.00000000000E+00 0.  1.
<mgrwt>
<rscale>  4 0.28433798E+03</rscale>
<asrwt>0</asrwt>
<pdfrwt beam="1">  1       21 0.30473090E+00 0.28433798E+03</pdfrwt>
<pdfrwt beam="2">  1       21 0.84629632E-02 0.28433798E+03</pdfrwt>
<totfact> 0.31815097E+03</totfact>
</mgrwt>
</event>
<event>
 5    0  0.1972558E-002  0.2366594E+03  0.7546771E-02  0.1122038E+00
         21   -1    0    0  501  502  0.00000000000E+00  0.00000000000E+00  0.13519137050E+04  0.13519137050E+04  0.00000000000E+00 0. -1.
         21   -1    0    0  502  503 -0.00000000000E+00 -0.00000000000E+00 -0.30018826001E+03  0.30018826001E+03  0.00000000000E+00 0. -1.
         25    1    1    2    0    0 -0.81753756984E+02 -0.18357282636E+03 -0.24246351907E+03  0.33881590494E+03  0.12500000000E+03 0.  0.
          4    1    1    2  501    0  0.22411464153E+02  0.78672775643E+02  0.81807330138E+03  0.82215303064E+03  0.00000000000E+00 0. -1.
         -4    1    1    2    0  503  0.59342292831E+02  0.10490005071E+03  0.47611566266E+03  0.49113302942E+03  0.00000000000E+00 0.  1.
<mgrwt>
<rscale>  4 0.23665937E+03</rscale>
<asrwt>0</asrwt>
<pdfrwt beam="1">  1       21 0.20798672E+00 0.23665937E+03</pdfrwt>
<pdfrwt beam="2">  1       21 0.46182810E-01 0.23665937E+03</pdfrwt>
<totfact> 0.51074977E+02</totfact>
</mgrwt>
</event>
<event>
 5    0  0.1972558E-002  0.2847260E+03  0.7546771E-02  0.1093135E+00
         21   -1    0    0  503  502  0.00000000000E+00  0.00000000000E+00  0.40166289867E+03  0.40166289867E+03  0.00000000000E+00 0.  1.
         21   -1    0    0  501  503 -0.00000000000E+00 -0.00000000000E+00 -0.70070024462E+03  0.70070024462E+03  0.00000000000E+00 0. -1.
         25    1    1    2    0    0 -0.15198170219E+03  0.20578018408E+03 -0.61972148214E+03  0.68199973415E+03  0.12500000000E+03 0.  0.
          2    1    1    2  501    0  0.11496751432E+03 -0.10802621412E+03  0.13662630295E+03  0.20869580481E+03  0.00000000000E+00 0. -1.
         -2    1    1    2    0  502  0.37014187867E+02 -0.97753969955E+02  0.18405783324E+03  0.21166760433E+03  0.00000000000E+00 0.  1.
<mgrwt>
<rscale>  4 0.28472605E+03</rscale>
<asrwt>0</asrwt>
<pdfrwt beam="1">  1       21 0.61794293E-01 0.28472605E+03</pdfrwt>
<pdfrwt beam="2">  1       21 0.10780004E+00 0.28472605E+03</pdfrwt>
<totfact> 0.15508770E+03</totfact>
</mgrwt>
</event>
<event>
 5    0  0.1972558E-002  0.2491647E+03  0.7546771E-02  0.1113834E+00
         21   -1    0    0  501  502  0.00000000000E+00  0.00000000000E+00  0.20722104079E+04  0.20722104079E+04  0.00000000000E+00 0. -1.
         21   -1    0    0  502  503 -0.00000000000E+00 -0.00000000000E+00 -0.55109027013E+03  0.55109027013E+03  0.00000000000E+00 0.  1.
         25    1    1    2    0    0 -0.11221805823E+03  0.18318967605E+03 -0.50787851874E+03  0.56543517737E+03  0.12500000000E+03 0.  0.
          2    1    1    2  501    0  0.10035515860E+03 -0.22196406895E+03  0.10443933670E+04  0.10724256202E+04  0.00000000000E+00 0. -1.
         -2    1    1    2    0  503  0.11862899630E+02  0.38774392901E+02  0.98460528947E+03  0.98543988045E+03  0.00000000000E+00 0.  1.
<mgrwt>
<rscale>  4 0.24916474E+03</rscale>
<asrwt>0</asrwt>
<pdfrwt beam="1">  1       21 0.31880160E+00 0.24916474E+03</pdfrwt>
<pdfrwt beam="2">  1       21 0.84783120E-01 0.24916474E+03</pdfrwt>
<totfact> 0.29249937E+01</totfact>
</mgrwt>
</event>
<event>
 5    0  0.1972558E-002  0.2312628E+03  0.7546771E-02  0.1125754E+00
         21   -1    0    0  501  502  0.00000000000E+00  0.00000000000E+00  0.38069661025E+03  0.38069661025E+03  0.00000000000E+00 0. -1.
         21   -1    0    0  502  503 -0.00000000000E+00 -0.00000000000E+00 -0.41840923629E+03  0.41840923629E+03  0.00000000000E+00 0.  1.
         25    1    1    2    0    0 -0.12645383912E+03  0.15748634256E+03 -0.32912970473E+03  0.40588654087E+03  0.12500000000E+03 0.  0.
          3    1    1    2  501    0 -0.28390288235E+02 -0.90938509213E+02  0.98003324238E+02  0.13667652500E+03  0.00000000000E+00 0. -1.
         -3    1    1    2    0  503  0.15484412735E+03 -0.66547833352E+02  0.19341375445E+03  0.25654278067E+03  0.00000000000E+00 0.  1.
<mgrwt>
<rscale>  4 0.23126284E+03</rscale>
<asrwt>0</asrwt>
<pdfrwt beam="1">  1       21 0.58568709E-01 0.23126284E+03</pdfrwt>
<pdfrwt beam="2">  1       21 0.64370652E-01 0.23126284E+03</pdfrwt>
<totfact> 0.59094468E+03</totfact>
</mgrwt>
</event>
<event>
 5    0  0.1972558E-002  0.2614818E+03  0.7546771E-02  0.1106256E+00
         21   -1    0    0  501  502  0.00000000000E+00  0.00000000000E+00  0.14857697407E+03  0.14857697407E+03  0.00000000000E+00 0. -1.
         21   -1    0    0  502  503 -0.00000000000E+00 -0.00000000000E+00 -0.10905842301E+04  0.10905842301E+04  0.00000000000E+00 0. -1.
         25    1    1    2    0    0 -0.24172066619E+03 -0.19467306198E+03 -0.42398480419E+03  0.54010609671E+03  0.12500000000E+03 0.  0.
          4    1    1    2  501    0  0.10336171910E+03  0.43874869452E+02  0.28180551615E+02  0.11577043074E+03  0.00000000000E+00 0. -1.
         -4    1    1    2    0  503  0.13835894709E+03  0.15079819253E+03 -0.54620300347E+03  0.58328467673E+03  0.00000000000E+00 0.  1.
<mgrwt>
<rscale>  4 0.26148177E+03</rscale>
<asrwt>0</asrwt>
<pdfrwt beam="1">  1       21 0.22857996E-01 0.26148177E+03</pdfrwt>
<pdfrwt beam="2">  1       21 0.16778219E+00 0.26148177E+03</pdfrwt>
<totfact> 0.37622885E+03</totfact>
</mgrwt>
</event>
<event>
 5    0  0.1972558E-002  0.2680127E+03  0.7546771E-02  0.1102422E+00
         21   -1    0    0  501  502  0.00000000000E+00  0.00000000000E+00  0.71688924273E+02  0.71688924273E+02  0.00000000000E+00 0. -1.
         21   -1    0    0  502  503 -0.00000000000E+00 -0.00000000000E+00 -0.14114320652E+04  0.14114320652E+04  0.00000000000E+00 0. -1.
         25    1    1    2    0    0 -0.22244256235E+03 -0.25528869482E+02 -0.67338345336E+03  0.72055720938E+03  0.12500000000E+03 0.  0.
          2    1    1    2  501    0 -0.14702230476E+02 -0.67923317040E+02 -0.27513389819E+02  0.74744358972E+02  0.00000000000E+00 0.  1.
         -2    1    1    2    0  503  0.23714479283E+03  0.93452186523E+02 -0.63884629775E+03  0.68781942113E+03  0.00000000000E+00 0. -1.
<mgrwt>
<rscale>  4 0.26801274E+03</rscale>
<asrwt>0</asrwt>
<pdfrwt beam="1">  1       21 0.11029066E-01 0.26801274E+03</pdfrwt>
<pdfrwt beam="2">  1       21 0.21714339E+00 0.26801274E+03</pdfrwt>
<totfact> 0.67292526E+03</totfact>
</mgrwt>
</event>
<event>
 5    0  0.1972558E-002  0.2623340E+03  0.7546771E-02  0.1105749E+00
         21   -1    0    0  503  502  0.00000000000E+00  0.00000000000E+00  0.11017354829E+03  0.11017354829E+03  0.00000000000E+00 0.  1.
         21   -1    0    0  501  503 -0.00000000000E+00 -0.00000000000E+00 -0.13380719183E+04  0.13380719183E+04  0.00000000000E+00 0. -1.
         25    1    1    2    0    0 -0.22016900483E+03 -0.11048460300E+03 -0.10655640705E+04  0.11007874575E+04  0.12500000000E+03 0.  0.
          1    1    1    2  501    0  0.41804333744E+02 -0.33300077473E+02 -0.94426943379E+02  0.10850320325E+03  0.00000000000E+00 0. -1.
         -1    1    1    2    0  502  0.17836467108E+03  0.14378468047E+03 -0.67907356123E+02  0.23895480586E+03  0.00000000000E+00 0.  1.
<mgrwt>
<rscale>  4 0.26233398E+03</rscale>
<asrwt>0</asrwt>
<pdfrwt beam="1">  1       21 0.16949776E-01 0.26233398E+03</pdfrwt>
<pdfrwt beam="2">  1       21 0.20585722E+00 0.26233398E+03</pdfrwt>
<totfact> 0.36430859E+03</totfact>
</mgrwt>
</event>
<event>
 5    0  0.1972558E-002  0.2595984E+03  0.7546771E-02  0.1107385E+00
         21   -1    0    0  501  502  0.00000000000E+00  0.00000000000E+00  0.21144845756E+04  0.21144845756E+04  0.00000000000E+00 0.  1.
         21   -1    0    0  502  503 -0.00000000000E+00 -0.00000000000E+00 -0.34920998411E+02  0.34920998411E+02  0.00000000000E+00 0. -1.
         25    1    1    2    0    0  0.10613316522E+03 -0.17147023025E+03  0.84554522773E+03  0.87820158321E+03  0.12500000000E+03 0.  0.
          1    1    1    2  501    0 -0.12311077898E+03  0.21683176423E+03  0.11182568270E+04  0.11457183812E+04  0.00000000000E+00 0.  1.
         -1    1    1    2    0  503  0.16977613764E+02 -0.45361533988E+02  0.11576152244E+03  0.12548560958E+03  0.00000000000E+00 0. -1.
<mgrwt>
<rscale>  4 0.25959845E+03</rscale>
<asrwt>0</asrwt>
<pdfrwt beam="1">  1       21 0.32530522E+00 0.25959845E+03</pdfrwt>
<pdfrwt beam="2">  1       21 0.53724629E-02 0.25959845E+03</pdfrwt>
<totfact> 0.54148541E+03</totfact>
</mgrwt>
</event>
<event>
 5    0  0.1972558E-002  0.2690562E+03  0.7546771E-02  0.1101821E+00
         21   -1    0    0  501  502  0.00000000000E+00  0.00000000000E+00  0.14137229125E+04  0.14137229125E+04  0.00000000000E+00 0.  1.
         21   -1    0    0  502  503 -0.00000000000E+00 -0.00000000000E+00 -0.79958214731E+02  0.79958214731E+02  0.00000000000E+00 0. -1.
         25    1    1    2    0    0 -0.22765421971E+03  0.41505066900E+01  0.99555152288E+03  0.10288787612E+04  0.12500000000E+03 0.  0.
          1    1    1    2  501    0  0.26931627356E+03  0.16390804111E+01  0.32185265841E+03  0.41967019851E+03  0.00000000000E+00 0.  1.
         -1    1    1    2    0  503 -0.41662053855E+02 -0.57895871010E+01  0.16360516489E+02  0.45132167575E+02  0.00000000000E+00 0. -1.
<mgrwt>
<rscale>  4 0.26905621E+03</rscale>
<asrwt>0</asrwt>
<pdfrwt beam="1">  1       21 0.21749581E+00 0.26905621E+03</pdfrwt>
<pdfrwt beam="2">  1       21 0.12301265E-01 0.26905621E+03</pdfrwt>
<totfact> 0.54974470E+03</totfact>
</mgrwt>
</event>
<event>
 5    0  0.1972558E-002  0.3071342E+03  0.7546771E-02  0.1081728E+00
         21   -1    0    0  501  502  0.00000000000E+00  0.00000000000E+00  0.16199751029E+04  0.16199751029E+04  0.00000000000E+00 0. -1.
         21   -1    0    0  502  503 -0.00000000000E+00 -0.00000000000E+00 -0.10699605818E+03  0.10699605818E+03  0.00000000000E+00 0. -1.
         25    1    1    2    0    0  0.35139053213E+02  0.27798093382E+03  0.21728973281E+03  0.37596273833E+03  0.12500000000E+03 0.  0.
          1    1    1    2  501    0  0.26301923317E+02 -0.24562093980E+01  0.59507852503E+03  0.59566456592E+03  0.00000000000E+00 0.  1.
         -1    1    1    2    0  503 -0.61440976530E+02 -0.27552472443E+03  0.70061078692E+03  0.75534385688E+03  0.00000000000E+00 0. -1.
<mgrwt>
<rscale>  4 0.30713423E+03</rscale>
<asrwt>0</asrwt>
<pdfrwt beam="1">  1       21 0.24922692E+00 0.30713423E+03</pdfrwt>
<pdfrwt beam="2">  1       21 0.16460933E-01 0.30713423E+03</pdfrwt>
<totfact> 0.20062303E+03</totfact>
</mgrwt>
</event>
<event>
 5    0  0.1972558E-002  0.2261536E+03  0.7546771E-02  0.1129377E+00
         21   -1    0    0  501  502  0.00000000000E+00  0.00000000000E+00  0.16398268828E+03  0.16398268828E+03  0.00000000000E+00 0.  1.
         21   -1    0    0  502  503 -0.00000000000E+00 -0.00000000000E+00 -0.44037956219E+03  0.44037956219E+03  0.00000000000E+00 0.  1.
         25    1    1    2    0    0  0.34661628616E+02  0.20694319464E+03 -0.66630149303E+02  0.25316297340E+03  0.12500000000E+03 0.  0.
          4    1    1    2  501    0 -0.52914629423E+02 -0.24966921289E+02  0.15992566072E+02  0.60655315804E+02  0.00000000000E+00 0. -1.
         -4    1    1    2    0  503  0.18253000808E+02 -0.18197627335E+03 -0.22575929068E+03  0.29054396126E+03  0.00000000000E+00 0.  1.
<mgrwt>
<rscale>  4 0.22615360E+03</rscale>
<asrwt>0</asrwt>
<pdfrwt beam="1">  1       21 0.25228106E-01 0.22615360E+03</pdfrwt>
<pdfrwt beam="2">  1       21 0.67750702E-01 0.22615360E+03</pdfrwt>
<totfact> 0.29109667E+04</totfact>
</mgrwt>
</event>
<event>
 5    0  0.1972558E-002  0.2767372E+03  0.7546771E-02  0.1097484E+00
         21   -1    0    0  501  502  0.00000000000E+00  0.00000000000E+00  0.91635896771E+02  0.91635896771E+02  0.00000000000E+00 0. -1.
         21   -1    0    0  502  503 -0.00000000000E+00 -0.00000000000E+00 -0.18742828089E+04  0.18742828089E+04  0.00000000000E+00 0. -1.
         25    1    1    2    0    0 -0.10538772690E+03 -0.25314614132E+03 -0.14640641050E+04  0.14947569185E+04  0.12500000000E+03 0.  0.
          4    1    1    2  501    0  0.13953745266E+03  0.68331639691E+02 -0.17918770794E+03  0.23716692087E+03  0.00000000000E+00 0. -1.
         -4    1    1    2    0  503 -0.34149725766E+02  0.18481450163E+03 -0.13939509921E+03  0.23399486632E+03  0.00000000000E+00 0.  1.
<mgrwt>
<rscale>  4 0.27673719E+03</rscale>
<asrwt>0</asrwt>
<pdfrwt beam="1">  1       21 0.14097830E-01 0.27673719E+03</pdfrwt>
<pdfrwt beam="2">  1       21 0.28835120E+00 0.27673719E+03</pdfrwt>
<totfact> 0.16005655E+03</totfact>
</mgrwt>
</event>
<event>
 5    0  0.1972558E-002  0.4007957E+03  0.7546771E-02  0.1043505E+00
         21   -1    0    0  501  502  0.00000000000E+00  0.00000000000E+00  0.57131632553E+03  0.57131632553E+03  0.00000000000E+00 0. -1.
         21   -1    0    0  502  503 -0.00000000000E+00 -0.00000000000E+00 -0.59605155559E+03  0.59605155559E+03  0.00000000000E+00 0.  1.
         25    1    1    2    0    0 -0.36024832641E+03  0.12342334517E+03 -0.43713213292E+03  0.59306127883E+03  0.12500000000E+03 0.  0.
          3    1    1    2  501    0  0.30941473236E+03 -0.97155942101E+02  0.40139814451E+03  0.51603994429E+03  0.00000000000E+00 0. -1.
         -3    1    1    2    0  503  0.50833594051E+02 -0.26267403072E+02  0.10998758348E+02  0.58266657991E+02  0.00000000000E+00 0.  1.
<mgrwt>
<rscale>  4 0.40079568E+03</rscale>
<asrwt>0</asrwt>
<pdfrwt beam="1">  1       21 0.87894820E-01 0.40079568E+03</pdfrwt>
<pdfrwt beam="2">  1       21 0.91700239E-01 0.40079568E+03</pdfrwt>
<totfact> 0.96884992E+02</totfact>
</mgrwt>
</event>
<event>
 5    0  0.1972558E-002  0.3090871E+03  0.7546771E-02  0.1080784E+00
         21   -1    0    0  501  502  0.00000000000E+00  0.00000000000E+00  0.13223339886E+03  0.13223339886E+03  0.00000000000E+00 0. -1.
         21   -1    0    0  502  503 -0.00000000000E+00 -0.00000000000E+00 -0.72816986866E+03  0.72816986866E+03  0.00000000000E+00 0. -1.
         25    1    1    2    0    0  0.20866880966E+03 -0.19070175265E+03 -0.42734681033E+03  0.52740888017E+03  0.12500000000E+03 0.  0.
          4    1    1    2  501    0 -0.18449313807E+03  0.18405571957E+03 -0.16275665782E+03  0.30725226699E+03  0.00000000000E+00 0. -1.
         -4    1    1    2    0  503 -0.24175671586E+02  0.66460330791E+01 -0.58330016636E+01  0.25742120362E+02  0.00000000000E+00 0.  1.
<mgrwt>
<rscale>  4 0.30908709E+03</rscale>
<asrwt>0</asrwt>
<pdfrwt beam="1">  1       21 0.20343600E-01 0.30908709E+03</pdfrwt>
<pdfrwt beam="2">  1       21 0.11202613E+00 0.30908709E+03</pdfrwt>
<totfact> 0.13107023E+04</totfact>
</mgrwt>
</event>
<event>
 5    0  0.1972558E-002  0.2790996E+03  0.7546771E-02  0.1096182E+00
         21   -1    0    0  501  502  0.00000000000E+00  0.00000000000E+00  0.18040665406E+03  0.18040665406E+03  0.00000000000E+00 0. -1.
         21   -1    0    0  502  503 -0.00000000000E+00 -0.00000000000E+00 -0.52323166231E+03  0.52323166231E+03  0.00000000000E+00 0. -1.
         25    1    1    2    0    0  0.21816795316E+03  0.77095261728E+02 -0.21829025156E+03  0.34178438977E+03  0.12500000000E+03 0.  0.
          3    1    1    2  501    0  0.29325755650E+02  0.52536971299E+02 -0.17449163906E+02  0.62646680828E+02  0.00000000000E+00 0.  1.
         -3    1    1    2    0  503 -0.24749370881E+03 -0.12963223303E+03 -0.10708559277E+03  0.29920724577E+03  0.00000000000E+00 0. -1.
<mgrwt>
<rscale>  4 0.27909961E+03</rscale>
<asrwt>0</asrwt>
<pdfrwt beam="1">  1       21 0.27754870E-01 0.27909961E+03</pdfrwt>
<pdfrwt beam="2">  1       21 0.80497178E-01 0.27909961E+03</pdfrwt>
<totfact> 0.16035880E+04</totfact>
</mgrwt>
</event>
<event>
 5    0  0.1972558E-002  0.2529546E+03  0.7546771E-02  0.1111452E+00
         21   -1    0    0  501  502  0.00000000000E+00  0.00000000000E+00  0.82666847653E+03  0.82666847653E+03  0.00000000000E+00 0. -1.
         21   -1    0    0  502  503 -0.00000000000E+00 -0.00000000000E+00 -0.12410210016E+03  0.12410210016E+03  0.00000000000E+00 0. -1.
         25    1    1    2    0    0 -0.57990941526E+02  0.21391311397E+03  0.25700234447E+03  0.36165864387E+03  0.12500000000E+03 0.  0.
          3    1    1    2  501    0  0.13032117123E+03 -0.18238673876E+03  0.12027558512E+03  0.25439093247E+03  0.00000000000E+00 0. -1.
         -3    1    1    2    0  503 -0.72330229707E+02 -0.31526375208E+02  0.32528844678E+03  0.33472100035E+03  0.00000000000E+00 0.  1.
<mgrwt>
<rscale>  4 0.25295464E+03</rscale>
<asrwt>0</asrwt>
<pdfrwt beam="1">  1       21 0.12717976E+00 0.25295464E+03</pdfrwt>
<pdfrwt beam="2">  1       21 0.19092631E-01 0.25295464E+03</pdfrwt>
<totfact> 0.11059354E+04</totfact>
</mgrwt>
</event>
<event>
 5    0  0.2563922E-002  0.2604498E+03  0.7546771E-02  0.1106873E+00
         21   -1    0    0  503  502  0.00000000000E+00  0.00000000000E+00  0.58244629177E+03  0.58244629177E+03  0.00000000000E+00 0. -1.
         21   -1    0    0  501  503 -0.00000000000E+00 -0.00000000000E+00 -0.16781053022E+03  0.16781053022E+03  0.00000000000E+00 0. -1.
         25    1    1    2    0    0  0.33150273234E+02  0.23065708370E+03  0.17952652355E+03  0.31961915389E+03  0.12500000000E+03 0.  0.
          4    1    1    2  501    0  0.26715324629E+02 -0.12098556534E+02 -0.55109824934E+02  0.62427369355E+02  0.00000000000E+00 0.  1.
         -4    1    1    2    0  502 -0.59865597863E+02 -0.21855852717E+03  0.29021906294E+03  0.36821029874E+03  0.00000000000E+00 0. -1.
<mgrwt>
<rscale>  4 0.26044977E+03</rscale>
<asrwt>0</asrwt>
<pdfrwt beam="1">  1       21 0.89607121E-01 0.26044977E+03</pdfrwt>
<pdfrwt beam="2">  1       21 0.25817005E-01 0.26044977E+03</pdfrwt>
<totfact> 0.14534702E+04</totfact>
</mgrwt>
</event>
<event>
 5    0  0.1972558E-002  0.2005891E+03  0.7546771E-02  0.1149243E+00
         21   -1    0    0  501  502  0.00000000000E+00  0.00000000000E+00  0.26800195875E+02  0.26800195875E+02  0.00000000000E+00 0.  1.
         21   -1    0    0  502  503 -0.00000000000E+00 -0.00000000000E+00 -0.32901952700E+04  0.32901952700E+04  0.00000000000E+00 0.  1.
         25    1    1    2    0    0  0.11846498701E+03 -0.17699737634E+03 -0.11821713502E+04  0.12076904097E+04  0.12500000000E+03 0.  0.
          2    1    1    2  501    0 -0.66771830184E+02  0.12915614997E+03 -0.19836187809E+04  0.19889402345E+04  0.00000000000E+00 0.  1.
         -2    1    1    2    0  503 -0.51693156824E+02  0.47841226371E+02 -0.97604942944E+02  0.12036482165E+03  0.00000000000E+00 0. -1.
<mgrwt>
<rscale>  4 0.20058907E+03</rscale>
<asrwt>0</asrwt>
<pdfrwt beam="1">  1       21 0.41231097E-02 0.20058907E+03</pdfrwt>
<pdfrwt beam="2">  1       21 0.50618356E+00 0.20058907E+03</pdfrwt>
<totfact> 0.62944777E+02</totfact>
</mgrwt>
</event>
<event>
 5    0  0.1972558E-002  0.2724290E+03  0.7546771E-02  0.1099897E+00
         21   -1    0    0  501  502  0.00000000000E+00  0.00000000000E+00  0.12349198766E+04  0.12349198766E+04  0.00000000000E+00 0. -1.
         21   -1    0    0  502  503 -0.00000000000E+00 -0.00000000000E+00 -0.20732637026E+03  0.20732637026E+03  0.00000000000E+00 0.  1.
         25    1    1    2    0    0 -0.49580291904E+02  0.23692687818E+03 -0.97577318164E+02  0.28937671635E+03  0.12500000000E+03 0.  0.
          1    1    1    2  501    0  0.38442904457E+02 -0.13985510569E+03  0.51948880876E+03  0.53935695965E+03  0.00000000000E+00 0.  1.
         -1    1    1    2    0  503  0.11137387448E+02 -0.97071772486E+02  0.60568201576E+03  0.61351257088E+03  0.00000000000E+00 0. -1.
<mgrwt>
<rscale>  4 0.27242898E+03</rscale>
<asrwt>0</asrwt>
<pdfrwt beam="1">  1       21 0.18998767E+00 0.27242898E+03</pdfrwt>
<pdfrwt beam="2">  1       21 0.31896365E-01 0.27242898E+03</pdfrwt>
<totfact> 0.13717327E+03</totfact>
</mgrwt>
</event>
<event>
 5    0  0.1972558E-002  0.2644152E+03  0.7546771E-02  0.1104519E+00
         21   -1    0    0  501  502  0.00000000000E+00  0.00000000000E+00  0.96798679239E+03  0.96798679239E+03  0.00000000000E+00 0. -1.
         21   -1    0    0  502  503 -0.00000000000E+00 -0.00000000000E+00 -0.81838100041E+02  0.81838100041E+02  0.00000000000E+00 0. -1.
         25    1    1    2    0    0  0.68170325817E+02  0.24195474891E+03  0.57481001825E+03  0.63970372120E+03  0.12500000000E+03 0.  0.
          4    1    1    2  501    0 -0.59051168195E+01 -0.25790091944E+02  0.92777768262E+02  0.96476492115E+02  0.00000000000E+00 0.  1.
         -4    1    1    2    0  503 -0.62265208998E+02 -0.21616465697E+03  0.21856090584E+03  0.31364467911E+03  0.00000000000E+00 0. -1.
<mgrwt>
<rscale>  4 0.26441516E+03</rscale>
<asrwt>0</asrwt>
<pdfrwt beam="1">  1       21 0.14892104E+00 0.26441516E+03</pdfrwt>
<pdfrwt beam="2">  1       21 0.12590478E-01 0.26441516E+03</pdfrwt>
<totfact> 0.15692547E+04</totfact>
</mgrwt>
</event>
<event>
 5    0  0.1972558E-002  0.2740252E+03  0.7546771E-02  0.1098998E+00
         21   -1    0    0  503  502  0.00000000000E+00  0.00000000000E+00  0.12600023760E+03  0.12600023760E+03  0.00000000000E+00 0.  1.
         21   -1    0    0  501  503 -0.00000000000E+00 -0.00000000000E+00 -0.12224663358E+04  0.12224663358E+04  0.00000000000E+00 0.  1.
         25    1    1    2    0    0  0.17561067363E+03  0.19644093577E+03 -0.97912991773E+03  0.10216401254E+04  0.12500000000E+03 0.  0.
          3    1    1    2  501    0 -0.35435031123E+02 -0.13655097374E+00 -0.73589587245E+02  0.81676725128E+02  0.00000000000E+00 0. -1.
         -3    1    1    2    0  502 -0.14017564251E+03 -0.19630438480E+03 -0.43746593270E+02  0.24514972296E+03  0.00000000000E+00 0.  1.
<mgrwt>
<rscale>  4 0.27402522E+03</rscale>
<asrwt>0</asrwt>
<pdfrwt beam="1">  1       21 0.19384653E-01 0.27402522E+03</pdfrwt>
<pdfrwt beam="2">  1       21 0.18807173E+00 0.27402522E+03</pdfrwt>
<totfact> 0.36822649E+03</totfact>
</mgrwt>
</event>
<event>
 5    0  0.1972558E-002  0.3065188E+03  0.7546771E-02  0.1082027E+00
         21   -1    0    0  501  502  0.00000000000E+00  0.00000000000E+00  0.16418604549E+03  0.16418604549E+03  0.00000000000E+00 0.  1.
         21   -1    0    0  502  503 -0.00000000000E+00 -0.00000000000E+00 -0.12103435902E+04  0.12103435902E+04  0.00000000000E+00 0.  1.
         25    1    1    2    0    0  0.21410756018E+03 -0.17733996276E+03 -0.82891523193E+03  0.88318569477E+03  0.12500000000E+03 0.  0.
          4    1    1    2  501    0 -0.34890607815E+02 -0.48475561179E+02  0.64735254810E+02  0.88078872385E+02  0.00000000000E+00 0. -1.
         -4    1    1    2    0  503 -0.17921695236E+03  0.22581552394E+03 -0.28197756756E+03  0.40326506850E+03  0.00000000000E+00 0.  1.
<mgrwt>
<rscale>  4 0.30651877E+03</rscale>
<asrwt>0</asrwt>
<pdfrwt beam="1">  1       21 0.25259392E-01 0.30651877E+03</pdfrwt>
<pdfrwt beam="2">  1       21 0.18620671E+00 0.30651877E+03</pdfrwt>
<totfact> 0.22424225E+03</totfact>
</mgrwt>
</event>
<event>
 5    0  0.1972558E-002  0.2709629E+03  0.7546771E-02  0.1100730E+00
         21   -1    0    0  501  502  0.00000000000E+00  0.00000000000E+00  0.11642777255E+04  0.11642777255E+04  0.00000000000E+00 0. -1.
         21   -1    0    0  502  503 -0.00000000000E+00 -0.00000000000E+00 -0.16135017414E+03  0.16135017414E+03  0.00000000000E+00 0. -1.
         25    1    1    2    0    0 -0.17224408511E+03 -0.16855291264E+03 -0.14576528141E+02  0.27187420692E+03  0.12500000000E+03 0.  0.
          4    1    1    2  501    0  0.18534589673E+03  0.14884947625E+03  0.78913859960E+03  0.82416563711E+03  0.00000000000E+00 0. -1.
         -4    1    1    2    0  503 -0.13101811616E+02  0.19703436383E+02  0.22836547993E+03  0.22958805565E+03  0.00000000000E+00 0.  1.
<mgrwt>
<rscale>  4 0.27096291E+03</rscale>
<asrwt>0</asrwt>
<pdfrwt beam="1">  1       21 0.17911964E+00 0.27096291E+03</pdfrwt>
<pdfrwt beam="2">  1       21 0.24823104E-01 0.27096291E+03</pdfrwt>
<totfact> 0.26552880E+03</totfact>
</mgrwt>
</event>
<event>
 5    0  0.1972558E-002  0.2689646E+03  0.7546771E-02  0.1101874E+00
         21   -1    0    0  501  502  0.00000000000E+00  0.00000000000E+00  0.99295308110E+02  0.99295308110E+02  0.00000000000E+00 0. -1.
         21   -1    0    0  502  503 -0.00000000000E+00 -0.00000000000E+00 -0.97660059694E+03  0.97660059694E+03  0.00000000000E+00 0. -1.
         25    1    1    2    0    0  0.57519344554E+02 -0.23381523168E+03 -0.72462353476E+03  0.77374563307E+03  0.12500000000E+03 0.  0.
          2    1    1    2  501    0  0.17140889606E+02  0.13999241981E+02  0.34267096323E+01  0.22394892530E+02  0.00000000000E+00 0.  1.
         -2    1    1    2    0  503 -0.74660234160E+02  0.21981598970E+03 -0.15610846371E+03  0.27975537946E+03  0.00000000000E+00 0. -1.
<mgrwt>
<rscale>  4 0.26896462E+03</rscale>
<asrwt>0</asrwt>
<pdfrwt beam="1">  1       21 0.15276201E-01 0.26896462E+03</pdfrwt>
<pdfrwt beam="2">  1       21 0.15024624E+00 0.26896462E+03</pdfrwt>
<totfact> 0.10746770E+04</totfact>
</mgrwt>
</event>
<event>
 5    0  0.1972558E-002  0.2739557E+03  0.7546771E-02  0.1099037E+00
         21   -1    0    0  501  502  0.00000000000E+00  0.00000000000E+00  0.26591948947E+03  0.26591948947E+03  0.00000000000E+00 0.  1.
         21   -1    0    0  502  503 -0.00000000000E+00 -0.00000000000E+00 -0.44724979627E+03  0.44724979627E+03  0.00000000000E+00 0.  1.
         25    1    1    2    0    0  0.23427490104E+03 -0.85497382956E+02 -0.26402518932E+03  0.38409482208E+03  0.12500000000E+03 0.  0.
          2    1    1    2  501    0 -0.23650060034E+03  0.20736147950E+02  0.18927805399E+02  0.23816125548E+03  0.00000000000E+00 0.  1.
         -2    1    1    2    0  503  0.22256992995E+01  0.64761235006E+02  0.63767077122E+02  0.90913208180E+02  0.00000000000E+00 0. -1.
<mgrwt>
<rscale>  4 0.27395565E+03</rscale>
<asrwt>0</asrwt>
<pdfrwt beam="1">  1       21 0.40910690E-01 0.27395565E+03</pdfrwt>
<pdfrwt beam="2">  1       21 0.68807662E-01 0.27395565E+03</pdfrwt>
<totfact> 0.10558028E+04</totfact>
</mgrwt>
</event>
<event>
 5    0  0.1972558E-002  0.2860335E+03  0.7546771E-02  0.1092438E+00
         21   -1    0    0  501  502  0.00000000000E+00  0.00000000000E+00  0.10053804626E+03  0.10053804626E+03  0.00000000000E+00 0. -1.
         21   -1    0    0  502  503 -0.00000000000E+00 -0.00000000000E+00 -0.25406738071E+04  0.25406738071E+04  0.00000000000E+00 0.  1.
         25    1    1    2    0    0  0.23536285917E+03  0.11024629520E+03 -0.23230206291E+04  0.23408544945E+04  0.12500000000E+03 0.  0.
          4    1    1    2  501    0 -0.29728803845E+02  0.75811826169E+01  0.88917210680E+01  0.31942742704E+02  0.00000000000E+00 0.  1.
         -4    1    1    2    0  503 -0.20563405533E+03 -0.11782747781E+03 -0.12600685284E+03  0.26841461622E+03  0.00000000000E+00 0. -1.
<mgrwt>
<rscale>  4 0.28603350E+03</rscale>
<asrwt>0</asrwt>
<pdfrwt beam="1">  1       21 0.15467392E-01 0.28603350E+03</pdfrwt>
<pdfrwt beam="2">  1       21 0.39087288E+00 0.28603350E+03</pdfrwt>
<totfact> 0.32455930E+02</totfact>
</mgrwt>
</event>
<event>
 5    0  0.1972558E-002  0.2764140E+03  0.7546771E-02  0.1097664E+00
         21   -1    0    0  501  502  0.00000000000E+00  0.00000000000E+00  0.13603143053E+04  0.13603143053E+04  0.00000000000E+00 0. -1.
         21   -1    0    0  502  503 -0.00000000000E+00 -0.00000000000E+00 -0.63246306639E+02  0.63246306639E+02  0.00000000000E+00 0. -1.
         25    1    1    2    0    0 -0.56364315705E+01 -0.26214023830E+03  0.62531515817E+03  0.68948772356E+03  0.12500000000E+03 0.  0.
          4    1    1    2  501    0 -0.10515767160E+02  0.26968602645E+02  0.24363520543E+03  0.24534873184E+03  0.00000000000E+00 0.  1.
         -4    1    1    2    0  503  0.16152198731E+02  0.23517163566E+03  0.42811763504E+03  0.48872415653E+03  0.00000000000E+00 0. -1.
<mgrwt>
<rscale>  4 0.27641402E+03</rscale>
<asrwt>0</asrwt>
<pdfrwt beam="1">  1       21 0.20927910E+00 0.27641402E+03</pdfrwt>
<pdfrwt beam="2">  1       21 0.97302020E-02 0.27641402E+03</pdfrwt>
<totfact> 0.93866717E+03</totfact>
</mgrwt>
</event>
<event>
 5    0  0.1972558E-002  0.3333956E+03  0.7546771E-02  0.1069644E+00
         21   -1    0    0  501  502  0.00000000000E+00  0.00000000000E+00  0.70966653833E+03  0.70966653833E+03  0.00000000000E+00 0.  1.
         21   -1    0    0  502  503 -0.00000000000E+00 -0.00000000000E+00 -0.16405998345E+03  0.16405998345E+03  0.00000000000E+00 0.  1.
         25    1    1    2    0    0 -0.26762626559E+03 -0.15460864948E+03  0.16920621386E+03  0.37387617648E+03  0.12500000000E+03 0.  0.
          1    1    1    2  501    0  0.21106034555E+03  0.63883031177E+02  0.23080012887E+03  0.31921185852E+03  0.00000000000E+00 0.  1.
         -1    1    1    2    0  503  0.56565920049E+02  0.90725618304E+02  0.14560021215E+03  0.18063848678E+03  0.00000000000E+00 0. -1.
<mgrwt>
<rscale>  4 0.33339564E+03</rscale>
<asrwt>0</asrwt>
<pdfrwt beam="1">  1       21 0.10917947E+00 0.33339564E+03</pdfrwt>
<pdfrwt beam="2">  1       21 0.25239998E-01 0.33339564E+03</pdfrwt>
<totfact> 0.91469368E+03</totfact>
</mgrwt>
</event>
<event>
 5    0  0.1972558E-002  0.2964991E+03  0.7546771E-02  0.1087004E+00
         21   -1    0    0  501  502  0.00000000000E+00  0.00000000000E+00  0.19191423795E+04  0.19191423795E+04  0.00000000000E+00 0.  1.
         21   -1    0    0  502  503 -0.00000000000E+00 -0.00000000000E+00 -0.68569663296E+02  0.68569663296E+02  0.00000000000E+00 0.  1.
         25    1    1    2    0    0 -0.22436327047E+03  0.20719068865E+03  0.98260923262E+03  0.10365388380E+04  0.12500000000E+03 0.  0.
          2    1    1    2  501    0  0.65229010149E+02 -0.80567709426E+01  0.49546411988E+03  0.49980439115E+03  0.00000000000E+00 0. -1.
         -2    1    1    2    0  503  0.15913426032E+03 -0.19913391771E+03  0.37249936367E+03  0.45136881364E+03  0.00000000000E+00 0.  1.
<mgrwt>
<rscale>  4 0.29649909E+03</rscale>
<asrwt>0</asrwt>
<pdfrwt beam="1">  1       21 0.29525263E+00 0.29649909E+03</pdfrwt>
<pdfrwt beam="2">  1       21 0.10549180E-01 0.29649909E+03</pdfrwt>
<totfact> 0.24227543E+03</totfact>
</mgrwt>
</event>
<event>
 5    0  0.1972558E-002  0.2329445E+03  0.7546771E-02  0.1124584E+00
         21   -1    0    0  501  502  0.00000000000E+00  0.00000000000E+00  0.42275219220E+03  0.42275219220E+03  0.00000000000E+00 0.  1.
         21   -1    0    0  502  503 -0.00000000000E+00 -0.00000000000E+00 -0.30391997153E+03  0.30391997153E+03  0.00000000000E+00 0.  1.
         25    1    1    2    0    0 -0.20962578538E+03 -0.81750935024E+02  0.35425632241E+02  0.25981947712E+03  0.12500000000E+03 0.  0.
          4    1    1    2  501    0  0.18691261343E+03  0.26680108210E+02 -0.14037825597E+03  0.23527474999E+03  0.00000000000E+00 0.  1.
         -4    1    1    2    0  503  0.22713171944E+02  0.55070826814E+02  0.22378484440E+03  0.23157793662E+03  0.00000000000E+00 0. -1.
<mgrwt>
<rscale>  4 0.23294449E+03</rscale>
<asrwt>0</asrwt>
<pdfrwt beam="1">  1       21 0.65038799E-01 0.23294449E+03</pdfrwt>
<pdfrwt beam="2">  1       21 0.46756919E-01 0.23294449E+03</pdfrwt>
<totfact> 0.92828577E+03</totfact>
</mgrwt>
</event>
<event>
 5    0  0.1972558E-002  0.3804811E+03  0.7546771E-02  0.1050756E+00
         21   -1    0    0  501  502  0.00000000000E+00  0.00000000000E+00  0.44595829019E+03  0.44595829019E+03  0.00000000000E+00 0.  1.
         21   -1    0    0  502  503 -0.00000000000E+00 -0.00000000000E+00 -0.11223395964E+04  0.11223395964E+04  0.00000000000E+00 0.  1.
         25    1    1    2    0    0  0.82195086816E+02  0.34327240934E+03 -0.36184571632E+03  0.52071998400E+03  0.12500000000E+03 0.  0.
          4    1    1    2  501    0  0.30548524784E+02  0.25165629979E+01  0.31717226855E+03  0.31864995433E+03  0.00000000000E+00 0.  1.
         -4    1    1    2    0  503 -0.11274361160E+03 -0.34578897234E+03 -0.63170785845E+03  0.72892794828E+03  0.00000000000E+00 0. -1.
<mgrwt>
<rscale>  4 0.38048109E+03</rscale>
<asrwt>0</asrwt>
<pdfrwt beam="1">  1       21 0.68608968E-01 0.38048109E+03</pdfrwt>
<pdfrwt beam="2">  1       21 0.17266763E+00 0.38048109E+03</pdfrwt>
<totfact> 0.33785923E+02</totfact>
</mgrwt>
</event>
<event>
 5    0  0.1972558E-002  0.3789655E+03  0.7546771E-02  0.1051317E+00
         21   -1    0    0  501  502  0.00000000000E+00  0.00000000000E+00  0.51743745417E+03  0.51743745417E+03  0.00000000000E+00 0. -1.
         21   -1    0    0  502  503 -0.00000000000E+00 -0.00000000000E+00 -0.28435045562E+03  0.28435045562E+03  0.00000000000E+00 0. -1.
         25    1    1    2    0    0 -0.30028039448E+03 -0.19865139186E+03  0.15175004010E+03  0.41022404302E+03  0.12500000000E+03 0.  0.
          1    1    1    2  501    0  0.18906017988E+02 -0.19041653166E+02  0.10073187677E+01  0.26852127710E+02  0.00000000000E+00 0.  1.
         -1    1    1    2    0  503  0.28137437649E+03  0.21769304503E+03  0.80329639682E+02  0.36471173906E+03  0.00000000000E+00 0. -1.
<mgrwt>
<rscale>  4 0.37896554E+03</rscale>
<asrwt>0</asrwt>
<pdfrwt beam="1">  1       21 0.79605762E-01 0.37896554E+03</pdfrwt>
<pdfrwt beam="2">  1       21 0.43746224E-01 0.37896554E+03</pdfrwt>
<totfact> 0.63233833E+03</totfact>
</mgrwt>
</event>
<event>
 5    0  0.1972558E-002  0.2517307E+03  0.7546771E-02  0.1112216E+00
         21   -1    0    0  501  502  0.00000000000E+00  0.00000000000E+00  0.11610335995E+03  0.11610335995E+03  0.00000000000E+00 0. -1.
         21   -1    0    0  502  503 -0.00000000000E+00 -0.00000000000E+00 -0.12607060277E+04  0.12607060277E+04  0.00000000000E+00 0. -1.
         25    1    1    2    0    0  0.11686521582E+02 -0.21225255767E+03 -0.64908318311E+03  0.69434984095E+03  0.12500000000E+03 0.  0.
          2    1    1    2  501    0  0.17561648463E+02 -0.10252950441E+02  0.70605383527E+02  0.73475537920E+02  0.00000000000E+00 0.  1.
         -2    1    1    2    0  503 -0.29248170046E+02  0.22250550811E+03 -0.56612486818E+03  0.60898400879E+03  0.00000000000E+00 0. -1.
<mgrwt>
<rscale>  4 0.25173069E+03</rscale>
<asrwt>0</asrwt>
<pdfrwt beam="1">  1       21 0.17862056E-01 0.25173069E+03</pdfrwt>
<pdfrwt beam="2">  1       21 0.19395476E+00 0.25173069E+03</pdfrwt>
<totfact> 0.39818039E+03</totfact>
</mgrwt>
</event>
<event>
 5    0  0.1972558E-002  0.3238910E+03  0.7546771E-02  0.1073872E+00
         21   -1    0    0  501  502  0.00000000000E+00  0.00000000000E+00  0.78838671727E+03  0.78838671727E+03  0.00000000000E+00 0. -1.
         21   -1    0    0  502  503 -0.00000000000E+00 -0.00000000000E+00 -0.12064907618E+04  0.12064907618E+04  0.00000000000E+00 0. -1.
         25    1    1    2    0    0  0.15493815307E+03  0.25408983671E+03 -0.11220405951E+04  0.11675476750E+04  0.12500000000E+03 0.  0.
          2    1    1    2  501    0 -0.14320256809E+03 -0.28892124831E+03  0.36760059465E+03  0.48899147275E+03  0.00000000000E+00 0.  1.
         -2    1    1    2    0  503 -0.11735584976E+02  0.34831411605E+02  0.33633595591E+03  0.33833833130E+03  0.00000000000E+00 0. -1.
<mgrwt>
<rscale>  4 0.32389101E+03</rscale>
<asrwt>0</asrwt>
<pdfrwt beam="1">  1       21 0.12129027E+00 0.32389101E+03</pdfrwt>
<pdfrwt beam="2">  1       21 0.18561396E+00 0.32389101E+03</pdfrwt>
<totfact> 0.74121332E+01</totfact>
</mgrwt>
</event>
<event>
 5    0  0.1972558E-002  0.2351549E+03  0.7546771E-02  0.1123063E+00
         21   -1    0    0  501  502  0.00000000000E+00  0.00000000000E+00  0.77013210795E+03  0.77013210795E+03  0.00000000000E+00 0. -1.
         21   -1    0    0  502  503 -0.00000000000E+00 -0.00000000000E+00 -0.15837377753E+03  0.15837377753E+03  0.00000000000E+00 0.  1.
         25    1    1    2    0    0  0.18653046560E+03 -0.91988740755E+02  0.15982543404E+01  0.24265839660E+03  0.12500000000E+03 0.  0.
          1    1    1    2  501    0 -0.41141625210E+02 -0.22479036982E+02  0.41224609307E+03  0.41490334016E+03  0.00000000000E+00 0. -1.
         -1    1    1    2    0  503 -0.14538884039E+03  0.11446777774E+03  0.19791398302E+03  0.27094414872E+03  0.00000000000E+00 0.  1.
<mgrwt>
<rscale>  4 0.23515490E+03</rscale>
<asrwt>0</asrwt>
<pdfrwt beam="1">  1       21 0.11848186E+00 0.23515490E+03</pdfrwt>
<pdfrwt beam="2">  1       21 0.24365197E-01 0.23515490E+03</pdfrwt>
<totfact> 0.84183212E+03</totfact>
</mgrwt>
</event>
<event>
 5    0  0.1972558E-002  0.2484006E+03  0.7546771E-02  0.1114320E+00
         21   -1    0    0  501  502  0.00000000000E+00  0.00000000000E+00  0.53824353412E+03  0.53824353412E+03  0.00000000000E+00 0.  1.
         21   -1    0    0  502  503 -0.00000000000E+00 -0.00000000000E+00 -0.41875036807E+03  0.41875036807E+03  0.00000000000E+00 0.  1.
         25    1    1    2    0    0 -0.13809285665E+03 -0.17519335245E+03  0.14406072991E+02  0.25611497953E+03  0.12500000000E+03 0.  0.
          4    1    1    2  501    0 -0.48687901059E+02  0.67161947488E+02  0.35854413214E+03  0.36801512685E+03  0.00000000000E+00 0. -1.
         -4    1    1    2    0  503  0.18678075771E+03  0.10803140496E+03 -0.25345703908E+03  0.33286379582E+03  0.00000000000E+00 0.  1.
<mgrwt>
<rscale>  4 0.24840057E+03</rscale>
<asrwt>0</asrwt>
<pdfrwt beam="1">  1       21 0.82806698E-01 0.24840057E+03</pdfrwt>
<pdfrwt beam="2">  1       21 0.64423133E-01 0.24840057E+03</pdfrwt>
<totfact> 0.27064152E+03</totfact>
</mgrwt>
</event>
<event>
 5    0  0.1972558E-002  0.2484832E+03  0.7546771E-02  0.1114267E+00
         21   -1    0    0  501  502  0.00000000000E+00  0.00000000000E+00  0.70486472195E+03  0.70486472195E+03  0.00000000000E+00 0.  1.
         21   -1    0    0  502  503 -0.00000000000E+00 -0.00000000000E+00 -0.50697148303E+03  0.50697148303E+03  0.00000000000E+00 0.  1.
         25    1    1    2    0    0  0.65254688399E+02 -0.20864725635E+03 -0.43199546353E+03  0.50003693109E+03  0.12500000000E+03 0.  0.
          3    1    1    2  501    0 -0.32952775194E+02  0.18762773055E+03  0.18601213529E+03  0.26625282185E+03  0.00000000000E+00 0. -1.
         -3    1    1    2    0  503 -0.32301913205E+02  0.21019525804E+02  0.44387656716E+03  0.44554645205E+03  0.00000000000E+00 0.  1.
<mgrwt>
<rscale>  4 0.24848322E+03</rscale>
<asrwt>0</asrwt>
<pdfrwt beam="1">  1       21 0.10844073E+00 0.24848322E+03</pdfrwt>
<pdfrwt beam="2">  1       21 0.77995612E-01 0.24848322E+03</pdfrwt>
<totfact> 0.93562649E+02</totfact>
</mgrwt>
</event>
<event>
 5    0  0.1972558E-002  0.3420126E+03  0.7546771E-02  0.1065942E+00
         21   -1    0    0  501  502  0.00000000000E+00  0.00000000000E+00  0.13501590217E+03  0.13501590217E+03  0.00000000000E+00 0.  1.
         21   -1    0    0  502  503 -0.00000000000E+00 -0.00000000000E+00 -0.10526052555E+04  0.10526052555E+04  0.00000000000E+00 0.  1.
         25    1    1    2    0    0  0.28015403515E+02 -0.31923489244E+03 -0.58715468041E+03  0.68049349601E+03  0.12500000000E+03 0.  0.
          2    1    1    2  501    0  0.33353181155E+02  0.86217408097E+01  0.15845681123E+02  0.37919054814E+02  0.00000000000E+00 0. -1.
         -2    1    1    2    0  503 -0.61368584670E+02  0.31061315163E+03 -0.34628035406E+03  0.46920860687E+03  0.00000000000E+00 0.  1.
<mgrwt>
<rscale>  4 0.34201259E+03</rscale>
<asrwt>0</asrwt>
<pdfrwt beam="1">  1       21 0.20771677E-01 0.34201259E+03</pdfrwt>
<pdfrwt beam="2">  1       21 0.16193927E+00 0.34201259E+03</pdfrwt>
<totfact> 0.47546263E+03</totfact>
</mgrwt>
</event>
<event>
 5    0  0.1972558E-002  0.3854399E+03  0.7546771E-02  0.1048941E+00
         21   -1    0    0  501  502  0.00000000000E+00  0.00000000000E+00  0.28283689782E+03  0.28283689782E+03  0.00000000000E+00 0.  1.
         21   -1    0    0  502  503 -0.00000000000E+00 -0.00000000000E+00 -0.10300095366E+04  0.10300095366E+04  0.00000000000E+00 0.  1.
         25    1    1    2    0    0 -0.20717334720E+03 -0.25075715811E+03 -0.15913357145E+03  0.38307759227E+03  0.12500000000E+03 0.  0.
          4    1    1    2  501    0  0.32518692809E+03  0.24305487125E+03 -0.87312807206E+02  0.41526586055E+03  0.00000000000E+00 0.  1.
         -4    1    1    2    0  503 -0.11801358089E+03  0.77022868612E+01 -0.50072626016E+03  0.51450298163E+03  0.00000000000E+00 0. -1.
<mgrwt>
<rscale>  4 0.38543993E+03</rscale>
<asrwt>0</asrwt>
<pdfrwt beam="1">  1       21 0.43513369E-01 0.38543993E+03</pdfrwt>
<pdfrwt beam="2">  1       21 0.15846300E+00 0.38543993E+03</pdfrwt>
<totfact> 0.11417462E+03</totfact>
</mgrwt>
</event>
<event>
 5    0  0.1972558E-002  0.2576056E+03  0.7546771E-02  0.1108590E+00
         21   -1    0    0  501  502  0.00000000000E+00  0.00000000000E+00  0.10948534741E+04  0.10948534741E+04  0.00000000000E+00 0. -1.
         21   -1    0    0  502  503 -0.00000000000E+00 -0.00000000000E+00 -0.71175838704E+02  0.71175838704E+02  0.00000000000E+00 0. -1.
         25    1    1    2    0    0  0.23420159986E+03  0.89327438658E+02  0.48004217970E+03  0.55578347849E+03  0.12500000000E+03 0.  0.
          2    1    1    2  501    0 -0.19568091912E+03 -0.71343188876E+02  0.31459968487E+03  0.37729807107E+03  0.00000000000E+00 0. -1.
         -2    1    1    2    0  503 -0.38520680738E+02 -0.17984249782E+02  0.22903577081E+03  0.23294776324E+03  0.00000000000E+00 0.  1.
<mgrwt>
<rscale>  4 0.25760555E+03</rscale>
<asrwt>0</asrwt>
<pdfrwt beam="1">  1       21 0.16843898E+00 0.25760555E+03</pdfrwt>
<pdfrwt beam="2">  1       21 0.10950130E-01 0.25760555E+03</pdfrwt>
<totfact> 0.14487816E+04</totfact>
</mgrwt>
</event>
<event>
 5    0  0.1972558E-002  0.2421120E+03  0.7546771E-02  0.1118394E+00
         21   -1    0    0  501  502  0.00000000000E+00  0.00000000000E+00  0.16081210049E+04  0.16081210049E+04  0.00000000000E+00 0.  1.
         21   -1    0    0  502  503 -0.00000000000E+00 -0.00000000000E+00 -0.61098877468E+02  0.61098877468E+02  0.00000000000E+00 0. -1.
         25    1    1    2    0    0  0.56428146401E+02  0.20484289402E+03  0.32072074391E+03  0.40451395836E+03  0.12500000000E+03 0.  0.
          4    1    1    2  501    0 -0.70792565870E+02 -0.18748654113E+03  0.50872467185E+03  0.54677562331E+03  0.00000000000E+00 0. -1.
         -4    1    1    2    0  503  0.14364419469E+02 -0.17356352886E+02  0.71757671162E+03  0.71793030065E+03  0.00000000000E+00 0.  1.
<mgrwt>
<rscale>  4 0.24211202E+03</rscale>
<asrwt>0</asrwt>
<pdfrwt beam="1">  1       21 0.24740320E+00 0.24211202E+03</pdfrwt>
<pdfrwt beam="2">  1       21 0.93998285E-02 0.24211202E+03</pdfrwt>
<totfact> 0.59574135E+03</totfact>
</mgrwt>
</event>
<event>
 5    0  0.1972558E-002  0.2319476E+03  0.7546771E-02  0.1125276E+00
         21   -1    0    0  501  502  0.00000000000E+00  0.00000000000E+00  0.30496145511E+03  0.30496145511E+03  0.00000000000E+00 0. -1.
         21   -1    0    0  502  503 -0.00000000000E+00 -0.00000000000E+00 -0.28417411730E+03  0.28417411730E+03  0.00000000000E+00 0. -1.
         25    1    1    2    0    0  0.13185024924E+03 -0.15549925061E+03 -0.12334601404E+03  0.26907943872E+03  0.12500000000E+03 0.  0.
          2    1    1    2  501    0 -0.85438105655E+01  0.18782998597E+02  0.13409621658E+03  0.13567458508E+03  0.00000000000E+00 0.  1.
         -2    1    1    2    0  503 -0.12330643867E+03  0.13671625201E+03  0.10037135269E+02  0.18438154861E+03  0.00000000000E+00 0. -1.
<mgrwt>
<rscale>  4 0.23194761E+03</rscale>
<asrwt>0</asrwt>
<pdfrwt beam="1">  1       21 0.46917147E-01 0.23194761E+03</pdfrwt>
<pdfrwt beam="2">  1       21 0.43719095E-01 0.23194761E+03</pdfrwt>
<totfact> 0.21386429E+04</totfact>
</mgrwt>
</event>
<event>
 5    0  0.1972558E-002  0.2753452E+03  0.7546771E-02  0.1098259E+00
         21   -1    0    0  501  502  0.00000000000E+00  0.00000000000E+00  0.11018458438E+04  0.11018458438E+04  0.00000000000E+00 0. -1.
         21   -1    0    0  502  503 -0.00000000000E+00 -0.00000000000E+00 -0.28459652972E+03  0.28459652972E+03  0.00000000000E+00 0. -1.
         25    1    1    2    0    0 -0.23966513499E+03 -0.48070069028E+02 -0.18250278421E+03  0.32967009982E+03  0.12500000000E+03 0.  0.
          3    1    1    2  501    0  0.26005079627E+03 -0.12360264760E+02  0.63186124400E+03  0.68339434037E+03  0.00000000000E+00 0.  1.
         -3    1    1    2    0  503 -0.20385661276E+02  0.60430333788E+02  0.36789085433E+03  0.37337793337E+03  0.00000000000E+00 0. -1.
<mgrwt>
<rscale>  4 0.27534519E+03</rscale>
<asrwt>0</asrwt>
<pdfrwt beam="1">  1       21 0.16951474E+00 0.27534519E+03</pdfrwt>
<pdfrwt beam="2">  1       21 0.43784082E-01 0.27534519E+03</pdfrwt>
<totfact> 0.10001604E+03</totfact>
</mgrwt>
</event>
<event>
 5    0  0.1972558E-002  0.3072962E+03  0.7546771E-02  0.1081649E+00
         21   -1    0    0  501  502  0.00000000000E+00  0.00000000000E+00  0.10342839025E+04  0.10342839025E+04  0.00000000000E+00 0.  1.
         21   -1    0    0  502  503 -0.00000000000E+00 -0.00000000000E+00 -0.40947229814E+03  0.40947229814E+03  0.00000000000E+00 0.  1.
         25    1    1    2    0    0 -0.21496498501E+03 -0.21551503609E+03  0.52621987137E+03  0.62063598718E+03  0.12500000000E+03 0.  0.
          3    1    1    2  501    0  0.18246445356E+03  0.21049765331E+03 -0.30794813075E+03  0.41525244140E+03  0.00000000000E+00 0.  1.
         -3    1    1    2    0  503  0.32500531456E+02  0.50173827796E+01  0.40653986374E+03  0.40786777206E+03  0.00000000000E+00 0. -1.
<mgrwt>
<rscale>  4 0.30729618E+03</rscale>
<asrwt>0</asrwt>
<pdfrwt beam="1">  1       21 0.15912060E+00 0.30729618E+03</pdfrwt>
<pdfrwt beam="2">  1       21 0.62995739E-01 0.30729618E+03</pdfrwt>
<totfact> 0.53759749E+02</totfact>
</mgrwt>
</event>
<event>
 5    0  0.1972558E-002  0.2998297E+03  0.7546771E-02  0.1085326E+00
         21   -1    0    0  501  502  0.00000000000E+00  0.00000000000E+00  0.50365565529E+02  0.50365565529E+02  0.00000000000E+00 0.  1.
         21   -1    0    0  502  503 -0.00000000000E+00 -0.00000000000E+00 -0.21167400469E+04  0.21167400469E+04  0.00000000000E+00 0. -1.
         25    1    1    2    0    0  0.86556000020E+02  0.26910238371E+03 -0.11917477148E+04  0.12311765307E+04  0.12500000000E+03 0.  0.
          4    1    1    2  501    0 -0.17485638494E+02 -0.15622910731E+02 -0.79970430415E+00  0.23461935560E+02  0.00000000000E+00 0. -1.
         -4    1    1    2    0  503 -0.69070361526E+02 -0.25347947297E+03 -0.87382706226E+03  0.91246714615E+03  0.00000000000E+00 0.  1.
<mgrwt>
<rscale>  4 0.29982973E+03</rscale>
<asrwt>0</asrwt>
<pdfrwt beam="1">  1       21 0.77485490E-02 0.29982973E+03</pdfrwt>
<pdfrwt beam="2">  1       21 0.32565229E+00 0.29982973E+03</pdfrwt>
<totfact> 0.27607869E+03</totfact>
</mgrwt>
</event>
<event>
 5    0  0.1972558E-002  0.2396560E+03  0.7546771E-02  0.1120022E+00
         21   -1    0    0  501  502  0.00000000000E+00  0.00000000000E+00  0.11642078401E+03  0.11642078401E+03  0.00000000000E+00 0.  1.
         21   -1    0    0  502  503 -0.00000000000E+00 -0.00000000000E+00 -0.57081576693E+03  0.57081576693E+03  0.00000000000E+00 0.  1.
         25    1    1    2    0    0 -0.87621976989E+02  0.19350055938E+03 -0.34775057759E+03  0.42623413935E+03  0.12500000000E+03 0.  0.
          3    1    1    2  501    0  0.97241308762E+02 -0.16810992043E+03 -0.12244706762E+03  0.22958680677E+03  0.00000000000E+00 0.  1.
         -3    1    1    2    0  503 -0.96193317726E+01 -0.25390638955E+02  0.15802662291E+02  0.31415604813E+02  0.00000000000E+00 0. -1.
<mgrwt>
<rscale>  4 0.23965598E+03</rscale>
<asrwt>0</asrwt>
<pdfrwt beam="1">  1       21 0.17910890E-01 0.23965598E+03</pdfrwt>
<pdfrwt beam="2">  1       21 0.87817810E-01 0.23965598E+03</pdfrwt>
<totfact> 0.30738919E+04</totfact>
</mgrwt>
</event>
<event>
 5    0  0.1972558E-002  0.3476956E+03  0.7546771E-02  0.1063565E+00
         21   -1    0    0  501  502  0.00000000000E+00  0.00000000000E+00  0.26531042008E+03  0.26531042008E+03  0.00000000000E+00 0.  1.
         21   -1    0    0  502  503 -0.00000000000E+00 -0.00000000000E+00 -0.20930782816E+04  0.20930782816E+04  0.00000000000E+00 0.  1.
         25    1    1    2    0    0  0.32037002433E+03 -0.46584499981E+02 -0.16824987581E+04  0.17179156380E+04  0.12500000000E+03 0.  0.
          3    1    1    2  501    0 -0.32823824355E+03  0.14212634609E+02 -0.32235713066E+03  0.46027867993E+03  0.00000000000E+00 0.  1.
         -3    1    1    2    0  503  0.78682192157E+01  0.32371865372E+02  0.17708802727E+03  0.18019438377E+03  0.00000000000E+00 0. -1.
<mgrwt>
<rscale>  4 0.34769562E+03</rscale>
<asrwt>0</asrwt>
<pdfrwt beam="1">  1       21 0.40816988E-01 0.34769562E+03</pdfrwt>
<pdfrwt beam="2">  1       21 0.32201204E+00 0.34769562E+03</pdfrwt>
<totfact> 0.12244260E+02</totfact>
</mgrwt>
</event>
<event>
 5    0  0.1972558E-002  0.2418043E+03  0.7546771E-02  0.1118597E+00
         21   -1    0    0  501  502  0.00000000000E+00  0.00000000000E+00  0.17455115074E+03  0.17455115074E+03  0.00000000000E+00 0.  1.
         21   -1    0    0  502  503 -0.00000000000E+00 -0.00000000000E+00 -0.41229888470E+03  0.41229888470E+03  0.00000000000E+00 0. -1.
         25    1    1    2    0    0  0.80819641623E+02  0.19055842202E+03 -0.27142502836E+03  0.36351186046E+03  0.12500000000E+03 0.  0.
          4    1    1    2  501    0 -0.88758493074E+02 -0.12352503590E+03  0.33887352495E+02  0.15583599470E+03  0.00000000000E+00 0.  1.
         -4    1    1    2    0  503  0.79388514502E+01 -0.67033386126E+02 -0.21005810327E+00  0.67502180278E+02  0.00000000000E+00 0. -1.
<mgrwt>
<rscale>  4 0.24180431E+03</rscale>
<asrwt>0</asrwt>
<pdfrwt beam="1">  1       21 0.26854024E-01 0.24180431E+03</pdfrwt>
<pdfrwt beam="2">  1       21 0.63430597E-01 0.24180431E+03</pdfrwt>
<totfact> 0.29595434E+04</totfact>
</mgrwt>
</event>
<event>
 5    0  0.2178600E-002  0.2089925E+03  0.7546771E-02  0.1142366E+00
         21   -1    0    0  501  502  0.00000000000E+00  0.00000000000E+00  0.32248849984E+03  0.32248849984E+03  0.00000000000E+00 0.  1.
         21   -1    0    0  502  503 -0.00000000000E+00 -0.00000000000E+00 -0.27538768230E+03  0.27538768230E+03  0.00000000000E+00 0.  1.
         25    1    1    2    0    0  0.17546157074E+03  0.97130060536E+02 -0.26103793856E+01  0.23633202395E+03  0.12500000000E+03 0.  0.
          3    1    1    2  501    0 -0.10429578871E+03 -0.12256729016E+03  0.16059357303E+03  0.22735577376E+03  0.00000000000E+00 0.  1.
         -3    1    1    2    0  503 -0.71165782024E+02  0.25437229623E+02 -0.11088237611E+03  0.13418838442E+03  0.00000000000E+00 0. -1.
<mgrwt>
<rscale>  4 0.20899251E+03</rscale>
<asrwt>0</asrwt>
<pdfrwt beam="1">  1       21 0.49613615E-01 0.20899251E+03</pdfrwt>
<pdfrwt beam="2">  1       21 0.42367336E-01 0.20899251E+03</pdfrwt>
<totfact> 0.20558358E+04</totfact>
</mgrwt>
</event>
<event>
 5    0  0.1972558E-002  0.3480021E+03  0.7546771E-02  0.1063438E+00
         21   -1    0    0  501  502  0.00000000000E+00  0.00000000000E+00  0.19329156093E+04  0.19329156093E+04  0.00000000000E+00 0. -1.
         21   -1    0    0  502  503 -0.00000000000E+00 -0.00000000000E+00 -0.27749982694E+03  0.27749982694E+03  0.00000000000E+00 0. -1.
         25    1    1    2    0    0  0.27382254823E+01 -0.35507496992E+03 -0.83747606180E+02  0.38564801787E+03  0.12500000000E+03 0.  0.
          1    1    1    2  501    0  0.88645700557E+02  0.31128276351E+03  0.16723658634E+04  0.17033973700E+04  0.00000000000E+00 0. -1.
         -1    1    1    2    0  503 -0.91383926040E+02  0.43792206411E+02  0.66797525168E+02  0.12137004840E+03  0.00000000000E+00 0.  1.
<mgrwt>
<rscale>  4 0.34800209E+03</rscale>
<asrwt>0</asrwt>
<pdfrwt beam="1">  1       21 0.29737162E+00 0.34800209E+03</pdfrwt>
<pdfrwt beam="2">  1       21 0.42692282E-01 0.34800209E+03</pdfrwt>
<totfact> 0.15639382E+02</totfact>
</mgrwt>
</event>
<event>
 5    0  0.1972558E-002  0.2493615E+03  0.7546771E-02  0.1113709E+00
         21   -1    0    0  501  502  0.00000000000E+00  0.00000000000E+00  0.32445210128E+03  0.32445210128E+03  0.00000000000E+00 0. -1.
         21   -1    0    0  502  503 -0.00000000000E+00 -0.00000000000E+00 -0.30363348649E+03  0.30363348649E+03  0.00000000000E+00 0.  1.
         25    1    1    2    0    0 -0.16340168353E+03  0.11848098742E+03 -0.16699256554E+03  0.29025742283E+03  0.12500000000E+03 0.  0.
          2    1    1    2  501    0  0.20062107602E+03 -0.89364786514E+02  0.19016769678E+03  0.29051443012E+03  0.00000000000E+00 0. -1.
         -2    1    1    2    0  503 -0.37219392495E+02 -0.29116200909E+02 -0.23565164377E+01  0.47313734822E+02  0.00000000000E+00 0.  1.
<mgrwt>
<rscale>  4 0.24936149E+03</rscale>
<asrwt>0</asrwt>
<pdfrwt beam="1">  1       21 0.49915708E-01 0.24936149E+03</pdfrwt>
<pdfrwt beam="2">  1       21 0.46712844E-01 0.24936149E+03</pdfrwt>
<totfact> 0.16245816E+04</totfact>
</mgrwt>
</event>
<event>
 5    0  0.1972558E-002  0.4359073E+03  0.7546771E-02  0.1032010E+00
         21   -1    0    0  501  502  0.00000000000E+00  0.00000000000E+00  0.15534254574E+03  0.15534254574E+03  0.00000000000E+00 0.  1.
         21   -1    0    0  502  503 -0.00000000000E+00 -0.00000000000E+00 -0.15391417401E+04  0.15391417401E+04  0.00000000000E+00 0. -1.
         25    1    1    2    0    0  0.38965854835E+03 -0.16088394496E+03 -0.98172812195E+03  0.10757009498E+04  0.12500000000E+03 0.  0.
          2    1    1    2  501    0 -0.36177488068E+03  0.19664986623E+03 -0.39893394992E+03  0.57332410605E+03  0.00000000000E+00 0.  1.
         -2    1    1    2    0  503 -0.27883667676E+02 -0.35765921263E+02 -0.31371224457E+01  0.45459229911E+02  0.00000000000E+00 0. -1.
<mgrwt>
<rscale>  4 0.43590734E+03</rscale>
<asrwt>0</asrwt>
<pdfrwt beam="1">  1       21 0.23898855E-01 0.43590734E+03</pdfrwt>
<pdfrwt beam="2">  1       21 0.23679102E+00 0.43590734E+03</pdfrwt>
<totfact> 0.10932650E+03</totfact>
</mgrwt>
</event>
<event>
 5    0  0.1972558E-002  0.2569997E+03  0.7546771E-02  0.1108959E+00
         21   -1    0    0  501  502  0.00000000000E+00  0.00000000000E+00  0.44312599607E+03  0.44312599607E+03  0.00000000000E+00 0. -1.
         21   -1    0    0  502  503 -0.00000000000E+00 -0.00000000000E+00 -0.57842634732E+03  0.57842634732E+03  0.00000000000E+00 0. -1.
         25    1    1    2    0    0  0.11814644852E+03 -0.17490437473E+03  0.17756463696E+03  0.30282721789E+03  0.12500000000E+03 0.  0.
          2    1    1    2  501    0  0.21795176184E+02 -0.25537892241E+01  0.17746629428E+03  0.17881788823E+03  0.00000000000E+00 0.  1.
         -2    1    1    2    0  503 -0.13994162470E+03  0.17745816396E+03 -0.49033128249E+03  0.53990723728E+03  0.00000000000E+00 0. -1.
<mgrwt>
<rscale>  4 0.25699971E+03</rscale>
<asrwt>0</asrwt>
<pdfrwt beam="1">  1       21 0.68173230E-01 0.25699971E+03</pdfrwt>
<pdfrwt beam="2">  1       21 0.88988669E-01 0.25699971E+03</pdfrwt>
<totfact> 0.20117446E+03</totfact>
</mgrwt>
</event>
<event>
 5    0  0.1972558E-002  0.3346137E+03  0.7546771E-02  0.1069114E+00
         21   -1    0    0  501  502  0.00000000000E+00  0.00000000000E+00  0.30031388482E+03  0.30031388482E+03  0.00000000000E+00 0.  1.
         21   -1    0    0  502  503 -0.00000000000E+00 -0.00000000000E+00 -0.75325455449E+03  0.75325455449E+03  0.00000000000E+00 0.  1.
         25    1    1    2    0    0 -0.35993998136E+03 -0.15604845571E+03 -0.30399123119E+03  0.51180423928E+03  0.12500000000E+03 0.  0.
          1    1    1    2  501    0  0.26669681458E+03  0.30681122219E+02 -0.24071125186E+03  0.36056958959E+03  0.00000000000E+00 0. -1.
         -1    1    1    2    0  503  0.93243166781E+02  0.12536733349E+03  0.91761813380E+02  0.18119461044E+03  0.00000000000E+00 0.  1.
<mgrwt>
<rscale>  4 0.33461368E+03</rscale>
<asrwt>0</asrwt>
<pdfrwt beam="1">  1       21 0.46202136E-01 0.33461368E+03</pdfrwt>
<pdfrwt beam="2">  1       21 0.11588532E+00 0.33461368E+03</pdfrwt>
<totfact> 0.23442159E+03</totfact>
</mgrwt>
</event>
<event>
 5    0  0.1972558E-002  0.3354012E+03  0.7546771E-02  0.1068772E+00
         21   -1    0    0  501  502  0.00000000000E+00  0.00000000000E+00  0.14512361966E+04  0.14512361966E+04  0.00000000000E+00 0.  1.
         21   -1    0    0  502  503 -0.00000000000E+00 -0.00000000000E+00 -0.38970140554E+03  0.38970140554E+03  0.00000000000E+00 0. -1.
         25    1    1    2    0    0 -0.26978469953E+03  0.18976344196E+03 -0.14023644436E+03  0.37958557445E+03  0.12500000000E+03 0.  0.
          4    1    1    2  501    0  0.17443973733E+03 -0.23695156463E+03  0.42594418929E+02  0.29730380163E+03  0.00000000000E+00 0. -1.
         -4    1    1    2    0  503  0.95344962195E+02  0.47188122668E+02  0.11591768165E+04  0.11640482260E+04  0.00000000000E+00 0.  1.
<mgrwt>
<rscale>  4 0.33540116E+03</rscale>
<asrwt>0</asrwt>
<pdfrwt beam="1">  1       21 0.22326710E+00 0.33540116E+03</pdfrwt>
<pdfrwt beam="2">  1       21 0.59954063E-01 0.33540116E+03</pdfrwt>
<totfact> 0.21562944E+02</totfact>
</mgrwt>
</event>
<event>
 5    0  0.2361038E-002  0.2974026E+03  0.7546771E-02  0.1086546E+00
         21   -1    0    0  501  502  0.00000000000E+00  0.00000000000E+00  0.95253839708E+03  0.95253839708E+03  0.00000000000E+00 0.  1.
         21   -1    0    0  502  503 -0.00000000000E+00 -0.00000000000E+00 -0.17740472798E+03  0.17740472798E+03  0.00000000000E+00 0. -1.
         25    1    1    2    0    0 -0.43972907856E+02 -0.19885782989E+03  0.75656577662E+02  0.25065308871E+03  0.12500000000E+03 0.  0.
          4    1    1    2  501    0  0.32855005348E+02  0.28954741137E+03  0.72752338922E+03  0.78371387424E+03  0.00000000000E+00 0.  1.
         -4    1    1    2    0  503  0.11117902507E+02 -0.90689581479E+02 -0.28046297785E+02  0.95576162114E+02  0.00000000000E+00 0. -1.
<mgrwt>
<rscale>  4 0.29740260E+03</rscale>
<asrwt>0</asrwt>
<pdfrwt beam="1">  1       21 0.14654437E+00 0.29740260E+03</pdfrwt>
<pdfrwt beam="2">  1       21 0.27293036E-01 0.29740260E+03</pdfrwt>
<totfact> 0.37759429E+03</totfact>
</mgrwt>
</event>
<event>
 5    0  0.1972558E-002  0.2356175E+03  0.7546771E-02  0.1122747E+00
         21   -1    0    0  501  502  0.00000000000E+00  0.00000000000E+00  0.68215132941E+03  0.68215132941E+03  0.00000000000E+00 0.  1.
         21   -1    0    0  502  503 -0.00000000000E+00 -0.00000000000E+00 -0.35475181571E+03  0.35475181571E+03  0.00000000000E+00 0. -1.
         25    1    1    2    0    0 -0.20108411123E+03 -0.89549005976E+01 -0.28921093661E+03  0.37387561553E+03  0.12500000000E+03 0.  0.
          1    1    1    2  501    0  0.18204938609E+03  0.47357700021E+02  0.39747611507E+03  0.43974082455E+03  0.00000000000E+00 0.  1.
         -1    1    1    2    0  503  0.19034725144E+02 -0.38402799424E+02  0.21913433524E+03  0.22328670504E+03  0.00000000000E+00 0. -1.
<mgrwt>
<rscale>  4 0.23561755E+03</rscale>
<asrwt>0</asrwt>
<pdfrwt beam="1">  1       21 0.10494636E+00 0.23561755E+03</pdfrwt>
<pdfrwt beam="2">  1       21 0.54577202E-01 0.23561755E+03</pdfrwt>
<totfact> 0.22375430E+03</totfact>
</mgrwt>
</event>
<event>
 5    0  0.1972558E-002  0.3830254E+03  0.7546771E-02  0.1049821E+00
         21   -1    0    0  501  502  0.00000000000E+00  0.00000000000E+00  0.89617862038E+03  0.89617862038E+03  0.00000000000E+00 0.  1.
         21   -1    0    0  502  503 -0.00000000000E+00 -0.00000000000E+00 -0.18361135886E+03  0.18361135886E+03  0.00000000000E+00 0.  1.
         25    1    1    2    0    0 -0.28073734670E+03  0.24232223046E+03  0.37742782252E+03  0.54370054480E+03  0.12500000000E+03 0.  0.
          2    1    1    2  501    0  0.23083342484E+02  0.35421264099E+01  0.11512810225E+03  0.11747283638E+03  0.00000000000E+00 0. -1.
         -2    1    1    2    0  503  0.25765400421E+03 -0.24586435687E+03  0.22001133675E+03  0.41861659805E+03  0.00000000000E+00 0.  1.
<mgrwt>
<rscale>  4 0.38302540E+03</rscale>
<asrwt>0</asrwt>
<pdfrwt beam="1">  1       21 0.13787363E+00 0.38302540E+03</pdfrwt>
<pdfrwt beam="2">  1       21 0.28247902E-01 0.38302540E+03</pdfrwt>
<totfact> 0.39778191E+03</totfact>
</mgrwt>
</event>
<event>
 5    0  0.1972558E-002  0.2918163E+03  0.7546771E-02  0.1089405E+00
         21   -1    0    0  501  502  0.00000000000E+00  0.00000000000E+00  0.19193320674E+03  0.19193320674E+03  0.00000000000E+00 0. -1.
         21   -1    0    0  502  503 -0.00000000000E+00 -0.00000000000E+00 -0.57933467931E+03  0.57933467931E+03  0.00000000000E+00 0. -1.
         25    1    1    2    0    0 -0.25802060074E+03  0.72401082331E+02 -0.36049061069E+03  0.46625639677E+03  0.12500000000E+03 0.  0.
          2    1    1    2  501    0  0.24613299813E+03 -0.91473973086E+02  0.89005318175E+01  0.26273210688E+03  0.00000000000E+00 0. -1.
         -2    1    1    2    0  503  0.11887602613E+02  0.19072890755E+02 -0.35811393694E+02  0.42279382398E+02  0.00000000000E+00 0.  1.
<mgrwt>
<rscale>  4 0.29181634E+03</rscale>
<asrwt>0</asrwt>
<pdfrwt beam="1">  1       21 0.29528186E-01 0.29181634E+03</pdfrwt>
<pdfrwt beam="2">  1       21 0.89128412E-01 0.29181634E+03</pdfrwt>
<totfact> 0.11161270E+04</totfact>
</mgrwt>
</event>
<event>
 5    0  0.1972558E-002  0.2472213E+03  0.7546771E-02  0.1115074E+00
         21   -1    0    0  501  502  0.00000000000E+00  0.00000000000E+00  0.25554542752E+03  0.25554542752E+03  0.00000000000E+00 0. -1.
         21   -1    0    0  502  503 -0.00000000000E+00 -0.00000000000E+00 -0.34581578392E+03  0.34581578392E+03  0.00000000000E+00 0.  1.
         25    1    1    2    0    0  0.15084632835E+01  0.22077344597E+03 -0.21004376834E+03  0.32937300212E+03  0.12500000000E+03 0.  0.
          3    1    1    2  501    0  0.36847323648E+02 -0.19323793698E+03  0.91545456268E+02  0.21697740922E+03  0.00000000000E+00 0. -1.
         -3    1    1    2    0  503 -0.38355786931E+02 -0.27535508991E+02  0.28227955674E+02  0.55010800104E+02  0.00000000000E+00 0.  1.
<mgrwt>
<rscale>  4 0.24722129E+03</rscale>
<asrwt>0</asrwt>
<pdfrwt beam="1">  1       21 0.39314681E-01 0.24722129E+03</pdfrwt>
<pdfrwt beam="2">  1       21 0.53202428E-01 0.24722129E+03</pdfrwt>
<totfact> 0.20254681E+04</totfact>
</mgrwt>
</event>
<event>
 5    0  0.1972558E-002  0.2942760E+03  0.7546771E-02  0.1088138E+00
         21   -1    0    0  501  502  0.00000000000E+00  0.00000000000E+00  0.47917777012E+03  0.47917777012E+03  0.00000000000E+00 0. -1.
         21   -1    0    0  502  503 -0.00000000000E+00 -0.00000000000E+00 -0.22311724312E+04  0.22311724312E+04  0.00000000000E+00 0.  1.
         25    1    1    2    0    0  0.25890692854E+03 -0.85574177795E+02 -0.21714561992E+04  0.21920772711E+04  0.12500000000E+03 0.  0.
          3    1    1    2  501    0 -0.15971079276E+03  0.33394546743E+02  0.13246318748E+03  0.21016476659E+03  0.00000000000E+00 0.  1.
         -3    1    1    2    0  503 -0.99196135779E+02  0.52179631052E+02  0.28699835061E+03  0.30810816364E+03  0.00000000000E+00 0. -1.
<mgrwt>
<rscale>  4 0.29427595E+03</rscale>
<asrwt>0</asrwt>
<pdfrwt beam="1">  1       21 0.73719657E-01 0.29427595E+03</pdfrwt>
<pdfrwt beam="2">  1       21 0.34325729E+00 0.29427595E+03</pdfrwt>
<totfact> 0.27155260E+01</totfact>
</mgrwt>
</event>
<event>
 5    0  0.1972558E-002  0.2575443E+03  0.7546771E-02  0.1108628E+00
         21   -1    0    0  501  502  0.00000000000E+00  0.00000000000E+00  0.46122272800E+03  0.46122272800E+03  0.00000000000E+00 0.  1.
         21   -1    0    0  502  503 -0.00000000000E+00 -0.00000000000E+00 -0.16190383033E+03  0.16190383033E+03  0.00000000000E+00 0.  1.
         25    1    1    2    0    0 -0.15256860288E+03 -0.16935373894E+03  0.82121540419E+02  0.27262944609E+03  0.12500000000E+03 0.  0.
          1    1    1    2  501    0 -0.21383507834E+02  0.28915478226E+02  0.81218637725E+02  0.88824694777E+02  0.00000000000E+00 0. -1.
         -1    1    1    2    0  503  0.17395211071E+03  0.14043826072E+03  0.13597871953E+03  0.26167241746E+03  0.00000000000E+00 0.  1.
<mgrwt>
<rscale>  4 0.25754434E+03</rscale>
<asrwt>0</asrwt>
<pdfrwt beam="1">  1       21 0.70957342E-01 0.25754434E+03</pdfrwt>
<pdfrwt beam="2">  1       21 0.24908282E-01 0.25754434E+03</pdfrwt>
<totfact> 0.26534500E+04</totfact>
</mgrwt>
</event>
<event>
 5    0  0.1972558E-002  0.2508241E+03  0.7546771E-02  0.1112785E+00
         21   -1    0    0  501  502  0.00000000000E+00  0.00000000000E+00  0.16616451150E+03  0.16616451150E+03  0.00000000000E+00 0.  1.
         21   -1    0    0  502  503 -0.00000000000E+00 -0.00000000000E+00 -0.75147129986E+03  0.75147129986E+03  0.00000000000E+00 0. -1.
         25    1    1    2    0    0 -0.21267591274E+03  0.67922143294E+02 -0.51045388348E+03  0.57099266946E+03  0.12500000000E+03 0.  0.
          4    1    1    2  501    0  0.19071321687E+03 -0.83585201743E+02 -0.15661240274E+03  0.26054838655E+03  0.00000000000E+00 0.  1.
         -4    1    1    2    0  503  0.21962695871E+02  0.15663058449E+02  0.81759497862E+02  0.86094755360E+02  0.00000000000E+00 0. -1.
<mgrwt>
<rscale>  4 0.25082407E+03</rscale>
<asrwt>0</asrwt>
<pdfrwt beam="1">  1       21 0.25563771E-01 0.25082407E+03</pdfrwt>
<pdfrwt beam="2">  1       21 0.11561097E+00 0.25082407E+03</pdfrwt>
<totfact> 0.80787767E+03</totfact>
</mgrwt>
</event>
<event>
 5    0  0.1972558E-002  0.2576090E+03  0.7546771E-02  0.1108588E+00
         21   -1    0    0  501  502  0.00000000000E+00  0.00000000000E+00  0.15615337924E+03  0.15615337924E+03  0.00000000000E+00 0.  1.
         21   -1    0    0  502  503 -0.00000000000E+00 -0.00000000000E+00 -0.10121708614E+04  0.10121708614E+04  0.00000000000E+00 0. -1.
         25    1    1    2    0    0 -0.49056466134E+02  0.21870320401E+03 -0.78529837457E+03  0.82616957425E+03  0.12500000000E+03 0.  0.
          2    1    1    2  501    0 -0.29341329432E+02 -0.22697298248E+01  0.67510263168E+02  0.73645780051E+02  0.00000000000E+00 0. -1.
         -2    1    1    2    0  503  0.78397795566E+02 -0.21643347418E+03 -0.13822937074E+03  0.26850888632E+03  0.00000000000E+00 0.  1.
<mgrwt>
<rscale>  4 0.25760899E+03</rscale>
<asrwt>0</asrwt>
<pdfrwt beam="1">  1       21 0.24023597E-01 0.25760899E+03</pdfrwt>
<pdfrwt beam="2">  1       21 0.15571859E+00 0.25760899E+03</pdfrwt>
<totfact> 0.42081598E+03</totfact>
</mgrwt>
</event>
<event>
 5    0  0.1972558E-002  0.1992069E+03  0.7546771E-02  0.1150410E+00
         21   -1    0    0  501  502  0.00000000000E+00  0.00000000000E+00  0.56063097977E+03  0.56063097977E+03  0.00000000000E+00 0.  1.
         21   -1    0    0  502  503 -0.00000000000E+00 -0.00000000000E+00 -0.25013142860E+03  0.25013142860E+03  0.00000000000E+00 0. -1.
         25    1    1    2    0    0 -0.20729961493E+03 -0.12183867470E+01 -0.89038210688E+02  0.25792909448E+03  0.12500000000E+03 0.  0.
          1    1    1    2  501    0  0.90976819872E+02 -0.45303980110E+02  0.41439352749E+03  0.42667461606E+03  0.00000000000E+00 0.  1.
         -1    1    1    2    0  503  0.11632279506E+03  0.46522366857E+02 -0.14855765629E+02  0.12615869784E+03  0.00000000000E+00 0. -1.
<mgrwt>
<rscale>  4 0.19920693E+03</rscale>
<asrwt>0</asrwt>
<pdfrwt beam="1">  1       21 0.86250920E-01 0.19920693E+03</pdfrwt>
<pdfrwt beam="2">  1       21 0.38481758E-01 0.19920693E+03</pdfrwt>
<totfact> 0.75097784E+03</totfact>
</mgrwt>
</event>
<event>
 5    0  0.1972558E-002  0.2421800E+03  0.7546771E-02  0.1118349E+00
         21   -1    0    0  503  502  0.00000000000E+00  0.00000000000E+00  0.60436923364E+03  0.60436923364E+03  0.00000000000E+00 0. -1.
         21   -1    0    0  501  503 -0.00000000000E+00 -0.00000000000E+00 -0.15660481157E+03  0.15660481157E+03  0.00000000000E+00 0. -1.
         25    1    1    2    0    0  0.44967038397E+02  0.24090564517E+03  0.11646889498E+03  0.29874331443E+03  0.12500000000E+03 0.  0.
          4    1    1    2  501    0 -0.10577141118E+03 -0.49817255130E+02  0.84596148536E+02  0.14431167201E+03  0.00000000000E+00 0.  1.
         -4    1    1    2    0  502  0.60804372782E+02 -0.19108839004E+03  0.24669937855E+03  0.31791905877E+03  0.00000000000E+00 0. -1.
<mgrwt>
<rscale>  4 0.24218001E+03</rscale>
<asrwt>0</asrwt>
<pdfrwt beam="1">  1       21 0.92979881E-01 0.24218001E+03</pdfrwt>
<pdfrwt beam="2">  1       21 0.24093048E-01 0.24218001E+03</pdfrwt>
<totfact> 0.15367909E+04</totfact>
</mgrwt>
</event>
<event>
 5    0  0.1972558E-002  0.2450912E+03  0.7546771E-02  0.1116447E+00
         21   -1    0    0  501  502  0.00000000000E+00  0.00000000000E+00  0.66403700915E+03  0.66403700915E+03  0.00000000000E+00 0. -1.
         21   -1    0    0  502  503 -0.00000000000E+00 -0.00000000000E+00 -0.81311441566E+03  0.81311441566E+03  0.00000000000E+00 0. -1.
         25    1    1    2    0    0 -0.19570961044E+03 -0.78184383146E+02 -0.75333569470E+03  0.79218351301E+03  0.12500000000E+03 0.  0.
          3    1    1    2  501    0  0.18547627779E+03  0.10643611380E+03  0.24808984093E+03  0.32753421976E+03  0.00000000000E+00 0.  1.
         -3    1    1    2    0  503  0.10233332655E+02 -0.28251730650E+02  0.35616844725E+03  0.35743369203E+03  0.00000000000E+00 0. -1.
<mgrwt>
<rscale>  4 0.24509124E+03</rscale>
<asrwt>0</asrwt>
<pdfrwt beam="1">  1       21 0.10215954E+00 0.24509124E+03</pdfrwt>
<pdfrwt beam="2">  1       21 0.12509453E+00 0.24509124E+03</pdfrwt>
<totfact> 0.35151895E+02</totfact>
</mgrwt>
</event>
<event>
 5    0  0.1972558E-002  0.2847376E+03  0.7546771E-02  0.1093129E+00
         21   -1    0    0  501  502  0.00000000000E+00  0.00000000000E+00  0.19086720359E+04  0.19086720359E+04  0.00000000000E+00 0. -1.
         21   -1    0    0  502  503 -0.00000000000E+00 -0.00000000000E+00 -0.20786063164E+03  0.20786063164E+03  0.00000000000E+00 0.  1.
         25    1    1    2    0    0 -0.55680149453E+02  0.25472404933E+03 -0.86787159067E+02  0.30189672295E+03  0.12500000000E+03 0.  0.
          4    1    1    2  501    0  0.19406819793E+02 -0.42646516722E+02  0.90420845987E+03  0.90542160839E+03  0.00000000000E+00 0. -1.
         -4    1    1    2    0  503  0.36273329661E+02 -0.21207753260E+03  0.88339010345E+03  0.90921433620E+03  0.00000000000E+00 0.  1.
<mgrwt>
<rscale>  4 0.28473759E+03</rscale>
<asrwt>0</asrwt>
<pdfrwt beam="1">  1       21 0.29364184E+00 0.28473759E+03</pdfrwt>
<pdfrwt beam="2">  1       21 0.31978560E-01 0.28473759E+03</pdfrwt>
<totfact> 0.31250070E+02</totfact>
</mgrwt>
</event>
<event>
 5    0  0.1972558E-002  0.2945576E+03  0.7546771E-02  0.1087993E+00
         21   -1    0    0  501  502  0.00000000000E+00  0.00000000000E+00  0.29718821887E+03  0.29718821887E+03  0.00000000000E+00 0.  1.
         21   -1    0    0  502  503 -0.00000000000E+00 -0.00000000000E+00 -0.37545546209E+03  0.37545546209E+03  0.00000000000E+00 0.  1.
         25    1    1    2    0    0 -0.51043580479E+02 -0.25215430809E+03  0.62722388203E+02  0.29282476019E+03  0.12500000000E+03 0.  0.
          2    1    1    2  501    0  0.32521341993E+02 -0.18451842878E+02  0.39207207374E+02  0.54178531732E+02  0.00000000000E+00 0. -1.
         -2    1    1    2    0  503  0.18522238487E+02  0.27060615097E+03 -0.18019683879E+03  0.32564038904E+03  0.00000000000E+00 0.  1.
<mgrwt>
<rscale>  4 0.29455761E+03</rscale>
<asrwt>0</asrwt>
<pdfrwt beam="1">  1       21 0.45721265E-01 0.29455761E+03</pdfrwt>
<pdfrwt beam="2">  1       21 0.57762378E-01 0.29455761E+03</pdfrwt>
<totfact> 0.12191006E+04</totfact>
</mgrwt>
</event>
<event>
 5    0  0.1972558E-002  0.2552518E+03  0.7546771E-02  0.1110030E+00
         21   -1    0    0  501  502  0.00000000000E+00  0.00000000000E+00  0.26185035904E+03  0.26185035904E+03  0.00000000000E+00 0. -1.
         21   -1    0    0  502  503 -0.00000000000E+00 -0.00000000000E+00 -0.53774468560E+03  0.53774468560E+03  0.00000000000E+00 0.  1.
         25    1    1    2    0    0  0.11101936142E+03  0.18799118407E+03 -0.41907519018E+03  0.48878931957E+03  0.12500000000E+03 0.  0.
          1    1    1    2  501    0 -0.12810175274E+03 -0.21116524594E+03  0.12579343759E+03  0.27717288664E+03  0.00000000000E+00 0. -1.
         -1    1    1    2    0  503  0.17082391312E+02  0.23174061877E+02  0.17387426041E+02  0.33632838435E+02  0.00000000000E+00 0.  1.
<mgrwt>
<rscale>  4 0.25525180E+03</rscale>
<asrwt>0</asrwt>
<pdfrwt beam="1">  1       21 0.40284671E-01 0.25525180E+03</pdfrwt>
<pdfrwt beam="2">  1       21 0.82729952E-01 0.25525180E+03</pdfrwt>
<totfact> 0.72637283E+03</totfact>
</mgrwt>
</event>
<event>
 5    0  0.1972558E-002  0.3633883E+03  0.7546771E-02  0.1057250E+00
         21   -1    0    0  503  502  0.00000000000E+00  0.00000000000E+00  0.47381075801E+03  0.47381075801E+03  0.00000000000E+00 0.  1.
         21   -1    0    0  501  503 -0.00000000000E+00 -0.00000000000E+00 -0.48544246218E+03  0.48544246218E+03  0.00000000000E+00 0. -1.
         25    1    1    2    0    0  0.35518439374E+03  0.67032558205E+02 -0.18769038100E+03  0.42603051127E+03  0.12500000000E+03 0.  0.
          1    1    1    2  501    0 -0.17890102120E+02 -0.88596284003E+02 -0.70696126989E+02  0.11474885474E+03  0.00000000000E+00 0. -1.
         -1    1    1    2    0  502 -0.33729429162E+03  0.21563725798E+02  0.24675480382E+03  0.41847385418E+03  0.00000000000E+00 0.  1.
<mgrwt>
<rscale>  4 0.36338829E+03</rscale>
<asrwt>0</asrwt>
<pdfrwt beam="1">  1       21 0.72893963E-01 0.36338829E+03</pdfrwt>
<pdfrwt beam="2">  1       21 0.74683456E-01 0.36338829E+03</pdfrwt>
<totfact> 0.24409616E+03</totfact>
</mgrwt>
</event>
<event>
 5    0  0.1972558E-002  0.3115128E+03  0.7546771E-02  0.1079623E+00
         21   -1    0    0  501  502  0.00000000000E+00  0.00000000000E+00  0.11188765850E+04  0.11188765850E+04  0.00000000000E+00 0. -1.
         21   -1    0    0  502  503 -0.00000000000E+00 -0.00000000000E+00 -0.14747424638E+03  0.14747424638E+03  0.00000000000E+00 0. -1.
         25    1    1    2    0    0  0.11935065766E+03 -0.31164744070E+03  0.27449850808E+03  0.44982567481E+03  0.12500000000E+03 0.  0.
          4    1    1    2  501    0 -0.12643054380E+03  0.59639212343E+02  0.41707678282E+03  0.43988016644E+03  0.00000000000E+00 0.  1.
         -4    1    1    2    0  503  0.70798861454E+01  0.25200822836E+03  0.27982704768E+03  0.37664499009E+03  0.00000000000E+00 0. -1.
<mgrwt>
<rscale>  4 0.31151277E+03</rscale>
<asrwt>0</asrwt>
<pdfrwt beam="1">  1       21 0.17213485E+00 0.31151277E+03</pdfrwt>
<pdfrwt beam="2">  1       21 0.22688346E-01 0.31151277E+03</pdfrwt>
<totfact> 0.34436465E+03</totfact>
</mgrwt>
</event>
<event>
 5    0  0.1972558E-002  0.2370248E+03  0.7546771E-02  0.1121791E+00
         21   -1    0    0  501  502  0.00000000000E+00  0.00000000000E+00  0.15844422829E+03  0.15844422829E+03  0.00000000000E+00 0. -1.
         21   -1    0    0  502  503 -0.00000000000E+00 -0.00000000000E+00 -0.67322151926E+03  0.67322151926E+03  0.00000000000E+00 0. -1.
         25    1    1    2    0    0 -0.19113658759E+03  0.63423489377E+02 -0.56444338354E+03  0.61219038489E+03  0.12500000000E+03 0.  0.
          1    1    1    2  501    0  0.15767634872E+03 -0.79575622715E+02  0.40287118369E+02  0.18115507882E+03  0.00000000000E+00 0. -1.
         -1    1    1    2    0  503  0.33460238874E+02  0.16152133339E+02  0.93789741991E+01  0.38320283845E+02  0.00000000000E+00 0.  1.
<mgrwt>
<rscale>  4 0.23702475E+03</rscale>
<asrwt>0</asrwt>
<pdfrwt beam="1">  1       21 0.24376036E-01 0.23702475E+03</pdfrwt>
<pdfrwt beam="2">  1       21 0.10357254E+00 0.23702475E+03</pdfrwt>
<totfact> 0.11662778E+04</totfact>
</mgrwt>
</event>
<event>
 5    0  0.1972558E-002  0.2430691E+03  0.7546771E-02  0.1117765E+00
         21   -1    0    0  501  502  0.00000000000E+00  0.00000000000E+00  0.14086918816E+04  0.14086918816E+04  0.00000000000E+00 0.  1.
         21   -1    0    0  502  503 -0.00000000000E+00 -0.00000000000E+00 -0.30210312415E+03  0.30210312415E+03  0.00000000000E+00 0. -1.
         25    1    1    2    0    0 -0.74173622647E+02  0.20219957298E+03 -0.11081126923E+02  0.24926729626E+03  0.12500000000E+03 0.  0.
          3    1    1    2  501    0  0.28824849757E+02 -0.17666825096E+01  0.12279623521E+04  0.12283018893E+04  0.00000000000E+00 0.  1.
         -3    1    1    2    0  503  0.45348772890E+02 -0.20043289047E+03 -0.11029246769E+03  0.23322582021E+03  0.00000000000E+00 0. -1.
<mgrwt>
<rscale>  4 0.24306907E+03</rscale>
<asrwt>0</asrwt>
<pdfrwt beam="1">  1       21 0.21672182E+00 0.24306907E+03</pdfrwt>
<pdfrwt beam="2">  1       21 0.46477405E-01 0.24306907E+03</pdfrwt>
<totfact> 0.44120188E+02</totfact>
</mgrwt>
</event>
<event>
 5    0  0.1972558E-002  0.2416912E+03  0.7546771E-02  0.1118671E+00
         21   -1    0    0  501  502  0.00000000000E+00  0.00000000000E+00  0.10205248495E+04  0.10205248495E+04  0.00000000000E+00 0. -1.
         21   -1    0    0  502  503 -0.00000000000E+00 -0.00000000000E+00 -0.23974398275E+03  0.23974398275E+03  0.00000000000E+00 0. -1.
         25    1    1    2    0    0  0.78481148418E+02  0.18875531949E+03 -0.15365162496E+03  0.28464308027E+03  0.12500000000E+03 0.  0.
          4    1    1    2  501    0 -0.69219304656E+02 -0.22390281461E+03  0.69499556855E+03  0.73344571908E+03  0.00000000000E+00 0. -1.
         -4    1    1    2    0  503 -0.92618437622E+01  0.35147495125E+02  0.23943692316E+03  0.24218003290E+03  0.00000000000E+00 0.  1.
<mgrwt>
<rscale>  4 0.24169116E+03</rscale>
<asrwt>0</asrwt>
<pdfrwt beam="1">  1       21 0.15700382E+00 0.24169116E+03</pdfrwt>
<pdfrwt beam="2">  1       21 0.36883690E-01 0.24169116E+03</pdfrwt>
<totfact> 0.17969034E+03</totfact>
</mgrwt>
</event>
<event>
 5    0  0.1972558E-002  0.3573912E+03  0.7546771E-02  0.1059622E+00
         21   -1    0    0  501  502  0.00000000000E+00  0.00000000000E+00  0.11912446282E+04  0.11912446282E+04  0.00000000000E+00 0.  1.
         21   -1    0    0  502  503 -0.00000000000E+00 -0.00000000000E+00 -0.32773009316E+03  0.32773009316E+03  0.00000000000E+00 0. -1.
         25    1    1    2    0    0  0.30963838099E+03 -0.95437662704E+02 -0.33291109283E+02  0.34888045575E+03  0.12500000000E+03 0.  0.
          4    1    1    2  501    0 -0.32608034554E+03  0.12971185941E+03  0.89861127267E+02  0.36225485561E+03  0.00000000000E+00 0. -1.
         -4    1    1    2    0  503  0.16441964543E+02 -0.34274196711E+02  0.80694451709E+03  0.80783941005E+03  0.00000000000E+00 0.  1.
<mgrwt>
<rscale>  4 0.35739123E+03</rscale>
<asrwt>0</asrwt>
<pdfrwt beam="1">  1       21 0.18326840E+00 0.35739123E+03</pdfrwt>
<pdfrwt beam="2">  1       21 0.50420015E-01 0.35739123E+03</pdfrwt>
<totfact> 0.56373394E+02</totfact>
</mgrwt>
</event>
<event>
 5    0  0.1972558E-002  0.3817456E+03  0.7546771E-02  0.1050290E+00
         21   -1    0    0  501  502  0.00000000000E+00  0.00000000000E+00  0.13956982863E+03  0.13956982863E+03  0.00000000000E+00 0. -1.
         21   -1    0    0  502  503 -0.00000000000E+00 -0.00000000000E+00 -0.13414939902E+04  0.13414939902E+04  0.00000000000E+00 0. -1.
         25    1    1    2    0    0 -0.23693713927E+03  0.26869780458E+03 -0.88013263050E+03  0.95843422592E+03  0.12500000000E+03 0.  0.
          1    1    1    2  501    0 -0.25001308640E+02 -0.12382013115E+02  0.86102339873E+01  0.29197873412E+02  0.00000000000E+00 0.  1.
         -1    1    1    2    0  503  0.26193844791E+03 -0.25631579147E+03 -0.33040176503E+03  0.49343171947E+03  0.00000000000E+00 0. -1.
<mgrwt>
<rscale>  4 0.38174560E+03</rscale>
<asrwt>0</asrwt>
<pdfrwt beam="1">  1       21 0.21472281E-01 0.38174560E+03</pdfrwt>
<pdfrwt beam="2">  1       21 0.20638369E+00 0.38174560E+03</pdfrwt>
<totfact> 0.21547475E+03</totfact>
</mgrwt>
</event>
<event>
 5    0  0.1972558E-002  0.3411273E+03  0.7546771E-02  0.1066317E+00
         21   -1    0    0  501  502  0.00000000000E+00  0.00000000000E+00  0.44186227446E+03  0.44186227446E+03  0.00000000000E+00 0.  1.
         21   -1    0    0  502  503 -0.00000000000E+00 -0.00000000000E+00 -0.36828789777E+03  0.36828789777E+03  0.00000000000E+00 0.  1.
         25    1    1    2    0    0 -0.32428776578E+03 -0.10958725291E+03 -0.73726980846E+02  0.37179643454E+03  0.12500000000E+03 0.  0.
          4    1    1    2  501    0  0.52242325905E+02  0.28823028719E+01  0.13621695097E+03  0.14591993016E+03  0.00000000000E+00 0. -1.
         -4    1    1    2    0  503  0.27204543987E+03  0.10670495004E+03  0.11084406564E+02  0.29243380753E+03  0.00000000000E+00 0.  1.
<mgrwt>
<rscale>  4 0.34112735E+03</rscale>
<asrwt>0</asrwt>
<pdfrwt beam="1">  1       21 0.67978812E-01 0.34112735E+03</pdfrwt>
<pdfrwt beam="2">  1       21 0.56659677E-01 0.34112735E+03</pdfrwt>
<totfact> 0.53087115E+03</totfact>
</mgrwt>
</event>
<event>
 5    0  0.1972558E-002  0.2250124E+03  0.7546771E-02  0.1130200E+00
         21   -1    0    0  503  502  0.00000000000E+00  0.00000000000E+00  0.73821427562E+03  0.73821427562E+03  0.00000000000E+00 0.  1.
         21   -1    0    0  501  503 -0.00000000000E+00 -0.00000000000E+00 -0.27810008935E+03  0.27810008935E+03  0.00000000000E+00 0.  1.
         25    1    1    2    0    0  0.10412720807E+03 -0.17174195508E+03 -0.19141221350E+03  0.30430479798E+03  0.12500000000E+03 0.  0.
          3    1    1    2  501    0  0.71059291315E+01  0.14940748212E+03  0.22153689975E+03  0.26730448536E+03  0.00000000000E+00 0.  1.
         -3    1    1    2    0  502 -0.11123313720E+03  0.22334472965E+02  0.42998950003E+03  0.44470508163E+03  0.00000000000E+00 0. -1.
<mgrwt>
<rscale>  4 0.22501237E+03</rscale>
<asrwt>0</asrwt>
<pdfrwt beam="1">  1       21 0.11357143E+00 0.22501237E+03</pdfrwt>
<pdfrwt beam="2">  1       21 0.42784629E-01 0.22501237E+03</pdfrwt>
<totfact> 0.30923375E+03</totfact>
</mgrwt>
</event>
<event>
 5    0  0.1972558E-002  0.2807332E+03  0.7546771E-02  0.1095289E+00
         21   -1    0    0  501  502  0.00000000000E+00  0.00000000000E+00  0.10631996475E+04  0.10631996475E+04  0.00000000000E+00 0. -1.
         21   -1    0    0  502  503 -0.00000000000E+00 -0.00000000000E+00 -0.58468308454E+03  0.58468308454E+03  0.00000000000E+00 0.  1.
         25    1    1    2    0    0  0.24236215511E+03  0.58431701688E+02 -0.43852931938E+03  0.51969860684E+03  0.12500000000E+03 0.  0.
          3    1    1    2  501    0 -0.24808857873E+03 -0.77695340753E+02  0.54773663249E+02  0.26567774287E+03  0.00000000000E+00 0.  1.
         -3    1    1    2    0  503  0.57264236190E+01  0.19263639065E+02  0.86227221907E+03  0.86250638229E+03  0.00000000000E+00 0. -1.
<mgrwt>
<rscale>  4 0.28073322E+03</rscale>
<asrwt>0</asrwt>
<pdfrwt beam="1">  1       21 0.16356918E+00 0.28073322E+03</pdfrwt>
<pdfrwt beam="2">  1       21 0.89951244E-01 0.28073322E+03</pdfrwt>
<totfact> 0.22733737E+02</totfact>
</mgrwt>
</event>
<event>
 5    0  0.1972558E-002  0.3252479E+03  0.7546771E-02  0.1073259E+00
         21   -1    0    0  501  502  0.00000000000E+00  0.00000000000E+00  0.36185199176E+03  0.36185199176E+03  0.00000000000E+00 0.  1.
         21   -1    0    0  502  503 -0.00000000000E+00 -0.00000000000E+00 -0.52021371223E+03  0.52021371223E+03  0.00000000000E+00 0. -1.
         25    1    1    2    0    0 -0.29589955035E+03 -0.12497440348E+02 -0.33920301396E+03  0.46732902177E+03  0.12500000000E+03 0.  0.
          2    1    1    2  501    0 -0.16650285556E+02 -0.28593624607E+02  0.75383313716E+02  0.82325399265E+02  0.00000000000E+00 0. -1.
         -2    1    1    2    0  503  0.31254983590E+03  0.41091064955E+02  0.10545797976E+03  0.33241128296E+03  0.00000000000E+00 0.  1.
<mgrwt>
<rscale>  4 0.32524793E+03</rscale>
<asrwt>0</asrwt>
<pdfrwt beam="1">  1       21 0.55669537E-01 0.32524793E+03</pdfrwt>
<pdfrwt beam="2">  1       21 0.80032879E-01 0.32524793E+03</pdfrwt>
<totfact> 0.38422239E+03</totfact>
</mgrwt>
</event>
<event>
 5    0  0.1972558E-002  0.3442187E+03  0.7546771E-02  0.1065013E+00
         21   -1    0    0  501  502  0.00000000000E+00  0.00000000000E+00  0.17850490786E+04  0.17850490786E+04  0.00000000000E+00 0.  1.
         21   -1    0    0  502  503 -0.00000000000E+00 -0.00000000000E+00 -0.15649481992E+03  0.15649481992E+03  0.00000000000E+00 0. -1.
         25    1    1    2    0    0  0.31521292284E+03 -0.78954874670E+02  0.93125010249E+02  0.36040300566E+03  0.12500000000E+03 0.  0.
          2    1    1    2  501    0 -0.28599975414E+03  0.98525387807E+02  0.10047430554E+04  0.10492910553E+04  0.00000000000E+00 0.  1.
         -2    1    1    2    0  503 -0.29213168694E+02 -0.19570513137E+02  0.53068619297E+03  0.53184983748E+03  0.00000000000E+00 0. -1.
<mgrwt>
<rscale>  4 0.34421870E+03</rscale>
<asrwt>0</asrwt>
<pdfrwt beam="1">  1       21 0.27462292E+00 0.34421870E+03</pdfrwt>
<pdfrwt beam="2">  1       21 0.24076127E-01 0.34421870E+03</pdfrwt>
<totfact> 0.67068343E+02</totfact>
</mgrwt>
</event>
<event>
 5    0  0.1972558E-002  0.2379124E+03  0.7546771E-02  0.1121191E+00
         21   -1    0    0  501  502  0.00000000000E+00  0.00000000000E+00  0.10088067816E+04  0.10088067816E+04  0.00000000000E+00 0. -1.
         21   -1    0    0  502  503 -0.00000000000E+00 -0.00000000000E+00 -0.31230954018E+03  0.31230954018E+03  0.00000000000E+00 0. -1.
         25    1    1    2    0    0 -0.81408091424E+01  0.20718046651E+03 -0.18843008074E+03  0.30679131964E+03  0.12500000000E+03 0.  0.
          1    1    1    2  501    0  0.22817879571E+02 -0.16195916600E+02  0.80707617177E+03  0.80756108771E+03  0.00000000000E+00 0. -1.
         -1    1    1    2    0  503 -0.14677070429E+02 -0.19098454991E+03  0.77851150405E+02  0.20676391446E+03  0.00000000000E+00 0.  1.
<mgrwt>
<rscale>  4 0.23791242E+03</rscale>
<asrwt>0</asrwt>
<pdfrwt beam="1">  1       21 0.15520104E+00 0.23791242E+03</pdfrwt>
<pdfrwt beam="2">  1       21 0.48047622E-01 0.23791242E+03</pdfrwt>
<totfact> 0.10826216E+03</totfact>
</mgrwt>
</event>
<event>
 5    0  0.1972558E-002  0.2768097E+03  0.7546771E-02  0.1097444E+00
         21   -1    0    0  503  502  0.00000000000E+00  0.00000000000E+00  0.35847739640E+03  0.35847739640E+03  0.00000000000E+00 0. -1.
         21   -1    0    0  501  503 -0.00000000000E+00 -0.00000000000E+00 -0.15520098970E+04  0.15520098970E+04  0.00000000000E+00 0.  1.
         25    1    1    2    0    0 -0.21931712282E+03 -0.10943753759E+03 -0.14539737474E+04  0.14797774269E+04  0.12500000000E+03 0.  0.
          1    1    1    2  501    0 -0.41472426769E+02 -0.22623890858E+02  0.16710785048E+02  0.50110407668E+02  0.00000000000E+00 0.  1.
         -1    1    1    2    0  502  0.26078954959E+03  0.13206142845E+03  0.24373046178E+03  0.38059945883E+03  0.00000000000E+00 0. -1.
<mgrwt>
<rscale>  4 0.27680974E+03</rscale>
<asrwt>0</asrwt>
<pdfrwt beam="1">  1       21 0.55150370E-01 0.27680974E+03</pdfrwt>
<pdfrwt beam="2">  1       21 0.23877075E+00 0.27680974E+03</pdfrwt>
<totfact> 0.21779710E+02</totfact>
</mgrwt>
</event>
<event>
 5    0  0.1972558E-002  0.2482708E+03  0.7546771E-02  0.1114403E+00
         21   -1    0    0  501  502  0.00000000000E+00  0.00000000000E+00  0.21732473543E+03  0.21732473543E+03  0.00000000000E+00 0. -1.
         21   -1    0    0  502  503 -0.00000000000E+00 -0.00000000000E+00 -0.65933354048E+03  0.65933354048E+03  0.00000000000E+00 0.  1.
         25    1    1    2    0    0 -0.11308634362E+03 -0.20125208394E+03 -0.36417130528E+03  0.44892834839E+03  0.12500000000E+03 0.  0.
          1    1    1    2  501    0  0.11800922801E+03  0.16127732813E+03 -0.20980715541E+03  0.28975092222E+03  0.00000000000E+00 0.  1.
         -1    1    1    2    0  503 -0.49228843925E+01  0.39974755803E+02  0.13196965564E+03  0.13797900529E+03  0.00000000000E+00 0. -1.
<mgrwt>
<rscale>  4 0.24827081E+03</rscale>
<asrwt>0</asrwt>
<pdfrwt beam="1">  1       21 0.33434575E-01 0.24827081E+03</pdfrwt>
<pdfrwt beam="2">  1       21 0.10143593E+00 0.24827081E+03</pdfrwt>
<totfact> 0.65805813E+03</totfact>
</mgrwt>
</event>
<event>
 5    0  0.1972558E-002  0.2440453E+03  0.7546771E-02  0.1117127E+00
         21   -1    0    0  501  502  0.00000000000E+00  0.00000000000E+00  0.19231180839E+03  0.19231180839E+03  0.00000000000E+00 0. -1.
         21   -1    0    0  502  503 -0.00000000000E+00 -0.00000000000E+00 -0.70665172419E+03  0.70665172419E+03  0.00000000000E+00 0.  1.
         25    1    1    2    0    0  0.19582176450E+03 -0.90399565515E+02 -0.57410844922E+03  0.62589436518E+03  0.12500000000E+03 0.  0.
          3    1    1    2  501    0 -0.19089399964E+03  0.24774169556E+02  0.14190739263E+02  0.19301724187E+03  0.00000000000E+00 0.  1.
         -3    1    1    2    0  503 -0.49277648521E+01  0.65625395959E+02  0.45577794154E+02  0.80051925531E+02  0.00000000000E+00 0. -1.
<mgrwt>
<rscale>  4 0.24404527E+03</rscale>
<asrwt>0</asrwt>
<pdfrwt beam="1">  1       21 0.29586432E-01 0.24404527E+03</pdfrwt>
<pdfrwt beam="2">  1       21 0.10871565E+00 0.24404527E+03</pdfrwt>
<totfact> 0.70999170E+03</totfact>
</mgrwt>
</event>
<event>
 5    0  0.1972558E-002  0.2415479E+03  0.7546771E-02  0.1118766E+00
         21   -1    0    0  501  502  0.00000000000E+00  0.00000000000E+00  0.43549969859E+03  0.43549969859E+03  0.00000000000E+00 0.  1.
         21   -1    0    0  502  503 -0.00000000000E+00 -0.00000000000E+00 -0.32297184251E+03  0.32297184251E+03  0.00000000000E+00 0. -1.
         25    1    1    2    0    0  0.19759136732E+03  0.41462596901E+02 -0.19513428781E+03  0.30734977739E+03  0.12500000000E+03 0.  0.
          1    1    1    2  501    0 -0.22240715426E+03 -0.17998129611E+02  0.10679937198E+03  0.24737619285E+03  0.00000000000E+00 0. -1.
         -1    1    1    2    0  503  0.24815786933E+02 -0.23464467290E+02  0.20086277191E+03  0.20374557086E+03  0.00000000000E+00 0.  1.
<mgrwt>
<rscale>  4 0.24154792E+03</rscale>
<asrwt>0</asrwt>
<pdfrwt beam="1">  1       21 0.66999954E-01 0.24154792E+03</pdfrwt>
<pdfrwt beam="2">  1       21 0.49687976E-01 0.24154792E+03</pdfrwt>
<totfact> 0.76227187E+03</totfact>
</mgrwt>
</event>
<event>
 5    0  0.1972558E-002  0.3692013E+03  0.7546771E-02  0.1054999E+00
         21   -1    0    0  501  502  0.00000000000E+00  0.00000000000E+00  0.15404982234E+04  0.15404982234E+04  0.00000000000E+00 0. -1.
         21   -1    0    0  502  503 -0.00000000000E+00 -0.00000000000E+00 -0.11398271600E+03  0.11398271600E+03  0.00000000000E+00 0. -1.
         25    1    1    2    0    0 -0.10113777038E+03 -0.32529438556E+03  0.42884862274E+03  0.56176634565E+03  0.12500000000E+03 0.  0.
          2    1    1    2  501    0  0.18185236971E+03  0.31579988298E+03  0.80911003202E+03  0.88738880677E+03  0.00000000000E+00 0. -1.
         -2    1    1    2    0  503 -0.80714599326E+02  0.94945025758E+01  0.18855685264E+03  0.20532578698E+03  0.00000000000E+00 0.  1.
<mgrwt>
<rscale>  4 0.36920133E+03</rscale>
<asrwt>0</asrwt>
<pdfrwt beam="1">  1       21 0.23699971E+00 0.36920133E+03</pdfrwt>
<pdfrwt beam="2">  1       21 0.17535804E-01 0.36920133E+03</pdfrwt>
<totfact> 0.20358431E+03</totfact>
</mgrwt>
</event>
<event>
 5    0  0.1972558E-002  0.2506536E+03  0.7546771E-02  0.1112892E+00
         21   -1    0    0  501  502  0.00000000000E+00  0.00000000000E+00  0.13605962506E+03  0.13605962506E+03  0.00000000000E+00 0.  1.
         21   -1    0    0  502  503 -0.00000000000E+00 -0.00000000000E+00 -0.92106029624E+03  0.92106029624E+03  0.00000000000E+00 0. -1.
         25    1    1    2    0    0 -0.47579881580E+02 -0.21198669218E+03 -0.79354371339E+03  0.83218917792E+03  0.12500000000E+03 0.  0.
          2    1    1    2  501    0  0.22997827898E+02  0.68188524500E+02  0.29064933201E+02  0.77610213913E+02  0.00000000000E+00 0. -1.
         -2    1    1    2    0  503  0.24582053683E+02  0.14379816768E+03 -0.20521890999E+02  0.14732052946E+03  0.00000000000E+00 0.  1.
<mgrwt>
<rscale>  4 0.25065355E+03</rscale>
<asrwt>0</asrwt>
<pdfrwt beam="1">  1       21 0.20932251E-01 0.25065355E+03</pdfrwt>
<pdfrwt beam="2">  1       21 0.14170158E+00 0.25065355E+03</pdfrwt>
<totfact> 0.70546357E+03</totfact>
</mgrwt>
</event>
<event>
 5    0  0.1972558E-002  0.2268014E+03  0.7546771E-02  0.1128912E+00
         21   -1    0    0  501  502  0.00000000000E+00  0.00000000000E+00  0.17618298797E+03  0.17618298797E+03  0.00000000000E+00 0.  1.
         21   -1    0    0  502  503 -0.00000000000E+00 -0.00000000000E+00 -0.41031994500E+03  0.41031994500E+03  0.00000000000E+00 0.  1.
         25    1    1    2    0    0  0.20205948334E+03 -0.56130467568E+02 -0.99710094598E+02  0.26371531462E+03  0.12500000000E+03 0.  0.
          1    1    1    2  501    0 -0.17732709069E+03  0.33134516605E+02 -0.18730202983E+03  0.26004777188E+03  0.00000000000E+00 0.  1.
         -1    1    1    2    0  503 -0.24732392658E+02  0.22995950963E+02  0.52875167406E+02  0.62739846473E+02  0.00000000000E+00 0. -1.
<mgrwt>
<rscale>  4 0.22680145E+03</rscale>
<asrwt>0</asrwt>
<pdfrwt beam="1">  1       21 0.27105075E-01 0.22680145E+03</pdfrwt>
<pdfrwt beam="2">  1       21 0.63126145E-01 0.22680145E+03</pdfrwt>
<totfact> 0.29584503E+04</totfact>
</mgrwt>
</event>
<event>
 5    0  0.1972558E-002  0.2508390E+03  0.7546771E-02  0.1112776E+00
         21   -1    0    0  501  502  0.00000000000E+00  0.00000000000E+00  0.98336429709E+03  0.98336429709E+03  0.00000000000E+00 0. -1.
         21   -1    0    0  502  503 -0.00000000000E+00 -0.00000000000E+00 -0.15767518908E+03  0.15767518908E+03  0.00000000000E+00 0. -1.
         25    1    1    2    0    0  0.17346953323E+03  0.13800631669E+03 -0.95321039482E+01  0.25466307822E+03  0.12500000000E+03 0.  0.
          2    1    1    2  501    0 -0.81790407857E+01 -0.19034681867E+02  0.45137411493E+03  0.45184931941E+03  0.00000000000E+00 0. -1.
         -2    1    1    2    0  503 -0.16529049244E+03 -0.11897163482E+03  0.38384709703E+03  0.43452708854E+03  0.00000000000E+00 0.  1.
<mgrwt>
<rscale>  4 0.25083899E+03</rscale>
<asrwt>0</asrwt>
<pdfrwt beam="1">  1       21 0.15128681E+00 0.25083899E+03</pdfrwt>
<pdfrwt beam="2">  1       21 0.24257722E-01 0.25083899E+03</pdfrwt>
<totfact> 0.44833036E+03</totfact>
</mgrwt>
</event>
<event>
 5    0  0.1972558E-002  0.2189813E+03  0.7546771E-02  0.1134645E+00
         21   -1    0    0  501  502  0.00000000000E+00  0.00000000000E+00  0.45410210028E+03  0.45410210028E+03  0.00000000000E+00 0.  1.
         21   -1    0    0  502  503 -0.00000000000E+00 -0.00000000000E+00 -0.19921505023E+03  0.19921505023E+03  0.00000000000E+00 0. -1.
         25    1    1    2    0    0  0.61946011242E+02 -0.19989787820E+03 -0.44446703823E+02  0.24778413892E+03  0.12500000000E+03 0.  0.
          4    1    1    2  501    0 -0.99404744649E+02  0.53894617249E+02  0.18305421736E+03  0.21516221676E+03  0.00000000000E+00 0.  1.
         -4    1    1    2    0  503  0.37458733408E+02  0.14600326095E+03  0.11627953651E+03  0.19037079484E+03  0.00000000000E+00 0. -1.
<mgrwt>
<rscale>  4 0.21898128E+03</rscale>
<asrwt>0</asrwt>
<pdfrwt beam="1">  1       21 0.69861861E-01 0.21898128E+03</pdfrwt>
<pdfrwt beam="2">  1       21 0.30648469E-01 0.21898128E+03</pdfrwt>
<totfact> 0.18724729E+04</totfact>
</mgrwt>
</event>
<event>
 5    0  0.1972558E-002  0.3070306E+03  0.7546771E-02  0.1081778E+00
         21   -1    0    0  503  502  0.00000000000E+00  0.00000000000E+00  0.78229745571E+03  0.78229745571E+03  0.00000000000E+00 0.  1.
         21   -1    0    0  501  503 -0.00000000000E+00 -0.00000000000E+00 -0.37866237456E+03  0.37866237456E+03  0.00000000000E+00 0.  1.
         25    1    1    2    0    0  0.25866543393E+03 -0.10832813072E+03 -0.27964005793E+03  0.41529068448E+03  0.12500000000E+03 0.  0.
          1    1    1    2  501    0 -0.54724336608E+02  0.22611541379E+02  0.27509399072E+03  0.28139427597E+03  0.00000000000E+00 0. -1.
         -1    1    1    2    0  502 -0.20394109732E+03  0.85716589339E+02  0.40818114836E+03  0.46427486982E+03  0.00000000000E+00 0.  1.
<mgrwt>
<rscale>  4 0.30703060E+03</rscale>
<asrwt>0</asrwt>
<pdfrwt beam="1">  1       21 0.12035345E+00 0.30703060E+03</pdfrwt>
<pdfrwt beam="2">  1       21 0.58255750E-01 0.30703060E+03</pdfrwt>
<totfact> 0.13240925E+03</totfact>
</mgrwt>
</event>
<event>
 5    0  0.1972558E-002  0.3198050E+03  0.7546771E-02  0.1075739E+00
         21   -1    0    0  503  502  0.00000000000E+00  0.00000000000E+00  0.39818518052E+03  0.39818518052E+03  0.00000000000E+00 0. -1.
         21   -1    0    0  501  503 -0.00000000000E+00 -0.00000000000E+00 -0.52482537878E+03  0.52482537878E+03  0.00000000000E+00 0. -1.
         25    1    1    2    0    0 -0.92373078646E+02  0.28486223979E+03 -0.38181192717E+03  0.50108345517E+03  0.12500000000E+03 0.  0.
          4    1    1    2  501    0  0.33424609512E+02 -0.16061058477E+02  0.98535119907E+02  0.10528215412E+03  0.00000000000E+00 0.  1.
         -4    1    1    2    0  502  0.58948469135E+02 -0.26880118131E+03  0.15663660901E+03  0.31664495001E+03  0.00000000000E+00 0. -1.
<mgrwt>
<rscale>  4 0.31980498E+03</rscale>
<asrwt>0</asrwt>
<pdfrwt beam="1">  1       21 0.61259259E-01 0.31980498E+03</pdfrwt>
<pdfrwt beam="2">  1       21 0.80742365E-01 0.31980498E+03</pdfrwt>
<totfact> 0.30691721E+03</totfact>
</mgrwt>
</event>
<event>
 5    0  0.1972558E-002  0.2858407E+03  0.7546771E-02  0.1092541E+00
         21   -1    0    0  501  502  0.00000000000E+00  0.00000000000E+00  0.17871892357E+03  0.17871892357E+03  0.00000000000E+00 0.  1.
         21   -1    0    0  502  503 -0.00000000000E+00 -0.00000000000E+00 -0.10608122920E+04  0.10608122920E+04  0.00000000000E+00 0.  1.
         25    1    1    2    0    0  0.11843001588E+02 -0.26020097202E+03 -0.86004087677E+03  0.90727069403E+03  0.12500000000E+03 0.  0.
          2    1    1    2  501    0 -0.33028226447E+02  0.24314916750E+03 -0.88191108478E+02  0.26074902303E+03  0.00000000000E+00 0.  1.
         -2    1    1    2    0  503  0.21185224859E+02  0.17051804523E+02  0.66138616802E+02  0.71511498533E+02  0.00000000000E+00 0. -1.
<mgrwt>
<rscale>  4 0.28584071E+03</rscale>
<asrwt>0</asrwt>
<pdfrwt beam="1">  1       21 0.27495220E-01 0.28584071E+03</pdfrwt>
<pdfrwt beam="2">  1       21 0.16320189E+00 0.28584071E+03</pdfrwt>
<totfact> 0.28006040E+03</totfact>
</mgrwt>
</event>
<event>
 5    0  0.1972558E-002  0.2548226E+03  0.7546771E-02  0.1110294E+00
         21   -1    0    0  501  502  0.00000000000E+00  0.00000000000E+00  0.10995528419E+03  0.10995528419E+03  0.00000000000E+00 0.  1.
         21   -1    0    0  502  503 -0.00000000000E+00 -0.00000000000E+00 -0.67076885659E+03  0.67076885659E+03  0.00000000000E+00 0.  1.
         25    1    1    2    0    0 -0.14262336260E+03 -0.18297923648E+03 -0.37681010402E+03  0.45981918080E+03  0.12500000000E+03 0.  0.
          1    1    1    2  501    0  0.39269086928E+02 -0.20289464324E+01  0.13760717283E+01  0.39345538313E+02  0.00000000000E+00 0. -1.
         -1    1    1    2    0  503  0.10335427567E+03  0.18500818291E+03 -0.18537954011E+03  0.28155942167E+03  0.00000000000E+00 0.  1.
<mgrwt>
<rscale>  4 0.25482263E+03</rscale>
<asrwt>0</asrwt>
<pdfrwt beam="1">  1       21 0.16916197E-01 0.25482263E+03</pdfrwt>
<pdfrwt beam="2">  1       21 0.10319521E+00 0.25482263E+03</pdfrwt>
<totfact> 0.23178633E+04</totfact>
</mgrwt>
</event>
<event>
 5    0  0.1972558E-002  0.2377200E+03  0.7546771E-02  0.1121321E+00
         21   -1    0    0  503  502  0.00000000000E+00  0.00000000000E+00  0.32365332030E+03  0.32365332030E+03  0.00000000000E+00 0.  1.
         21   -1    0    0  501  503 -0.00000000000E+00 -0.00000000000E+00 -0.21890919558E+03  0.21890919558E+03  0.00000000000E+00 0.  1.
         25    1    1    2    0    0 -0.17831734002E+03 -0.10023176667E+03 -0.73079673546E+02  0.25061747642E+03  0.12500000000E+03 0.  0.
          4    1    1    2  501    0  0.18610774963E+03  0.69625382826E+02  0.14224817887E+03  0.24437334715E+03  0.00000000000E+00 0.  1.
         -4    1    1    2    0  502 -0.77904096041E+01  0.30606383848E+02  0.35575619394E+02  0.47571692311E+02  0.00000000000E+00 0. -1.
<mgrwt>
<rscale>  4 0.23771998E+03</rscale>
<asrwt>0</asrwt>
<pdfrwt beam="1">  1       21 0.49792819E-01 0.23771998E+03</pdfrwt>
<pdfrwt beam="2">  1       21 0.33678338E-01 0.23771998E+03</pdfrwt>
<totfact> 0.31904338E+04</totfact>
</mgrwt>
</event>
<event>
 5    0  0.1972558E-002  0.4734041E+03  0.7546771E-02  0.1020964E+00
         21   -1    0    0  501  502  0.00000000000E+00  0.00000000000E+00  0.29361663564E+03  0.29361663564E+03  0.00000000000E+00 0. -1.
         21   -1    0    0  502  503 -0.00000000000E+00 -0.00000000000E+00 -0.89828755222E+03  0.89828755222E+03  0.00000000000E+00 0.  1.
         25    1    1    2    0    0 -0.56238507169E+02  0.41878128331E+03 -0.36471815695E+03  0.57200075782E+03  0.12500000000E+03 0.  0.
          1    1    1    2  501    0  0.51896142539E+02 -0.47673625665E+03 -0.13214175729E+03  0.49742548390E+03  0.00000000000E+00 0. -1.
         -1    1    1    2    0  503  0.43423646304E+01  0.57954973336E+02 -0.10781100234E+03  0.12247794614E+03  0.00000000000E+00 0.  1.
<mgrwt>
<rscale>  4 0.47340410E+03</rscale>
<asrwt>0</asrwt>
<pdfrwt beam="1">  1       21 0.45171790E-01 0.47340410E+03</pdfrwt>
<pdfrwt beam="2">  1       21 0.13819808E+00 0.47340410E+03</pdfrwt>
<totfact> 0.14704207E+03</totfact>
</mgrwt>
</event>
<event>
 5    0  0.1972558E-002  0.2800402E+03  0.7546771E-02  0.1095667E+00
         21   -1    0    0  501  502  0.00000000000E+00  0.00000000000E+00  0.12255109965E+03  0.12255109965E+03  0.00000000000E+00 0. -1.
         21   -1    0    0  502  503 -0.00000000000E+00 -0.00000000000E+00 -0.12121902014E+04  0.12121902014E+04  0.00000000000E+00 0. -1.
         25    1    1    2    0    0 -0.22721641516E+03  0.12808239646E+03 -0.48685117240E+03  0.56628743909E+03  0.12500000000E+03 0.  0.
          1    1    1    2  501    0  0.22010353878E+03 -0.10780370385E+03 -0.66176090049E+03  0.70568739238E+03  0.00000000000E+00 0. -1.
         -1    1    1    2    0  503  0.71128763806E+01 -0.20278692606E+02  0.58972971123E+02  0.62766469610E+02  0.00000000000E+00 0.  1.
<mgrwt>
<rscale>  4 0.28004023E+03</rscale>
<asrwt>0</asrwt>
<pdfrwt beam="1">  1       21 0.18854016E-01 0.28004023E+03</pdfrwt>
<pdfrwt beam="2">  1       21 0.18649080E+00 0.28004023E+03</pdfrwt>
<totfact> 0.39596708E+03</totfact>
</mgrwt>
</event>
<event>
 5    0  0.1972558E-002  0.4458966E+03  0.7546771E-02  0.1028995E+00
         21   -1    0    0  503  502  0.00000000000E+00  0.00000000000E+00  0.34924107252E+03  0.34924107252E+03  0.00000000000E+00 0. -1.
         21   -1    0    0  501  503 -0.00000000000E+00 -0.00000000000E+00 -0.14675140741E+04  0.14675140741E+04  0.00000000000E+00 0. -1.
         25    1    1    2    0    0  0.23442358469E+03  0.35741055192E+03 -0.12699484008E+04  0.13457676844E+04  0.12500000000E+03 0.  0.
          4    1    1    2  501    0 -0.16131116822E+03 -0.28942606315E+03  0.62631997029E+02  0.33721136706E+03  0.00000000000E+00 0. -1.
         -4    1    1    2    0  502 -0.73112416464E+02 -0.67984488772E+02  0.89043402212E+02  0.13377609515E+03  0.00000000000E+00 0.  1.
<mgrwt>
<rscale>  4 0.44575569E+03</rscale>
<asrwt>0</asrwt>
<pdfrwt beam="1">  1       21 0.53729396E-01 0.44589658E+03</pdfrwt>
<pdfrwt beam="2">  1       21 0.22577139E+00 0.44589658E+03</pdfrwt>
<totfact> 0.24546608E+02</totfact>
</mgrwt>
</event>
<event>
 5    0  0.1972558E-002  0.2983231E+03  0.7546771E-02  0.1086082E+00
         21   -1    0    0  501  502  0.00000000000E+00  0.00000000000E+00  0.48751519103E+03  0.48751519103E+03  0.00000000000E+00 0. -1.
         21   -1    0    0  502  503 -0.00000000000E+00 -0.00000000000E+00 -0.20529000872E+03  0.20529000872E+03  0.00000000000E+00 0. -1.
         25    1    1    2    0    0 -0.17457037619E+02  0.27486963838E+03  0.90421133162E+02  0.31568821262E+03  0.12500000000E+03 0.  0.
          1    1    1    2  501    0  0.36771584587E+02 -0.26432716202E+03  0.10370917855E+03  0.28631554574E+03  0.00000000000E+00 0. -1.
         -1    1    1    2    0  503 -0.19314546968E+02 -0.10542476351E+02  0.88094870601E+02  0.90801441390E+02  0.00000000000E+00 0.  1.
<mgrwt>
<rscale>  4 0.29832313E+03</rscale>
<asrwt>0</asrwt>
<pdfrwt beam="1">  1       21 0.75002337E-01 0.29832313E+03</pdfrwt>
<pdfrwt beam="2">  1       21 0.31583078E-01 0.29832313E+03</pdfrwt>
<totfact> 0.14485564E+04</totfact>
</mgrwt>
</event>
<event>
 5    0  0.1972558E-002  0.2351771E+03  0.7546771E-02  0.1123048E+00
         21   -1    0    0  503  502  0.00000000000E+00  0.00000000000E+00  0.17106222791E+04  0.17106222791E+04  0.00000000000E+00 0. -1.
         21   -1    0    0  501  503 -0.00000000000E+00 -0.00000000000E+00 -0.41295617277E+03  0.41295617277E+03  0.00000000000E+00 0. -1.
         25    1    1    2    0    0 -0.21520583296E+03  0.52163665318E+02 -0.30981473797E+03  0.40080515264E+03  0.12500000000E+03 0.  0.
          2    1    1    2  501    0  0.24739984786E+02  0.49324367817E+01 -0.48621774030E+02  0.54776570627E+02  0.00000000000E+00 0.  1.
         -2    1    1    2    0  502  0.19046584817E+03 -0.57096102100E+02  0.16561026183E+04  0.16679967286E+04  0.00000000000E+00 0. -1.
<mgrwt>
<rscale>  4 0.23517706E+03</rscale>
<asrwt>0</asrwt>
<pdfrwt beam="1">  1       21 0.26317265E+00 0.23517706E+03</pdfrwt>
<pdfrwt beam="2">  1       21 0.63531720E-01 0.23517706E+03</pdfrwt>
<totfact> 0.12015960E+02</totfact>
</mgrwt>
</event>
<event>
 5    0  0.1972558E-002  0.2473156E+03  0.7546771E-02  0.1115013E+00
         21   -1    0    0  501  502  0.00000000000E+00  0.00000000000E+00  0.13996187221E+03  0.13996187221E+03  0.00000000000E+00 0.  1.
         21   -1    0    0  502  503 -0.00000000000E+00 -0.00000000000E+00 -0.21137791900E+04  0.21137791900E+04  0.00000000000E+00 0. -1.
         25    1    1    2    0    0  0.13560819321E+03  0.16855724734E+03 -0.17534836430E+04  0.17711947984E+04  0.12500000000E+03 0.  0.
          1    1    1    2  501    0  0.84704338503E+02 -0.98928143775E+02  0.38285058864E+02  0.13574736949E+03  0.00000000000E+00 0.  1.
         -1    1    1    2    0  503 -0.22031253171E+03 -0.69629103562E+02 -0.25861873371E+03  0.34679889434E+03  0.00000000000E+00 0. -1.
<mgrwt>
<rscale>  4 0.24731561E+03</rscale>
<asrwt>0</asrwt>
<pdfrwt beam="1">  1       21 0.21532599E-01 0.24731561E+03</pdfrwt>
<pdfrwt beam="2">  1       21 0.32519676E+00 0.24731561E+03</pdfrwt>
<totfact> 0.45647659E+02</totfact>
</mgrwt>
</event>
<event>
 5    0  0.1972558E-002  0.3918798E+03  0.7546771E-02  0.1051785E+00
         21   -1    0    0  503  502  0.00000000000E+00  0.00000000000E+00  0.16249795415E+04  0.16249795415E+04  0.00000000000E+00 0.  1.
         21   -1    0    0  501  503 -0.00000000000E+00 -0.00000000000E+00 -0.84278696691E+03  0.84278696691E+03  0.00000000000E+00 0.  1.
         25    1    1    2    0    0  0.13577161152E+03  0.28338808862E+03 -0.63297792358E+03  0.71765506409E+03  0.12500000000E+03 0.  0.
          1    1    1    2  501    0 -0.42940411764E+03 -0.16609768643E+01  0.20982702931E+03  0.47793099640E+03  0.00000000000E+00 0. -1.
         -1    1    1    2    0  502  0.29363250612E+03 -0.28172711176E+03  0.12053434689E+04  0.12721804479E+04  0.00000000000E+00 0.  1.
<mgrwt>
<rscale>  4 0.37770485E+03</rscale>
<asrwt>0</asrwt>
<pdfrwt beam="1">  1       21 0.24999685E+00 0.39187976E+03</pdfrwt>
<pdfrwt beam="2">  1       21 0.12965953E+00 0.39187976E+03</pdfrwt>
<totfact> 0.22898817E+01</totfact>
</mgrwt>
</event>
<event>
 5    0  0.2269326E-002  0.1850216E+03  0.7546771E-02  0.1163030E+00
         21   -1    0    0  501  502  0.00000000000E+00  0.00000000000E+00  0.11197158057E+04  0.11197158057E+04  0.00000000000E+00 0. -1.
         21   -1    0    0  502  503 -0.00000000000E+00 -0.00000000000E+00 -0.12226738076E+03  0.12226738076E+03  0.00000000000E+00 0. -1.
         25    1    1    2    0    0 -0.11019534944E+03  0.18950215501E+03  0.85202430619E+02  0.26634289173E+03  0.12500000000E+03 0.  0.
          2    1    1    2  501    0  0.47883785214E+02 -0.12295541325E+03  0.86101268916E+03  0.87106471713E+03  0.00000000000E+00 0. -1.
         -2    1    1    2    0  503  0.62311564229E+02 -0.66546741760E+02  0.51233305164E+02  0.10457557762E+03  0.00000000000E+00 0.  1.
<mgrwt>
<rscale>  4 0.18502156E+03</rscale>
<asrwt>0</asrwt>
<pdfrwt beam="1">  1       21 0.17226396E+00 0.18502156E+03</pdfrwt>
<pdfrwt beam="2">  1       21 0.18810367E-01 0.18502156E+03</pdfrwt>
<totfact> 0.53594375E+03</totfact>
</mgrwt>
</event>
<event>
 5    0  0.1972558E-002  0.2645654E+03  0.7546771E-02  0.1104431E+00
         21   -1    0    0  501  502  0.00000000000E+00  0.00000000000E+00  0.74738992045E+03  0.74738992045E+03  0.00000000000E+00 0.  1.
         21   -1    0    0  502  503 -0.00000000000E+00 -0.00000000000E+00 -0.12098343547E+03  0.12098343547E+03  0.00000000000E+00 0.  1.
         25    1    1    2    0    0 -0.19712708611E+03  0.67840548327E+02  0.16919723270E+03  0.29616571650E+03  0.12500000000E+03 0.  0.
          4    1    1    2  501    0  0.26290388737E+03 -0.83786305856E+02  0.35512452623E+03  0.44972439135E+03  0.00000000000E+00 0.  1.
         -4    1    1    2    0  503 -0.65776801264E+02  0.15945757529E+02  0.10208472605E+03  0.12248324808E+03  0.00000000000E+00 0. -1.
<mgrwt>
<rscale>  4 0.26456537E+03</rscale>
<asrwt>0</asrwt>
<pdfrwt beam="1">  1       21 0.11498306E+00 0.26456537E+03</pdfrwt>
<pdfrwt beam="2">  1       21 0.18612837E-01 0.26456537E+03</pdfrwt>
<totfact> 0.14835053E+04</totfact>
</mgrwt>
</event>
<event>
 5    0  0.1972558E-002  0.2694323E+03  0.7546771E-02  0.1101605E+00
         21   -1    0    0  501  502  0.00000000000E+00  0.00000000000E+00  0.35526167790E+03  0.35526167790E+03  0.00000000000E+00 0.  1.
         21   -1    0    0  502  503 -0.00000000000E+00 -0.00000000000E+00 -0.29062197607E+03  0.29062197607E+03  0.00000000000E+00 0.  1.
         25    1    1    2    0    0 -0.23650447390E+03  0.91517192066E+02 -0.66508466890E+02  0.29044472587E+03  0.12500000000E+03 0.  0.
          1    1    1    2  501    0  0.32534450167E+02  0.39221337289E+00  0.12760710464E+03  0.13168985319E+03  0.00000000000E+00 0. -1.
         -1    1    1    2    0  503  0.20397002374E+03 -0.91909405439E+02  0.35410640843E+01  0.22374907492E+03  0.00000000000E+00 0.  1.
<mgrwt>
<rscale>  4 0.26943233E+03</rscale>
<asrwt>0</asrwt>
<pdfrwt beam="1">  1       21 0.54655643E-01 0.26943233E+03</pdfrwt>
<pdfrwt beam="2">  1       21 0.44711073E-01 0.26943233E+03</pdfrwt>
<totfact> 0.14541965E+04</totfact>
</mgrwt>
</event>
<event>
 5    0  0.1972558E-002  0.2532343E+03  0.7546771E-02  0.1111278E+00
         21   -1    0    0  501  502  0.00000000000E+00  0.00000000000E+00  0.67600299650E+03  0.67600299650E+03  0.00000000000E+00 0. -1.
         21   -1    0    0  502  503 -0.00000000000E+00 -0.00000000000E+00 -0.94026823971E+03  0.94026823971E+03  0.00000000000E+00 0. -1.
         25    1    1    2    0    0 -0.20630433819E+03  0.70815152676E+02 -0.86458316097E+03  0.90039175254E+03  0.12500000000E+03 0.  0.
          2    1    1    2  501    0 -0.55238101057E+02 -0.39589974670E+02  0.33571315288E+03  0.34252289693E+03  0.00000000000E+00 0.  1.
         -2    1    1    2    0  503  0.26154243924E+03 -0.31225178006E+02  0.26460476488E+03  0.37335658674E+03  0.00000000000E+00 0. -1.
<mgrwt>
<rscale>  4 0.25323431E+03</rscale>
<asrwt>0</asrwt>
<pdfrwt beam="1">  1       21 0.10400046E+00 0.25323431E+03</pdfrwt>
<pdfrwt beam="2">  1       21 0.14465665E+00 0.25323431E+03</pdfrwt>
<totfact> 0.22989477E+02</totfact>
</mgrwt>
</event>
<event>
 5    0  0.1972558E-002  0.2092654E+03  0.7546771E-02  0.1142149E+00
         21   -1    0    0  503  502  0.00000000000E+00  0.00000000000E+00  0.20878784188E+03  0.20878784188E+03  0.00000000000E+00 0.  1.
         21   -1    0    0  501  503 -0.00000000000E+00 -0.00000000000E+00 -0.53440061615E+03  0.53440061615E+03  0.00000000000E+00 0.  1.
         25    1    1    2    0    0 -0.18740117675E+02  0.23933663671E+03 -0.27494736247E+03  0.38581636799E+03  0.12500000000E+03 0.  0.
          1    1    1    2  501    0 -0.10103627387E+03 -0.12775630919E+03 -0.93971270340E+02  0.18804415127E+03  0.00000000000E+00 0. -1.
         -1    1    1    2    0  502  0.11977639155E+03 -0.11158032752E+03  0.43305858540E+02  0.16932793876E+03  0.00000000000E+00 0.  1.
<mgrwt>
<rscale>  4 0.20926540E+03</rscale>
<asrwt>0</asrwt>
<pdfrwt beam="1">  1       21 0.32121206E-01 0.20926540E+03</pdfrwt>
<pdfrwt beam="2">  1       21 0.82215480E-01 0.20926540E+03</pdfrwt>
<totfact> 0.11919812E+04</totfact>
</mgrwt>
</event>
<event>
 5    0  0.1972558E-002  0.3118065E+03  0.7546771E-02  0.1079483E+00
         21   -1    0    0  501  502  0.00000000000E+00  0.00000000000E+00  0.26642654383E+03  0.26642654383E+03  0.00000000000E+00 0.  1.
         21   -1    0    0  502  503 -0.00000000000E+00 -0.00000000000E+00 -0.72740712787E+03  0.72740712787E+03  0.00000000000E+00 0.  1.
         25    1    1    2    0    0  0.28015672886E+03 -0.66274230337E+02 -0.42605632036E+03  0.52917771538E+03  0.12500000000E+03 0.  0.
          4    1    1    2  501    0 -0.29361074177E+03 -0.60001957547E+02 -0.10751509998E+03  0.31838184514E+03  0.00000000000E+00 0.  1.
         -4    1    1    2    0  503  0.13454012910E+02  0.12627618788E+03  0.72590836293E+02  0.14627411119E+03  0.00000000000E+00 0. -1.
<mgrwt>
<rscale>  4 0.31180647E+03</rscale>
<asrwt>0</asrwt>
<pdfrwt beam="1">  1       21 0.40988700E-01 0.31180647E+03</pdfrwt>
<pdfrwt beam="2">  1       21 0.11190879E+00 0.31180647E+03</pdfrwt>
<totfact> 0.33138518E+03</totfact>
</mgrwt>
</event>
<event>
 5    0  0.1972558E-002  0.2782211E+03  0.7546771E-02  0.1096665E+00
         21   -1    0    0  501  502  0.00000000000E+00  0.00000000000E+00  0.91438601500E+03  0.91438601500E+03  0.00000000000E+00 0. -1.
         21   -1    0    0  502  503 -0.00000000000E+00 -0.00000000000E+00 -0.22168640455E+03  0.22168640455E+03  0.00000000000E+00 0.  1.
         25    1    1    2    0    0 -0.15668696650E+03  0.19295386932E+03 -0.10262693642E+03  0.29654559385E+03  0.12500000000E+03 0.  0.
          3    1    1    2  501    0  0.98082133283E+02 -0.14385017689E+03  0.67395624904E+03  0.69608189453E+03  0.00000000000E+00 0. -1.
         -3    1    1    2    0  503  0.58604833217E+02 -0.49103692422E+02  0.12137029782E+03  0.14344493117E+03  0.00000000000E+00 0.  1.
<mgrwt>
<rscale>  4 0.27822114E+03</rscale>
<asrwt>0</asrwt>
<pdfrwt beam="1">  1       21 0.14067477E+00 0.27822114E+03</pdfrwt>
<pdfrwt beam="2">  1       21 0.34105601E-01 0.27822114E+03</pdfrwt>
<totfact> 0.27420435E+03</totfact>
</mgrwt>
</event>
<event>
 5    0  0.1972558E-002  0.2491017E+03  0.7546771E-02  0.1113874E+00
         21   -1    0    0  501  502  0.00000000000E+00  0.00000000000E+00  0.13204348201E+04  0.13204348201E+04  0.00000000000E+00 0.  1.
         21   -1    0    0  502  503 -0.00000000000E+00 -0.00000000000E+00 -0.17942910308E+03  0.17942910308E+03  0.00000000000E+00 0. -1.
         25    1    1    2    0    0 -0.94716398849E+02 -0.19657001590E+03 -0.61856897991E+02  0.25896378741E+03  0.12500000000E+03 0.  0.
          1    1    1    2  501    0  0.10441483101E+03  0.17210982171E+03  0.52112763050E+03  0.55865754711E+03  0.00000000000E+00 0.  1.
         -1    1    1    2    0  503 -0.96984321633E+01  0.24460194186E+02  0.68173498453E+03  0.68224258869E+03  0.00000000000E+00 0. -1.
<mgrwt>
<rscale>  4 0.24910169E+03</rscale>
<asrwt>0</asrwt>
<pdfrwt beam="1">  1       21 0.20314381E+00 0.24910169E+03</pdfrwt>
<pdfrwt beam="2">  1       21 0.27604478E-01 0.24910169E+03</pdfrwt>
<totfact> 0.15205472E+03</totfact>
</mgrwt>
</event>
<event>
 5    0  0.1972558E-002  0.3436891E+03  0.7546771E-02  0.1065235E+00
         21   -1    0    0  501  502  0.00000000000E+00  0.00000000000E+00  0.11263223348E+03  0.11263223348E+03  0.00000000000E+00 0. -1.
         21   -1    0    0  502  503 -0.00000000000E+00 -0.00000000000E+00 -0.10389783604E+04  0.10389783604E+04  0.00000000000E+00 0.  1.
         25    1    1    2    0    0 -0.22615747905E+03  0.22660535490E+03 -0.54594183095E+03  0.64511601668E+03  0.12500000000E+03 0.  0.
          1    1    1    2  501    0  0.12600249463E+03 -0.18864405302E+03 -0.27042925933E+03  0.35298044095E+03  0.00000000000E+00 0.  1.
         -1    1    1    2    0  503  0.10015498441E+03 -0.37961301879E+02 -0.10997503660E+03  0.15351413622E+03  0.00000000000E+00 0. -1.
<mgrwt>
<rscale>  4 0.34368909E+03</rscale>
<asrwt>0</asrwt>
<pdfrwt beam="1">  1       21 0.17328035E-01 0.34368909E+03</pdfrwt>
<pdfrwt beam="2">  1       21 0.15984283E+00 0.34368909E+03</pdfrwt>
<totfact> 0.69287634E+03</totfact>
</mgrwt>
</event>
<event>
 5    0  0.1972558E-002  0.3635391E+03  0.7546771E-02  0.1057191E+00
         21   -1    0    0  501  502  0.00000000000E+00  0.00000000000E+00  0.14302029808E+03  0.14302029808E+03  0.00000000000E+00 0.  1.
         21   -1    0    0  502  503 -0.00000000000E+00 -0.00000000000E+00 -0.97723573010E+03  0.97723573010E+03  0.00000000000E+00 0. -1.
         25    1    1    2    0    0  0.31045825887E+03  0.14195538133E+03 -0.55932983714E+03  0.66709109386E+03  0.12500000000E+03 0.  0.
          4    1    1    2  501    0 -0.99022840975E+02 -0.55293214987E+02 -0.28119560084E+02  0.11684850156E+03  0.00000000000E+00 0. -1.
         -4    1    1    2    0  503 -0.21143541789E+03 -0.86662166346E+02 -0.24676603479E+03  0.33631643276E+03  0.00000000000E+00 0.  1.
<mgrwt>
<rscale>  4 0.36353908E+03</rscale>
<asrwt>0</asrwt>
<pdfrwt beam="1">  1       21 0.22003122E-01 0.36353908E+03</pdfrwt>
<pdfrwt beam="2">  1       21 0.15034397E+00 0.36353908E+03</pdfrwt>
<totfact> 0.51682637E+03</totfact>
</mgrwt>
</event>
<event>
 5    0  0.1972558E-002  0.2397377E+03  0.7546771E-02  0.1119968E+00
         21   -1    0    0  501  502  0.00000000000E+00  0.00000000000E+00  0.15182051208E+03  0.15182051208E+03  0.00000000000E+00 0. -1.
         21   -1    0    0  502  503 -0.00000000000E+00 -0.00000000000E+00 -0.82270808322E+03  0.82270808322E+03  0.00000000000E+00 0.  1.
         25    1    1    2    0    0 -0.13055749046E+03 -0.18515593210E+03 -0.35015013632E+03  0.43538270001E+03  0.12500000000E+03 0.  0.
          2    1    1    2  501    0  0.12861348311E+02  0.31781363266E+02  0.83933267388E+02  0.90665664426E+02  0.00000000000E+00 0. -1.
         -2    1    1    2    0  503  0.11769614215E+03  0.15337456883E+03 -0.40467070221E+03  0.44848023086E+03  0.00000000000E+00 0.  1.
<mgrwt>
<rscale>  4 0.23973772E+03</rscale>
<asrwt>0</asrwt>
<pdfrwt beam="1">  1       21 0.23357002E-01 0.23973772E+03</pdfrwt>
<pdfrwt beam="2">  1       21 0.12657047E+00 0.23973772E+03</pdfrwt>
<totfact> 0.77102765E+03</totfact>
</mgrwt>
</event>
<event>
 5    0  0.1972558E-002  0.3004329E+03  0.7546771E-02  0.1085024E+00
         21   -1    0    0  501  502  0.00000000000E+00  0.00000000000E+00  0.93493310430E+03  0.93493310430E+03  0.00000000000E+00 0.  1.
         21   -1    0    0  502  503 -0.00000000000E+00 -0.00000000000E+00 -0.33442180810E+03  0.33442180810E+03  0.00000000000E+00 0.  1.
         25    1    1    2    0    0  0.59466488940E+02 -0.27772127780E+03 -0.17418683166E+03  0.35585309297E+03  0.12500000000E+03 0.  0.
          3    1    1    2  501    0 -0.13775382752E+02  0.35111614203E+02  0.62216292949E+03  0.62330513992E+03  0.00000000000E+00 0.  1.
         -3    1    1    2    0  503 -0.45691106188E+02  0.24260966360E+03  0.15253519837E+03  0.29019667951E+03  0.00000000000E+00 0. -1.
<mgrwt>
<rscale>  4 0.30043293E+03</rscale>
<asrwt>0</asrwt>
<pdfrwt beam="1">  1       21 0.14383586E+00 0.30043293E+03</pdfrwt>
<pdfrwt beam="2">  1       21 0.51449509E-01 0.30043293E+03</pdfrwt>
<totfact> 0.10957158E+03</totfact>
</mgrwt>
</event>
<event>
 5    0  0.1972558E-002  0.2346007E+03  0.7546771E-02  0.1123443E+00
         21   -1    0    0  501  502  0.00000000000E+00  0.00000000000E+00  0.17385321823E+04  0.17385321823E+04  0.00000000000E+00 0.  1.
         21   -1    0    0  502  503 -0.00000000000E+00 -0.00000000000E+00 -0.95527020378E+02  0.95527020378E+02  0.00000000000E+00 0. -1.
         25    1    1    2    0    0  0.78982272233E+01 -0.19986007793E+03  0.74251515797E+02  0.24727458491E+03  0.12500000000E+03 0.  0.
          4    1    1    2  501    0  0.43651415054E+02  0.16042245170E+02  0.25072006820E+03  0.25499676913E+03  0.00000000000E+00 0. -1.
         -4    1    1    2    0  503 -0.51549642277E+02  0.18381783276E+03  0.13180335779E+04  0.13317878486E+04  0.00000000000E+00 0.  1.
<mgrwt>
<rscale>  4 0.23460071E+03</rscale>
<asrwt>0</asrwt>
<pdfrwt beam="1">  1       21 0.26746647E+00 0.23460071E+03</pdfrwt>
<pdfrwt beam="2">  1       21 0.14696466E-01 0.23460071E+03</pdfrwt>
<totfact> 0.20450149E+03</totfact>
</mgrwt>
</event>
<event>
 5    0  0.1972558E-002  0.4051919E+03  0.7546771E-02  0.1041997E+00
         21   -1    0    0  501  502  0.00000000000E+00  0.00000000000E+00  0.19568495611E+03  0.19568495611E+03  0.00000000000E+00 0.  1.
         21   -1    0    0  502  503 -0.00000000000E+00 -0.00000000000E+00 -0.11500339524E+04  0.11500339524E+04  0.00000000000E+00 0. -1.
         25    1    1    2    0    0  0.88859147047E+02  0.30614848120E+03 -0.20507819439E+03  0.39913018724E+03  0.12500000000E+03 0.  0.
          2    1    1    2  501    0  0.80420206326E+02  0.87105052644E+02 -0.54466608402E+02  0.13046574728E+03  0.00000000000E+00 0. -1.
         -2    1    1    2    0  503 -0.16927935337E+03 -0.39325353385E+03 -0.69480419355E+03  0.81612297403E+03  0.00000000000E+00 0.  1.
<mgrwt>
<rscale>  4 0.40519193E+03</rscale>
<asrwt>0</asrwt>
<pdfrwt beam="1">  1       21 0.30105378E-01 0.40519193E+03</pdfrwt>
<pdfrwt beam="2">  1       21 0.17692830E+00 0.40519193E+03</pdfrwt>
<totfact> 0.17489839E+03</totfact>
</mgrwt>
</event>
<event>
 5    0  0.1972558E-002  0.2781462E+03  0.7546771E-02  0.1096706E+00
         21   -1    0    0  501  502  0.00000000000E+00  0.00000000000E+00  0.18371698092E+03  0.18371698092E+03  0.00000000000E+00 0. -1.
         21   -1    0    0  502  503 -0.00000000000E+00 -0.00000000000E+00 -0.49658282651E+03  0.49658282651E+03  0.00000000000E+00 0. -1.
         25    1    1    2    0    0  0.16984317992E+03  0.17844201411E+03 -0.83718531722E+02  0.28865559188E+03  0.12500000000E+03 0.  0.
          4    1    1    2  501    0 -0.18627352252E+03 -0.16643747988E+03 -0.25617975071E+03  0.35780906161E+03  0.00000000000E+00 0. -1.
         -4    1    1    2    0  503  0.16430342601E+02 -0.12004534236E+02  0.27032436837E+02  0.33835153931E+02  0.00000000000E+00 0.  1.
<mgrwt>
<rscale>  4 0.27814616E+03</rscale>
<asrwt>0</asrwt>
<pdfrwt beam="1">  1       21 0.28264151E-01 0.27814616E+03</pdfrwt>
<pdfrwt beam="2">  1       21 0.76397357E-01 0.27814616E+03</pdfrwt>
<totfact> 0.17437972E+04</totfact>
</mgrwt>
</event>
<event>
 5    0  0.1972558E-002  0.4641232E+03  0.7546771E-02  0.1024293E+00
         21   -1    0    0  501  502  0.00000000000E+00  0.00000000000E+00  0.64141542624E+03  0.64141542624E+03  0.00000000000E+00 0.  1.
         21   -1    0    0  502  503 -0.00000000000E+00 -0.00000000000E+00 -0.67709494233E+03  0.67709494233E+03  0.00000000000E+00 0. -1.
         25    1    1    2    0    0 -0.40423751021E+03 -0.16583109839E+03 -0.49050912359E+03  0.66867938370E+03  0.12500000000E+03 0.  0.
          1    1    1    2  501    0  0.15327081977E+03  0.18701662757E+02  0.25072942973E+03  0.29446042742E+03  0.00000000000E+00 0. -1.
         -1    1    1    2    0  503  0.25096669044E+03  0.14712943564E+03  0.20410017777E+03  0.35537055746E+03  0.00000000000E+00 0.  1.
<mgrwt>
<rscale>  4 0.46168803E+03</rscale>
<asrwt>0</asrwt>
<pdfrwt beam="1">  1       21 0.98679296E-01 0.46412319E+03</pdfrwt>
<pdfrwt beam="2">  1       21 0.10416845E+00 0.46412319E+03</pdfrwt>
<totfact> 0.52529947E+02</totfact>
</mgrwt>
</event>
<event>
 5    0  0.1972558E-002  0.3343943E+03  0.7546771E-02  0.1069209E+00
         21   -1    0    0  501  502  0.00000000000E+00  0.00000000000E+00  0.46960925485E+03  0.46960925485E+03  0.00000000000E+00 0. -1.
         21   -1    0    0  502  503 -0.00000000000E+00 -0.00000000000E+00 -0.41229874760E+03  0.41229874760E+03  0.00000000000E+00 0.  1.
         25    1    1    2    0    0  0.83963142886E+02 -0.30091414312E+03 -0.16684986377E+03  0.37558355653E+03  0.12500000000E+03 0.  0.
          4    1    1    2  501    0  0.17654354214E+02  0.11287667543E+02  0.19708600330E+03  0.19819682227E+03  0.00000000000E+00 0.  1.
         -4    1    1    2    0  503 -0.10161749710E+03  0.28962647558E+03  0.27074367723E+02  0.30812762366E+03  0.00000000000E+00 0. -1.
<mgrwt>
<rscale>  4 0.33439434E+03</rscale>
<asrwt>0</asrwt>
<pdfrwt beam="1">  1       21 0.72247578E-01 0.33439434E+03</pdfrwt>
<pdfrwt beam="2">  1       21 0.63430576E-01 0.33439434E+03</pdfrwt>
<totfact> 0.36343356E+03</totfact>
</mgrwt>
</event>
<event>
 5    0  0.1972558E-002  0.2445566E+03  0.7546771E-02  0.1116794E+00
         21   -1    0    0  501  502  0.00000000000E+00  0.00000000000E+00  0.98046629730E+02  0.98046629730E+02  0.00000000000E+00 0.  1.
         21   -1    0    0  502  503 -0.00000000000E+00 -0.00000000000E+00 -0.78804479156E+03  0.78804479156E+03  0.00000000000E+00 0. -1.
         25    1    1    2    0    0 -0.20307714681E+03  0.38475884630E+02 -0.23184197238E+03  0.33480803666E+03  0.12500000000E+03 0.  0.
          4    1    1    2  501    0 -0.13385631378E+02 -0.53722912181E+02 -0.22936171262E+03  0.23594940483E+03  0.00000000000E+00 0. -1.
         -4    1    1    2    0  503  0.21646277819E+03  0.15247027552E+02 -0.22879447683E+03  0.31533397980E+03  0.00000000000E+00 0.  1.
<mgrwt>
<rscale>  4 0.24455659E+03</rscale>
<asrwt>0</asrwt>
<pdfrwt beam="1">  1       21 0.15084097E-01 0.24455659E+03</pdfrwt>
<pdfrwt beam="2">  1       21 0.12123766E+00 0.24455659E+03</pdfrwt>
<totfact> 0.19387104E+04</totfact>
</mgrwt>
</event>
<event>
 5    0  0.1972558E-002  0.2715962E+03  0.7546771E-02  0.1100370E+00
         21   -1    0    0  501  502  0.00000000000E+00  0.00000000000E+00  0.48365487801E+03  0.48365487801E+03  0.00000000000E+00 0.  1.
         21   -1    0    0  502  503 -0.00000000000E+00 -0.00000000000E+00 -0.33541008433E+03  0.33541008433E+03  0.00000000000E+00 0. -1.
         25    1    1    2    0    0  0.18306738092E+03 -0.15662242829E+03 -0.16940518329E+03  0.31994900707E+03  0.12500000000E+03 0.  0.
          4    1    1    2  501    0 -0.18031985744E+02 -0.21260314355E+02  0.24392559304E+03  0.24551343837E+03  0.00000000000E+00 0.  1.
         -4    1    1    2    0  503 -0.16503539518E+03  0.17788274265E+03  0.73724383924E+02  0.25360251690E+03  0.00000000000E+00 0. -1.
<mgrwt>
<rscale>  4 0.27159622E+03</rscale>
<asrwt>0</asrwt>
<pdfrwt beam="1">  1       21 0.74408443E-01 0.27159622E+03</pdfrwt>
<pdfrwt beam="2">  1       21 0.51601551E-01 0.27159622E+03</pdfrwt>
<totfact> 0.54792541E+03</totfact>
</mgrwt>
</event>
<event>
 5    0  0.1972558E-002  0.2921332E+03  0.7546771E-02  0.1089241E+00
         21   -1    0    0  501  502  0.00000000000E+00  0.00000000000E+00  0.10312082137E+04  0.10312082137E+04  0.00000000000E+00 0. -1.
         21   -1    0    0  502  503 -0.00000000000E+00 -0.00000000000E+00 -0.19036112237E+03  0.19036112237E+03  0.00000000000E+00 0.  1.
         25    1    1    2    0    0  0.26021057666E+03 -0.13118014987E+03  0.39076482322E+02  0.31948356357E+03  0.12500000000E+03 0.  0.
          1    1    1    2  501    0 -0.21713693338E+03  0.61413317683E+02  0.22201427547E+03  0.31656023430E+03  0.00000000000E+00 0.  1.
         -1    1    1    2    0  503 -0.43073643278E+02  0.69766832182E+02  0.57975633358E+03  0.58552553825E+03  0.00000000000E+00 0. -1.
<mgrwt>
<rscale>  4 0.29213318E+03</rscale>
<asrwt>0</asrwt>
<pdfrwt beam="1">  1       21 0.15864741E+00 0.29213318E+03</pdfrwt>
<pdfrwt beam="2">  1       21 0.29286327E-01 0.29213318E+03</pdfrwt>
<totfact> 0.26651840E+03</totfact>
</mgrwt>
</event>
<event>
 5    0  0.1972558E-002  0.2743459E+03  0.7546771E-02  0.1098818E+00
         21   -1    0    0  501  502  0.00000000000E+00  0.00000000000E+00  0.46714107508E+03  0.46714107508E+03  0.00000000000E+00 0. -1.
         21   -1    0    0  502  503 -0.00000000000E+00 -0.00000000000E+00 -0.64971732550E+03  0.64971732550E+03  0.00000000000E+00 0. -1.
         25    1    1    2    0    0  0.16782552754E+01 -0.25031036938E+03 -0.45877507972E+03  0.53736176951E+03  0.12500000000E+03 0.  0.
          4    1    1    2  501    0 -0.26016224407E+02  0.22989787239E+03 -0.62223840220E+02  0.23958648115E+03  0.00000000000E+00 0.  1.
         -4    1    1    2    0  503  0.24337969132E+02  0.20412496996E+02  0.33842266951E+03  0.33991014992E+03  0.00000000000E+00 0. -1.
<mgrwt>
<rscale>  4 0.27434592E+03</rscale>
<asrwt>0</asrwt>
<pdfrwt beam="1">  1       21 0.71867857E-01 0.27434592E+03</pdfrwt>
<pdfrwt beam="2">  1       21 0.99956512E-01 0.27434592E+03</pdfrwt>
<totfact> 0.13437270E+03</totfact>
</mgrwt>
</event>
<event>
 5    0  0.1972558E-002  0.2310811E+03  0.7546771E-02  0.1125881E+00
         21   -1    0    0  501  502  0.00000000000E+00  0.00000000000E+00  0.49976600775E+02  0.49976600775E+02  0.00000000000E+00 0.  1.
         21   -1    0    0  502  503 -0.00000000000E+00 -0.00000000000E+00 -0.18997431648E+04  0.18997431648E+04  0.00000000000E+00 0.  1.
         25    1    1    2    0    0 -0.11896853517E+03  0.16351097797E+03 -0.12705915314E+04  0.12926396218E+04  0.12500000000E+03 0.  0.
          3    1    1    2  501    0  0.14005198382E+03 -0.12332814559E+03 -0.58242015765E+03  0.61158615886E+03  0.00000000000E+00 0.  1.
         -3    1    1    2    0  503 -0.21083448657E+02 -0.40182832372E+02  0.32451250170E+01  0.45493984889E+02  0.00000000000E+00 0. -1.
<mgrwt>
<rscale>  4 0.23108113E+03</rscale>
<asrwt>0</asrwt>
<pdfrwt beam="1">  1       21 0.76887074E-02 0.23108113E+03</pdfrwt>
<pdfrwt beam="2">  1       21 0.29226820E+00 0.23108113E+03</pdfrwt>
<totfact> 0.46675042E+03</totfact>
</mgrwt>
</event>
<event>
 5    0  0.2035340E-002  0.3063038E+03  0.7546771E-02  0.1082131E+00
         21   -1    0    0  503  502  0.00000000000E+00  0.00000000000E+00  0.12433410870E+04  0.12433410870E+04  0.00000000000E+00 0. -1.
         21   -1    0    0  501  503 -0.00000000000E+00 -0.00000000000E+00 -0.21884852659E+03  0.21884852659E+03  0.00000000000E+00 0.  1.
         25    1    1    2    0    0 -0.18550980877E+03 -0.18115505269E+03 -0.13726264483E+02  0.28817434411E+03  0.12500000000E+03 0.  0.
          3    1    1    2  501    0  0.20618039381E+02 -0.48262383904E+02 -0.35753069864E+02  0.63503096403E+02  0.00000000000E+00 0.  1.
         -3    1    1    2    0  502  0.16489176939E+03  0.22941743659E+03  0.10739718948E+04  0.11105121731E+04  0.00000000000E+00 0. -1.
<mgrwt>
<rscale>  4 0.30630380E+03</rscale>
<asrwt>0</asrwt>
<pdfrwt beam="1">  1       21 0.19128324E+00 0.30630380E+03</pdfrwt>
<pdfrwt beam="2">  1       21 0.33669005E-01 0.30630380E+03</pdfrwt>
<totfact> 0.11786150E+03</totfact>
</mgrwt>
</event>
<event>
 5    0  0.1972558E-002  0.3147060E+03  0.7546771E-02  0.1078112E+00
         21   -1    0    0  501  502  0.00000000000E+00  0.00000000000E+00  0.41791360555E+03  0.41791360555E+03  0.00000000000E+00 0. -1.
         21   -1    0    0  502  503 -0.00000000000E+00 -0.00000000000E+00 -0.42856215523E+03  0.42856215523E+03  0.00000000000E+00 0.  1.
         25    1    1    2    0    0 -0.19318120786E+03 -0.22172836349E+03 -0.24439853023E+03  0.40229104865E+03  0.12500000000E+03 0.  0.
          1    1    1    2  501    0  0.23943157966E+02  0.25566575953E+01  0.15421184774E+03  0.15608044494E+03  0.00000000000E+00 0.  1.
         -1    1    1    2    0  503  0.16923804990E+03  0.21917170589E+03  0.79538132819E+02  0.28810426719E+03  0.00000000000E+00 0. -1.
<mgrwt>
<rscale>  4 0.31470597E+03</rscale>
<asrwt>0</asrwt>
<pdfrwt beam="1">  1       21 0.64294401E-01 0.31470597E+03</pdfrwt>
<pdfrwt beam="2">  1       21 0.65932640E-01 0.31470597E+03</pdfrwt>
<totfact> 0.43671889E+03</totfact>
</mgrwt>
</event>
<event>
 5    0  0.1972558E-002  0.3238202E+03  0.7546771E-02  0.1073904E+00
         21   -1    0    0  501  502  0.00000000000E+00  0.00000000000E+00  0.55116212625E+03  0.55116212625E+03  0.00000000000E+00 0. -1.
         21   -1    0    0  502  503 -0.00000000000E+00 -0.00000000000E+00 -0.55208757429E+03  0.55208757429E+03  0.00000000000E+00 0.  1.
         25    1    1    2    0    0  0.27168350772E+03 -0.12977789698E+03 -0.44332207025E+03  0.55028509782E+03  0.12500000000E+03 0.  0.
          2    1    1    2  501    0 -0.27113563835E+03  0.81016372012E+02  0.37732402187E+03  0.47164775457E+03  0.00000000000E+00 0. -1.
         -2    1    1    2    0  503 -0.54786936873E+00  0.48761524967E+02  0.65072600337E+02  0.81316848147E+02  0.00000000000E+00 0.  1.
<mgrwt>
<rscale>  4 0.32382021E+03</rscale>
<asrwt>0</asrwt>
<pdfrwt beam="1">  1       21 0.84794173E-01 0.32382021E+03</pdfrwt>
<pdfrwt beam="2">  1       21 0.84936550E-01 0.32382021E+03</pdfrwt>
<totfact> 0.13122021E+03</totfact>
</mgrwt>
</event>
<event>
 5    0  0.1972558E-002  0.2450150E+03  0.7546771E-02  0.1116496E+00
         21   -1    0    0  501  502  0.00000000000E+00  0.00000000000E+00  0.68406905854E+03  0.68406905854E+03  0.00000000000E+00 0. -1.
         21   -1    0    0  502  503 -0.00000000000E+00 -0.00000000000E+00 -0.16096233623E+03  0.16096233623E+03  0.00000000000E+00 0.  1.
         25    1    1    2    0    0 -0.18895791873E+03 -0.12528563201E+03  0.25767201577E+02  0.26017404428E+03  0.12500000000E+03 0.  0.
          3    1    1    2  501    0  0.53834099768E+02 -0.66466362679E+01  0.32402025374E+03  0.32852916599E+03  0.00000000000E+00 0. -1.
         -3    1    1    2    0  503  0.13512381896E+03  0.13193226828E+03  0.17331926699E+03  0.25632818451E+03  0.00000000000E+00 0.  1.
<mgrwt>
<rscale>  4 0.24501498E+03</rscale>
<asrwt>0</asrwt>
<pdfrwt beam="1">  1       21 0.10524139E+00 0.24501498E+03</pdfrwt>
<pdfrwt beam="2">  1       21 0.24763437E-01 0.24501498E+03</pdfrwt>
<totfact> 0.10837691E+04</totfact>
</mgrwt>
</event>
<event>
 5    0  0.1972558E-002  0.2607669E+03  0.7546771E-02  0.1106683E+00
         21   -1    0    0  501  502  0.00000000000E+00  0.00000000000E+00  0.30736361527E+03  0.30736361527E+03  0.00000000000E+00 0. -1.
         21   -1    0    0  502  503 -0.00000000000E+00 -0.00000000000E+00 -0.58341041995E+03  0.58341041995E+03  0.00000000000E+00 0. -1.
         25    1    1    2    0    0  0.11291944771E+03 -0.20402345952E+03 -0.44931830888E+03  0.52142910966E+03  0.12500000000E+03 0.  0.
          3    1    1    2  501    0 -0.84273385236E+02 -0.17660680708E+02  0.10465437665E+03  0.13552284551E+03  0.00000000000E+00 0. -1.
         -3    1    1    2    0  503 -0.28646062471E+02  0.22168414023E+03  0.68617127560E+02  0.23382208005E+03  0.00000000000E+00 0.  1.
<mgrwt>
<rscale>  4 0.26076694E+03</rscale>
<asrwt>0</asrwt>
<pdfrwt beam="1">  1       21 0.47286710E-01 0.26076694E+03</pdfrwt>
<pdfrwt beam="2">  1       21 0.89755450E-01 0.26076694E+03</pdfrwt>
<totfact> 0.43104389E+03</totfact>
</mgrwt>
</event>
<event>
 5    0  0.1972558E-002  0.2554194E+03  0.7546771E-02  0.1109927E+00
         21   -1    0    0  501  502  0.00000000000E+00  0.00000000000E+00  0.15389384212E+03  0.15389384212E+03  0.00000000000E+00 0. -1.
         21   -1    0    0  502  503 -0.00000000000E+00 -0.00000000000E+00 -0.66458963151E+03  0.66458963151E+03  0.00000000000E+00 0. -1.
         25    1    1    2    0    0  0.20184092458E+03  0.27706767915E+02 -0.21253190440E+03  0.31984720448E+03  0.12500000000E+03 0.  0.
          2    1    1    2  501    0  0.30320238893E+02  0.98790244868E+01  0.61284414295E+02  0.69084668681E+02  0.00000000000E+00 0.  1.
         -2    1    1    2    0  503 -0.23216116347E+03 -0.37585792401E+02 -0.35944829927E+03  0.42955160047E+03  0.00000000000E+00 0. -1.
<mgrwt>
<rscale>  4 0.25541938E+03</rscale>
<asrwt>0</asrwt>
<pdfrwt beam="1">  1       21 0.23675976E-01 0.25541938E+03</pdfrwt>
<pdfrwt beam="2">  1       21 0.10224456E+00 0.25541938E+03</pdfrwt>
<totfact> 0.12592179E+04</totfact>
</mgrwt>
</event>
<event>
 5    0  0.1972558E-002  0.3211024E+03  0.7546771E-02  0.1075143E+00
         21   -1    0    0  503  502  0.00000000000E+00  0.00000000000E+00  0.74001188260E+02  0.74001188260E+02  0.00000000000E+00 0. -1.
         21   -1    0    0  501  503 -0.00000000000E+00 -0.00000000000E+00 -0.24054331625E+04  0.24054331625E+04  0.00000000000E+00 0. -1.
         25    1    1    2    0    0 -0.26184002568E+03 -0.13999545803E+03 -0.19691220540E+04  0.19953008773E+04  0.12500000000E+03 0.  0.
          1    1    1    2  501    0 -0.78796400223E+01  0.27970536606E+02 -0.32833341388E+02  0.43845957073E+02  0.00000000000E+00 0.  1.
         -1    1    1    2    0  502  0.26971966570E+03  0.11202492142E+03 -0.32947657882E+03  0.44028751638E+03  0.00000000000E+00 0. -1.
<mgrwt>
<rscale>  4 0.32110235E+03</rscale>
<asrwt>0</asrwt>
<pdfrwt beam="1">  1       21 0.11384801E-01 0.32110235E+03</pdfrwt>
<pdfrwt beam="2">  1       21 0.37006654E+00 0.32110235E+03</pdfrwt>
<totfact> 0.73798454E+02</totfact>
</mgrwt>
</event>
<event>
 5    0  0.1972558E-002  0.2883921E+03  0.7546771E-02  0.1091192E+00
         21   -1    0    0  501  502  0.00000000000E+00  0.00000000000E+00  0.19089839647E+04  0.19089839647E+04  0.00000000000E+00 0. -1.
         21   -1    0    0  502  503 -0.00000000000E+00 -0.00000000000E+00 -0.11583045531E+03  0.11583045531E+03  0.00000000000E+00 0. -1.
         25    1    1    2    0    0  0.26070110757E+03  0.58389706941E+02  0.12107019545E+03  0.31883760379E+03  0.12500000000E+03 0.  0.
          4    1    1    2  501    0 -0.21608759866E+03  0.80972655201E+01  0.15077287959E+04  0.15231564391E+04  0.00000000000E+00 0. -1.
         -4    1    1    2    0  503 -0.44613508919E+02 -0.66486972461E+02  0.16435451807E+03  0.18282037714E+03  0.00000000000E+00 0.  1.
<mgrwt>
<rscale>  4 0.28839212E+03</rscale>
<asrwt>0</asrwt>
<pdfrwt beam="1">  1       21 0.29368982E+00 0.28839212E+03</pdfrwt>
<pdfrwt beam="2">  1       21 0.17820071E-01 0.28839212E+03</pdfrwt>
<totfact> 0.95651265E+02</totfact>
</mgrwt>
</event>
<event>
 5    0  0.1972558E-002  0.2436087E+03  0.7546771E-02  0.1117412E+00
         21   -1    0    0  501  502  0.00000000000E+00  0.00000000000E+00  0.13685883350E+04  0.13685883350E+04  0.00000000000E+00 0. -1.
         21   -1    0    0  502  503 -0.00000000000E+00 -0.00000000000E+00 -0.24758503358E+03  0.24758503358E+03  0.00000000000E+00 0.  1.
         25    1    1    2    0    0  0.42050745677E+02 -0.20473757713E+03 -0.16369259082E+03  0.29343824732E+03  0.12500000000E+03 0.  0.
          1    1    1    2  501    0 -0.18659688576E+02  0.21025491531E+03  0.57314700038E+03  0.61078048220E+03  0.00000000000E+00 0.  1.
         -1    1    1    2    0  503 -0.23391057101E+02 -0.55173381750E+01  0.71154889183E+03  0.71195463903E+03  0.00000000000E+00 0. -1.
<mgrwt>
<rscale>  4 0.24360873E+03</rscale>
<asrwt>0</asrwt>
<pdfrwt beam="1">  1       21 0.21055205E+00 0.24360873E+03</pdfrwt>
<pdfrwt beam="2">  1       21 0.38090006E-01 0.24360873E+03</pdfrwt>
<totfact> 0.72461312E+02</totfact>
</mgrwt>
</event>
<event>
 5    0  0.1972558E-002  0.3262691E+03  0.7546771E-02  0.1072800E+00
         21   -1    0    0  503  502  0.00000000000E+00  0.00000000000E+00  0.99910453035E+03  0.99910453035E+03  0.00000000000E+00 0.  1.
         21   -1    0    0  501  503 -0.00000000000E+00 -0.00000000000E+00 -0.39469993453E+03  0.39469993453E+03  0.00000000000E+00 0.  1.
         25    1    1    2    0    0  0.24640115930E+03  0.18535885206E+03 -0.26844234725E+03  0.42750172999E+03  0.12500000000E+03 0.  0.
          3    1    1    2  501    0 -0.28013003065E+02 -0.31077247767E+02  0.52935743627E+03  0.53100830408E+03  0.00000000000E+00 0. -1.
         -3    1    1    2    0  502 -0.21838815624E+03 -0.15428160429E+03  0.34348950680E+03  0.43529443080E+03  0.00000000000E+00 0.  1.
<mgrwt>
<rscale>  4 0.32626907E+03</rscale>
<asrwt>0</asrwt>
<pdfrwt beam="1">  1       21 0.15370839E+00 0.32626907E+03</pdfrwt>
<pdfrwt beam="2">  1       21 0.60723067E-01 0.32626907E+03</pdfrwt>
<totfact> 0.63198514E+02</totfact>
</mgrwt>
</event>
<event>
 5    0  0.1972558E-002  0.3669587E+03  0.7546771E-02  0.1055862E+00
         21   -1    0    0  501  502  0.00000000000E+00  0.00000000000E+00  0.29456374865E+03  0.29456374865E+03  0.00000000000E+00 0. -1.
         21   -1    0    0  502  503 -0.00000000000E+00 -0.00000000000E+00 -0.14174039702E+04  0.14174039702E+04  0.00000000000E+00 0. -1.
         25    1    1    2    0    0 -0.41775278066E+03  0.23994651028E+02 -0.10819976006E+04  0.11668062979E+04  0.12500000000E+03 0.  0.
          4    1    1    2  501    0  0.23486690312E+03 -0.68017706092E+02 -0.18627578541E+03  0.30738825409E+03  0.00000000000E+00 0. -1.
         -4    1    1    2    0  503  0.18288587755E+03  0.44023055064E+02  0.14543316444E+03  0.23777316691E+03  0.00000000000E+00 0.  1.
<mgrwt>
<rscale>  4 0.36695868E+03</rscale>
<asrwt>0</asrwt>
<pdfrwt beam="1">  1       21 0.45317500E-01 0.36695868E+03</pdfrwt>
<pdfrwt beam="2">  1       21 0.21806215E+00 0.36695868E+03</pdfrwt>
<totfact> 0.41299259E+02</totfact>
</mgrwt>
</event>
<event>
 5    0  0.1972558E-002  0.2749098E+03  0.7546771E-02  0.1098502E+00
         21   -1    0    0  501  502  0.00000000000E+00  0.00000000000E+00  0.21003823095E+03  0.21003823095E+03  0.00000000000E+00 0. -1.
         21   -1    0    0  502  503 -0.00000000000E+00 -0.00000000000E+00 -0.74741551638E+03  0.74741551638E+03  0.00000000000E+00 0. -1.
         25    1    1    2    0    0 -0.10105704462E+03  0.22809541445E+03 -0.61162732255E+03  0.67227451688E+03  0.12500000000E+03 0.  0.
          3    1    1    2  501    0  0.17681121287E+02 -0.18060364032E+02  0.52362592301E+02  0.58143270216E+02  0.00000000000E+00 0.  1.
         -3    1    1    2    0  503  0.83375923334E+02 -0.21003505042E+03  0.21887444816E+02  0.22703596023E+03  0.00000000000E+00 0. -1.
<mgrwt>
<rscale>  4 0.27490978E+03</rscale>
<asrwt>0</asrwt>
<pdfrwt beam="1">  1       21 0.32313575E-01 0.27490978E+03</pdfrwt>
<pdfrwt beam="2">  1       21 0.11498700E+00 0.27490978E+03</pdfrwt>
<totfact> 0.51076413E+03</totfact>
</mgrwt>
</event>
<event>
 5    0  0.1972558E-002  0.1971106E+03  0.7546771E-02  0.1152200E+00
         21   -1    0    0  501  502  0.00000000000E+00  0.00000000000E+00  0.83901860581E+03  0.83901860581E+03  0.00000000000E+00 0.  1.
         21   -1    0    0  502  503 -0.00000000000E+00 -0.00000000000E+00 -0.28524744870E+03  0.28524744870E+03  0.00000000000E+00 0.  1.
         25    1    1    2    0    0  0.13656316385E+03  0.17878397392E+03 -0.16332190665E+03  0.30481511158E+03  0.12500000000E+03 0.  0.
          1    1    1    2  501    0 -0.43314103498E+02 -0.14403573191E+03  0.70304194159E+03  0.71895088515E+03  0.00000000000E+00 0.  1.
         -1    1    1    2    0  503 -0.93249060356E+02 -0.34748242012E+02  0.14051122166E+02  0.10050005778E+03  0.00000000000E+00 0. -1.
<mgrwt>
<rscale>  4 0.19711061E+03</rscale>
<asrwt>0</asrwt>
<pdfrwt beam="1">  1       21 0.12907978E+00 0.19711061E+03</pdfrwt>
<pdfrwt beam="2">  1       21 0.43884223E-01 0.19711061E+03</pdfrwt>
<totfact> 0.21864753E+03</totfact>
</mgrwt>
</event>
<event>
 5    0  0.1972558E-002  0.3255576E+03  0.7546771E-02  0.1073120E+00
         21   -1    0    0  503  502  0.00000000000E+00  0.00000000000E+00  0.28405643388E+03  0.28405643388E+03  0.00000000000E+00 0. -1.
         21   -1    0    0  501  503 -0.00000000000E+00 -0.00000000000E+00 -0.15857593280E+04  0.15857593280E+04  0.00000000000E+00 0.  1.
         25    1    1    2    0    0 -0.29842249619E+03 -0.46349318329E+02 -0.14503237459E+04  0.14866970819E+04  0.12500000000E+03 0.  0.
          1    1    1    2  501    0  0.10771279027E+02  0.31708471664E+02  0.80444192292E+02  0.87136190533E+02  0.00000000000E+00 0.  1.
         -1    1    1    2    0  502  0.28765121717E+03  0.14640846665E+02  0.68176659500E+02  0.29598248939E+03  0.00000000000E+00 0. -1.
<mgrwt>
<rscale>  4 0.32555760E+03</rscale>
<asrwt>0</asrwt>
<pdfrwt beam="1">  1       21 0.43700990E-01 0.32555760E+03</pdfrwt>
<pdfrwt beam="2">  1       21 0.24396297E+00 0.32555760E+03</pdfrwt>
<totfact> 0.31669026E+02</totfact>
</mgrwt>
</event>
<event>
 5    0  0.1972558E-002  0.2588366E+03  0.7546771E-02  0.1107844E+00
         21   -1    0    0  501  502  0.00000000000E+00  0.00000000000E+00  0.13706462683E+04  0.13706462683E+04  0.00000000000E+00 0.  1.
         21   -1    0    0  502  503 -0.00000000000E+00 -0.00000000000E+00 -0.60566892202E+03  0.60566892202E+03  0.00000000000E+00 0.  1.
         25    1    1    2    0    0  0.25213392301E+02  0.23142411825E+03 -0.47867896001E+03  0.54676446887E+03  0.12500000000E+03 0.  0.
          3    1    1    2  501    0  0.50658690452E+02 -0.34963145937E+02  0.12155192925E+04  0.12170767745E+04  0.00000000000E+00 0.  1.
         -3    1    1    2    0  503 -0.75872082753E+02 -0.19646097231E+03  0.28137013735E+02  0.21247394693E+03  0.00000000000E+00 0. -1.
<mgrwt>
<rscale>  4 0.25883655E+03</rscale>
<asrwt>0</asrwt>
<pdfrwt beam="1">  1       21 0.21086866E+00 0.25883655E+03</pdfrwt>
<pdfrwt beam="2">  1       21 0.93179834E-01 0.25883655E+03</pdfrwt>
<totfact> 0.10220256E+02</totfact>
</mgrwt>
</event>
<event>
 5    0  0.1972558E-002  0.3829499E+03  0.7546771E-02  0.1049849E+00
         21   -1    0    0  501  502  0.00000000000E+00  0.00000000000E+00  0.34276211150E+03  0.34276211150E+03  0.00000000000E+00 0. -1.
         21   -1    0    0  502  503 -0.00000000000E+00 -0.00000000000E+00 -0.62444016718E+03  0.62444016718E+03  0.00000000000E+00 0. -1.
         25    1    1    2    0    0  0.19630957845E+03  0.31004201156E+03 -0.33248069921E+03  0.51071705951E+03  0.12500000000E+03 0.  0.
          1    1    1    2  501    0  0.19898587637E+02 -0.29550657603E+02  0.93229152149E+02  0.99804158056E+02  0.00000000000E+00 0.  1.
         -1    1    1    2    0  503 -0.21620816609E+03 -0.28049135396E+03 -0.42426508610E+02  0.35668106112E+03  0.00000000000E+00 0. -1.
<mgrwt>
<rscale>  4 0.38294987E+03</rscale>
<asrwt>0</asrwt>
<pdfrwt beam="1">  1       21 0.52732633E-01 0.38294987E+03</pdfrwt>
<pdfrwt beam="2">  1       21 0.96067717E-01 0.38294987E+03</pdfrwt>
<totfact> 0.27408974E+03</totfact>
</mgrwt>
</event>
<event>
 5    0  0.1972558E-002  0.2501904E+03  0.7546771E-02  0.1113185E+00
         21   -1    0    0  501  502  0.00000000000E+00  0.00000000000E+00  0.16240137673E+04  0.16240137673E+04  0.00000000000E+00 0.  1.
         21   -1    0    0  502  503 -0.00000000000E+00 -0.00000000000E+00 -0.97213305326E+03  0.97213305326E+03  0.00000000000E+00 0. -1.
         25    1    1    2    0    0 -0.17996941527E+03  0.12310238510E+03 -0.92492717762E+03  0.95846672950E+03  0.12500000000E+03 0.  0.
          2    1    1    2  501    0  0.29367607649E+02 -0.22974373733E+01  0.12992162168E+04  0.12995501193E+04  0.00000000000E+00 0.  1.
         -2    1    1    2    0  503  0.15060180762E+03 -0.12080494773E+03  0.27759167489E+03  0.33812997179E+03  0.00000000000E+00 0. -1.
<mgrwt>
<rscale>  4 0.25019039E+03</rscale>
<asrwt>0</asrwt>
<pdfrwt beam="1">  1       21 0.24984827E+00 0.25019039E+03</pdfrwt>
<pdfrwt beam="2">  1       21 0.14955893E+00 0.25019039E+03</pdfrwt>
<totfact> 0.18320228E+01</totfact>
</mgrwt>
</event>
<event>
 5    0  0.1972558E-002  0.2379212E+03  0.7546771E-02  0.1121185E+00
         21   -1    0    0  501  502  0.00000000000E+00  0.00000000000E+00  0.10967574917E+03  0.10967574917E+03  0.00000000000E+00 0. -1.
         21   -1    0    0  502  503 -0.00000000000E+00 -0.00000000000E+00 -0.87146184478E+03  0.87146184478E+03  0.00000000000E+00 0. -1.
         25    1    1    2    0    0 -0.48373584424E+00  0.20544060735E+03 -0.32594059459E+03  0.40505351295E+03  0.12500000000E+03 0.  0.
          3    1    1    2  501    0  0.24103128289E+02 -0.19993761890E+03 -0.48286563713E+03  0.52317801537E+03  0.00000000000E+00 0. -1.
         -3    1    1    2    0  503 -0.23619392445E+02 -0.55029884543E+01  0.47020136110E+02  0.52906065637E+02  0.00000000000E+00 0.  1.
<mgrwt>
<rscale>  4 0.23792116E+03</rscale>
<asrwt>0</asrwt>
<pdfrwt beam="1">  1       21 0.16873193E-01 0.23792116E+03</pdfrwt>
<pdfrwt beam="2">  1       21 0.13407105E+00 0.23792116E+03</pdfrwt>
<totfact> 0.12271769E+04</totfact>
</mgrwt>
</event>
<event>
 5    0  0.1972558E-002  0.2762035E+03  0.7546771E-02  0.1097781E+00
         21   -1    0    0  503  502  0.00000000000E+00  0.00000000000E+00  0.42163396341E+03  0.42163396341E+03  0.00000000000E+00 0. -1.
         21   -1    0    0  501  503 -0.00000000000E+00 -0.00000000000E+00 -0.18080539310E+03  0.18080539310E+03  0.00000000000E+00 0.  1.
         25    1    1    2    0    0  0.17729902974E+02 -0.24218899907E+03  0.14657708074E+03  0.30996725848E+03  0.12500000000E+03 0.  0.
          4    1    1    2  501    0 -0.23867082024E+02 -0.83425998761E+01  0.17679089943E+01  0.25344862976E+02  0.00000000000E+00 0.  1.
         -4    1    1    2    0  502  0.61371790508E+01  0.25053159894E+03  0.92483580577E+02  0.26712723506E+03  0.00000000000E+00 0. -1.
<mgrwt>
<rscale>  4 0.27620347E+03</rscale>
<asrwt>0</asrwt>
<pdfrwt beam="1">  1       21 0.64866763E-01 0.27620347E+03</pdfrwt>
<pdfrwt beam="2">  1       21 0.27816214E-01 0.27620347E+03</pdfrwt>
<totfact> 0.25926082E+04</totfact>
</mgrwt>
</event>
<event>
 5    0  0.1972558E-002  0.2476973E+03  0.7546771E-02  0.1114769E+00
         21   -1    0    0  501  502  0.00000000000E+00  0.00000000000E+00  0.21171761441E+03  0.21171761441E+03  0.00000000000E+00 0.  1.
         21   -1    0    0  502  503 -0.00000000000E+00 -0.00000000000E+00 -0.31649087439E+03  0.31649087439E+03  0.00000000000E+00 0.  1.
         25    1    1    2    0    0  0.21337481651E+03 -0.62101926854E+02 -0.47951505301E+02  0.25944133923E+03  0.12500000000E+03 0.  0.
          3    1    1    2  501    0 -0.19042301406E+03  0.86459487303E+02 -0.84281368794E+02  0.22547619909E+03  0.00000000000E+00 0.  1.
         -3    1    1    2    0  503 -0.22951802447E+02 -0.24357560449E+02  0.27459614116E+02  0.43290950486E+02  0.00000000000E+00 0. -1.
<mgrwt>
<rscale>  4 0.24769725E+03</rscale>
<asrwt>0</asrwt>
<pdfrwt beam="1">  1       21 0.32571941E-01 0.24769725E+03</pdfrwt>
<pdfrwt beam="2">  1       21 0.48690904E-01 0.24769725E+03</pdfrwt>
<totfact> 0.35565395E+04</totfact>
</mgrwt>
</event>
<event>
 5    0  0.1972558E-002  0.2401718E+03  0.7546771E-02  0.1119678E+00
         21   -1    0    0  501  502  0.00000000000E+00  0.00000000000E+00  0.15112471970E+03  0.15112471970E+03  0.00000000000E+00 0.  1.
         21   -1    0    0  502  503 -0.00000000000E+00 -0.00000000000E+00 -0.68712611908E+03  0.68712611908E+03  0.00000000000E+00 0.  1.
         25    1    1    2    0    0 -0.19407415812E+03  0.10173317811E+03 -0.27163253726E+03  0.37070696470E+03  0.12500000000E+03 0.  0.
          2    1    1    2  501    0  0.16899568482E+03 -0.10243267980E+03 -0.33701905469E+03  0.39068380899E+03  0.00000000000E+00 0.  1.
         -2    1    1    2    0  503  0.25078473296E+02  0.69950168449E+00  0.72650192572E+02  0.76860065094E+02  0.00000000000E+00 0. -1.
<mgrwt>
<rscale>  4 0.24017179E+03</rscale>
<asrwt>0</asrwt>
<pdfrwt beam="1">  1       21 0.23249957E-01 0.24017179E+03</pdfrwt>
<pdfrwt beam="2">  1       21 0.10571171E+00 0.24017179E+03</pdfrwt>
<totfact> 0.12128219E+04</totfact>
</mgrwt>
</event>
<event>
 5    0  0.1972558E-002  0.2606679E+03  0.7546771E-02  0.1106743E+00
         21   -1    0    0  501  502  0.00000000000E+00  0.00000000000E+00  0.96451350162E+03  0.96451350162E+03  0.00000000000E+00 0. -1.
         21   -1    0    0  502  503 -0.00000000000E+00 -0.00000000000E+00 -0.16145965346E+03  0.16145965346E+03  0.00000000000E+00 0.  1.
         25    1    1    2    0    0 -0.23847592479E+03  0.29955336264E+02  0.16025766070E+02  0.27138517656E+03  0.12500000000E+03 0.  0.
          3    1    1    2  501    0  0.17513790875E+03 -0.11966493340E+03  0.40627347004E+03  0.45831333804E+03  0.00000000000E+00 0.  1.
         -3    1    1    2    0  503  0.63338016043E+02  0.89709597132E+02  0.38075461204E+03  0.39627464048E+03  0.00000000000E+00 0. -1.
<mgrwt>
<rscale>  4 0.26066792E+03</rscale>
<asrwt>0</asrwt>
<pdfrwt beam="1">  1       21 0.14838669E+00 0.26066792E+03</pdfrwt>
<pdfrwt beam="2">  1       21 0.24839947E-01 0.26066792E+03</pdfrwt>
<totfact> 0.44811136E+03</totfact>
</mgrwt>
</event>
<event>
 5    0  0.1972558E-002  0.2813829E+03  0.7546771E-02  0.1094936E+00
         21   -1    0    0  501  502  0.00000000000E+00  0.00000000000E+00  0.26622698631E+03  0.26622698631E+03  0.00000000000E+00 0. -1.
         21   -1    0    0  502  503 -0.00000000000E+00 -0.00000000000E+00 -0.11774013832E+04  0.11774013832E+04  0.00000000000E+00 0.  1.
         25    1    1    2    0    0  0.19022026205E+03  0.96120394440E+02 -0.55309029776E+03  0.60576955667E+03  0.12500000000E+03 0.  0.
          2    1    1    2  501    0  0.63304160637E+02  0.10058413310E+03  0.17743562561E+03  0.21356026274E+03  0.00000000000E+00 0. -1.
         -2    1    1    2    0  503 -0.25352442269E+03 -0.19670452754E+03 -0.53551972476E+03  0.62429855010E+03  0.00000000000E+00 0.  1.
<mgrwt>
<rscale>  4 0.28138293E+03</rscale>
<asrwt>0</asrwt>
<pdfrwt beam="1">  1       21 0.40957999E-01 0.28138293E+03</pdfrwt>
<pdfrwt beam="2">  1       21 0.18113867E+00 0.28138293E+03</pdfrwt>
<totfact> 0.94623068E+02</totfact>
</mgrwt>
</event>
<event>
 5    0  0.1972558E-002  0.3516574E+03  0.7546771E-02  0.1061937E+00
         21   -1    0    0  501  502  0.00000000000E+00  0.00000000000E+00  0.69921977022E+03  0.69921977022E+03  0.00000000000E+00 0.  1.
         21   -1    0    0  502  503 -0.00000000000E+00 -0.00000000000E+00 -0.39345013442E+03  0.39345013442E+03  0.00000000000E+00 0. -1.
         25    1    1    2    0    0 -0.79929488295E+02 -0.32725981007E+03 -0.23378732772E+03  0.42868312421E+03  0.12500000000E+03 0.  0.
          3    1    1    2  501    0  0.24469478507E+02  0.34389785537E+02  0.23154752229E+03  0.23536284288E+03  0.00000000000E+00 0.  1.
         -3    1    1    2    0  503  0.55460009789E+02  0.29287002453E+03  0.30800944124E+03  0.42862393755E+03  0.00000000000E+00 0. -1.
<mgrwt>
<rscale>  4 0.35165745E+03</rscale>
<asrwt>0</asrwt>
<pdfrwt beam="1">  1       21 0.10757227E+00 0.35165745E+03</pdfrwt>
<pdfrwt beam="2">  1       21 0.60530790E-01 0.35165745E+03</pdfrwt>
<totfact> 0.15693483E+03</totfact>
</mgrwt>
</event>
<event>
 5    0  0.1972558E-002  0.2580783E+03  0.7546771E-02  0.1108303E+00
         21   -1    0    0  501  502  0.00000000000E+00  0.00000000000E+00  0.69038413222E+03  0.69038413222E+03  0.00000000000E+00 0. -1.
         21   -1    0    0  502  503 -0.00000000000E+00 -0.00000000000E+00 -0.29449392362E+03  0.29449392362E+03  0.00000000000E+00 0. -1.
         25    1    1    2    0    0 -0.12081348351E+03 -0.20479545334E+03 -0.19714902758E+03  0.33321136623E+03  0.12500000000E+03 0.  0.
          1    1    1    2  501    0 -0.66471897790E+01  0.86573194598E+02  0.28527318185E+03  0.29819438533E+03  0.00000000000E+00 0.  1.
         -1    1    1    2    0  503  0.12746067329E+03  0.11822225874E+03  0.30776605433E+03  0.35347230428E+03  0.00000000000E+00 0. -1.
<mgrwt>
<rscale>  4 0.25807831E+03</rscale>
<asrwt>0</asrwt>
<pdfrwt beam="1">  1       21 0.10621294E+00 0.25807831E+03</pdfrwt>
<pdfrwt beam="2">  1       21 0.45306758E-01 0.25807831E+03</pdfrwt>
<totfact> 0.31612660E+03</totfact>
</mgrwt>
</event>
<event>
 5    0  0.1972558E-002  0.2504208E+03  0.7546771E-02  0.1113039E+00
         21   -1    0    0  501  502  0.00000000000E+00  0.00000000000E+00  0.33803491801E+03  0.33803491801E+03  0.00000000000E+00 0.  1.
         21   -1    0    0  502  503 -0.00000000000E+00 -0.00000000000E+00 -0.83553399312E+03  0.83553399312E+03  0.00000000000E+00 0. -1.
         25    1    1    2    0    0 -0.13023641971E+03  0.17736627602E+03 -0.76447653712E+03  0.80527616176E+03  0.12500000000E+03 0.  0.
          2    1    1    2  501    0  0.91093575619E+02 -0.16678424033E+03  0.14293992079E+03  0.23779580168E+03  0.00000000000E+00 0.  1.
         -2    1    1    2    0  503  0.39142844086E+02 -0.10582035694E+02  0.12403754123E+03  0.13049694770E+03  0.00000000000E+00 0. -1.
<mgrwt>
<rscale>  4 0.25042081E+03</rscale>
<asrwt>0</asrwt>
<pdfrwt beam="1">  1       21 0.52005373E-01 0.25042081E+03</pdfrwt>
<pdfrwt beam="2">  1       21 0.12854369E+00 0.25042081E+03</pdfrwt>
<totfact> 0.14844572E+03</totfact>
</mgrwt>
</event>
<event>
 5    0  0.1972558E-002  0.2956215E+03  0.7546771E-02  0.1087450E+00
         21   -1    0    0  503  502  0.00000000000E+00  0.00000000000E+00  0.82605660733E+03  0.82605660733E+03  0.00000000000E+00 0. -1.
         21   -1    0    0  501  503 -0.00000000000E+00 -0.00000000000E+00 -0.35752953132E+03  0.35752953132E+03  0.00000000000E+00 0. -1.
         25    1    1    2    0    0 -0.22796557408E+03 -0.15662886149E+03 -0.23347642193E+03  0.38293229534E+03  0.12500000000E+03 0.  0.
          4    1    1    2  501    0 -0.13184706530E+02  0.40979551363E+02 -0.63302071548E+01  0.43511281742E+02  0.00000000000E+00 0.  1.
         -4    1    1    2    0  502  0.24115028061E+03  0.11564931012E+03  0.70833370510E+03  0.75714256158E+03  0.00000000000E+00 0. -1.
<mgrwt>
<rscale>  4 0.29562152E+03</rscale>
<asrwt>0</asrwt>
<pdfrwt beam="1">  1       21 0.12708563E+00 0.29562152E+03</pdfrwt>
<pdfrwt beam="2">  1       21 0.55004544E-01 0.29562152E+03</pdfrwt>
<totfact> 0.13143911E+03</totfact>
</mgrwt>
</event>
<event>
 5    0  0.1972558E-002  0.3552701E+03  0.7546771E-02  0.1060473E+00
         21   -1    0    0  501  502  0.00000000000E+00  0.00000000000E+00  0.13217831785E+03  0.13217831785E+03  0.00000000000E+00 0.  1.
         21   -1    0    0  502  503 -0.00000000000E+00 -0.00000000000E+00 -0.12905900644E+04  0.12905900644E+04  0.00000000000E+00 0.  1.
         25    1    1    2    0    0  0.52832276866E+02 -0.34712692007E+03 -0.86796540558E+03  0.94460430520E+03  0.12500000000E+03 0.  0.
          4    1    1    2  501    0  0.71842133008E+01  0.26033219580E+02 -0.92164968007E+02  0.96040214339E+02  0.00000000000E+00 0. -1.
         -4    1    1    2    0  503 -0.60016490167E+02  0.32109370049E+03 -0.19828137297E+03  0.38212386271E+03  0.00000000000E+00 0.  1.
<mgrwt>
<rscale>  4 0.35527006E+03</rscale>
<asrwt>0</asrwt>
<pdfrwt beam="1">  1       21 0.20335127E-01 0.35527006E+03</pdfrwt>
<pdfrwt beam="2">  1       21 0.19855230E+00 0.35527006E+03</pdfrwt>
<totfact> 0.27280450E+03</totfact>
</mgrwt>
</event>
<event>
 5    0  0.1972558E-002  0.3382056E+03  0.7546771E-02  0.1067563E+00
         21   -1    0    0  501  502  0.00000000000E+00  0.00000000000E+00  0.50290362887E+03  0.50290362887E+03  0.00000000000E+00 0.  1.
         21   -1    0    0  502  503 -0.00000000000E+00 -0.00000000000E+00 -0.54803701572E+03  0.54803701572E+03  0.00000000000E+00 0. -1.
         25    1    1    2    0    0 -0.15006413136E+02 -0.31699782531E+03 -0.42377932213E+03  0.54399147746E+03  0.12500000000E+03 0.  0.
          1    1    1    2  501    0  0.13596961399E+02  0.29599901215E+03  0.28556552330E+03  0.41151908905E+03  0.00000000000E+00 0.  1.
         -1    1    1    2    0  503  0.14094517374E+01  0.20998813156E+02  0.93080411983E+02  0.95430078084E+02  0.00000000000E+00 0. -1.
<mgrwt>
<rscale>  4 0.33820557E+03</rscale>
<asrwt>0</asrwt>
<pdfrwt beam="1">  1       21 0.77369789E-01 0.33820557E+03</pdfrwt>
<pdfrwt beam="2">  1       21 0.84313387E-01 0.33820557E+03</pdfrwt>
<totfact> 0.16346956E+03</totfact>
</mgrwt>
</event>
<event>
 5    0  0.1972558E-002  0.2647810E+03  0.7546771E-02  0.1104304E+00
         21   -1    0    0  501  502  0.00000000000E+00  0.00000000000E+00  0.23036885078E+03  0.23036885078E+03  0.00000000000E+00 0. -1.
         21   -1    0    0  502  503 -0.00000000000E+00 -0.00000000000E+00 -0.62014680171E+03  0.62014680171E+03  0.00000000000E+00 0. -1.
         25    1    1    2    0    0  0.17728237808E+02 -0.21888789069E+03 -0.22309899048E+03  0.33708212450E+03  0.12500000000E+03 0.  0.
          2    1    1    2  501    0 -0.20224297588E+02  0.24322967408E+03 -0.29495631157E+03  0.38284320851E+03  0.00000000000E+00 0.  1.
         -2    1    1    2    0  503  0.24960597799E+01 -0.24341783390E+02  0.12827735112E+03  0.13059031948E+03  0.00000000000E+00 0. -1.
<mgrwt>
<rscale>  4 0.26478097E+03</rscale>
<asrwt>0</asrwt>
<pdfrwt beam="1">  1       21 0.35441362E-01 0.26478097E+03</pdfrwt>
<pdfrwt beam="2">  1       21 0.95407200E-01 0.26478097E+03</pdfrwt>
<totfact> 0.67137627E+03</totfact>
</mgrwt>
</event>
<event>
 5    0  0.1972558E-002  0.4893158E+03  0.7546771E-02  0.1016606E+00
         21   -1    0    0  501  502  0.00000000000E+00  0.00000000000E+00  0.24681040243E+04  0.24681040243E+04  0.00000000000E+00 0. -1.
         21   -1    0    0  502  503 -0.00000000000E+00 -0.00000000000E+00 -0.34791179197E+03  0.34791179197E+03  0.00000000000E+00 0.  1.
         25    1    1    2    0    0 -0.23557521189E+03  0.41964761980E+03 -0.42631521862E+02  0.49904133287E+03  0.12500000000E+03 0.  0.
          1    1    1    2  501    0  0.18068153036E+03 -0.41322469716E+03  0.58732844795E+03  0.74051007524E+03  0.00000000000E+00 0.  1.
         -1    1    1    2    0  503  0.54893681529E+02 -0.64229226333E+01  0.15754953062E+04  0.15764644081E+04  0.00000000000E+00 0. -1.
<mgrwt>
<rscale>  4 0.48931579E+03</rscale>
<asrwt>0</asrwt>
<pdfrwt beam="1">  1       21 0.37970830E+00 0.48931579E+03</pdfrwt>
<pdfrwt beam="2">  1       21 0.53524893E-01 0.48931579E+03</pdfrwt>
<totfact> 0.27494819E+01</totfact>
</mgrwt>
</event>
<event>
 5    0  0.1972558E-002  0.2546882E+03  0.7546771E-02  0.1110377E+00
         21   -1    0    0  503  502  0.00000000000E+00  0.00000000000E+00  0.33791094757E+03  0.33791094757E+03  0.00000000000E+00 0. -1.
         21   -1    0    0  501  503 -0.00000000000E+00 -0.00000000000E+00 -0.60267062669E+03  0.60267062669E+03  0.00000000000E+00 0. -1.
         25    1    1    2    0    0 -0.14919784112E+03  0.15948261272E+03 -0.50236537204E+03  0.56186356580E+03  0.12500000000E+03 0.  0.
          3    1    1    2  501    0 -0.57828615073E+01  0.40149470830E+02  0.47547972612E+02  0.62499849557E+02  0.00000000000E+00 0.  1.
         -3    1    1    2    0  502  0.15498070262E+03 -0.19963208355E+03  0.19005772031E+03  0.31621815890E+03  0.00000000000E+00 0. -1.
<mgrwt>
<rscale>  4 0.25468825E+03</rscale>
<asrwt>0</asrwt>
<pdfrwt beam="1">  1       21 0.51986300E-01 0.25468825E+03</pdfrwt>
<pdfrwt beam="2">  1       21 0.92718557E-01 0.25468825E+03</pdfrwt>
<totfact> 0.32874149E+03</totfact>
</mgrwt>
</event>
<event>
 5    0  0.1972558E-002  0.2748326E+03  0.7546771E-02  0.1098545E+00
         21   -1    0    0  503  502  0.00000000000E+00  0.00000000000E+00  0.11954450115E+03  0.11954450115E+03  0.00000000000E+00 0. -1.
         21   -1    0    0  501  503 -0.00000000000E+00 -0.00000000000E+00 -0.66246058522E+03  0.66246058522E+03  0.00000000000E+00 0. -1.
         25    1    1    2    0    0 -0.43182691202E+02  0.22942813386E+03 -0.25762586539E+03  0.36945649262E+03  0.12500000000E+03 0.  0.
          1    1    1    2  501    0  0.29210806582E+02  0.26185432002E+02 -0.59137645226E+02  0.70966253622E+02  0.00000000000E+00 0.  1.
         -1    1    1    2    0  502  0.13971884620E+02 -0.25561356586E+03 -0.22615257345E+03  0.34158234013E+03  0.00000000000E+00 0. -1.
<mgrwt>
<rscale>  4 0.27483258E+03</rscale>
<asrwt>0</asrwt>
<pdfrwt beam="1">  1       21 0.18391461E-01 0.27483258E+03</pdfrwt>
<pdfrwt beam="2">  1       21 0.10191701E+00 0.27483258E+03</pdfrwt>
<totfact> 0.20257828E+04</totfact>
</mgrwt>
</event>
<event>
 5    0  0.1972558E-002  0.2676842E+03  0.7546771E-02  0.1102612E+00
         21   -1    0    0  501  502  0.00000000000E+00  0.00000000000E+00  0.68672358414E+03  0.68672358414E+03  0.00000000000E+00 0.  1.
         21   -1    0    0  502  503 -0.00000000000E+00 -0.00000000000E+00 -0.11300226209E+03  0.11300226209E+03  0.00000000000E+00 0.  1.
         25    1    1    2    0    0 -0.23963017436E+03 -0.20517486362E+02  0.20468100410E+03  0.33965114625E+03  0.12500000000E+03 0.  0.
          2    1    1    2  501    0  0.22608785771E+03  0.59226843655E+02  0.31502043192E+03  0.39225171885E+03  0.00000000000E+00 0.  1.
         -2    1    1    2    0  503  0.13542316649E+02 -0.38709357293E+02  0.54019886028E+02  0.67822981126E+02  0.00000000000E+00 0. -1.
<mgrwt>
<rscale>  4 0.26768421E+03</rscale>
<asrwt>0</asrwt>
<pdfrwt beam="1">  1       21 0.10564978E+00 0.26768421E+03</pdfrwt>
<pdfrwt beam="2">  1       21 0.17384964E-01 0.26768421E+03</pdfrwt>
<totfact> 0.20688600E+04</totfact>
</mgrwt>
</event>
<event>
 5    0  0.1972558E-002  0.2330355E+03  0.7546771E-02  0.1124521E+00
         21   -1    0    0  501  502  0.00000000000E+00  0.00000000000E+00  0.15584335911E+03  0.15584335911E+03  0.00000000000E+00 0.  1.
         21   -1    0    0  502  503 -0.00000000000E+00 -0.00000000000E+00 -0.12660700032E+04  0.12660700032E+04  0.00000000000E+00 0.  1.
         25    1    1    2    0    0 -0.21526899606E+03  0.47633487967E+01 -0.95419398886E+03  0.98614126702E+03  0.12500000000E+03 0.  0.
          1    1    1    2  501    0  0.16578287488E+03  0.41694338871E+02 -0.26026673406E+03  0.31138585767E+03  0.00000000000E+00 0. -1.
         -1    1    1    2    0  503  0.49486121176E+02 -0.46457687668E+02  0.10423407880E+03  0.12438623765E+03  0.00000000000E+00 0.  1.
<mgrwt>
<rscale>  4 0.23303552E+03</rscale>
<asrwt>0</asrwt>
<pdfrwt beam="1">  1       21 0.23975901E-01 0.23303552E+03</pdfrwt>
<pdfrwt beam="2">  1       21 0.19478000E+00 0.23303552E+03</pdfrwt>
<totfact> 0.22914930E+03</totfact>
</mgrwt>
</event>
<event>
 5    0  0.1972558E-002  0.2446957E+03  0.7546771E-02  0.1116704E+00
         21   -1    0    0  503  502  0.00000000000E+00  0.00000000000E+00  0.72331707415E+03  0.72331707415E+03  0.00000000000E+00 0.  1.
         21   -1    0    0  501  503 -0.00000000000E+00 -0.00000000000E+00 -0.36697904184E+03  0.36697904184E+03  0.00000000000E+00 0.  1.
         25    1    1    2    0    0 -0.28006517885E+02 -0.21571561790E+03 -0.26301989748E+03  0.36348598229E+03  0.12500000000E+03 0.  0.
          3    1    1    2  501    0  0.13651924292E+03  0.11491310843E+03  0.51658503345E+03  0.54653693650E+03  0.00000000000E+00 0. -1.
         -3    1    1    2    0  502 -0.10851272503E+03  0.10080250946E+03  0.10277289635E+03  0.18027319721E+03  0.00000000000E+00 0.  1.
<mgrwt>
<rscale>  4 0.24469569E+03</rscale>
<asrwt>0</asrwt>
<pdfrwt beam="1">  1       21 0.11127955E+00 0.24469569E+03</pdfrwt>
<pdfrwt beam="2">  1       21 0.56458314E-01 0.24469569E+03</pdfrwt>
<totfact> 0.17933409E+03</totfact>
</mgrwt>
</event>
<event>
 5    0  0.1972558E-002  0.2532649E+03  0.7546771E-02  0.1111259E+00
         21   -1    0    0  501  502  0.00000000000E+00  0.00000000000E+00  0.31901269221E+03  0.31901269221E+03  0.00000000000E+00 0. -1.
         21   -1    0    0  502  503 -0.00000000000E+00 -0.00000000000E+00 -0.46855746869E+03  0.46855746869E+03  0.00000000000E+00 0.  1.
         25    1    1    2    0    0  0.74786612780E+02 -0.22740448463E+03 -0.33385327047E+03  0.42940522038E+03  0.12500000000E+03 0.  0.
          4    1    1    2  501    0  0.51824677642E+02  0.94286589038E+02  0.12541672805E+03  0.16524259063E+03  0.00000000000E+00 0. -1.
         -4    1    1    2    0  503 -0.12661129042E+03  0.13311789560E+03  0.58891765945E+02  0.19292234989E+03  0.00000000000E+00 0.  1.
<mgrwt>
<rscale>  4 0.25326489E+03</rscale>
<asrwt>0</asrwt>
<pdfrwt beam="1">  1       21 0.49078876E-01 0.25326489E+03</pdfrwt>
<pdfrwt beam="2">  1       21 0.72085764E-01 0.25326489E+03</pdfrwt>
<totfact> 0.66056071E+03</totfact>
</mgrwt>
</event>
<event>
 5    0  0.1972558E-002  0.2868708E+03  0.7546771E-02  0.1091994E+00
         21   -1    0    0  501  502  0.00000000000E+00  0.00000000000E+00  0.13575131920E+03  0.13575131920E+03  0.00000000000E+00 0. -1.
         21   -1    0    0  502  503 -0.00000000000E+00 -0.00000000000E+00 -0.89582798647E+03  0.89582798647E+03  0.00000000000E+00 0.  1.
         25    1    1    2    0    0  0.29488224479E+03 -0.64724359869E+02 -0.39573727172E+03  0.51320343850E+03  0.12500000000E+03 0.  0.
          3    1    1    2  501    0 -0.80328594266E+02 -0.29963148853E+02 -0.77901605024E+00  0.85738440690E+02  0.00000000000E+00 0.  1.
         -3    1    1    2    0  503 -0.21455365053E+03  0.94687508721E+02 -0.36356037950E+03  0.43263742649E+03  0.00000000000E+00 0. -1.
<mgrwt>
<rscale>  4 0.28687075E+03</rscale>
<asrwt>0</asrwt>
<pdfrwt beam="1">  1       21 0.20884817E-01 0.28687075E+03</pdfrwt>
<pdfrwt beam="2">  1       21 0.13781970E+00 0.28687075E+03</pdfrwt>
<totfact> 0.74610019E+03</totfact>
</mgrwt>
</event>
<event>
 5    0  0.1972558E-002  0.2911543E+03  0.7546771E-02  0.1089748E+00
         21   -1    0    0  501  502  0.00000000000E+00  0.00000000000E+00  0.13781067666E+04  0.13781067666E+04  0.00000000000E+00 0.  1.
         21   -1    0    0  502  503 -0.00000000000E+00 -0.00000000000E+00 -0.15723673727E+03  0.15723673727E+03  0.00000000000E+00 0.  1.
         25    1    1    2    0    0 -0.66324661444E+02  0.25917531105E+03  0.15564107158E+02  0.29569924586E+03  0.12500000000E+03 0.  0.
          2    1    1    2  501    0  0.71785479093E+02 -0.22687509665E+03  0.84544377512E+03  0.87829416563E+03  0.00000000000E+00 0.  1.
         -2    1    1    2    0  503 -0.54608176491E+01 -0.32300214403E+02  0.35986214708E+03  0.36135009240E+03  0.00000000000E+00 0. -1.
<mgrwt>
<rscale>  4 0.29115427E+03</rscale>
<asrwt>0</asrwt>
<pdfrwt beam="1">  1       21 0.21201642E+00 0.29115427E+03</pdfrwt>
<pdfrwt beam="2">  1       21 0.24190268E-01 0.29115427E+03</pdfrwt>
<totfact> 0.16661139E+03</totfact>
</mgrwt>
</event>
<event>
 5    0  0.1972558E-002  0.2710824E+03  0.7546771E-02  0.1100662E+00
         21   -1    0    0  501  502  0.00000000000E+00  0.00000000000E+00  0.68899874344E+03  0.68899874344E+03  0.00000000000E+00 0. -1.
         21   -1    0    0  502  503 -0.00000000000E+00 -0.00000000000E+00 -0.21485136237E+03  0.21485136237E+03  0.00000000000E+00 0. -1.
         25    1    1    2    0    0 -0.16973223954E+03  0.15610325987E+03 -0.89196569771E+01  0.26245346476E+03  0.12500000000E+03 0.  0.
          4    1    1    2  501    0  0.20538919244E+03 -0.15595430274E+03  0.13420833077E+03  0.29072038278E+03  0.00000000000E+00 0. -1.
         -4    1    1    2    0  503 -0.35656952903E+02 -0.14895713072E+00  0.34885870727E+03  0.35067625828E+03  0.00000000000E+00 0.  1.
<mgrwt>
<rscale>  4 0.27108239E+03</rscale>
<asrwt>0</asrwt>
<pdfrwt beam="1">  1       21 0.10599981E+00 0.27108239E+03</pdfrwt>
<pdfrwt beam="2">  1       21 0.33054056E-01 0.27108239E+03</pdfrwt>
<totfact> 0.59724018E+03</totfact>
</mgrwt>
</event>
<event>
 5    0  0.1972558E-002  0.2329986E+03  0.7546771E-02  0.1124547E+00
         21   -1    0    0  501  502  0.00000000000E+00  0.00000000000E+00  0.14127247292E+04  0.14127247292E+04  0.00000000000E+00 0. -1.
         21   -1    0    0  502  503 -0.00000000000E+00 -0.00000000000E+00 -0.56388339007E+02  0.56388339007E+02  0.00000000000E+00 0. -1.
         25    1    1    2    0    0 -0.16551971627E+03  0.14421043323E+03  0.77170797954E+03  0.81200469901E+03  0.12500000000E+03 0.  0.
          1    1    1    2  501    0  0.21928889359E+02 -0.20773831748E+02  0.36861733063E+03  0.36985289605E+03  0.00000000000E+00 0.  1.
         -1    1    1    2    0  503  0.14359082691E+03 -0.12343660149E+03  0.21601107999E+03  0.28725547312E+03  0.00000000000E+00 0. -1.
<mgrwt>
<rscale>  4 0.23299856E+03</rscale>
<asrwt>0</asrwt>
<pdfrwt beam="1">  1       21 0.21734224E+00 0.23299856E+03</pdfrwt>
<pdfrwt beam="2">  1       21 0.86751302E-02 0.23299856E+03</pdfrwt>
<totfact> 0.10529814E+04</totfact>
</mgrwt>
</event>
<event>
 5    0  0.1972558E-002  0.2930987E+03  0.7546771E-02  0.1088742E+00
         21   -1    0    0  501  502  0.00000000000E+00  0.00000000000E+00  0.13145752622E+04  0.13145752622E+04  0.00000000000E+00 0.  1.
         21   -1    0    0  502  503 -0.00000000000E+00 -0.00000000000E+00 -0.48027103767E+03  0.48027103767E+03  0.00000000000E+00 0. -1.
         25    1    1    2    0    0  0.12531923428E+03 -0.22526547271E+03 -0.27199026826E+03  0.39503563093E+03  0.12500000000E+03 0.  0.
          3    1    1    2  501    0  0.67602816569E+02  0.12741494154E+02  0.11106210446E+04  0.11127495636E+04  0.00000000000E+00 0.  1.
         -3    1    1    2    0  503 -0.19292205085E+03  0.21252397855E+03 -0.43265518354E+01  0.28706110537E+03  0.00000000000E+00 0. -1.
<mgrwt>
<rscale>  4 0.29309867E+03</rscale>
<asrwt>0</asrwt>
<pdfrwt beam="1">  1       21 0.20224235E+00 0.29309867E+03</pdfrwt>
<pdfrwt beam="2">  1       21 0.73887853E-01 0.29309867E+03</pdfrwt>
<totfact> 0.19146759E+02</totfact>
</mgrwt>
</event>
<event>
 5    0  0.1972558E-002  0.2691950E+03  0.7546771E-02  0.1101741E+00
         21   -1    0    0  501  502  0.00000000000E+00  0.00000000000E+00  0.16896437687E+04  0.16896437687E+04  0.00000000000E+00 0. -1.
         21   -1    0    0  502  503 -0.00000000000E+00 -0.00000000000E+00 -0.61762686275E+02  0.61762686275E+02  0.00000000000E+00 0. -1.
         25    1    1    2    0    0 -0.27300169705E+02 -0.23684516586E+03  0.31028446832E+03  0.41078264707E+03  0.12500000000E+03 0.  0.
          1    1    1    2  501    0 -0.10678303162E+02  0.10588568365E+03  0.45244457738E+03  0.46479231896E+03  0.00000000000E+00 0.  1.
         -1    1    1    2    0  503  0.37978472867E+02  0.13095948221E+03  0.86515203669E+03  0.87583148891E+03  0.00000000000E+00 0. -1.
<mgrwt>
<rscale>  4 0.26919497E+03</rscale>
<asrwt>0</asrwt>
<pdfrwt beam="1">  1       21 0.25994516E+00 0.26919497E+03</pdfrwt>
<pdfrwt beam="2">  1       21 0.95019530E-02 0.26919497E+03</pdfrwt>
<totfact> 0.48172644E+03</totfact>
</mgrwt>
</event>
<event>
 5    0  0.1972558E-002  0.4719371E+03  0.7546771E-02  0.1021375E+00
         21   -1    0    0  501  502  0.00000000000E+00  0.00000000000E+00  0.87117024936E+03  0.87117024936E+03  0.00000000000E+00 0.  1.
         21   -1    0    0  502  503 -0.00000000000E+00 -0.00000000000E+00 -0.62158104963E+03  0.62158104963E+03  0.00000000000E+00 0. -1.
         25    1    1    2    0    0 -0.43517706595E+03 -0.27968417784E+02 -0.16228030022E+03  0.48178958785E+03  0.12500000000E+03 0.  0.
          2    1    1    2  501    0  0.39839996169E+03 -0.27411744172E+03  0.49853003302E+03  0.69454668321E+03  0.00000000000E+00 0. -1.
         -2    1    1    2    0  503  0.36777104255E+02  0.30208585950E+03 -0.86660533064E+02  0.31641502793E+03  0.00000000000E+00 0.  1.
<mgrwt>
<rscale>  4 0.47193711E+03</rscale>
<asrwt>0</asrwt>
<pdfrwt beam="1">  1       21 0.13402619E+00 0.47193711E+03</pdfrwt>
<pdfrwt beam="2">  1       21 0.95627854E-01 0.47193711E+03</pdfrwt>
<totfact> 0.29820289E+02</totfact>
</mgrwt>
</event>
<event>
 5    0  0.1972558E-002  0.3319790E+03  0.7546771E-02  0.1070265E+00
         21   -1    0    0  503  502  0.00000000000E+00  0.00000000000E+00  0.38089730046E+03  0.38089730046E+03  0.00000000000E+00 0. -1.
         21   -1    0    0  501  503 -0.00000000000E+00 -0.00000000000E+00 -0.51251162885E+03  0.51251162885E+03  0.00000000000E+00 0. -1.
         25    1    1    2    0    0 -0.28051127474E+03  0.75310865375E+02 -0.18978878014E+03  0.36878595793E+03  0.12500000000E+03 0.  0.
          4    1    1    2  501    0 -0.11996307006E+02  0.36367467524E+02 -0.14592924672E+03  0.15087030564E+03  0.00000000000E+00 0.  1.
         -4    1    1    2    0  502  0.29250758174E+03 -0.11167833290E+03  0.20410369847E+03  0.37375266574E+03  0.00000000000E+00 0. -1.
<mgrwt>
<rscale>  4 0.33197899E+03</rscale>
<asrwt>0</asrwt>
<pdfrwt beam="1">  1       21 0.58599585E-01 0.33197899E+03</pdfrwt>
<pdfrwt beam="2">  1       21 0.78847943E-01 0.33197899E+03</pdfrwt>
<totfact> 0.35475689E+03</totfact>
</mgrwt>
</event>
<event>
 5    0  0.1972558E-002  0.3191385E+03  0.7546771E-02  0.1076046E+00
         21   -1    0    0  501  502  0.00000000000E+00  0.00000000000E+00  0.62329467171E+03  0.62329467171E+03  0.00000000000E+00 0.  1.
         21   -1    0    0  502  503 -0.00000000000E+00 -0.00000000000E+00 -0.19611988265E+04  0.19611988265E+04  0.00000000000E+00 0.  1.
         25    1    1    2    0    0  0.22688062290E+02 -0.29713306696E+03 -0.17558336742E+04  0.17853234158E+04  0.12500000000E+03 0.  0.
          3    1    1    2  501    0 -0.17573786091E+02  0.26554555873E+03 -0.96995708234E+02  0.28325156511E+03  0.00000000000E+00 0. -1.
         -3    1    1    2    0  503 -0.51142761993E+01  0.31587508230E+02  0.51492522760E+03  0.51591851732E+03  0.00000000000E+00 0.  1.
<mgrwt>
<rscale>  4 0.31913853E+03</rscale>
<asrwt>0</asrwt>
<pdfrwt beam="1">  1       21 0.95891488E-01 0.31913853E+03</pdfrwt>
<pdfrwt beam="2">  1       21 0.30172290E+00 0.31913853E+03</pdfrwt>
<totfact> 0.25373874E+01</totfact>
</mgrwt>
</event>
<event>
 5    0  0.1972558E-002  0.3039754E+03  0.7546771E-02  0.1083270E+00
         21   -1    0    0  501  502  0.00000000000E+00  0.00000000000E+00  0.91972188120E+03  0.91972188120E+03  0.00000000000E+00 0.  1.
         21   -1    0    0  502  503 -0.00000000000E+00 -0.00000000000E+00 -0.18026830486E+03  0.18026830486E+03  0.00000000000E+00 0.  1.
         25    1    1    2    0    0 -0.21307210498E+03 -0.23083701577E+03  0.13329294747E+03  0.36342462715E+03  0.12500000000E+03 0.  0.
          1    1    1    2  501    0  0.17498947241E+03  0.16731711265E+03  0.17410801745E+03  0.29821122276E+03  0.00000000000E+00 0.  1.
         -1    1    1    2    0  503  0.38082632574E+02  0.63519903126E+02  0.43205261141E+03  0.43835433616E+03  0.00000000000E+00 0. -1.
<mgrwt>
<rscale>  4 0.30397544E+03</rscale>
<asrwt>0</asrwt>
<pdfrwt beam="1">  1       21 0.14149567E+00 0.30397544E+03</pdfrwt>
<pdfrwt beam="2">  1       21 0.27733586E-01 0.30397544E+03</pdfrwt>
<totfact> 0.40010187E+03</totfact>
</mgrwt>
</event>
<event>
 5    0  0.1972558E-002  0.2428143E+03  0.7546771E-02  0.1117932E+00
         21   -1    0    0  501  502  0.00000000000E+00  0.00000000000E+00  0.53461719714E+03  0.53461719714E+03  0.00000000000E+00 0.  1.
         21   -1    0    0  502  503 -0.00000000000E+00 -0.00000000000E+00 -0.38893942587E+03  0.38893942587E+03  0.00000000000E+00 0. -1.
         25    1    1    2    0    0  0.11346394952E+03 -0.22198140527E+03 -0.16850757378E+03  0.32583679128E+03  0.12500000000E+03 0.  0.
          2    1    1    2  501    0 -0.99605355134E+02  0.14828557373E+03 -0.80528838516E+02  0.19594573734E+03  0.00000000000E+00 0. -1.
         -2    1    1    2    0  503 -0.13858594386E+02  0.73695831542E+02  0.39471418356E+03  0.40177409440E+03  0.00000000000E+00 0.  1.
<mgrwt>
<rscale>  4 0.24281429E+03</rscale>
<asrwt>0</asrwt>
<pdfrwt beam="1">  1       21 0.82248800E-01 0.24281429E+03</pdfrwt>
<pdfrwt beam="2">  1       21 0.59836835E-01 0.24281429E+03</pdfrwt>
<totfact> 0.32393750E+03</totfact>
</mgrwt>
</event>
<event>
 5    0  0.1972558E-002  0.2337109E+03  0.7546771E-02  0.1124055E+00
         21   -1    0    0  501  502  0.00000000000E+00  0.00000000000E+00  0.21411637724E+03  0.21411637724E+03  0.00000000000E+00 0. -1.
         21   -1    0    0  502  503 -0.00000000000E+00 -0.00000000000E+00 -0.48342008878E+03  0.48342008878E+03  0.00000000000E+00 0. -1.
         25    1    1    2    0    0 -0.20727679226E+03 -0.37244584861E+02 -0.33307565246E+03  0.41341893761E+03  0.12500000000E+03 0.  0.
          1    1    1    2  501    0  0.58511209933E+02 -0.61974646129E+02  0.61817919870E+02  0.10528947558E+03  0.00000000000E+00 0.  1.
         -1    1    1    2    0  503  0.14876558233E+03  0.99219230989E+02  0.19540210510E+01  0.17882805284E+03  0.00000000000E+00 0. -1.
<mgrwt>
<rscale>  4 0.23371094E+03</rscale>
<asrwt>0</asrwt>
<pdfrwt beam="1">  1       21 0.32940981E-01 0.23371094E+03</pdfrwt>
<pdfrwt beam="2">  1       21 0.74372321E-01 0.23371094E+03</pdfrwt>
<totfact> 0.14016042E+04</totfact>
</mgrwt>
</event>
<event>
 5    0  0.1972558E-002  0.3862912E+03  0.7546771E-02  0.1048633E+00
         21   -1    0    0  503  502  0.00000000000E+00  0.00000000000E+00  0.21719669610E+03  0.21719669610E+03  0.00000000000E+00 0.  1.
         21   -1    0    0  501  503 -0.00000000000E+00 -0.00000000000E+00 -0.93618405162E+03  0.93618405162E+03  0.00000000000E+00 0. -1.
         25    1    1    2    0    0  0.35449075185E+03  0.10269720302E+03 -0.66152078756E+03  0.76775332043E+03  0.12500000000E+03 0.  0.
          3    1    1    2  501    0 -0.85705313947E+01 -0.21626587020E+02 -0.15294068404E+02  0.27840111402E+02  0.00000000000E+00 0. -1.
         -3    1    1    2    0  502 -0.34592022045E+03 -0.81070616000E+02 -0.42172499558E+02  0.35778731589E+03  0.00000000000E+00 0.  1.
<mgrwt>
<rscale>  4 0.38629125E+03</rscale>
<asrwt>0</asrwt>
<pdfrwt beam="1">  1       21 0.33414877E-01 0.38629125E+03</pdfrwt>
<pdfrwt beam="2">  1       21 0.14402831E+00 0.38629125E+03</pdfrwt>
<totfact> 0.25340429E+03</totfact>
</mgrwt>
</event>
<event>
 5    0  0.1972558E-002  0.2516777E+03  0.7546771E-02  0.1112249E+00
         21   -1    0    0  501  502  0.00000000000E+00  0.00000000000E+00  0.68650795533E+03  0.68650795533E+03  0.00000000000E+00 0.  1.
         21   -1    0    0  502  503 -0.00000000000E+00 -0.00000000000E+00 -0.45931980631E+03  0.45931980631E+03  0.00000000000E+00 0. -1.
         25    1    1    2    0    0  0.21853673523E+03  0.35675181988E+02 -0.39823918638E+03  0.47249388654E+03  0.12500000000E+03 0.  0.
          2    1    1    2  501    0 -0.53040023608E+02  0.16817905903E+02  0.59907005658E+02  0.81761454184E+02  0.00000000000E+00 0. -1.
         -2    1    1    2    0  503 -0.16549671162E+03 -0.52493087891E+02  0.56552032974E+03  0.59157242091E+03  0.00000000000E+00 0.  1.
<mgrwt>
<rscale>  4 0.25167770E+03</rscale>
<asrwt>0</asrwt>
<pdfrwt beam="1">  1       21 0.10561661E+00 0.25167770E+03</pdfrwt>
<pdfrwt beam="2">  1       21 0.70664585E-01 0.25167770E+03</pdfrwt>
<totfact> 0.12417997E+03</totfact>
</mgrwt>
</event>
<event>
 5    0  0.1972558E-002  0.2902537E+03  0.7546771E-02  0.1090217E+00
         21   -1    0    0  501  502  0.00000000000E+00  0.00000000000E+00  0.62752886871E+03  0.62752886871E+03  0.00000000000E+00 0.  1.
         21   -1    0    0  502  503 -0.00000000000E+00 -0.00000000000E+00 -0.11276911418E+04  0.11276911418E+04  0.00000000000E+00 0. -1.
         25    1    1    2    0    0 -0.21734870461E+03  0.14390566057E+03 -0.90942757735E+03  0.95427083000E+03  0.12500000000E+03 0.  0.
          3    1    1    2  501    0  0.20057809506E+03 -0.18021293632E+03 -0.10187415529E+03  0.28824749462E+03  0.00000000000E+00 0. -1.
         -3    1    1    2    0  503  0.16770609549E+02  0.36307275750E+02  0.51113945954E+03  0.51270168589E+03  0.00000000000E+00 0.  1.
<mgrwt>
<rscale>  4 0.29025374E+03</rscale>
<asrwt>0</asrwt>
<pdfrwt beam="1">  1       21 0.96542904E-01 0.29025374E+03</pdfrwt>
<pdfrwt beam="2">  1       21 0.17349094E+00 0.29025374E+03</pdfrwt>
<totfact> 0.16195642E+02</totfact>
</mgrwt>
</event>
<event>
 5    0  0.1972558E-002  0.2627614E+03  0.7546771E-02  0.1105495E+00
         21   -1    0    0  501  502  0.00000000000E+00  0.00000000000E+00  0.40073139632E+03  0.40073139632E+03  0.00000000000E+00 0.  1.
         21   -1    0    0  502  503 -0.00000000000E+00 -0.00000000000E+00 -0.21665787976E+03  0.21665787976E+03  0.00000000000E+00 0.  1.
         25    1    1    2    0    0 -0.12014632172E+03  0.19744215259E+03 -0.67059029384E+02  0.27118343545E+03  0.12500000000E+03 0.  0.
          2    1    1    2  501    0  0.24216853880E+02 -0.83288562252E+01  0.19656822404E+02  0.32283378462E+02  0.00000000000E+00 0. -1.
         -2    1    1    2    0  503  0.95929467835E+02 -0.18911329636E+03  0.23147572354E+03  0.31392246216E+03  0.00000000000E+00 0.  1.
<mgrwt>
<rscale>  4 0.26276138E+03</rscale>
<asrwt>0</asrwt>
<pdfrwt beam="1">  1       21 0.61650984E-01 0.26276138E+03</pdfrwt>
<pdfrwt beam="2">  1       21 0.33331982E-01 0.26276138E+03</pdfrwt>
<totfact> 0.20412951E+04</totfact>
</mgrwt>
</event>
<event>
 5    0  0.1972558E-002  0.3028790E+03  0.7546771E-02  0.1083810E+00
         21   -1    0    0  501  502  0.00000000000E+00  0.00000000000E+00  0.17809180039E+04  0.17809180039E+04  0.00000000000E+00 0. -1.
         21   -1    0    0  502  503 -0.00000000000E+00 -0.00000000000E+00 -0.63879310929E+02  0.63879310929E+02  0.00000000000E+00 0. -1.
         25    1    1    2    0    0 -0.57865932929E+02  0.27496710618E+03  0.48306298993E+03  0.57265192562E+03  0.12500000000E+03 0.  0.
          3    1    1    2  501    0  0.35514023249E+02 -0.26469727667E+03  0.94176068340E+03  0.97889686838E+03  0.00000000000E+00 0. -1.
         -3    1    1    2    0  503  0.22351909680E+02 -0.10269829513E+02  0.29221501960E+03  0.29324852079E+03  0.00000000000E+00 0.  1.
<mgrwt>
<rscale>  4 0.30287904E+03</rscale>
<asrwt>0</asrwt>
<pdfrwt beam="1">  1       21 0.27398735E+00 0.30287904E+03</pdfrwt>
<pdfrwt beam="2">  1       21 0.98275877E-02 0.30287904E+03</pdfrwt>
<totfact> 0.36540082E+03</totfact>
</mgrwt>
</event>
<event>
 5    0  0.1972558E-002  0.2583762E+03  0.7546771E-02  0.1108123E+00
         21   -1    0    0  501  502  0.00000000000E+00  0.00000000000E+00  0.17658330459E+04  0.17658330459E+04  0.00000000000E+00 0. -1.
         21   -1    0    0  502  503 -0.00000000000E+00 -0.00000000000E+00 -0.80991237746E+02  0.80991237746E+02  0.00000000000E+00 0. -1.
         25    1    1    2    0    0  0.24062990551E+02 -0.23318697255E+03  0.22845936875E+03  0.35039103135E+03  0.12500000000E+03 0.  0.
          1    1    1    2  501    0 -0.20774803169E+02  0.20915748649E+03  0.53609996033E+03  0.57583123748E+03  0.00000000000E+00 0.  1.
         -1    1    1    2    0  503 -0.32881873821E+01  0.24029486064E+02  0.92028247913E+03  0.92060201486E+03  0.00000000000E+00 0. -1.
<mgrwt>
<rscale>  4 0.25837620E+03</rscale>
<asrwt>0</asrwt>
<pdfrwt beam="1">  1       21 0.27166659E+00 0.25837620E+03</pdfrwt>
<pdfrwt beam="2">  1       21 0.12460192E-01 0.25837620E+03</pdfrwt>
<totfact> 0.25513424E+03</totfact>
</mgrwt>
</event>
<event>
 5    0  0.1972558E-002  0.2928902E+03  0.7546771E-02  0.1088850E+00
         21   -1    0    0  501  502  0.00000000000E+00  0.00000000000E+00  0.38348743154E+03  0.38348743154E+03  0.00000000000E+00 0. -1.
         21   -1    0    0  502  503 -0.00000000000E+00 -0.00000000000E+00 -0.72072546288E+03  0.72072546288E+03  0.00000000000E+00 0.  1.
         25    1    1    2    0    0  0.23133703771E+03 -0.13914372303E+03 -0.49357772471E+03  0.57630007028E+03  0.12500000000E+03 0.  0.
          3    1    1    2  501    0  0.24113209594E+01  0.36158327731E+02  0.25242179449E+03  0.25500980661E+03  0.00000000000E+00 0.  1.
         -3    1    1    2    0  503 -0.23374835867E+03  0.10298539530E+03 -0.96082101124E+02  0.27290301754E+03  0.00000000000E+00 0. -1.
<mgrwt>
<rscale>  4 0.29289020E+03</rscale>
<asrwt>0</asrwt>
<pdfrwt beam="1">  1       21 0.58998067E-01 0.29289020E+03</pdfrwt>
<pdfrwt beam="2">  1       21 0.11088084E+00 0.29289020E+03</pdfrwt>
<totfact> 0.15924456E+03</totfact>
</mgrwt>
</event>
<event>
 5    0  0.1972558E-002  0.2835718E+03  0.7546771E-02  0.1093754E+00
         21   -1    0    0  501  502  0.00000000000E+00  0.00000000000E+00  0.73553871680E+03  0.73553871680E+03  0.00000000000E+00 0. -1.
         21   -1    0    0  502  503 -0.00000000000E+00 -0.00000000000E+00 -0.34465397814E+03  0.34465397814E+03  0.00000000000E+00 0. -1.
         25    1    1    2    0    0 -0.15021235366E+02 -0.25218377187E+03 -0.24241044677E+03  0.37176621284E+03  0.12500000000E+03 0.  0.
          4    1    1    2  501    0 -0.37747945053E+02 -0.15316678270E+02  0.12712061778E+03  0.13348842442E+03  0.00000000000E+00 0.  1.
         -4    1    1    2    0  503  0.52769180420E+02  0.26750045014E+03  0.50617456766E+03  0.57493805768E+03  0.00000000000E+00 0. -1.
<mgrwt>
<rscale>  4 0.28357183E+03</rscale>
<asrwt>0</asrwt>
<pdfrwt beam="1">  1       21 0.11315980E+00 0.28357183E+03</pdfrwt>
<pdfrwt beam="2">  1       21 0.53023689E-01 0.28357183E+03</pdfrwt>
<totfact> 0.19153253E+03</totfact>
</mgrwt>
</event>
<event>
 5    0  0.1972558E-002  0.3192602E+03  0.7546771E-02  0.1075990E+00
         21   -1    0    0  501  502  0.00000000000E+00  0.00000000000E+00  0.16002304160E+04  0.16002304160E+04  0.00000000000E+00 0. -1.
         21   -1    0    0  502  503 -0.00000000000E+00 -0.00000000000E+00 -0.12510315565E+03  0.12510315565E+03  0.00000000000E+00 0.  1.
         25    1    1    2    0    0  0.11656272584E+03 -0.26965760486E+03  0.12836710053E+03  0.34410057456E+03  0.12500000000E+03 0.  0.
          1    1    1    2  501    0 -0.10195316527E+03  0.24301760772E+03  0.10361082734E+04  0.10690988541E+04  0.00000000000E+00 0. -1.
         -1    1    1    2    0  503 -0.14609560564E+02  0.26639997136E+02  0.31065188641E+03  0.31213414302E+03  0.00000000000E+00 0.  1.
<mgrwt>
<rscale>  4 0.31926023E+03</rscale>
<asrwt>0</asrwt>
<pdfrwt beam="1">  1       21 0.24618928E+00 0.31926023E+03</pdfrwt>
<pdfrwt beam="2">  1       21 0.19246641E-01 0.31926023E+03</pdfrwt>
<totfact> 0.15495909E+03</totfact>
</mgrwt>
</event>
<event>
 5    0  0.1972558E-002  0.2516416E+03  0.7546771E-02  0.1112272E+00
         21   -1    0    0  501  502  0.00000000000E+00  0.00000000000E+00  0.41056817782E+03  0.41056817782E+03  0.00000000000E+00 0. -1.
         21   -1    0    0  502  503 -0.00000000000E+00 -0.00000000000E+00 -0.18001935773E+03  0.18001935773E+03  0.00000000000E+00 0.  1.
         25    1    1    2    0    0  0.78825637333E+02  0.20367871708E+03 -0.24015202073E+02  0.25278494975E+03  0.12500000000E+03 0.  0.
          3    1    1    2  501    0 -0.51259509676E+02 -0.16983042506E+03  0.19080011876E+03  0.26052753391E+03  0.00000000000E+00 0. -1.
         -3    1    1    2    0  503 -0.27566127657E+02 -0.33848292011E+02  0.63763903402E+02  0.77275051881E+02  0.00000000000E+00 0.  1.
<mgrwt>
<rscale>  4 0.25164161E+03</rscale>
<asrwt>0</asrwt>
<pdfrwt beam="1">  1       21 0.63164335E-01 0.25164161E+03</pdfrwt>
<pdfrwt beam="2">  1       21 0.27695286E-01 0.25164161E+03</pdfrwt>
<totfact> 0.28008781E+04</totfact>
</mgrwt>
</event>
<event>
 5    0  0.1972558E-002  0.3093405E+03  0.7546771E-02  0.1080662E+00
         21   -1    0    0  501  502  0.00000000000E+00  0.00000000000E+00  0.68817338970E+03  0.68817338970E+03  0.00000000000E+00 0.  1.
         21   -1    0    0  502  503 -0.00000000000E+00 -0.00000000000E+00 -0.29360395417E+03  0.29360395417E+03  0.00000000000E+00 0.  1.
         25    1    1    2    0    0  0.11758473610E+03  0.28456667702E+03  0.32033240228E+03  0.46156495944E+03  0.12500000000E+03 0.  0.
          4    1    1    2  501    0 -0.12006824597E+02 -0.28013683416E+02  0.20940279237E+03  0.21160921471E+03  0.00000000000E+00 0. -1.
         -4    1    1    2    0  503 -0.10557791151E+03 -0.25655299360E+03 -0.13516575912E+03  0.30860316972E+03  0.00000000000E+00 0.  1.
<mgrwt>
<rscale>  4 0.30934054E+03</rscale>
<asrwt>0</asrwt>
<pdfrwt beam="1">  1       21 0.10587283E+00 0.30934054E+03</pdfrwt>
<pdfrwt beam="2">  1       21 0.45169839E-01 0.30934054E+03</pdfrwt>
<totfact> 0.31105335E+03</totfact>
</mgrwt>
</event>
<event>
 5    0  0.1972558E-002  0.1991188E+03  0.7546771E-02  0.1150485E+00
         21   -1    0    0  501  502  0.00000000000E+00  0.00000000000E+00  0.16154579173E+04  0.16154579173E+04  0.00000000000E+00 0.  1.
         21   -1    0    0  502  503 -0.00000000000E+00 -0.00000000000E+00 -0.40151548799E+02  0.40151548799E+02  0.00000000000E+00 0. -1.
         25    1    1    2    0    0  0.18333800081E+03  0.10024261362E+03  0.66080366381E+03  0.70423567521E+03  0.12500000000E+03 0.  0.
          3    1    1    2  501    0 -0.53682009489E+02 -0.66810267558E+02  0.64260367061E+03  0.64829379719E+03  0.00000000000E+00 0. -1.
         -3    1    1    2    0  503 -0.12965599132E+03 -0.33432346059E+02  0.27189903409E+03  0.30307999371E+03  0.00000000000E+00 0.  1.
<mgrwt>
<rscale>  4 0.19911883E+03</rscale>
<asrwt>0</asrwt>
<pdfrwt beam="1">  1       21 0.24853194E+00 0.19911883E+03</pdfrwt>
<pdfrwt beam="2">  1       21 0.61771626E-02 0.19911883E+03</pdfrwt>
<totfact> 0.12648972E+04</totfact>
</mgrwt>
</event>
<event>
 5    0  0.1972558E-002  0.2374450E+03  0.7546771E-02  0.1121507E+00
         21   -1    0    0  503  502  0.00000000000E+00  0.00000000000E+00  0.56367301045E+03  0.56367301045E+03  0.00000000000E+00 0. -1.
         21   -1    0    0  501  503 -0.00000000000E+00 -0.00000000000E+00 -0.86733217974E+03  0.86733217974E+03  0.00000000000E+00 0.  1.
         25    1    1    2    0    0 -0.13135637206E+03 -0.15293330243E+03 -0.79200324379E+03  0.82676310371E+03  0.12500000000E+03 0.  0.
          3    1    1    2  501    0  0.63254947809E+02 -0.63919292808E+02  0.33860879538E+02  0.96090704954E+02  0.00000000000E+00 0.  1.
         -3    1    1    2    0  502  0.68101424248E+02  0.21685259524E+03  0.45448319496E+03  0.50815138153E+03  0.00000000000E+00 0. -1.
<mgrwt>
<rscale>  4 0.23744500E+03</rscale>
<asrwt>0</asrwt>
<pdfrwt beam="1">  1       21 0.86718925E-01 0.23744500E+03</pdfrwt>
<pdfrwt beam="2">  1       21 0.13343572E+00 0.23744500E+03</pdfrwt>
<totfact> 0.44189918E+02</totfact>
</mgrwt>
</event>
<event>
 5    0  0.1972558E-002  0.5085566E+03  0.7546771E-02  0.1011569E+00
         21   -1    0    0  501  502  0.00000000000E+00  0.00000000000E+00  0.42242957318E+03  0.42242957318E+03  0.00000000000E+00 0.  1.
         21   -1    0    0  502  503 -0.00000000000E+00 -0.00000000000E+00 -0.10140062808E+04  0.10140062808E+04  0.00000000000E+00 0.  1.
         25    1    1    2    0    0  0.52642510363E+03 -0.51746486997E+02 -0.57914730506E+03  0.79425291287E+03  0.12500000000E+03 0.  0.
          2    1    1    2  501    0 -0.48236352867E+03 -0.46763263397E+02  0.90556386358E+02  0.49301301778E+03  0.00000000000E+00 0.  1.
         -2    1    1    2    0  503 -0.44061574961E+02  0.98509750394E+02 -0.10298578897E+03  0.14916992338E+03  0.00000000000E+00 0. -1.
<mgrwt>
<rscale>  4 0.50855661E+03</rscale>
<asrwt>0</asrwt>
<pdfrwt beam="1">  1       21 0.64989166E-01 0.50855661E+03</pdfrwt>
<pdfrwt beam="2">  1       21 0.15600096E+00 0.50855661E+03</pdfrwt>
<totfact> 0.47605445E+02</totfact>
</mgrwt>
</event>
<event>
 5    0  0.1972558E-002  0.3032397E+03  0.7546771E-02  0.1083632E+00
         21   -1    0    0  501  502  0.00000000000E+00  0.00000000000E+00  0.14707073543E+04  0.14707073543E+04  0.00000000000E+00 0.  1.
         21   -1    0    0  502  503 -0.00000000000E+00 -0.00000000000E+00 -0.14011918067E+03  0.14011918067E+03  0.00000000000E+00 0.  1.
         25    1    1    2    0    0 -0.23116201455E+03  0.18843202817E+03  0.13303496140E+03  0.34966527876E+03  0.12500000000E+03 0.  0.
          4    1    1    2  501    0  0.48099098136E+02 -0.40924881250E+02  0.77533625041E+03  0.77790402387E+03  0.00000000000E+00 0. -1.
         -4    1    1    2    0  503  0.18306291642E+03 -0.14750714692E+03  0.42221696183E+03  0.48325723235E+03  0.00000000000E+00 0.  1.
<mgrwt>
<rscale>  4 0.30323972E+03</rscale>
<asrwt>0</asrwt>
<pdfrwt beam="1">  1       21 0.22626266E+00 0.30323972E+03</pdfrwt>
<pdfrwt beam="2">  1       21 0.21556798E-01 0.30323972E+03</pdfrwt>
<totfact> 0.16754186E+03</totfact>
</mgrwt>
</event>
<event>
 5    0  0.1972558E-002  0.2502512E+03  0.7546771E-02  0.1113146E+00
         21   -1    0    0  501  502  0.00000000000E+00  0.00000000000E+00  0.47428842111E+03  0.47428842111E+03  0.00000000000E+00 0. -1.
         21   -1    0    0  502  503 -0.00000000000E+00 -0.00000000000E+00 -0.11177416016E+04  0.11177416016E+04  0.00000000000E+00 0.  1.
         25    1    1    2    0    0 -0.84013028544E+02  0.19686299687E+03 -0.10337834306E+04  0.10630834445E+04  0.12500000000E+03 0.  0.
          3    1    1    2  501    0 -0.22761465256E+02  0.50117774385E+02  0.17761234692E+03  0.18594628630E+03  0.00000000000E+00 0.  1.
         -3    1    1    2    0  503  0.10677449380E+03 -0.24698077126E+03  0.21271790323E+03  0.34300029191E+03  0.00000000000E+00 0. -1.
<mgrwt>
<rscale>  4 0.25025120E+03</rscale>
<asrwt>0</asrwt>
<pdfrwt beam="1">  1       21 0.72967450E-01 0.25025120E+03</pdfrwt>
<pdfrwt beam="2">  1       21 0.17196025E+00 0.25025120E+03</pdfrwt>
<totfact> 0.32824999E+02</totfact>
</mgrwt>
</event>
<event>
 5    0  0.1972558E-002  0.2436623E+03  0.7546771E-02  0.1117377E+00
         21   -1    0    0  501  502  0.00000000000E+00  0.00000000000E+00  0.62849273671E+03  0.62849273671E+03  0.00000000000E+00 0.  1.
         21   -1    0    0  502  503 -0.00000000000E+00 -0.00000000000E+00 -0.18622618837E+03  0.18622618837E+03  0.00000000000E+00 0.  1.
         25    1    1    2    0    0  0.21898691362E+03 -0.21873576609E+02  0.29647694063E+03  0.38981700581E+03  0.12500000000E+03 0.  0.
          2    1    1    2  501    0 -0.19912631417E+03 -0.54753746841E+02  0.23014695889E+03  0.30921979962E+03  0.00000000000E+00 0.  1.
         -2    1    1    2    0  503 -0.19860599447E+02  0.76627323450E+02 -0.84357351182E+02  0.11568211966E+03  0.00000000000E+00 0. -1.
<mgrwt>
<rscale>  4 0.24366234E+03</rscale>
<asrwt>0</asrwt>
<pdfrwt beam="1">  1       21 0.96691189E-01 0.24366234E+03</pdfrwt>
<pdfrwt beam="2">  1       21 0.28650183E-01 0.24366234E+03</pdfrwt>
<totfact> 0.10022620E+04</totfact>
</mgrwt>
</event>
<event>
 5    0  0.1972558E-002  0.2625994E+03  0.7546771E-02  0.1105591E+00
         21   -1    0    0  501  502  0.00000000000E+00  0.00000000000E+00  0.42132800932E+03  0.42132800932E+03  0.00000000000E+00 0. -1.
         21   -1    0    0  502  503 -0.00000000000E+00 -0.00000000000E+00 -0.28078502458E+03  0.28078502458E+03  0.00000000000E+00 0.  1.
         25    1    1    2    0    0 -0.22054006054E+03 -0.63735783334E+02 -0.10674823323E+03  0.28234793018E+03  0.12500000000E+03 0.  0.
          2    1    1    2  501    0  0.22968588504E+03  0.44887945418E+02  0.74346845124E+02  0.24555648395E+03  0.00000000000E+00 0.  1.
         -2    1    1    2    0  503 -0.91458245029E+01  0.18847837916E+02  0.17294437284E+03  0.17420861976E+03  0.00000000000E+00 0. -1.
<mgrwt>
<rscale>  4 0.26259943E+03</rscale>
<asrwt>0</asrwt>
<pdfrwt beam="1">  1       21 0.64819694E-01 0.26259943E+03</pdfrwt>
<pdfrwt beam="2">  1       21 0.43197696E-01 0.26259943E+03</pdfrwt>
<totfact> 0.10834687E+04</totfact>
</mgrwt>
</event>
<event>
 5    0  0.1972558E-002  0.2952182E+03  0.7546771E-02  0.1087656E+00
         21   -1    0    0  501  502  0.00000000000E+00  0.00000000000E+00  0.17440068263E+04  0.17440068263E+04  0.00000000000E+00 0.  1.
         21   -1    0    0  502  503 -0.00000000000E+00 -0.00000000000E+00 -0.91673006450E+02  0.91673006450E+02  0.00000000000E+00 0. -1.
         25    1    1    2    0    0  0.23786207802E+03  0.12335389979E+03  0.26964496482E+03  0.40015991779E+03  0.12500000000E+03 0.  0.
          1    1    1    2  501    0 -0.12155406951E+02  0.19470413405E+02  0.72908286400E+03  0.72944408525E+03  0.00000000000E+00 0. -1.
         -1    1    1    2    0  503 -0.22570667107E+03 -0.14282431320E+03  0.65360599107E+03  0.70607582976E+03  0.00000000000E+00 0.  1.
<mgrwt>
<rscale>  4 0.29521822E+03</rscale>
<asrwt>0</asrwt>
<pdfrwt beam="1">  1       21 0.26830872E+00 0.29521822E+03</pdfrwt>
<pdfrwt beam="2">  1       21 0.14103541E-01 0.29521822E+03</pdfrwt>
<totfact> 0.20687304E+03</totfact>
</mgrwt>
</event>
<event>
 5    0  0.1972558E-002  0.2501800E+03  0.7546771E-02  0.1113191E+00
         21   -1    0    0  501  502  0.00000000000E+00  0.00000000000E+00  0.27424946736E+03  0.27424946736E+03  0.00000000000E+00 0.  1.
         21   -1    0    0  502  503 -0.00000000000E+00 -0.00000000000E+00 -0.38411994629E+03  0.38411994629E+03  0.00000000000E+00 0.  1.
         25    1    1    2    0    0 -0.21312527724E+03 -0.34532967334E+02 -0.23633957563E+03  0.34365142898E+03  0.12500000000E+03 0.  0.
          1    1    1    2  501    0  0.69387936039E+01 -0.51337432697E+02  0.64888331379E+02  0.83031165243E+02  0.00000000000E+00 0. -1.
         -1    1    1    2    0  503  0.20618648363E+03  0.85870400031E+02  0.61580765323E+02  0.23168681942E+03  0.00000000000E+00 0.  1.
<mgrwt>
<rscale>  4 0.25017999E+03</rscale>
<asrwt>0</asrwt>
<pdfrwt beam="1">  1       21 0.42192226E-01 0.25017999E+03</pdfrwt>
<pdfrwt beam="2">  1       21 0.59095376E-01 0.25017999E+03</pdfrwt>
<totfact> 0.13992395E+04</totfact>
</mgrwt>
</event>
<event>
 5    0  0.1972558E-002  0.2368297E+03  0.7546771E-02  0.1121923E+00
         21   -1    0    0  501  502  0.00000000000E+00  0.00000000000E+00  0.29644788901E+03  0.29644788901E+03  0.00000000000E+00 0.  1.
         21   -1    0    0  502  503 -0.00000000000E+00 -0.00000000000E+00 -0.10719575133E+04  0.10719575133E+04  0.00000000000E+00 0. -1.
         25    1    1    2    0    0  0.15798800887E+03 -0.13304946412E+03 -0.97764851818E+03  0.10070173762E+04  0.12500000000E+03 0.  0.
          1    1    1    2  501    0 -0.13988694222E+03  0.93629845451E+02  0.14671736903E+02  0.16896793905E+03  0.00000000000E+00 0. -1.
         -1    1    1    2    0  503 -0.18101066648E+02  0.39419618665E+02  0.18746715700E+03  0.19242008705E+03  0.00000000000E+00 0.  1.
<mgrwt>
<rscale>  4 0.23682968E+03</rscale>
<asrwt>0</asrwt>
<pdfrwt beam="1">  1       21 0.45607368E-01 0.23682968E+03</pdfrwt>
<pdfrwt beam="2">  1       21 0.16491654E+00 0.23682968E+03</pdfrwt>
<totfact> 0.10236252E+03</totfact>
</mgrwt>
</event>
<event>
 5    0  0.1972558E-002  0.2516847E+03  0.7546771E-02  0.1112245E+00
         21   -1    0    0  501  502  0.00000000000E+00  0.00000000000E+00  0.65920724721E+03  0.65920724721E+03  0.00000000000E+00 0.  1.
         21   -1    0    0  502  503 -0.00000000000E+00 -0.00000000000E+00 -0.23028465946E+03  0.23028465946E+03  0.00000000000E+00 0. -1.
         25    1    1    2    0    0  0.73961901528E+02 -0.20656260537E+03 -0.10746440793E+03  0.27443044982E+03  0.12500000000E+03 0.  0.
          3    1    1    2  501    0 -0.49363890568E+02  0.21038048223E+03  0.26231605665E+03  0.33986240535E+03  0.00000000000E+00 0. -1.
         -3    1    1    2    0  503 -0.24598010960E+02 -0.38178768614E+01  0.27407093903E+03  0.27519905150E+03  0.00000000000E+00 0.  1.
<mgrwt>
<rscale>  4 0.25168470E+03</rscale>
<asrwt>0</asrwt>
<pdfrwt beam="1">  1       21 0.10141650E+00 0.25168470E+03</pdfrwt>
<pdfrwt beam="2">  1       21 0.35428409E-01 0.25168470E+03</pdfrwt>
<totfact> 0.58536209E+03</totfact>
</mgrwt>
</event>
<event>
 5    0  0.1972558E-002  0.2967358E+03  0.7546771E-02  0.1086884E+00
         21   -1    0    0  503  502  0.00000000000E+00  0.00000000000E+00  0.16789827089E+04  0.16789827089E+04  0.00000000000E+00 0.  1.
         21   -1    0    0  501  503 -0.00000000000E+00 -0.00000000000E+00 -0.73513757493E+02  0.73513757493E+02  0.00000000000E+00 0. -1.
         25    1    1    2    0    0  0.15800803511E+03  0.18111643852E+03  0.78821568124E+03  0.83347385299E+03  0.12500000000E+03 0.  0.
          1    1    1    2  501    0  0.98173795452E+02  0.10050462680E+02  0.15656047157E+03  0.18506833109E+03  0.00000000000E+00 0. -1.
         -1    1    1    2    0  502 -0.25618183056E+03 -0.19116690120E+03  0.66069279864E+03  0.73395428236E+03  0.00000000000E+00 0.  1.
<mgrwt>
<rscale>  4 0.29673581E+03</rscale>
<asrwt>0</asrwt>
<pdfrwt beam="1">  1       21 0.25830500E+00 0.29673581E+03</pdfrwt>
<pdfrwt beam="2">  1       21 0.11309810E-01 0.29673581E+03</pdfrwt>
<totfact> 0.35372671E+03</totfact>
</mgrwt>
</event>
<event>
 5    0  0.1972558E-002  0.3057688E+03  0.7546771E-02  0.1082481E+00
         21   -1    0    0  503  502  0.00000000000E+00  0.00000000000E+00  0.48023776660E+03  0.48023776660E+03  0.00000000000E+00 0. -1.
         21   -1    0    0  501  503 -0.00000000000E+00 -0.00000000000E+00 -0.46981291567E+03  0.46981291567E+03  0.00000000000E+00 0. -1.
         25    1    1    2    0    0  0.87292399844E+02  0.26420051427E+03 -0.35861316304E+03  0.47079748886E+03  0.12500000000E+03 0.  0.
          3    1    1    2  501    0 -0.85322482374E+02 -0.10138388867E+03  0.10509587785E+03  0.16912646872E+03  0.00000000000E+00 0.  1.
         -3    1    1    2    0  502 -0.19699174702E+01 -0.16281662560E+03  0.26394213612E+03  0.31012672469E+03  0.00000000000E+00 0. -1.
<mgrwt>
<rscale>  4 0.30558541E+03</rscale>
<asrwt>0</asrwt>
<pdfrwt beam="1">  1       21 0.73882734E-01 0.30576881E+03</pdfrwt>
<pdfrwt beam="2">  1       21 0.72278910E-01 0.30576881E+03</pdfrwt>
<totfact> 0.26240823E+03</totfact>
</mgrwt>
</event>
<event>
 5    0  0.1972558E-002  0.2373554E+03  0.7546771E-02  0.1121567E+00
         21   -1    0    0  501  502  0.00000000000E+00  0.00000000000E+00  0.36078294676E+03  0.36078294676E+03  0.00000000000E+00 0. -1.
         21   -1    0    0  502  503 -0.00000000000E+00 -0.00000000000E+00 -0.47899315538E+03  0.47899315538E+03  0.00000000000E+00 0.  1.
         25    1    1    2    0    0  0.16306139240E+03  0.12398970934E+03 -0.40577513361E+03  0.47142435742E+03  0.12500000000E+03 0.  0.
          2    1    1    2  501    0 -0.18444881514E+02 -0.13445865586E+02  0.11596815706E+03  0.11819314027E+03  0.00000000000E+00 0.  1.
         -2    1    1    2    0  503 -0.14461651088E+03 -0.11054384376E+03  0.17159676794E+03  0.25015860445E+03  0.00000000000E+00 0. -1.
<mgrwt>
<rscale>  4 0.23735545E+03</rscale>
<asrwt>0</asrwt>
<pdfrwt beam="1">  1       21 0.55505069E-01 0.23735545E+03</pdfrwt>
<pdfrwt beam="2">  1       21 0.73691254E-01 0.23735545E+03</pdfrwt>
<totfact> 0.48971656E+03</totfact>
</mgrwt>
</event>
<event>
 5    0  0.1972558E-002  0.1987134E+03  0.7546771E-02  0.1150829E+00
         21   -1    0    0  501  502  0.00000000000E+00  0.00000000000E+00  0.43891583283E+03  0.43891583283E+03  0.00000000000E+00 0.  1.
         21   -1    0    0  502  503 -0.00000000000E+00 -0.00000000000E+00 -0.25326179556E+03  0.25326179556E+03  0.00000000000E+00 0. -1.
         25    1    1    2    0    0  0.16509986123E+03  0.11615709831E+03 -0.15517854690E+02  0.23794167243E+03  0.12500000000E+03 0.  0.
          1    1    1    2  501    0 -0.13728109548E+03  0.35982681446E+02 -0.57280037575E+02  0.15304200484E+03  0.00000000000E+00 0. -1.
         -1    1    1    2    0  503 -0.27818765751E+02 -0.15213977976E+03  0.25845192953E+03  0.30119395112E+03  0.00000000000E+00 0.  1.
<mgrwt>
<rscale>  4 0.19871344E+03</rscale>
<asrwt>0</asrwt>
<pdfrwt beam="1">  1       21 0.67525513E-01 0.19871344E+03</pdfrwt>
<pdfrwt beam="2">  1       21 0.38963353E-01 0.19871344E+03</pdfrwt>
<totfact> 0.12685576E+04</totfact>
</mgrwt>
</event>
<event>
 5    0  0.1972558E-002  0.2561614E+03  0.7546771E-02  0.1109472E+00
         21   -1    0    0  501  502  0.00000000000E+00  0.00000000000E+00  0.49840292017E+03  0.49840292017E+03  0.00000000000E+00 0.  1.
         21   -1    0    0  502  503 -0.00000000000E+00 -0.00000000000E+00 -0.25742098512E+03  0.25742098512E+03  0.00000000000E+00 0.  1.
         25    1    1    2    0    0 -0.21272693949E+03  0.82366551620E+02 -0.32222470717E+02  0.26210739637E+03  0.12500000000E+03 0.  0.
          1    1    1    2  501    0  0.21854911635E+03 -0.36030678457E+02  0.50820808588E+01  0.22155756271E+03  0.00000000000E+00 0.  1.
         -1    1    1    2    0  503 -0.58221768612E+01 -0.46335873163E+02  0.26812232492E+03  0.27215894621E+03  0.00000000000E+00 0. -1.
<mgrwt>
<rscale>  4 0.25616145E+03</rscale>
<asrwt>0</asrwt>
<pdfrwt beam="1">  1       21 0.76677372E-01 0.25616145E+03</pdfrwt>
<pdfrwt beam="2">  1       21 0.39603229E-01 0.25616145E+03</pdfrwt>
<totfact> 0.89350156E+03</totfact>
</mgrwt>
</event>
<event>
 5    0  0.1972558E-002  0.2379556E+03  0.7546771E-02  0.1121162E+00
         21   -1    0    0  501  502  0.00000000000E+00  0.00000000000E+00  0.20776403602E+03  0.20776403602E+03  0.00000000000E+00 0.  1.
         21   -1    0    0  502  503 -0.00000000000E+00 -0.00000000000E+00 -0.36627794179E+03  0.36627794179E+03  0.00000000000E+00 0.  1.
         25    1    1    2    0    0 -0.14475882756E+01  0.21838893853E+03 -0.15387922856E+03  0.29495701545E+03  0.12500000000E+03 0.  0.
          3    1    1    2  501    0  0.72127761179E+02 -0.17763978655E+03 -0.29076793845E+02  0.19391690911E+03  0.00000000000E+00 0.  1.
         -3    1    1    2    0  503 -0.70680172903E+02 -0.40749151976E+02  0.24442116634E+02  0.85168053247E+02  0.00000000000E+00 0. -1.
<mgrwt>
<rscale>  4 0.23795556E+03</rscale>
<asrwt>0</asrwt>
<pdfrwt beam="1">  1       21 0.31963699E-01 0.23795556E+03</pdfrwt>
<pdfrwt beam="2">  1       21 0.56350451E-01 0.23795556E+03</pdfrwt>
<totfact> 0.27233578E+04</totfact>
</mgrwt>
</event>
<event>
 5    0  0.1972558E-002  0.3043172E+03  0.7546771E-02  0.1083102E+00
         21   -1    0    0  501  502  0.00000000000E+00  0.00000000000E+00  0.43170576050E+03  0.43170576050E+03  0.00000000000E+00 0.  1.
         21   -1    0    0  502  503 -0.00000000000E+00 -0.00000000000E+00 -0.26784810762E+03  0.26784810762E+03  0.00000000000E+00 0.  1.
         25    1    1    2    0    0 -0.29073890058E+03 -0.25039554431E+02 -0.27610593901E+02  0.31865880263E+03  0.12500000000E+03 0.  0.
          1    1    1    2  501    0  0.25857581474E+03  0.21309171091E+02  0.90373139143E+02  0.27474140027E+03  0.00000000000E+00 0.  1.
         -1    1    1    2    0  503  0.32163085839E+02  0.37303833398E+01  0.10109510764E+03  0.10615366522E+03  0.00000000000E+00 0. -1.
<mgrwt>
<rscale>  4 0.30431720E+03</rscale>
<asrwt>0</asrwt>
<pdfrwt beam="1">  1       21 0.66416271E-01 0.30431720E+03</pdfrwt>
<pdfrwt beam="2">  1       21 0.41207401E-01 0.30431720E+03</pdfrwt>
<totfact> 0.11093194E+04</totfact>
</mgrwt>
</event>
<event>
 5    0  0.1972558E-002  0.2635785E+03  0.7546771E-02  0.1105012E+00
         21   -1    0    0  501  502  0.00000000000E+00  0.00000000000E+00  0.79908609447E+02  0.79908609447E+02  0.00000000000E+00 0. -1.
         21   -1    0    0  502  503 -0.00000000000E+00 -0.00000000000E+00 -0.21471915281E+04  0.21471915281E+04  0.00000000000E+00 0.  1.
         25    1    1    2    0    0  0.16892322154E+02 -0.21531878820E+03 -0.10237963971E+04  0.10537701808E+04  0.12500000000E+03 0.  0.
          2    1    1    2  501    0  0.40041084354E+02 -0.26512007613E+02  0.39519446328E+02  0.62192938683E+02  0.00000000000E+00 0. -1.
         -2    1    1    2    0  503 -0.56933406508E+02  0.24183079582E+03 -0.10830059678E+04  0.11111370181E+04  0.00000000000E+00 0.  1.
<mgrwt>
<rscale>  4 0.26357852E+03</rscale>
<asrwt>0</asrwt>
<pdfrwt beam="1">  1       21 0.12293634E-01 0.26357852E+03</pdfrwt>
<pdfrwt beam="2">  1       21 0.33033712E+00 0.26357852E+03</pdfrwt>
<totfact> 0.11773206E+03</totfact>
</mgrwt>
</event>
<event>
 5    0  0.1972558E-002  0.2414152E+03  0.7546771E-02  0.1118854E+00
         21   -1    0    0  501  502  0.00000000000E+00  0.00000000000E+00  0.80514272037E+03  0.80514272037E+03  0.00000000000E+00 0. -1.
         21   -1    0    0  502  503 -0.00000000000E+00 -0.00000000000E+00 -0.17323604771E+03  0.17323604771E+03  0.00000000000E+00 0. -1.
         25    1    1    2    0    0 -0.85680618261E+02 -0.18829382894E+03 -0.39307145721E+02  0.24487912543E+03  0.12500000000E+03 0.  0.
          3    1    1    2  501    0 -0.19894510646E+02  0.10983266251E+02  0.35611970659E+03  0.35684404032E+03  0.00000000000E+00 0.  1.
         -3    1    1    2    0  503  0.10557512891E+03  0.17731056269E+03  0.31509411179E+03  0.37665560233E+03  0.00000000000E+00 0. -1.
<mgrwt>
<rscale>  4 0.24141517E+03</rscale>
<asrwt>0</asrwt>
<pdfrwt beam="1">  1       21 0.12386811E+00 0.24141517E+03</pdfrwt>
<pdfrwt beam="2">  1       21 0.26651700E-01 0.24141517E+03</pdfrwt>
<totfact> 0.63136808E+03</totfact>
</mgrwt>
</event>
<event>
 5    0  0.1972558E-002  0.1835980E+03  0.7546771E-02  0.1164366E+00
         21   -1    0    0  501  502  0.00000000000E+00  0.00000000000E+00  0.87343180021E+03  0.87343180021E+03  0.00000000000E+00 0. -1.
         21   -1    0    0  502  503 -0.00000000000E+00 -0.00000000000E+00 -0.17968909326E+03  0.17968909326E+03  0.00000000000E+00 0.  1.
         25    1    1    2    0    0  0.13136538794E+03 -0.15467953216E+03 -0.57743424710E+02  0.24523850823E+03  0.12500000000E+03 0.  0.
          2    1    1    2  501    0 -0.62020280985E+02  0.42576621084E+02  0.41806038131E+02  0.86064096699E+02  0.00000000000E+00 0.  1.
         -2    1    1    2    0  503 -0.69345106958E+02  0.11210291108E+03  0.70968009353E+03  0.72181828855E+03  0.00000000000E+00 0. -1.
<mgrwt>
<rscale>  4 0.18359802E+03</rscale>
<asrwt>0</asrwt>
<pdfrwt beam="1">  1       21 0.13437412E+00 0.18359802E+03</pdfrwt>
<pdfrwt beam="2">  1       21 0.27644476E-01 0.18359802E+03</pdfrwt>
<totfact> 0.50016819E+03</totfact>
</mgrwt>
</event>
<event>
 5    0  0.1972558E-002  0.2695714E+03  0.7546771E-02  0.1101525E+00
         21   -1    0    0  501  502  0.00000000000E+00  0.00000000000E+00  0.18353976395E+03  0.18353976395E+03  0.00000000000E+00 0.  1.
         21   -1    0    0  502  503 -0.00000000000E+00 -0.00000000000E+00 -0.78083099430E+03  0.78083099430E+03  0.00000000000E+00 0.  1.
         25    1    1    2    0    0  0.23171477505E+02 -0.22771522114E+03 -0.52852541455E+03  0.58936852066E+03  0.12500000000E+03 0.  0.
          3    1    1    2  501    0  0.46441468535E+01 -0.36146698714E+02  0.67516490071E+02  0.76724366139E+02  0.00000000000E+00 0. -1.
         -3    1    1    2    0  503 -0.27815624358E+02  0.26386191986E+03 -0.13628230587E+03  0.29827787146E+03  0.00000000000E+00 0.  1.
<mgrwt>
<rscale>  4 0.26957138E+03</rscale>
<asrwt>0</asrwt>
<pdfrwt beam="1">  1       21 0.28236887E-01 0.26957138E+03</pdfrwt>
<pdfrwt beam="2">  1       21 0.12012784E+00 0.26957138E+03</pdfrwt>
<totfact> 0.59922843E+03</totfact>
</mgrwt>
</event>
<event>
 5    0  0.1972558E-002  0.2622893E+03  0.7546771E-02  0.1105776E+00
         21   -1    0    0  501  502  0.00000000000E+00  0.00000000000E+00  0.18555688928E+03  0.18555688928E+03  0.00000000000E+00 0. -1.
         21   -1    0    0  502  503 -0.00000000000E+00 -0.00000000000E+00 -0.55789402402E+03  0.55789402402E+03  0.00000000000E+00 0. -1.
         25    1    1    2    0    0  0.18566924128E+03  0.89323380721E+02  0.27804114803E+01  0.24100718701E+03  0.12500000000E+03 0.  0.
          2    1    1    2  501    0 -0.23307394249E+03 -0.52301492634E+02 -0.37215848032E+03  0.44222261733E+03  0.00000000000E+00 0. -1.
         -2    1    1    2    0  503  0.47404701209E+02 -0.37021888088E+02 -0.29590658974E+01  0.60221108968E+02  0.00000000000E+00 0.  1.
<mgrwt>
<rscale>  4 0.26228928E+03</rscale>
<asrwt>0</asrwt>
<pdfrwt beam="1">  1       21 0.28547214E-01 0.26228928E+03</pdfrwt>
<pdfrwt beam="2">  1       21 0.85829849E-01 0.26228928E+03</pdfrwt>
<totfact> 0.13204225E+04</totfact>
</mgrwt>
</event>
<event>
 5    0  0.1972558E-002  0.2127122E+03  0.7546771E-02  0.1139436E+00
         21   -1    0    0  501  502  0.00000000000E+00  0.00000000000E+00  0.38637880861E+03  0.38637880861E+03  0.00000000000E+00 0. -1.
         21   -1    0    0  502  503 -0.00000000000E+00 -0.00000000000E+00 -0.10605194517E+04  0.10605194517E+04  0.00000000000E+00 0.  1.
         25    1    1    2    0    0  0.27064236667E+03  0.69107630833E+02 -0.87428544926E+03  0.92629541835E+03  0.12500000000E+03 0.  0.
          4    1    1    2  501    0 -0.10115235625E+03 -0.79793551681E+02 -0.10842345691E+03  0.16838781450E+03  0.00000000000E+00 0.  1.
         -4    1    1    2    0  503 -0.16949001043E+03  0.10685920847E+02  0.30856826311E+03  0.35221502742E+03  0.00000000000E+00 0. -1.
<mgrwt>
<rscale>  4 0.21271222E+03</rscale>
<asrwt>0</asrwt>
<pdfrwt beam="1">  1       21 0.59442894E-01 0.21271222E+03</pdfrwt>
<pdfrwt beam="2">  1       21 0.16315684E+00 0.21271222E+03</pdfrwt>
<totfact> 0.61743579E+02</totfact>
</mgrwt>
</event>
<event>
 5    0  0.1972558E-002  0.2945548E+03  0.7546771E-02  0.1087995E+00
         21   -1    0    0  501  502  0.00000000000E+00  0.00000000000E+00  0.10840299796E+03  0.10840299796E+03  0.00000000000E+00 0.  1.
         21   -1    0    0  502  503 -0.00000000000E+00 -0.00000000000E+00 -0.16445246088E+04  0.16445246088E+04  0.00000000000E+00 0. -1.
         25    1    1    2    0    0  0.21418739693E+03  0.17537791692E+03 -0.68170582851E+03  0.74631192632E+03  0.12500000000E+03 0.  0.
          2    1    1    2  501    0 -0.14211019353E+03 -0.22467484205E+03 -0.87700973661E+03  0.91641702836E+03  0.00000000000E+00 0. -1.
         -2    1    1    2    0  503 -0.72077203393E+02  0.49296925130E+02  0.22593954246E+02  0.90198652122E+02  0.00000000000E+00 0.  1.
<mgrwt>
<rscale>  4 0.29455481E+03</rscale>
<asrwt>0</asrwt>
<pdfrwt beam="1">  1       21 0.16677385E-01 0.29455481E+03</pdfrwt>
<pdfrwt beam="2">  1       21 0.25300378E+00 0.29455481E+03</pdfrwt>
<totfact> 0.18753703E+03</totfact>
</mgrwt>
</event>
<event>
 5    0  0.1972558E-002  0.3437911E+03  0.7546771E-02  0.1065193E+00
         21   -1    0    0  501  502  0.00000000000E+00  0.00000000000E+00  0.56311903792E+03  0.56311903792E+03  0.00000000000E+00 0. -1.
         21   -1    0    0  502  503 -0.00000000000E+00 -0.00000000000E+00 -0.88967686092E+03  0.88967686092E+03  0.00000000000E+00 0.  1.
         25    1    1    2    0    0 -0.18107043582E+03 -0.26335485557E+03 -0.74811164505E+03  0.82306641053E+03  0.12500000000E+03 0.  0.
          3    1    1    2  501    0  0.22600122002E+03  0.23836843391E+03  0.16408570156E+03  0.36717867475E+03  0.00000000000E+00 0.  1.
         -3    1    1    2    0  503 -0.44930784208E+02  0.24986421668E+02  0.25746812049E+03  0.26255081357E+03  0.00000000000E+00 0. -1.
<mgrwt>
<rscale>  4 0.34379108E+03</rscale>
<asrwt>0</asrwt>
<pdfrwt beam="1">  1       21 0.86633698E-01 0.34379108E+03</pdfrwt>
<pdfrwt beam="2">  1       21 0.13687336E+00 0.34379108E+03</pdfrwt>
<totfact> 0.38217166E+02</totfact>
</mgrwt>
</event>
<event>
 5    0  0.1972558E-002  0.2403810E+03  0.7546771E-02  0.1119539E+00
         21   -1    0    0  501  502  0.00000000000E+00  0.00000000000E+00  0.82741835393E+03  0.82741835393E+03  0.00000000000E+00 0.  1.
         21   -1    0    0  502  503 -0.00000000000E+00 -0.00000000000E+00 -0.83717699721E+02  0.83717699721E+02  0.00000000000E+00 0.  1.
         25    1    1    2    0    0  0.18338617492E+03 -0.12943651049E+03  0.27455379971E+03  0.37601740430E+03  0.12500000000E+03 0.  0.
          4    1    1    2  501    0 -0.18087762622E+03  0.81237302753E+02  0.42798462265E+03  0.47168533181E+03  0.00000000000E+00 0.  1.
         -4    1    1    2    0  503 -0.25085486984E+01  0.48199207737E+02  0.41162231852E+02  0.63433317539E+02  0.00000000000E+00 0. -1.
<mgrwt>
<rscale>  4 0.24038101E+03</rscale>
<asrwt>0</asrwt>
<pdfrwt beam="1">  1       21 0.12729513E+00 0.24038101E+03</pdfrwt>
<pdfrwt beam="2">  1       21 0.12879647E-01 0.24038101E+03</pdfrwt>
<totfact> 0.22909388E+04</totfact>
</mgrwt>
</event>
<event>
 5    0  0.1972558E-002  0.3148210E+03  0.7546771E-02  0.1078058E+00
         21   -1    0    0  501  502  0.00000000000E+00  0.00000000000E+00  0.13270995737E+03  0.13270995737E+03  0.00000000000E+00 0. -1.
         21   -1    0    0  502  503 -0.00000000000E+00 -0.00000000000E+00 -0.10819103186E+04  0.10819103186E+04  0.00000000000E+00 0. -1.
         25    1    1    2    0    0  0.26755464177E+03 -0.14011242589E+03 -0.77821509051E+03  0.84407387432E+03  0.12500000000E+03 0.  0.
          4    1    1    2  501    0 -0.30413700641E+02  0.27424310515E+02  0.20293766401E+02  0.45704736611E+02  0.00000000000E+00 0.  1.
         -4    1    1    2    0  503 -0.23714094113E+03  0.11268811537E+03 -0.19127903715E+03  0.32484166506E+03  0.00000000000E+00 0. -1.
<mgrwt>
<rscale>  4 0.31482096E+03</rscale>
<asrwt>0</asrwt>
<pdfrwt beam="1">  1       21 0.20416918E-01 0.31482096E+03</pdfrwt>
<pdfrwt beam="2">  1       21 0.16644773E+00 0.31482096E+03</pdfrwt>
<totfact> 0.46159722E+03</totfact>
</mgrwt>
</event>
<event>
 5    0  0.1972558E-002  0.2823624E+03  0.7546771E-02  0.1094406E+00
         21   -1    0    0  501  502  0.00000000000E+00  0.00000000000E+00  0.77821672085E+02  0.77821672085E+02  0.00000000000E+00 0. -1.
         21   -1    0    0  502  503 -0.00000000000E+00 -0.00000000000E+00 -0.21555687219E+04  0.21555687219E+04  0.00000000000E+00 0.  1.
         25    1    1    2    0    0  0.17943747474E+02  0.25278971246E+03 -0.11991907454E+04  0.12320341151E+04  0.12500000000E+03 0.  0.
          1    1    1    2  501    0 -0.56751146948E+02 -0.24807376224E+03 -0.91389087087E+03  0.94866106068E+03  0.00000000000E+00 0.  1.
         -1    1    1    2    0  503  0.38807399473E+02 -0.47159502181E+01  0.35334566454E+02  0.52695218254E+02  0.00000000000E+00 0. -1.
<mgrwt>
<rscale>  4 0.28236244E+03</rscale>
<asrwt>0</asrwt>
<pdfrwt beam="1">  1       21 0.11972567E-01 0.28236244E+03</pdfrwt>
<pdfrwt beam="2">  1       21 0.33162591E+00 0.28236244E+03</pdfrwt>
<totfact> 0.11910014E+03</totfact>
</mgrwt>
</event>
<event>
 5    0  0.1972558E-002  0.2341934E+03  0.7546771E-02  0.1123723E+00
         21   -1    0    0  501  502  0.00000000000E+00  0.00000000000E+00  0.46179000525E+03  0.46179000525E+03  0.00000000000E+00 0. -1.
         21   -1    0    0  502  503 -0.00000000000E+00 -0.00000000000E+00 -0.18482594449E+03  0.18482594449E+03  0.00000000000E+00 0.  1.
         25    1    1    2    0    0 -0.19991418119E+03  0.54239914979E+02 -0.24322547996E+01  0.24194744074E+03  0.12500000000E+03 0.  0.
          2    1    1    2  501    0  0.14319640430E+02 -0.25417379981E+02  0.19771649349E+03  0.19985721679E+03  0.00000000000E+00 0. -1.
         -2    1    1    2    0  503  0.18559454076E+03 -0.28822534998E+02  0.81679822080E+02  0.20481129221E+03  0.00000000000E+00 0.  1.
<mgrwt>
<rscale>  4 0.23419342E+03</rscale>
<asrwt>0</asrwt>
<pdfrwt beam="1">  1       21 0.71044616E-01 0.23419342E+03</pdfrwt>
<pdfrwt beam="2">  1       21 0.28434761E-01 0.23419342E+03</pdfrwt>
<totfact> 0.20714317E+04</totfact>
</mgrwt>
</event>
<event>
 5    0  0.1972558E-002  0.2428254E+03  0.7546771E-02  0.1117925E+00
         21   -1    0    0  501  502  0.00000000000E+00  0.00000000000E+00  0.11772909021E+04  0.11772909021E+04  0.00000000000E+00 0.  1.
         21   -1    0    0  502  503 -0.00000000000E+00 -0.00000000000E+00 -0.61478733313E+02  0.61478733313E+02  0.00000000000E+00 0.  1.
         25    1    1    2    0    0  0.22856173086E+03  0.26584488637E+02  0.45373478694E+03  0.52387732985E+03  0.12500000000E+03 0.  0.
          2    1    1    2  501    0 -0.19380947131E+03 -0.45783753963E+02  0.63823092351E+03  0.66857832378E+03  0.00000000000E+00 0.  1.
         -2    1    1    2    0  503 -0.34752259550E+02  0.19199265327E+02  0.23846458318E+02  0.46313981768E+02  0.00000000000E+00 0. -1.
<mgrwt>
<rscale>  4 0.24282538E+03</rscale>
<asrwt>0</asrwt>
<pdfrwt beam="1">  1       21 0.18112166E+00 0.24282538E+03</pdfrwt>
<pdfrwt beam="2">  1       21 0.94582675E-02 0.24282538E+03</pdfrwt>
<totfact> 0.15458916E+04</totfact>
</mgrwt>
</event>
<event>
 5    0  0.1972558E-002  0.2697719E+03  0.7546771E-02  0.1101410E+00
         21   -1    0    0  501  502  0.00000000000E+00  0.00000000000E+00  0.25435677015E+03  0.25435677015E+03  0.00000000000E+00 0.  1.
         21   -1    0    0  502  503 -0.00000000000E+00 -0.00000000000E+00 -0.57608416023E+03  0.57608416023E+03  0.00000000000E+00 0. -1.
         25    1    1    2    0    0 -0.23528226690E+03 -0.39785068437E+02 -0.44049791881E+03  0.51633711203E+03  0.12500000000E+03 0.  0.
          2    1    1    2  501    0  0.24158214003E+03  0.14276646407E+02  0.59411641636E+02  0.24918967912E+03  0.00000000000E+00 0. -1.
         -2    1    1    2    0  503 -0.62998731359E+01  0.25508422030E+02  0.59358887088E+02  0.64914139232E+02  0.00000000000E+00 0.  1.
<mgrwt>
<rscale>  4 0.26977189E+03</rscale>
<asrwt>0</asrwt>
<pdfrwt beam="1">  1       21 0.39131811E-01 0.26977189E+03</pdfrwt>
<pdfrwt beam="2">  1       21 0.88628332E-01 0.26977189E+03</pdfrwt>
<totfact> 0.65183799E+03</totfact>
</mgrwt>
</event>
<event>
 5    0  0.1972558E-002  0.4067294E+03  0.7546771E-02  0.1041474E+00
         21   -1    0    0  501  502  0.00000000000E+00  0.00000000000E+00  0.11020440635E+04  0.11020440635E+04  0.00000000000E+00 0.  1.
         21   -1    0    0  502  503 -0.00000000000E+00 -0.00000000000E+00 -0.65342927741E+03  0.65342927741E+03  0.00000000000E+00 0. -1.
         25    1    1    2    0    0  0.99491746899E+02  0.37088673062E+03 -0.48763035515E+03  0.63313816653E+03  0.12500000000E+03 0.  0.
          1    1    1    2  501    0 -0.13238419413E+03 -0.38443031393E+03  0.35427841061E+03  0.53928233176E+03  0.00000000000E+00 0. -1.
         -1    1    1    2    0  503  0.32892447228E+02  0.13543583313E+02  0.58196673066E+03  0.58305284266E+03  0.00000000000E+00 0.  1.
<mgrwt>
<rscale>  4 0.40672937E+03</rscale>
<asrwt>0</asrwt>
<pdfrwt beam="1">  1       21 0.16954524E+00 0.40672937E+03</pdfrwt>
<pdfrwt beam="2">  1       21 0.10052758E+00 0.40672937E+03</pdfrwt>
<totfact> 0.14417269E+02</totfact>
</mgrwt>
</event>
<event>
 5    0  0.1972558E-002  0.2406901E+03  0.7546771E-02  0.1119334E+00
         21   -1    0    0  501  502  0.00000000000E+00  0.00000000000E+00  0.53774962519E+03  0.53774962519E+03  0.00000000000E+00 0.  1.
         21   -1    0    0  502  503 -0.00000000000E+00 -0.00000000000E+00 -0.84466150071E+03  0.84466150071E+03  0.00000000000E+00 0. -1.
         25    1    1    2    0    0  0.20732341049E+03  0.15456172743E+02 -0.77947026101E+03  0.81634599136E+03  0.12500000000E+03 0.  0.
          2    1    1    2  501    0 -0.27051907604E+02 -0.92456674809E+02  0.25821815426E+03  0.27560235414E+03  0.00000000000E+00 0.  1.
         -2    1    1    2    0  503 -0.18027150289E+03  0.77000502066E+02  0.21434023123E+03  0.29046278040E+03  0.00000000000E+00 0. -1.
<mgrwt>
<rscale>  4 0.24069008E+03</rscale>
<asrwt>0</asrwt>
<pdfrwt beam="1">  1       21 0.82730712E-01 0.24069008E+03</pdfrwt>
<pdfrwt beam="2">  1       21 0.12994792E+00 0.24069008E+03</pdfrwt>
<totfact> 0.52527869E+02</totfact>
</mgrwt>
</event>
<event>
 5    0  0.1972558E-002  0.2409661E+03  0.7546771E-02  0.1119151E+00
         21   -1    0    0  501  502  0.00000000000E+00  0.00000000000E+00  0.23058400682E+03  0.23058400682E+03  0.00000000000E+00 0. -1.
         21   -1    0    0  502  503 -0.00000000000E+00 -0.00000000000E+00 -0.15274180270E+04  0.15274180270E+04  0.00000000000E+00 0.  1.
         25    1    1    2    0    0 -0.20197719850E+03  0.10377075805E+02 -0.13142769653E+04  0.13356090049E+04  0.12500000000E+03 0.  0.
          2    1    1    2  501    0  0.23188451302E+03  0.33833896167E+02 -0.12831431959E+03  0.26716984209E+03  0.00000000000E+00 0.  1.
         -2    1    1    2    0  503 -0.29907314523E+02 -0.44210971972E+02  0.14575726473E+03  0.15522318682E+03  0.00000000000E+00 0. -1.
<mgrwt>
<rscale>  4 0.24096607E+03</rscale>
<asrwt>0</asrwt>
<pdfrwt beam="1">  1       21 0.35474464E-01 0.24096607E+03</pdfrwt>
<pdfrwt beam="2">  1       21 0.23498738E+00 0.24096607E+03</pdfrwt>
<totfact> 0.59170771E+02</totfact>
</mgrwt>
</event>
<event>
 5    0  0.1972558E-002  0.3445844E+03  0.7546771E-02  0.1064860E+00
         21   -1    0    0  501  502  0.00000000000E+00  0.00000000000E+00  0.20750594073E+03  0.20750594073E+03  0.00000000000E+00 0. -1.
         21   -1    0    0  502  503 -0.00000000000E+00 -0.00000000000E+00 -0.12823778580E+04  0.12823778580E+04  0.00000000000E+00 0.  1.
         25    1    1    2    0    0  0.33119818254E+03 -0.45986668704E+02 -0.93252520818E+03  0.99851653652E+03  0.12500000000E+03 0.  0.
          2    1    1    2  501    0 -0.29547354955E+03 -0.12291448676E+02 -0.23394427083E+03  0.37707508543E+03  0.00000000000E+00 0. -1.
         -2    1    1    2    0  503 -0.35724632988E+02  0.58278117380E+02  0.91597561713E+02  0.11429217681E+03  0.00000000000E+00 0.  1.
<mgrwt>
<rscale>  4 0.34458442E+03</rscale>
<asrwt>0</asrwt>
<pdfrwt beam="1">  1       21 0.31923991E-01 0.34458442E+03</pdfrwt>
<pdfrwt beam="2">  1       21 0.19728890E+00 0.34458442E+03</pdfrwt>
<totfact> 0.11658360E+03</totfact>
</mgrwt>
</event>
<event>
 5    0  0.1972558E-002  0.2403613E+03  0.7546771E-02  0.1119552E+00
         21   -1    0    0  501  502  0.00000000000E+00  0.00000000000E+00  0.76063772366E+03  0.76063772366E+03  0.00000000000E+00 0. -1.
         21   -1    0    0  502  503 -0.00000000000E+00 -0.00000000000E+00 -0.46012908008E+03  0.46012908008E+03  0.00000000000E+00 0.  1.
         25    1    1    2    0    0 -0.22031935765E+03  0.92132153727E+02 -0.37790568307E+03  0.46418386271E+03  0.12500000000E+03 0.  0.
          3    1    1    2  501    0  0.10511986319E+03 -0.56187919731E+02  0.60213563840E+03  0.61381967629E+03  0.00000000000E+00 0. -1.
         -3    1    1    2    0  503  0.11519949445E+03 -0.35944233996E+02  0.76278688248E+02  0.14276326475E+03  0.00000000000E+00 0.  1.
<mgrwt>
<rscale>  4 0.24036129E+03</rscale>
<asrwt>0</asrwt>
<pdfrwt beam="1">  1       21 0.11702119E+00 0.24036129E+03</pdfrwt>
<pdfrwt beam="2">  1       21 0.70789089E-01 0.24036129E+03</pdfrwt>
<totfact> 0.97150996E+02</totfact>
</mgrwt>
</event>
<event>
 5    0  0.1972558E-002  0.3631207E+03  0.7546771E-02  0.1057355E+00
         21   -1    0    0  501  502  0.00000000000E+00  0.00000000000E+00  0.49195486284E+03  0.49195486284E+03  0.00000000000E+00 0.  1.
         21   -1    0    0  502  503 -0.00000000000E+00 -0.00000000000E+00 -0.78014858186E+03  0.78014858186E+03  0.00000000000E+00 0.  1.
         25    1    1    2    0    0 -0.32087399114E+03 -0.15280185597E+03 -0.57961034031E+03  0.69128986103E+03  0.12500000000E+03 0.  0.
          3    1    1    2  501    0  0.25325890109E+03  0.16265955242E+03  0.20810528715E+02  0.30171390269E+03  0.00000000000E+00 0. -1.
         -3    1    1    2    0  503  0.67615090047E+02 -0.98576964473E+01  0.27060609257E+03  0.27909968097E+03  0.00000000000E+00 0.  1.
<mgrwt>
<rscale>  4 0.36312069E+03</rscale>
<asrwt>0</asrwt>
<pdfrwt beam="1">  1       21 0.75685364E-01 0.36312069E+03</pdfrwt>
<pdfrwt beam="2">  1       21 0.12002286E+00 0.36312069E+03</pdfrwt>
<totfact> 0.72264366E+02</totfact>
</mgrwt>
</event>
<event>
 5    0  0.1297746E-001  0.5449269E+03  0.7546771E-02  0.1025900E+00
         21   -1    0    0  501  502  0.00000000000E+00  0.00000000000E+00  0.14432446084E+04  0.14432446084E+04  0.00000000000E+00 0. -1.
         21   -1    0    0  502  503 -0.00000000000E+00 -0.00000000000E+00 -0.86867365739E+03  0.86867365739E+03  0.00000000000E+00 0.  1.
         25    1    1    2    0    0 -0.11436520417E+03 -0.20711467154E+03 -0.27223209032E+03  0.38172136185E+03  0.12500000000E+03 0.  0.
          2    1    1    2  501    0  0.47177165772E+03  0.31751780405E+03  0.12542087619E+04  0.13771077196E+04  0.00000000000E+00 0. -1.
         -2    1    1    2    0  503 -0.35740645355E+03 -0.11040313252E+03 -0.40740572056E+03  0.55308918436E+03  0.00000000000E+00 0.  1.
<mgrwt>
<rscale>  4 0.45616133E+03</rscale>
<asrwt>0</asrwt>
<pdfrwt beam="1">  1       21 0.22203763E+00 0.54492686E+03</pdfrwt>
<pdfrwt beam="2">  1       21 0.13364210E+00 0.54492686E+03</pdfrwt>
<totfact> 0.28626224E+01</totfact>
</mgrwt>
</event>
<event>
 5    0  0.1972558E-002  0.2899876E+03  0.7546771E-02  0.1090356E+00
         21   -1    0    0  501  502  0.00000000000E+00  0.00000000000E+00  0.15571522687E+03  0.15571522687E+03  0.00000000000E+00 0. -1.
         21   -1    0    0  502  503 -0.00000000000E+00 -0.00000000000E+00 -0.15772349076E+04  0.15772349076E+04  0.00000000000E+00 0.  1.
         25    1    1    2    0    0 -0.24950076566E+03 -0.78290665707E+02 -0.13061152208E+04  0.13378871516E+04  0.12500000000E+03 0.  0.
          2    1    1    2  501    0  0.14819027538E+02 -0.47471613236E+02  0.58702384219E+02  0.76935866496E+02  0.00000000000E+00 0.  1.
         -2    1    1    2    0  503  0.23468173812E+03  0.12576227894E+03 -0.17410684420E+03  0.31812711644E+03  0.00000000000E+00 0. -1.
<mgrwt>
<rscale>  4 0.28998758E+03</rscale>
<asrwt>0</asrwt>
<pdfrwt beam="1">  1       21 0.23956189E-01 0.28998758E+03</pdfrwt>
<pdfrwt beam="2">  1       21 0.24265152E+00 0.28998758E+03</pdfrwt>
<totfact> 0.10973411E+03</totfact>
</mgrwt>
</event>
<event>
 5    0  0.1972558E-002  0.2649235E+03  0.7546771E-02  0.1104221E+00
         21   -1    0    0  501  502  0.00000000000E+00  0.00000000000E+00  0.56917486237E+03  0.56917486237E+03  0.00000000000E+00 0.  1.
         21   -1    0    0  502  503 -0.00000000000E+00 -0.00000000000E+00 -0.35553391001E+03  0.35553391001E+03  0.00000000000E+00 0. -1.
         25    1    1    2    0    0  0.15145850184E+03  0.15678881484E+03 -0.16966256173E+03  0.30320421351E+03  0.12500000000E+03 0.  0.
          1    1    1    2  501    0 -0.13400889115E+03 -0.30760279666E+03  0.28859155893E+03  0.44256406464E+03  0.00000000000E+00 0.  1.
         -1    1    1    2    0  503 -0.17449610695E+02  0.15081398183E+03  0.94711955147E+02  0.17894049423E+03  0.00000000000E+00 0. -1.
<mgrwt>
<rscale>  4 0.26492353E+03</rscale>
<asrwt>0</asrwt>
<pdfrwt beam="1">  1       21 0.87565363E-01 0.26492353E+03</pdfrwt>
<pdfrwt beam="2">  1       21 0.54697525E-01 0.26492353E+03</pdfrwt>
<totfact> 0.33510117E+03</totfact>
</mgrwt>
</event>
<event>
 5    0  0.1972558E-002  0.2636042E+03  0.7546771E-02  0.1104997E+00
         21   -1    0    0  501  502  0.00000000000E+00  0.00000000000E+00  0.16947160264E+03  0.16947160264E+03  0.00000000000E+00 0. -1.
         21   -1    0    0  502  503 -0.00000000000E+00 -0.00000000000E+00 -0.57076137424E+03  0.57076137424E+03  0.00000000000E+00 0. -1.
         25    1    1    2    0    0  0.19104592498E+03 -0.13177114905E+03 -0.42169356504E+03  0.49730538301E+03  0.12500000000E+03 0.  0.
          4    1    1    2  501    0 -0.13633401016E+03  0.55232232315E+02  0.22576584863E+02  0.14881956859E+03  0.00000000000E+00 0. -1.
         -4    1    1    2    0  503 -0.54711914827E+02  0.76538916739E+02 -0.21727914308E+01  0.94108025281E+02  0.00000000000E+00 0.  1.
<mgrwt>
<rscale>  4 0.26360421E+03</rscale>
<asrwt>0</asrwt>
<pdfrwt beam="1">  1       21 0.26072554E-01 0.26360421E+03</pdfrwt>
<pdfrwt beam="2">  1       21 0.87809442E-01 0.26360421E+03</pdfrwt>
<totfact> 0.14926400E+04</totfact>
</mgrwt>
</event>
<event>
 5    0  0.1972558E-002  0.2338437E+03  0.7546771E-02  0.1123963E+00
         21   -1    0    0  501  502  0.00000000000E+00  0.00000000000E+00  0.93937690349E+03  0.93937690349E+03  0.00000000000E+00 0. -1.
         21   -1    0    0  502  503 -0.00000000000E+00 -0.00000000000E+00 -0.14101153711E+03  0.14101153711E+03  0.00000000000E+00 0.  1.
         25    1    1    2    0    0  0.16266819091E+03 -0.13261649181E+03  0.20937375928E+02  0.24517636090E+03  0.12500000000E+03 0.  0.
          4    1    1    2  501    0 -0.15273160542E+03  0.84224846350E+02  0.24635812598E+03  0.30184945630E+03  0.00000000000E+00 0.  1.
         -4    1    1    2    0  503 -0.99365854926E+01  0.48391645456E+02  0.53106986447E+03  0.53336262339E+03  0.00000000000E+00 0. -1.
<mgrwt>
<rscale>  4 0.23384370E+03</rscale>
<asrwt>0</asrwt>
<pdfrwt beam="1">  1       21 0.14451952E+00 0.23384370E+03</pdfrwt>
<pdfrwt beam="2">  1       21 0.21694083E-01 0.23384370E+03</pdfrwt>
<totfact> 0.63306570E+03</totfact>
</mgrwt>
</event>
<event>
 5    0  0.1972558E-002  0.3765341E+03  0.7546771E-02  0.1052222E+00
         21   -1    0    0  501  502  0.00000000000E+00  0.00000000000E+00  0.75330747606E+03  0.75330747606E+03  0.00000000000E+00 0.  1.
         21   -1    0    0  502  503 -0.00000000000E+00 -0.00000000000E+00 -0.27584559204E+03  0.27584559204E+03  0.00000000000E+00 0. -1.
         25    1    1    2    0    0 -0.28201009190E+03  0.21937324543E+03 -0.10994074788E+02  0.37868216544E+03  0.12500000000E+03 0.  0.
          4    1    1    2  501    0  0.29447302572E+03 -0.19205806773E+03  0.30759642243E+03  0.46713619357E+03  0.00000000000E+00 0.  1.
         -4    1    1    2    0  503 -0.12462933819E+02 -0.27315177697E+02  0.18085953639E+03  0.18333470908E+03  0.00000000000E+00 0. -1.
<mgrwt>
<rscale>  4 0.37653406E+03</rscale>
<asrwt>0</asrwt>
<pdfrwt beam="1">  1       21 0.11589346E+00 0.37653406E+03</pdfrwt>
<pdfrwt beam="2">  1       21 0.42437784E-01 0.37653406E+03</pdfrwt>
<totfact> 0.27414115E+03</totfact>
</mgrwt>
</event>
<event>
 5    0  0.1972558E-002  0.2894501E+03  0.7546771E-02  0.1090637E+00
         21   -1    0    0  501  502  0.00000000000E+00  0.00000000000E+00  0.17304280443E+04  0.17304280443E+04  0.00000000000E+00 0.  1.
         21   -1    0    0  502  503 -0.00000000000E+00 -0.00000000000E+00 -0.14623500400E+03  0.14623500400E+03  0.00000000000E+00 0. -1.
         25    1    1    2    0    0 -0.13741035157E+03 -0.24401022126E+03  0.91980310896E+02  0.32016865929E+03  0.12500000000E+03 0.  0.
          4    1    1    2  501    0  0.12999846478E+03  0.18337701878E+03  0.37214852969E+03  0.43476575304E+03  0.00000000000E+00 0. -1.
         -4    1    1    2    0  503  0.74118867890E+01  0.60633202484E+02  0.11200641997E+04  0.11217286360E+04  0.00000000000E+00 0.  1.
<mgrwt>
<rscale>  4 0.28945011E+03</rscale>
<asrwt>0</asrwt>
<pdfrwt beam="1">  1       21 0.26621969E+00 0.28945011E+03</pdfrwt>
<pdfrwt beam="2">  1       21 0.22497694E-01 0.28945011E+03</pdfrwt>
<totfact> 0.89444132E+02</totfact>
</mgrwt>
</event>
<event>
 5    0  0.1972558E-002  0.2400562E+03  0.7546771E-02  0.1119755E+00
         21   -1    0    0  501  502  0.00000000000E+00  0.00000000000E+00  0.11088399567E+04  0.11088399567E+04  0.00000000000E+00 0.  1.
         21   -1    0    0  502  503 -0.00000000000E+00 -0.00000000000E+00 -0.44561522773E+03  0.44561522773E+03  0.00000000000E+00 0. -1.
         25    1    1    2    0    0  0.21334640966E+03  0.39098899510E+02 -0.23770318149E+03  0.34521474034E+03  0.12500000000E+03 0.  0.
          3    1    1    2  501    0 -0.24628821754E+02 -0.55321111785E+01  0.99527812213E+03  0.99559817371E+03  0.00000000000E+00 0.  1.
         -3    1    1    2    0  503 -0.18871758791E+03 -0.33566788332E+02 -0.94350211635E+02  0.21364227040E+03  0.00000000000E+00 0. -1.
<mgrwt>
<rscale>  4 0.24005620E+03</rscale>
<asrwt>0</asrwt>
<pdfrwt beam="1">  1       21 0.17059076E+00 0.24005620E+03</pdfrwt>
<pdfrwt beam="2">  1       21 0.68556189E-01 0.24005620E+03</pdfrwt>
<totfact> 0.38932095E+02</totfact>
</mgrwt>
</event>
<event>
 5    0  0.1972558E-002  0.1770569E+03  0.7546771E-02  0.1170682E+00
         21   -1    0    0  501  502  0.00000000000E+00  0.00000000000E+00  0.17266611622E+04  0.17266611622E+04  0.00000000000E+00 0. -1.
         21   -1    0    0  502  503 -0.00000000000E+00 -0.00000000000E+00 -0.50274839219E+02  0.50274839219E+02  0.00000000000E+00 0. -1.
         25    1    1    2    0    0 -0.21346302613E+03 -0.23590735845E+02  0.44704682171E+03  0.51146734709E+03  0.12500000000E+03 0.  0.
          2    1    1    2  501    0  0.11457192519E+03  0.22360420394E+02  0.10803752329E+04  0.10866634061E+04  0.00000000000E+00 0.  1.
         -2    1    1    2    0  503  0.98891100942E+02  0.12303154502E+01  0.14896426845E+03  0.17880524824E+03  0.00000000000E+00 0. -1.
<mgrwt>
<rscale>  4 0.17705693E+03</rscale>
<asrwt>0</asrwt>
<pdfrwt beam="1">  1       21 0.26564013E+00 0.17705693E+03</pdfrwt>
<pdfrwt beam="2">  1       21 0.77345920E-02 0.17705693E+03</pdfrwt>
<totfact> 0.69724914E+03</totfact>
</mgrwt>
</event>
<event>
 5    0  0.1972558E-002  0.2928257E+03  0.7546771E-02  0.1088883E+00
         21   -1    0    0  501  502  0.00000000000E+00  0.00000000000E+00  0.30659457310E+03  0.30659457310E+03  0.00000000000E+00 0. -1.
         21   -1    0    0  502  503 -0.00000000000E+00 -0.00000000000E+00 -0.55131217619E+03  0.55131217619E+03  0.00000000000E+00 0.  1.
         25    1    1    2    0    0 -0.27051364835E+03  0.34173987391E+02 -0.33520444800E+03  0.44981386964E+03  0.12500000000E+03 0.  0.
          1    1    1    2  501    0  0.23277719788E+02  0.10957576406E+02  0.14804559984E+03  0.15026450130E+03  0.00000000000E+00 0.  1.
         -1    1    1    2    0  503  0.24723592856E+03 -0.45131563797E+02 -0.57558754922E+02  0.25782837836E+03  0.00000000000E+00 0. -1.
<mgrwt>
<rscale>  4 0.29282567E+03</rscale>
<asrwt>0</asrwt>
<pdfrwt beam="1">  1       21 0.47168396E-01 0.29282567E+03</pdfrwt>
<pdfrwt beam="2">  1       21 0.84817258E-01 0.29282567E+03</pdfrwt>
<totfact> 0.48529371E+03</totfact>
</mgrwt>
</event>
<event>
 5    0  0.1972558E-002  0.2366759E+03  0.7546771E-02  0.1122027E+00
         21   -1    0    0  501  502  0.00000000000E+00  0.00000000000E+00  0.44776111351E+03  0.44776111351E+03  0.00000000000E+00 0. -1.
         21   -1    0    0  502  503 -0.00000000000E+00 -0.00000000000E+00 -0.41678573050E+03  0.41678573050E+03  0.00000000000E+00 0. -1.
         25    1    1    2    0    0  0.19606834644E+03 -0.10560244461E+03  0.14505523803E+01  0.25538554557E+03  0.12500000000E+03 0.  0.
          1    1    1    2  501    0 -0.14020125290E+03  0.13849369902E+03 -0.25220461589E+03  0.32006884300E+03  0.00000000000E+00 0. -1.
         -1    1    1    2    0  503 -0.55867093547E+02 -0.32891254403E+02  0.28172944651E+03  0.28909245544E+03  0.00000000000E+00 0.  1.
<mgrwt>
<rscale>  4 0.23667591E+03</rscale>
<asrwt>0</asrwt>
<pdfrwt beam="1">  1       21 0.68886325E-01 0.23667591E+03</pdfrwt>
<pdfrwt beam="2">  1       21 0.64120882E-01 0.23667591E+03</pdfrwt>
<totfact> 0.41699176E+03</totfact>
</mgrwt>
</event>
<event>
 5    0  0.1972558E-002  0.2434596E+03  0.7546771E-02  0.1117509E+00
         21   -1    0    0  501  502  0.00000000000E+00  0.00000000000E+00  0.16679704236E+03  0.16679704236E+03  0.00000000000E+00 0.  1.
         21   -1    0    0  502  503 -0.00000000000E+00 -0.00000000000E+00 -0.23662960041E+04  0.23662960041E+04  0.00000000000E+00 0. -1.
         25    1    1    2    0    0 -0.13690511229E+03  0.16307956304E+03 -0.21495362642E+04  0.21636702856E+04  0.12500000000E+03 0.  0.
          2    1    1    2  501    0  0.10584159546E+03 -0.15292751043E+03 -0.16574310034E+03  0.24911853019E+03  0.00000000000E+00 0. -1.
         -2    1    1    2    0  503  0.31063516835E+02 -0.10152052606E+02  0.11578040279E+03  0.12030423068E+03  0.00000000000E+00 0.  1.
<mgrwt>
<rscale>  4 0.24345957E+03</rscale>
<asrwt>0</asrwt>
<pdfrwt beam="1">  1       21 0.25661085E-01 0.24345957E+03</pdfrwt>
<pdfrwt beam="2">  1       21 0.36404551E+00 0.24345957E+03</pdfrwt>
<totfact> 0.19267763E+02</totfact>
</mgrwt>
</event>
<event>
 5    0  0.1972558E-002  0.2312514E+03  0.7546771E-02  0.1125762E+00
         21   -1    0    0  501  502  0.00000000000E+00  0.00000000000E+00  0.45281873163E+02  0.45281873163E+02  0.00000000000E+00 0.  1.
         21   -1    0    0  502  503 -0.00000000000E+00 -0.00000000000E+00 -0.17056608888E+04  0.17056608888E+04  0.00000000000E+00 0. -1.
         25    1    1    2    0    0  0.14789686253E+03 -0.13678811344E+03 -0.13023374825E+04  0.13237418132E+04  0.12500000000E+03 0.  0.
          2    1    1    2  501    0 -0.11966190426E+02  0.17463566591E+02  0.48614069587E+01  0.21720938033E+02  0.00000000000E+00 0.  1.
         -2    1    1    2    0  503 -0.13593067210E+03  0.11932454685E+03 -0.36290294009E+03  0.40548001064E+03  0.00000000000E+00 0. -1.
<mgrwt>
<rscale>  4 0.23125140E+03</rscale>
<asrwt>0</asrwt>
<pdfrwt beam="1">  1       21 0.69664417E-02 0.23125140E+03</pdfrwt>
<pdfrwt beam="2">  1       21 0.26240938E+00 0.23125140E+03</pdfrwt>
<totfact> 0.82758920E+03</totfact>
</mgrwt>
</event>
<event>
 5    0  0.1972558E-002  0.3150793E+03  0.7546771E-02  0.1077936E+00
         21   -1    0    0  501  502  0.00000000000E+00  0.00000000000E+00  0.13112589074E+04  0.13112589074E+04  0.00000000000E+00 0.  1.
         21   -1    0    0  502  503 -0.00000000000E+00 -0.00000000000E+00 -0.80755602271E+03  0.80755602271E+03  0.00000000000E+00 0.  1.
         25    1    1    2    0    0  0.21439494926E+03  0.19606152347E+03 -0.75540439195E+03  0.81894206793E+03  0.12500000000E+03 0.  0.
          3    1    1    2  501    0 -0.18753578412E+03 -0.17322633031E+03  0.80760648761E+03  0.84699779850E+03  0.00000000000E+00 0. -1.
         -3    1    1    2    0  503 -0.26859165135E+02 -0.22835193159E+02  0.45150078905E+03  0.45287506369E+03  0.00000000000E+00 0.  1.
<mgrwt>
<rscale>  4 0.31507933E+03</rscale>
<asrwt>0</asrwt>
<pdfrwt beam="1">  1       21 0.20173214E+00 0.31507933E+03</pdfrwt>
<pdfrwt beam="2">  1       21 0.12423939E+00 0.31507933E+03</pdfrwt>
<totfact> 0.54851715E+01</totfact>
</mgrwt>
</event>
<event>
 5    0  0.1972558E-002  0.4671618E+03  0.7546771E-02  0.1022724E+00
         21   -1    0    0  501  502  0.00000000000E+00  0.00000000000E+00  0.11304444019E+03  0.11304444019E+03  0.00000000000E+00 0. -1.
         21   -1    0    0  502  503 -0.00000000000E+00 -0.00000000000E+00 -0.32505331759E+04  0.32505331759E+04  0.00000000000E+00 0.  1.
         25    1    1    2    0    0 -0.26072945769E+03  0.35688180568E+03 -0.23022572810E+04  0.23476281778E+04  0.12500000000E+03 0.  0.
          3    1    1    2  501    0  0.29310016451E+03 -0.37031053507E+03 -0.85422859770E+03  0.97608611093E+03  0.00000000000E+00 0. -1.
         -3    1    1    2    0  503 -0.32370706822E+02  0.13428729394E+02  0.18997142920E+02  0.39863327413E+02  0.00000000000E+00 0.  1.
<mgrwt>
<rscale>  4 0.46716176E+03</rscale>
<asrwt>0</asrwt>
<pdfrwt beam="1">  1       21 0.17391454E-01 0.46716176E+03</pdfrwt>
<pdfrwt beam="2">  1       21 0.50008199E+00 0.46716176E+03</pdfrwt>
<totfact> 0.41242823E+01</totfact>
</mgrwt>
</event>
<event>
 5    0  0.1972558E-002  0.3220348E+03  0.7546771E-02  0.1074903E+00
         21   -1    0    0  503  502  0.00000000000E+00  0.00000000000E+00  0.11252723826E+04  0.11252723826E+04  0.00000000000E+00 0.  1.
         21   -1    0    0  501  503 -0.00000000000E+00 -0.00000000000E+00 -0.11717554925E+03  0.11717554925E+03  0.00000000000E+00 0.  1.
         25    1    1    2    0    0 -0.27901930229E+03 -0.95831114221E+02  0.21336354670E+03  0.38494723867E+03  0.12500000000E+03 0.  0.
          2    1    1    2  501    0  0.75625861510E+02  0.10378545479E+02  0.38152204345E+03  0.38908360898E+03  0.00000000000E+00 0. -1.
         -2    1    1    2    0  502  0.20339344078E+03  0.85452568742E+02  0.41321124320E+03  0.46841708419E+03  0.00000000000E+00 0.  1.
<mgrwt>
<rscale>  4 0.32162700E+03</rscale>
<asrwt>0</asrwt>
<pdfrwt beam="1">  1       21 0.17311882E+00 0.32203485E+03</pdfrwt>
<pdfrwt beam="2">  1       21 0.18027008E-01 0.32203485E+03</pdfrwt>
<totfact> 0.52049809E+03</totfact>
</mgrwt>
</event>
<event>
 5    0  0.1972558E-002  0.5026017E+03  0.7546771E-02  0.1013102E+00
         21   -1    0    0  501  502  0.00000000000E+00  0.00000000000E+00  0.13640009736E+04  0.13640009736E+04  0.00000000000E+00 0. -1.
         21   -1    0    0  502  503 -0.00000000000E+00 -0.00000000000E+00 -0.22574270344E+03  0.22574270344E+03  0.00000000000E+00 0.  1.
         25    1    1    2    0    0  0.16715450954E+03  0.46182352239E+03  0.24346280938E+03  0.56224615201E+03  0.12500000000E+03 0.  0.
          1    1    1    2  501    0 -0.18196207765E+03 -0.44154473712E+03  0.82412489695E+03  0.95249871305E+03  0.00000000000E+00 0. -1.
         -1    1    1    2    0  503  0.14807568109E+02 -0.20278785271E+02  0.70670563794E+02  0.74998811939E+02  0.00000000000E+00 0.  1.
<mgrwt>
<rscale>  4 0.50260169E+03</rscale>
<asrwt>0</asrwt>
<pdfrwt beam="1">  1       21 0.20984630E+00 0.50260169E+03</pdfrwt>
<pdfrwt beam="2">  1       21 0.34729648E-01 0.50260169E+03</pdfrwt>
<totfact> 0.75131359E+02</totfact>
</mgrwt>
</event>
<event>
 5    0  0.1972558E-002  0.2570373E+03  0.7546771E-02  0.1108936E+00
         21   -1    0    0  501  502  0.00000000000E+00  0.00000000000E+00  0.15084403715E+03  0.15084403715E+03  0.00000000000E+00 0.  1.
         21   -1    0    0  502  503 -0.00000000000E+00 -0.00000000000E+00 -0.53737195230E+03  0.53737195230E+03  0.00000000000E+00 0. -1.
         25    1    1    2    0    0 -0.15342014897E+03  0.16402867866E+03 -0.37578729869E+03  0.45528479372E+03  0.12500000000E+03 0.  0.
          2    1    1    2  501    0  0.20131826169E+02 -0.41146636006E+01  0.11535068081E+02  0.23564351828E+02  0.00000000000E+00 0. -1.
         -2    1    1    2    0  503  0.13328832280E+03 -0.15991401506E+03 -0.22275684540E+02  0.20936684391E+03  0.00000000000E+00 0.  1.
<mgrwt>
<rscale>  4 0.25703725E+03</rscale>
<asrwt>0</asrwt>
<pdfrwt beam="1">  1       21 0.23206775E-01 0.25703725E+03</pdfrwt>
<pdfrwt beam="2">  1       21 0.82672608E-01 0.25703725E+03</pdfrwt>
<totfact> 0.21518756E+04</totfact>
</mgrwt>
</event>
<event>
 5    0  0.1972558E-002  0.2461622E+03  0.7546771E-02  0.1115754E+00
         21   -1    0    0  501  502  0.00000000000E+00  0.00000000000E+00  0.35332720127E+03  0.35332720127E+03  0.00000000000E+00 0.  1.
         21   -1    0    0  502  503 -0.00000000000E+00 -0.00000000000E+00 -0.34584722140E+03  0.34584722140E+03  0.00000000000E+00 0. -1.
         25    1    1    2    0    0  0.14487124306E+03 -0.16305811687E+03 -0.15877895375E+03  0.29734051640E+03  0.12500000000E+03 0.  0.
          1    1    1    2  501    0 -0.17074441294E+03  0.11768314685E+03 -0.20052680608E+02  0.20833887683E+03  0.00000000000E+00 0. -1.
         -1    1    1    2    0  503  0.25873169880E+02  0.45374970022E+02  0.18631161422E+03  0.19349502943E+03  0.00000000000E+00 0.  1.
<mgrwt>
<rscale>  4 0.24616222E+03</rscale>
<asrwt>0</asrwt>
<pdfrwt beam="1">  1       21 0.54358031E-01 0.24616222E+03</pdfrwt>
<pdfrwt beam="2">  1       21 0.53207265E-01 0.24616222E+03</pdfrwt>
<totfact> 0.10344884E+04</totfact>
</mgrwt>
</event>
<event>
 5    0  0.1972558E-002  0.2662997E+03  0.7546771E-02  0.1103416E+00
         21   -1    0    0  503  502  0.00000000000E+00  0.00000000000E+00  0.69651880987E+02  0.69651880987E+02  0.00000000000E+00 0.  1.
         21   -1    0    0  501  503 -0.00000000000E+00 -0.00000000000E+00 -0.21289067822E+04  0.21289067822E+04  0.00000000000E+00 0.  1.
         25    1    1    2    0    0 -0.98784905401E+02  0.24663955881E+03 -0.14889829637E+04  0.15176576675E+04  0.12500000000E+03 0.  0.
          2    1    1    2  501    0  0.15281597115E+03 -0.66504512470E+02 -0.37199079112E+03  0.40761835079E+03  0.00000000000E+00 0.  1.
         -2    1    1    2    0  502 -0.54031065750E+02 -0.18013504634E+03 -0.19828114633E+03  0.27328264485E+03  0.00000000000E+00 0. -1.
<mgrwt>
<rscale>  4 0.26629974E+03</rscale>
<asrwt>0</asrwt>
<pdfrwt beam="1">  1       21 0.10715673E-01 0.26629974E+03</pdfrwt>
<pdfrwt beam="2">  1       21 0.32752414E+00 0.26629974E+03</pdfrwt>
<totfact> 0.15613814E+03</totfact>
</mgrwt>
</event>
<event>
 5    0  0.1972558E-002  0.2572036E+03  0.7546771E-02  0.1108835E+00
         21   -1    0    0  501  502  0.00000000000E+00  0.00000000000E+00  0.42936832137E+03  0.42936832137E+03  0.00000000000E+00 0.  1.
         21   -1    0    0  502  503 -0.00000000000E+00 -0.00000000000E+00 -0.33836334093E+03  0.33836334093E+03  0.00000000000E+00 0.  1.
         25    1    1    2    0    0  0.16013811437E+02 -0.22781459709E+03 -0.23958436557E+03  0.35381012002E+03  0.12500000000E+03 0.  0.
          2    1    1    2  501    0  0.12663276242E+00  0.20374497300E+02  0.10528904126E+03  0.10724233486E+03  0.00000000000E+00 0. -1.
         -2    1    1    2    0  503 -0.16140444199E+02  0.20744009979E+03  0.22530030475E+03  0.30667920742E+03  0.00000000000E+00 0.  1.
<mgrwt>
<rscale>  4 0.25720358E+03</rscale>
<asrwt>0</asrwt>
<pdfrwt beam="1">  1       21 0.66056665E-01 0.25720358E+03</pdfrwt>
<pdfrwt beam="2">  1       21 0.52055898E-01 0.25720358E+03</pdfrwt>
<totfact> 0.70661596E+03</totfact>
</mgrwt>
</event>
<event>
 5    0  0.1972558E-002  0.2667100E+03  0.7546771E-02  0.1103177E+00
         21   -1    0    0  501  502  0.00000000000E+00  0.00000000000E+00  0.46098404266E+03  0.46098404266E+03  0.00000000000E+00 0. -1.
         21   -1    0    0  502  503 -0.00000000000E+00 -0.00000000000E+00 -0.13493745109E+04  0.13493745109E+04  0.00000000000E+00 0. -1.
         25    1    1    2    0    0 -0.14473965148E+03 -0.18611364575E+03 -0.12767652327E+04  0.13043551339E+04  0.12500000000E+03 0.  0.
          2    1    1    2  501    0 -0.57140755458E+02  0.49978644095E+02  0.13307553178E+03  0.15320583526E+03  0.00000000000E+00 0.  1.
         -2    1    1    2    0  503  0.20188040694E+03  0.13613500165E+03  0.25529923267E+03  0.35279758444E+03  0.00000000000E+00 0. -1.
<mgrwt>
<rscale>  4 0.26670996E+03</rscale>
<asrwt>0</asrwt>
<pdfrwt beam="1">  1       21 0.70920624E-01 0.26670996E+03</pdfrwt>
<pdfrwt beam="2">  1       21 0.20759607E+00 0.26670996E+03</pdfrwt>
<totfact> 0.19860571E+02</totfact>
</mgrwt>
</event>
<event>
 5    0  0.1972558E-002  0.2834253E+03  0.7546771E-02  0.1093833E+00
         21   -1    0    0  501  502  0.00000000000E+00  0.00000000000E+00  0.10688780163E+03  0.10688780163E+03  0.00000000000E+00 0. -1.
         21   -1    0    0  502  503 -0.00000000000E+00 -0.00000000000E+00 -0.15126108507E+04  0.15126108507E+04  0.00000000000E+00 0. -1.
         25    1    1    2    0    0  0.10213979920E+03 -0.23348364332E+03 -0.12709932590E+04  0.13023041176E+04  0.12500000000E+03 0.  0.
          3    1    1    2  501    0 -0.73578874696E+02  0.24233383109E+03 -0.10245263047E+03  0.27319604314E+03  0.00000000000E+00 0. -1.
         -3    1    1    2    0  503 -0.28560924500E+02 -0.88501877764E+01 -0.32277159607E+02  0.43998491613E+02  0.00000000000E+00 0.  1.
<mgrwt>
<rscale>  4 0.28342534E+03</rscale>
<asrwt>0</asrwt>
<pdfrwt beam="1">  1       21 0.16444278E-01 0.28342534E+03</pdfrwt>
<pdfrwt beam="2">  1       21 0.23270934E+00 0.28342534E+03</pdfrwt>
<totfact> 0.25757903E+03</totfact>
</mgrwt>
</event>
<event>
 5    0  0.1972558E-002  0.2623864E+03  0.7546771E-02  0.1105718E+00
         21   -1    0    0  501  502  0.00000000000E+00  0.00000000000E+00  0.94403236419E+02  0.94403236419E+02  0.00000000000E+00 0.  1.
         21   -1    0    0  502  503 -0.00000000000E+00 -0.00000000000E+00 -0.10157512547E+04  0.10157512547E+04  0.00000000000E+00 0.  1.
         25    1    1    2    0    0  0.76316338567E+02  0.22904509424E+03 -0.70461901500E+03  0.75524750581E+03  0.12500000000E+03 0.  0.
          4    1    1    2  501    0 -0.11314658636E+02 -0.25781024703E+02  0.21238185902E+02  0.35266744607E+02  0.00000000000E+00 0. -1.
         -4    1    1    2    0  503 -0.65001679931E+02 -0.20326406953E+03 -0.23796718922E+03  0.31964024074E+03  0.00000000000E+00 0.  1.
<mgrwt>
<rscale>  4 0.26238643E+03</rscale>
<asrwt>0</asrwt>
<pdfrwt beam="1">  1       21 0.14523576E-01 0.26238643E+03</pdfrwt>
<pdfrwt beam="2">  1       21 0.15626941E+00 0.26238643E+03</pdfrwt>
<totfact> 0.10648942E+04</totfact>
</mgrwt>
</event>
<event>
 5    0  0.1972558E-002  0.2601595E+03  0.7546771E-02  0.1107047E+00
         21   -1    0    0  501  502  0.00000000000E+00  0.00000000000E+00  0.28217969455E+03  0.28217969455E+03  0.00000000000E+00 0. -1.
         21   -1    0    0  502  503 -0.00000000000E+00 -0.00000000000E+00 -0.43883817366E+03  0.43883817366E+03  0.00000000000E+00 0. -1.
         25    1    1    2    0    0  0.26692727454E+03  0.39021823341E+02 -0.61005001713E+02  0.30351191545E+03  0.12500000000E+03 0.  0.
          1    1    1    2  501    0 -0.21304892371E+03 -0.18727198072E+01 -0.20137735789E+03  0.29316580845E+03  0.00000000000E+00 0. -1.
         -1    1    1    2    0  503 -0.53878350830E+02 -0.37149103534E+02  0.10572388049E+03  0.12434014431E+03  0.00000000000E+00 0.  1.
<mgrwt>
<rscale>  4 0.26015945E+03</rscale>
<asrwt>0</asrwt>
<pdfrwt beam="1">  1       21 0.43412261E-01 0.26015945E+03</pdfrwt>
<pdfrwt beam="2">  1       21 0.67513564E-01 0.26015945E+03</pdfrwt>
<totfact> 0.98181941E+03</totfact>
</mgrwt>
</event>
<event>
 5    0  0.1972558E-002  0.2402233E+03  0.7546771E-02  0.1119644E+00
         21   -1    0    0  503  502  0.00000000000E+00  0.00000000000E+00  0.27413303236E+02  0.27413303236E+02  0.00000000000E+00 0. -1.
         21   -1    0    0  501  503 -0.00000000000E+00 -0.00000000000E+00 -0.19274010227E+04  0.19274010227E+04  0.00000000000E+00 0.  1.
         25    1    1    2    0    0  0.72224059513E+02 -0.19200501205E+03 -0.12142785540E+04  0.12378124438E+04  0.12500000000E+03 0.  0.
          4    1    1    2  501    0 -0.28335257481E+02  0.34023768714E+02 -0.18050952203E+03  0.18586067684E+03  0.00000000000E+00 0.  1.
         -4    1    1    2    0  502 -0.43888802033E+02  0.15798124333E+03 -0.50519964348E+03  0.53114120529E+03  0.00000000000E+00 0. -1.
<mgrwt>
<rscale>  4 0.24022331E+03</rscale>
<asrwt>0</asrwt>
<pdfrwt beam="1">  1       21 0.42174311E-02 0.24022331E+03</pdfrwt>
<pdfrwt beam="2">  1       21 0.29652325E+00 0.24022331E+03</pdfrwt>
<totfact> 0.12249958E+04</totfact>
</mgrwt>
</event>
<event>
 5    0  0.1972558E-002  0.3213904E+03  0.7546771E-02  0.1075011E+00
         21   -1    0    0  503  502  0.00000000000E+00  0.00000000000E+00  0.22138393039E+03  0.22138393039E+03  0.00000000000E+00 0. -1.
         21   -1    0    0  501  503 -0.00000000000E+00 -0.00000000000E+00 -0.73018679308E+03  0.73018679308E+03  0.00000000000E+00 0.  1.
         25    1    1    2    0    0 -0.34763272309E+02 -0.29403794556E+03 -0.55863342449E+03  0.64448669613E+03  0.12500000000E+03 0.  0.
          2    1    1    2  501    0  0.16003104893E+02  0.26261709090E+02  0.20709585881E+02  0.37076457192E+02  0.00000000000E+00 0.  1.
         -2    1    1    2    0  502  0.18760167415E+02  0.26777623647E+03  0.29120975929E+02  0.27000757015E+03  0.00000000000E+00 0. -1.
<mgrwt>
<rscale>  4 0.32139041E+03</rscale>
<asrwt>0</asrwt>
<pdfrwt beam="1">  1       21 0.34059066E-01 0.32139041E+03</pdfrwt>
<pdfrwt beam="2">  1       21 0.11233643E+00 0.32139041E+03</pdfrwt>
<totfact> 0.47537556E+03</totfact>
</mgrwt>
</event>
<event>
 5    0  0.1972558E-002  0.5684115E+03  0.7546771E-02  0.9973200E-01
         21   -1    0    0  501  502  0.00000000000E+00  0.00000000000E+00  0.66084457205E+03  0.66084457205E+03  0.00000000000E+00 0.  1.
         21   -1    0    0  502  503 -0.00000000000E+00 -0.00000000000E+00 -0.10940947768E+04  0.10940947768E+04  0.00000000000E+00 0.  1.
         25    1    1    2    0    0  0.32041069783E+03  0.45255234452E+03 -0.87075372028E+03  0.10398575293E+04  0.12500000000E+03 0.  0.
          4    1    1    2  501    0 -0.29791047208E+03 -0.41769237145E+03  0.35864482423E+03  0.62597418196E+03  0.00000000000E+00 0.  1.
         -4    1    1    2    0  503 -0.22500225752E+02 -0.34859973073E+02  0.78858691319E+02  0.89107637597E+02  0.00000000000E+00 0. -1.
<mgrwt>
<rscale>  4 0.56841151E+03</rscale>
<asrwt>0</asrwt>
<pdfrwt beam="1">  1       21 0.10166840E+00 0.56841151E+03</pdfrwt>
<pdfrwt beam="2">  1       21 0.16832227E+00 0.56841151E+03</pdfrwt>
<totfact> 0.13202696E+02</totfact>
</mgrwt>
</event>
<event>
 5    0  0.1972558E-002  0.2430373E+03  0.7546771E-02  0.1117786E+00
         21   -1    0    0  503  502  0.00000000000E+00  0.00000000000E+00  0.64693374878E+03  0.64693374878E+03  0.00000000000E+00 0. -1.
         21   -1    0    0  501  503 -0.00000000000E+00 -0.00000000000E+00 -0.48214335689E+03  0.48214335689E+03  0.00000000000E+00 0.  1.
         25    1    1    2    0    0  0.18788380044E+03 -0.85899190133E+02 -0.41891015758E+03  0.48351805908E+03  0.12500000000E+03 0.  0.
          3    1    1    2  501    0  0.24037656362E+02 -0.26315306738E+02  0.65654991380E+02  0.74705302256E+02  0.00000000000E+00 0.  1.
         -3    1    1    2    0  502 -0.21192145680E+03  0.11221449687E+03  0.51804555809E+03  0.57085374433E+03  0.00000000000E+00 0. -1.
<mgrwt>
<rscale>  4 0.24303726E+03</rscale>
<asrwt>0</asrwt>
<pdfrwt beam="1">  1       21 0.99528270E-01 0.24303726E+03</pdfrwt>
<pdfrwt beam="2">  1       21 0.74175901E-01 0.24303726E+03</pdfrwt>
<totfact> 0.12941362E+03</totfact>
</mgrwt>
</event>
<event>
 5    0  0.1972558E-002  0.1880694E+03  0.7546771E-02  0.1160214E+00
         21   -1    0    0  501  502  0.00000000000E+00  0.00000000000E+00  0.49806649479E+02  0.49806649479E+02  0.00000000000E+00 0.  1.
         21   -1    0    0  502  503 -0.00000000000E+00 -0.00000000000E+00 -0.16153046192E+04  0.16153046192E+04  0.00000000000E+00 0.  1.
         25    1    1    2    0    0  0.21808720690E+03 -0.22936855898E+02 -0.92111721343E+03  0.95507593942E+03  0.12500000000E+03 0.  0.
          3    1    1    2  501    0 -0.12655399070E+03  0.22741633800E+02 -0.11408151190E+03  0.17189440313E+03  0.00000000000E+00 0. -1.
         -3    1    1    2    0  503 -0.91533216209E+02  0.19522209750E+00 -0.53029924441E+03  0.53814092615E+03  0.00000000000E+00 0.  1.
<mgrwt>
<rscale>  4 0.18806937E+03</rscale>
<asrwt>0</asrwt>
<pdfrwt beam="1">  1       21 0.76625613E-02 0.18806937E+03</pdfrwt>
<pdfrwt beam="2">  1       21 0.24850841E+00 0.18806937E+03</pdfrwt>
<totfact> 0.88151939E+03</totfact>
</mgrwt>
</event>
<event>
 5    0  0.1972558E-002  0.2400271E+03  0.7546771E-02  0.1119775E+00
         21   -1    0    0  503  502  0.00000000000E+00  0.00000000000E+00  0.39361705256E+03  0.39361705256E+03  0.00000000000E+00 0. -1.
         21   -1    0    0  501  503 -0.00000000000E+00 -0.00000000000E+00 -0.31471552079E+03  0.31471552079E+03  0.00000000000E+00 0.  1.
         25    1    1    2    0    0  0.21606703565E+03 -0.21286941305E+02 -0.20552993657E+03  0.32404575694E+03  0.12500000000E+03 0.  0.
          1    1    1    2  501    0 -0.68341376590E+02  0.35300475648E+02  0.17504206774E+02  0.78886403074E+02  0.00000000000E+00 0.  1.
         -1    1    1    2    0  502 -0.14772565906E+03 -0.14013534343E+02  0.26692726157E+03  0.30540041333E+03  0.00000000000E+00 0. -1.
<mgrwt>
<rscale>  4 0.24002710E+03</rscale>
<asrwt>0</asrwt>
<pdfrwt beam="1">  1       21 0.60556470E-01 0.24002710E+03</pdfrwt>
<pdfrwt beam="2">  1       21 0.48417772E-01 0.24002710E+03</pdfrwt>
<totfact> 0.10041668E+04</totfact>
</mgrwt>
</event>
<event>
 5    0  0.1972558E-002  0.2426698E+03  0.7546771E-02  0.1118027E+00
         21   -1    0    0  501  502  0.00000000000E+00  0.00000000000E+00  0.16600765583E+03  0.16600765583E+03  0.00000000000E+00 0.  1.
         21   -1    0    0  502  503 -0.00000000000E+00 -0.00000000000E+00 -0.44371925436E+03  0.44371925436E+03  0.00000000000E+00 0.  1.
         25    1    1    2    0    0  0.17898380920E+03  0.11320259463E+03 -0.28380930630E+03  0.37552996383E+03  0.12500000000E+03 0.  0.
          2    1    1    2  501    0 -0.15379578847E+03 -0.12985720559E+03 -0.67076983326E+01  0.20139769515E+03  0.00000000000E+00 0.  1.
         -2    1    1    2    0  503 -0.25188020729E+02  0.16654610952E+02  0.12805406105E+02  0.32799251206E+02  0.00000000000E+00 0. -1.
<mgrwt>
<rscale>  4 0.24266977E+03</rscale>
<asrwt>0</asrwt>
<pdfrwt beam="1">  1       21 0.25539640E-01 0.24266977E+03</pdfrwt>
<pdfrwt beam="2">  1       21 0.68264500E-01 0.24266977E+03</pdfrwt>
<totfact> 0.27740140E+04</totfact>
</mgrwt>
</event>
<event>
 5    0  0.1972558E-002  0.3113761E+03  0.7546771E-02  0.1079688E+00
         21   -1    0    0  501  502  0.00000000000E+00  0.00000000000E+00  0.75733836949E+02  0.75733836949E+02  0.00000000000E+00 0. -1.
         21   -1    0    0  502  503 -0.00000000000E+00 -0.00000000000E+00 -0.13682853386E+04  0.13682853386E+04  0.00000000000E+00 0.  1.
         25    1    1    2    0    0 -0.27627822503E+03 -0.70713485576E+02 -0.90082125850E+03  0.95311803803E+03  0.12500000000E+03 0.  0.
          2    1    1    2  501    0  0.27296016264E+02 -0.11981444080E+02 -0.19939320469E+02  0.35863686465E+02  0.00000000000E+00 0.  1.
         -2    1    1    2    0  503  0.24898220877E+03  0.82694929656E+02 -0.37179092272E+03  0.45503745109E+03  0.00000000000E+00 0. -1.
<mgrwt>
<rscale>  4 0.31137607E+03</rscale>
<asrwt>0</asrwt>
<pdfrwt beam="1">  1       21 0.11651360E-01 0.31137607E+03</pdfrwt>
<pdfrwt beam="2">  1       21 0.21050543E+00 0.31137607E+03</pdfrwt>
<totfact> 0.65402636E+03</totfact>
</mgrwt>
</event>
<event>
 5    0  0.1972558E-002  0.2369599E+03  0.7546771E-02  0.1121835E+00
         21   -1    0    0  501  502  0.00000000000E+00  0.00000000000E+00  0.25173195228E+03  0.25173195228E+03  0.00000000000E+00 0. -1.
         21   -1    0    0  502  503 -0.00000000000E+00 -0.00000000000E+00 -0.26581971593E+03  0.26581971593E+03  0.00000000000E+00 0. -1.
         25    1    1    2    0    0 -0.72268856075E+01 -0.21135646414E+03 -0.84276024329E+02  0.25971374836E+03  0.12500000000E+03 0.  0.
          3    1    1    2  501    0  0.71954770410E+01  0.21373696950E+02  0.63886968196E+02  0.67750679085E+02  0.00000000000E+00 0.  1.
         -3    1    1    2    0  503  0.31408566536E-01  0.18998276719E+03  0.63012924869E+01  0.19008724077E+03  0.00000000000E+00 0. -1.
<mgrwt>
<rscale>  4 0.23695993E+03</rscale>
<asrwt>0</asrwt>
<pdfrwt beam="1">  1       21 0.38727993E-01 0.23695993E+03</pdfrwt>
<pdfrwt beam="2">  1       21 0.40895341E-01 0.23695993E+03</pdfrwt>
<totfact> 0.36228514E+04</totfact>
</mgrwt>
</event>
<event>
 5    0  0.1972558E-002  0.2617902E+03  0.7546771E-02  0.1106072E+00
         21   -1    0    0  503  502  0.00000000000E+00  0.00000000000E+00  0.31932179357E+03  0.31932179357E+03  0.00000000000E+00 0. -1.
         21   -1    0    0  501  503 -0.00000000000E+00 -0.00000000000E+00 -0.71785187343E+03  0.71785187343E+03  0.00000000000E+00 0.  1.
         25    1    1    2    0    0 -0.28136008765E+03  0.81155842093E+02 -0.49491991646E+03  0.58849001124E+03  0.12500000000E+03 0.  0.
          2    1    1    2  501    0  0.16193775519E+03 -0.50166143092E+02 -0.11434556594E+03  0.20448810948E+03  0.00000000000E+00 0.  1.
         -2    1    1    2    0  502  0.11942233245E+03 -0.30989699001E+02  0.21073540254E+03  0.24419554627E+03  0.00000000000E+00 0. -1.
<mgrwt>
<rscale>  4 0.26179022E+03</rscale>
<asrwt>0</asrwt>
<pdfrwt beam="1">  1       21 0.49126430E-01 0.26179022E+03</pdfrwt>
<pdfrwt beam="2">  1       21 0.11043875E+00 0.26179022E+03</pdfrwt>
<totfact> 0.24227121E+03</totfact>
</mgrwt>
</event>
<event>
 5    0  0.1972558E-002  0.3637860E+03  0.7546771E-02  0.1057095E+00
         21   -1    0    0  501  502  0.00000000000E+00  0.00000000000E+00  0.61332807364E+03  0.61332807364E+03  0.00000000000E+00 0.  1.
         21   -1    0    0  502  503 -0.00000000000E+00 -0.00000000000E+00 -0.30774398503E+03  0.30774398503E+03  0.00000000000E+00 0. -1.
         25    1    1    2    0    0  0.73259309591E+02 -0.34258082797E+03 -0.40520401386E+02  0.37415966253E+03  0.12500000000E+03 0.  0.
          1    1    1    2  501    0 -0.15036433476E+01  0.34051050039E+03  0.32818999668E+03  0.47292529615E+03  0.00000000000E+00 0.  1.
         -1    1    1    2    0  503 -0.71755666243E+02  0.20703275829E+01  0.17914493320E+02  0.73987099992E+02  0.00000000000E+00 0. -1.
<mgrwt>
<rscale>  4 0.36378596E+03</rscale>
<asrwt>0</asrwt>
<pdfrwt beam="1">  1       21 0.94358165E-01 0.36378596E+03</pdfrwt>
<pdfrwt beam="2">  1       21 0.47345229E-01 0.36378596E+03</pdfrwt>
<totfact> 0.36245584E+03</totfact>
</mgrwt>
</event>
<event>
 5    0  0.1972558E-002  0.2853749E+03  0.7546771E-02  0.1092789E+00
         21   -1    0    0  501  502  0.00000000000E+00  0.00000000000E+00  0.25905796126E+03  0.25905796126E+03  0.00000000000E+00 0.  1.
         21   -1    0    0  502  503 -0.00000000000E+00 -0.00000000000E+00 -0.88911217164E+03  0.88911217164E+03  0.00000000000E+00 0.  1.
         25    1    1    2    0    0 -0.19665985982E+03 -0.16364075437E+03 -0.59493591759E+03  0.65956587464E+03  0.12500000000E+03 0.  0.
          1    1    1    2  501    0  0.13585970604E+03  0.23240041967E+03 -0.17515717624E+03  0.32116639173E+03  0.00000000000E+00 0.  1.
         -1    1    1    2    0  503  0.60800153776E+02 -0.68759665300E+02  0.14003888345E+03  0.16743786653E+03  0.00000000000E+00 0. -1.
<mgrwt>
<rscale>  4 0.28537492E+03</rscale>
<asrwt>0</asrwt>
<pdfrwt beam="1">  1       21 0.39855070E-01 0.28537492E+03</pdfrwt>
<pdfrwt beam="2">  1       21 0.13678649E+00 0.28537492E+03</pdfrwt>
<totfact> 0.21453859E+03</totfact>
</mgrwt>
</event>
<event>
 5    0  0.1972558E-002  0.4939189E+03  0.7546771E-02  0.1015749E+00
         21   -1    0    0  501  502  0.00000000000E+00  0.00000000000E+00  0.27946765692E+03  0.27946765692E+03  0.00000000000E+00 0.  1.
         21   -1    0    0  502  503 -0.00000000000E+00 -0.00000000000E+00 -0.86456130027E+03  0.86456130027E+03  0.00000000000E+00 0.  1.
         25    1    1    2    0    0  0.43231685357E+03  0.18968187829E+03 -0.31404275470E+03  0.58062460214E+03  0.12500000000E+03 0.  0.
          2    1    1    2  501    0 -0.11882044307E+02 -0.48135062754E+02 -0.18416430777E+02  0.52889811550E+02  0.00000000000E+00 0. -1.
         -2    1    1    2    0  503 -0.42043480926E+03 -0.14154681553E+03 -0.25263445787E+03  0.51051454350E+03  0.00000000000E+00 0.  1.
<mgrwt>
<rscale>  4 0.49252497E+03</rscale>
<asrwt>0</asrwt>
<pdfrwt beam="1">  1       21 0.42995025E-01 0.49391890E+03</pdfrwt>
<pdfrwt beam="2">  1       21 0.13300943E+00 0.49391890E+03</pdfrwt>
<totfact> 0.17894340E+03</totfact>
</mgrwt>
</event>
<event>
 5    0  0.1972558E-002  0.3910540E+03  0.7546771E-02  0.1046922E+00
         21   -1    0    0  501  502  0.00000000000E+00  0.00000000000E+00  0.19229974341E+04  0.19229974341E+04  0.00000000000E+00 0.  1.
         21   -1    0    0  502  503 -0.00000000000E+00 -0.00000000000E+00 -0.22197115299E+03  0.22197115299E+03  0.00000000000E+00 0.  1.
         25    1    1    2    0    0 -0.38069820755E+03  0.61663802448E+01  0.16168600562E+02  0.40106804052E+03  0.12500000000E+03 0.  0.
          3    1    1    2  501    0  0.30561674592E+03 -0.10727719415E+03  0.12295282783E+04  0.12714754339E+04  0.00000000000E+00 0.  1.
         -3    1    1    2    0  503  0.75081461630E+02  0.10111081391E+03  0.45532940220E+03  0.47242511266E+03  0.00000000000E+00 0. -1.
<mgrwt>
<rscale>  4 0.39105398E+03</rscale>
<asrwt>0</asrwt>
<pdfrwt beam="1">  1       21 0.29584575E+00 0.39105398E+03</pdfrwt>
<pdfrwt beam="2">  1       21 0.34149409E-01 0.39105398E+03</pdfrwt>
<totfact> 0.24363311E+02</totfact>
</mgrwt>
</event>
<event>
 5    0  0.1972558E-002  0.3172248E+03  0.7546771E-02  0.1076934E+00
         21   -1    0    0  501  502  0.00000000000E+00  0.00000000000E+00  0.21728174319E+03  0.21728174319E+03  0.00000000000E+00 0. -1.
         21   -1    0    0  502  503 -0.00000000000E+00 -0.00000000000E+00 -0.20648585467E+04  0.20648585467E+04  0.00000000000E+00 0. -1.
         25    1    1    2    0    0  0.10809115238E+03  0.27284927097E+03 -0.18638928365E+04  0.18909923130E+04  0.12500000000E+03 0.  0.
          1    1    1    2  501    0  0.27012957260E+02 -0.29175545470E+02  0.93862107972E+02  0.10193629200E+03  0.00000000000E+00 0. -1.
         -1    1    1    2    0  503 -0.13510410964E+03 -0.24367372550E+03 -0.77546075004E+02  0.28921168491E+03  0.00000000000E+00 0.  1.
<mgrwt>
<rscale>  4 0.31722480E+03</rscale>
<asrwt>0</asrwt>
<pdfrwt beam="1">  1       21 0.33427959E-01 0.31722480E+03</pdfrwt>
<pdfrwt beam="2">  1       21 0.31767056E+00 0.31722480E+03</pdfrwt>
<totfact> 0.20016060E+02</totfact>
</mgrwt>
</event>
<event>
 5    0  0.1972558E-002  0.2365903E+03  0.7546771E-02  0.1122085E+00
         21   -1    0    0  501  502  0.00000000000E+00  0.00000000000E+00  0.13371728373E+03  0.13371728373E+03  0.00000000000E+00 0. -1.
         21   -1    0    0  502  503 -0.00000000000E+00 -0.00000000000E+00 -0.33230217473E+04  0.33230217473E+04  0.00000000000E+00 0.  1.
         25    1    1    2    0    0 -0.13036343829E+03 -0.15875513462E+03 -0.30669021030E+04  0.30763145691E+04  0.12500000000E+03 0.  0.
          1    1    1    2  501    0  0.16919338052E+03  0.32941330823E+01  0.14258576058E+02  0.16982508153E+03  0.00000000000E+00 0. -1.
         -1    1    1    2    0  503 -0.38829942232E+02  0.15546100154E+03 -0.13666093664E+03  0.21059938039E+03  0.00000000000E+00 0.  1.
<mgrwt>
<rscale>  4 0.23659025E+03</rscale>
<asrwt>0</asrwt>
<pdfrwt beam="1">  1       21 0.20571889E-01 0.23659025E+03</pdfrwt>
<pdfrwt beam="2">  1       21 0.51123414E+00 0.23659025E+03</pdfrwt>
<totfact> 0.31876117E+01</totfact>
</mgrwt>
</event>
<event>
 5    0  0.1972558E-002  0.3162333E+03  0.7546771E-02  0.1077396E+00
         21   -1    0    0  501  502  0.00000000000E+00  0.00000000000E+00  0.10240142963E+04  0.10240142963E+04  0.00000000000E+00 0. -1.
         21   -1    0    0  502  503 -0.00000000000E+00 -0.00000000000E+00 -0.55970927074E+03  0.55970927074E+03  0.00000000000E+00 0. -1.
         25    1    1    2    0    0  0.28188316630E+03 -0.67873215692E+02 -0.47335564935E+03  0.56899513498E+03  0.12500000000E+03 0.  0.
          2    1    1    2  501    0  0.13256289298E+02  0.24934837429E+02  0.39085764921E+03  0.39187648216E+03  0.00000000000E+00 0.  1.
         -2    1    1    2    0  503 -0.29513945560E+03  0.42938378263E+02  0.54680302569E+03  0.62285194989E+03  0.00000000000E+00 0. -1.
<mgrwt>
<rscale>  4 0.31623329E+03</rscale>
<asrwt>0</asrwt>
<pdfrwt beam="1">  1       21 0.15754066E+00 0.31623329E+03</pdfrwt>
<pdfrwt beam="2">  1       21 0.86109119E-01 0.31623329E+03</pdfrwt>
<totfact> 0.27131484E+02</totfact>
</mgrwt>
</event>
<event>
 5    0  0.1972558E-002  0.2675987E+03  0.7546771E-02  0.1102662E+00
         21   -1    0    0  501  502  0.00000000000E+00  0.00000000000E+00  0.11072512778E+04  0.11072512778E+04  0.00000000000E+00 0. -1.
         21   -1    0    0  502  503 -0.00000000000E+00 -0.00000000000E+00 -0.63003742606E+02  0.63003742606E+02  0.00000000000E+00 0. -1.
         25    1    1    2    0    0 -0.27591318297E+01 -0.22844032184E+03  0.51458665268E+03  0.57672958704E+03  0.12500000000E+03 0.  0.
          4    1    1    2  501    0 -0.17360525647E+02 -0.15140374023E+02  0.37321461452E+02  0.43857841502E+02  0.00000000000E+00 0.  1.
         -4    1    1    2    0  503  0.20119657476E+02  0.24358069586E+03  0.49233942105E+03  0.54966759185E+03  0.00000000000E+00 0. -1.
<mgrwt>
<rscale>  4 0.26759866E+03</rscale>
<asrwt>0</asrwt>
<pdfrwt beam="1">  1       21 0.17034634E+00 0.26759866E+03</pdfrwt>
<pdfrwt beam="2">  1       21 0.96928843E-02 0.26759866E+03</pdfrwt>
<totfact> 0.17353766E+04</totfact>
</mgrwt>
</event>
<event>
 5    0  0.1972558E-002  0.2568981E+03  0.7546771E-02  0.1109021E+00
         21   -1    0    0  503  502  0.00000000000E+00  0.00000000000E+00  0.21912398294E+03  0.21912398294E+03  0.00000000000E+00 0. -1.
         21   -1    0    0  501  503 -0.00000000000E+00 -0.00000000000E+00 -0.38005520246E+03  0.38005520246E+03  0.00000000000E+00 0. -1.
         25    1    1    2    0    0  0.33641171547E+02 -0.24090100862E+03 -0.16396617315E+03  0.31886506600E+03  0.12500000000E+03 0.  0.
          3    1    1    2  501    0  0.73967591404E+01  0.26981811946E+02 -0.48945962465E+02  0.56377632651E+02  0.00000000000E+00 0.  1.
         -3    1    1    2    0  502 -0.41037930687E+02  0.21391919667E+03  0.51980916092E+02  0.22393648675E+03  0.00000000000E+00 0. -1.
<mgrwt>
<rscale>  4 0.25689814E+03</rscale>
<asrwt>0</asrwt>
<pdfrwt beam="1">  1       21 0.33711382E-01 0.25689814E+03</pdfrwt>
<pdfrwt beam="2">  1       21 0.58470031E-01 0.25689814E+03</pdfrwt>
<totfact> 0.22442851E+04</totfact>
</mgrwt>
</event>
<event>
 5    0  0.1972558E-002  0.2189109E+03  0.7546771E-02  0.1134698E+00
         21   -1    0    0  501  502  0.00000000000E+00  0.00000000000E+00  0.49785114464E+03  0.49785114464E+03  0.00000000000E+00 0.  1.
         21   -1    0    0  502  503 -0.00000000000E+00 -0.00000000000E+00 -0.18539072712E+03  0.18539072712E+03  0.00000000000E+00 0.  1.
         25    1    1    2    0    0  0.59800498455E+02 -0.20291327916E+03  0.13102645687E+03  0.27846513403E+03  0.12500000000E+03 0.  0.
          3    1    1    2  501    0 -0.51123349236E+02  0.16165009713E+03 -0.44222895052E+02  0.17521419801E+03  0.00000000000E+00 0.  1.
         -3    1    1    2    0  503 -0.86771492193E+01  0.41263182026E+02  0.22565685571E+03  0.22956253971E+03  0.00000000000E+00 0. -1.
<mgrwt>
<rscale>  4 0.21891090E+03</rscale>
<asrwt>0</asrwt>
<pdfrwt beam="1">  1       21 0.76592483E-01 0.21891090E+03</pdfrwt>
<pdfrwt beam="2">  1       21 0.28521651E-01 0.21891090E+03</pdfrwt>
<totfact> 0.17551368E+04</totfact>
</mgrwt>
</event>
<event>
 5    0  0.1972558E-002  0.2445224E+03  0.7546771E-02  0.1116816E+00
         21   -1    0    0  501  502  0.00000000000E+00  0.00000000000E+00  0.14996016588E+03  0.14996016588E+03  0.00000000000E+00 0. -1.
         21   -1    0    0  502  503 -0.00000000000E+00 -0.00000000000E+00 -0.76298761385E+03  0.76298761385E+03  0.00000000000E+00 0. -1.
         25    1    1    2    0    0  0.19871817877E+03  0.36249510676E+02 -0.51066846107E+03  0.56321418549E+03  0.12500000000E+03 0.  0.
          3    1    1    2  501    0 -0.22171622135E+03 -0.56456951138E+02 -0.16360065029E+03  0.28126614250E+03  0.00000000000E+00 0. -1.
         -3    1    1    2    0  503  0.22998042575E+02  0.20207440462E+02  0.61241663400E+02  0.68467451744E+02  0.00000000000E+00 0.  1.
<mgrwt>
<rscale>  4 0.24452241E+03</rscale>
<asrwt>0</asrwt>
<pdfrwt beam="1">  1       21 0.23070795E-01 0.24452241E+03</pdfrwt>
<pdfrwt beam="2">  1       21 0.11738271E+00 0.24452241E+03</pdfrwt>
<totfact> 0.95063422E+03</totfact>
</mgrwt>
</event>
<event>
 5    0  0.1972558E-002  0.2615792E+03  0.7546771E-02  0.1106198E+00
         21   -1    0    0  501  502  0.00000000000E+00  0.00000000000E+00  0.49683768806E+03  0.49683768806E+03  0.00000000000E+00 0.  1.
         21   -1    0    0  502  503 -0.00000000000E+00 -0.00000000000E+00 -0.48378424017E+03  0.48378424017E+03  0.00000000000E+00 0. -1.
         25    1    1    2    0    0  0.16414894669E+03 -0.16405801162E+03 -0.40251082251E+03  0.48114433397E+03  0.12500000000E+03 0.  0.
          2    1    1    2  501    0 -0.20728065799E+02  0.54298882226E+01  0.18020238088E+03  0.18147185587E+03  0.00000000000E+00 0. -1.
         -2    1    1    2    0  503 -0.14342088089E+03  0.15862812340E+03  0.23536188953E+03  0.31800573839E+03  0.00000000000E+00 0.  1.
<mgrwt>
<rscale>  4 0.26157918E+03</rscale>
<asrwt>0</asrwt>
<pdfrwt beam="1">  1       21 0.76436567E-01 0.26157918E+03</pdfrwt>
<pdfrwt beam="2">  1       21 0.74428345E-01 0.26157918E+03</pdfrwt>
<totfact> 0.23368914E+03</totfact>
</mgrwt>
</event>
<event>
 5    0  0.1972558E-002  0.2695627E+03  0.7546771E-02  0.1101530E+00
         21   -1    0    0  501  502  0.00000000000E+00  0.00000000000E+00  0.33773273432E+03  0.33773273432E+03  0.00000000000E+00 0.  1.
         21   -1    0    0  502  503 -0.00000000000E+00 -0.00000000000E+00 -0.23790210291E+03  0.23790210291E+03  0.00000000000E+00 0. -1.
         25    1    1    2    0    0 -0.23166929477E+03 -0.80124601897E+02 -0.13356672165E+02  0.27548868336E+03  0.12500000000E+03 0.  0.
          3    1    1    2  501    0  0.23013413713E+03  0.35711938591E+02  0.87278671028E+02  0.24870591076E+03  0.00000000000E+00 0.  1.
         -3    1    1    2    0  503  0.15351576351E+01  0.44412663306E+02  0.25908632548E+02  0.51440243112E+02  0.00000000000E+00 0. -1.
<mgrwt>
<rscale>  4 0.26956268E+03</rscale>
<asrwt>0</asrwt>
<pdfrwt beam="1">  1       21 0.51958882E-01 0.26956268E+03</pdfrwt>
<pdfrwt beam="2">  1       21 0.36600323E-01 0.26956268E+03</pdfrwt>
<totfact> 0.24354617E+04</totfact>
</mgrwt>
</event>
<event>
 5    0  0.1972558E-002  0.2518893E+03  0.7546771E-02  0.1112117E+00
         21   -1    0    0  503  502  0.00000000000E+00  0.00000000000E+00  0.73850952020E+03  0.73850952020E+03  0.00000000000E+00 0. -1.
         21   -1    0    0  501  503 -0.00000000000E+00 -0.00000000000E+00 -0.21369485117E+03  0.21369485117E+03  0.00000000000E+00 0. -1.
         25    1    1    2    0    0  0.95437150182E+02  0.31885533044E+03  0.88833039263E+02  0.36646047570E+03  0.12500000000E+03 0.  0.
          2    1    1    2  501    0  0.89180208825E+01 -0.14856349430E+03  0.60913213992E+02  0.16081375119E+03  0.00000000000E+00 0.  1.
         -2    1    1    2    0  502 -0.10435517106E+03 -0.17029183614E+03  0.37506841577E+03  0.42493014448E+03  0.00000000000E+00 0. -1.
<mgrwt>
<rscale>  4 0.25188932E+03</rscale>
<asrwt>0</asrwt>
<pdfrwt beam="1">  1       21 0.11361685E+00 0.25188932E+03</pdfrwt>
<pdfrwt beam="2">  1       21 0.32876131E-01 0.25188932E+03</pdfrwt>
<totfact> 0.51543157E+03</totfact>
</mgrwt>
</event>
<event>
 5    0  0.1972558E-002  0.2758404E+03  0.7546771E-02  0.1097983E+00
         21   -1    0    0  501  502  0.00000000000E+00  0.00000000000E+00  0.10873000103E+03  0.10873000103E+03  0.00000000000E+00 0. -1.
         21   -1    0    0  502  503 -0.00000000000E+00 -0.00000000000E+00 -0.99704247630E+03  0.99704247630E+03  0.00000000000E+00 0. -1.
         25    1    1    2    0    0 -0.11427262463E+03 -0.21661119280E+03 -0.59844380431E+03  0.65858836044E+03  0.12500000000E+03 0.  0.
          3    1    1    2  501    0  0.61053959950E+02 -0.31003356671E+02 -0.91240255103E+01  0.69079968095E+02  0.00000000000E+00 0.  1.
         -3    1    1    2    0  503  0.53218664685E+02  0.24761454947E+03 -0.28074464545E+03  0.37810414879E+03  0.00000000000E+00 0. -1.
<mgrwt>
<rscale>  4 0.27584040E+03</rscale>
<asrwt>0</asrwt>
<pdfrwt beam="1">  1       21 0.16727692E-01 0.27584040E+03</pdfrwt>
<pdfrwt beam="2">  1       21 0.15339116E+00 0.27584040E+03</pdfrwt>
<totfact> 0.85663219E+03</totfact>
</mgrwt>
</event>
<event>
 5    0  0.1972558E-002  0.2768296E+03  0.7546771E-02  0.1097433E+00
         21   -1    0    0  501  502  0.00000000000E+00  0.00000000000E+00  0.49227853912E+03  0.49227853912E+03  0.00000000000E+00 0. -1.
         21   -1    0    0  502  503 -0.00000000000E+00 -0.00000000000E+00 -0.69081947117E+03  0.69081947117E+03  0.00000000000E+00 0.  1.
         25    1    1    2    0    0  0.13056442841E+03  0.20549005847E+03 -0.57364796941E+03  0.63558652197E+03  0.12500000000E+03 0.  0.
          4    1    1    2  501    0 -0.13348946160E+03 -0.23722276614E+03  0.13235123460E+03  0.30267296944E+03  0.00000000000E+00 0.  1.
         -4    1    1    2    0  503  0.29250331854E+01  0.31732707667E+02  0.24275580276E+03  0.24483851888E+03  0.00000000000E+00 0. -1.
<mgrwt>
<rscale>  4 0.27682959E+03</rscale>
<asrwt>0</asrwt>
<pdfrwt beam="1">  1       21 0.75735160E-01 0.27682959E+03</pdfrwt>
<pdfrwt beam="2">  1       21 0.10627992E+00 0.27682959E+03</pdfrwt>
<totfact> 0.10279676E+03</totfact>
</mgrwt>
</event>
<event>
 5    0  0.1972558E-002  0.2492788E+03  0.7546771E-02  0.1113761E+00
         21   -1    0    0  501  502  0.00000000000E+00  0.00000000000E+00  0.63218054279E+03  0.63218054279E+03  0.00000000000E+00 0.  1.
         21   -1    0    0  502  503 -0.00000000000E+00 -0.00000000000E+00 -0.22993864718E+03  0.22993864718E+03  0.00000000000E+00 0. -1.
         25    1    1    2    0    0 -0.21564099679E+03 -0.37289163131E+01 -0.13140355517E+03  0.28179219050E+03  0.12500000000E+03 0.  0.
          4    1    1    2  501    0  0.56797022492E+02 -0.12434986697E+02  0.23032332123E+03  0.23754865388E+03  0.00000000000E+00 0.  1.
         -4    1    1    2    0  503  0.15884397430E+03  0.16163903010E+02  0.30332212956E+03  0.34277834560E+03  0.00000000000E+00 0. -1.
<mgrwt>
<rscale>  4 0.24927885E+03</rscale>
<asrwt>0</asrwt>
<pdfrwt beam="1">  1       21 0.97258544E-01 0.24927885E+03</pdfrwt>
<pdfrwt beam="2">  1       21 0.35375177E-01 0.24927885E+03</pdfrwt>
<totfact> 0.64974296E+03</totfact>
</mgrwt>
</event>
<event>
 5    0  0.2093421E-002  0.2418753E+03  0.7546771E-02  0.1118550E+00
         21   -1    0    0  501  502  0.00000000000E+00  0.00000000000E+00  0.90310237193E+03  0.90310237193E+03  0.00000000000E+00 0.  1.
         21   -1    0    0  502  503 -0.00000000000E+00 -0.00000000000E+00 -0.96105867725E+02  0.96105867725E+02  0.00000000000E+00 0.  1.
         25    1    1    2    0    0  0.87456686742E+02 -0.19194165659E+03  0.55067220485E+03  0.60278947303E+03  0.12500000000E+03 0.  0.
          1    1    1    2  501    0 -0.11430676208E+03  0.16879287935E+03  0.28529011870E+03  0.35063873688E+03  0.00000000000E+00 0.  1.
         -1    1    1    2    0  503  0.26850075335E+02  0.23148777241E+02 -0.28965819346E+02  0.45780029746E+02  0.00000000000E+00 0. -1.
<mgrwt>
<rscale>  4 0.24187529E+03</rscale>
<asrwt>0</asrwt>
<pdfrwt beam="1">  1       21 0.13893882E+00 0.24187529E+03</pdfrwt>
<pdfrwt beam="2">  1       21 0.14785519E-01 0.24187529E+03</pdfrwt>
<totfact> 0.14236199E+04</totfact>
</mgrwt>
</event>
<event>
 5    0  0.1972558E-002  0.1847452E+03  0.7546771E-02  0.1163288E+00
         21   -1    0    0  501  502  0.00000000000E+00  0.00000000000E+00  0.10433125142E+03  0.10433125142E+03  0.00000000000E+00 0.  1.
         21   -1    0    0  502  503 -0.00000000000E+00 -0.00000000000E+00 -0.74754168921E+03  0.74754168921E+03  0.00000000000E+00 0.  1.
         25    1    1    2    0    0  0.21329111995E+03  0.81420232526E+02 -0.39949843904E+03  0.47680851388E+03  0.12500000000E+03 0.  0.
          3    1    1    2  501    0 -0.10657214889E+03 -0.58710771611E+02 -0.16206894925E+02  0.12274869069E+03  0.00000000000E+00 0.  1.
         -3    1    1    2    0  503 -0.10671897106E+03 -0.22709460915E+02 -0.22750510383E+03  0.25231573607E+03  0.00000000000E+00 0. -1.
<mgrwt>
<rscale>  4 0.18474520E+03</rscale>
<asrwt>0</asrwt>
<pdfrwt beam="1">  1       21 0.16050962E-01 0.18474520E+03</pdfrwt>
<pdfrwt beam="2">  1       21 0.11500641E+00 0.18474520E+03</pdfrwt>
<totfact> 0.20421133E+04</totfact>
</mgrwt>
</event>
<event>
 5    0  0.1972558E-002  0.2730761E+03  0.7546771E-02  0.1099532E+00
         21   -1    0    0  501  502  0.00000000000E+00  0.00000000000E+00  0.22763063203E+03  0.22763063203E+03  0.00000000000E+00 0.  1.
         21   -1    0    0  502  503 -0.00000000000E+00 -0.00000000000E+00 -0.87682296641E+03  0.87682296641E+03  0.00000000000E+00 0. -1.
         25    1    1    2    0    0  0.12622688926E+01  0.23685020565E+03 -0.68311097016E+03  0.73373374653E+03  0.12500000000E+03 0.  0.
          3    1    1    2  501    0 -0.71494353709E+02  0.40958514899E+02  0.12922440756E+02  0.83402829869E+02  0.00000000000E+00 0. -1.
         -3    1    1    2    0  503  0.70232084817E+02 -0.27780872055E+03  0.20996195026E+02  0.28731702205E+03  0.00000000000E+00 0.  1.
<mgrwt>
<rscale>  4 0.27307615E+03</rscale>
<asrwt>0</asrwt>
<pdfrwt beam="1">  1       21 0.35020097E-01 0.27307615E+03</pdfrwt>
<pdfrwt beam="2">  1       21 0.13489584E+00 0.27307615E+03</pdfrwt>
<totfact> 0.29102852E+03</totfact>
</mgrwt>
</event>
<event>
 5    0  0.1972558E-002  0.2576584E+03  0.7546771E-02  0.1108558E+00
         21   -1    0    0  501  502  0.00000000000E+00  0.00000000000E+00  0.67084806873E+02  0.67084806873E+02  0.00000000000E+00 0. -1.
         21   -1    0    0  502  503 -0.00000000000E+00 -0.00000000000E+00 -0.26390266932E+04  0.26390266932E+04  0.00000000000E+00 0. -1.
         25    1    1    2    0    0 -0.12200093446E+03 -0.24066389105E+03 -0.18748079839E+04  0.18982447980E+04  0.12500000000E+03 0.  0.
          3    1    1    2  501    0  0.29956179704E+02  0.18113971178E+03 -0.67033494652E+03  0.69502367471E+03  0.00000000000E+00 0.  1.
         -3    1    1    2    0  503  0.92044754753E+02  0.59524179275E+02 -0.26798955904E+02  0.11284302740E+03  0.00000000000E+00 0. -1.
<mgrwt>
<rscale>  4 0.25765837E+03</rscale>
<asrwt>0</asrwt>
<pdfrwt beam="1">  1       21 0.10320742E-01 0.25765837E+03</pdfrwt>
<pdfrwt beam="2">  1       21 0.40600402E+00 0.25765837E+03</pdfrwt>
<totfact> 0.56029828E+02</totfact>
</mgrwt>
</event>
<event>
 5    0  0.1972558E-002  0.3031568E+03  0.7546771E-02  0.1083673E+00
         21   -1    0    0  501  502  0.00000000000E+00  0.00000000000E+00  0.13404694749E+04  0.13404694749E+04  0.00000000000E+00 0.  1.
         21   -1    0    0  502  503 -0.00000000000E+00 -0.00000000000E+00 -0.98793245597E+02  0.98793245597E+02  0.00000000000E+00 0.  1.
         25    1    1    2    0    0  0.22926000872E+03  0.15108353590E+03  0.31762567526E+03  0.43806101858E+03  0.12500000000E+03 0.  0.
          4    1    1    2  501    0  0.14179100476E+02 -0.15210120226E+02  0.45555922127E+03  0.45603355001E+03  0.00000000000E+00 0. -1.
         -4    1    1    2    0  503 -0.24343910919E+03 -0.13587341567E+03  0.46849133276E+03  0.54516815190E+03  0.00000000000E+00 0.  1.
<mgrwt>
<rscale>  4 0.30315682E+03</rscale>
<asrwt>0</asrwt>
<pdfrwt beam="1">  1       21 0.20622606E+00 0.30315682E+03</pdfrwt>
<pdfrwt beam="2">  1       21 0.15198962E-01 0.30315682E+03</pdfrwt>
<totfact> 0.43129634E+03</totfact>
</mgrwt>
</event>
<event>
 5    0  0.1972558E-002  0.2120460E+03  0.7546771E-02  0.1139956E+00
         21   -1    0    0  501  502  0.00000000000E+00  0.00000000000E+00  0.65918354641E+03  0.65918354641E+03  0.00000000000E+00 0. -1.
         21   -1    0    0  502  503 -0.00000000000E+00 -0.00000000000E+00 -0.37655513383E+03  0.37655513383E+03  0.00000000000E+00 0. -1.
         25    1    1    2    0    0  0.14716911926E+03 -0.16392887807E+03 -0.27973655016E+03  0.37737112266E+03  0.12500000000E+03 0.  0.
          4    1    1    2  501    0 -0.13137581120E+03  0.10717947383E+03  0.57383156579E+03  0.59835583834E+03  0.00000000000E+00 0. -1.
         -4    1    1    2    0  503 -0.15793308053E+02  0.56749404239E+02 -0.11466603055E+02  0.60011719242E+02  0.00000000000E+00 0.  1.
<mgrwt>
<rscale>  4 0.21204601E+03</rscale>
<asrwt>0</asrwt>
<pdfrwt beam="1">  1       21 0.10141285E+00 0.21204601E+03</pdfrwt>
<pdfrwt beam="2">  1       21 0.57931559E-01 0.21204601E+03</pdfrwt>
<totfact> 0.21803760E+03</totfact>
</mgrwt>
</event>
<event>
 5    0  0.1972558E-002  0.3174610E+03  0.7546771E-02  0.1076824E+00
         21   -1    0    0  501  502  0.00000000000E+00  0.00000000000E+00  0.31494405289E+03  0.31494405289E+03  0.00000000000E+00 0.  1.
         21   -1    0    0  502  503 -0.00000000000E+00 -0.00000000000E+00 -0.15594420742E+04  0.15594420742E+04  0.00000000000E+00 0. -1.
         25    1    1    2    0    0 -0.10823138188E+03  0.29513194310E+03 -0.14137497980E+04  0.14536610289E+04  0.12500000000E+03 0.  0.
          2    1    1    2  501    0 -0.41834591245E+02 -0.17896939545E+03  0.13461263766E+03  0.22781733856E+03  0.00000000000E+00 0.  1.
         -2    1    1    2    0  503  0.15006597313E+03 -0.11616254766E+03  0.34639138955E+02  0.19290775961E+03  0.00000000000E+00 0. -1.
<mgrwt>
<rscale>  4 0.31746103E+03</rscale>
<asrwt>0</asrwt>
<pdfrwt beam="1">  1       21 0.48452931E-01 0.31746103E+03</pdfrwt>
<pdfrwt beam="2">  1       21 0.23991417E+00 0.31746103E+03</pdfrwt>
<totfact> 0.27204110E+02</totfact>
</mgrwt>
</event>
<event>
 5    0  0.1972558E-002  0.4528063E+03  0.7546771E-02  0.1026888E+00
         21   -1    0    0  501  502  0.00000000000E+00  0.00000000000E+00  0.26917774438E+03  0.26917774438E+03  0.00000000000E+00 0. -1.
         21   -1    0    0  502  503 -0.00000000000E+00 -0.00000000000E+00 -0.93658775729E+03  0.93658775729E+03  0.00000000000E+00 0. -1.
         25    1    1    2    0    0 -0.26253752830E+03 -0.37695194941E+03 -0.40967132238E+03  0.62807190537E+03  0.12500000000E+03 0.  0.
          4    1    1    2  501    0 -0.16609157175E+02  0.72578548495E+02  0.23450347730E+02  0.78060416424E+02  0.00000000000E+00 0.  1.
         -4    1    1    2    0  503  0.27914668548E+03  0.30437340092E+03 -0.28118903826E+03  0.49963317988E+03  0.00000000000E+00 0. -1.
<mgrwt>
<rscale>  4 0.45280627E+03</rscale>
<asrwt>0</asrwt>
<pdfrwt beam="1">  1       21 0.41411961E-01 0.45280627E+03</pdfrwt>
<pdfrwt beam="2">  1       21 0.14409042E+00 0.45280627E+03</pdfrwt>
<totfact> 0.15893271E+03</totfact>
</mgrwt>
</event>
<event>
 5    0  0.1972558E-002  0.3906862E+03  0.7546771E-02  0.1047053E+00
         21   -1    0    0  501  502  0.00000000000E+00  0.00000000000E+00  0.20749712373E+03  0.20749712373E+03  0.00000000000E+00 0. -1.
         21   -1    0    0  502  503 -0.00000000000E+00 -0.00000000000E+00 -0.91709757359E+03  0.91709757359E+03  0.00000000000E+00 0. -1.
         25    1    1    2    0    0  0.24816003942E+03  0.27464034524E+03 -0.61187564640E+03  0.72596661842E+03  0.12500000000E+03 0.  0.
          3    1    1    2  501    0 -0.10011239876E+03 -0.19103988787E+03 -0.42212194288E+02  0.21977397591E+03  0.00000000000E+00 0. -1.
         -3    1    1    2    0  503 -0.14804764066E+03 -0.83600457374E+02 -0.55512609172E+02  0.17885410299E+03  0.00000000000E+00 0.  1.
<mgrwt>
<rscale>  4 0.39068622E+03</rscale>
<asrwt>0</asrwt>
<pdfrwt beam="1">  1       21 0.31922635E-01 0.39068622E+03</pdfrwt>
<pdfrwt beam="2">  1       21 0.14109193E+00 0.39068622E+03</pdfrwt>
<totfact> 0.29273578E+03</totfact>
</mgrwt>
</event>
<event>
 5    0  0.1972558E-002  0.2401964E+03  0.7546771E-02  0.1119662E+00
         21   -1    0    0  503  502  0.00000000000E+00  0.00000000000E+00  0.44377048996E+03  0.44377048996E+03  0.00000000000E+00 0. -1.
         21   -1    0    0  501  503 -0.00000000000E+00 -0.00000000000E+00 -0.30383325034E+03  0.30383325034E+03  0.00000000000E+00 0. -1.
         25    1    1    2    0    0 -0.21451667343E+03 -0.11940771922E+02 -0.20846598752E+03  0.32441185732E+03  0.12500000000E+03 0.  0.
          1    1    1    2  501    0  0.62613107968E+02  0.30690144342E+02  0.43933567411E+02  0.82416288406E+02  0.00000000000E+00 0.  1.
         -1    1    1    2    0  502  0.15190356546E+03 -0.18749372420E+02  0.30446965972E+03  0.34077559458E+03  0.00000000000E+00 0. -1.
<mgrwt>
<rscale>  4 0.24019643E+03</rscale>
<asrwt>0</asrwt>
<pdfrwt beam="1">  1       21 0.68272383E-01 0.24019643E+03</pdfrwt>
<pdfrwt beam="2">  1       21 0.46743577E-01 0.24019643E+03</pdfrwt>
<totfact> 0.83132655E+03</totfact>
</mgrwt>
</event>
<event>
 5    0  0.1972558E-002  0.2996657E+03  0.7546771E-02  0.1085408E+00
         21   -1    0    0  501  502  0.00000000000E+00  0.00000000000E+00  0.94865938982E+03  0.94865938982E+03  0.00000000000E+00 0. -1.
         21   -1    0    0  502  503 -0.00000000000E+00 -0.00000000000E+00 -0.25453005352E+03  0.25453005352E+03  0.00000000000E+00 0. -1.
         25    1    1    2    0    0 -0.10955015451E+03  0.25552322284E+03 -0.11682030830E+03  0.32644346860E+03  0.12500000000E+03 0.  0.
          2    1    1    2  501    0 -0.22188584046E+01 -0.35210445272E+02  0.36698097037E+03  0.36867293283E+03  0.00000000000E+00 0.  1.
         -2    1    1    2    0  503  0.11176901291E+03 -0.22031277756E+03  0.44396867424E+03  0.50807304190E+03  0.00000000000E+00 0. -1.
<mgrwt>
<rscale>  4 0.29966573E+03</rscale>
<asrwt>0</asrwt>
<pdfrwt beam="1">  1       21 0.14594760E+00 0.29966573E+03</pdfrwt>
<pdfrwt beam="2">  1       21 0.39158470E-01 0.29966573E+03</pdfrwt>
<totfact> 0.18586394E+03</totfact>
</mgrwt>
</event>
<event>
 5    0  0.1972558E-002  0.2095060E+03  0.7546771E-02  0.1141958E+00
         21   -1    0    0  503  502  0.00000000000E+00  0.00000000000E+00  0.13111013183E+04  0.13111013183E+04  0.00000000000E+00 0. -1.
         21   -1    0    0  501  503 -0.00000000000E+00 -0.00000000000E+00 -0.94628555602E+02  0.94628555602E+02  0.00000000000E+00 0. -1.
         25    1    1    2    0    0  0.20299055117E+03 -0.12333852094E+02  0.19137498997E+03  0.30595207885E+03  0.12500000000E+03 0.  0.
          3    1    1    2  501    0 -0.14721041968E+03 -0.69129445451E+01  0.11283405608E+03  0.18560770640E+03  0.00000000000E+00 0.  1.
         -3    1    1    2    0  502 -0.55780131484E+02  0.19246796639E+02  0.91226371670E+03  0.91417008869E+03  0.00000000000E+00 0. -1.
<mgrwt>
<rscale>  4 0.20950603E+03</rscale>
<asrwt>0</asrwt>
<pdfrwt beam="1">  1       21 0.20170788E+00 0.20950603E+03</pdfrwt>
<pdfrwt beam="2">  1       21 0.14558240E-01 0.20950603E+03</pdfrwt>
<totfact> 0.53413343E+03</totfact>
</mgrwt>
</event>
<event>
 5    0  0.1972558E-002  0.2957921E+03  0.7546771E-02  0.1087363E+00
         21   -1    0    0  501  502  0.00000000000E+00  0.00000000000E+00  0.55393324719E+03  0.55393324719E+03  0.00000000000E+00 0. -1.
         21   -1    0    0  502  503 -0.00000000000E+00 -0.00000000000E+00 -0.44222696517E+03  0.44222696517E+03  0.00000000000E+00 0.  1.
         25    1    1    2    0    0  0.14775665821E+03  0.23030754777E+03 -0.29414610705E+03  0.42073807635E+03  0.12500000000E+03 0.  0.
          4    1    1    2  501    0 -0.11860081121E+03 -0.22249419656E+03  0.10510026472E+03  0.27315908472E+03  0.00000000000E+00 0. -1.
         -4    1    1    2    0  503 -0.29155846998E+02 -0.78133512086E+01  0.30075212435E+03  0.30226305128E+03  0.00000000000E+00 0.  1.
<mgrwt>
<rscale>  4 0.29579214E+03</rscale>
<asrwt>0</asrwt>
<pdfrwt beam="1">  1       21 0.85220500E-01 0.29579214E+03</pdfrwt>
<pdfrwt beam="2">  1       21 0.68034917E-01 0.29579214E+03</pdfrwt>
<totfact> 0.21799551E+03</totfact>
</mgrwt>
</event>
<event>
 5    0  0.1972558E-002  0.2730553E+03  0.7546771E-02  0.1099544E+00
         21   -1    0    0  501  502  0.00000000000E+00  0.00000000000E+00  0.46348477393E+02  0.46348477393E+02  0.00000000000E+00 0. -1.
         21   -1    0    0  502  503 -0.00000000000E+00 -0.00000000000E+00 -0.25893876213E+04  0.25893876213E+04  0.00000000000E+00 0.  1.
         25    1    1    2    0    0 -0.87749401545E+02  0.25141300675E+03 -0.17885455115E+04  0.18125751030E+04  0.12500000000E+03 0.  0.
          4    1    1    2  501    0 -0.20320903633E+02 -0.66474240388E+02 -0.46890478265E+02  0.83847961881E+02  0.00000000000E+00 0. -1.
         -4    1    1    2    0  503  0.10807030518E+03 -0.18493876637E+03 -0.70760315421E+03  0.73931303385E+03  0.00000000000E+00 0.  1.
<mgrwt>
<rscale>  4 0.27305532E+03</rscale>
<asrwt>0</asrwt>
<pdfrwt beam="1">  1       21 0.71305331E-02 0.27305532E+03</pdfrwt>
<pdfrwt beam="2">  1       21 0.39836743E+00 0.27305532E+03</pdfrwt>
<totfact> 0.11801314E+03</totfact>
</mgrwt>
</event>
<event>
 5    0  0.1972558E-002  0.3118110E+03  0.7546771E-02  0.1079481E+00
         21   -1    0    0  501  502  0.00000000000E+00  0.00000000000E+00  0.67844853831E+03  0.67844853831E+03  0.00000000000E+00 0.  1.
         21   -1    0    0  502  503 -0.00000000000E+00 -0.00000000000E+00 -0.17031569250E+03  0.17031569250E+03  0.00000000000E+00 0.  1.
         25    1    1    2    0    0  0.25533043636E+03  0.29783120641E+02  0.24941306431E+03  0.37935806655E+03  0.12500000000E+03 0.  0.
          4    1    1    2  501    0 -0.30353000737E+03 -0.46928788859E+02  0.13494209863E+03  0.33547301915E+03  0.00000000000E+00 0.  1.
         -4    1    1    2    0  503  0.48199571001E+02  0.17145668218E+02  0.12377768286E+03  0.13393314510E+03  0.00000000000E+00 0. -1.
<mgrwt>
<rscale>  4 0.31181100E+03</rscale>
<asrwt>0</asrwt>
<pdfrwt beam="1">  1       21 0.10437670E+00 0.31181100E+03</pdfrwt>
<pdfrwt beam="2">  1       21 0.26202415E-01 0.31181100E+03</pdfrwt>
<totfact> 0.95868570E+03</totfact>
</mgrwt>
</event>
<event>
 5    0  0.1972558E-002  0.2708495E+03  0.7546771E-02  0.1100794E+00
         21   -1    0    0  501  502  0.00000000000E+00  0.00000000000E+00  0.22786786574E+03  0.22786786574E+03  0.00000000000E+00 0.  1.
         21   -1    0    0  502  503 -0.00000000000E+00 -0.00000000000E+00 -0.80419866516E+03  0.80419866516E+03  0.00000000000E+00 0.  1.
         25    1    1    2    0    0  0.21758495280E+03  0.10908165477E+03 -0.69825438369E+03  0.74995080068E+03  0.12500000000E+03 0.  0.
          4    1    1    2  501    0 -0.17419728661E+02 -0.14941665439E+02  0.40227203688E+02  0.46313369876E+02  0.00000000000E+00 0. -1.
         -4    1    1    2    0  503 -0.20016522414E+03 -0.94139989330E+02  0.81696380579E+02  0.23580236035E+03  0.00000000000E+00 0.  1.
<mgrwt>
<rscale>  4 0.27084948E+03</rscale>
<asrwt>0</asrwt>
<pdfrwt beam="1">  1       21 0.35056595E-01 0.27084948E+03</pdfrwt>
<pdfrwt beam="2">  1       21 0.12372287E+00 0.27084948E+03</pdfrwt>
<totfact> 0.36256520E+03</totfact>
</mgrwt>
</event>
<event>
 5    0  0.1972558E-002  0.3095397E+03  0.7546771E-02  0.1080567E+00
         21   -1    0    0  501  502  0.00000000000E+00  0.00000000000E+00  0.13461256180E+04  0.13461256180E+04  0.00000000000E+00 0.  1.
         21   -1    0    0  502  503 -0.00000000000E+00 -0.00000000000E+00 -0.11217280903E+03  0.11217280903E+03  0.00000000000E+00 0. -1.
         25    1    1    2    0    0 -0.21014572313E+03 -0.19681497062E+03  0.18237776039E+03  0.36302066759E+03  0.12500000000E+03 0.  0.
          3    1    1    2  501    0  0.27207321699E+02 -0.18549255015E-01  0.21221449686E+03  0.21395146968E+03  0.00000000000E+00 0.  1.
         -3    1    1    2    0  503  0.18293840143E+03  0.19683351988E+03  0.83936055168E+03  0.88132628974E+03  0.00000000000E+00 0. -1.
<mgrwt>
<rscale>  4 0.30953971E+03</rscale>
<asrwt>0</asrwt>
<pdfrwt beam="1">  1       21 0.20709624E+00 0.30953971E+03</pdfrwt>
<pdfrwt beam="2">  1       21 0.17257356E-01 0.30953971E+03</pdfrwt>
<totfact> 0.33521396E+03</totfact>
</mgrwt>
</event>
<event>
 5    0  0.1972558E-002  0.2669916E+03  0.7546771E-02  0.1103014E+00
         21   -1    0    0  501  502  0.00000000000E+00  0.00000000000E+00  0.10073691015E+04  0.10073691015E+04  0.00000000000E+00 0.  1.
         21   -1    0    0  502  503 -0.00000000000E+00 -0.00000000000E+00 -0.19768224530E+04  0.19768224530E+04  0.00000000000E+00 0.  1.
         25    1    1    2    0    0  0.21491432626E+03 -0.97320744240E+02 -0.19513976923E+04  0.19695779874E+04  0.12500000000E+03 0.  0.
          2    1    1    2  501    0 -0.80173378335E+02  0.18504727698E+01  0.46709476064E+03  0.47392901395E+03  0.00000000000E+00 0. -1.
         -2    1    1    2    0  503 -0.13474094792E+03  0.95470271470E+02  0.51484958016E+03  0.54068455311E+03  0.00000000000E+00 0.  1.
<mgrwt>
<rscale>  4 0.26699156E+03</rscale>
<asrwt>0</asrwt>
<pdfrwt beam="1">  1       21 0.15497986E+00 0.26699156E+03</pdfrwt>
<pdfrwt beam="2">  1       21 0.30412653E+00 0.26699156E+03</pdfrwt>
<totfact> 0.77956977E+00</totfact>
</mgrwt>
</event>
<event>
 5    0  0.1972558E-002  0.3601286E+03  0.7546771E-02  0.1058533E+00
         21   -1    0    0  501  502  0.00000000000E+00  0.00000000000E+00  0.19130043019E+03  0.19130043019E+03  0.00000000000E+00 0.  1.
         21   -1    0    0  502  503 -0.00000000000E+00 -0.00000000000E+00 -0.73408058070E+03  0.73408058070E+03  0.00000000000E+00 0.  1.
         25    1    1    2    0    0 -0.34418223654E+03  0.68549097888E+02 -0.27799489192E+03  0.46482959319E+03  0.12500000000E+03 0.  0.
          3    1    1    2  501    0  0.19145948435E+02 -0.29976264557E+02  0.55900783378E+01  0.36005454505E+02  0.00000000000E+00 0. -1.
         -3    1    1    2    0  503  0.32503628810E+03 -0.38572833331E+02 -0.27037533693E+03  0.42454596320E+03  0.00000000000E+00 0.  1.
<mgrwt>
<rscale>  4 0.36012857E+03</rscale>
<asrwt>0</asrwt>
<pdfrwt beam="1">  1       21 0.29430835E-01 0.36012857E+03</pdfrwt>
<pdfrwt beam="2">  1       21 0.11293547E+00 0.36012857E+03</pdfrwt>
<totfact> 0.61634022E+03</totfact>
</mgrwt>
</event>
<event>
 5    0  0.1972558E-002  0.2349591E+03  0.7546771E-02  0.1123197E+00
         21   -1    0    0  501  502  0.00000000000E+00  0.00000000000E+00  0.55193969960E+03  0.55193969960E+03  0.00000000000E+00 0.  1.
         21   -1    0    0  502  503 -0.00000000000E+00 -0.00000000000E+00 -0.38397543858E+03  0.38397543858E+03  0.00000000000E+00 0. -1.
         25    1    1    2    0    0 -0.24745789486E+03  0.47751471947E+02 -0.67147498295E+02  0.28922205886E+03  0.12500000000E+03 0.  0.
          4    1    1    2  501    0  0.15347930683E+03 -0.10048403078E+03 -0.15612293982E+03  0.24088858504E+03  0.00000000000E+00 0. -1.
         -4    1    1    2    0  503  0.93978588038E+02  0.52732558838E+02  0.39123469913E+03  0.40580449428E+03  0.00000000000E+00 0.  1.
<mgrwt>
<rscale>  4 0.23495912E+03</rscale>
<asrwt>0</asrwt>
<pdfrwt beam="1">  1       21 0.84913800E-01 0.23495912E+03</pdfrwt>
<pdfrwt beam="2">  1       21 0.59073144E-01 0.23495912E+03</pdfrwt>
<totfact> 0.31123084E+03</totfact>
</mgrwt>
</event>
<event>
 5    0  0.1972558E-002  0.3391723E+03  0.7546771E-02  0.1067247E+00
         21   -1    0    0  501  502  0.00000000000E+00  0.00000000000E+00  0.83770502469E+03  0.83770502469E+03  0.00000000000E+00 0. -1.
         21   -1    0    0  502  503 -0.00000000000E+00 -0.00000000000E+00 -0.13762593258E+03  0.13762593258E+03  0.00000000000E+00 0.  1.
         25    1    1    2    0    0  0.29176654094E+03 -0.11688861482E+03  0.31547699944E+03  0.46253799829E+03  0.12500000000E+03 0.  0.
          2    1    1    2  501    0 -0.15239550715E+03  0.10218914456E+03  0.13965120411E+03  0.23058506169E+03  0.00000000000E+00 0. -1.
         -2    1    1    2    0  503 -0.13937103379E+03  0.14699470251E+02  0.24495088856E+03  0.28220789729E+03  0.00000000000E+00 0.  1.
<mgrwt>
<rscale>  4 0.33894245E+03</rscale>
<asrwt>0</asrwt>
<pdfrwt beam="1">  1       21 0.12887769E+00 0.33917230E+03</pdfrwt>
<pdfrwt beam="2">  1       21 0.21173221E-01 0.33917230E+03</pdfrwt>
<totfact> 0.84295994E+03</totfact>
</mgrwt>
</event>
<event>
 5    0  0.1972558E-002  0.2379015E+03  0.7546771E-02  0.1121199E+00
         21   -1    0    0  501  502  0.00000000000E+00  0.00000000000E+00  0.97304649495E+03  0.97304649495E+03  0.00000000000E+00 0.  1.
         21   -1    0    0  502  503 -0.00000000000E+00 -0.00000000000E+00 -0.23214061969E+03  0.23214061969E+03  0.00000000000E+00 0. -1.
         25    1    1    2    0    0 -0.67583385336E+02 -0.20135415292E+03 -0.40692585561E+02  0.24978369721E+03  0.12500000000E+03 0.  0.
          2    1    1    2  501    0 -0.19128105680E+03  0.13992477823E+03  0.56374785482E+03  0.61153824906E+03  0.00000000000E+00 0. -1.
         -2    1    1    2    0  503  0.25886444214E+03  0.61429374694E+02  0.21785060600E+03  0.34386516837E+03  0.00000000000E+00 0.  1.
<mgrwt>
<rscale>  4 0.23790146E+03</rscale>
<asrwt>0</asrwt>
<pdfrwt beam="1">  1       21 0.14969946E+00 0.23790146E+03</pdfrwt>
<pdfrwt beam="2">  1       21 0.35713942E-01 0.23790146E+03</pdfrwt>
<totfact> 0.21837728E+03</totfact>
</mgrwt>
</event>
<event>
 5    0  0.1972558E-002  0.3199228E+03  0.7546771E-02  0.1075685E+00
         21   -1    0    0  503  502  0.00000000000E+00  0.00000000000E+00  0.93863017558E+03  0.93863017558E+03  0.00000000000E+00 0. -1.
         21   -1    0    0  501  503 -0.00000000000E+00 -0.00000000000E+00 -0.16985585635E+03  0.16985585635E+03  0.00000000000E+00 0.  1.
         25    1    1    2    0    0  0.28301624923E+03  0.15982177265E+03  0.12917881579E+03  0.37142073554E+03  0.12500000000E+03 0.  0.
          2    1    1    2  501    0 -0.39949276771E+02 -0.96839013870E+02  0.27584682274E+03  0.29506814287E+03  0.00000000000E+00 0.  1.
         -2    1    1    2    0  502 -0.24306697246E+03 -0.62982758777E+02  0.36374868070E+03  0.44199715352E+03  0.00000000000E+00 0. -1.
<mgrwt>
<rscale>  4 0.31992284E+03</rscale>
<asrwt>0</asrwt>
<pdfrwt beam="1">  1       21 0.14440464E+00 0.31992284E+03</pdfrwt>
<pdfrwt beam="2">  1       21 0.26131671E-01 0.31992284E+03</pdfrwt>
<totfact> 0.42207359E+03</totfact>
</mgrwt>
</event>
<event>
 5    0  0.1972558E-002  0.2129075E+03  0.7546771E-02  0.1139284E+00
         21   -1    0    0  501  502  0.00000000000E+00  0.00000000000E+00  0.23284610969E+03  0.23284610969E+03  0.00000000000E+00 0. -1.
         21   -1    0    0  502  503 -0.00000000000E+00 -0.00000000000E+00 -0.37081698993E+03  0.37081698993E+03  0.00000000000E+00 0.  1.
         25    1    1    2    0    0  0.20674883337E+02  0.19916565710E+03  0.70113583875E+02  0.24624240986E+03  0.12500000000E+03 0.  0.
          3    1    1    2  501    0  0.56189725888E+02 -0.48269990156E+02  0.16749351932E+02  0.75946152208E+02  0.00000000000E+00 0.  1.
         -3    1    1    2    0  503 -0.76864609225E+02 -0.15089566695E+03 -0.22483381605E+03  0.28147453756E+03  0.00000000000E+00 0. -1.
<mgrwt>
<rscale>  4 0.21290752E+03</rscale>
<asrwt>0</asrwt>
<pdfrwt beam="1">  1       21 0.35822479E-01 0.21290752E+03</pdfrwt>
<pdfrwt beam="2">  1       21 0.57048767E-01 0.21290752E+03</pdfrwt>
<totfact> 0.21433714E+04</totfact>
</mgrwt>
</event>
<event>
 5    0  0.1972558E-002  0.2308551E+03  0.7546771E-02  0.1126039E+00
         21   -1    0    0  503  502  0.00000000000E+00  0.00000000000E+00  0.21949120618E+04  0.21949120618E+04  0.00000000000E+00 0. -1.
         21   -1    0    0  501  503 -0.00000000000E+00 -0.00000000000E+00 -0.37160558981E+02  0.37160558981E+02  0.00000000000E+00 0.  1.
         25    1    1    2    0    0 -0.93013290983E+02  0.17767880167E+03  0.44526830441E+03  0.50409333637E+03  0.12500000000E+03 0.  0.
          2    1    1    2  501    0  0.51011965097E+02 -0.29598451824E+01  0.35810162066E+03  0.36172883765E+03  0.00000000000E+00 0.  1.
         -2    1    1    2    0  502  0.42001325887E+02 -0.17471895648E+03  0.13543815777E+04  0.13662504467E+04  0.00000000000E+00 0. -1.
<mgrwt>
<rscale>  4 0.23085510E+03</rscale>
<asrwt>0</asrwt>
<pdfrwt beam="1">  1       21 0.33767868E+00 0.23085510E+03</pdfrwt>
<pdfrwt beam="2">  1       21 0.57170108E-02 0.23085510E+03</pdfrwt>
<totfact> 0.42304808E+03</totfact>
</mgrwt>
</event>
<event>
 5    0  0.1972558E-002  0.2709713E+03  0.7546771E-02  0.1100725E+00
         21   -1    0    0  501  502  0.00000000000E+00  0.00000000000E+00  0.37546980442E+03  0.37546980442E+03  0.00000000000E+00 0.  1.
         21   -1    0    0  502  503 -0.00000000000E+00 -0.00000000000E+00 -0.48504460448E+03  0.48504460448E+03  0.00000000000E+00 0. -1.
         25    1    1    2    0    0  0.95524671651E+01 -0.24542744240E+03 -0.37606775882E+03  0.46623796321E+03  0.12500000000E+03 0.  0.
          2    1    1    2  501    0 -0.59691123080E-01  0.27188490879E+02  0.13839938784E+03  0.14104470267E+03  0.00000000000E+00 0.  1.
         -2    1    1    2    0  503 -0.94927760420E+01  0.21823895152E+03  0.12809357093E+03  0.25323174301E+03  0.00000000000E+00 0. -1.
<mgrwt>
<rscale>  4 0.27097130E+03</rscale>
<asrwt>0</asrwt>
<pdfrwt beam="1">  1       21 0.57764585E-01 0.27097130E+03</pdfrwt>
<pdfrwt beam="2">  1       21 0.74622247E-01 0.27097130E+03</pdfrwt>
<totfact> 0.42818589E+03</totfact>
</mgrwt>
</event>
<event>
 5    0  0.1972558E-002  0.4073121E+03  0.7546771E-02  0.1041277E+00
         21   -1    0    0  501  502  0.00000000000E+00  0.00000000000E+00  0.22419909275E+03  0.22419909275E+03  0.00000000000E+00 0.  1.
         21   -1    0    0  502  503 -0.00000000000E+00 -0.00000000000E+00 -0.22556573098E+04  0.22556573098E+04  0.00000000000E+00 0.  1.
         25    1    1    2    0    0 -0.37246034200E+03 -0.84663030396E+02 -0.16496509909E+04  0.16979010357E+04  0.12500000000E+03 0.  0.
          3    1    1    2  501    0 -0.37329501599E+02  0.67905123765E+02  0.11441202086E+03  0.13818360265E+03  0.00000000000E+00 0.  1.
         -3    1    1    2    0  503  0.40978984360E+03  0.16757906631E+02 -0.49621924701E+03  0.64377176425E+03  0.00000000000E+00 0. -1.
<mgrwt>
<rscale>  4 0.40731211E+03</rscale>
<asrwt>0</asrwt>
<pdfrwt beam="1">  1       21 0.34492168E-01 0.40731211E+03</pdfrwt>
<pdfrwt beam="2">  1       21 0.34702420E+00 0.40731211E+03</pdfrwt>
<totfact> 0.11609073E+02</totfact>
</mgrwt>
</event>
<event>
 5    0  0.1972558E-002  0.2713758E+03  0.7546771E-02  0.1100495E+00
         21   -1    0    0  501  502  0.00000000000E+00  0.00000000000E+00  0.98920513491E+03  0.98920513491E+03  0.00000000000E+00 0.  1.
         21   -1    0    0  502  503 -0.00000000000E+00 -0.00000000000E+00 -0.80865885441E+02  0.80865885441E+02  0.00000000000E+00 0. -1.
         25    1    1    2    0    0 -0.24081637517E+03 -0.52236300380E+01  0.25615664784E+03  0.37317695681E+03  0.12500000000E+03 0.  0.
          4    1    1    2  501    0  0.26708827060E+02  0.14758020488E+02  0.10103419567E+03  0.10554178938E+03  0.00000000000E+00 0. -1.
         -4    1    1    2    0  503  0.21410754811E+03 -0.95343904499E+01  0.55114840596E+03  0.59135227415E+03  0.00000000000E+00 0.  1.
<mgrwt>
<rscale>  4 0.27137578E+03</rscale>
<asrwt>0</asrwt>
<pdfrwt beam="1">  1       21 0.15218540E+00 0.27137578E+03</pdfrwt>
<pdfrwt beam="2">  1       21 0.12440906E-01 0.27137578E+03</pdfrwt>
<totfact> 0.15078419E+04</totfact>
</mgrwt>
</event>
<event>
 5    0  0.1972558E-002  0.2360358E+03  0.7546771E-02  0.1122462E+00
         21   -1    0    0  501  502  0.00000000000E+00  0.00000000000E+00  0.10737777395E+04  0.10737777395E+04  0.00000000000E+00 0.  1.
         21   -1    0    0  502  503 -0.00000000000E+00 -0.00000000000E+00 -0.27338611639E+03  0.27338611639E+03  0.00000000000E+00 0. -1.
         25    1    1    2    0    0  0.18227070984E+03 -0.99635676003E+02 -0.20234070848E+03  0.31577941970E+03  0.12500000000E+03 0.  0.
          4    1    1    2  501    0 -0.11915557866E+03  0.95260833412E+01  0.67972744174E+03  0.69015809293E+03  0.00000000000E+00 0.  1.
         -4    1    1    2    0  503 -0.63115131184E+02  0.90109592662E+02  0.32300488984E+03  0.34122634326E+03  0.00000000000E+00 0. -1.
<mgrwt>
<rscale>  4 0.23603575E+03</rscale>
<asrwt>0</asrwt>
<pdfrwt beam="1">  1       21 0.16519657E+00 0.23603575E+03</pdfrwt>
<pdfrwt beam="2">  1       21 0.42059403E-01 0.23603575E+03</pdfrwt>
<totfact> 0.12043058E+03</totfact>
</mgrwt>
</event>
<event>
 5    0  0.1972558E-002  0.2456144E+03  0.7546771E-02  0.1116108E+00
         21   -1    0    0  501  502  0.00000000000E+00  0.00000000000E+00  0.93837531660E+03  0.93837531660E+03  0.00000000000E+00 0.  1.
         21   -1    0    0  502  503 -0.00000000000E+00 -0.00000000000E+00 -0.74312461731E+02  0.74312461731E+02  0.00000000000E+00 0.  1.
         25    1    1    2    0    0 -0.20808245882E+03  0.37458212595E+02  0.20901463562E+03  0.32251131029E+03  0.12500000000E+03 0.  0.
          4    1    1    2  501    0  0.18951624026E+03 -0.18819710747E+02  0.59128683419E+03  0.62120101989E+03  0.00000000000E+00 0.  1.
         -4    1    1    2    0  503  0.18566218561E+02 -0.18638501847E+02  0.63761385063E+02  0.68975448153E+02  0.00000000000E+00 0. -1.
<mgrwt>
<rscale>  4 0.24561439E+03</rscale>
<asrwt>0</asrwt>
<pdfrwt beam="1">  1       21 0.14436542E+00 0.24561439E+03</pdfrwt>
<pdfrwt beam="2">  1       21 0.11432687E-01 0.24561439E+03</pdfrwt>
<totfact> 0.20471887E+04</totfact>
</mgrwt>
</event>
<event>
 5    0  0.1972558E-002  0.2943542E+03  0.7546771E-02  0.1088097E+00
         21   -1    0    0  501  502  0.00000000000E+00  0.00000000000E+00  0.24496565446E+04  0.24496565446E+04  0.00000000000E+00 0.  1.
         21   -1    0    0  502  503 -0.00000000000E+00 -0.00000000000E+00 -0.18067002083E+03  0.18067002083E+03  0.00000000000E+00 0.  1.
         25    1    1    2    0    0 -0.26142867015E+03 -0.28619160383E+02 -0.36710781110E+02  0.29349052347E+03  0.12500000000E+03 0.  0.
          1    1    1    2  501    0  0.30895614682E+03  0.46269432351E+02  0.16592144129E+04  0.16883682149E+04  0.00000000000E+00 0.  1.
         -1    1    1    2    0  503 -0.47527476679E+02 -0.17650271968E+02  0.64648289200E+03  0.64846782710E+03  0.00000000000E+00 0. -1.
<mgrwt>
<rscale>  4 0.29435417E+03</rscale>
<asrwt>0</asrwt>
<pdfrwt beam="1">  1       21 0.37687021E+00 0.29435417E+03</pdfrwt>
<pdfrwt beam="2">  1       21 0.27795390E-01 0.29435417E+03</pdfrwt>
<totfact> 0.12956603E+02</totfact>
</mgrwt>
</event>
<event>
 5    0  0.1972558E-002  0.2576291E+03  0.7546771E-02  0.1108576E+00
         21   -1    0    0  501  502  0.00000000000E+00  0.00000000000E+00  0.23881208611E+03  0.23881208611E+03  0.00000000000E+00 0. -1.
         21   -1    0    0  502  503 -0.00000000000E+00 -0.00000000000E+00 -0.25044063647E+03  0.25044063647E+03  0.00000000000E+00 0.  1.
         25    1    1    2    0    0 -0.12472886879E+03  0.18759126594E+03 -0.57523644632E+01  0.25769335161E+03  0.12500000000E+03 0.  0.
          3    1    1    2  501    0  0.94677897589E+02 -0.17379508313E+03  0.35421452004E+00  0.19791099181E+03  0.00000000000E+00 0. -1.
         -3    1    1    2    0  503  0.30050971203E+02 -0.13796182812E+02 -0.62304004156E+01  0.33648379155E+02  0.00000000000E+00 0.  1.
<mgrwt>
<rscale>  4 0.25762914E+03</rscale>
<asrwt>0</asrwt>
<pdfrwt beam="1">  1       21 0.36740321E-01 0.25762914E+03</pdfrwt>
<pdfrwt beam="2">  1       21 0.38529329E-01 0.25762914E+03</pdfrwt>
<totfact> 0.45079248E+04</totfact>
</mgrwt>
</event>
<event>
 5    0  0.1972558E-002  0.2910566E+03  0.7546771E-02  0.1089799E+00
         21   -1    0    0  501  502  0.00000000000E+00  0.00000000000E+00  0.17160317759E+03  0.17160317759E+03  0.00000000000E+00 0. -1.
         21   -1    0    0  502  503 -0.00000000000E+00 -0.00000000000E+00 -0.76905554958E+03  0.76905554958E+03  0.00000000000E+00 0. -1.
         25    1    1    2    0    0 -0.29127215961E+03  0.16430563559E+02 -0.45693198973E+03  0.55634636480E+03  0.12500000000E+03 0.  0.
          3    1    1    2  501    0  0.23117630076E+03 -0.13557932170E+02 -0.19530947947E+03  0.30293909013E+03  0.00000000000E+00 0.  1.
         -3    1    1    2    0  503  0.60095858854E+02 -0.28726313894E+01  0.54789097204E+02  0.81373272239E+02  0.00000000000E+00 0. -1.
<mgrwt>
<rscale>  4 0.29105662E+03</rscale>
<asrwt>0</asrwt>
<pdfrwt beam="1">  1       21 0.26400489E-01 0.29105662E+03</pdfrwt>
<pdfrwt beam="2">  1       21 0.11831624E+00 0.29105662E+03</pdfrwt>
<totfact> 0.70122803E+03</totfact>
</mgrwt>
</event>
<event>
 5    0  0.1972558E-002  0.2848641E+03  0.7546771E-02  0.1093062E+00
         21   -1    0    0  501  502  0.00000000000E+00  0.00000000000E+00  0.87153817159E+02  0.87153817159E+02  0.00000000000E+00 0.  1.
         21   -1    0    0  502  503 -0.00000000000E+00 -0.00000000000E+00 -0.18615660288E+04  0.18615660288E+04  0.00000000000E+00 0.  1.
         25    1    1    2    0    0 -0.18103514514E+03  0.18782827073E+03 -0.15644245450E+04  0.15909438520E+04  0.12500000000E+03 0.  0.
          2    1    1    2  501    0  0.16387765126E+03 -0.17158750817E+03 -0.22722889995E+03  0.32852873621E+03  0.00000000000E+00 0.  1.
         -2    1    1    2    0  503  0.17157493882E+02 -0.16240762558E+02  0.17241233288E+02  0.29247257822E+02  0.00000000000E+00 0. -1.
<mgrwt>
<rscale>  4 0.28486406E+03</rscale>
<asrwt>0</asrwt>
<pdfrwt beam="1">  1       21 0.13408280E-01 0.28486406E+03</pdfrwt>
<pdfrwt beam="2">  1       21 0.28639476E+00 0.28486406E+03</pdfrwt>
<totfact> 0.17885058E+03</totfact>
</mgrwt>
</event>
<event>
 5    0  0.1972558E-002  0.2566108E+03  0.7546771E-02  0.1109197E+00
         21   -1    0    0  501  502  0.00000000000E+00  0.00000000000E+00  0.12536467091E+04  0.12536467091E+04  0.00000000000E+00 0. -1.
         21   -1    0    0  502  503 -0.00000000000E+00 -0.00000000000E+00 -0.13991303451E+03  0.13991303451E+03  0.00000000000E+00 0.  1.
         25    1    1    2    0    0 -0.18954690439E+03  0.12447947567E+03  0.35005740875E+02  0.26129211760E+03  0.12500000000E+03 0.  0.
          1    1    1    2  501    0 -0.36719843187E+02 -0.95665943008E+02  0.20400188501E+03  0.22829167445E+03  0.00000000000E+00 0.  1.
         -1    1    1    2    0  503  0.22626674758E+03 -0.28813532657E+02  0.87472604868E+03  0.90397595154E+03  0.00000000000E+00 0. -1.
<mgrwt>
<rscale>  4 0.25661078E+03</rscale>
<asrwt>0</asrwt>
<pdfrwt beam="1">  1       21 0.19286872E+00 0.25661078E+03</pdfrwt>
<pdfrwt beam="2">  1       21 0.21525083E-01 0.25661078E+03</pdfrwt>
<totfact> 0.28424290E+03</totfact>
</mgrwt>
</event>
<event>
 5    0  0.1972558E-002  0.2802491E+03  0.7546771E-02  0.1095553E+00
         21   -1    0    0  501  502  0.00000000000E+00  0.00000000000E+00  0.65959409148E+03  0.65959409148E+03  0.00000000000E+00 0. -1.
         21   -1    0    0  502  503 -0.00000000000E+00 -0.00000000000E+00 -0.21849883249E+04  0.21849883249E+04  0.00000000000E+00 0. -1.
         25    1    1    2    0    0 -0.19822020839E+03 -0.15502891405E+03 -0.21205979233E+04  0.21391320127E+04  0.12500000000E+03 0.  0.
          3    1    1    2  501    0  0.15679604464E+03  0.17080387508E+03  0.19545522824E+03  0.30325189134E+03  0.00000000000E+00 0. -1.
         -3    1    1    2    0  503  0.41424163750E+02 -0.15774961032E+02  0.39974846167E+03  0.40219851237E+03  0.00000000000E+00 0.  1.
<mgrwt>
<rscale>  4 0.28024909E+03</rscale>
<asrwt>0</asrwt>
<pdfrwt beam="1">  1       21 0.10147601E+00 0.28024909E+03</pdfrwt>
<pdfrwt beam="2">  1       21 0.33615205E+00 0.28024909E+03</pdfrwt>
<totfact> 0.14501086E+01</totfact>
</mgrwt>
</event>
<event>
 5    0  0.1972558E-002  0.2972520E+03  0.7546771E-02  0.1086622E+00
         21   -1    0    0  501  502  0.00000000000E+00  0.00000000000E+00  0.95924171369E+03  0.95924171369E+03  0.00000000000E+00 0. -1.
         21   -1    0    0  502  503 -0.00000000000E+00 -0.00000000000E+00 -0.19319073200E+03  0.19319073200E+03  0.00000000000E+00 0.  1.
         25    1    1    2    0    0 -0.19532245095E+03 -0.19020718874E+03 -0.33360933835E+02  0.30177406515E+03  0.12500000000E+03 0.  0.
          1    1    1    2  501    0  0.19442233886E+03  0.16201765807E+03  0.76709428776E+03  0.80776445434E+03  0.00000000000E+00 0. -1.
         -1    1    1    2    0  503  0.90011208737E+00  0.28189530666E+02  0.32317627765E+02  0.42893926205E+02  0.00000000000E+00 0.  1.
<mgrwt>
<rscale>  4 0.29725198E+03</rscale>
<asrwt>0</asrwt>
<pdfrwt beam="1">  1       21 0.14757565E+00 0.29725198E+03</pdfrwt>
<pdfrwt beam="2">  1       21 0.29721652E-01 0.29725198E+03</pdfrwt>
<totfact> 0.31368200E+03</totfact>
</mgrwt>
</event>
<event>
 5    0  0.1972558E-002  0.3019399E+03  0.7546771E-02  0.1084275E+00
         21   -1    0    0  501  502  0.00000000000E+00  0.00000000000E+00  0.16539563218E+04  0.16539563218E+04  0.00000000000E+00 0.  1.
         21   -1    0    0  502  503 -0.00000000000E+00 -0.00000000000E+00 -0.65862660068E+02  0.65862660068E+02  0.00000000000E+00 0.  1.
         25    1    1    2    0    0 -0.27022985368E+03 -0.80795946632E+02  0.48941089940E+03  0.57853278840E+03  0.12500000000E+03 0.  0.
          3    1    1    2  501    0  0.89439142244E+01  0.41306988080E+02  0.20702968500E+03  0.21129967188E+03  0.00000000000E+00 0. -1.
         -3    1    1    2    0  503  0.26128593945E+03  0.39488958553E+02  0.89165307732E+03  0.92998652157E+03  0.00000000000E+00 0.  1.
<mgrwt>
<rscale>  4 0.30193992E+03</rscale>
<asrwt>0</asrwt>
<pdfrwt beam="1">  1       21 0.25445479E+00 0.30193992E+03</pdfrwt>
<pdfrwt beam="2">  1       21 0.10132718E-01 0.30193992E+03</pdfrwt>
<totfact> 0.45261095E+03</totfact>
</mgrwt>
</event>
<event>
 5    0  0.1972558E-002  0.2653537E+03  0.7546771E-02  0.1103969E+00
         21   -1    0    0  501  502  0.00000000000E+00  0.00000000000E+00  0.27610532025E+03  0.27610532025E+03  0.00000000000E+00 0. -1.
         21   -1    0    0  502  503 -0.00000000000E+00 -0.00000000000E+00 -0.32325506595E+03  0.32325506595E+03  0.00000000000E+00 0.  1.
         25    1    1    2    0    0 -0.21832530854E+03 -0.63614304721E+02 -0.14695987278E+03  0.29821959078E+03  0.12500000000E+03 0.  0.
          1    1    1    2  501    0  0.24143897173E+03  0.57602925667E+02  0.61048927932E+02  0.25561268692E+03  0.00000000000E+00 0. -1.
         -1    1    1    2    0  503 -0.23113663183E+02  0.60113790534E+01  0.38761199147E+02  0.45528108495E+02  0.00000000000E+00 0.  1.
<mgrwt>
<rscale>  4 0.26535374E+03</rscale>
<asrwt>0</asrwt>
<pdfrwt beam="1">  1       21 0.42477742E-01 0.26535374E+03</pdfrwt>
<pdfrwt beam="2">  1       21 0.49731548E-01 0.26535374E+03</pdfrwt>
<totfact> 0.19771804E+04</totfact>
</mgrwt>
</event>
<event>
 5    0  0.1972558E-002  0.1743158E+03  0.7546771E-02  0.1173420E+00
         21   -1    0    0  501  502  0.00000000000E+00  0.00000000000E+00  0.10782871357E+04  0.10782871357E+04  0.00000000000E+00 0. -1.
         21   -1    0    0  502  503 -0.00000000000E+00 -0.00000000000E+00 -0.19866523173E+03  0.19866523173E+03  0.00000000000E+00 0. -1.
         25    1    1    2    0    0 -0.74258191379E+02  0.19859259536E+03 -0.60369946627E+02  0.25342223339E+03  0.12500000000E+03 0.  0.
          1    1    1    2  501    0  0.77142672827E+02 -0.91288829096E+02  0.90166300760E+03  0.90954979059E+03  0.00000000000E+00 0. -1.
         -1    1    1    2    0  503 -0.28844814472E+01 -0.10730376627E+03  0.38328842994E+02  0.11398034345E+03  0.00000000000E+00 0.  1.
<mgrwt>
<rscale>  4 0.17431577E+03</rscale>
<asrwt>0</asrwt>
<pdfrwt beam="1">  1       21 0.16589032E+00 0.17431577E+03</pdfrwt>
<pdfrwt beam="2">  1       21 0.30563883E-01 0.17431577E+03</pdfrwt>
<totfact> 0.23880493E+03</totfact>
</mgrwt>
</event>
<event>
 5    0  0.1972558E-002  0.2908064E+03  0.7546771E-02  0.1089929E+00
         21   -1    0    0  501  502  0.00000000000E+00  0.00000000000E+00  0.65086858454E+03  0.65086858454E+03  0.00000000000E+00 0.  1.
         21   -1    0    0  502  503 -0.00000000000E+00 -0.00000000000E+00 -0.36135907698E+03  0.36135907698E+03  0.00000000000E+00 0. -1.
         25    1    1    2    0    0  0.32446914416E+02  0.27710994777E+03 -0.19715648029E+03  0.36378345637E+03  0.12500000000E+03 0.  0.
          2    1    1    2  501    0 -0.26253889479E+02 -0.22826993007E+03  0.86900236584E+02  0.24565845967E+03  0.00000000000E+00 0. -1.
         -2    1    1    2    0  503 -0.61930249371E+01 -0.48840017696E+02  0.39976575126E+03  0.40278574549E+03  0.00000000000E+00 0.  1.
<mgrwt>
<rscale>  4 0.29080639E+03</rscale>
<asrwt>0</asrwt>
<pdfrwt beam="1">  1       21 0.10013363E+00 0.29080639E+03</pdfrwt>
<pdfrwt beam="2">  1       21 0.55593704E-01 0.29080639E+03</pdfrwt>
<totfact> 0.23219978E+03</totfact>
</mgrwt>
</event>
<event>
 5    0  0.1972558E-002  0.2766758E+03  0.7546771E-02  0.1097519E+00
         21   -1    0    0  501  502  0.00000000000E+00  0.00000000000E+00  0.28030292645E+03  0.28030292645E+03  0.00000000000E+00 0.  1.
         21   -1    0    0  502  503 -0.00000000000E+00 -0.00000000000E+00 -0.32509016619E+03  0.32509016619E+03  0.00000000000E+00 0.  1.
         25    1    1    2    0    0  0.40989692463E+02 -0.25724305288E+03 -0.11837134668E+03  0.31223535811E+03  0.12500000000E+03 0.  0.
          3    1    1    2  501    0 -0.21400508625E+02  0.22837532101E+03  0.21380659744E+02  0.23037014048E+03  0.00000000000E+00 0.  1.
         -3    1    1    2    0  503 -0.19589183838E+02  0.28867731871E+02  0.52203447190E+02  0.62787594041E+02  0.00000000000E+00 0. -1.
<mgrwt>
<rscale>  4 0.27667578E+03</rscale>
<asrwt>0</asrwt>
<pdfrwt beam="1">  1       21 0.43123527E-01 0.27667578E+03</pdfrwt>
<pdfrwt beam="2">  1       21 0.50013872E-01 0.27667578E+03</pdfrwt>
<totfact> 0.18845424E+04</totfact>
</mgrwt>
</event>
<event>
 5    0  0.1972558E-002  0.2354283E+03  0.7546771E-02  0.1122876E+00
         21   -1    0    0  501  502  0.00000000000E+00  0.00000000000E+00  0.84282006021E+03  0.84282006021E+03  0.00000000000E+00 0.  1.
         21   -1    0    0  502  503 -0.00000000000E+00 -0.00000000000E+00 -0.13575710066E+03  0.13575710066E+03  0.00000000000E+00 0. -1.
         25    1    1    2    0    0  0.47911569419E+02 -0.23511871027E+03  0.85594933945E+02  0.28377423970E+03  0.12500000000E+03 0.  0.
          1    1    1    2  501    0  0.55742401501E+02  0.70261381041E+02  0.82986518901E+02  0.12219099521E+03  0.00000000000E+00 0. -1.
         -1    1    1    2    0  503 -0.10365397092E+03  0.16485732923E+03  0.53848150671E+03  0.57261192596E+03  0.00000000000E+00 0.  1.
<mgrwt>
<rscale>  4 0.23542829E+03</rscale>
<asrwt>0</asrwt>
<pdfrwt beam="1">  1       21 0.12966462E+00 0.23542829E+03</pdfrwt>
<pdfrwt beam="2">  1       21 0.20885708E-01 0.23542829E+03</pdfrwt>
<totfact> 0.89888002E+03</totfact>
</mgrwt>
</event>
<event>
 5    0  0.1972558E-002  0.2799432E+03  0.7546771E-02  0.1095720E+00
         21   -1    0    0  501  502  0.00000000000E+00  0.00000000000E+00  0.17992521091E+03  0.17992521091E+03  0.00000000000E+00 0.  1.
         21   -1    0    0  502  503 -0.00000000000E+00 -0.00000000000E+00 -0.67654478972E+03  0.67654478972E+03  0.00000000000E+00 0.  1.
         25    1    1    2    0    0 -0.27292481166E+02  0.25736337494E+03 -0.50492253561E+03  0.58099273081E+03  0.12500000000E+03 0.  0.
          1    1    1    2  501    0  0.10342107698E+02 -0.22798492989E+03 -0.22931676682E+02  0.22936858818E+03  0.00000000000E+00 0.  1.
         -1    1    1    2    0  503  0.16950373468E+02 -0.29378445052E+02  0.31234633480E+02  0.46108681645E+02  0.00000000000E+00 0. -1.
<mgrwt>
<rscale>  4 0.27994325E+03</rscale>
<asrwt>0</asrwt>
<pdfrwt beam="1">  1       21 0.27680802E-01 0.27994325E+03</pdfrwt>
<pdfrwt beam="2">  1       21 0.10408381E+00 0.27994325E+03</pdfrwt>
<totfact> 0.88083675E+03</totfact>
</mgrwt>
</event>
<event>
 5    0  0.1972558E-002  0.3016807E+03  0.7546771E-02  0.1084403E+00
         21   -1    0    0  501  502  0.00000000000E+00  0.00000000000E+00  0.33172427750E+03  0.33172427750E+03  0.00000000000E+00 0. -1.
         21   -1    0    0  502  503 -0.00000000000E+00 -0.00000000000E+00 -0.76603815297E+03  0.76603815297E+03  0.00000000000E+00 0.  1.
         25    1    1    2    0    0 -0.11855883036E+03  0.25528342717E+03 -0.60782624822E+03  0.68139824806E+03  0.12500000000E+03 0.  0.
          1    1    1    2  501    0  0.79272055077E+02 -0.23808925567E+03  0.14156014407E+02  0.25133830811E+03  0.00000000000E+00 0. -1.
         -1    1    1    2    0  503  0.39286775287E+02 -0.17194171499E+02  0.15935635833E+03  0.16502587430E+03  0.00000000000E+00 0.  1.
<mgrwt>
<rscale>  4 0.30168067E+03</rscale>
<asrwt>0</asrwt>
<pdfrwt beam="1">  1       21 0.51034504E-01 0.30168067E+03</pdfrwt>
<pdfrwt beam="2">  1       21 0.11785202E+00 0.30168067E+03</pdfrwt>
<totfact> 0.18579132E+03</totfact>
</mgrwt>
</event>
<event>
 5    0  0.1972558E-002  0.2185612E+03  0.7546771E-02  0.1134960E+00
         21   -1    0    0  501  502  0.00000000000E+00  0.00000000000E+00  0.37794745130E+03  0.37794745130E+03  0.00000000000E+00 0.  1.
         21   -1    0    0  502  503 -0.00000000000E+00 -0.00000000000E+00 -0.44046646028E+03  0.44046646028E+03  0.00000000000E+00 0.  1.
         25    1    1    2    0    0  0.47172896676E+02  0.28386545929E+03 -0.15908446025E+03  0.35176376540E+03  0.12500000000E+03 0.  0.
          3    1    1    2  501    0  0.47898877904E+02 -0.14367320561E+03 -0.11892061909E+03  0.19255753987E+03  0.00000000000E+00 0. -1.
         -3    1    1    2    0  503 -0.95071774579E+02 -0.14019225368E+03  0.21548607037E+03  0.27409260631E+03  0.00000000000E+00 0.  1.
<mgrwt>
<rscale>  4 0.21856119E+03</rscale>
<asrwt>0</asrwt>
<pdfrwt beam="1">  1       21 0.58145761E-01 0.21856119E+03</pdfrwt>
<pdfrwt beam="2">  1       21 0.67764071E-01 0.21856119E+03</pdfrwt>
<totfact> 0.54096947E+03</totfact>
</mgrwt>
</event>
<event>
 5    0  0.1972558E-002  0.3644048E+03  0.7546771E-02  0.1056853E+00
         21   -1    0    0  501  502  0.00000000000E+00  0.00000000000E+00  0.68332968035E+03  0.68332968035E+03  0.00000000000E+00 0. -1.
         21   -1    0    0  502  503 -0.00000000000E+00 -0.00000000000E+00 -0.29416132636E+03  0.29416132636E+03  0.00000000000E+00 0. -1.
         25    1    1    2    0    0  0.28929909788E+03 -0.18683215472E+03  0.24859298201E+02  0.36721003088E+03  0.12500000000E+03 0.  0.
          4    1    1    2  501    0  0.82108327266E+01  0.21840354261E+02  0.25045138190E+03  0.25153590906E+03  0.00000000000E+00 0.  1.
         -4    1    1    2    0  503 -0.29750993061E+03  0.16499180046E+03  0.11385767389E+03  0.35874506677E+03  0.00000000000E+00 0. -1.
<mgrwt>
<rscale>  4 0.36440481E+03</rscale>
<asrwt>0</asrwt>
<pdfrwt beam="1">  1       21 0.10512764E+00 0.36440481E+03</pdfrwt>
<pdfrwt beam="2">  1       21 0.45255589E-01 0.36440481E+03</pdfrwt>
<totfact> 0.30681161E+03</totfact>
</mgrwt>
</event>
<event>
 5    0  0.1972558E-002  0.2523243E+03  0.7546771E-02  0.1111845E+00
         21   -1    0    0  501  502  0.00000000000E+00  0.00000000000E+00  0.57978750929E+03  0.57978750929E+03  0.00000000000E+00 0. -1.
         21   -1    0    0  502  503 -0.00000000000E+00 -0.00000000000E+00 -0.29213943492E+03  0.29213943492E+03  0.00000000000E+00 0.  1.
         25    1    1    2    0    0  0.82936747971E+02  0.20747156193E+03 -0.19735908233E+03  0.32326237107E+03  0.12500000000E+03 0.  0.
          3    1    1    2  501    0 -0.16695881786E+02 -0.20940153618E+02  0.19927230597E+03  0.20106390633E+03  0.00000000000E+00 0.  1.
         -3    1    1    2    0  503 -0.66240866185E+02 -0.18653140831E+03  0.28573485073E+03  0.34760066680E+03  0.00000000000E+00 0. -1.
<mgrwt>
<rscale>  4 0.25232430E+03</rscale>
<asrwt>0</asrwt>
<pdfrwt beam="1">  1       21 0.89198078E-01 0.25232430E+03</pdfrwt>
<pdfrwt beam="2">  1       21 0.44944528E-01 0.25232430E+03</pdfrwt>
<totfact> 0.48849367E+03</totfact>
</mgrwt>
</event>
<event>
 5    0  0.1972558E-002  0.2698433E+03  0.7546771E-02  0.1101369E+00
         21   -1    0    0  501  502  0.00000000000E+00  0.00000000000E+00  0.83270195392E+03  0.83270195392E+03  0.00000000000E+00 0.  1.
         21   -1    0    0  502  503 -0.00000000000E+00 -0.00000000000E+00 -0.47759496117E+03  0.47759496117E+03  0.00000000000E+00 0.  1.
         25    1    1    2    0    0  0.17527693455E+03 -0.16873413904E+03 -0.41375395430E+03  0.49599450416E+03  0.12500000000E+03 0.  0.
          2    1    1    2  501    0 -0.18188372206E+02  0.55216987947E+02  0.32223538830E+03  0.32743759423E+03  0.00000000000E+00 0. -1.
         -2    1    1    2    0  503 -0.15708856235E+03  0.11351715109E+03  0.44662555874E+03  0.48686481669E+03  0.00000000000E+00 0.  1.
<mgrwt>
<rscale>  4 0.26984327E+03</rscale>
<asrwt>0</asrwt>
<pdfrwt beam="1">  1       21 0.12810799E+00 0.26984327E+03</pdfrwt>
<pdfrwt beam="2">  1       21 0.73476148E-01 0.26984327E+03</pdfrwt>
<totfact> 0.69558037E+02</totfact>
</mgrwt>
</event>
<event>
 5    0  0.1972558E-002  0.2672239E+03  0.7546771E-02  0.1102879E+00
         21   -1    0    0  501  502  0.00000000000E+00  0.00000000000E+00  0.48876084600E+03  0.48876084600E+03  0.00000000000E+00 0. -1.
         21   -1    0    0  502  503 -0.00000000000E+00 -0.00000000000E+00 -0.39084877293E+03  0.39084877293E+03  0.00000000000E+00 0.  1.
         25    1    1    2    0    0  0.11474310298E+03 -0.20669648860E+03 -0.29775981796E+03  0.40021909908E+03  0.12500000000E+03 0.  0.
          4    1    1    2  501    0 -0.13956038234E+03  0.19038077021E+03  0.37533772987E+03  0.44339637961E+03  0.00000000000E+00 0. -1.
         -4    1    1    2    0  503  0.24817279366E+02  0.16315718386E+02  0.20334161154E+02  0.35994140237E+02  0.00000000000E+00 0.  1.
<mgrwt>
<rscale>  4 0.26722386E+03</rscale>
<asrwt>0</asrwt>
<pdfrwt beam="1">  1       21 0.75193976E-01 0.26722386E+03</pdfrwt>
<pdfrwt beam="2">  1       21 0.60130581E-01 0.26722386E+03</pdfrwt>
<totfact> 0.38680532E+03</totfact>
</mgrwt>
</event>
<event>
 5    0  0.1972558E-002  0.3120608E+03  0.7546771E-02  0.1079362E+00
         21   -1    0    0  503  502  0.00000000000E+00  0.00000000000E+00  0.10748914367E+04  0.10748914367E+04  0.00000000000E+00 0. -1.
         21   -1    0    0  501  503 -0.00000000000E+00 -0.00000000000E+00 -0.12233320835E+04  0.12233320835E+04  0.00000000000E+00 0.  1.
         25    1    1    2    0    0 -0.77933201740E+02  0.27531097931E+03 -0.11605687145E+04  0.12018379509E+04  0.12500000000E+03 0.  0.
          2    1    1    2  501    0  0.75066695606E+02  0.11036501584E+02  0.46038918883E+02  0.88749057507E+02  0.00000000000E+00 0.  1.
         -2    1    1    2    0  502  0.28665061344E+01 -0.28634748089E+03  0.96608914874E+03  0.10076365118E+04  0.00000000000E+00 0. -1.
<mgrwt>
<rscale>  4 0.31206083E+03</rscale>
<asrwt>0</asrwt>
<pdfrwt beam="1">  1       21 0.16536791E+00 0.31206083E+03</pdfrwt>
<pdfrwt beam="2">  1       21 0.18820493E+00 0.31206083E+03</pdfrwt>
<totfact> 0.31730912E+01</totfact>
</mgrwt>
</event>
<event>
 5    0  0.1972558E-002  0.2432923E+03  0.7546771E-02  0.1117619E+00
         21   -1    0    0  501  502  0.00000000000E+00  0.00000000000E+00  0.46504151278E+03  0.46504151278E+03  0.00000000000E+00 0. -1.
         21   -1    0    0  502  503 -0.00000000000E+00 -0.00000000000E+00 -0.21820489377E+03  0.21820489377E+03  0.00000000000E+00 0. -1.
         25    1    1    2    0    0 -0.81590645692E+02 -0.21743092629E+03 -0.18070428179E+02  0.26435729902E+03  0.12500000000E+03 0.  0.
          1    1    1    2  501    0  0.39317629156E+02  0.18296083946E+03  0.45208942054E+02  0.19252114995E+03  0.00000000000E+00 0.  1.
         -1    1    1    2    0  503  0.42273016537E+02  0.34470086833E+02  0.21969810514E+03  0.22636795758E+03  0.00000000000E+00 0. -1.
<mgrwt>
<rscale>  4 0.24329232E+03</rscale>
<asrwt>0</asrwt>
<pdfrwt beam="1">  1       21 0.71544848E-01 0.24329232E+03</pdfrwt>
<pdfrwt beam="2">  1       21 0.33569984E-01 0.24329232E+03</pdfrwt>
<totfact> 0.14645325E+04</totfact>
</mgrwt>
</event>
<event>
 5    0  0.1972558E-002  0.2562710E+03  0.7546771E-02  0.1109405E+00
         21   -1    0    0  501  502  0.00000000000E+00  0.00000000000E+00  0.12036871384E+04  0.12036871384E+04  0.00000000000E+00 0.  1.
         21   -1    0    0  502  503 -0.00000000000E+00 -0.00000000000E+00 -0.88976793291E+02  0.88976793291E+02  0.00000000000E+00 0. -1.
         25    1    1    2    0    0 -0.10417658302E+03 -0.18627540300E+03  0.18050207461E+03  0.30619811422E+03  0.12500000000E+03 0.  0.
          2    1    1    2  501    0 -0.29298073506E+02 -0.25704565426E+02  0.33134727495E+03  0.33363171074E+03  0.00000000000E+00 0. -1.
         -2    1    1    2    0  503  0.13347465653E+03  0.21197996843E+03  0.60286099550E+03  0.65283410668E+03  0.00000000000E+00 0.  1.
<mgrwt>
<rscale>  4 0.25627104E+03</rscale>
<asrwt>0</asrwt>
<pdfrwt beam="1">  1       21 0.18518263E+00 0.25627104E+03</pdfrwt>
<pdfrwt beam="2">  1       21 0.13688738E-01 0.25627104E+03</pdfrwt>
<totfact> 0.74111739E+03</totfact>
</mgrwt>
</event>
<event>
 5    0  0.1972558E-002  0.3197181E+03  0.7546771E-02  0.1075779E+00
         21   -1    0    0  501  502  0.00000000000E+00  0.00000000000E+00  0.53749824811E+03  0.53749824811E+03  0.00000000000E+00 0.  1.
         21   -1    0    0  502  503 -0.00000000000E+00 -0.00000000000E+00 -0.51218287654E+03  0.51218287654E+03  0.00000000000E+00 0. -1.
         25    1    1    2    0    0  0.78297332913E+02  0.30105355465E+03 -0.35879954933E+03  0.49104565135E+03  0.12500000000E+03 0.  0.
          3    1    1    2  501    0 -0.90529417545E+02 -0.23126565384E+03  0.10323141584E+03  0.26895371963E+03  0.00000000000E+00 0. -1.
         -3    1    1    2    0  503  0.12232084632E+02 -0.69787900816E+02  0.28088350506E+03  0.28968175367E+03  0.00000000000E+00 0.  1.
<mgrwt>
<rscale>  4 0.31971808E+03</rscale>
<asrwt>0</asrwt>
<pdfrwt beam="1">  1       21 0.82692037E-01 0.31971808E+03</pdfrwt>
<pdfrwt beam="2">  1       21 0.78797366E-01 0.31971808E+03</pdfrwt>
<totfact> 0.16566124E+03</totfact>
</mgrwt>
</event>
<event>
 5    0  0.1972558E-002  0.2943529E+03  0.7546771E-02  0.1088098E+00
         21   -1    0    0  503  502  0.00000000000E+00  0.00000000000E+00  0.36986074963E+03  0.36986074963E+03  0.00000000000E+00 0.  1.
         21   -1    0    0  501  503 -0.00000000000E+00 -0.00000000000E+00 -0.43206065913E+03  0.43206065913E+03  0.00000000000E+00 0.  1.
         25    1    1    2    0    0 -0.30218490865E+03 -0.16988785066E+03  0.18710641053E+02  0.36898873819E+03  0.12500000000E+03 0.  0.
          2    1    1    2  501    0  0.77214299338E+02  0.83488615389E+02  0.83601283634E+02  0.14114379741E+03  0.00000000000E+00 0. -1.
         -2    1    1    2    0  502  0.22497060932E+03  0.86399235274E+02 -0.16451183418E+03  0.29178887316E+03  0.00000000000E+00 0.  1.
<mgrwt>
<rscale>  4 0.29435292E+03</rscale>
<asrwt>0</asrwt>
<pdfrwt beam="1">  1       21 0.56901654E-01 0.29435292E+03</pdfrwt>
<pdfrwt beam="2">  1       21 0.66470871E-01 0.29435292E+03</pdfrwt>
<totfact> 0.56518094E+03</totfact>
</mgrwt>
</event>
<event>
 5    0  0.1972558E-002  0.2659380E+03  0.7546771E-02  0.1103627E+00
         21   -1    0    0  501  502  0.00000000000E+00  0.00000000000E+00  0.56988641602E+03  0.56988641602E+03  0.00000000000E+00 0. -1.
         21   -1    0    0  502  503 -0.00000000000E+00 -0.00000000000E+00 -0.20687200851E+03  0.20687200851E+03  0.00000000000E+00 0. -1.
         25    1    1    2    0    0  0.77663056611E+02  0.22715642503E+03  0.10880892074E+02  0.27087817484E+03  0.12500000000E+03 0.  0.
          1    1    1    2  501    0 -0.13422356673E+03 -0.19318973415E+03  0.36916136660E+03  0.43774233727E+03  0.00000000000E+00 0. -1.
         -1    1    1    2    0  503  0.56560510115E+02 -0.33966690875E+02 -0.17027851163E+02  0.68137912418E+02  0.00000000000E+00 0.  1.
<mgrwt>
<rscale>  4 0.26593799E+03</rscale>
<asrwt>0</asrwt>
<pdfrwt beam="1">  1       21 0.87674833E-01 0.26593799E+03</pdfrwt>
<pdfrwt beam="2">  1       21 0.31826463E-01 0.26593799E+03</pdfrwt>
<totfact> 0.10132280E+04</totfact>
</mgrwt>
</event>
<event>
 5    0  0.1972558E-002  0.2458391E+03  0.7546771E-02  0.1115963E+00
         21   -1    0    0  501  502  0.00000000000E+00  0.00000000000E+00  0.14038199416E+03  0.14038199416E+03  0.00000000000E+00 0.  1.
         21   -1    0    0  502  503 -0.00000000000E+00 -0.00000000000E+00 -0.84597660213E+03  0.84597660213E+03  0.00000000000E+00 0.  1.
         25    1    1    2    0    0  0.26985336868E+02  0.21156394625E+03 -0.67324973486E+03  0.71720130874E+03  0.12500000000E+03 0.  0.
          4    1    1    2  501    0 -0.55007219122E+02 -0.20051036179E+03 -0.71398304474E+02  0.21983611446E+03  0.00000000000E+00 0.  1.
         -4    1    1    2    0  503  0.28021882254E+02 -0.11053584461E+02  0.39053431366E+02  0.49321173100E+02  0.00000000000E+00 0. -1.
<mgrwt>
<rscale>  4 0.24583915E+03</rscale>
<asrwt>0</asrwt>
<pdfrwt beam="1">  1       21 0.21597230E-01 0.24583915E+03</pdfrwt>
<pdfrwt beam="2">  1       21 0.13015025E+00 0.24583915E+03</pdfrwt>
<totfact> 0.83046196E+03</totfact>
</mgrwt>
</event>
<event>
 5    0  0.1972558E-002  0.2279901E+03  0.7546771E-02  0.1128062E+00
         21   -1    0    0  501  502  0.00000000000E+00  0.00000000000E+00  0.27900170282E+03  0.27900170282E+03  0.00000000000E+00 0. -1.
         21   -1    0    0  502  503 -0.00000000000E+00 -0.00000000000E+00 -0.49324740582E+03  0.49324740582E+03  0.00000000000E+00 0. -1.
         25    1    1    2    0    0 -0.13854273559E+03 -0.24825814827E+03 -0.79108498081E+02  0.32048299836E+03  0.12500000000E+03 0.  0.
          2    1    1    2  501    0  0.32045667922E+02  0.16615973613E+03  0.88385339758E+02  0.19091346476E+03  0.00000000000E+00 0.  1.
         -2    1    1    2    0  503  0.10649706767E+03  0.82098412140E+02 -0.22352254467E+03  0.26085264552E+03  0.00000000000E+00 0. -1.
<mgrwt>
<rscale>  4 0.22799014E+03</rscale>
<asrwt>0</asrwt>
<pdfrwt beam="1">  1       21 0.42923339E-01 0.22799014E+03</pdfrwt>
<pdfrwt beam="2">  1       21 0.75884216E-01 0.22799014E+03</pdfrwt>
<totfact> 0.78907183E+03</totfact>
</mgrwt>
</event>
<event>
 5    0  0.1972558E-002  0.2444432E+03  0.7546771E-02  0.1116868E+00
         21   -1    0    0  501  502  0.00000000000E+00  0.00000000000E+00  0.97297110975E+02  0.97297110975E+02  0.00000000000E+00 0.  1.
         21   -1    0    0  502  503 -0.00000000000E+00 -0.00000000000E+00 -0.10208711136E+04  0.10208711136E+04  0.00000000000E+00 0.  1.
         25    1    1    2    0    0 -0.20912209138E+03  0.39655569166E+02 -0.71246233689E+03  0.75401073915E+03  0.12500000000E+03 0.  0.
          1    1    1    2  501    0  0.29377613708E+02  0.76994101433E+02 -0.61078287881E+02  0.10257530450E+03  0.00000000000E+00 0. -1.
         -1    1    1    2    0  503  0.17974447767E+03 -0.11664967060E+03 -0.15003337783E+03  0.26158218091E+03  0.00000000000E+00 0.  1.
<mgrwt>
<rscale>  4 0.24444319E+03</rscale>
<asrwt>0</asrwt>
<pdfrwt beam="1">  1       21 0.14968786E-01 0.24444319E+03</pdfrwt>
<pdfrwt beam="2">  1       21 0.15705709E+00 0.24444319E+03</pdfrwt>
<totfact> 0.10047179E+04</totfact>
</mgrwt>
</event>
<event>
 5    0  0.1972558E-002  0.2507067E+03  0.7546771E-02  0.1112859E+00
         21   -1    0    0  501  502  0.00000000000E+00  0.00000000000E+00  0.41153727565E+03  0.41153727565E+03  0.00000000000E+00 0.  1.
         21   -1    0    0  502  503 -0.00000000000E+00 -0.00000000000E+00 -0.76497799484E+03  0.76497799484E+03  0.00000000000E+00 0.  1.
         25    1    1    2    0    0 -0.20518770709E+03  0.79382794680E+02 -0.69536130590E+03  0.73997024871E+03  0.12500000000E+03 0.  0.
          3    1    1    2  501    0  0.59416953449E+02  0.32167170150E+02  0.28500371377E+02  0.73330569078E+02  0.00000000000E+00 0. -1.
         -3    1    1    2    0  503  0.14577075364E+03 -0.11154996483E+03  0.31342021534E+03  0.36321445270E+03  0.00000000000E+00 0.  1.
<mgrwt>
<rscale>  4 0.25070671E+03</rscale>
<asrwt>0</asrwt>
<pdfrwt beam="1">  1       21 0.63313427E-01 0.25070671E+03</pdfrwt>
<pdfrwt beam="2">  1       21 0.11768892E+00 0.25070671E+03</pdfrwt>
<totfact> 0.12147568E+03</totfact>
</mgrwt>
</event>
<event>
 5    0  0.1972558E-002  0.2588520E+03  0.7546771E-02  0.1107835E+00
         21   -1    0    0  501  502  0.00000000000E+00  0.00000000000E+00  0.13534882876E+03  0.13534882876E+03  0.00000000000E+00 0.  1.
         21   -1    0    0  502  503 -0.00000000000E+00 -0.00000000000E+00 -0.10242512063E+04  0.10242512063E+04  0.00000000000E+00 0. -1.
         25    1    1    2    0    0  0.29844919449E+02 -0.22230789224E+03 -0.63012371643E+03  0.68043546070E+03  0.12500000000E+03 0.  0.
          3    1    1    2  501    0  0.24089677122E+02  0.23290427364E+03 -0.32024051112E+03  0.39670984130E+03  0.00000000000E+00 0. -1.
         -3    1    1    2    0  503 -0.53934596571E+02 -0.10596381397E+02  0.61461849981E+02  0.82454733091E+02  0.00000000000E+00 0.  1.
<mgrwt>
<rscale>  4 0.25885204E+03</rscale>
<asrwt>0</asrwt>
<pdfrwt beam="1">  1       21 0.20822897E-01 0.25885204E+03</pdfrwt>
<pdfrwt beam="2">  1       21 0.15757711E+00 0.25885204E+03</pdfrwt>
<totfact> 0.53434744E+03</totfact>
</mgrwt>
</event>
<event>
 5    0  0.1972558E-002  0.4244899E+03  0.7546771E-02  0.1035615E+00
         21   -1    0    0  501  502  0.00000000000E+00  0.00000000000E+00  0.28598196764E+03  0.28598196764E+03  0.00000000000E+00 0. -1.
         21   -1    0    0  502  503 -0.00000000000E+00 -0.00000000000E+00 -0.94638967223E+03  0.94638967223E+03  0.00000000000E+00 0. -1.
         25    1    1    2    0    0 -0.36357189442E+03  0.17281871966E+03 -0.33405479849E+03  0.53783681603E+03  0.12500000000E+03 0.  0.
          1    1    1    2  501    0 -0.19999586930E+02 -0.31092379018E+02  0.98290733324E+02  0.10501327425E+03  0.00000000000E+00 0.  1.
         -1    1    1    2    0  503  0.38357148135E+03 -0.14172634065E+03 -0.42464363942E+03  0.58952154960E+03  0.00000000000E+00 0. -1.
<mgrwt>
<rscale>  4 0.42448988E+03</rscale>
<asrwt>0</asrwt>
<pdfrwt beam="1">  1       21 0.43997226E-01 0.42448988E+03</pdfrwt>
<pdfrwt beam="2">  1       21 0.14559841E+00 0.42448988E+03</pdfrwt>
<totfact> 0.13789795E+03</totfact>
</mgrwt>
</event>
<event>
 5    0  0.1972558E-002  0.2752704E+03  0.7546771E-02  0.1098301E+00
         21   -1    0    0  501  502  0.00000000000E+00  0.00000000000E+00  0.95509535928E+03  0.95509535928E+03  0.00000000000E+00 0.  1.
         21   -1    0    0  502  503 -0.00000000000E+00 -0.00000000000E+00 -0.27547869946E+03  0.27547869946E+03  0.00000000000E+00 0.  1.
         25    1    1    2    0    0 -0.20454886930E+03  0.16281865319E+03 -0.16168497926E+03  0.33183909697E+03  0.12500000000E+03 0.  0.
          1    1    1    2  501    0  0.14724880445E+03 -0.10951693948E+03  0.29905666066E+03  0.35087185229E+03  0.00000000000E+00 0. -1.
         -1    1    1    2    0  503  0.57300064852E+02 -0.53301713719E+02  0.54224497842E+03  0.54786310949E+03  0.00000000000E+00 0.  1.
<mgrwt>
<rscale>  4 0.27527040E+03</rscale>
<asrwt>0</asrwt>
<pdfrwt beam="1">  1       21 0.14693775E+00 0.27527040E+03</pdfrwt>
<pdfrwt beam="2">  1       21 0.42381339E-01 0.27527040E+03</pdfrwt>
<totfact> 0.15778349E+03</totfact>
</mgrwt>
</event>
<event>
 5    0  0.1972558E-002  0.2344001E+03  0.7546771E-02  0.1123581E+00
         21   -1    0    0  501  502  0.00000000000E+00  0.00000000000E+00  0.87254366893E+03  0.87254366893E+03  0.00000000000E+00 0. -1.
         21   -1    0    0  502  503 -0.00000000000E+00 -0.00000000000E+00 -0.29231139255E+03  0.29231139255E+03  0.00000000000E+00 0. -1.
         25    1    1    2    0    0  0.45173876107E+02 -0.21262108011E+03 -0.11184286826E+03  0.27455824513E+03  0.12500000000E+03 0.  0.
          1    1    1    2  501    0 -0.10446536156E+03  0.31278591628E+02  0.69095202457E+03  0.69950415461E+03  0.00000000000E+00 0. -1.
         -1    1    1    2    0  503  0.59291485456E+02  0.18134248848E+03  0.11231200641E+01  0.19079266174E+03  0.00000000000E+00 0.  1.
<mgrwt>
<rscale>  4 0.23440011E+03</rscale>
<asrwt>0</asrwt>
<pdfrwt beam="1">  1       21 0.13423749E+00 0.23440011E+03</pdfrwt>
<pdfrwt beam="2">  1       21 0.44970984E-01 0.23440011E+03</pdfrwt>
<totfact> 0.18225368E+03</totfact>
</mgrwt>
</event>
<event>
 5    0  0.1972558E-002  0.3081755E+03  0.7546771E-02  0.1081224E+00
         21   -1    0    0  501  502  0.00000000000E+00  0.00000000000E+00  0.27719710575E+03  0.27719710575E+03  0.00000000000E+00 0. -1.
         21   -1    0    0  502  503 -0.00000000000E+00 -0.00000000000E+00 -0.17653021973E+04  0.17653021973E+04  0.00000000000E+00 0. -1.
         25    1    1    2    0    0 -0.15625724281E+03  0.23437321012E+03 -0.16734033307E+04  0.17015436623E+04  0.12500000000E+03 0.  0.
          3    1    1    2  501    0  0.20014523469E+02 -0.10664983450E+02  0.25511507091E+02  0.34134440317E+02  0.00000000000E+00 0.  1.
         -3    1    1    2    0  503  0.13624271934E+03 -0.22370822667E+03  0.15978673209E+03  0.30682120038E+03  0.00000000000E+00 0. -1.
<mgrwt>
<rscale>  4 0.30817548E+03</rscale>
<asrwt>0</asrwt>
<pdfrwt beam="1">  1       21 0.42645708E-01 0.30817548E+03</pdfrwt>
<pdfrwt beam="2">  1       21 0.27158496E+00 0.30817548E+03</pdfrwt>
<totfact> 0.23075092E+02</totfact>
</mgrwt>
</event>
<event>
 5    0  0.1972558E-002  0.2795763E+03  0.7546771E-02  0.1095921E+00
         21   -1    0    0  501  502  0.00000000000E+00  0.00000000000E+00  0.14544864513E+04  0.14544864513E+04  0.00000000000E+00 0. -1.
         21   -1    0    0  502  503 -0.00000000000E+00 -0.00000000000E+00 -0.49371460635E+03  0.49371460635E+03  0.00000000000E+00 0.  1.
         25    1    1    2    0    0 -0.24778006510E+03 -0.29304544532E+02 -0.39597073522E+03  0.48442908681E+03  0.12500000000E+03 0.  0.
          4    1    1    2  501    0 -0.26071090354E+00 -0.33896144696E+02  0.11024221317E+04  0.11029431414E+04  0.00000000000E+00 0. -1.
         -4    1    1    2    0  503  0.24804077600E+03  0.63200689228E+02  0.25432044844E+03  0.36082882947E+03  0.00000000000E+00 0.  1.
<mgrwt>
<rscale>  4 0.27957625E+03</rscale>
<asrwt>0</asrwt>
<pdfrwt beam="1">  1       21 0.22376714E+00 0.27957625E+03</pdfrwt>
<pdfrwt beam="2">  1       21 0.75956094E-01 0.27957625E+03</pdfrwt>
<totfact> 0.13294467E+02</totfact>
</mgrwt>
</event>
<event>
 5    0  0.1972558E-002  0.3070770E+03  0.7546771E-02  0.1081755E+00
         21   -1    0    0  501  502  0.00000000000E+00  0.00000000000E+00  0.19363755587E+04  0.19363755587E+04  0.00000000000E+00 0. -1.
         21   -1    0    0  502  503 -0.00000000000E+00 -0.00000000000E+00 -0.16419543690E+03  0.16419543690E+03  0.00000000000E+00 0. -1.
         25    1    1    2    0    0 -0.22619836797E+03 -0.17785361261E+03  0.63509522578E+02  0.32008759528E+03  0.12500000000E+03 0.  0.
          4    1    1    2  501    0  0.35704117312E+02 -0.34515433473E+01  0.12593452159E+04  0.12598559720E+04  0.00000000000E+00 0. -1.
         -4    1    1    2    0  503  0.19049425066E+03  0.18130515596E+03  0.44932538326E+03  0.52062742835E+03  0.00000000000E+00 0.  1.
<mgrwt>
<rscale>  4 0.30707700E+03</rscale>
<asrwt>0</asrwt>
<pdfrwt beam="1">  1       21 0.29790392E+00 0.30707700E+03</pdfrwt>
<pdfrwt beam="2">  1       21 0.25260838E-01 0.30707700E+03</pdfrwt>
<totfact> 0.45839603E+02</totfact>
</mgrwt>
</event>
<event>
 5    0  0.1972558E-002  0.2887207E+03  0.7546771E-02  0.1091019E+00
         21   -1    0    0  501  502  0.00000000000E+00  0.00000000000E+00  0.53660637634E+03  0.53660637634E+03  0.00000000000E+00 0. -1.
         21   -1    0    0  502  503 -0.00000000000E+00 -0.00000000000E+00 -0.58790554931E+03  0.58790554931E+03  0.00000000000E+00 0.  1.
         25    1    1    2    0    0 -0.25162318446E+03  0.97105823285E+02 -0.39821092462E+03  0.49693129139E+03  0.12500000000E+03 0.  0.
          3    1    1    2  501    0  0.22950967067E+03 -0.72592838113E+02 -0.35873093436E+02  0.24337478897E+03  0.00000000000E+00 0.  1.
         -3    1    1    2    0  503  0.22113513795E+02 -0.24512985172E+02  0.38278484508E+03  0.38420584529E+03  0.00000000000E+00 0. -1.
<mgrwt>
<rscale>  4 0.28872069E+03</rscale>
<asrwt>0</asrwt>
<pdfrwt beam="1">  1       21 0.82554828E-01 0.28872069E+03</pdfrwt>
<pdfrwt beam="2">  1       21 0.90447007E-01 0.28872069E+03</pdfrwt>
<totfact> 0.12315602E+03</totfact>
</mgrwt>
</event>
<event>
 5    0  0.1972558E-002  0.3006200E+03  0.7546771E-02  0.1084931E+00
         21   -1    0    0  501  502  0.00000000000E+00  0.00000000000E+00  0.51898915515E+03  0.51898915515E+03  0.00000000000E+00 0.  1.
         21   -1    0    0  502  503 -0.00000000000E+00 -0.00000000000E+00 -0.19686323876E+03  0.19686323876E+03  0.00000000000E+00 0.  1.
         25    1    1    2    0    0  0.25948454392E+03 -0.12294008117E+03  0.93079861862E+02  0.32670376915E+03  0.12500000000E+03 0.  0.
          1    1    1    2  501    0 -0.22771657202E+03  0.12419510097E+03  0.14033404197E+03  0.29491168782E+03  0.00000000000E+00 0.  1.
         -1    1    1    2    0  503 -0.31767971903E+02 -0.12550198057E+01  0.88712012551E+02  0.94236936943E+02  0.00000000000E+00 0. -1.
<mgrwt>
<rscale>  4 0.30062003E+03</rscale>
<asrwt>0</asrwt>
<pdfrwt beam="1">  1       21 0.79844485E-01 0.30062003E+03</pdfrwt>
<pdfrwt beam="2">  1       21 0.30286652E-01 0.30062003E+03</pdfrwt>
<totfact> 0.13637905E+04</totfact>
</mgrwt>
</event>
<event>
 5    0  0.1972558E-002  0.2305693E+03  0.7546771E-02  0.1126240E+00
         21   -1    0    0  501  502  0.00000000000E+00  0.00000000000E+00  0.18508471646E+03  0.18508471646E+03  0.00000000000E+00 0.  1.
         21   -1    0    0  502  503 -0.00000000000E+00 -0.00000000000E+00 -0.74572410163E+03  0.74572410163E+03  0.00000000000E+00 0. -1.
         25    1    1    2    0    0 -0.17244757756E+03 -0.12113255436E+03 -0.22011243066E+03  0.32937174267E+03  0.12500000000E+03 0.  0.
          3    1    1    2  501    0 -0.17611132040E+02  0.88587241776E+02  0.91353588775E+02  0.12846528543E+03  0.00000000000E+00 0.  1.
         -3    1    1    2    0  503  0.19005870960E+03  0.32545312588E+02 -0.43188054329E+03  0.47297179000E+03  0.00000000000E+00 0. -1.
<mgrwt>
<rscale>  4 0.23056931E+03</rscale>
<asrwt>0</asrwt>
<pdfrwt beam="1">  1       21 0.28474572E-01 0.23056931E+03</pdfrwt>
<pdfrwt beam="2">  1       21 0.11472679E+00 0.23056931E+03</pdfrwt>
<totfact> 0.67662930E+03</totfact>
</mgrwt>
</event>
<event>
 5    0  0.1972558E-002  0.2885328E+03  0.7546771E-02  0.1091118E+00
         21   -1    0    0  501  502  0.00000000000E+00  0.00000000000E+00  0.36820386158E+03  0.36820386158E+03  0.00000000000E+00 0. -1.
         21   -1    0    0  502  503 -0.00000000000E+00 -0.00000000000E+00 -0.23449041110E+03  0.23449041110E+03  0.00000000000E+00 0. -1.
         25    1    1    2    0    0 -0.13598148663E+03 -0.22166467201E+03  0.15919648170E+03  0.32953711674E+03  0.12500000000E+03 0.  0.
          3    1    1    2  501    0  0.12677180618E+03  0.19459480278E+03 -0.47519023450E+02  0.23705755778E+03  0.00000000000E+00 0. -1.
         -3    1    1    2    0  503  0.92096804472E+01  0.27069869233E+02  0.22035992220E+02  0.36099598160E+02  0.00000000000E+00 0.  1.
<mgrwt>
<rscale>  4 0.28853283E+03</rscale>
<asrwt>0</asrwt>
<pdfrwt beam="1">  1       21 0.56646748E-01 0.28853283E+03</pdfrwt>
<pdfrwt beam="2">  1       21 0.36075448E-01 0.28853283E+03</pdfrwt>
<totfact> 0.20692554E+04</totfact>
</mgrwt>
</event>
<event>
 5    0  0.1972558E-002  0.2368362E+03  0.7546771E-02  0.1121919E+00
         21   -1    0    0  503  502  0.00000000000E+00  0.00000000000E+00  0.37824215552E+03  0.37824215552E+03  0.00000000000E+00 0.  1.
         21   -1    0    0  501  503 -0.00000000000E+00 -0.00000000000E+00 -0.11828873543E+04  0.11828873543E+04  0.00000000000E+00 0.  1.
         25    1    1    2    0    0  0.19070101514E+03  0.61248000173E+02 -0.11160066648E+04  0.11407077061E+04  0.12500000000E+03 0.  0.
          3    1    1    2  501    0 -0.22038148101E+03 -0.27263621877E+02  0.19466535513E+03  0.29530645563E+03  0.00000000000E+00 0.  1.
         -3    1    1    2    0  502  0.29680465871E+02 -0.33984378296E+02  0.11669611095E+03  0.12511534811E+03  0.00000000000E+00 0. -1.
<mgrwt>
<rscale>  4 0.23683620E+03</rscale>
<asrwt>0</asrwt>
<pdfrwt beam="1">  1       21 0.58191102E-01 0.23683620E+03</pdfrwt>
<pdfrwt beam="2">  1       21 0.18198267E+00 0.23683620E+03</pdfrwt>
<totfact> 0.46504653E+02</totfact>
</mgrwt>
</event>
<event>
 5    0  0.1972558E-002  0.2416844E+03  0.7546771E-02  0.1118676E+00
         21   -1    0    0  501  502  0.00000000000E+00  0.00000000000E+00  0.22557366139E+03  0.22557366139E+03  0.00000000000E+00 0. -1.
         21   -1    0    0  502  503 -0.00000000000E+00 -0.00000000000E+00 -0.36669273120E+03  0.36669273120E+03  0.00000000000E+00 0. -1.
         25    1    1    2    0    0 -0.54677020424E+02 -0.22128413581E+03 -0.16002131115E+03  0.30526720320E+03  0.12500000000E+03 0.  0.
          2    1    1    2  501    0  0.22508661931E+02  0.18618048489E+03 -0.58217927948E+02  0.19636481342E+03  0.00000000000E+00 0. -1.
         -2    1    1    2    0  503  0.32168358493E+02  0.35103650922E+02  0.77120169288E+02  0.90634375968E+02  0.00000000000E+00 0.  1.
<mgrwt>
<rscale>  4 0.24168444E+03</rscale>
<asrwt>0</asrwt>
<pdfrwt beam="1">  1       21 0.34703640E-01 0.24168444E+03</pdfrwt>
<pdfrwt beam="2">  1       21 0.56414266E-01 0.24168444E+03</pdfrwt>
<totfact> 0.23037513E+04</totfact>
</mgrwt>
</event>
<event>
 5    0  0.1972558E-002  0.3198969E+03  0.7546771E-02  0.1075697E+00
         21   -1    0    0  501  502  0.00000000000E+00  0.00000000000E+00  0.34721710619E+03  0.34721710619E+03  0.00000000000E+00 0.  1.
         21   -1    0    0  502  503 -0.00000000000E+00 -0.00000000000E+00 -0.41141473655E+03  0.41141473655E+03  0.00000000000E+00 0.  1.
         25    1    1    2    0    0  0.37037645176E+02 -0.29912320655E+03 -0.22116523265E+03  0.39418972588E+03  0.12500000000E+03 0.  0.
          4    1    1    2  501    0  0.16012859145E+02  0.24874194246E+02  0.63217269799E+02  0.69796564372E+02  0.00000000000E+00 0. -1.
         -4    1    1    2    0  503 -0.53050504320E+02  0.27424901230E+03  0.93750332494E+02  0.29464555249E+03  0.00000000000E+00 0.  1.
<mgrwt>
<rscale>  4 0.31989688E+03</rscale>
<asrwt>0</asrwt>
<pdfrwt beam="1">  1       21 0.53418017E-01 0.31989688E+03</pdfrwt>
<pdfrwt beam="2">  1       21 0.63294574E-01 0.31989688E+03</pdfrwt>
<totfact> 0.71196981E+03</totfact>
</mgrwt>
</event>
<event>
 5    0  0.1972558E-002  0.2956888E+03  0.7546771E-02  0.1087416E+00
         21   -1    0    0  501  502  0.00000000000E+00  0.00000000000E+00  0.17340736753E+04  0.17340736753E+04  0.00000000000E+00 0.  1.
         21   -1    0    0  502  503 -0.00000000000E+00 -0.00000000000E+00 -0.37037839031E+03  0.37037839031E+03  0.00000000000E+00 0. -1.
         25    1    1    2    0    0  0.22920392824E+03 -0.14751227666E+03 -0.24517559878E+03  0.38733756172E+03  0.12500000000E+03 0.  0.
          2    1    1    2  501    0 -0.54710537725E+01  0.35256427098E+02  0.13720859193E+04  0.13725497142E+04  0.00000000000E+00 0.  1.
         -2    1    1    2    0  503 -0.22373287446E+03  0.11225584956E+03  0.23678496447E+03  0.34456478967E+03  0.00000000000E+00 0. -1.
<mgrwt>
<rscale>  4 0.29568884E+03</rscale>
<asrwt>0</asrwt>
<pdfrwt beam="1">  1       21 0.26678056E+00 0.29568884E+03</pdfrwt>
<pdfrwt beam="2">  1       21 0.56981292E-01 0.29568884E+03</pdfrwt>
<totfact> 0.13547021E+02</totfact>
</mgrwt>
</event>
<event>
 5    0  0.1972558E-002  0.2502405E+03  0.7546771E-02  0.1113153E+00
         21   -1    0    0  501  502  0.00000000000E+00  0.00000000000E+00  0.18806303337E+03  0.18806303337E+03  0.00000000000E+00 0. -1.
         21   -1    0    0  502  503 -0.00000000000E+00 -0.00000000000E+00 -0.39983360382E+03  0.39983360382E+03  0.00000000000E+00 0. -1.
         25    1    1    2    0    0  0.21670082828E+03  0.21932295149E+02 -0.18975691224E+03  0.31475857461E+03  0.12500000000E+03 0.  0.
          4    1    1    2  501    0 -0.21618844552E+03  0.19556440551E+01 -0.63441897982E+02  0.22531343266E+03  0.00000000000E+00 0. -1.
         -4    1    1    2    0  503 -0.51238276118E+00 -0.23887939204E+02  0.41428239781E+02  0.47824629918E+02  0.00000000000E+00 0.  1.
<mgrwt>
<rscale>  4 0.25024053E+03</rscale>
<asrwt>0</asrwt>
<pdfrwt beam="1">  1       21 0.28932774E-01 0.25024053E+03</pdfrwt>
<pdfrwt beam="2">  1       21 0.61512863E-01 0.25024053E+03</pdfrwt>
<totfact> 0.27265236E+04</totfact>
</mgrwt>
</event>
<event>
 5    0  0.1972558E-002  0.2304210E+03  0.7546771E-02  0.1126344E+00
         21   -1    0    0  501  502  0.00000000000E+00  0.00000000000E+00  0.40357066867E+03  0.40357066867E+03  0.00000000000E+00 0.  1.
         21   -1    0    0  502  503 -0.00000000000E+00 -0.00000000000E+00 -0.11009842087E+04  0.11009842087E+04  0.00000000000E+00 0. -1.
         25    1    1    2    0    0  0.17155367242E+03 -0.11013112574E+03 -0.67276383898E+03  0.71399979721E+03  0.12500000000E+03 0.  0.
          4    1    1    2  501    0 -0.63760785358E+02 -0.46890060337E+02  0.35611952461E+03  0.36480848581E+03  0.00000000000E+00 0.  1.
         -4    1    1    2    0  503 -0.10779288707E+03  0.15702118608E+03 -0.38076922566E+03  0.42574659433E+03  0.00000000000E+00 0. -1.
<mgrwt>
<rscale>  4 0.23042099E+03</rscale>
<asrwt>0</asrwt>
<pdfrwt beam="1">  1       21 0.62087796E-01 0.23042099E+03</pdfrwt>
<pdfrwt beam="2">  1       21 0.16938218E+00 0.23042099E+03</pdfrwt>
<totfact> 0.49795035E+02</totfact>
</mgrwt>
</event>
<event>
 5    0  0.1972558E-002  0.3696782E+03  0.7546771E-02  0.1054816E+00
         21   -1    0    0  503  502  0.00000000000E+00  0.00000000000E+00  0.50681479656E+03  0.50681479656E+03  0.00000000000E+00 0. -1.
         21   -1    0    0  501  503 -0.00000000000E+00 -0.00000000000E+00 -0.34002460533E+03  0.34002460533E+03  0.00000000000E+00 0.  1.
         25    1    1    2    0    0  0.11317695216E+03  0.32898012249E+03 -0.12108558922E+03  0.38900342339E+03  0.12500000000E+03 0.  0.
          1    1    1    2  501    0  0.10054388935E+02 -0.34106068481E+02  0.38977145256E+02  0.52759193477E+02  0.00000000000E+00 0.  1.
         -1    1    1    2    0  502 -0.12323134110E+03 -0.29487405401E+03  0.24889863519E+03  0.40507678501E+03  0.00000000000E+00 0. -1.
<mgrwt>
<rscale>  4 0.36967816E+03</rscale>
<asrwt>0</asrwt>
<pdfrwt beam="1">  1       21 0.77971508E-01 0.36967816E+03</pdfrwt>
<pdfrwt beam="2">  1       21 0.52311477E-01 0.36967816E+03</pdfrwt>
<totfact> 0.45681228E+03</totfact>
</mgrwt>
</event>
<event>
 5    0  0.1972558E-002  0.4018794E+03  0.7546771E-02  0.1043131E+00
         21   -1    0    0  501  502  0.00000000000E+00  0.00000000000E+00  0.36867924118E+03  0.36867924118E+03  0.00000000000E+00 0.  1.
         21   -1    0    0  502  503 -0.00000000000E+00 -0.00000000000E+00 -0.58388823807E+03  0.58388823807E+03  0.00000000000E+00 0.  1.
         25    1    1    2    0    0  0.19828014245E+03 -0.34637670615E+03 -0.22610773698E+03  0.47543826747E+03  0.12500000000E+03 0.  0.
          2    1    1    2  501    0 -0.14911628676E+03  0.33081170667E+03 -0.80957021087E+02  0.37178769682E+03  0.00000000000E+00 0.  1.
         -2    1    1    2    0  503 -0.49163855687E+02  0.15564999480E+02  0.91855761165E+02  0.10534151496E+03  0.00000000000E+00 0. -1.
<mgrwt>
<rscale>  4 0.40187938E+03</rscale>
<asrwt>0</asrwt>
<pdfrwt beam="1">  1       21 0.56719884E-01 0.40187938E+03</pdfrwt>
<pdfrwt beam="2">  1       21 0.89828959E-01 0.40187938E+03</pdfrwt>
<totfact> 0.27268499E+03</totfact>
</mgrwt>
</event>
<event>
 5    0  0.1972558E-002  0.3084518E+03  0.7546771E-02  0.1081090E+00
         21   -1    0    0  501  502  0.00000000000E+00  0.00000000000E+00  0.65608451363E+03  0.65608451363E+03  0.00000000000E+00 0.  1.
         21   -1    0    0  502  503 -0.00000000000E+00 -0.00000000000E+00 -0.38094248962E+03  0.38094248962E+03  0.00000000000E+00 0.  1.
         25    1    1    2    0    0 -0.26481070396E+03  0.94322537488E+02 -0.26038939868E+03  0.40304973509E+03  0.12500000000E+03 0.  0.
          4    1    1    2  501    0 -0.14123309853E+02 -0.21614191980E+02  0.15211712637E+03  0.15429277790E+03  0.00000000000E+00 0. -1.
         -4    1    1    2    0  503  0.27893401381E+03 -0.72708345509E+02  0.38341429633E+03  0.47968449026E+03  0.00000000000E+00 0.  1.
<mgrwt>
<rscale>  4 0.30845178E+03</rscale>
<asrwt>0</asrwt>
<pdfrwt beam="1">  1       21 0.10093608E+00 0.30845178E+03</pdfrwt>
<pdfrwt beam="2">  1       21 0.58606537E-01 0.30845178E+03</pdfrwt>
<totfact> 0.20124700E+03</totfact>
</mgrwt>
</event>
<event>
 5    0  0.1972558E-002  0.2848209E+03  0.7546771E-02  0.1093085E+00
         21   -1    0    0  503  502  0.00000000000E+00  0.00000000000E+00  0.48670582741E+03  0.48670582741E+03  0.00000000000E+00 0. -1.
         21   -1    0    0  501  503 -0.00000000000E+00 -0.00000000000E+00 -0.33604196304E+03  0.33604196304E+03  0.00000000000E+00 0.  1.
         25    1    1    2    0    0 -0.56367401108E+02 -0.26496706134E+03 -0.18986757555E+03  0.35363755986E+03  0.12500000000E+03 0.  0.
          4    1    1    2  501    0 -0.75607752318E+01  0.54440815863E+02  0.20146177576E+03  0.20882484250E+03  0.00000000000E+00 0.  1.
         -4    1    1    2    0  502  0.63928176340E+02  0.21052624547E+03  0.13906966415E+03  0.26028538809E+03  0.00000000000E+00 0. -1.
<mgrwt>
<rscale>  4 0.28482091E+03</rscale>
<asrwt>0</asrwt>
<pdfrwt beam="1">  1       21 0.74877820E-01 0.28482091E+03</pdfrwt>
<pdfrwt beam="2">  1       21 0.51698763E-01 0.28482091E+03</pdfrwt>
<totfact> 0.53420158E+03</totfact>
</mgrwt>
</event>
<event>
 5    0  0.1972558E-002  0.2478029E+03  0.7546771E-02  0.1114701E+00
         21   -1    0    0  501  502  0.00000000000E+00  0.00000000000E+00  0.19637951983E+04  0.19637951983E+04  0.00000000000E+00 0.  1.
         21   -1    0    0  502  503 -0.00000000000E+00 -0.00000000000E+00 -0.35412212774E+03  0.35412212774E+03  0.00000000000E+00 0. -1.
         25    1    1    2    0    0  0.20376864039E+03 -0.63504159647E+02 -0.29672426093E+03  0.38629616115E+03  0.12500000000E+03 0.  0.
          4    1    1    2  501    0 -0.20888107890E+03  0.11800892349E+03  0.17397112154E+04  0.17561755391E+04  0.00000000000E+00 0.  1.
         -4    1    1    2    0  503  0.51124385123E+01 -0.54504763845E+02  0.16668611610E+03  0.17544562579E+03  0.00000000000E+00 0. -1.
<mgrwt>
<rscale>  4 0.24780294E+03</rscale>
<asrwt>0</asrwt>
<pdfrwt beam="1">  1       21 0.30212233E+00 0.24780294E+03</pdfrwt>
<pdfrwt beam="2">  1       21 0.54480329E-01 0.24780294E+03</pdfrwt>
<totfact> 0.97487993E+01</totfact>
</mgrwt>
</event>
<event>
 5    0  0.1972558E-002  0.1854367E+03  0.7546771E-02  0.1162643E+00
         21   -1    0    0  501  502  0.00000000000E+00  0.00000000000E+00  0.19704776174E+03  0.19704776174E+03  0.00000000000E+00 0.  1.
         21   -1    0    0  502  503 -0.00000000000E+00 -0.00000000000E+00 -0.32170157892E+03  0.32170157892E+03  0.00000000000E+00 0. -1.
         25    1    1    2    0    0  0.55506104323E+02  0.19540967989E+03 -0.15000802972E+03  0.28176813091E+03  0.12500000000E+03 0.  0.
          2    1    1    2  501    0 -0.64242582575E+01 -0.79417769956E+02 -0.46223045478E+02  0.92114185727E+02  0.00000000000E+00 0. -1.
         -2    1    1    2    0  503 -0.49081846066E+02 -0.11599190994E+03  0.71577258023E+02  0.14486702403E+03  0.00000000000E+00 0.  1.
<mgrwt>
<rscale>  4 0.18543673E+03</rscale>
<asrwt>0</asrwt>
<pdfrwt beam="1">  1       21 0.30315041E-01 0.18543673E+03</pdfrwt>
<pdfrwt beam="2">  1       21 0.49492550E-01 0.18543673E+03</pdfrwt>
<totfact> 0.40785981E+04</totfact>
</mgrwt>
</event>
<event>
 5    0  0.1972558E-002  0.2398853E+03  0.7546771E-02  0.1119869E+00
         21   -1    0    0  501  502  0.00000000000E+00  0.00000000000E+00  0.44400463259E+03  0.44400463259E+03  0.00000000000E+00 0.  1.
         21   -1    0    0  502  503 -0.00000000000E+00 -0.00000000000E+00 -0.41239353222E+03  0.41239353222E+03  0.00000000000E+00 0.  1.
         25    1    1    2    0    0  0.19712932047E+03 -0.44200263566E+02 -0.30217638217E+03  0.38438157894E+03  0.12500000000E+03 0.  0.
          2    1    1    2  501    0  0.30847576018E+02  0.70359013264E+02  0.18018737341E+03  0.19588122225E+03  0.00000000000E+00 0.  1.
         -2    1    1    2    0  503 -0.22797689648E+03 -0.26158749698E+02  0.15360010913E+03  0.27613536362E+03  0.00000000000E+00 0. -1.
<mgrwt>
<rscale>  4 0.23988534E+03</rscale>
<asrwt>0</asrwt>
<pdfrwt beam="1">  1       21 0.68308405E-01 0.23988534E+03</pdfrwt>
<pdfrwt beam="2">  1       21 0.63445159E-01 0.23988534E+03</pdfrwt>
<totfact> 0.43383701E+03</totfact>
</mgrwt>
</event>
<event>
 5    0  0.1972558E-002  0.2514932E+03  0.7546771E-02  0.1112365E+00
         21   -1    0    0  501  502  0.00000000000E+00  0.00000000000E+00  0.22686936023E+03  0.22686936023E+03  0.00000000000E+00 0.  1.
         21   -1    0    0  502  503 -0.00000000000E+00 -0.00000000000E+00 -0.11574187675E+04  0.11574187675E+04  0.00000000000E+00 0. -1.
         25    1    1    2    0    0  0.12433221690E+02 -0.21079814648E+03 -0.85030309569E+03  0.88500327575E+03  0.12500000000E+03 0.  0.
          1    1    1    2  501    0 -0.84210067843E+01  0.23816010055E+03 -0.23937301887E+03  0.33777298443E+03  0.00000000000E+00 0. -1.
         -1    1    1    2    0  503 -0.40122149055E+01 -0.27361954072E+02  0.15912670727E+03  0.16151186757E+03  0.00000000000E+00 0.  1.
<mgrwt>
<rscale>  4 0.25149325E+03</rscale>
<asrwt>0</asrwt>
<pdfrwt beam="1">  1       21 0.34902979E-01 0.25149325E+03</pdfrwt>
<pdfrwt beam="2">  1       21 0.17806442E+00 0.25149325E+03</pdfrwt>
<totfact> 0.14054946E+03</totfact>
</mgrwt>
</event>
<event>
 5    0  0.1972558E-002  0.2997648E+03  0.7546771E-02  0.1085358E+00
         21   -1    0    0  501  502  0.00000000000E+00  0.00000000000E+00  0.17359559000E+03  0.17359559000E+03  0.00000000000E+00 0.  1.
         21   -1    0    0  502  503 -0.00000000000E+00 -0.00000000000E+00 -0.90172193269E+03  0.90172193269E+03  0.00000000000E+00 0. -1.
         25    1    1    2    0    0 -0.91306517396E+02  0.27603567624E+03 -0.63389562433E+03  0.70850634240E+03  0.12500000000E+03 0.  0.
          2    1    1    2  501    0  0.53060404994E+02 -0.23490730672E+03 -0.15316162926E+03  0.28540380868E+03  0.00000000000E+00 0.  1.
         -2    1    1    2    0  503  0.38246112403E+02 -0.41128369514E+02  0.58930910897E+02  0.81407371607E+02  0.00000000000E+00 0. -1.
<mgrwt>
<rscale>  4 0.29976477E+03</rscale>
<asrwt>0</asrwt>
<pdfrwt beam="1">  1       21 0.26707015E-01 0.29976477E+03</pdfrwt>
<pdfrwt beam="2">  1       21 0.13872645E+00 0.29976477E+03</pdfrwt>
<totfact> 0.45459161E+03</totfact>
</mgrwt>
</event>
<event>
 5    0  0.1972558E-002  0.2400443E+03  0.7546771E-02  0.1119763E+00
         21   -1    0    0  501  502  0.00000000000E+00  0.00000000000E+00  0.19979877029E+03  0.19979877029E+03  0.00000000000E+00 0.  1.
         21   -1    0    0  502  503 -0.00000000000E+00 -0.00000000000E+00 -0.22850301064E+04  0.22850301064E+04  0.00000000000E+00 0.  1.
         25    1    1    2    0    0 -0.22706324497E+02  0.20493564691E+03 -0.21761978861E+04  0.21895151144E+04  0.12500000000E+03 0.  0.
          1    1    1    2  501    0  0.31678918257E+02 -0.16703102960E+03  0.14856863476E+03  0.22577767371E+03  0.00000000000E+00 0.  1.
         -1    1    1    2    0  503 -0.89725937602E+01 -0.37904617311E+02 -0.57602084820E+02  0.69536088672E+02  0.00000000000E+00 0. -1.
<mgrwt>
<rscale>  4 0.24004434E+03</rscale>
<asrwt>0</asrwt>
<pdfrwt beam="1">  1       21 0.30738271E-01 0.24004434E+03</pdfrwt>
<pdfrwt beam="2">  1       21 0.35154311E+00 0.24004434E+03</pdfrwt>
<totfact> 0.16196679E+02</totfact>
</mgrwt>
</event>
<event>
 5    0  0.1972558E-002  0.2249410E+03  0.7546771E-02  0.1130252E+00
         21   -1    0    0  501  502  0.00000000000E+00  0.00000000000E+00  0.12933127857E+04  0.12933127857E+04  0.00000000000E+00 0.  1.
         21   -1    0    0  502  503 -0.00000000000E+00 -0.00000000000E+00 -0.10966897328E+03  0.10966897328E+03  0.00000000000E+00 0.  1.
         25    1    1    2    0    0  0.40092093147E+02 -0.20742390925E+03  0.12583237695E+03  0.27584568358E+03  0.12500000000E+03 0.  0.
          4    1    1    2  501    0 -0.37774369670E+02  0.15896770439E+03  0.16226662317E+03  0.23027829042E+03  0.00000000000E+00 0. -1.
         -4    1    1    2    0  503 -0.23177234773E+01  0.48456204862E+02  0.89554481227E+03  0.89685778494E+03  0.00000000000E+00 0.  1.
<mgrwt>
<rscale>  4 0.22494101E+03</rscale>
<asrwt>0</asrwt>
<pdfrwt beam="1">  1       21 0.19897119E+00 0.22494101E+03</pdfrwt>
<pdfrwt beam="2">  1       21 0.16872151E-01 0.22494101E+03</pdfrwt>
<totfact> 0.41894537E+03</totfact>
</mgrwt>
</event>
<event>
 5    0  0.1972558E-002  0.4422221E+03  0.7546771E-02  0.1030067E+00
         21   -1    0    0  501  502  0.00000000000E+00  0.00000000000E+00  0.49826472898E+03  0.49826472898E+03  0.00000000000E+00 0.  1.
         21   -1    0    0  502  503 -0.00000000000E+00 -0.00000000000E+00 -0.42943649999E+03  0.42943649999E+03  0.00000000000E+00 0.  1.
         25    1    1    2    0    0 -0.14883568480E+03 -0.41394777407E+03  0.24766301660E+02  0.45797728156E+03  0.12500000000E+03 0.  0.
          4    1    1    2  501    0  0.12243840994E+03  0.39245428720E+03 -0.36341088945E+01  0.41112618321E+03  0.00000000000E+00 0.  1.
         -4    1    1    2    0  503  0.26397274860E+02  0.21493486863E+02  0.47696036226E+02  0.58597764200E+02  0.00000000000E+00 0. -1.
<mgrwt>
<rscale>  4 0.44222205E+03</rscale>
<asrwt>0</asrwt>
<pdfrwt beam="1">  1       21 0.76656112E-01 0.44222205E+03</pdfrwt>
<pdfrwt beam="2">  1       21 0.66067154E-01 0.44222205E+03</pdfrwt>
<totfact> 0.27767195E+03</totfact>
</mgrwt>
</event>
<event>
 5    0  0.1972558E-002  0.3447373E+03  0.7546771E-02  0.1064796E+00
         21   -1    0    0  501  502  0.00000000000E+00  0.00000000000E+00  0.28259659799E+03  0.28259659799E+03  0.00000000000E+00 0.  1.
         21   -1    0    0  502  503 -0.00000000000E+00 -0.00000000000E+00 -0.70331594345E+03  0.70331594345E+03  0.00000000000E+00 0.  1.
         25    1    1    2    0    0  0.15969282526E+03 -0.28881409168E+03 -0.38837019955E+03  0.52475879210E+03  0.12500000000E+03 0.  0.
          1    1    1    2  501    0 -0.12094083288E+03  0.28506689748E+03 -0.14502690673E+03  0.34193950455E+03  0.00000000000E+00 0.  1.
         -1    1    1    2    0  503 -0.38751992376E+02  0.37471942063E+01  0.11267776082E+03  0.11921424479E+03  0.00000000000E+00 0. -1.
<mgrwt>
<rscale>  4 0.34473730E+03</rscale>
<asrwt>0</asrwt>
<pdfrwt beam="1">  1       21 0.43476400E-01 0.34473730E+03</pdfrwt>
<pdfrwt beam="2">  1       21 0.10820245E+00 0.34473730E+03</pdfrwt>
<totfact> 0.31356583E+03</totfact>
</mgrwt>
</event>
<event>
 5    0  0.1972558E-002  0.3526461E+03  0.7546771E-02  0.1061998E+00
         21   -1    0    0  501  502  0.00000000000E+00  0.00000000000E+00  0.83354271288E+03  0.83354271288E+03  0.00000000000E+00 0.  1.
         21   -1    0    0  502  503 -0.00000000000E+00 -0.00000000000E+00 -0.15998678816E+03  0.15998678816E+03  0.00000000000E+00 0.  1.
         25    1    1    2    0    0  0.11493435115E+03 -0.30388983789E+03  0.19479152785E+03  0.39890810718E+03  0.12500000000E+03 0.  0.
          1    1    1    2  501    0 -0.99139154949E+01  0.20900584006E+03  0.25509074131E+03  0.32992880020E+03  0.00000000000E+00 0.  1.
         -1    1    1    2    0  503 -0.10502043565E+03  0.94883997831E+02  0.22367365556E+03  0.26469259366E+03  0.00000000000E+00 0. -1.
<mgrwt>
<rscale>  4 0.35150777E+03</rscale>
<asrwt>0</asrwt>
<pdfrwt beam="1">  1       21 0.12823734E+00 0.35264608E+03</pdfrwt>
<pdfrwt beam="2">  1       21 0.24613352E-01 0.35264608E+03</pdfrwt>
<totfact> 0.63605497E+03</totfact>
</mgrwt>
</event>
<event>
 5    0  0.1972558E-002  0.2598342E+03  0.7546771E-02  0.1107243E+00
         21   -1    0    0  501  502  0.00000000000E+00  0.00000000000E+00  0.79163279152E+02  0.79163279152E+02  0.00000000000E+00 0.  1.
         21   -1    0    0  502  503 -0.00000000000E+00 -0.00000000000E+00 -0.94432869868E+03  0.94432869868E+03  0.00000000000E+00 0.  1.
         25    1    1    2    0    0 -0.55379101180E+02 -0.22369113804E+03 -0.62615105833E+03  0.67881861932E+03  0.12500000000E+03 0.  0.
          3    1    1    2  501    0  0.32249090405E+02  0.22150635210E+03 -0.22578902347E+03  0.31793985433E+03  0.00000000000E+00 0.  1.
         -3    1    1    2    0  503  0.23130010775E+02  0.21847859407E+01 -0.13225337735E+02  0.26733504189E+02  0.00000000000E+00 0. -1.
<mgrwt>
<rscale>  4 0.25983418E+03</rscale>
<asrwt>0</asrwt>
<pdfrwt beam="1">  1       21 0.12178966E-01 0.25983418E+03</pdfrwt>
<pdfrwt beam="2">  1       21 0.14528134E+00 0.25983418E+03</pdfrwt>
<totfact> 0.17834804E+04</totfact>
</mgrwt>
</event>
<event>
 5    0  0.1972558E-002  0.2462420E+03  0.7546771E-02  0.1115703E+00
         21   -1    0    0  501  502  0.00000000000E+00  0.00000000000E+00  0.11495311687E+04  0.11495311687E+04  0.00000000000E+00 0.  1.
         21   -1    0    0  502  503 -0.00000000000E+00 -0.00000000000E+00 -0.61118049149E+02  0.61118049149E+02  0.00000000000E+00 0.  1.
         25    1    1    2    0    0  0.24215599744E+02  0.21076931780E+03  0.27648719939E+03  0.37024353070E+03  0.12500000000E+03 0.  0.
          1    1    1    2  501    0 -0.19251213011E+02 -0.19056487305E+03  0.66567510168E+03  0.69268240994E+03  0.00000000000E+00 0.  1.
         -1    1    1    2    0  503 -0.49643867331E+01 -0.20204444745E+02  0.14625081848E+03  0.14772327721E+03  0.00000000000E+00 0. -1.
<mgrwt>
<rscale>  4 0.24624196E+03</rscale>
<asrwt>0</asrwt>
<pdfrwt beam="1">  1       21 0.17685093E+00 0.24624196E+03</pdfrwt>
<pdfrwt beam="2">  1       21 0.94027777E-02 0.24624196E+03</pdfrwt>
<totfact> 0.16683232E+04</totfact>
</mgrwt>
</event>
<event>
 5    0  0.1972558E-002  0.2340431E+03  0.7546771E-02  0.1123826E+00
         21   -1    0    0  501  502  0.00000000000E+00  0.00000000000E+00  0.13954063017E+03  0.13954063017E+03  0.00000000000E+00 0.  1.
         21   -1    0    0  502  503 -0.00000000000E+00 -0.00000000000E+00 -0.66013139874E+03  0.66013139874E+03  0.00000000000E+00 0.  1.
         25    1    1    2    0    0 -0.15952505618E+03  0.16481100217E+03 -0.39945727175E+03  0.47728610072E+03  0.12500000000E+03 0.  0.
          4    1    1    2  501    0  0.12355668679E+03  0.41442211540E+01 -0.30595395470E+02  0.12735583082E+03  0.00000000000E+00 0. -1.
         -4    1    1    2    0  503  0.35968369395E+02 -0.16895522332E+03 -0.90538101354E+02  0.19503009737E+03  0.00000000000E+00 0.  1.
<mgrwt>
<rscale>  4 0.23404313E+03</rscale>
<asrwt>0</asrwt>
<pdfrwt beam="1">  1       21 0.21467789E-01 0.23404313E+03</pdfrwt>
<pdfrwt beam="2">  1       21 0.10155868E+00 0.23404313E+03</pdfrwt>
<totfact> 0.15593560E+04</totfact>
</mgrwt>
</event>
<event>
 5    0  0.1972558E-002  0.2719662E+03  0.7546771E-02  0.1100160E+00
         21   -1    0    0  501  502  0.00000000000E+00  0.00000000000E+00  0.18168953949E+03  0.18168953949E+03  0.00000000000E+00 0.  1.
         21   -1    0    0  502  503 -0.00000000000E+00 -0.00000000000E+00 -0.66954825441E+03  0.66954825441E+03  0.00000000000E+00 0.  1.
         25    1    1    2    0    0  0.21717558297E+03 -0.12503185208E+03 -0.18764673779E+03  0.33709716118E+03  0.12500000000E+03 0.  0.
          4    1    1    2  501    0  0.24735457634E+01  0.33579477652E+02  0.67923431813E+02  0.75810898538E+02  0.00000000000E+00 0. -1.
         -4    1    1    2    0  503 -0.21964912873E+03  0.91452374433E+02 -0.36813540894E+03  0.43832973417E+03  0.00000000000E+00 0.  1.
<mgrwt>
<rscale>  4 0.27196621E+03</rscale>
<asrwt>0</asrwt>
<pdfrwt beam="1">  1       21 0.27952237E-01 0.27196621E+03</pdfrwt>
<pdfrwt beam="2">  1       21 0.10300742E+00 0.27196621E+03</pdfrwt>
<totfact> 0.88997209E+03</totfact>
</mgrwt>
</event>
<event>
 5    0  0.1972558E-002  0.2358976E+03  0.7546771E-02  0.1122556E+00
         21   -1    0    0  501  502  0.00000000000E+00  0.00000000000E+00  0.55831546708E+02  0.55831546708E+02  0.00000000000E+00 0.  1.
         21   -1    0    0  502  503 -0.00000000000E+00 -0.00000000000E+00 -0.25947061280E+04  0.25947061280E+04  0.00000000000E+00 0. -1.
         25    1    1    2    0    0 -0.31720560849E+02 -0.20145894292E+03 -0.22892686613E+04  0.23017315011E+04  0.12500000000E+03 0.  0.
          1    1    1    2  501    0  0.91450281117E+01  0.18264299613E+03 -0.25979306447E+03  0.31770195454E+03  0.00000000000E+00 0.  1.
         -1    1    1    2    0  503  0.22575532737E+02  0.18815946794E+02  0.10187144445E+02  0.31104219072E+02  0.00000000000E+00 0. -1.
<mgrwt>
<rscale>  4 0.23589764E+03</rscale>
<asrwt>0</asrwt>
<pdfrwt beam="1">  1       21 0.85894694E-02 0.23589764E+03</pdfrwt>
<pdfrwt beam="2">  1       21 0.39918553E+00 0.23589764E+03</pdfrwt>
<totfact> 0.87881243E+02</totfact>
</mgrwt>
</event>
<event>
 5    0  0.1972558E-002  0.4402727E+03  0.7546771E-02  0.1030663E+00
         21   -1    0    0  501  502  0.00000000000E+00  0.00000000000E+00  0.17060878871E+04  0.17060878871E+04  0.00000000000E+00 0. -1.
         21   -1    0    0  502  503 -0.00000000000E+00 -0.00000000000E+00 -0.33703607083E+03  0.33703607083E+03  0.00000000000E+00 0. -1.
         25    1    1    2    0    0 -0.14930995696E+03 -0.42007317199E+03  0.32638934545E+03  0.56648913308E+03  0.12500000000E+03 0.  0.
          4    1    1    2  501    0  0.63966456734E+01  0.33870819048E+02  0.10637407503E+04  0.10642990808E+04  0.00000000000E+00 0.  1.
         -4    1    1    2    0  503  0.14291331129E+03  0.38620235294E+03 -0.21078279509E+02  0.41233574406E+03  0.00000000000E+00 0. -1.
<mgrwt>
<rscale>  4 0.44027266E+03</rscale>
<asrwt>0</asrwt>
<pdfrwt beam="1">  1       21 0.26247506E+00 0.44027266E+03</pdfrwt>
<pdfrwt beam="2">  1       21 0.51851704E-01 0.44027266E+03</pdfrwt>
<totfact> 0.15760172E+02</totfact>
</mgrwt>
</event>
<event>
 5    0  0.1972558E-002  0.2541099E+03  0.7546771E-02  0.1110735E+00
         21   -1    0    0  503  502  0.00000000000E+00  0.00000000000E+00  0.22181658491E+03  0.22181658491E+03  0.00000000000E+00 0. -1.
         21   -1    0    0  501  503 -0.00000000000E+00 -0.00000000000E+00 -0.75245963293E+03  0.75245963293E+03  0.00000000000E+00 0.  1.
         25    1    1    2    0    0  0.20406055899E+03 -0.85475930965E+02 -0.65661159290E+03  0.70406720591E+03  0.12500000000E+03 0.  0.
          2    1    1    2  501    0 -0.24165431278E+02  0.39197509632E+02  0.49730193304E+00  0.46050625831E+02  0.00000000000E+00 0.  1.
         -2    1    1    2    0  502 -0.17989512771E+03  0.46278421333E+02  0.12547124293E+03  0.22415838610E+03  0.00000000000E+00 0. -1.
<mgrwt>
<rscale>  4 0.25410991E+03</rscale>
<asrwt>0</asrwt>
<pdfrwt beam="1">  1       21 0.34125628E-01 0.25410991E+03</pdfrwt>
<pdfrwt beam="2">  1       21 0.11576302E+00 0.25410991E+03</pdfrwt>
<totfact> 0.45645287E+03</totfact>
</mgrwt>
</event>
<event>
 5    0  0.1972558E-002  0.2371468E+03  0.7546771E-02  0.1121708E+00
         21   -1    0    0  501  502  0.00000000000E+00  0.00000000000E+00  0.86286555116E+03  0.86286555116E+03  0.00000000000E+00 0.  1.
         21   -1    0    0  502  503 -0.00000000000E+00 -0.00000000000E+00 -0.78240373450E+02  0.78240373450E+02  0.00000000000E+00 0.  1.
         25    1    1    2    0    0  0.12641559212E+03 -0.15694803220E+03  0.17075963504E+03  0.29222840331E+03  0.12500000000E+03 0.  0.
          4    1    1    2  501    0 -0.41359060613E+02  0.53011250225E+02  0.30074880012E+03  0.30817301199E+03  0.00000000000E+00 0. -1.
         -4    1    1    2    0  503 -0.85056531505E+02  0.10393678197E+03  0.31311674255E+03  0.34070450931E+03  0.00000000000E+00 0.  1.
<mgrwt>
<rscale>  4 0.23714676E+03</rscale>
<asrwt>0</asrwt>
<pdfrwt beam="1">  1       21 0.13274854E+00 0.23714676E+03</pdfrwt>
<pdfrwt beam="2">  1       21 0.12036981E-01 0.23714676E+03</pdfrwt>
<totfact> 0.23303362E+04</totfact>
</mgrwt>
</event>
<event>
 5    0  0.1972558E-002  0.2761248E+03  0.7546771E-02  0.1097824E+00
         21   -1    0    0  501  502  0.00000000000E+00  0.00000000000E+00  0.84497848431E+03  0.84497848431E+03  0.00000000000E+00 0.  1.
         21   -1    0    0  502  503 -0.00000000000E+00 -0.00000000000E+00 -0.20344942604E+03  0.20344942604E+03  0.00000000000E+00 0. -1.
         25    1    1    2    0    0 -0.24778813907E+03 -0.18778989490E+02 -0.70417319613E+02  0.28694112848E+03  0.12500000000E+03 0.  0.
          4    1    1    2  501    0  0.13071001059E+02  0.27445810671E+02  0.13861769475E+03  0.14191190538E+03  0.00000000000E+00 0. -1.
         -4    1    1    2    0  503  0.23471713801E+03 -0.86668211810E+01  0.57332868314E+03  0.61957487649E+03  0.00000000000E+00 0.  1.
<mgrwt>
<rscale>  4 0.27612484E+03</rscale>
<asrwt>0</asrwt>
<pdfrwt beam="1">  1       21 0.12999669E+00 0.27612484E+03</pdfrwt>
<pdfrwt beam="2">  1       21 0.31299912E-01 0.27612484E+03</pdfrwt>
<totfact> 0.39929228E+03</totfact>
</mgrwt>
</event>
<event>
 5    0  0.1972558E-002  0.2447361E+03  0.7546771E-02  0.1116677E+00
         21   -1    0    0  501  502  0.00000000000E+00  0.00000000000E+00  0.42778070859E+03  0.42778070859E+03  0.00000000000E+00 0. -1.
         21   -1    0    0  502  503 -0.00000000000E+00 -0.00000000000E+00 -0.26635518020E+03  0.26635518020E+03  0.00000000000E+00 0.  1.
         25    1    1    2    0    0 -0.12379288910E+03  0.16041308126E+03 -0.11520511521E+03  0.26448866630E+03  0.12500000000E+03 0.  0.
          2    1    1    2  501    0 -0.19810270705E+02  0.17254869510E+02  0.17949474729E+03  0.18140711577E+03  0.00000000000E+00 0.  1.
         -2    1    1    2    0  503  0.14360315980E+03 -0.17766795077E+03  0.97135896310E+02  0.24824010673E+03  0.00000000000E+00 0. -1.
<mgrwt>
<rscale>  4 0.24473609E+03</rscale>
<asrwt>0</asrwt>
<pdfrwt beam="1">  1       21 0.65812417E-01 0.24473609E+03</pdfrwt>
<pdfrwt beam="2">  1       21 0.40977720E-01 0.24473609E+03</pdfrwt>
<totfact> 0.11786037E+04</totfact>
</mgrwt>
</event>
<event>
 5    0  0.1972558E-002  0.3324930E+03  0.7546771E-02  0.1070039E+00
         21   -1    0    0  501  502  0.00000000000E+00  0.00000000000E+00  0.53204434254E+03  0.53204434254E+03  0.00000000000E+00 0. -1.
         21   -1    0    0  502  503 -0.00000000000E+00 -0.00000000000E+00 -0.30066350917E+03  0.30066350917E+03  0.00000000000E+00 0. -1.
         25    1    1    2    0    0 -0.32422608674E+03  0.82016206657E+02 -0.21583311905E+02  0.35768708788E+03  0.12500000000E+03 0.  0.
          4    1    1    2  501    0  0.66301940037E+02  0.27760064205E+02  0.16701610526E+03  0.18182669725E+03  0.00000000000E+00 0. -1.
         -4    1    1    2    0  503  0.25792414671E+03 -0.10977627086E+03  0.85948040008E+02  0.29319406658E+03  0.00000000000E+00 0.  1.
<mgrwt>
<rscale>  4 0.33249296E+03</rscale>
<asrwt>0</asrwt>
<pdfrwt beam="1">  1       21 0.81852975E-01 0.33249296E+03</pdfrwt>
<pdfrwt beam="2">  1       21 0.46255925E-01 0.33249296E+03</pdfrwt>
<totfact> 0.53826712E+03</totfact>
</mgrwt>
</event>
<event>
 5    0  0.1972558E-002  0.2401612E+03  0.7546771E-02  0.1119686E+00
         21   -1    0    0  503  502  0.00000000000E+00  0.00000000000E+00  0.92672048375E+02  0.92672048375E+02  0.00000000000E+00 0. -1.
         21   -1    0    0  501  503 -0.00000000000E+00 -0.00000000000E+00 -0.82647210799E+03  0.82647210799E+03  0.00000000000E+00 0.  1.
         25    1    1    2    0    0 -0.19674840443E+03  0.85357172584E+02 -0.56222939124E+03  0.61459146588E+03  0.12500000000E+03 0.  0.
          2    1    1    2  501    0  0.33557475342E+02  0.15122859487E+02  0.12456464641E+02  0.38858313676E+02  0.00000000000E+00 0. -1.
         -2    1    1    2    0  502  0.16319092909E+03 -0.10048003207E+03 -0.18402713302E+03  0.26569437682E+03  0.00000000000E+00 0.  1.
<mgrwt>
<rscale>  4 0.24016116E+03</rscale>
<asrwt>0</asrwt>
<pdfrwt beam="1">  1       21 0.14257238E-01 0.24016116E+03</pdfrwt>
<pdfrwt beam="2">  1       21 0.12714956E+00 0.24016116E+03</pdfrwt>
<totfact> 0.19107063E+04</totfact>
</mgrwt>
</event>
<event>
 5    0  0.1972558E-002  0.4410557E+03  0.7546771E-02  0.1030423E+00
         21   -1    0    0  501  502  0.00000000000E+00  0.00000000000E+00  0.22033208222E+03  0.22033208222E+03  0.00000000000E+00 0.  1.
         21   -1    0    0  502  503 -0.00000000000E+00 -0.00000000000E+00 -0.14632794831E+04  0.14632794831E+04  0.00000000000E+00 0.  1.
         25    1    1    2    0    0  0.21798510021E+03  0.36247830724E+03 -0.88115840940E+03  0.98537970833E+03  0.12500000000E+03 0.  0.
          1    1    1    2  501    0 -0.13412412442E+03  0.71624729111E+02 -0.12407452053E+03  0.19624950756E+03  0.00000000000E+00 0. -1.
         -1    1    1    2    0  503 -0.83860975785E+02 -0.43410303635E+03 -0.23771447094E+03  0.50198234942E+03  0.00000000000E+00 0.  1.
<mgrwt>
<rscale>  4 0.44105566E+03</rscale>
<asrwt>0</asrwt>
<pdfrwt beam="1">  1       21 0.33897243E-01 0.44105566E+03</pdfrwt>
<pdfrwt beam="2">  1       21 0.22511992E+00 0.44105566E+03</pdfrwt>
<totfact> 0.64749023E+02</totfact>
</mgrwt>
</event>
<event>
 5    0  0.1972558E-002  0.3341495E+03  0.7546771E-02  0.1069315E+00
         21   -1    0    0  501  502  0.00000000000E+00  0.00000000000E+00  0.29598486485E+04  0.29598486485E+04  0.00000000000E+00 0.  1.
         21   -1    0    0  502  503 -0.00000000000E+00 -0.00000000000E+00 -0.86754358451E+02  0.86754358451E+02  0.00000000000E+00 0. -1.
         25    1    1    2    0    0  0.30070804797E+03 -0.17109784633E+03  0.40060435018E+03  0.54388293641E+03  0.12500000000E+03 0.  0.
          2    1    1    2  501    0 -0.12179457753E+03  0.25982161531E+02  0.14128724292E+04  0.14183502717E+04  0.00000000000E+00 0.  1.
         -2    1    1    2    0  503 -0.17891347044E+03  0.14511568480E+03  0.10596175106E+04  0.10843697989E+04  0.00000000000E+00 0. -1.
<mgrwt>
<rscale>  4 0.33414949E+03</rscale>
<asrwt>0</asrwt>
<pdfrwt beam="1">  1       21 0.45536125E+00 0.33414949E+03</pdfrwt>
<pdfrwt beam="2">  1       21 0.13346827E-01 0.33414949E+03</pdfrwt>
<totfact> 0.15401729E+02</totfact>
</mgrwt>
</event>
<event>
 5    0  0.1972558E-002  0.2599304E+03  0.7546771E-02  0.1107185E+00
         21   -1    0    0  501  502  0.00000000000E+00  0.00000000000E+00  0.19816226541E+04  0.19816226541E+04  0.00000000000E+00 0. -1.
         21   -1    0    0  502  503 -0.00000000000E+00 -0.00000000000E+00 -0.14750465125E+03  0.14750465125E+03  0.00000000000E+00 0.  1.
         25    1    1    2    0    0  0.18850960925E+03 -0.18476933102E+03  0.55918387469E+02  0.29736752432E+03  0.12500000000E+03 0.  0.
          4    1    1    2  501    0 -0.17121772603E+03  0.30095676918E+01  0.14142572870E+04  0.14245870423E+04  0.00000000000E+00 0.  1.
         -4    1    1    2    0  503 -0.17291883226E+02  0.18175976333E+03  0.36394232838E+03  0.40717273875E+03  0.00000000000E+00 0. -1.
<mgrwt>
<rscale>  4 0.25993036E+03</rscale>
<asrwt>0</asrwt>
<pdfrwt beam="1">  1       21 0.30486500E+00 0.25993036E+03</pdfrwt>
<pdfrwt beam="2">  1       21 0.22693025E-01 0.25993036E+03</pdfrwt>
<totfact> 0.53618200E+02</totfact>
</mgrwt>
</event>
<event>
 5    0  0.1972558E-002  0.3145201E+03  0.7546771E-02  0.1078199E+00
         21   -1    0    0  501  502  0.00000000000E+00  0.00000000000E+00  0.11416761951E+03  0.11416761951E+03  0.00000000000E+00 0. -1.
         21   -1    0    0  502  503 -0.00000000000E+00 -0.00000000000E+00 -0.12861770189E+04  0.12861770189E+04  0.00000000000E+00 0.  1.
         25    1    1    2    0    0 -0.24295079363E+03  0.15740479633E+03 -0.88020890644E+03  0.93498346349E+03  0.12500000000E+03 0.  0.
          2    1    1    2  501    0 -0.16870025828E+02 -0.32317341588E+02  0.19234906364E+02  0.41218805921E+02  0.00000000000E+00 0.  1.
         -2    1    1    2    0  503  0.25982081945E+03 -0.12508745475E+03 -0.31103539931E+03  0.42414236900E+03  0.00000000000E+00 0. -1.
<mgrwt>
<rscale>  4 0.31452014E+03</rscale>
<asrwt>0</asrwt>
<pdfrwt beam="1">  1       21 0.17564249E-01 0.31452014E+03</pdfrwt>
<pdfrwt beam="2">  1       21 0.19787339E+00 0.31452014E+03</pdfrwt>
<totfact> 0.37147547E+03</totfact>
</mgrwt>
</event>
<event>
 5    0  0.1972558E-002  0.2850535E+03  0.7546771E-02  0.1092960E+00
         21   -1    0    0  501  502  0.00000000000E+00  0.00000000000E+00  0.18144702278E+03  0.18144702278E+03  0.00000000000E+00 0. -1.
         21   -1    0    0  502  503 -0.00000000000E+00 -0.00000000000E+00 -0.65260353198E+03  0.65260353198E+03  0.00000000000E+00 0.  1.
         25    1    1    2    0    0 -0.15079035462E+03  0.21938527072E+03 -0.32395855380E+03  0.43754059542E+03  0.12500000000E+03 0.  0.
          2    1    1    2  501    0  0.34806964369E+02 -0.13759023037E+01  0.63152169387E+02  0.72122218311E+02  0.00000000000E+00 0. -1.
         -2    1    1    2    0  503  0.11598339025E+03 -0.21800936842E+03 -0.21035012479E+03  0.32438774103E+03  0.00000000000E+00 0.  1.
<mgrwt>
<rscale>  4 0.28505345E+03</rscale>
<asrwt>0</asrwt>
<pdfrwt beam="1">  1       21 0.27914926E-01 0.28505345E+03</pdfrwt>
<pdfrwt beam="2">  1       21 0.10040054E+00 0.28505345E+03</pdfrwt>
<totfact> 0.94290028E+03</totfact>
</mgrwt>
</event>
<event>
 5    0  0.1972558E-002  0.2393418E+03  0.7546771E-02  0.1120232E+00
         21   -1    0    0  501  502  0.00000000000E+00  0.00000000000E+00  0.10084193233E+04  0.10084193233E+04  0.00000000000E+00 0.  1.
         21   -1    0    0  502  503 -0.00000000000E+00 -0.00000000000E+00 -0.76749121769E+02  0.76749121769E+02  0.00000000000E+00 0.  1.
         25    1    1    2    0    0 -0.10137484497E+03 -0.17305681688E+03  0.22571609001E+03  0.32680005256E+03  0.12500000000E+03 0.  0.
          2    1    1    2  501    0  0.13652654665E+03  0.16182872805E+03  0.42311763302E+03  0.47313482913E+03  0.00000000000E+00 0.  1.
         -2    1    1    2    0  503 -0.35151701677E+02  0.11228088826E+02  0.28283647848E+03  0.28523356337E+03  0.00000000000E+00 0. -1.
<mgrwt>
<rscale>  4 0.23934184E+03</rscale>
<asrwt>0</asrwt>
<pdfrwt beam="1">  1       21 0.15514142E+00 0.23934184E+03</pdfrwt>
<pdfrwt beam="2">  1       21 0.11807558E-01 0.23934184E+03</pdfrwt>
<totfact> 0.16016211E+04</totfact>
</mgrwt>
</event>
<event>
 5    0  0.1972558E-002  0.2656441E+03  0.7546771E-02  0.1103799E+00
         21   -1    0    0  501  502  0.00000000000E+00  0.00000000000E+00  0.47297167443E+03  0.47297167443E+03  0.00000000000E+00 0. -1.
         21   -1    0    0  502  503 -0.00000000000E+00 -0.00000000000E+00 -0.24701169559E+03  0.24701169559E+03  0.00000000000E+00 0.  1.
         25    1    1    2    0    0 -0.10469855874E+03 -0.22533990872E+03 -0.59201707568E+02  0.28437599203E+03  0.12500000000E+03 0.  0.
          1    1    1    2  501    0  0.67208692140E+02  0.20467966275E+03  0.86107738329E+02  0.23200283456E+03  0.00000000000E+00 0. -1.
         -1    1    1    2    0  503  0.37489866600E+02  0.20660245967E+02  0.19905394808E+03  0.20360454343E+03  0.00000000000E+00 0.  1.
<mgrwt>
<rscale>  4 0.26564405E+03</rscale>
<asrwt>0</asrwt>
<pdfrwt beam="1">  1       21 0.72764873E-01 0.26564405E+03</pdfrwt>
<pdfrwt beam="2">  1       21 0.38001799E-01 0.26564405E+03</pdfrwt>
<totfact> 0.10873938E+04</totfact>
</mgrwt>
</event>
<event>
 5    0  0.1972558E-002  0.2388520E+03  0.7546771E-02  0.1120560E+00
         21   -1    0    0  503  502  0.00000000000E+00  0.00000000000E+00  0.51946030659E+02  0.51946030659E+02  0.00000000000E+00 0. -1.
         21   -1    0    0  501  503 -0.00000000000E+00 -0.00000000000E+00 -0.13194781758E+04  0.13194781758E+04  0.00000000000E+00 0.  1.
         25    1    1    2    0    0 -0.19789366693E+03  0.47575175179E+02 -0.10227260752E+04  0.10502470783E+04  0.12500000000E+03 0.  0.
          2    1    1    2  501    0  0.22679332180E+02 -0.12843552857E+02 -0.53097467804E+02  0.59149387531E+02  0.00000000000E+00 0.  1.
         -2    1    1    2    0  502  0.17521433475E+03 -0.34731622322E+02 -0.19170860211E+03  0.26202774054E+03  0.00000000000E+00 0. -1.
<mgrwt>
<rscale>  4 0.23885205E+03</rscale>
<asrwt>0</asrwt>
<pdfrwt beam="1">  1       21 0.79916978E-02 0.23885205E+03</pdfrwt>
<pdfrwt beam="2">  1       21 0.20299662E+00 0.23885205E+03</pdfrwt>
<totfact> 0.14925750E+04</totfact>
</mgrwt>
</event>
<event>
 5    0  0.1972558E-002  0.2659486E+03  0.7546771E-02  0.1103621E+00
         21   -1    0    0  501  502  0.00000000000E+00  0.00000000000E+00  0.12056304097E+04  0.12056304097E+04  0.00000000000E+00 0.  1.
         21   -1    0    0  502  503 -0.00000000000E+00 -0.00000000000E+00 -0.55527024525E+03  0.55527024525E+03  0.00000000000E+00 0. -1.
         25    1    1    2    0    0  0.19307091483E+03 -0.13546080292E+03 -0.49840263250E+03  0.56538145650E+03  0.12500000000E+03 0.  0.
          2    1    1    2  501    0 -0.47496111043E+02 -0.32729746324E+02  0.60889250083E+03  0.61161850399E+03  0.00000000000E+00 0.  1.
         -2    1    1    2    0  503 -0.14557480378E+03  0.16819054925E+03  0.53987029616E+03  0.58390069449E+03  0.00000000000E+00 0. -1.
<mgrwt>
<rscale>  4 0.26594865E+03</rscale>
<asrwt>0</asrwt>
<pdfrwt beam="1">  1       21 0.18548160E+00 0.26594865E+03</pdfrwt>
<pdfrwt beam="2">  1       21 0.85426192E-01 0.26594865E+03</pdfrwt>
<totfact> 0.18217723E+02</totfact>
</mgrwt>
</event>
<event>
 5    0  0.1972558E-002  0.2531507E+03  0.7546771E-02  0.1111330E+00
         21   -1    0    0  503  502  0.00000000000E+00  0.00000000000E+00  0.11780487560E+04  0.11780487560E+04  0.00000000000E+00 0.  1.
         21   -1    0    0  501  503 -0.00000000000E+00 -0.00000000000E+00 -0.74536393297E+02  0.74536393297E+02  0.00000000000E+00 0. -1.
         25    1    1    2    0    0  0.20441280912E+03  0.13100704970E+03  0.32202138731E+03  0.42222057918E+03  0.12500000000E+03 0.  0.
          4    1    1    2  501    0 -0.29563960830E+02 -0.44308982477E+02  0.38259283066E+03  0.38628304102E+03  0.00000000000E+00 0.  1.
         -4    1    1    2    0  502 -0.17484884829E+03 -0.86698067219E+02  0.39889814475E+03  0.44408152911E+03  0.00000000000E+00 0. -1.
<mgrwt>
<rscale>  4 0.25315068E+03</rscale>
<asrwt>0</asrwt>
<pdfrwt beam="1">  1       21 0.18123826E+00 0.25315068E+03</pdfrwt>
<pdfrwt beam="2">  1       21 0.11467138E-01 0.25315068E+03</pdfrwt>
<totfact> 0.10878858E+04</totfact>
</mgrwt>
</event>
<event>
 5    0  0.1972558E-002  0.2431297E+03  0.7546771E-02  0.1117725E+00
         21   -1    0    0  501  502  0.00000000000E+00  0.00000000000E+00  0.67052478883E+02  0.67052478883E+02  0.00000000000E+00 0.  1.
         21   -1    0    0  502  503 -0.00000000000E+00 -0.00000000000E+00 -0.28444447644E+04  0.28444447644E+04  0.00000000000E+00 0.  1.
         25    1    1    2    0    0 -0.40492146089E+02  0.20784544337E+03 -0.25581998781E+04  0.25699904588E+04  0.12500000000E+03 0.  0.
          1    1    1    2  501    0  0.32521641109E+02 -0.18782864577E+03 -0.24335983435E+03  0.30912985344E+03  0.00000000000E+00 0.  1.
         -1    1    1    2    0  503  0.79705049794E+01 -0.20016797605E+02  0.24167426939E+02  0.32376930997E+02  0.00000000000E+00 0. -1.
<mgrwt>
<rscale>  4 0.24312967E+03</rscale>
<asrwt>0</asrwt>
<pdfrwt beam="1">  1       21 0.10315765E-01 0.24312967E+03</pdfrwt>
<pdfrwt beam="2">  1       21 0.43760691E+00 0.24312967E+03</pdfrwt>
<totfact> 0.35713270E+02</totfact>
</mgrwt>
</event>
<event>
 5    0  0.1972558E-002  0.4178079E+03  0.7546771E-02  0.1037782E+00
         21   -1    0    0  501  502  0.00000000000E+00  0.00000000000E+00  0.11731683350E+04  0.11731683350E+04  0.00000000000E+00 0.  1.
         21   -1    0    0  502  503 -0.00000000000E+00 -0.00000000000E+00 -0.17001976216E+03  0.17001976216E+03  0.00000000000E+00 0.  1.
         25    1    1    2    0    0 -0.39381033323E+03  0.62063318979E+02  0.26062669370E+03  0.49243243962E+03  0.12500000000E+03 0.  0.
          4    1    1    2  501    0  0.32412243401E+03 -0.81685556612E+02  0.66740284380E+03  0.74642778506E+03  0.00000000000E+00 0.  1.
         -4    1    1    2    0  503  0.69687899216E+02  0.19622237634E+02  0.75119035333E+02  0.10432787248E+03  0.00000000000E+00 0. -1.
<mgrwt>
<rscale>  4 0.41780789E+03</rscale>
<asrwt>0</asrwt>
<pdfrwt beam="1">  1       21 0.18048743E+00 0.41780789E+03</pdfrwt>
<pdfrwt beam="2">  1       21 0.26156887E-01 0.41780789E+03</pdfrwt>
<totfact> 0.21643638E+03</totfact>
</mgrwt>
</event>
<event>
 5    0  0.1972558E-002  0.2692025E+03  0.7546771E-02  0.1101737E+00
         21   -1    0    0  501  502  0.00000000000E+00  0.00000000000E+00  0.20205585747E+03  0.20205585747E+03  0.00000000000E+00 0. -1.
         21   -1    0    0  502  503 -0.00000000000E+00 -0.00000000000E+00 -0.82542573316E+03  0.82542573316E+03  0.00000000000E+00 0.  1.
         25    1    1    2    0    0  0.15308086732E+03 -0.19415661940E+03 -0.66766887146E+03  0.72286739220E+03  0.12500000000E+03 0.  0.
          1    1    1    2  501    0 -0.17270512503E+02  0.33405608101E+02  0.82561967781E+02  0.90723116011E+02  0.00000000000E+00 0. -1.
         -1    1    1    2    0  503 -0.13581035482E+03  0.16075101130E+03 -0.38262972007E+02  0.21389108242E+03  0.00000000000E+00 0.  1.
<mgrwt>
<rscale>  4 0.26920247E+03</rscale>
<asrwt>0</asrwt>
<pdfrwt beam="1">  1       21 0.31085517E-01 0.26920247E+03</pdfrwt>
<pdfrwt beam="2">  1       21 0.12698857E+00 0.26920247E+03</pdfrwt>
<totfact> 0.43143193E+03</totfact>
</mgrwt>
</event>
<event>
 5    0  0.1972558E-002  0.3287024E+03  0.7546771E-02  0.1071712E+00
         21   -1    0    0  501  502  0.00000000000E+00  0.00000000000E+00  0.13310574071E+04  0.13310574071E+04  0.00000000000E+00 0.  1.
         21   -1    0    0  502  503 -0.00000000000E+00 -0.00000000000E+00 -0.64127396538E+03  0.64127396538E+03  0.00000000000E+00 0. -1.
         25    1    1    2    0    0  0.43936876455E+02  0.28394134945E+03 -0.35952357885E+03  0.47690181672E+03  0.12500000000E+03 0.  0.
          2    1    1    2  501    0 -0.16152836981E+02  0.56913806315E+02  0.11400704650E+04  0.11416044677E+04  0.00000000000E+00 0.  1.
         -2    1    1    2    0  503 -0.27784039474E+02 -0.34085515577E+03 -0.90763444470E+02  0.35382508802E+03  0.00000000000E+00 0. -1.
<mgrwt>
<rscale>  4 0.32870243E+03</rscale>
<asrwt>0</asrwt>
<pdfrwt beam="1">  1       21 0.20477806E+00 0.32870243E+03</pdfrwt>
<pdfrwt beam="2">  1       21 0.98657533E-01 0.32870243E+03</pdfrwt>
<totfact> 0.91413178E+01</totfact>
</mgrwt>
</event>
<event>
 5    0  0.1972558E-002  0.2503401E+03  0.7546771E-02  0.1113090E+00
         21   -1    0    0  501  502  0.00000000000E+00  0.00000000000E+00  0.30635825059E+03  0.30635825059E+03  0.00000000000E+00 0.  1.
         21   -1    0    0  502  503 -0.00000000000E+00 -0.00000000000E+00 -0.34098822175E+03  0.34098822175E+03  0.00000000000E+00 0. -1.
         25    1    1    2    0    0 -0.21638380243E+03  0.14940601821E+02 -0.22320269241E+03  0.33539471289E+03  0.12500000000E+03 0.  0.
          4    1    1    2  501    0  0.88940752979E+02 -0.64671372209E+02  0.65888683523E+02  0.12819579767E+03  0.00000000000E+00 0. -1.
         -4    1    1    2    0  503  0.12744304945E+03  0.49730770387E+02  0.12268403772E+03  0.18375596178E+03  0.00000000000E+00 0.  1.
<mgrwt>
<rscale>  4 0.25034011E+03</rscale>
<asrwt>0</asrwt>
<pdfrwt beam="1">  1       21 0.47132039E-01 0.25034011E+03</pdfrwt>
<pdfrwt beam="2">  1       21 0.52459726E-01 0.25034011E+03</pdfrwt>
<totfact> 0.14354748E+04</totfact>
</mgrwt>
</event>
<event>
 5    0  0.1972558E-002  0.3727105E+03  0.7546771E-02  0.1053661E+00
         21   -1    0    0  501  502  0.00000000000E+00  0.00000000000E+00  0.21925568749E+04  0.21925568749E+04  0.00000000000E+00 0.  1.
         21   -1    0    0  502  503 -0.00000000000E+00 -0.00000000000E+00 -0.14847405174E+03  0.14847405174E+03  0.00000000000E+00 0. -1.
         25    1    1    2    0    0 -0.14274241410E+03  0.31626360003E+03  0.18339357553E+03  0.41189351176E+03  0.12500000000E+03 0.  0.
          2    1    1    2  501    0  0.21209892497E+02  0.28840423946E+02  0.90648847015E+03  0.90719511469E+03  0.00000000000E+00 0. -1.
         -2    1    1    2    0  503  0.12153252161E+03 -0.34510402397E+03  0.95420077752E+03  0.10219423002E+04  0.00000000000E+00 0.  1.
<mgrwt>
<rscale>  4 0.37271048E+03</rscale>
<asrwt>0</asrwt>
<pdfrwt beam="1">  1       21 0.33731642E+00 0.37271048E+03</pdfrwt>
<pdfrwt beam="2">  1       21 0.22842164E-01 0.37271048E+03</pdfrwt>
<totfact> 0.30705932E+02</totfact>
</mgrwt>
</event>
<event>
 5    0  0.1972558E-002  0.2982314E+03  0.7546771E-02  0.1086128E+00
         21   -1    0    0  501  502  0.00000000000E+00  0.00000000000E+00  0.16457254183E+03  0.16457254183E+03  0.00000000000E+00 0.  1.
         21   -1    0    0  502  503 -0.00000000000E+00 -0.00000000000E+00 -0.64471082316E+03  0.64471082316E+03  0.00000000000E+00 0.  1.
         25    1    1    2    0    0 -0.13192374463E+03  0.23535735009E+03 -0.17482900600E+03  0.34494512313E+03  0.12500000000E+03 0.  0.
          2    1    1    2  501    0  0.49315495721E+02  0.26490280096E+02 -0.12191734436E+03  0.13415510394E+03  0.00000000000E+00 0. -1.
         -2    1    1    2    0  503  0.82608248911E+02 -0.26184763018E+03 -0.18339193097E+03  0.33018313792E+03  0.00000000000E+00 0.  1.
<mgrwt>
<rscale>  4 0.29823144E+03</rscale>
<asrwt>0</asrwt>
<pdfrwt beam="1">  1       21 0.25318853E-01 0.29823144E+03</pdfrwt>
<pdfrwt beam="2">  1       21 0.99186279E-01 0.29823144E+03</pdfrwt>
<totfact> 0.11660726E+04</totfact>
</mgrwt>
</event>
<event>
 5    0  0.1972558E-002  0.2217710E+03  0.7546771E-02  0.1132570E+00
         21   -1    0    0  501  502  0.00000000000E+00  0.00000000000E+00  0.89035354725E+02  0.89035354725E+02  0.00000000000E+00 0. -1.
         21   -1    0    0  502  503 -0.00000000000E+00 -0.00000000000E+00 -0.73144015955E+03  0.73144015955E+03  0.00000000000E+00 0. -1.
         25    1    1    2    0    0  0.27451297780E+01  0.20288272533E+03 -0.29676740315E+03  0.38061112378E+03  0.12500000000E+03 0.  0.
          4    1    1    2  501    0 -0.68835918812E+01 -0.28953172909E+02  0.19373854495E+02  0.35510791271E+02  0.00000000000E+00 0.  1.
         -4    1    1    2    0  503  0.41384621031E+01 -0.17392955242E+03 -0.36501125616E+03  0.40435359922E+03  0.00000000000E+00 0. -1.
<mgrwt>
<rscale>  4 0.22177098E+03</rscale>
<asrwt>0</asrwt>
<pdfrwt beam="1">  1       21 0.13697747E-01 0.22177098E+03</pdfrwt>
<pdfrwt beam="2">  1       21 0.11252926E+00 0.22177098E+03</pdfrwt>
<totfact> 0.28117622E+04</totfact>
</mgrwt>
</event>
<event>
 5    0  0.1972558E-002  0.2883461E+03  0.7546771E-02  0.1091216E+00
         21   -1    0    0  501  502  0.00000000000E+00  0.00000000000E+00  0.54077512768E+03  0.54077512768E+03  0.00000000000E+00 0.  1.
         21   -1    0    0  502  503 -0.00000000000E+00 -0.00000000000E+00 -0.35433545534E+03  0.35433545534E+03  0.00000000000E+00 0. -1.
         25    1    1    2    0    0  0.26481800798E+03 -0.15949174779E+02 -0.24322221085E+03  0.38100524587E+03  0.12500000000E+03 0.  0.
          3    1    1    2  501    0 -0.23168428102E+03  0.26267691776E+02  0.30044095118E+03  0.38030561769E+03  0.00000000000E+00 0.  1.
         -3    1    1    2    0  503 -0.33133726957E+02 -0.10318516997E+02  0.12922093202E+03  0.13379971946E+03  0.00000000000E+00 0. -1.
<mgrwt>
<rscale>  4 0.28834613E+03</rscale>
<asrwt>0</asrwt>
<pdfrwt beam="1">  1       21 0.83196173E-01 0.28834613E+03</pdfrwt>
<pdfrwt beam="2">  1       21 0.54513147E-01 0.28834613E+03</pdfrwt>
<totfact> 0.37473597E+03</totfact>
</mgrwt>
</event>
<event>
 5    0  0.1972558E-002  0.2357970E+03  0.7546771E-02  0.1122625E+00
         21   -1    0    0  501  502  0.00000000000E+00  0.00000000000E+00  0.45089553280E+03  0.45089553280E+03  0.00000000000E+00 0.  1.
         21   -1    0    0  502  503 -0.00000000000E+00 -0.00000000000E+00 -0.66173715393E+03  0.66173715393E+03  0.00000000000E+00 0. -1.
         25    1    1    2    0    0  0.20283133757E+03  0.59302509236E+01 -0.60788291922E+03  0.65293365885E+03  0.12500000000E+03 0.  0.
          4    1    1    2  501    0 -0.16827027764E+03 -0.71625568255E+01  0.20857124117E+03  0.26808235899E+03  0.00000000000E+00 0.  1.
         -4    1    1    2    0  503 -0.34561059928E+02  0.12323059019E+01  0.18847005693E+03  0.19161666890E+03  0.00000000000E+00 0. -1.
<mgrwt>
<rscale>  4 0.23579699E+03</rscale>
<asrwt>0</asrwt>
<pdfrwt beam="1">  1       21 0.69368543E-01 0.23579699E+03</pdfrwt>
<pdfrwt beam="2">  1       21 0.10180572E+00 0.23579699E+03</pdfrwt>
<totfact> 0.14312859E+03</totfact>
</mgrwt>
</event>
<event>
 5    0  0.1972558E-002  0.3068379E+03  0.7546771E-02  0.1081871E+00
         21   -1    0    0  503  502  0.00000000000E+00  0.00000000000E+00  0.41938292281E+03  0.41938292281E+03  0.00000000000E+00 0.  1.
         21   -1    0    0  501  503 -0.00000000000E+00 -0.00000000000E+00 -0.64920254746E+03  0.64920254746E+03  0.00000000000E+00 0. -1.
         25    1    1    2    0    0  0.16846107536E+03 -0.22464309122E+03 -0.32684095577E+03  0.44865762304E+03  0.12500000000E+03 0.  0.
          1    1    1    2  501    0  0.38172088155E+02  0.34606790093E+02 -0.20277009472E+03  0.20921388470E+03  0.00000000000E+00 0. -1.
         -1    1    1    2    0  502 -0.20663316351E+03  0.19003630113E+03  0.29979142585E+03  0.41071396254E+03  0.00000000000E+00 0.  1.
<mgrwt>
<rscale>  4 0.30683792E+03</rscale>
<asrwt>0</asrwt>
<pdfrwt beam="1">  1       21 0.64520450E-01 0.30683792E+03</pdfrwt>
<pdfrwt beam="2">  1       21 0.99877315E-01 0.30683792E+03</pdfrwt>
<totfact> 0.16753108E+03</totfact>
</mgrwt>
</event>
<event>
 5    0  0.1972558E-002  0.7587245E+03  0.7546771E-02  0.9621762E-01
         21   -1    0    0  501  502  0.00000000000E+00  0.00000000000E+00  0.60839349459E+03  0.60839349459E+03  0.00000000000E+00 0.  1.
         21   -1    0    0  502  503 -0.00000000000E+00 -0.00000000000E+00 -0.12455840288E+04  0.12455840288E+04  0.00000000000E+00 0.  1.
         25    1    1    2    0    0 -0.75968132037E+03  0.62183661532E+02 -0.10772077320E+03  0.77987901707E+03  0.12500000000E+03 0.  0.
          3    1    1    2  501    0  0.21242965462E+02  0.26900375427E+01  0.99596392860E+02  0.10187218145E+03  0.00000000000E+00 0. -1.
         -3    1    1    2    0  503  0.73843835491E+03 -0.64873699074E+02 -0.62906615388E+03  0.97222632488E+03  0.00000000000E+00 0.  1.
<mgrwt>
<rscale>  4 0.75872447E+03</rscale>
<asrwt>0</asrwt>
<pdfrwt beam="1">  1       21 0.93599001E-01 0.75872447E+03</pdfrwt>
<pdfrwt beam="2">  1       21 0.19162831E+00 0.75872447E+03</pdfrwt>
<totfact> 0.10264204E+02</totfact>
</mgrwt>
</event>
<event>
 5    0  0.1972558E-002  0.2619093E+03  0.7546771E-02  0.1106002E+00
         21   -1    0    0  501  502  0.00000000000E+00  0.00000000000E+00  0.79693473953E+02  0.79693473953E+02  0.00000000000E+00 0.  1.
         21   -1    0    0  502  503 -0.00000000000E+00 -0.00000000000E+00 -0.13692419757E+04  0.13692419757E+04  0.00000000000E+00 0.  1.
         25    1    1    2    0    0  0.18180738773E+03 -0.17065037328E+03 -0.92973339611E+03  0.97067227423E+03  0.12500000000E+03 0.  0.
          2    1    1    2  501    0 -0.12494846288E+03  0.16444086607E+03 -0.36649260548E+03  0.42067772306E+03  0.00000000000E+00 0.  1.
         -2    1    1    2    0  503 -0.56858924850E+02  0.62095072095E+01  0.66774998696E+01  0.57585452324E+02  0.00000000000E+00 0. -1.
<mgrwt>
<rscale>  4 0.26190927E+03</rscale>
<asrwt>0</asrwt>
<pdfrwt beam="1">  1       21 0.12260534E-01 0.26190927E+03</pdfrwt>
<pdfrwt beam="2">  1       21 0.21065261E+00 0.26190927E+03</pdfrwt>
<totfact> 0.61395992E+03</totfact>
</mgrwt>
</event>
<event>
 5    0  0.1972558E-002  0.4059096E+03  0.7546771E-02  0.1041752E+00
         21   -1    0    0  501  502  0.00000000000E+00  0.00000000000E+00  0.45422767530E+03  0.45422767530E+03  0.00000000000E+00 0. -1.
         21   -1    0    0  502  503 -0.00000000000E+00 -0.00000000000E+00 -0.74844226001E+03  0.74844226001E+03  0.00000000000E+00 0. -1.
         25    1    1    2    0    0 -0.30777981242E+03  0.25147037524E+03 -0.46072942906E+03  0.62117821063E+03  0.12500000000E+03 0.  0.
          3    1    1    2  501    0 -0.51005596867E+01 -0.62393384257E+02  0.20457784956E+03  0.21394168981E+03  0.00000000000E+00 0. -1.
         -3    1    1    2    0  503  0.31288037211E+03 -0.18907699098E+03 -0.38063005205E+02  0.36755003487E+03  0.00000000000E+00 0.  1.
<mgrwt>
<rscale>  4 0.40590961E+03</rscale>
<asrwt>0</asrwt>
<pdfrwt beam="1">  1       21 0.69881182E-01 0.40590961E+03</pdfrwt>
<pdfrwt beam="2">  1       21 0.11514496E+00 0.40590961E+03</pdfrwt>
<totfact> 0.93957520E+02</totfact>
</mgrwt>
</event>
<event>
 5    0  0.1972558E-002  0.2697010E+03  0.7546771E-02  0.1101451E+00
         21   -1    0    0  501  502  0.00000000000E+00  0.00000000000E+00  0.30162857917E+03  0.30162857917E+03  0.00000000000E+00 0. -1.
         21   -1    0    0  502  503 -0.00000000000E+00 -0.00000000000E+00 -0.32352862132E+03  0.32352862132E+03  0.00000000000E+00 0.  1.
         25    1    1    2    0    0  0.51528724333E+02  0.23336332098E+03 -0.18986085529E+03  0.32982691428E+03  0.12500000000E+03 0.  0.
          3    1    1    2  501    0 -0.89998527957E+01 -0.30274214023E+02  0.42162253056E+02  0.52679986407E+02  0.00000000000E+00 0.  1.
         -3    1    1    2    0  503 -0.42528871537E+02 -0.20308910696E+03  0.12579856009E+03  0.24265029981E+03  0.00000000000E+00 0. -1.
<mgrwt>
<rscale>  4 0.26970104E+03</rscale>
<asrwt>0</asrwt>
<pdfrwt beam="1">  1       21 0.46404397E-01 0.26970104E+03</pdfrwt>
<pdfrwt beam="2">  1       21 0.49773634E-01 0.26970104E+03</pdfrwt>
<totfact> 0.16408415E+04</totfact>
</mgrwt>
</event>
<event>
 5    0  0.1972558E-002  0.3790113E+03  0.7546771E-02  0.1051300E+00
         21   -1    0    0  501  502  0.00000000000E+00  0.00000000000E+00  0.81196004713E+03  0.81196004713E+03  0.00000000000E+00 0.  1.
         21   -1    0    0  502  503 -0.00000000000E+00 -0.00000000000E+00 -0.27982779572E+03  0.27982779572E+03  0.00000000000E+00 0. -1.
         25    1    1    2    0    0  0.79652863066E+00  0.38770515516E+03  0.41775900816E+02  0.40949499103E+03  0.12500000000E+03 0.  0.
          4    1    1    2  501    0  0.12229106708E+03 -0.29793308932E+03  0.33008616945E+03  0.46116820148E+03  0.00000000000E+00 0.  1.
         -4    1    1    2    0  503 -0.12308759571E+03 -0.89772065838E+02  0.16027018115E+03  0.22112465034E+03  0.00000000000E+00 0. -1.
<mgrwt>
<rscale>  4 0.37901130E+03</rscale>
<asrwt>0</asrwt>
<pdfrwt beam="1">  1       21 0.12491693E+00 0.37901130E+03</pdfrwt>
<pdfrwt beam="2">  1       21 0.43050431E-01 0.37901130E+03</pdfrwt>
<totfact> 0.21990115E+03</totfact>
</mgrwt>
</event>
<event>
 5    0  0.1972558E-002  0.3065769E+03  0.7546771E-02  0.1081998E+00
         21   -1    0    0  501  502  0.00000000000E+00  0.00000000000E+00  0.50520957537E+03  0.50520957537E+03  0.00000000000E+00 0.  1.
         21   -1    0    0  502  503 -0.00000000000E+00 -0.00000000000E+00 -0.50927081774E+03  0.50927081774E+03  0.00000000000E+00 0. -1.
         25    1    1    2    0    0 -0.24792262408E+03  0.16349694606E+03 -0.37877470337E+03  0.49728478241E+03  0.12500000000E+03 0.  0.
          1    1    1    2  501    0  0.10271395570E+03 -0.68991329275E+02  0.24024824586E+02  0.12604424781E+03  0.00000000000E+00 0. -1.
         -1    1    1    2    0  503  0.14520866839E+03 -0.94505616786E+02  0.35068863642E+03  0.39115136289E+03  0.00000000000E+00 0.  1.
<mgrwt>
<rscale>  4 0.30657690E+03</rscale>
<asrwt>0</asrwt>
<pdfrwt beam="1">  1       21 0.77724550E-01 0.30657690E+03</pdfrwt>
<pdfrwt beam="2">  1       21 0.78349356E-01 0.30657690E+03</pdfrwt>
<totfact> 0.19486243E+03</totfact>
</mgrwt>
</event>
<event>
 5    0  0.1972558E-002  0.2583966E+03  0.7546771E-02  0.1108110E+00
         21   -1    0    0  503  502  0.00000000000E+00  0.00000000000E+00  0.53899219270E+03  0.53899219270E+03  0.00000000000E+00 0. -1.
         21   -1    0    0  501  503 -0.00000000000E+00 -0.00000000000E+00 -0.14416959917E+03  0.14416959917E+03  0.00000000000E+00 0.  1.
         25    1    1    2    0    0 -0.13652512769E+03  0.18029064009E+03  0.63436216598E+02  0.26606950027E+03  0.12500000000E+03 0.  0.
          2    1    1    2  501    0  0.87895062436E+01 -0.95872399220E+02  0.16457130789E+03  0.19066328365E+03  0.00000000000E+00 0. -1.
         -2    1    1    2    0  502  0.12773562145E+03 -0.84418240872E+02  0.16681506905E+03  0.22642900795E+03  0.00000000000E+00 0.  1.
<mgrwt>
<rscale>  4 0.25839664E+03</rscale>
<asrwt>0</asrwt>
<pdfrwt beam="1">  1       21 0.82921875E-01 0.25839664E+03</pdfrwt>
<pdfrwt beam="2">  1       21 0.22179939E-01 0.25839664E+03</pdfrwt>
<totfact> 0.23278665E+04</totfact>
</mgrwt>
</event>
<event>
 5    0  0.1972558E-002  0.2473347E+03  0.7546771E-02  0.1115001E+00
         21   -1    0    0  501  502  0.00000000000E+00  0.00000000000E+00  0.15833365563E+03  0.15833365563E+03  0.00000000000E+00 0. -1.
         21   -1    0    0  502  503 -0.00000000000E+00 -0.00000000000E+00 -0.74373855989E+03  0.74373855989E+03  0.00000000000E+00 0. -1.
         25    1    1    2    0    0 -0.20420270191E+03  0.73437827653E+02 -0.60962157837E+03  0.65905639122E+03  0.12500000000E+03 0.  0.
          2    1    1    2  501    0  0.30424862471E+02  0.26646690938E+02  0.11629351845E+02  0.42082778172E+02  0.00000000000E+00 0.  1.
         -2    1    1    2    0  503  0.17377783944E+03 -0.10008451859E+03  0.12587322266E+02  0.20093304612E+03  0.00000000000E+00 0. -1.
<mgrwt>
<rscale>  4 0.24733469E+03</rscale>
<asrwt>0</asrwt>
<pdfrwt beam="1">  1       21 0.24359024E-01 0.24733469E+03</pdfrwt>
<pdfrwt beam="2">  1       21 0.11442132E+00 0.24733469E+03</pdfrwt>
<totfact> 0.91103454E+03</totfact>
</mgrwt>
</event>
<event>
 5    0  0.1972558E-002  0.3571593E+03  0.7546771E-02  0.1059714E+00
         21   -1    0    0  501  502  0.00000000000E+00  0.00000000000E+00  0.21072550032E+04  0.21072550032E+04  0.00000000000E+00 0. -1.
         21   -1    0    0  502  503 -0.00000000000E+00 -0.00000000000E+00 -0.29231845857E+03  0.29231845857E+03  0.00000000000E+00 0.  1.
         25    1    1    2    0    0 -0.12857077876E+03  0.31223421217E+03 -0.14181966860E+03  0.38698639098E+03  0.12500000000E+03 0.  0.
          1    1    1    2  501    0  0.94003324505E+02 -0.29869869205E+03  0.86056173173E+03  0.91576417695E+03  0.00000000000E+00 0.  1.
         -1    1    1    2    0  503  0.34567454254E+02 -0.13535520117E+02  0.10961944815E+04  0.10968228939E+04  0.00000000000E+00 0. -1.
<mgrwt>
<rscale>  4 0.35715931E+03</rscale>
<asrwt>0</asrwt>
<pdfrwt beam="1">  1       21 0.32419307E+00 0.35715931E+03</pdfrwt>
<pdfrwt beam="2">  1       21 0.44972072E-01 0.35715931E+03</pdfrwt>
<totfact> 0.96442511E+01</totfact>
</mgrwt>
</event>
<event>
 5    0  0.1972558E-002  0.2295797E+03  0.7546771E-02  0.1126936E+00
         21   -1    0    0  501  502  0.00000000000E+00  0.00000000000E+00  0.85878341604E+03  0.85878341604E+03  0.00000000000E+00 0. -1.
         21   -1    0    0  502  503 -0.00000000000E+00 -0.00000000000E+00 -0.42233139765E+03  0.42233139765E+03  0.00000000000E+00 0. -1.
         25    1    1    2    0    0 -0.26665168231E+02  0.19991095058E+03 -0.36884535222E+03  0.43857418211E+03  0.12500000000E+03 0.  0.
          1    1    1    2  501    0  0.23107673092E+02 -0.72638822066E+02  0.56937210239E+03  0.57445187266E+03  0.00000000000E+00 0. -1.
         -1    1    1    2    0  503  0.35574951390E+01 -0.12727212851E+03  0.23592526822E+03  0.26808875891E+03  0.00000000000E+00 0.  1.
<mgrwt>
<rscale>  4 0.22957968E+03</rscale>
<asrwt>0</asrwt>
<pdfrwt beam="1">  1       21 0.13212052E+00 0.22957968E+03</pdfrwt>
<pdfrwt beam="2">  1       21 0.64974062E-01 0.22957968E+03</pdfrwt>
<totfact> 0.87296984E+02</totfact>
</mgrwt>
</event>
<event>
 5    0  0.1972558E-002  0.2220077E+03  0.7546771E-02  0.1132395E+00
         21   -1    0    0  501  502  0.00000000000E+00  0.00000000000E+00  0.16033435057E+04  0.16033435057E+04  0.00000000000E+00 0. -1.
         21   -1    0    0  502  503 -0.00000000000E+00 -0.00000000000E+00 -0.89440618028E+02  0.89440618028E+02  0.00000000000E+00 0.  1.
         25    1    1    2    0    0  0.20474602812E+03  0.46374227212E+02  0.22265237817E+03  0.33056101779E+03  0.12500000000E+03 0.  0.
          4    1    1    2  501    0 -0.69243246704E+02  0.57117792785E+02  0.11090867169E+04  0.11127130874E+04  0.00000000000E+00 0. -1.
         -4    1    1    2    0  503 -0.13550278141E+03 -0.10349202000E+03  0.18216379263E+03  0.24951001847E+03  0.00000000000E+00 0.  1.
<mgrwt>
<rscale>  4 0.22200773E+03</rscale>
<asrwt>0</asrwt>
<pdfrwt beam="1">  1       21 0.24666821E+00 0.22200773E+03</pdfrwt>
<pdfrwt beam="2">  1       21 0.13760096E-01 0.22200773E+03</pdfrwt>
<totfact> 0.30965551E+03</totfact>
</mgrwt>
</event>
<event>
 5    0  0.1972558E-002  0.3780243E+03  0.7546771E-02  0.1051666E+00
         21   -1    0    0  501  502  0.00000000000E+00  0.00000000000E+00  0.23193340127E+03  0.23193340127E+03  0.00000000000E+00 0. -1.
         21   -1    0    0  502  503 -0.00000000000E+00 -0.00000000000E+00 -0.25427066479E+04  0.25427066479E+04  0.00000000000E+00 0. -1.
         25    1    1    2    0    0 -0.30643150402E+03  0.15103116811E+03 -0.18918100905E+04  0.19264685564E+04  0.12500000000E+03 0.  0.
          1    1    1    2  501    0 -0.54574881815E+02  0.62641578214E+02  0.13182492003E+03  0.15582103384E+03  0.00000000000E+00 0.  1.
         -1    1    1    2    0  503  0.36100638583E+03 -0.21367274632E+03 -0.55078807621E+03  0.69235045896E+03  0.00000000000E+00 0. -1.
<mgrwt>
<rscale>  4 0.37802425E+03</rscale>
<asrwt>0</asrwt>
<pdfrwt beam="1">  1       21 0.35682061E-01 0.37802425E+03</pdfrwt>
<pdfrwt beam="2">  1       21 0.39118565E+00 0.37802425E+03</pdfrwt>
<totfact> 0.59124929E+01</totfact>
</mgrwt>
</event>
<event>
 5    0  0.1972558E-002  0.2404733E+03  0.7546771E-02  0.1119478E+00
         21   -1    0    0  503  502  0.00000000000E+00  0.00000000000E+00  0.17095416739E+04  0.17095416739E+04  0.00000000000E+00 0. -1.
         21   -1    0    0  501  503 -0.00000000000E+00 -0.00000000000E+00 -0.54330107359E+02  0.54330107359E+02  0.00000000000E+00 0. -1.
         25    1    1    2    0    0 -0.19727521983E+03 -0.10030064242E+03  0.34473667281E+03  0.42830608776E+03  0.12500000000E+03 0.  0.
          4    1    1    2  501    0  0.30386777596E+02  0.37923846725E+02  0.63936263204E+03  0.64120679165E+03  0.00000000000E+00 0.  1.
         -4    1    1    2    0  502  0.16688844224E+03  0.62376795695E+02  0.67111226165E+03  0.69435890181E+03  0.00000000000E+00 0. -1.
<mgrwt>
<rscale>  4 0.24047327E+03</rscale>
<asrwt>0</asrwt>
<pdfrwt beam="1">  1       21 0.26300637E+00 0.24047327E+03</pdfrwt>
<pdfrwt beam="2">  1       21 0.83584794E-02 0.24047327E+03</pdfrwt>
<totfact> 0.59288282E+03</totfact>
</mgrwt>
</event>
<event>
 5    0  0.1972558E-002  0.2416083E+03  0.7546771E-02  0.1118726E+00
         21   -1    0    0  501  502  0.00000000000E+00  0.00000000000E+00  0.37324063102E+03  0.37324063102E+03  0.00000000000E+00 0. -1.
         21   -1    0    0  502  503 -0.00000000000E+00 -0.00000000000E+00 -0.96267789302E+03  0.96267789302E+03  0.00000000000E+00 0.  1.
         25    1    1    2    0    0  0.17301746164E+03  0.12008464926E+03 -0.89174313424E+03  0.92476277092E+03  0.12500000000E+03 0.  0.
          2    1    1    2  501    0 -0.58943617267E+02  0.13908941929E+02  0.19695484813E+03  0.20605586835E+03  0.00000000000E+00 0.  1.
         -2    1    1    2    0  503 -0.11407384437E+03 -0.13399359119E+03  0.10535102411E+03  0.20509988476E+03  0.00000000000E+00 0. -1.
<mgrwt>
<rscale>  4 0.24160831E+03</rscale>
<asrwt>0</asrwt>
<pdfrwt beam="1">  1       21 0.57421636E-01 0.24160831E+03</pdfrwt>
<pdfrwt beam="2">  1       21 0.14810429E+00 0.24160831E+03</pdfrwt>
<totfact> 0.83892459E+02</totfact>
</mgrwt>
</event>
<event>
 5    0  0.1972558E-002  0.3069174E+03  0.7546771E-02  0.1081833E+00
         21   -1    0    0  501  502  0.00000000000E+00  0.00000000000E+00  0.53650847859E+03  0.53650847859E+03  0.00000000000E+00 0. -1.
         21   -1    0    0  502  503 -0.00000000000E+00 -0.00000000000E+00 -0.34957016972E+03  0.34957016972E+03  0.00000000000E+00 0. -1.
         25    1    1    2    0    0  0.18394503891E+03 -0.20742906444E+03 -0.18249111557E+03  0.35466970744E+03  0.12500000000E+03 0.  0.
          1    1    1    2  501    0  0.33980696090E+02  0.13949843871E+02  0.18028215433E+03  0.18398625226E+03  0.00000000000E+00 0.  1.
         -1    1    1    2    0  503 -0.21792573500E+03  0.19347922057E+03  0.18914727011E+03  0.34742268861E+03  0.00000000000E+00 0. -1.
<mgrwt>
<rscale>  4 0.30691736E+03</rscale>
<asrwt>0</asrwt>
<pdfrwt beam="1">  1       21 0.82539766E-01 0.30691736E+03</pdfrwt>
<pdfrwt beam="2">  1       21 0.53780026E-01 0.30691736E+03</pdfrwt>
<totfact> 0.38895122E+03</totfact>
</mgrwt>
</event>
<event>
 5    0  0.1972558E-002  0.2838592E+03  0.7546771E-02  0.1093600E+00
         21   -1    0    0  501  502  0.00000000000E+00  0.00000000000E+00  0.21864665925E+04  0.21864665925E+04  0.00000000000E+00 0. -1.
         21   -1    0    0  502  503 -0.00000000000E+00 -0.00000000000E+00 -0.80481623791E+02  0.80481623791E+02  0.00000000000E+00 0. -1.
         25    1    1    2    0    0  0.23644588339E+03  0.11277374702E+03  0.24198075819E+03  0.37789451057E+03  0.12500000000E+03 0.  0.
          1    1    1    2  501    0 -0.36268308257E+02  0.93917682359E+00  0.78137891496E+03  0.78222073673E+03  0.00000000000E+00 0.  1.
         -1    1    1    2    0  503 -0.20017757513E+03 -0.11371292384E+03  0.10826252955E+04  0.11068329689E+04  0.00000000000E+00 0. -1.
<mgrwt>
<rscale>  4 0.28385922E+03</rscale>
<asrwt>0</asrwt>
<pdfrwt beam="1">  1       21 0.33637943E+00 0.28385922E+03</pdfrwt>
<pdfrwt beam="2">  1       21 0.12381790E-01 0.28385922E+03</pdfrwt>
<totfact> 0.10487730E+03</totfact>
</mgrwt>
</event>
<event>
 5    0  0.1972558E-002  0.2325073E+03  0.7546771E-02  0.1124887E+00
         21   -1    0    0  501  502  0.00000000000E+00  0.00000000000E+00  0.86924387071E+02  0.86924387071E+02  0.00000000000E+00 0.  1.
         21   -1    0    0  502  503 -0.00000000000E+00 -0.00000000000E+00 -0.24983367221E+04  0.24983367221E+04  0.00000000000E+00 0. -1.
         25    1    1    2    0    0 -0.51584245466E+02  0.20324460724E+03 -0.20401226469E+04  0.20546763052E+04  0.12500000000E+03 0.  0.
          4    1    1    2  501    0  0.67566483611E+01 -0.42664344412E+02  0.56694023087E+02  0.71274896246E+02  0.00000000000E+00 0.  1.
         -4    1    1    2    0  503  0.44827597105E+02 -0.16058026283E+03 -0.42798371125E+03  0.45930990776E+03  0.00000000000E+00 0. -1.
<mgrwt>
<rscale>  4 0.23250732E+03</rscale>
<asrwt>0</asrwt>
<pdfrwt beam="1">  1       21 0.13372981E-01 0.23250732E+03</pdfrwt>
<pdfrwt beam="2">  1       21 0.38435955E+00 0.23250732E+03</pdfrwt>
<totfact> 0.49543939E+02</totfact>
</mgrwt>
</event>
<event>
 5    0  0.1972558E-002  0.2657352E+03  0.7546771E-02  0.1103746E+00
         21   -1    0    0  501  502  0.00000000000E+00  0.00000000000E+00  0.54560212656E+02  0.54560212656E+02  0.00000000000E+00 0. -1.
         21   -1    0    0  502  503 -0.00000000000E+00 -0.00000000000E+00 -0.24956146687E+04  0.24956146687E+04  0.00000000000E+00 0. -1.
         25    1    1    2    0    0  0.11318713739E+03 -0.21279755103E+03 -0.20392752597E+04  0.20572706946E+04  0.12500000000E+03 0.  0.
          1    1    1    2  501    0  0.37281129226E+01  0.31594136335E+02  0.52827005118E+01  0.32248956595E+02  0.00000000000E+00 0.  1.
         -1    1    1    2    0  503 -0.11691525031E+03  0.18120341469E+03 -0.40706189678E+03  0.46065523015E+03  0.00000000000E+00 0. -1.
<mgrwt>
<rscale>  4 0.26573519E+03</rscale>
<asrwt>0</asrwt>
<pdfrwt beam="1">  1       21 0.83938806E-02 0.26573519E+03</pdfrwt>
<pdfrwt beam="2">  1       21 0.38394064E+00 0.26573519E+03</pdfrwt>
<totfact> 0.11001323E+03</totfact>
</mgrwt>
</event>
<event>
 5    0  0.1972558E-002  0.2428358E+03  0.7546771E-02  0.1117918E+00
         21   -1    0    0  501  502  0.00000000000E+00  0.00000000000E+00  0.40339076535E+03  0.40339076535E+03  0.00000000000E+00 0.  1.
         21   -1    0    0  502  503 -0.00000000000E+00 -0.00000000000E+00 -0.22380658283E+03  0.22380658283E+03  0.00000000000E+00 0. -1.
         25    1    1    2    0    0  0.21339951581E+03  0.64409637620E+02 -0.27534717685E+02  0.25704302255E+03  0.12500000000E+03 0.  0.
          1    1    1    2  501    0 -0.19735994828E+03  0.11827189354E+02  0.65073574686E+02  0.20814754794E+03  0.00000000000E+00 0.  1.
         -1    1    1    2    0  503 -0.16039567526E+02 -0.76236826974E+02  0.14204532552E+03  0.16200677768E+03  0.00000000000E+00 0. -1.
<mgrwt>
<rscale>  4 0.24283585E+03</rscale>
<asrwt>0</asrwt>
<pdfrwt beam="1">  1       21 0.62060118E-01 0.24283585E+03</pdfrwt>
<pdfrwt beam="2">  1       21 0.34431782E-01 0.24283585E+03</pdfrwt>
<totfact> 0.19043305E+04</totfact>
</mgrwt>
</event>
<event>
 5    0  0.1972558E-002  0.3328184E+03  0.7546771E-02  0.1069897E+00
         21   -1    0    0  503  502  0.00000000000E+00  0.00000000000E+00  0.51794739260E+03  0.51794739260E+03  0.00000000000E+00 0. -1.
         21   -1    0    0  501  503 -0.00000000000E+00 -0.00000000000E+00 -0.20664769978E+03  0.20664769978E+03  0.00000000000E+00 0.  1.
         25    1    1    2    0    0 -0.30295685408E+03 -0.57967707733E+02  0.14227181889E+03  0.36195218058E+03  0.12500000000E+03 0.  0.
          2    1    1    2  501    0  0.27700932504E+02 -0.10904672283E+02  0.42692070719E+02  0.52046771672E+02  0.00000000000E+00 0.  1.
         -2    1    1    2    0  502  0.27525592158E+03  0.68872380016E+02  0.12633580321E+03  0.31059614013E+03  0.00000000000E+00 0. -1.
<mgrwt>
<rscale>  4 0.33281843E+03</rscale>
<asrwt>0</asrwt>
<pdfrwt beam="1">  1       21 0.79684214E-01 0.33281843E+03</pdfrwt>
<pdfrwt beam="2">  1       21 0.31791954E-01 0.33281843E+03</pdfrwt>
<totfact> 0.12282042E+04</totfact>
</mgrwt>
</event>
<event>
 5    0  0.1972558E-002  0.5327666E+03  0.7546771E-02  0.1005563E+00
         21   -1    0    0  501  502  0.00000000000E+00  0.00000000000E+00  0.79016132337E+03  0.79016132337E+03  0.00000000000E+00 0.  1.
         21   -1    0    0  502  503 -0.00000000000E+00 -0.00000000000E+00 -0.14383314776E+04  0.14383314776E+04  0.00000000000E+00 0. -1.
         25    1    1    2    0    0 -0.35842236042E+03  0.22445018012E+03 -0.52346597415E+03  0.68446044290E+03  0.12500000000E+03 0.  0.
          2    1    1    2  501    0 -0.25184248694E+03  0.11464666839E+03  0.52300829014E+03  0.59169770014E+03  0.00000000000E+00 0.  1.
         -2    1    1    2    0  503  0.61026484736E+03 -0.33909684851E+03 -0.64771247019E+03  0.95233465790E+03  0.00000000000E+00 0. -1.
<mgrwt>
<rscale>  4 0.53276658E+03</rscale>
<asrwt>0</asrwt>
<pdfrwt beam="1">  1       21 0.12156328E+00 0.53276658E+03</pdfrwt>
<pdfrwt beam="2">  1       21 0.22128176E+00 0.53276658E+03</pdfrwt>
<totfact> 0.37264112E+01</totfact>
</mgrwt>
</event>
<event>
 5    0  0.1972558E-002  0.3139302E+03  0.7546771E-02  0.1078477E+00
         21   -1    0    0  503  502  0.00000000000E+00  0.00000000000E+00  0.27616717027E+03  0.27616717027E+03  0.00000000000E+00 0. -1.
         21   -1    0    0  501  503 -0.00000000000E+00 -0.00000000000E+00 -0.45160547010E+03  0.45160547010E+03  0.00000000000E+00 0. -1.
         25    1    1    2    0    0 -0.17238437218E+03 -0.21024502880E+03 -0.86837302055E+02  0.31158475723E+03  0.12500000000E+03 0.  0.
          4    1    1    2  501    0 -0.51366194460E+02  0.61438797230E+01  0.59679876710E+02  0.78980509466E+02  0.00000000000E+00 0.  1.
         -4    1    1    2    0  502  0.22375056664E+03  0.20410114908E+03 -0.14828087448E+03  0.33720737368E+03  0.00000000000E+00 0. -1.
<mgrwt>
<rscale>  4 0.31393024E+03</rscale>
<asrwt>0</asrwt>
<pdfrwt beam="1">  1       21 0.42487257E-01 0.31393024E+03</pdfrwt>
<pdfrwt beam="2">  1       21 0.69477765E-01 0.31393024E+03</pdfrwt>
<totfact> 0.93858448E+03</totfact>
</mgrwt>
</event>
<event>
 5    0  0.1972558E-002  0.3024454E+03  0.7546771E-02  0.1084025E+00
         21   -1    0    0  503  502  0.00000000000E+00  0.00000000000E+00  0.60498098795E+03  0.60498098795E+03  0.00000000000E+00 0.  1.
         21   -1    0    0  501  503 -0.00000000000E+00 -0.00000000000E+00 -0.36730938228E+03  0.36730938228E+03  0.00000000000E+00 0.  1.
         25    1    1    2    0    0 -0.26036570720E+03  0.12130022270E+03 -0.21878264848E+03  0.38209278034E+03  0.12500000000E+03 0.  0.
          1    1    1    2  501    0  0.62827964206E+02  0.22903659839E+02  0.28189891048E+03  0.28972215388E+03  0.00000000000E+00 0.  1.
         -1    1    1    2    0  502  0.19753774299E+03 -0.14420388254E+03  0.17455534366E+03  0.30047543601E+03  0.00000000000E+00 0. -1.
<mgrwt>
<rscale>  4 0.30244543E+03</rscale>
<asrwt>0</asrwt>
<pdfrwt beam="1">  1       21 0.93073998E-01 0.30244543E+03</pdfrwt>
<pdfrwt beam="2">  1       21 0.56509136E-01 0.30244543E+03</pdfrwt>
<totfact> 0.26502995E+03</totfact>
</mgrwt>
</event>
<event>
 5    0  0.1972558E-002  0.2822987E+03  0.7546771E-02  0.1094440E+00
         21   -1    0    0  501  502  0.00000000000E+00  0.00000000000E+00  0.28734071334E+03  0.28734071334E+03  0.00000000000E+00 0. -1.
         21   -1    0    0  502  503 -0.00000000000E+00 -0.00000000000E+00 -0.62212111705E+03  0.62212111705E+03  0.00000000000E+00 0.  1.
         25    1    1    2    0    0 -0.26778926665E+03 -0.12875841514E+03 -0.41226331994E+03  0.52333150657E+03  0.12500000000E+03 0.  0.
          2    1    1    2  501    0  0.63194854426E+02 -0.96014429843E+01 -0.72907170848E+02  0.96959955107E+02  0.00000000000E+00 0.  1.
         -2    1    1    2    0  503  0.20459441222E+03  0.13835985813E+03  0.15039008707E+03  0.28917036872E+03  0.00000000000E+00 0. -1.
<mgrwt>
<rscale>  4 0.28229866E+03</rscale>
<asrwt>0</asrwt>
<pdfrwt beam="1">  1       21 0.44206264E-01 0.28229866E+03</pdfrwt>
<pdfrwt beam="2">  1       21 0.95710941E-01 0.28229866E+03</pdfrwt>
<totfact> 0.42084467E+03</totfact>
</mgrwt>
</event>
<event>
 5    0  0.1972558E-002  0.2510823E+03  0.7546771E-02  0.1112623E+00
         21   -1    0    0  501  502  0.00000000000E+00  0.00000000000E+00  0.10696496258E+03  0.10696496258E+03  0.00000000000E+00 0. -1.
         21   -1    0    0  502  503 -0.00000000000E+00 -0.00000000000E+00 -0.21026439716E+04  0.21026439716E+04  0.00000000000E+00 0.  1.
         25    1    1    2    0    0  0.75168348447E+02 -0.20771998863E+03 -0.18075733430E+04  0.18253066221E+04  0.12500000000E+03 0.  0.
          4    1    1    2  501    0 -0.18535431810E+02  0.10679746145E+02  0.59270360568E+02  0.63012656284E+02  0.00000000000E+00 0. -1.
         -4    1    1    2    0  503 -0.56632916637E+02  0.19704024249E+03 -0.24737602660E+03  0.32128965583E+03  0.00000000000E+00 0.  1.
<mgrwt>
<rscale>  4 0.25108230E+03</rscale>
<asrwt>0</asrwt>
<pdfrwt beam="1">  1       21 0.16456150E-01 0.25108230E+03</pdfrwt>
<pdfrwt beam="2">  1       21 0.32348365E+00 0.25108230E+03</pdfrwt>
<totfact> 0.76884548E+02</totfact>
</mgrwt>
</event>
<event>
 5    0  0.1972558E-002  0.2918941E+03  0.7546771E-02  0.1089364E+00
         21   -1    0    0  501  502  0.00000000000E+00  0.00000000000E+00  0.28515508223E+04  0.28515508223E+04  0.00000000000E+00 0.  1.
         21   -1    0    0  502  503 -0.00000000000E+00 -0.00000000000E+00 -0.26597705746E+03  0.26597705746E+03  0.00000000000E+00 0. -1.
         25    1    1    2    0    0 -0.98837023600E+02  0.26287159704E+03 -0.92896953587E+02  0.32113093552E+03  0.12500000000E+03 0.  0.
          4    1    1    2  501    0  0.95873261455E+02 -0.25300198072E+02  0.24930397504E+04  0.24950108175E+04  0.00000000000E+00 0.  1.
         -4    1    1    2    0  503  0.29637621447E+01 -0.23757139897E+03  0.18543096799E+03  0.30138612673E+03  0.00000000000E+00 0. -1.
<mgrwt>
<rscale>  4 0.29189412E+03</rscale>
<asrwt>0</asrwt>
<pdfrwt beam="1">  1       21 0.43870011E+00 0.29189412E+03</pdfrwt>
<pdfrwt beam="2">  1       21 0.40919549E-01 0.29189412E+03</pdfrwt>
<totfact> 0.24193409E+01</totfact>
</mgrwt>
</event>
<event>
 5    0  0.1972558E-002  0.2502789E+03  0.7546771E-02  0.1113129E+00
         21   -1    0    0  501  502  0.00000000000E+00  0.00000000000E+00  0.10563441249E+04  0.10563441249E+04  0.00000000000E+00 0. -1.
         21   -1    0    0  502  503 -0.00000000000E+00 -0.00000000000E+00 -0.68824187962E+02  0.68824187962E+02  0.00000000000E+00 0. -1.
         25    1    1    2    0    0 -0.43612602890E+02  0.21310239740E+03  0.36499800194E+03  0.44290318618E+03  0.12500000000E+03 0.  0.
          3    1    1    2  501    0 -0.76297548083E+01 -0.21915097209E+03  0.42655539781E+03  0.47961950454E+03  0.00000000000E+00 0. -1.
         -3    1    1    2    0  503  0.51242357698E+02  0.60485746932E+01  0.19596653719E+03  0.20264562215E+03  0.00000000000E+00 0.  1.
<mgrwt>
<rscale>  4 0.25027891E+03</rscale>
<asrwt>0</asrwt>
<pdfrwt beam="1">  1       21 0.16251447E+00 0.25027891E+03</pdfrwt>
<pdfrwt beam="2">  1       21 0.10588337E-01 0.25027891E+03</pdfrwt>
<totfact> 0.17051778E+04</totfact>
</mgrwt>
</event>
<event>
 5    0  0.1972558E-002  0.3015409E+03  0.7546771E-02  0.1084473E+00
         21   -1    0    0  501  502  0.00000000000E+00  0.00000000000E+00  0.17414450655E+04  0.17414450655E+04  0.00000000000E+00 0. -1.
         21   -1    0    0  502  503 -0.00000000000E+00 -0.00000000000E+00 -0.13165991524E+03  0.13165991524E+03  0.00000000000E+00 0. -1.
         25    1    1    2    0    0  0.32402297474E+03 -0.43229349230E+02  0.62587976127E+03  0.71708447227E+03  0.12500000000E+03 0.  0.
          1    1    1    2  501    0 -0.25707180249E+03 -0.50530481517E+02  0.12654096602E+03  0.29094992229E+03  0.00000000000E+00 0. -1.
         -1    1    1    2    0  503 -0.66951172243E+02  0.93759830747E+02  0.85736442297E+03  0.86507058619E+03  0.00000000000E+00 0.  1.
<mgrwt>
<rscale>  4 0.30154090E+03</rscale>
<asrwt>0</asrwt>
<pdfrwt beam="1">  1       21 0.26791461E+00 0.30154090E+03</pdfrwt>
<pdfrwt beam="2">  1       21 0.20255373E-01 0.30154090E+03</pdfrwt>
<totfact> 0.10563142E+03</totfact>
</mgrwt>
</event>
<event>
 5    0  0.1972558E-002  0.2441154E+03  0.7546771E-02  0.1117081E+00
         21   -1    0    0  501  502  0.00000000000E+00  0.00000000000E+00  0.11253843843E+03  0.11253843843E+03  0.00000000000E+00 0.  1.
         21   -1    0    0  502  503 -0.00000000000E+00 -0.00000000000E+00 -0.15408041037E+04  0.15408041037E+04  0.00000000000E+00 0. -1.
         25    1    1    2    0    0 -0.14442665566E+03  0.16321094179E+03 -0.79622472098E+03  0.83492255730E+03  0.12500000000E+03 0.  0.
          3    1    1    2  501    0  0.24228761785E+02  0.15574770432E+01  0.76943719443E+02  0.80683298111E+02  0.00000000000E+00 0. -1.
         -3    1    1    2    0  503  0.12019789387E+03 -0.16476841884E+03 -0.70898466371E+03  0.73773668671E+03  0.00000000000E+00 0.  1.
<mgrwt>
<rscale>  4 0.24411537E+03</rscale>
<asrwt>0</asrwt>
<pdfrwt beam="1">  1       21 0.17313606E-01 0.24411537E+03</pdfrwt>
<pdfrwt beam="2">  1       21 0.23704678E+00 0.24411537E+03</pdfrwt>
<totfact> 0.22740459E+03</totfact>
</mgrwt>
</event>
<event>
 5    0  0.1972558E-002  0.2534705E+03  0.7546771E-02  0.1111131E+00
         21   -1    0    0  501  502  0.00000000000E+00  0.00000000000E+00  0.11449359795E+04  0.11449359795E+04  0.00000000000E+00 0. -1.
         21   -1    0    0  502  503 -0.00000000000E+00 -0.00000000000E+00 -0.19190304002E+03  0.19190304002E+03  0.00000000000E+00 0. -1.
         25    1    1    2    0    0 -0.43122376770E+02 -0.22023342737E+03 -0.72863806797E+02  0.26701392520E+03  0.12500000000E+03 0.  0.
          4    1    1    2  501    0 -0.22786872219E+02  0.28484538802E+02  0.56649389272E+03  0.56766710402E+03  0.00000000000E+00 0. -1.
         -4    1    1    2    0  503  0.65909248989E+02  0.19174888857E+03  0.45940285360E+03  0.50215799034E+03  0.00000000000E+00 0.  1.
<mgrwt>
<rscale>  4 0.25347049E+03</rscale>
<asrwt>0</asrwt>
<pdfrwt beam="1">  1       21 0.17614399E+00 0.25347049E+03</pdfrwt>
<pdfrwt beam="2">  1       21 0.29523545E-01 0.25347049E+03</pdfrwt>
<totfact> 0.20148714E+03</totfact>
</mgrwt>
</event>
<event>
 5    0  0.1972558E-002  0.3008564E+03  0.7546771E-02  0.1084813E+00
         21   -1    0    0  501  502  0.00000000000E+00  0.00000000000E+00  0.16908197995E+03  0.16908197995E+03  0.00000000000E+00 0.  1.
         21   -1    0    0  502  503 -0.00000000000E+00 -0.00000000000E+00 -0.61582299628E+03  0.61582299628E+03  0.00000000000E+00 0.  1.
         25    1    1    2    0    0 -0.34331319291E+02  0.28482345048E+03 -0.23264967705E+03  0.38994090534E+03  0.12500000000E+03 0.  0.
          3    1    1    2  501    0  0.19585440824E+02 -0.21170382150E+02  0.25430947964E+02  0.38451367817E+02  0.00000000000E+00 0. -1.
         -3    1    1    2    0  503  0.14745878468E+02 -0.26365306833E+03 -0.23952228723E+03  0.35651270307E+03  0.00000000000E+00 0.  1.
<mgrwt>
<rscale>  4 0.30085643E+03</rscale>
<asrwt>0</asrwt>
<pdfrwt beam="1">  1       21 0.26012612E-01 0.30085643E+03</pdfrwt>
<pdfrwt beam="2">  1       21 0.94742002E-01 0.30085643E+03</pdfrwt>
<totfact> 0.12328915E+04</totfact>
</mgrwt>
</event>
<event>
 5    0  0.1972558E-002  0.3109423E+03  0.7546771E-02  0.1079895E+00
         21   -1    0    0  501  502  0.00000000000E+00  0.00000000000E+00  0.26372497118E+03  0.26372497118E+03  0.00000000000E+00 0. -1.
         21   -1    0    0  502  503 -0.00000000000E+00 -0.00000000000E+00 -0.97464417926E+03  0.97464417926E+03  0.00000000000E+00 0.  1.
         25    1    1    2    0    0  0.27481947003E+02  0.25304871834E+03 -0.47284017735E+03  0.55135446364E+03  0.12500000000E+03 0.  0.
          2    1    1    2  501    0 -0.12970954964E+03  0.92893709071E+02  0.10353923661E+03  0.19019511553E+03  0.00000000000E+00 0. -1.
         -2    1    1    2    0  503  0.10222760264E+03 -0.34594242741E+03 -0.34161826734E+03  0.49681957127E+03  0.00000000000E+00 0.  1.
<mgrwt>
<rscale>  4 0.31094227E+03</rscale>
<asrwt>0</asrwt>
<pdfrwt beam="1">  1       21 0.40573072E-01 0.31094227E+03</pdfrwt>
<pdfrwt beam="2">  1       21 0.14994526E+00 0.31094227E+03</pdfrwt>
<totfact> 0.15974148E+03</totfact>
</mgrwt>
</event>
<event>
 5    0  0.1972558E-002  0.2486931E+03  0.7546771E-02  0.1114134E+00
         21   -1    0    0  501  502  0.00000000000E+00  0.00000000000E+00  0.24909760361E+03  0.24909760361E+03  0.00000000000E+00 0. -1.
         21   -1    0    0  502  503 -0.00000000000E+00 -0.00000000000E+00 -0.20490610976E+04  0.20490610976E+04  0.00000000000E+00 0.  1.
         25    1    1    2    0    0  0.18634152675E+03  0.10205624873E+03 -0.18430325897E+04  0.18594442098E+04  0.12500000000E+03 0.  0.
          4    1    1    2  501    0 -0.17342800431E+02  0.91825632444E+02  0.13619859930E+03  0.16517499191E+03  0.00000000000E+00 0. -1.
         -4    1    1    2    0  503 -0.16899872632E+03 -0.19388188118E+03 -0.93129503503E+02  0.27353949947E+03  0.00000000000E+00 0.  1.
<mgrwt>
<rscale>  4 0.24869309E+03</rscale>
<asrwt>0</asrwt>
<pdfrwt beam="1">  1       21 0.38322710E-01 0.24869309E+03</pdfrwt>
<pdfrwt beam="2">  1       21 0.31524016E+00 0.24869309E+03</pdfrwt>
<totfact> 0.16916377E+02</totfact>
</mgrwt>
</event>
<event>
 5    0  0.1972558E-002  0.2501410E+03  0.7546771E-02  0.1113216E+00
         21   -1    0    0  501  502  0.00000000000E+00  0.00000000000E+00  0.30513845093E+03  0.30513845093E+03  0.00000000000E+00 0. -1.
         21   -1    0    0  502  503 -0.00000000000E+00 -0.00000000000E+00 -0.62489604239E+03  0.62489604239E+03  0.00000000000E+00 0.  1.
         25    1    1    2    0    0 -0.94761270182E+01 -0.22677088854E+03 -0.46555837015E+03  0.53280806008E+03  0.12500000000E+03 0.  0.
          2    1    1    2  501    0 -0.86292102890E+02  0.47044069378E+02  0.16564943613E+03  0.19261154476E+03  0.00000000000E+00 0. -1.
         -2    1    1    2    0  503  0.95768229909E+02  0.17972681917E+03 -0.19848657448E+02  0.20461488849E+03  0.00000000000E+00 0.  1.
<mgrwt>
<rscale>  4 0.25014096E+03</rscale>
<asrwt>0</asrwt>
<pdfrwt beam="1">  1       21 0.46944378E-01 0.25014096E+03</pdfrwt>
<pdfrwt beam="2">  1       21 0.96137851E-01 0.25014096E+03</pdfrwt>
<totfact> 0.37490211E+03</totfact>
</mgrwt>
</event>
<event>
 5    0  0.1972558E-002  0.3605109E+03  0.7546771E-02  0.1058382E+00
         21   -1    0    0  503  502  0.00000000000E+00  0.00000000000E+00  0.51508312931E+03  0.51508312931E+03  0.00000000000E+00 0.  1.
         21   -1    0    0  501  503 -0.00000000000E+00 -0.00000000000E+00 -0.35739675704E+03  0.35739675704E+03  0.00000000000E+00 0. -1.
         25    1    1    2    0    0  0.29910174340E+03  0.10932348913E+03  0.12086162634E+03  0.36283055398E+03  0.12500000000E+03 0.  0.
          2    1    1    2  501    0  0.43687069017E+02 -0.67581077357E+01 -0.11330631412E+03  0.12162463911E+03  0.00000000000E+00 0. -1.
         -2    1    1    2    0  502 -0.34278881242E+03 -0.10256538140E+03  0.15013106005E+03  0.38802469325E+03  0.00000000000E+00 0.  1.
<mgrwt>
<rscale>  4 0.36051092E+03</rscale>
<asrwt>0</asrwt>
<pdfrwt beam="1">  1       21 0.79243559E-01 0.36051092E+03</pdfrwt>
<pdfrwt beam="2">  1       21 0.54984116E-01 0.36051092E+03</pdfrwt>
<totfact> 0.39719384E+03</totfact>
</mgrwt>
</event>
<event>
 5    0  0.1972558E-002  0.2781874E+03  0.7546771E-02  0.1096683E+00
         21   -1    0    0  501  502  0.00000000000E+00  0.00000000000E+00  0.83586309390E+03  0.83586309390E+03  0.00000000000E+00 0.  1.
         21   -1    0    0  502  503 -0.00000000000E+00 -0.00000000000E+00 -0.11821930279E+03  0.11821930279E+03  0.00000000000E+00 0. -1.
         25    1    1    2    0    0  0.23198394860E+03  0.48707144973E+02  0.20219776110E+03  0.33570503865E+03  0.12500000000E+03 0.  0.
          3    1    1    2  501    0 -0.25966219008E+03 -0.43401614035E+02  0.29198216105E+03  0.39314340314E+03  0.00000000000E+00 0.  1.
         -3    1    1    2    0  503  0.27678241479E+02 -0.53055309383E+01  0.22346386896E+03  0.22523395490E+03  0.00000000000E+00 0. -1.
<mgrwt>
<rscale>  4 0.27818743E+03</rscale>
<asrwt>0</asrwt>
<pdfrwt beam="1">  1       21 0.12859432E+00 0.27818743E+03</pdfrwt>
<pdfrwt beam="2">  1       21 0.18187586E-01 0.27818743E+03</pdfrwt>
<totfact> 0.11615791E+04</totfact>
</mgrwt>
</event>
<event>
 5    0  0.1972558E-002  0.2368651E+03  0.7546771E-02  0.1121899E+00
         21   -1    0    0  501  502  0.00000000000E+00  0.00000000000E+00  0.27985635548E+03  0.27985635548E+03  0.00000000000E+00 0. -1.
         21   -1    0    0  502  503 -0.00000000000E+00 -0.00000000000E+00 -0.14221620320E+04  0.14221620320E+04  0.00000000000E+00 0. -1.
         25    1    1    2    0    0 -0.74401438754E+02 -0.20050536751E+03 -0.13564483807E+04  0.13788818608E+04  0.12500000000E+03 0.  0.
          1    1    1    2  501    0  0.37941160445E+02  0.93227107406E+02  0.17750405899E+03  0.20405517923E+03  0.00000000000E+00 0. -1.
         -1    1    1    2    0  503  0.36460278309E+02  0.10727826010E+03  0.36638645222E+02  0.11908134744E+03  0.00000000000E+00 0.  1.
<mgrwt>
<rscale>  4 0.23686511E+03</rscale>
<asrwt>0</asrwt>
<pdfrwt beam="1">  1       21 0.43054824E-01 0.23686511E+03</pdfrwt>
<pdfrwt beam="2">  1       21 0.21879416E+00 0.23686511E+03</pdfrwt>
<totfact> 0.50460798E+02</totfact>
</mgrwt>
</event>
<event>
 5    0  0.1972558E-002  0.2870441E+03  0.7546771E-02  0.1091903E+00
         21   -1    0    0  501  502  0.00000000000E+00  0.00000000000E+00  0.98741523479E+03  0.98741523479E+03  0.00000000000E+00 0. -1.
         21   -1    0    0  502  503 -0.00000000000E+00 -0.00000000000E+00 -0.35456340785E+03  0.35456340785E+03  0.00000000000E+00 0. -1.
         25    1    1    2    0    0 -0.25982369052E+03  0.40751004085E+02 -0.17061880315E+03  0.33749780811E+03  0.12500000000E+03 0.  0.
          2    1    1    2  501    0  0.63246726197E+02  0.17709004163E+03  0.64323126942E+03  0.67015483075E+03  0.00000000000E+00 0.  1.
         -2    1    1    2    0  503  0.19657696432E+03 -0.21784104572E+03  0.16023936067E+03  0.33432600379E+03  0.00000000000E+00 0. -1.
<mgrwt>
<rscale>  4 0.28704411E+03</rscale>
<asrwt>0</asrwt>
<pdfrwt beam="1">  1       21 0.15191004E+00 0.28704411E+03</pdfrwt>
<pdfrwt beam="2">  1       21 0.54548217E-01 0.28704411E+03</pdfrwt>
<totfact> 0.84429310E+02</totfact>
</mgrwt>
</event>
<event>
 5    0  0.1972558E-002  0.3044650E+03  0.7546771E-02  0.1083030E+00
         21   -1    0    0  501  502  0.00000000000E+00  0.00000000000E+00  0.12817213751E+03  0.12817213751E+03  0.00000000000E+00 0. -1.
         21   -1    0    0  502  503 -0.00000000000E+00 -0.00000000000E+00 -0.80595760936E+03  0.80595760936E+03  0.00000000000E+00 0. -1.
         25    1    1    2    0    0  0.18600641694E+03 -0.18396916357E+03 -0.38554546757E+03  0.48240371873E+03  0.12500000000E+03 0.  0.
          4    1    1    2  501    0 -0.22642470060E+03  0.19675724182E+03 -0.27124092797E+03  0.40441710925E+03  0.00000000000E+00 0. -1.
         -4    1    1    2    0  503  0.40418283661E+02 -0.12788078258E+02 -0.20999076323E+02  0.47308918885E+02  0.00000000000E+00 0.  1.
<mgrwt>
<rscale>  4 0.30446502E+03</rscale>
<asrwt>0</asrwt>
<pdfrwt beam="1">  1       21 0.19718790E-01 0.30446502E+03</pdfrwt>
<pdfrwt beam="2">  1       21 0.12399348E+00 0.30446502E+03</pdfrwt>
<totfact> 0.10812590E+04</totfact>
</mgrwt>
</event>
<event>
 5    0  0.2512554E-002  0.2060947E+03  0.7546771E-02  0.1144696E+00
         21   -1    0    0  501  502  0.00000000000E+00  0.00000000000E+00  0.11218403353E+03  0.11218403353E+03  0.00000000000E+00 0.  1.
         21   -1    0    0  502  503 -0.00000000000E+00 -0.00000000000E+00 -0.77396508857E+03  0.77396508857E+03  0.00000000000E+00 0.  1.
         25    1    1    2    0    0  0.20367882380E+03  0.16588229016E+02 -0.37127279530E+03  0.44184694311E+03  0.12500000000E+03 0.  0.
          3    1    1    2  501    0 -0.14969985179E+03 -0.45030643187E+02 -0.93560346599E+01  0.15660568264E+03  0.00000000000E+00 0.  1.
         -3    1    1    2    0  503 -0.53978972017E+02  0.28442414171E+02 -0.28115222508E+03  0.28769649635E+03  0.00000000000E+00 0. -1.
<mgrwt>
<rscale>  4 0.20609470E+03</rscale>
<asrwt>0</asrwt>
<pdfrwt beam="1">  1       21 0.17259083E-01 0.20609470E+03</pdfrwt>
<pdfrwt beam="2">  1       21 0.11907155E+00 0.20609470E+03</pdfrwt>
<totfact> 0.16189986E+04</totfact>
</mgrwt>
</event>
<event>
 5    0  0.1972558E-002  0.2557542E+03  0.7546771E-02  0.1109721E+00
         21   -1    0    0  501  502  0.00000000000E+00  0.00000000000E+00  0.31584597968E+03  0.31584597968E+03  0.00000000000E+00 0.  1.
         21   -1    0    0  502  503 -0.00000000000E+00 -0.00000000000E+00 -0.35809050261E+03  0.35809050261E+03  0.00000000000E+00 0.  1.
         25    1    1    2    0    0 -0.19406364798E+03  0.15789080473E+03 -0.63472109288E+02  0.28678199794E+03  0.12500000000E+03 0.  0.
          3    1    1    2  501    0  0.12576856759E+03  0.54732567442E+02 -0.59740402041E+02  0.14960715948E+03  0.00000000000E+00 0. -1.
         -3    1    1    2    0  503  0.68295080395E+02 -0.21262337218E+03  0.80967988399E+02  0.23754732486E+03  0.00000000000E+00 0.  1.
<mgrwt>
<rscale>  4 0.25575416E+03</rscale>
<asrwt>0</asrwt>
<pdfrwt beam="1">  1       21 0.48591689E-01 0.25575416E+03</pdfrwt>
<pdfrwt beam="2">  1       21 0.55090846E-01 0.25575416E+03</pdfrwt>
<totfact> 0.12107378E+04</totfact>
</mgrwt>
</event>
<event>
 5    0  0.1972558E-002  0.2648095E+03  0.7546771E-02  0.1104288E+00
         21   -1    0    0  501  502  0.00000000000E+00  0.00000000000E+00  0.16159483750E+03  0.16159483750E+03  0.00000000000E+00 0.  1.
         21   -1    0    0  502  503 -0.00000000000E+00 -0.00000000000E+00 -0.79459928586E+03  0.79459928586E+03  0.00000000000E+00 0. -1.
         25    1    1    2    0    0 -0.22491116888E+03 -0.62562208905E+02 -0.66067099028E+03  0.71176556623E+03  0.12500000000E+03 0.  0.
          4    1    1    2  501    0  0.64263382368E+02  0.10347080423E+02  0.37681760381E+02  0.75211431658E+02  0.00000000000E+00 0. -1.
         -4    1    1    2    0  503  0.16064778652E+03  0.52215128482E+02 -0.10015218466E+02  0.16921712548E+03  0.00000000000E+00 0.  1.
<mgrwt>
<rscale>  4 0.26480949E+03</rscale>
<asrwt>0</asrwt>
<pdfrwt beam="1">  1       21 0.24860744E-01 0.26480949E+03</pdfrwt>
<pdfrwt beam="2">  1       21 0.12224604E+00 0.26480949E+03</pdfrwt>
<totfact> 0.73584325E+03</totfact>
</mgrwt>
</event>
<event>
 5    0  0.1972558E-002  0.2451886E+03  0.7546771E-02  0.1116384E+00
         21   -1    0    0  503  502  0.00000000000E+00  0.00000000000E+00  0.68357228925E+03  0.68357228925E+03  0.00000000000E+00 0. -1.
         21   -1    0    0  501  503 -0.00000000000E+00 -0.00000000000E+00 -0.19196782828E+03  0.19196782828E+03  0.00000000000E+00 0. -1.
         25    1    1    2    0    0 -0.36389810591E+02 -0.22509533261E+03  0.50667551213E+03  0.56950610328E+03  0.12500000000E+03 0.  0.
          1    1    1    2  501    0 -0.24023633520E+02  0.25071913860E+02  0.71793344108E+02  0.79749734108E+02  0.00000000000E+00 0.  1.
         -1    1    1    2    0  502  0.60413444111E+02  0.20002341875E+03 -0.86864395267E+02  0.22628428015E+03  0.00000000000E+00 0. -1.
<mgrwt>
<rscale>  4 0.24518860E+03</rscale>
<asrwt>0</asrwt>
<pdfrwt beam="1">  1       21 0.10516497E+00 0.24518860E+03</pdfrwt>
<pdfrwt beam="2">  1       21 0.29533512E-01 0.24518860E+03</pdfrwt>
<totfact> 0.77172941E+03</totfact>
</mgrwt>
</event>
<event>
 5    0  0.1972558E-002  0.3304649E+03  0.7546771E-02  0.1070931E+00
         21   -1    0    0  501  502  0.00000000000E+00  0.00000000000E+00  0.13745646917E+04  0.13745646917E+04  0.00000000000E+00 0. -1.
         21   -1    0    0  502  503 -0.00000000000E+00 -0.00000000000E+00 -0.25515150866E+03  0.25515150866E+03  0.00000000000E+00 0.  1.
         25    1    1    2    0    0  0.26704428644E+03 -0.16395915918E+03 -0.82879519940E+02  0.34740361487E+03  0.12500000000E+03 0.  0.
          2    1    1    2  501    0 -0.28151405675E+03  0.58365581572E+02  0.54255854544E+03  0.61402482074E+03  0.00000000000E+00 0. -1.
         -2    1    1    2    0  503  0.14469770310E+02  0.10559357760E+03  0.65973415753E+03  0.66828776474E+03  0.00000000000E+00 0.  1.
<mgrwt>
<rscale>  4 0.33046493E+03</rscale>
<asrwt>0</asrwt>
<pdfrwt beam="1">  1       21 0.21147149E+00 0.33046493E+03</pdfrwt>
<pdfrwt beam="2">  1       21 0.39254079E-01 0.33046493E+03</pdfrwt>
<totfact> 0.62708601E+02</totfact>
</mgrwt>
</event>
<event>
 5    0  0.1972558E-002  0.3355609E+03  0.7546771E-02  0.1068702E+00
         21   -1    0    0  503  502  0.00000000000E+00  0.00000000000E+00  0.42926764405E+03  0.42926764405E+03  0.00000000000E+00 0. -1.
         21   -1    0    0  501  503 -0.00000000000E+00 -0.00000000000E+00 -0.55881986150E+03  0.55881986150E+03  0.00000000000E+00 0. -1.
         25    1    1    2    0    0 -0.30665774672E+03  0.60495029196E+02 -0.37984819521E+03  0.50755125217E+03  0.12500000000E+03 0.  0.
          3    1    1    2  501    0 -0.59390099519E+01 -0.74549529217E+02 -0.74264901975E+01  0.75153555487E+02  0.00000000000E+00 0.  1.
         -3    1    1    2    0  502  0.31259675667E+03  0.14054500021E+02  0.25772246796E+03  0.40538269788E+03  0.00000000000E+00 0. -1.
<mgrwt>
<rscale>  4 0.33556091E+03</rscale>
<asrwt>0</asrwt>
<pdfrwt beam="1">  1       21 0.66041176E-01 0.33556091E+03</pdfrwt>
<pdfrwt beam="2">  1       21 0.85972286E-01 0.33556091E+03</pdfrwt>
<totfact> 0.22323739E+03</totfact>
</mgrwt>
</event>
<event>
 5    0  0.1972558E-002  0.2171896E+03  0.7546771E-02  0.1135996E+00
         21   -1    0    0  501  502  0.00000000000E+00  0.00000000000E+00  0.19907325808E+03  0.19907325808E+03  0.00000000000E+00 0.  1.
         21   -1    0    0  502  503 -0.00000000000E+00 -0.00000000000E+00 -0.56568626869E+03  0.56568626869E+03  0.00000000000E+00 0. -1.
         25    1    1    2    0    0  0.22285136779E+03  0.36336814024E+02 -0.25301089248E+03  0.36141749805E+03  0.12500000000E+03 0.  0.
          1    1    1    2  501    0 -0.15405371840E+03 -0.23738144329E+02 -0.22385447871E+03  0.27277623666E+03  0.00000000000E+00 0. -1.
         -1    1    1    2    0  503 -0.68797649390E+02 -0.12598669695E+02  0.11025236059E+03  0.13056579205E+03  0.00000000000E+00 0.  1.
<mgrwt>
<rscale>  4 0.21718964E+03</rscale>
<asrwt>0</asrwt>
<pdfrwt beam="1">  1       21 0.30626655E-01 0.21718964E+03</pdfrwt>
<pdfrwt beam="2">  1       21 0.87028656E-01 0.21718964E+03</pdfrwt>
<totfact> 0.11430844E+04</totfact>
</mgrwt>
</event>
<event>
 5    0  0.1972558E-002  0.4822351E+03  0.7546771E-02  0.1018523E+00
         21   -1    0    0  503  502  0.00000000000E+00  0.00000000000E+00  0.12437735355E+04  0.12437735355E+04  0.00000000000E+00 0.  1.
         21   -1    0    0  501  503 -0.00000000000E+00 -0.00000000000E+00 -0.44658562863E+03  0.44658562863E+03  0.00000000000E+00 0. -1.
         25    1    1    2    0    0 -0.30818704727E+01 -0.46559408810E+03 -0.22574266756E+03  0.53232706559E+03  0.12500000000E+03 0.  0.
          4    1    1    2  501    0 -0.53734887128E+02 -0.40390222686E+00  0.34702572564E+02  0.63967724473E+02  0.00000000000E+00 0. -1.
         -4    1    1    2    0  502  0.56816757601E+02  0.46599799033E+03  0.98822800188E+03  0.10940643741E+04  0.00000000000E+00 0.  1.
<mgrwt>
<rscale>  4 0.48223510E+03</rscale>
<asrwt>0</asrwt>
<pdfrwt beam="1">  1       21 0.19134977E+00 0.48223510E+03</pdfrwt>
<pdfrwt beam="2">  1       21 0.68705482E-01 0.48223510E+03</pdfrwt>
<totfact> 0.23599671E+02</totfact>
</mgrwt>
</event>
<event>
 5    0  0.1972558E-002  0.2577634E+03  0.7546771E-02  0.1108495E+00
         21   -1    0    0  503  502  0.00000000000E+00  0.00000000000E+00  0.20002370663E+03  0.20002370663E+03  0.00000000000E+00 0. -1.
         21   -1    0    0  501  503 -0.00000000000E+00 -0.00000000000E+00 -0.76270289602E+03  0.76270289602E+03  0.00000000000E+00 0. -1.
         25    1    1    2    0    0  0.26516613578E+02 -0.22193752328E+03 -0.23262499295E+03  0.34597511815E+03  0.12500000000E+03 0.  0.
          2    1    1    2  501    0 -0.15806596739E+03  0.12183325492E+02  0.47283529246E+02  0.16543583531E+03  0.00000000000E+00 0.  1.
         -2    1    1    2    0  502  0.13154935381E+03  0.20975419779E+03 -0.37733772568E+03  0.45131564918E+03  0.00000000000E+00 0. -1.
<mgrwt>
<rscale>  4 0.25776337E+03</rscale>
<asrwt>0</asrwt>
<pdfrwt beam="1">  1       21 0.30772878E-01 0.25776337E+03</pdfrwt>
<pdfrwt beam="2">  1       21 0.11733891E+00 0.25776337E+03</pdfrwt>
<totfact> 0.54057742E+03</totfact>
</mgrwt>
</event>
<event>
 5    0  0.1972558E-002  0.2683533E+03  0.7546771E-02  0.1102226E+00
         21   -1    0    0  501  502  0.00000000000E+00  0.00000000000E+00  0.77088581867E+03  0.77088581867E+03  0.00000000000E+00 0.  1.
         21   -1    0    0  502  503 -0.00000000000E+00 -0.00000000000E+00 -0.94538285184E+02  0.94538285184E+02  0.00000000000E+00 0.  1.
         25    1    1    2    0    0 -0.19100939306E+03  0.14108122617E+03  0.23624596172E+03  0.35752713889E+03  0.12500000000E+03 0.  0.
          1    1    1    2  501    0  0.16764559940E+03 -0.10177435819E+03  0.28327418571E+03  0.34453930295E+03  0.00000000000E+00 0.  1.
         -1    1    1    2    0  503  0.23363793661E+02 -0.39306867978E+02  0.15682738605E+03  0.16335766202E+03  0.00000000000E+00 0. -1.
<mgrwt>
<rscale>  4 0.26835331E+03</rscale>
<asrwt>0</asrwt>
<pdfrwt beam="1">  1       21 0.11859781E+00 0.26835331E+03</pdfrwt>
<pdfrwt beam="2">  1       21 0.14544352E-01 0.26835331E+03</pdfrwt>
<totfact> 0.21642015E+04</totfact>
</mgrwt>
</event>
<event>
 5    0  0.1972558E-002  0.2884955E+03  0.7546771E-02  0.1091137E+00
         21   -1    0    0  501  502  0.00000000000E+00  0.00000000000E+00  0.10664906269E+04  0.10664906269E+04  0.00000000000E+00 0.  1.
         21   -1    0    0  502  503 -0.00000000000E+00 -0.00000000000E+00 -0.58566249177E+03  0.58566249177E+03  0.00000000000E+00 0.  1.
         25    1    1    2    0    0 -0.21248872291E+03 -0.15110538813E+03 -0.51224403151E+03  0.58822040385E+03  0.12500000000E+03 0.  0.
          1    1    1    2  501    0 -0.46536650634E+01  0.22877520916E+02  0.57653328945E+03  0.57700578108E+03  0.00000000000E+00 0. -1.
         -1    1    1    2    0  503  0.21714238797E+03  0.12822786721E+03  0.41653887719E+03  0.48692693373E+03  0.00000000000E+00 0.  1.
<mgrwt>
<rscale>  4 0.28849554E+03</rscale>
<asrwt>0</asrwt>
<pdfrwt beam="1">  1       21 0.16407548E+00 0.28849554E+03</pdfrwt>
<pdfrwt beam="2">  1       21 0.90101922E-01 0.28849554E+03</pdfrwt>
<totfact> 0.22306624E+02</totfact>
</mgrwt>
</event>
<event>
 5    0  0.1972558E-002  0.3795425E+03  0.7546771E-02  0.1051103E+00
         21   -1    0    0  501  502  0.00000000000E+00  0.00000000000E+00  0.17491807248E+03  0.17491807248E+03  0.00000000000E+00 0.  1.
         21   -1    0    0  502  503 -0.00000000000E+00 -0.00000000000E+00 -0.11655512525E+04  0.11655512525E+04  0.00000000000E+00 0. -1.
         25    1    1    2    0    0 -0.19974228009E+02 -0.34571431507E+03 -0.45027861163E+03  0.58162976671E+03  0.12500000000E+03 0.  0.
          1    1    1    2  501    0  0.74539963171E+02 -0.22314607758E+02  0.25280614859E+02  0.81812329857E+02  0.00000000000E+00 0. -1.
         -1    1    1    2    0  503 -0.54565735162E+02  0.36802892283E+03 -0.56563518330E+03  0.67702722846E+03  0.00000000000E+00 0.  1.
<mgrwt>
<rscale>  4 0.37954250E+03</rscale>
<asrwt>0</asrwt>
<pdfrwt beam="1">  1       21 0.26910473E-01 0.37954250E+03</pdfrwt>
<pdfrwt beam="2">  1       21 0.17931558E+00 0.37954250E+03</pdfrwt>
<totfact> 0.21247099E+03</totfact>
</mgrwt>
</event>
<event>
 5    0  0.1972558E-002  0.2474101E+03  0.7546771E-02  0.1114953E+00
         21   -1    0    0  501  502  0.00000000000E+00  0.00000000000E+00  0.22052774719E+03  0.22052774719E+03  0.00000000000E+00 0.  1.
         21   -1    0    0  502  503 -0.00000000000E+00 -0.00000000000E+00 -0.35591799035E+03  0.35591799035E+03  0.00000000000E+00 0. -1.
         25    1    1    2    0    0  0.15452482207E+03 -0.16416276266E+03 -0.13911014231E+03  0.29292313833E+03  0.12500000000E+03 0.  0.
          3    1    1    2  501    0 -0.36100697572E+02 -0.25295623229E+00  0.62820111689E+02  0.72454749911E+02  0.00000000000E+00 0. -1.
         -3    1    1    2    0  503 -0.11842412449E+03  0.16441571889E+03 -0.59100212539E+02  0.21106784929E+03  0.00000000000E+00 0.  1.
<mgrwt>
<rscale>  4 0.24741012E+03</rscale>
<asrwt>0</asrwt>
<pdfrwt beam="1">  1       21 0.33927346E-01 0.24741012E+03</pdfrwt>
<pdfrwt beam="2">  1       21 0.54756613E-01 0.24741012E+03</pdfrwt>
<totfact> 0.25611834E+04</totfact>
</mgrwt>
</event>
<event>
 5    0  0.1972558E-002  0.2839388E+03  0.7546771E-02  0.1093557E+00
         21   -1    0    0  503  502  0.00000000000E+00  0.00000000000E+00  0.77949575874E+03  0.77949575874E+03  0.00000000000E+00 0.  1.
         21   -1    0    0  501  503 -0.00000000000E+00 -0.00000000000E+00 -0.30689787424E+03  0.30689787424E+03  0.00000000000E+00 0.  1.
         25    1    1    2    0    0 -0.11938961717E+03 -0.21936097549E+03 -0.17219019927E+03  0.32809691096E+03  0.12500000000E+03 0.  0.
          1    1    1    2  501    0  0.37687254815E+02 -0.54078445593E+02  0.31656423768E+03  0.32335386812E+03  0.00000000000E+00 0. -1.
         -1    1    1    2    0  502  0.81702362356E+02  0.27343942109E+03  0.32822384608E+03  0.43494285390E+03  0.00000000000E+00 0.  1.
<mgrwt>
<rscale>  4 0.28393884E+03</rscale>
<asrwt>0</asrwt>
<pdfrwt beam="1">  1       21 0.11992242E+00 0.28393884E+03</pdfrwt>
<pdfrwt beam="2">  1       21 0.47215058E-01 0.28393884E+03</pdfrwt>
<totfact> 0.21170983E+03</totfact>
</mgrwt>
</event>
<event>
 5    0  0.1972558E-002  0.3055258E+03  0.7546771E-02  0.1082511E+00
         21   -1    0    0  503  502  0.00000000000E+00  0.00000000000E+00  0.41299976483E+02  0.41299976483E+02  0.00000000000E+00 0.  1.
         21   -1    0    0  501  503 -0.00000000000E+00 -0.00000000000E+00 -0.32379213074E+04  0.32379213074E+04  0.00000000000E+00 0. -1.
         25    1    1    2    0    0 -0.22528518583E+03 -0.18976750311E+03 -0.21986049760E+04  0.22217682058E+04  0.12500000000E+03 0.  0.
          3    1    1    2  501    0  0.16443227478E+02  0.40569202568E+02 -0.23458356192E+02  0.49664216516E+02  0.00000000000E+00 0. -1.
         -3    1    1    2    0  502  0.20884195835E+03  0.14919830054E+03 -0.97455799878E+03  0.10077888615E+04  0.00000000000E+00 0.  1.
<mgrwt>
<rscale>  4 0.30552576E+03</rscale>
<asrwt>0</asrwt>
<pdfrwt beam="1">  1       21 0.63538418E-02 0.30552576E+03</pdfrwt>
<pdfrwt beam="2">  1       21 0.49814180E+00 0.30552576E+03</pdfrwt>
<totfact> 0.29995506E+02</totfact>
</mgrwt>
</event>
<event>
 5    0  0.1972558E-002  0.2469994E+03  0.7546771E-02  0.1115216E+00
         21   -1    0    0  503  502  0.00000000000E+00  0.00000000000E+00  0.73292055601E+03  0.73292055601E+03  0.00000000000E+00 0. -1.
         21   -1    0    0  501  503 -0.00000000000E+00 -0.00000000000E+00 -0.96188295955E+02  0.96188295955E+02  0.00000000000E+00 0. -1.
         25    1    1    2    0    0  0.20008137124E+03 -0.50010864841E+01  0.18868794278E+03  0.30213524411E+03  0.12500000000E+03 0.  0.
          2    1    1    2  501    0  0.33254507087E+02  0.22887470113E+02  0.97117184797E+02  0.10517340972E+03  0.00000000000E+00 0.  1.
         -2    1    1    2    0  502 -0.23333587833E+03 -0.17886383629E+02  0.35092713248E+03  0.42180019813E+03  0.00000000000E+00 0. -1.
<mgrwt>
<rscale>  4 0.24699940E+03</rscale>
<asrwt>0</asrwt>
<pdfrwt beam="1">  1       21 0.11275700E+00 0.24699940E+03</pdfrwt>
<pdfrwt beam="2">  1       21 0.14798200E-01 0.24699940E+03</pdfrwt>
<totfact> 0.23991176E+04</totfact>
</mgrwt>
</event>
<event>
 5    0  0.1972558E-002  0.2566748E+03  0.7546771E-02  0.1109158E+00
         21   -1    0    0  501  502  0.00000000000E+00  0.00000000000E+00  0.15543626114E+03  0.15543626114E+03  0.00000000000E+00 0. -1.
         21   -1    0    0  502  503 -0.00000000000E+00 -0.00000000000E+00 -0.69579529764E+03  0.69579529764E+03  0.00000000000E+00 0. -1.
         25    1    1    2    0    0 -0.23017672872E+03  0.13526213228E+02 -0.36128267210E+03  0.44644647389E+03  0.12500000000E+03 0.  0.
          2    1    1    2  501    0  0.12514437211E+02 -0.47944146553E+02  0.61208386759E+02  0.78750993244E+02  0.00000000000E+00 0.  1.
         -2    1    1    2    0  503  0.21766229151E+03  0.34417933325E+02 -0.24028475115E+03  0.32603409165E+03  0.00000000000E+00 0. -1.
<mgrwt>
<rscale>  4 0.25667480E+03</rscale>
<asrwt>0</asrwt>
<pdfrwt beam="1">  1       21 0.23913271E-01 0.25667480E+03</pdfrwt>
<pdfrwt beam="2">  1       21 0.10704543E+00 0.25667480E+03</pdfrwt>
<totfact> 0.11048381E+04</totfact>
</mgrwt>
</event>
<event>
 5    0  0.1972558E-002  0.2456455E+03  0.7546771E-02  0.1116088E+00
         21   -1    0    0  501  502  0.00000000000E+00  0.00000000000E+00  0.62049618286E+03  0.62049618286E+03  0.00000000000E+00 0. -1.
         21   -1    0    0  502  503 -0.00000000000E+00 -0.00000000000E+00 -0.89902591028E+03  0.89902591028E+03  0.00000000000E+00 0.  1.
         25    1    1    2    0    0  0.16745895776E+03  0.12472320382E+03 -0.80539670131E+03  0.84136034289E+03  0.12500000000E+03 0.  0.
          4    1    1    2  501    0 -0.12137015867E+02  0.74304882857E+02  0.37726295964E+03  0.38470230502E+03  0.00000000000E+00 0.  1.
         -4    1    1    2    0  503 -0.15532194190E+03 -0.19902808667E+03  0.14960401424E+03  0.29345944523E+03  0.00000000000E+00 0. -1.
<mgrwt>
<rscale>  4 0.24564548E+03</rscale>
<asrwt>0</asrwt>
<pdfrwt beam="1">  1       21 0.95460952E-01 0.24564548E+03</pdfrwt>
<pdfrwt beam="2">  1       21 0.13831168E+00 0.24564548E+03</pdfrwt>
<totfact> 0.31951060E+02</totfact>
</mgrwt>
</event>
<event>
 5    0  0.1972558E-002  0.2339839E+03  0.7546771E-02  0.1123867E+00
         21   -1    0    0  501  502  0.00000000000E+00  0.00000000000E+00  0.44701334829E+03  0.44701334829E+03  0.00000000000E+00 0. -1.
         21   -1    0    0  502  503 -0.00000000000E+00 -0.00000000000E+00 -0.62754450840E+03  0.62754450840E+03  0.00000000000E+00 0.  1.
         25    1    1    2    0    0  0.36411912038E+02 -0.24439610956E+03 -0.49376899898E+03  0.56611669297E+03  0.12500000000E+03 0.  0.
          2    1    1    2  501    0 -0.36005539079E+02  0.11276084931E+03  0.35187577102E+03  0.37125189052E+03  0.00000000000E+00 0. -1.
         -2    1    1    2    0  503 -0.40637295924E+00  0.13163526026E+03 -0.38637932145E+02  0.13718927320E+03  0.00000000000E+00 0.  1.
<mgrwt>
<rscale>  4 0.23398388E+03</rscale>
<asrwt>0</asrwt>
<pdfrwt beam="1">  1       21 0.68771285E-01 0.23398388E+03</pdfrwt>
<pdfrwt beam="2">  1       21 0.96545308E-01 0.23398388E+03</pdfrwt>
<totfact> 0.16576782E+03</totfact>
</mgrwt>
</event>
<event>
 5    0  0.1972558E-002  0.3420276E+03  0.7546771E-02  0.1065936E+00
         21   -1    0    0  501  502  0.00000000000E+00  0.00000000000E+00  0.74513635669E+03  0.74513635669E+03  0.00000000000E+00 0.  1.
         21   -1    0    0  502  503 -0.00000000000E+00 -0.00000000000E+00 -0.16989814271E+04  0.16989814271E+04  0.00000000000E+00 0. -1.
         25    1    1    2    0    0  0.29120406090E+03 -0.91286590820E+02 -0.13208845624E+04  0.13614308921E+04  0.12500000000E+03 0.  0.
          3    1    1    2  501    0 -0.41154885569E+03  0.51085056059E+01 -0.22731277070E+03  0.47018044746E+03  0.00000000000E+00 0.  1.
         -3    1    1    2    0  503  0.12034479479E+03  0.86178085214E+02  0.59435226272E+03  0.61250644422E+03  0.00000000000E+00 0. -1.
<mgrwt>
<rscale>  4 0.34202757E+03</rscale>
<asrwt>0</asrwt>
<pdfrwt beam="1">  1       21 0.11463636E+00 0.34202757E+03</pdfrwt>
<pdfrwt beam="2">  1       21 0.26138176E+00 0.34202757E+03</pdfrwt>
<totfact> 0.27879193E+01</totfact>
</mgrwt>
</event>
<event>
 5    0  0.1972558E-002  0.2565424E+03  0.7546771E-02  0.1109239E+00
         21   -1    0    0  501  502  0.00000000000E+00  0.00000000000E+00  0.21780864077E+03  0.21780864077E+03  0.00000000000E+00 0. -1.
         21   -1    0    0  502  503 -0.00000000000E+00 -0.00000000000E+00 -0.34705727079E+03  0.34705727079E+03  0.00000000000E+00 0. -1.
         25    1    1    2    0    0  0.65316718303E+02  0.21429594673E+03 -0.17749635914E+03  0.31195990765E+03  0.12500000000E+03 0.  0.
          4    1    1    2  501    0 -0.66126774298E+02 -0.11430275013E+03  0.71606212175E+02  0.15021757084E+03  0.00000000000E+00 0. -1.
         -4    1    1    2    0  503  0.81005599539E+00 -0.99993196594E+02 -0.23358483057E+02  0.10268843307E+03  0.00000000000E+00 0.  1.
<mgrwt>
<rscale>  4 0.25654245E+03</rscale>
<asrwt>0</asrwt>
<pdfrwt beam="1">  1       21 0.33509022E-01 0.25654245E+03</pdfrwt>
<pdfrwt beam="2">  1       21 0.53393426E-01 0.25654245E+03</pdfrwt>
<totfact> 0.27582163E+04</totfact>
</mgrwt>
</event>
<event>
 5    0  0.1972558E-002  0.2570018E+03  0.7546771E-02  0.1108958E+00
         21   -1    0    0  501  502  0.00000000000E+00  0.00000000000E+00  0.46623274074E+03  0.46623274074E+03  0.00000000000E+00 0.  1.
         21   -1    0    0  502  503 -0.00000000000E+00 -0.00000000000E+00 -0.27163971242E+03  0.27163971242E+03  0.00000000000E+00 0.  1.
         25    1    1    2    0    0 -0.83775302185E+02 -0.21334906186E+03 -0.15941109647E+03  0.30589707604E+03  0.12500000000E+03 0.  0.
          4    1    1    2  501    0  0.91979490916E+02  0.18520582105E+03  0.25275433411E+03  0.32656726155E+03  0.00000000000E+00 0.  1.
         -4    1    1    2    0  503 -0.82041887307E+01  0.28143240806E+02  0.10124979068E+03  0.10540811558E+03  0.00000000000E+00 0. -1.
<mgrwt>
<rscale>  4 0.25700177E+03</rscale>
<asrwt>0</asrwt>
<pdfrwt beam="1">  1       21 0.71728114E-01 0.25700177E+03</pdfrwt>
<pdfrwt beam="2">  1       21 0.41790725E-01 0.25700177E+03</pdfrwt>
<totfact> 0.92967761E+03</totfact>
</mgrwt>
</event>
<event>
 5    0  0.1972558E-002  0.3478327E+03  0.7546771E-02  0.1063508E+00
         21   -1    0    0  501  502  0.00000000000E+00  0.00000000000E+00  0.11249215456E+04  0.11249215456E+04  0.00000000000E+00 0.  1.
         21   -1    0    0  502  503 -0.00000000000E+00 -0.00000000000E+00 -0.29360511563E+03  0.29360511563E+03  0.00000000000E+00 0.  1.
         25    1    1    2    0    0 -0.32734050161E+03 -0.19489016073E+02 -0.13135712635E+03  0.37471498554E+03  0.12500000000E+03 0.  0.
          4    1    1    2  501    0  0.30526338537E+03  0.51547595421E+02  0.56516903067E+03  0.64440586766E+03  0.00000000000E+00 0.  1.
         -4    1    1    2    0  503  0.22077116238E+02 -0.32058579348E+02  0.39750452561E+03  0.39940580798E+03  0.00000000000E+00 0. -1.
<mgrwt>
<rscale>  4 0.34783266E+03</rscale>
<asrwt>0</asrwt>
<pdfrwt beam="1">  1       21 0.17306485E+00 0.34783266E+03</pdfrwt>
<pdfrwt beam="2">  1       21 0.45170019E-01 0.34783266E+03</pdfrwt>
<totfact> 0.84255967E+02</totfact>
</mgrwt>
</event>
<event>
 5    0  0.1972558E-002  0.2471875E+03  0.7546771E-02  0.1115095E+00
         21   -1    0    0  501  502  0.00000000000E+00  0.00000000000E+00  0.98195662027E+03  0.98195662027E+03  0.00000000000E+00 0.  1.
         21   -1    0    0  502  503 -0.00000000000E+00 -0.00000000000E+00 -0.77559188197E+02  0.77559188197E+02  0.00000000000E+00 0.  1.
         25    1    1    2    0    0 -0.18265172456E+03 -0.87170072833E+02  0.28371467643E+03  0.37024220681E+03  0.12500000000E+03 0.  0.
          3    1    1    2  501    0 -0.30068754363E+02  0.92573866739E+01  0.26971086520E+03  0.27153964720E+03  0.00000000000E+00 0. -1.
         -3    1    1    2    0  503  0.21272047893E+03  0.77912686159E+02  0.35097189044E+03  0.41773395445E+03  0.00000000000E+00 0.  1.
<mgrwt>
<rscale>  4 0.24718752E+03</rscale>
<asrwt>0</asrwt>
<pdfrwt beam="1">  1       21 0.15107024E+00 0.24718752E+03</pdfrwt>
<pdfrwt beam="2">  1       21 0.11932183E-01 0.24718752E+03</pdfrwt>
<totfact> 0.16798534E+04</totfact>
</mgrwt>
</event>
<event>
 5    0  0.1972558E-002  0.2303877E+03  0.7546771E-02  0.1126367E+00
         21   -1    0    0  501  502  0.00000000000E+00  0.00000000000E+00  0.83381287051E+03  0.83381287051E+03  0.00000000000E+00 0. -1.
         21   -1    0    0  502  503 -0.00000000000E+00 -0.00000000000E+00 -0.21140429958E+03  0.21140429958E+03  0.00000000000E+00 0.  1.
         25    1    1    2    0    0  0.26050255779E+03  0.25527159055E+02  0.30242869942E+02  0.29163821705E+03  0.12500000000E+03 0.  0.
          1    1    1    2  501    0 -0.10324260938E+03 -0.56705792930E+02  0.58105451604E+03  0.59287345527E+03  0.00000000000E+00 0. -1.
         -1    1    1    2    0  503 -0.15725994841E+03  0.31178633875E+02  0.11111184938E+02  0.16070549777E+03  0.00000000000E+00 0.  1.
<mgrwt>
<rscale>  4 0.23038773E+03</rscale>
<asrwt>0</asrwt>
<pdfrwt beam="1">  1       21 0.12827890E+00 0.23038773E+03</pdfrwt>
<pdfrwt beam="2">  1       21 0.32523739E-01 0.23038773E+03</pdfrwt>
<totfact> 0.39462195E+03</totfact>
</mgrwt>
</event>
<event>
 5    0  0.1972558E-002  0.3983590E+03  0.7546771E-02  0.1044349E+00
         21   -1    0    0  501  502  0.00000000000E+00  0.00000000000E+00  0.43293824211E+03  0.43293824211E+03  0.00000000000E+00 0. -1.
         21   -1    0    0  502  503 -0.00000000000E+00 -0.00000000000E+00 -0.53072785410E+03  0.53072785410E+03  0.00000000000E+00 0. -1.
         25    1    1    2    0    0  0.31706623950E+03 -0.22874491345E+03  0.72300352105E+02  0.41678240915E+03  0.12500000000E+03 0.  0.
          3    1    1    2  501    0  0.67923934676E+00  0.32578753795E+02  0.87410698533E+02  0.93287012938E+02  0.00000000000E+00 0.  1.
         -3    1    1    2    0  503 -0.31774547885E+03  0.19616615965E+03 -0.25750066263E+03  0.45359667412E+03  0.00000000000E+00 0. -1.
<mgrwt>
<rscale>  4 0.39835897E+03</rscale>
<asrwt>0</asrwt>
<pdfrwt beam="1">  1       21 0.66605883E-01 0.39835897E+03</pdfrwt>
<pdfrwt beam="2">  1       21 0.81650440E-01 0.39835897E+03</pdfrwt>
<totfact> 0.23988639E+03</totfact>
</mgrwt>
</event>
<event>
 5    0  0.1972558E-002  0.3507761E+03  0.7546771E-02  0.1062297E+00
         21   -1    0    0  503  502  0.00000000000E+00  0.00000000000E+00  0.67289756521E+03  0.67289756521E+03  0.00000000000E+00 0.  1.
         21   -1    0    0  501  503 -0.00000000000E+00 -0.00000000000E+00 -0.17786841607E+03  0.17786841607E+03  0.00000000000E+00 0.  1.
         25    1    1    2    0    0 -0.27312575249E+03 -0.18116612446E+03  0.18923349314E+03  0.39856386722E+03  0.12500000000E+03 0.  0.
          3    1    1    2  501    0  0.95391159479E+01  0.24989774610E+02  0.24898695899E+02  0.36543516875E+02  0.00000000000E+00 0. -1.
         -3    1    1    2    0  502  0.26358663655E+03  0.15617634985E+03  0.28089696011E+03  0.41565859719E+03  0.00000000000E+00 0.  1.
<mgrwt>
<rscale>  4 0.35077606E+03</rscale>
<asrwt>0</asrwt>
<pdfrwt beam="1">  1       21 0.10352270E+00 0.35077606E+03</pdfrwt>
<pdfrwt beam="2">  1       21 0.27364372E-01 0.35077606E+03</pdfrwt>
<totfact> 0.88403665E+03</totfact>
</mgrwt>
</event>
<event>
 5    0  0.1972558E-002  0.2986143E+03  0.7546771E-02  0.1085935E+00
         21   -1    0    0  503  502  0.00000000000E+00  0.00000000000E+00  0.74236590124E+03  0.74236590124E+03  0.00000000000E+00 0.  1.
         21   -1    0    0  501  503 -0.00000000000E+00 -0.00000000000E+00 -0.18906468429E+03  0.18906468429E+03  0.00000000000E+00 0.  1.
         25    1    1    2    0    0  0.16740426177E+03  0.21890187836E+03  0.11832985808E+02  0.30283203061E+03  0.12500000000E+03 0.  0.
          4    1    1    2  501    0 -0.54397152897E+02  0.17198621983E+02  0.84069191687E+02  0.10159956610E+03  0.00000000000E+00 0. -1.
         -4    1    1    2    0  502 -0.11300710887E+03 -0.23610050034E+03  0.45739903946E+03  0.52699898882E+03  0.00000000000E+00 0.  1.
<mgrwt>
<rscale>  4 0.29861430E+03</rscale>
<asrwt>0</asrwt>
<pdfrwt beam="1">  1       21 0.11421014E+00 0.29861430E+03</pdfrwt>
<pdfrwt beam="2">  1       21 0.29086875E-01 0.29861430E+03</pdfrwt>
<totfact> 0.63105919E+03</totfact>
</mgrwt>
</event>
<event>
 5    0  0.1972558E-002  0.2461790E+03  0.7546771E-02  0.1115744E+00
         21   -1    0    0  501  502  0.00000000000E+00  0.00000000000E+00  0.26715273693E+03  0.26715273693E+03  0.00000000000E+00 0.  1.
         21   -1    0    0  502  503 -0.00000000000E+00 -0.00000000000E+00 -0.57947490870E+03  0.57947490870E+03  0.00000000000E+00 0. -1.
         25    1    1    2    0    0 -0.33882945489E+02  0.22969454984E+03 -0.44593638761E+03  0.51806553834E+03  0.12500000000E+03 0.  0.
          4    1    1    2  501    0  0.59269827322E+02 -0.15875259164E+03 -0.63832988761E+01  0.16957607228E+03  0.00000000000E+00 0. -1.
         -4    1    1    2    0  503 -0.25386881833E+02 -0.70941958200E+02  0.13999751472E+03  0.15898603502E+03  0.00000000000E+00 0.  1.
<mgrwt>
<rscale>  4 0.24617899E+03</rscale>
<asrwt>0</asrwt>
<pdfrwt beam="1">  1       21 0.41100421E-01 0.24617899E+03</pdfrwt>
<pdfrwt beam="2">  1       21 0.89149985E-01 0.24617899E+03</pdfrwt>
<totfact> 0.58990661E+03</totfact>
</mgrwt>
</event>
<event>
 5    0  0.1972558E-002  0.3408079E+03  0.7546771E-02  0.1066452E+00
         21   -1    0    0  501  502  0.00000000000E+00  0.00000000000E+00  0.17914483923E+04  0.17914483923E+04  0.00000000000E+00 0.  1.
         21   -1    0    0  502  503 -0.00000000000E+00 -0.00000000000E+00 -0.19743995272E+03  0.19743995272E+03  0.00000000000E+00 0. -1.
         25    1    1    2    0    0 -0.44010306868E+02  0.31136574094E+03  0.10090236897E+03  0.35311728902E+03  0.12500000000E+03 0.  0.
          2    1    1    2  501    0  0.12392388685E+03  0.16178660560E+02  0.11426628035E+04  0.11494769077E+04  0.00000000000E+00 0. -1.
         -2    1    1    2    0  503 -0.79913579979E+02 -0.32754440150E+03  0.35044326706E+03  0.48629414827E+03  0.00000000000E+00 0.  1.
<mgrwt>
<rscale>  4 0.34080790E+03</rscale>
<asrwt>0</asrwt>
<pdfrwt beam="1">  1       21 0.27560743E+00 0.34080790E+03</pdfrwt>
<pdfrwt beam="2">  1       21 0.30375379E-01 0.34080790E+03</pdfrwt>
<totfact> 0.42140980E+02</totfact>
</mgrwt>
</event>
<event>
 5    0  0.1972558E-002  0.1970984E+03  0.7546771E-02  0.1152210E+00
         21   -1    0    0  501  502  0.00000000000E+00  0.00000000000E+00  0.32938095991E+03  0.32938095991E+03  0.00000000000E+00 0. -1.
         21   -1    0    0  502  503 -0.00000000000E+00 -0.00000000000E+00 -0.38098672200E+03  0.38098672200E+03  0.00000000000E+00 0. -1.
         25    1    1    2    0    0 -0.70000921811E+02 -0.20466117731E+03 -0.10794997107E+03  0.27214797961E+03  0.12500000000E+03 0.  0.
          4    1    1    2  501    0 -0.23825044106E+02  0.14521594509E+03  0.20518704345E+03  0.25250153710E+03  0.00000000000E+00 0. -1.
         -4    1    1    2    0  503  0.93825965917E+02  0.59445232215E+02 -0.14884283447E+03  0.18571816520E+03  0.00000000000E+00 0.  1.
<mgrwt>
<rscale>  4 0.19709840E+03</rscale>
<asrwt>0</asrwt>
<pdfrwt beam="1">  1       21 0.50673994E-01 0.19709840E+03</pdfrwt>
<pdfrwt beam="2">  1       21 0.58613342E-01 0.19709840E+03</pdfrwt>
<totfact> 0.10064066E+04</totfact>
</mgrwt>
</event>
<event>
 5    0  0.1972558E-002  0.2965682E+03  0.7546771E-02  0.1086969E+00
         21   -1    0    0  503  502  0.00000000000E+00  0.00000000000E+00  0.29737148626E+03  0.29737148626E+03  0.00000000000E+00 0.  1.
         21   -1    0    0  501  503 -0.00000000000E+00 -0.00000000000E+00 -0.36243835887E+03  0.36243835887E+03  0.00000000000E+00 0.  1.
         25    1    1    2    0    0  0.13754759226E+03 -0.19765998095E+03  0.18851902562E+02  0.27197279723E+03  0.12500000000E+03 0.  0.
          3    1    1    2  501    0  0.27720679945E+02 -0.36216598500E+02  0.53411502171E+02  0.70234369562E+02  0.00000000000E+00 0. -1.
         -3    1    1    2    0  502 -0.16526827220E+03  0.23387657945E+03 -0.13733027734E+03  0.31760267834E+03  0.00000000000E+00 0.  1.
<mgrwt>
<rscale>  4 0.29656819E+03</rscale>
<asrwt>0</asrwt>
<pdfrwt beam="1">  1       21 0.45749460E-01 0.29656819E+03</pdfrwt>
<pdfrwt beam="2">  1       21 0.55759747E-01 0.29656819E+03</pdfrwt>
<totfact> 0.13123085E+04</totfact>
</mgrwt>
</event>
<event>
 5    0  0.1972558E-002  0.3179872E+03  0.7546771E-02  0.1076579E+00
         21   -1    0    0  501  502  0.00000000000E+00  0.00000000000E+00  0.30741048329E+04  0.30741048329E+04  0.00000000000E+00 0. -1.
         21   -1    0    0  502  503 -0.00000000000E+00 -0.00000000000E+00 -0.23656624764E+03  0.23656624764E+03  0.00000000000E+00 0. -1.
         25    1    1    2    0    0 -0.19077490152E+03 -0.14249449072E+03 -0.64841608618E+02  0.27663907378E+03  0.12500000000E+03 0.  0.
          3    1    1    2  501    0  0.26011667608E+03  0.13882771067E+03  0.29402104060E+04  0.29549570302E+04  0.00000000000E+00 0. -1.
         -3    1    1    2    0  503 -0.69341774556E+02  0.36667800495E+01 -0.37830212138E+02  0.79074976604E+02  0.00000000000E+00 0.  1.
<mgrwt>
<rscale>  4 0.31798724E+03</rscale>
<asrwt>0</asrwt>
<pdfrwt beam="1">  1       21 0.47293918E+00 0.31798724E+03</pdfrwt>
<pdfrwt beam="2">  1       21 0.36394809E-01 0.31798724E+03</pdfrwt>
<totfact> 0.17454016E+01</totfact>
</mgrwt>
</event>
<event>
 5    0  0.1972558E-002  0.2777577E+03  0.7546771E-02  0.1096920E+00
         21   -1    0    0  501  502  0.00000000000E+00  0.00000000000E+00  0.25952895128E+03  0.25952895128E+03  0.00000000000E+00 0.  1.
         21   -1    0    0  502  503 -0.00000000000E+00 -0.00000000000E+00 -0.80528604134E+03  0.80528604134E+03  0.00000000000E+00 0. -1.
         25    1    1    2    0    0 -0.23342734609E+03  0.10153557222E+03 -0.49517027484E+03  0.57062807450E+03  0.12500000000E+03 0.  0.
          2    1    1    2  501    0  0.48785928816E+01 -0.29352839981E+02  0.16751029174E+03  0.17013255927E+03  0.00000000000E+00 0.  1.
         -2    1    1    2    0  503  0.22854875320E+03 -0.72182732236E+02 -0.21809710696E+03  0.32405435885E+03  0.00000000000E+00 0. -1.
<mgrwt>
<rscale>  4 0.27775769E+03</rscale>
<asrwt>0</asrwt>
<pdfrwt beam="1">  1       21 0.39927531E-01 0.27775769E+03</pdfrwt>
<pdfrwt beam="2">  1       21 0.12389016E+00 0.27775769E+03</pdfrwt>
<totfact> 0.27666585E+03</totfact>
</mgrwt>
</event>
<event>
 5    0  0.1972558E-002  0.3121253E+03  0.7546771E-02  0.1079332E+00
         21   -1    0    0  501  502  0.00000000000E+00  0.00000000000E+00  0.26008677887E+04  0.26008677887E+04  0.00000000000E+00 0. -1.
         21   -1    0    0  502  503 -0.00000000000E+00 -0.00000000000E+00 -0.79305656687E+02  0.79305656687E+02  0.00000000000E+00 0. -1.
         25    1    1    2    0    0 -0.26647421536E+03 -0.11752736753E+03  0.31470761324E+03  0.44663975573E+03  0.12500000000E+03 0.  0.
          3    1    1    2  501    0  0.25958649336E+02  0.60827969733E+00  0.85967790804E+03  0.86006995474E+03  0.00000000000E+00 0.  1.
         -3    1    1    2    0  503  0.24051556603E+03  0.11691908783E+03  0.13471766107E+04  0.13734637349E+04  0.00000000000E+00 0. -1.
<mgrwt>
<rscale>  4 0.31212526E+03</rscale>
<asrwt>0</asrwt>
<pdfrwt beam="1">  1       21 0.40013344E+00 0.31212526E+03</pdfrwt>
<pdfrwt beam="2">  1       21 0.12200872E-01 0.31212526E+03</pdfrwt>
<totfact> 0.42625558E+02</totfact>
</mgrwt>
</event>
<event>
 5    0  0.1972558E-002  0.2896708E+03  0.7546771E-02  0.1090521E+00
         21   -1    0    0  501  502  0.00000000000E+00  0.00000000000E+00  0.12175765234E+03  0.12175765234E+03  0.00000000000E+00 0. -1.
         21   -1    0    0  502  503 -0.00000000000E+00 -0.00000000000E+00 -0.85064050179E+03  0.85064050179E+03  0.00000000000E+00 0. -1.
         25    1    1    2    0    0 -0.25402857403E+03 -0.14802621088E+03 -0.31028298393E+03  0.44535694185E+03  0.12500000000E+03 0.  0.
          1    1    1    2  501    0  0.21799213448E+03  0.11172434389E+03 -0.40630518067E+03  0.47443313496E+03  0.00000000000E+00 0. -1.
         -1    1    1    2    0  503  0.36036439556E+02  0.36301866997E+02 -0.12294684847E+02  0.52608077315E+02  0.00000000000E+00 0.  1.
<mgrwt>
<rscale>  4 0.28967080E+03</rscale>
<asrwt>0</asrwt>
<pdfrwt beam="1">  1       21 0.18731946E-01 0.28967080E+03</pdfrwt>
<pdfrwt beam="2">  1       21 0.13086777E+00 0.28967080E+03</pdfrwt>
<totfact> 0.10451156E+04</totfact>
</mgrwt>
</event>
<event>
 5    0  0.1972558E-002  0.3065994E+03  0.7546771E-02  0.1081987E+00
         21   -1    0    0  501  502  0.00000000000E+00  0.00000000000E+00  0.50938882887E+03  0.50938882887E+03  0.00000000000E+00 0. -1.
         21   -1    0    0  502  503 -0.00000000000E+00 -0.00000000000E+00 -0.26364174356E+03  0.26364174356E+03  0.00000000000E+00 0. -1.
         25    1    1    2    0    0  0.62019653673E+02 -0.27380460227E+03 -0.83430127067E+02  0.31843521126E+03  0.12500000000E+03 0.  0.
          1    1    1    2  501    0  0.19957558806E+02  0.76976100547E+01  0.73568639093E+02  0.76615285759E+02  0.00000000000E+00 0.  1.
         -1    1    1    2    0  503 -0.81977212478E+02  0.26610699222E+03  0.25560857328E+03  0.37798007541E+03  0.00000000000E+00 0. -1.
<mgrwt>
<rscale>  4 0.30659939E+03</rscale>
<asrwt>0</asrwt>
<pdfrwt beam="1">  1       21 0.78367512E-01 0.30659939E+03</pdfrwt>
<pdfrwt beam="2">  1       21 0.40560268E-01 0.30659939E+03</pdfrwt>
<totfact> 0.78968511E+03</totfact>
</mgrwt>
</event>
<event>
 5    0  0.1972558E-002  0.2162532E+03  0.7546771E-02  0.1136708E+00
         21   -1    0    0  501  502  0.00000000000E+00  0.00000000000E+00  0.14925591467E+04  0.14925591467E+04  0.00000000000E+00 0. -1.
         21   -1    0    0  502  503 -0.00000000000E+00 -0.00000000000E+00 -0.91828307827E+02  0.91828307827E+02  0.00000000000E+00 0.  1.
         25    1    1    2    0    0 -0.60607494755E+02  0.19597353494E+03  0.22709969922E+03  0.33057248555E+03  0.12500000000E+03 0.  0.
          2    1    1    2  501    0  0.76624693491E+02 -0.14146283960E+03  0.12523266388E+03  0.20387814680E+03  0.00000000000E+00 0.  1.
         -2    1    1    2    0  503 -0.16017198736E+02 -0.54510695341E+02  0.10483984758E+04  0.10499368222E+04  0.00000000000E+00 0. -1.
<mgrwt>
<rscale>  4 0.21625317E+03</rscale>
<asrwt>0</asrwt>
<pdfrwt beam="1">  1       21 0.22962447E+00 0.21625317E+03</pdfrwt>
<pdfrwt beam="2">  1       21 0.14127433E-01 0.21625317E+03</pdfrwt>
<totfact> 0.37570473E+03</totfact>
</mgrwt>
</event>
<event>
 5    0  0.1972558E-002  0.2494199E+03  0.7546771E-02  0.1113672E+00
         21   -1    0    0  501  502  0.00000000000E+00  0.00000000000E+00  0.78397702766E+03  0.78397702766E+03  0.00000000000E+00 0. -1.
         21   -1    0    0  502  503 -0.00000000000E+00 -0.00000000000E+00 -0.25320301413E+03  0.25320301413E+03  0.00000000000E+00 0. -1.
         25    1    1    2    0    0 -0.20818869234E+03  0.62728725693E+02 -0.91785263133E+02  0.26707107514E+03  0.12500000000E+03 0.  0.
          3    1    1    2  501    0  0.21193854718E+03 -0.32199745276E+02  0.83320468668E+02  0.22999363442E+03  0.00000000000E+00 0. -1.
         -3    1    1    2    0  503 -0.37498548323E+01 -0.30528980417E+02  0.53923880799E+03  0.54011533222E+03  0.00000000000E+00 0.  1.
<mgrwt>
<rscale>  4 0.24941988E+03</rscale>
<asrwt>0</asrwt>
<pdfrwt beam="1">  1       21 0.12061185E+00 0.24941988E+03</pdfrwt>
<pdfrwt beam="2">  1       21 0.38954310E-01 0.24941988E+03</pdfrwt>
<totfact> 0.31702705E+03</totfact>
</mgrwt>
</event>
<event>
 5    0  0.1972558E-002  0.2342076E+03  0.7546771E-02  0.1123713E+00
         21   -1    0    0  501  502  0.00000000000E+00  0.00000000000E+00  0.13886178210E+03  0.13886178210E+03  0.00000000000E+00 0. -1.
         21   -1    0    0  502  503 -0.00000000000E+00 -0.00000000000E+00 -0.71391555324E+03  0.71391555324E+03  0.00000000000E+00 0. -1.
         25    1    1    2    0    0  0.12763748022E+03  0.17507729597E+03 -0.47212173536E+03  0.53429141760E+03  0.12500000000E+03 0.  0.
          2    1    1    2  501    0 -0.27987881361E+02 -0.30540946981E+02  0.63996575905E+02  0.76234065044E+02  0.00000000000E+00 0.  1.
         -2    1    1    2    0  503 -0.99649598859E+02 -0.14453634899E+03 -0.16692861169E+03  0.24225185269E+03  0.00000000000E+00 0. -1.
<mgrwt>
<rscale>  4 0.23420760E+03</rscale>
<asrwt>0</asrwt>
<pdfrwt beam="1">  1       21 0.21363351E-01 0.23420760E+03</pdfrwt>
<pdfrwt beam="2">  1       21 0.10983316E+00 0.23420760E+03</pdfrwt>
<totfact> 0.13021566E+04</totfact>
</mgrwt>
</event>
<event>
 5    0  0.1972558E-002  0.2425693E+03  0.7546771E-02  0.1118093E+00
         21   -1    0    0  501  502  0.00000000000E+00  0.00000000000E+00  0.13953824480E+03  0.13953824480E+03  0.00000000000E+00 0.  1.
         21   -1    0    0  502  503 -0.00000000000E+00 -0.00000000000E+00 -0.10147799965E+04  0.10147799965E+04  0.00000000000E+00 0. -1.
         25    1    1    2    0    0  0.11823410758E+03 -0.17014481300E+03 -0.42403486456E+03  0.48822036822E+03  0.12500000000E+03 0.  0.
          1    1    1    2  501    0 -0.16304301976E+02 -0.11937135989E+02  0.86757860278E+02  0.89080030302E+02  0.00000000000E+00 0.  1.
         -1    1    1    2    0  503 -0.10192980561E+03  0.18208194899E+03 -0.53796474742E+03  0.57701784278E+03  0.00000000000E+00 0. -1.
<mgrwt>
<rscale>  4 0.24256929E+03</rscale>
<asrwt>0</asrwt>
<pdfrwt beam="1">  1       21 0.21467422E-01 0.24256929E+03</pdfrwt>
<pdfrwt beam="2">  1       21 0.15612000E+00 0.24256929E+03</pdfrwt>
<totfact> 0.52290879E+03</totfact>
</mgrwt>
</event>
<event>
 5    0  0.1972558E-002  0.2465135E+03  0.7546771E-02  0.1115528E+00
         21   -1    0    0  501  502  0.00000000000E+00  0.00000000000E+00  0.17747585619E+04  0.17747585619E+04  0.00000000000E+00 0.  1.
         21   -1    0    0  502  503 -0.00000000000E+00 -0.00000000000E+00 -0.12549143560E+03  0.12549143560E+03  0.00000000000E+00 0. -1.
         25    1    1    2    0    0 -0.18444338566E+03 -0.11135708273E+03  0.23117066258E+02  0.25015827218E+03  0.12500000000E+03 0.  0.
          2    1    1    2  501    0  0.27188880990E+02 -0.47082854015E+01  0.82442928030E+03  0.82489092698E+03  0.00000000000E+00 0.  1.
         -2    1    1    2    0  503  0.15725450467E+03  0.11606536813E+03  0.80172077974E+03  0.82520079834E+03  0.00000000000E+00 0. -1.
<mgrwt>
<rscale>  4 0.24651351E+03</rscale>
<asrwt>0</asrwt>
<pdfrwt beam="1">  1       21 0.27303976E+00 0.24651351E+03</pdfrwt>
<pdfrwt beam="2">  1       21 0.19306376E-01 0.24651351E+03</pdfrwt>
<totfact> 0.11323178E+03</totfact>
</mgrwt>
</event>
<event>
 5    0  0.1972558E-002  0.5079874E+03  0.7546771E-02  0.1032801E+00
         21   -1    0    0  501  502  0.00000000000E+00  0.00000000000E+00  0.75893894534E+03  0.75893894534E+03  0.00000000000E+00 0.  1.
         21   -1    0    0  502  503 -0.00000000000E+00 -0.00000000000E+00 -0.75958474822E+03  0.75958474822E+03  0.00000000000E+00 0. -1.
         25    1    1    2    0    0  0.73968872376E+02 -0.22650866895E+03 -0.11049106153E+03  0.29087943528E+03  0.12500000000E+03 0.  0.
          4    1    1    2  501    0 -0.55605441288E+03  0.26634218942E+03 -0.20585833359E+03  0.65000948105E+03  0.00000000000E+00 0.  1.
         -4    1    1    2    0  503  0.48208554050E+03 -0.39833520471E+02  0.31570359224E+03  0.57763477723E+03  0.00000000000E+00 0. -1.
<mgrwt>
<rscale>  4 0.43337013E+03</rscale>
<asrwt>0</asrwt>
<pdfrwt beam="1">  1       21 0.11675984E+00 0.50798744E+03</pdfrwt>
<pdfrwt beam="2">  1       21 0.11685919E+00 0.50798744E+03</pdfrwt>
<totfact> 0.25533168E+02</totfact>
</mgrwt>
</event>
<event>
 5    0  0.1972558E-002  0.2415965E+03  0.7546771E-02  0.1118734E+00
         21   -1    0    0  501  502  0.00000000000E+00  0.00000000000E+00  0.11340859704E+04  0.11340859704E+04  0.00000000000E+00 0.  1.
         21   -1    0    0  502  503 -0.00000000000E+00 -0.00000000000E+00 -0.96422377882E+02  0.96422377882E+02  0.00000000000E+00 0. -1.
         25    1    1    2    0    0 -0.20204160179E+03 -0.13664223342E+03  0.18698261885E+03  0.33178217035E+03  0.12500000000E+03 0.  0.
          4    1    1    2  501    0  0.68903114984E+02  0.14057365285E+03  0.44442522562E+03  0.47119250025E+03  0.00000000000E+00 0. -1.
         -4    1    1    2    0  503  0.13313848681E+03 -0.39314194213E+01  0.40625574809E+03  0.42753367772E+03  0.00000000000E+00 0.  1.
<mgrwt>
<rscale>  4 0.24159652E+03</rscale>
<asrwt>0</asrwt>
<pdfrwt beam="1">  1       21 0.17447476E+00 0.24159652E+03</pdfrwt>
<pdfrwt beam="2">  1       21 0.14834213E-01 0.24159652E+03</pdfrwt>
<totfact> 0.76593584E+03</totfact>
</mgrwt>
</event>
<event>
 5    0  0.1972558E-002  0.2379002E+03  0.7546771E-02  0.1121200E+00
         21   -1    0    0  501  502  0.00000000000E+00  0.00000000000E+00  0.36026146455E+03  0.36026146455E+03  0.00000000000E+00 0. -1.
         21   -1    0    0  502  503 -0.00000000000E+00 -0.00000000000E+00 -0.53016223092E+03  0.53016223092E+03  0.00000000000E+00 0.  1.
         25    1    1    2    0    0 -0.78420541513E+02  0.18849210108E+03 -0.43884902027E+03  0.49989250454E+03  0.12500000000E+03 0.  0.
          1    1    1    2  501    0  0.15064355156E+01 -0.20085563438E+03  0.22284963773E+03  0.30001202683E+03  0.00000000000E+00 0.  1.
         -1    1    1    2    0  503  0.76914105997E+02  0.12363533292E+02  0.46098616162E+02  0.90519164097E+02  0.00000000000E+00 0. -1.
<mgrwt>
<rscale>  4 0.23790020E+03</rscale>
<asrwt>0</asrwt>
<pdfrwt beam="1">  1       21 0.55424840E-01 0.23790020E+03</pdfrwt>
<pdfrwt beam="2">  1       21 0.81563420E-01 0.23790020E+03</pdfrwt>
<totfact> 0.39041650E+03</totfact>
</mgrwt>
</event>
<event>
 5    0  0.1972558E-002  0.3412365E+03  0.7546771E-02  0.1066270E+00
         21   -1    0    0  501  502  0.00000000000E+00  0.00000000000E+00  0.61891350823E+03  0.61891350823E+03  0.00000000000E+00 0. -1.
         21   -1    0    0  502  503 -0.00000000000E+00 -0.00000000000E+00 -0.23910570355E+03  0.23910570355E+03  0.00000000000E+00 0. -1.
         25    1    1    2    0    0  0.11881164186E+03 -0.30371865031E+03  0.87955615385E+02  0.36016998079E+03  0.12500000000E+03 0.  0.
          3    1    1    2  501    0 -0.49696022815E+02  0.31169744799E+03  0.28940869875E+03  0.42823169976E+03  0.00000000000E+00 0. -1.
         -3    1    1    2    0  503 -0.69115619048E+02 -0.79787976800E+01  0.24434905413E+01  0.69617531231E+02  0.00000000000E+00 0.  1.
<mgrwt>
<rscale>  4 0.34123653E+03</rscale>
<asrwt>0</asrwt>
<pdfrwt beam="1">  1       21 0.95217462E-01 0.34123653E+03</pdfrwt>
<pdfrwt beam="2">  1       21 0.36785493E-01 0.34123653E+03</pdfrwt>
<totfact> 0.60266491E+03</totfact>
</mgrwt>
</event>
<event>
 5    0  0.1972558E-002  0.2123357E+03  0.7546771E-02  0.1139730E+00
         21   -1    0    0  501  502  0.00000000000E+00  0.00000000000E+00  0.22996472995E+03  0.22996472995E+03  0.00000000000E+00 0.  1.
         21   -1    0    0  502  503 -0.00000000000E+00 -0.00000000000E+00 -0.64196864619E+03  0.64196864619E+03  0.00000000000E+00 0. -1.
         25    1    1    2    0    0 -0.20051808945E+03 -0.66974747789E+02 -0.28483204726E+03  0.37609495634E+03  0.12500000000E+03 0.  0.
          2    1    1    2  501    0  0.46473716430E+02  0.46345905433E+02  0.15798581114E+03  0.17107678332E+03  0.00000000000E+00 0.  1.
         -2    1    1    2    0  503  0.15404437302E+03  0.20628842357E+02 -0.28515768012E+03  0.32476163648E+03  0.00000000000E+00 0. -1.
<mgrwt>
<rscale>  4 0.21233566E+03</rscale>
<asrwt>0</asrwt>
<pdfrwt beam="1">  1       21 0.35379190E-01 0.21233566E+03</pdfrwt>
<pdfrwt beam="2">  1       21 0.98764406E-01 0.21233566E+03</pdfrwt>
<totfact> 0.64175521E+03</totfact>
</mgrwt>
</event>
<event>
 5    0  0.1972558E-002  0.2819188E+03  0.7546771E-02  0.1094646E+00
         21   -1    0    0  501  502  0.00000000000E+00  0.00000000000E+00  0.43646356973E+03  0.43646356973E+03  0.00000000000E+00 0.  1.
         21   -1    0    0  502  503 -0.00000000000E+00 -0.00000000000E+00 -0.53871681982E+03  0.53871681982E+03  0.00000000000E+00 0. -1.
         25    1    1    2    0    0  0.68036560156E+02  0.21791359975E+03 -0.13947982666E+03  0.29528788075E+03  0.12500000000E+03 0.  0.
          2    1    1    2  501    0 -0.52636608600E+02  0.56249927507E+02  0.29401277697E+03  0.30393778958E+03  0.00000000000E+00 0.  1.
         -2    1    1    2    0  503 -0.15399951555E+02 -0.27416352726E+03 -0.25678620040E+03  0.37595471922E+03  0.00000000000E+00 0. -1.
<mgrwt>
<rscale>  4 0.28191880E+03</rscale>
<asrwt>0</asrwt>
<pdfrwt beam="1">  1       21 0.67148242E-01 0.28191880E+03</pdfrwt>
<pdfrwt beam="2">  1       21 0.82879510E-01 0.28191880E+03</pdfrwt>
<totfact> 0.24128864E+03</totfact>
</mgrwt>
</event>
<event>
 5    0  0.1972558E-002  0.2378069E+03  0.7546771E-02  0.1121263E+00
         21   -1    0    0  503  502  0.00000000000E+00  0.00000000000E+00  0.60057594283E+03  0.60057594283E+03  0.00000000000E+00 0. -1.
         21   -1    0    0  501  503 -0.00000000000E+00 -0.00000000000E+00 -0.44728040918E+03  0.44728040918E+03  0.00000000000E+00 0. -1.
         25    1    1    2    0    0 -0.79877502210E+02 -0.19135941445E+03 -0.27627512045E+03  0.36735784058E+03  0.12500000000E+03 0.  0.
          1    1    1    2  501    0 -0.63247065657E+02  0.21643057783E+03 -0.16149728682E+01  0.22548834664E+03  0.00000000000E+00 0.  1.
         -1    1    1    2    0  502  0.14312456787E+03 -0.25071163379E+02  0.43118562696E+03  0.45501016479E+03  0.00000000000E+00 0. -1.
<mgrwt>
<rscale>  4 0.23780686E+03</rscale>
<asrwt>0</asrwt>
<pdfrwt beam="1">  1       21 0.92396299E-01 0.23780686E+03</pdfrwt>
<pdfrwt beam="2">  1       21 0.68812371E-01 0.23780686E+03</pdfrwt>
<totfact> 0.18303156E+03</totfact>
</mgrwt>
</event>
<event>
 5    0  0.1972558E-002  0.2072301E+03  0.7546771E-02  0.1143778E+00
         21   -1    0    0  501  502  0.00000000000E+00  0.00000000000E+00  0.11956821060E+03  0.11956821060E+03  0.00000000000E+00 0. -1.
         21   -1    0    0  502  503 -0.00000000000E+00 -0.00000000000E+00 -0.68245823080E+03  0.68245823080E+03  0.00000000000E+00 0.  1.
         25    1    1    2    0    0  0.27764012773E+01 -0.20975625425E+03 -0.40572203680E+03  0.47354066958E+03  0.12500000000E+03 0.  0.
          4    1    1    2  501    0  0.27129622742E+02  0.74995519627E+02  0.38873246152E+02  0.88721325851E+02  0.00000000000E+00 0. -1.
         -4    1    1    2    0  503 -0.29906024020E+02  0.13476073462E+03 -0.19604122954E+03  0.23976444597E+03  0.00000000000E+00 0.  1.
<mgrwt>
<rscale>  4 0.20723006E+03</rscale>
<asrwt>0</asrwt>
<pdfrwt beam="1">  1       21 0.18395109E-01 0.20723006E+03</pdfrwt>
<pdfrwt beam="2">  1       21 0.10499357E+00 0.20723006E+03</pdfrwt>
<totfact> 0.19528904E+04</totfact>
</mgrwt>
</event>
<event>
 5    0  0.1972558E-002  0.2911575E+03  0.7546771E-02  0.1089746E+00
         21   -1    0    0  501  502  0.00000000000E+00  0.00000000000E+00  0.12844709738E+04  0.12844709738E+04  0.00000000000E+00 0. -1.
         21   -1    0    0  502  503 -0.00000000000E+00 -0.00000000000E+00 -0.10972156313E+03  0.10972156313E+03  0.00000000000E+00 0.  1.
         25    1    1    2    0    0  0.21792730382E+03  0.29029593024E+02  0.14819040850E+03  0.29312185895E+03  0.12500000000E+03 0.  0.
          2    1    1    2  501    0 -0.27326979393E+03  0.52759845286E+02  0.89030264810E+03  0.93279085907E+03  0.00000000000E+00 0. -1.
         -2    1    1    2    0  503  0.55342490111E+02 -0.81789438309E+02  0.13625635409E+03  0.16827981894E+03  0.00000000000E+00 0.  1.
<mgrwt>
<rscale>  4 0.29115747E+03</rscale>
<asrwt>0</asrwt>
<pdfrwt beam="1">  1       21 0.19761091E+00 0.29115747E+03</pdfrwt>
<pdfrwt beam="2">  1       21 0.16880241E-01 0.29115747E+03</pdfrwt>
<totfact> 0.40728770E+03</totfact>
</mgrwt>
</event>
<event>
 5    0  0.1972558E-002  0.4413053E+03  0.7546771E-02  0.1030347E+00
         21   -1    0    0  501  502  0.00000000000E+00  0.00000000000E+00  0.12681125789E+04  0.12681125789E+04  0.00000000000E+00 0.  1.
         21   -1    0    0  502  503 -0.00000000000E+00 -0.00000000000E+00 -0.84456855309E+03  0.84456855309E+03  0.00000000000E+00 0.  1.
         25    1    1    2    0    0 -0.42048852480E+03 -0.81794348280E+02 -0.59918643109E+03  0.74709456838E+03  0.12500000000E+03 0.  0.
          3    1    1    2  501    0  0.17728623443E+02  0.24327555161E+02  0.95220419689E+03  0.95267988675E+03  0.00000000000E+00 0.  1.
         -3    1    1    2    0  503  0.40275990136E+03  0.57466793119E+02  0.70526260014E+02  0.41290667687E+03  0.00000000000E+00 0. -1.
<mgrwt>
<rscale>  4 0.44130532E+03</rscale>
<asrwt>0</asrwt>
<pdfrwt beam="1">  1       21 0.19509424E+00 0.44130532E+03</pdfrwt>
<pdfrwt beam="2">  1       21 0.12993362E+00 0.44130532E+03</pdfrwt>
<totfact> 0.49190965E+01</totfact>
</mgrwt>
</event>
<event>
 5    0  0.1972558E-002  0.2716544E+03  0.7546771E-02  0.1100336E+00
         21   -1    0    0  501  502  0.00000000000E+00  0.00000000000E+00  0.21723883963E+03  0.21723883963E+03  0.00000000000E+00 0.  1.
         21   -1    0    0  502  503 -0.00000000000E+00 -0.00000000000E+00 -0.10489095380E+04  0.10489095380E+04  0.00000000000E+00 0.  1.
         25    1    1    2    0    0 -0.24697581413E+03 -0.51503696559E+02 -0.82579480549E+03  0.87247449493E+03  0.12500000000E+03 0.  0.
          2    1    1    2  501    0  0.21684437280E+03 -0.10690131418E+02 -0.12895665329E+03  0.25251847329E+03  0.00000000000E+00 0.  1.
         -2    1    1    2    0  503  0.30131441327E+02  0.62193827977E+02  0.12308076047E+03  0.14115540936E+03  0.00000000000E+00 0. -1.
<mgrwt>
<rscale>  4 0.27165444E+03</rscale>
<asrwt>0</asrwt>
<pdfrwt beam="1">  1       21 0.33421360E-01 0.27165444E+03</pdfrwt>
<pdfrwt beam="2">  1       21 0.16137070E+00 0.27165444E+03</pdfrwt>
<totfact> 0.19859437E+03</totfact>
</mgrwt>
</event>
<event>
 5    0  0.1972558E-002  0.2293831E+03  0.7546771E-02  0.1127075E+00
         21   -1    0    0  501  502  0.00000000000E+00  0.00000000000E+00  0.18150775620E+03  0.18150775620E+03  0.00000000000E+00 0. -1.
         21   -1    0    0  502  503 -0.00000000000E+00 -0.00000000000E+00 -0.54901155662E+03  0.54901155662E+03  0.00000000000E+00 0.  1.
         25    1    1    2    0    0 -0.31284719793E+02 -0.21224882466E+03 -0.37871524235E+03  0.45285597275E+03  0.12500000000E+03 0.  0.
          1    1    1    2  501    0  0.45348464996E+02  0.15521519956E+03 -0.71014212492E+02  0.17661047486E+03  0.00000000000E+00 0.  1.
         -1    1    1    2    0  503 -0.14063745203E+02  0.57033625099E+02  0.82225654431E+02  0.10105286521E+03  0.00000000000E+00 0. -1.
<mgrwt>
<rscale>  4 0.22938314E+03</rscale>
<asrwt>0</asrwt>
<pdfrwt beam="1">  1       21 0.27924271E-01 0.22938314E+03</pdfrwt>
<pdfrwt beam="2">  1       21 0.84463315E-01 0.22938314E+03</pdfrwt>
<totfact> 0.14555896E+04</totfact>
</mgrwt>
</event>
<event>
 5    0  0.1972558E-002  0.2403628E+03  0.7546771E-02  0.1119551E+00
         21   -1    0    0  501  502  0.00000000000E+00  0.00000000000E+00  0.12275134163E+03  0.12275134163E+03  0.00000000000E+00 0.  1.
         21   -1    0    0  502  503 -0.00000000000E+00 -0.00000000000E+00 -0.64124750395E+03  0.64124750395E+03  0.00000000000E+00 0.  1.
         25    1    1    2    0    0  0.19276898162E+03  0.10839590177E+03 -0.34446233993E+03  0.42800567219E+03  0.12500000000E+03 0.  0.
          4    1    1    2  501    0 -0.19273710061E+03 -0.16846840094E+02 -0.97414842469E+02  0.21661269008E+03  0.00000000000E+00 0.  1.
         -4    1    1    2    0  503 -0.31881013011E-01 -0.91549061676E+02 -0.76618979925E+02  0.11938048331E+03  0.00000000000E+00 0. -1.
<mgrwt>
<rscale>  4 0.24036277E+03</rscale>
<asrwt>0</asrwt>
<pdfrwt beam="1">  1       21 0.18884822E-01 0.24036277E+03</pdfrwt>
<pdfrwt beam="2">  1       21 0.98653460E-01 0.24036277E+03</pdfrwt>
<totfact> 0.21192040E+04</totfact>
</mgrwt>
</event>
<event>
 5    0  0.1972558E-002  0.2343738E+03  0.7546771E-02  0.1123599E+00
         21   -1    0    0  501  502  0.00000000000E+00  0.00000000000E+00  0.25988405918E+03  0.25988405918E+03  0.00000000000E+00 0. -1.
         21   -1    0    0  502  503 -0.00000000000E+00 -0.00000000000E+00 -0.76863275425E+03  0.76863275425E+03  0.00000000000E+00 0.  1.
         25    1    1    2    0    0 -0.10701325597E+03 -0.17238578984E+03 -0.26091392878E+03  0.35336917766E+03  0.12500000000E+03 0.  0.
          3    1    1    2  501    0  0.14128840036E+03 -0.29719691442E+02 -0.39646974296E+03  0.42194067026E+03  0.00000000000E+00 0.  1.
         -3    1    1    2    0  503 -0.34275144392E+02  0.20210548128E+03  0.14863497667E+03  0.25320696550E+03  0.00000000000E+00 0. -1.
<mgrwt>
<rscale>  4 0.23437378E+03</rscale>
<asrwt>0</asrwt>
<pdfrwt beam="1">  1       21 0.39982164E-01 0.23437378E+03</pdfrwt>
<pdfrwt beam="2">  1       21 0.11825119E+00 0.23437378E+03</pdfrwt>
<totfact> 0.31926904E+03</totfact>
</mgrwt>
</event>
<event>
 5    0  0.1972558E-002  0.2524808E+03  0.7546771E-02  0.1111747E+00
         21   -1    0    0  501  502  0.00000000000E+00  0.00000000000E+00  0.22070529124E+03  0.22070529124E+03  0.00000000000E+00 0.  1.
         21   -1    0    0  502  503 -0.00000000000E+00 -0.00000000000E+00 -0.88578579605E+03  0.88578579605E+03  0.00000000000E+00 0.  1.
         25    1    1    2    0    0  0.17410006263E+03  0.14900274143E+03 -0.77528488713E+03  0.81804908470E+03  0.12500000000E+03 0.  0.
          3    1    1    2  501    0 -0.19814984580E+02 -0.62936934263E+02  0.88583599361E+02  0.11045698432E+03  0.00000000000E+00 0.  1.
         -3    1    1    2    0  503 -0.15428507805E+03 -0.86065807170E+02  0.21620782956E+02  0.17798501827E+03  0.00000000000E+00 0. -1.
<mgrwt>
<rscale>  4 0.25248079E+03</rscale>
<asrwt>0</asrwt>
<pdfrwt beam="1">  1       21 0.33954660E-01 0.25248079E+03</pdfrwt>
<pdfrwt beam="2">  1       21 0.13627474E+00 0.25248079E+03</pdfrwt>
<totfact> 0.30570579E+03</totfact>
</mgrwt>
</event>
<event>
 5    0  0.1972558E-002  0.3123587E+03  0.7546771E-02  0.1079221E+00
         21   -1    0    0  501  502  0.00000000000E+00  0.00000000000E+00  0.95647120798E+02  0.95647120798E+02  0.00000000000E+00 0. -1.
         21   -1    0    0  502  503 -0.00000000000E+00 -0.00000000000E+00 -0.11279164425E+04  0.11279164425E+04  0.00000000000E+00 0. -1.
         25    1    1    2    0    0  0.99383161943E+02 -0.26845105859E+03 -0.73736742545E+03  0.80079879112E+03  0.12500000000E+03 0.  0.
          3    1    1    2  501    0 -0.43034685463E+02  0.61811750108E+02 -0.27549419889E+02  0.80197550714E+02  0.00000000000E+00 0.  1.
         -3    1    1    2    0  503 -0.56348476480E+02  0.20663930849E+03 -0.26735247640E+03  0.34256722151E+03  0.00000000000E+00 0. -1.
<mgrwt>
<rscale>  4 0.31235874E+03</rscale>
<asrwt>0</asrwt>
<pdfrwt beam="1">  1       21 0.14714942E-01 0.31235874E+03</pdfrwt>
<pdfrwt beam="2">  1       21 0.17352560E+00 0.31235874E+03</pdfrwt>
<totfact> 0.75719188E+03</totfact>
</mgrwt>
</event>
<event>
 5    0  0.1972558E-002  0.2451769E+03  0.7546771E-02  0.1116391E+00
         21   -1    0    0  501  502  0.00000000000E+00  0.00000000000E+00  0.10771544446E+04  0.10771544446E+04  0.00000000000E+00 0.  1.
         21   -1    0    0  502  503 -0.00000000000E+00 -0.00000000000E+00 -0.14524244451E+03  0.14524244451E+03  0.00000000000E+00 0.  1.
         25    1    1    2    0    0 -0.11330802775E+03 -0.28202916006E+03  0.15049916124E+03  0.36146113735E+03  0.12500000000E+03 0.  0.
          2    1    1    2  501    0  0.34008164519E+02  0.19603017431E+03  0.67174015551E+03  0.70058491350E+03  0.00000000000E+00 0.  1.
         -2    1    1    2    0  503  0.79299863235E+02  0.85998985752E+02  0.10967268333E+03  0.16035083825E+03  0.00000000000E+00 0. -1.
<mgrwt>
<rscale>  4 0.24517689E+03</rscale>
<asrwt>0</asrwt>
<pdfrwt beam="1">  1       21 0.16571606E+00 0.24517689E+03</pdfrwt>
<pdfrwt beam="2">  1       21 0.22344992E-01 0.24517689E+03</pdfrwt>
<totfact> 0.41114982E+03</totfact>
</mgrwt>
</event>
<event>
 5    0  0.1972558E-002  0.2083280E+03  0.7546771E-02  0.1142897E+00
         21   -1    0    0  501  502  0.00000000000E+00  0.00000000000E+00  0.17493306250E+03  0.17493306250E+03  0.00000000000E+00 0.  1.
         21   -1    0    0  502  503 -0.00000000000E+00 -0.00000000000E+00 -0.57847878558E+03  0.57847878558E+03  0.00000000000E+00 0.  1.
         25    1    1    2    0    0 -0.98636997255E+02 -0.19481087816E+03 -0.40655862401E+02  0.25486944624E+03  0.12500000000E+03 0.  0.
          1    1    1    2  501    0  0.63312007157E+02  0.38923162795E+02  0.25479997586E+02  0.78566234027E+02  0.00000000000E+00 0. -1.
         -1    1    1    2    0  503  0.35324990098E+02  0.15588771537E+03 -0.38836985827E+03  0.41997616782E+03  0.00000000000E+00 0.  1.
<mgrwt>
<rscale>  4 0.20832800E+03</rscale>
<asrwt>0</asrwt>
<pdfrwt beam="1">  1       21 0.26912779E-01 0.20832800E+03</pdfrwt>
<pdfrwt beam="2">  1       21 0.88996736E-01 0.20832800E+03</pdfrwt>
<totfact> 0.14034840E+04</totfact>
</mgrwt>
</event>
<event>
 5    0  0.1972558E-002  0.3283990E+03  0.7546771E-02  0.1071847E+00
         21   -1    0    0  501  502  0.00000000000E+00  0.00000000000E+00  0.64699840450E+03  0.64699840450E+03  0.00000000000E+00 0. -1.
         21   -1    0    0  502  503 -0.00000000000E+00 -0.00000000000E+00 -0.47099871569E+03  0.47099871569E+03  0.00000000000E+00 0. -1.
         25    1    1    2    0    0  0.31092836940E+03 -0.78232764957E+01 -0.24562973768E+03  0.41556783151E+03  0.12500000000E+03 0.  0.
          4    1    1    2  501    0 -0.28990050510E+03  0.24578295152E+02  0.11237414573E+02  0.29115747446E+03  0.00000000000E+00 0.  1.
         -4    1    1    2    0  503 -0.21027864299E+02 -0.16755018656E+02  0.41039201192E+03  0.41127181422E+03  0.00000000000E+00 0. -1.
<mgrwt>
<rscale>  4 0.32839899E+03</rscale>
<asrwt>0</asrwt>
<pdfrwt beam="1">  1       21 0.99538216E-01 0.32839899E+03</pdfrwt>
<pdfrwt beam="2">  1       21 0.72461341E-01 0.32839899E+03</pdfrwt>
<totfact> 0.12886103E+03</totfact>
</mgrwt>
</event>
<event>
 5    0  0.1972558E-002  0.3285853E+03  0.7546771E-02  0.1071765E+00
         21   -1    0    0  501  502  0.00000000000E+00  0.00000000000E+00  0.32718725402E+03  0.32718725402E+03  0.00000000000E+00 0. -1.
         21   -1    0    0  502  503 -0.00000000000E+00 -0.00000000000E+00 -0.43465886777E+03  0.43465886777E+03  0.00000000000E+00 0. -1.
         25    1    1    2    0    0  0.66552345922E+02 -0.30790305367E+03 -0.21993052945E+03  0.40401478066E+03  0.12500000000E+03 0.  0.
          1    1    1    2  501    0 -0.63928469197E+02  0.27615462480E+03  0.50162252591E+02  0.28786190710E+03  0.00000000000E+00 0. -1.
         -1    1    1    2    0  503 -0.26238767246E+01  0.31748428869E+02  0.62296663105E+02  0.69969434032E+02  0.00000000000E+00 0.  1.
<mgrwt>
<rscale>  4 0.32858531E+03</rscale>
<asrwt>0</asrwt>
<pdfrwt beam="1">  1       21 0.50336501E-01 0.32858531E+03</pdfrwt>
<pdfrwt beam="2">  1       21 0.66870595E-01 0.32858531E+03</pdfrwt>
<totfact> 0.71274784E+03</totfact>
</mgrwt>
</event>
<event>
 5    0  0.1972558E-002  0.2647273E+03  0.7546771E-02  0.1104336E+00
         21   -1    0    0  501  502  0.00000000000E+00  0.00000000000E+00  0.14558493685E+04  0.14558493685E+04  0.00000000000E+00 0. -1.
         21   -1    0    0  502  503 -0.00000000000E+00 -0.00000000000E+00 -0.11056643884E+03  0.11056643884E+03  0.00000000000E+00 0.  1.
         25    1    1    2    0    0 -0.29646436688E+03 -0.12788613058E+03  0.38240764974E+03  0.51585520624E+03  0.12500000000E+03 0.  0.
          1    1    1    2  501    0  0.78600779554E+02  0.12248156250E+03  0.15007414042E+03  0.20905038465E+03  0.00000000000E+00 0.  1.
         -1    1    1    2    0  503  0.21786358733E+03  0.54045680815E+01  0.81280113951E+03  0.84151021647E+03  0.00000000000E+00 0. -1.
<mgrwt>
<rscale>  4 0.26472734E+03</rscale>
<asrwt>0</asrwt>
<pdfrwt beam="1">  1       21 0.22397681E+00 0.26472734E+03</pdfrwt>
<pdfrwt beam="2">  1       21 0.17010222E-01 0.26472734E+03</pdfrwt>
<totfact> 0.27774346E+03</totfact>
</mgrwt>
</event>
<event>
 5    0  0.1972558E-002  0.3086298E+03  0.7546771E-02  0.1081005E+00
         21   -1    0    0  501  502  0.00000000000E+00  0.00000000000E+00  0.12134119875E+04  0.12134119875E+04  0.00000000000E+00 0. -1.
         21   -1    0    0  502  503 -0.00000000000E+00 -0.00000000000E+00 -0.81748130767E+03  0.81748130767E+03  0.00000000000E+00 0. -1.
         25    1    1    2    0    0  0.11298052522E+03  0.27404238885E+03 -0.56700478933E+03  0.65190740223E+03  0.12500000000E+03 0.  0.
          4    1    1    2  501    0 -0.47343748840E+02 -0.25539300283E+02  0.10906522092E+04  0.10919779887E+04  0.00000000000E+00 0. -1.
         -4    1    1    2    0  503 -0.65636776378E+02 -0.24850308857E+03 -0.12771673998E+03  0.28700790427E+03  0.00000000000E+00 0.  1.
<mgrwt>
<rscale>  4 0.30862980E+03</rscale>
<asrwt>0</asrwt>
<pdfrwt beam="1">  1       21 0.18667877E+00 0.30862980E+03</pdfrwt>
<pdfrwt beam="2">  1       21 0.12576636E+00 0.30862980E+03</pdfrwt>
<totfact> 0.67390277E+01</totfact>
</mgrwt>
</event>
<event>
 5    0  0.1972558E-002  0.2431745E+03  0.7546771E-02  0.1117696E+00
         21   -1    0    0  501  502  0.00000000000E+00  0.00000000000E+00  0.40634804392E+03  0.40634804392E+03  0.00000000000E+00 0. -1.
         21   -1    0    0  502  503 -0.00000000000E+00 -0.00000000000E+00 -0.26939971577E+03  0.26939971577E+03  0.00000000000E+00 0. -1.
         25    1    1    2    0    0  0.15068258233E+03  0.16626302337E+03 -0.13863945851E+03  0.29188102545E+03  0.12500000000E+03 0.  0.
          1    1    1    2  501    0 -0.61629580890E+02 -0.16557124081E+03  0.16358479386E+03  0.24077380631E+03  0.00000000000E+00 0. -1.
         -1    1    1    2    0  503 -0.89053001444E+02 -0.69178256244E+00  0.11200299280E+03  0.14309292793E+03  0.00000000000E+00 0.  1.
<mgrwt>
<rscale>  4 0.24317454E+03</rscale>
<asrwt>0</asrwt>
<pdfrwt beam="1">  1       21 0.62515083E-01 0.24317454E+03</pdfrwt>
<pdfrwt beam="2">  1       21 0.41446110E-01 0.24317454E+03</pdfrwt>
<totfact> 0.12895307E+04</totfact>
</mgrwt>
</event>
<event>
 5    0  0.1972558E-002  0.2184819E+03  0.7546771E-02  0.1135020E+00
         21   -1    0    0  501  502  0.00000000000E+00  0.00000000000E+00  0.22915779505E+03  0.22915779505E+03  0.00000000000E+00 0.  1.
         21   -1    0    0  502  503 -0.00000000000E+00 -0.00000000000E+00 -0.16290943375E+04  0.16290943375E+04  0.00000000000E+00 0. -1.
         25    1    1    2    0    0  0.56669433750E+02 -0.24387334897E+03 -0.90819282302E+03  0.95032880565E+03  0.12500000000E+03 0.  0.
          1    1    1    2  501    0  0.11598465006E+02  0.10774157883E+03  0.18492112312E+03  0.21433290455E+03  0.00000000000E+00 0.  1.
         -1    1    1    2    0  503 -0.68267898756E+02  0.13613177014E+03 -0.67666484250E+03  0.69359042230E+03  0.00000000000E+00 0. -1.
<mgrwt>
<rscale>  4 0.21848192E+03</rscale>
<asrwt>0</asrwt>
<pdfrwt beam="1">  1       21 0.35255045E-01 0.21848192E+03</pdfrwt>
<pdfrwt beam="2">  1       21 0.25062990E+00 0.21848192E+03</pdfrwt>
<totfact> 0.49505033E+02</totfact>
</mgrwt>
</event>
<event>
 5    0  0.1972558E-002  0.2269984E+03  0.7546771E-02  0.1128770E+00
         21   -1    0    0  501  502  0.00000000000E+00  0.00000000000E+00  0.75672799041E+02  0.75672799041E+02  0.00000000000E+00 0. -1.
         21   -1    0    0  502  503 -0.00000000000E+00 -0.00000000000E+00 -0.10624442169E+04  0.10624442169E+04  0.00000000000E+00 0.  1.
         25    1    1    2    0    0  0.20261446013E+03 -0.47808369579E+02 -0.68253037341E+03  0.72443838267E+03  0.12500000000E+03 0.  0.
          1    1    1    2  501    0 -0.34817394134E+02  0.15596157269E+02  0.22978287553E+02  0.44536420542E+02  0.00000000000E+00 0. -1.
         -1    1    1    2    0  503 -0.16779706600E+03  0.32212212310E+02 -0.32721933196E+03  0.36914221269E+03  0.00000000000E+00 0.  1.
<mgrwt>
<rscale>  4 0.22699835E+03</rscale>
<asrwt>0</asrwt>
<pdfrwt beam="1">  1       21 0.11641970E-01 0.22699835E+03</pdfrwt>
<pdfrwt beam="2">  1       21 0.16345294E+00 0.22699835E+03</pdfrwt>
<totfact> 0.14366884E+04</totfact>
</mgrwt>
</event>
<event>
 5    0  0.1972558E-002  0.5286471E+03  0.7546771E-02  0.1006561E+00
         21   -1    0    0  503  502  0.00000000000E+00  0.00000000000E+00  0.39265812250E+03  0.39265812250E+03  0.00000000000E+00 0. -1.
         21   -1    0    0  501  503 -0.00000000000E+00 -0.00000000000E+00 -0.10903181052E+04  0.10903181052E+04  0.00000000000E+00 0. -1.
         25    1    1    2    0    0 -0.14115864831E+03 -0.51413734635E+03 -0.56401309225E+03  0.78612896088E+03  0.12500000000E+03 0.  0.
          4    1    1    2  501    0  0.17211238976E+03  0.16352643632E+02  0.22227764366E+02  0.17431051939E+03  0.00000000000E+00 0.  1.
         -4    1    1    2    0  502 -0.30953741449E+02  0.49778470272E+03 -0.15587465477E+03  0.52253674738E+03  0.00000000000E+00 0. -1.
<mgrwt>
<rscale>  4 0.52864709E+03</rscale>
<asrwt>0</asrwt>
<pdfrwt beam="1">  1       21 0.60408943E-01 0.52864709E+03</pdfrwt>
<pdfrwt beam="2">  1       21 0.16774124E+00 0.52864709E+03</pdfrwt>
<totfact> 0.45275521E+02</totfact>
</mgrwt>
</event>
<event>
 5    0  0.1972558E-002  0.3002019E+03  0.7546771E-02  0.1085140E+00
         21   -1    0    0  501  502  0.00000000000E+00  0.00000000000E+00  0.19189707881E+03  0.19189707881E+03  0.00000000000E+00 0. -1.
         21   -1    0    0  502  503 -0.00000000000E+00 -0.00000000000E+00 -0.55163120757E+03  0.55163120757E+03  0.00000000000E+00 0. -1.
         25    1    1    2    0    0  0.54377306899E+02  0.27874961172E+03 -0.27743403722E+03  0.41623657041E+03  0.12500000000E+03 0.  0.
          4    1    1    2  501    0 -0.40958395148E+02 -0.25636798588E+03 -0.11626117564E+03  0.28446229149E+03  0.00000000000E+00 0. -1.
         -4    1    1    2    0  503 -0.13418911751E+02 -0.22381625839E+02  0.33961084101E+02  0.42829424478E+02  0.00000000000E+00 0.  1.
<mgrwt>
<rscale>  4 0.30020193E+03</rscale>
<asrwt>0</asrwt>
<pdfrwt beam="1">  1       21 0.29522627E-01 0.30020193E+03</pdfrwt>
<pdfrwt beam="2">  1       21 0.84866341E-01 0.30020193E+03</pdfrwt>
<totfact> 0.12466193E+04</totfact>
</mgrwt>
</event>
<event>
 5    0  0.1972558E-002  0.2890472E+03  0.7546771E-02  0.1090848E+00
         21   -1    0    0  501  502  0.00000000000E+00  0.00000000000E+00  0.12189097139E+04  0.12189097139E+04  0.00000000000E+00 0. -1.
         21   -1    0    0  502  503 -0.00000000000E+00 -0.00000000000E+00 -0.46558396183E+03  0.46558396183E+03  0.00000000000E+00 0. -1.
         25    1    1    2    0    0 -0.27514765927E+03 -0.61943137063E+01 -0.28464936475E+03  0.41520460592E+03  0.12500000000E+03 0.  0.
          3    1    1    2  501    0  0.20909808042E+03 -0.17309683579E+03  0.66868373401E+02  0.27956376939E+03  0.00000000000E+00 0.  1.
         -3    1    1    2    0  503  0.66049578849E+02  0.17929114950E+03  0.97110674347E+03  0.98972530046E+03  0.00000000000E+00 0. -1.
<mgrwt>
<rscale>  4 0.28904719E+03</rscale>
<asrwt>0</asrwt>
<pdfrwt beam="1">  1       21 0.18752457E+00 0.28904719E+03</pdfrwt>
<pdfrwt beam="2">  1       21 0.71628302E-01 0.28904719E+03</pdfrwt>
<totfact> 0.25792488E+02</totfact>
</mgrwt>
</event>
<event>
 5    0  0.1972558E-002  0.2803052E+03  0.7546771E-02  0.1095522E+00
         21   -1    0    0  501  502  0.00000000000E+00  0.00000000000E+00  0.27223261067E+03  0.27223261067E+03  0.00000000000E+00 0.  1.
         21   -1    0    0  502  503 -0.00000000000E+00 -0.00000000000E+00 -0.56995909603E+03  0.56995909603E+03  0.00000000000E+00 0. -1.
         25    1    1    2    0    0 -0.23964126042E+03 -0.53620396322E+02 -0.31226737674E+03  0.41646007633E+03  0.12500000000E+03 0.  0.
          2    1    1    2  501    0 -0.70257412405E+01 -0.29256482091E+02  0.13548159247E+03  0.13878243650E+03  0.00000000000E+00 0.  1.
         -2    1    1    2    0  503  0.24666700166E+03  0.82876878413E+02 -0.12094070108E+03  0.28694919387E+03  0.00000000000E+00 0. -1.
<mgrwt>
<rscale>  4 0.28030523E+03</rscale>
<asrwt>0</asrwt>
<pdfrwt beam="1">  1       21 0.41881941E-01 0.28030523E+03</pdfrwt>
<pdfrwt beam="2">  1       21 0.87686014E-01 0.28030523E+03</pdfrwt>
<totfact> 0.57839553E+03</totfact>
</mgrwt>
</event>
<event>
 5    0  0.1972558E-002  0.2712744E+03  0.7546771E-02  0.1100552E+00
         21   -1    0    0  501  502  0.00000000000E+00  0.00000000000E+00  0.15917198426E+03  0.15917198426E+03  0.00000000000E+00 0.  1.
         21   -1    0    0  502  503 -0.00000000000E+00 -0.00000000000E+00 -0.48623943717E+03  0.48623943717E+03  0.00000000000E+00 0. -1.
         25    1    1    2    0    0 -0.18741178889E+03  0.15113442108E+03 -0.29004700760E+03  0.39713607047E+03  0.12500000000E+03 0.  0.
          4    1    1    2  501    0  0.12716769940E+03 -0.10355248659E+03 -0.47640670722E+02  0.17077580261E+03  0.00000000000E+00 0. -1.
         -4    1    1    2    0  503  0.60244089489E+02 -0.47581934496E+02  0.10620225413E+02  0.77499548363E+02  0.00000000000E+00 0.  1.
<mgrwt>
<rscale>  4 0.27127438E+03</rscale>
<asrwt>0</asrwt>
<pdfrwt beam="1">  1       21 0.24487998E-01 0.27127438E+03</pdfrwt>
<pdfrwt beam="2">  1       21 0.74806067E-01 0.27127438E+03</pdfrwt>
<totfact> 0.24211692E+04</totfact>
</mgrwt>
</event>
<event>
 5    0  0.1972558E-002  0.2417885E+03  0.7546771E-02  0.1118607E+00
         21   -1    0    0  501  502  0.00000000000E+00  0.00000000000E+00  0.10130289074E+03  0.10130289074E+03  0.00000000000E+00 0.  1.
         21   -1    0    0  502  503 -0.00000000000E+00 -0.00000000000E+00 -0.66351763455E+03  0.66351763455E+03  0.00000000000E+00 0.  1.
         25    1    1    2    0    0  0.61552122859E+02 -0.19297328848E+03 -0.42774102409E+03  0.48950458382E+03  0.12500000000E+03 0.  0.
          4    1    1    2  501    0 -0.82368500881E+02  0.20058619605E+03 -0.11326693005E+03  0.24464012227E+03  0.00000000000E+00 0.  1.
         -4    1    1    2    0  503  0.20816378022E+02 -0.76129075678E+01 -0.21206789671E+02  0.30675819203E+02  0.00000000000E+00 0. -1.
<mgrwt>
<rscale>  4 0.24178853E+03</rscale>
<asrwt>0</asrwt>
<pdfrwt beam="1">  1       21 0.15585060E-01 0.24178853E+03</pdfrwt>
<pdfrwt beam="2">  1       21 0.10207964E+00 0.24178853E+03</pdfrwt>
<totfact> 0.27847919E+04</totfact>
</mgrwt>
</event>
<event>
 5    0  0.1972558E-002  0.2286834E+03  0.7546771E-02  0.1127570E+00
         21   -1    0    0  501  502  0.00000000000E+00  0.00000000000E+00  0.53514862597E+02  0.53514862597E+02  0.00000000000E+00 0. -1.
         21   -1    0    0  502  503 -0.00000000000E+00 -0.00000000000E+00 -0.12915858840E+04  0.12915858840E+04  0.00000000000E+00 0. -1.
         25    1    1    2    0    0  0.12701734115E+03  0.17219322111E+03 -0.73698540623E+03  0.77753224972E+03  0.12500000000E+03 0.  0.
          1    1    1    2  501    0 -0.47601879491E+02 -0.15634787808E+02 -0.17445486660E+02  0.53054034019E+02  0.00000000000E+00 0.  1.
         -1    1    1    2    0  503 -0.79415461662E+02 -0.15655843330E+03 -0.48364012851E+03  0.51451446286E+03  0.00000000000E+00 0. -1.
<mgrwt>
<rscale>  4 0.22868340E+03</rscale>
<asrwt>0</asrwt>
<pdfrwt beam="1">  1       21 0.82330562E-02 0.22868340E+03</pdfrwt>
<pdfrwt beam="2">  1       21 0.19870551E+00 0.22868340E+03</pdfrwt>
<totfact> 0.15207260E+04</totfact>
</mgrwt>
</event>
<event>
 5    0  0.1972558E-002  0.3407768E+03  0.7546771E-02  0.1066466E+00
         21   -1    0    0  501  502  0.00000000000E+00  0.00000000000E+00  0.11007604828E+03  0.11007604828E+03  0.00000000000E+00 0.  1.
         21   -1    0    0  502  503 -0.00000000000E+00 -0.00000000000E+00 -0.13296153873E+04  0.13296153873E+04  0.00000000000E+00 0.  1.
         25    1    1    2    0    0 -0.17727959694E+03 -0.25875099627E+03 -0.87394631837E+03  0.93690303711E+03  0.12500000000E+03 0.  0.
          3    1    1    2  501    0  0.19860367491E+03  0.25616348396E+03 -0.35376588470E+03  0.47980563917E+03  0.00000000000E+00 0.  1.
         -3    1    1    2    0  503 -0.21324077967E+02  0.25875123097E+01  0.81728640071E+01  0.22982759347E+02  0.00000000000E+00 0. -1.
<mgrwt>
<rscale>  4 0.34077678E+03</rscale>
<asrwt>0</asrwt>
<pdfrwt beam="1">  1       21 0.16934778E-01 0.34077678E+03</pdfrwt>
<pdfrwt beam="2">  1       21 0.20455620E+00 0.34077678E+03</pdfrwt>
<totfact> 0.35409104E+03</totfact>
</mgrwt>
</event>
<event>
 5    0  0.1972558E-002  0.2493932E+03  0.7546771E-02  0.1113689E+00
         21   -1    0    0  501  502  0.00000000000E+00  0.00000000000E+00  0.26298936966E+03  0.26298936966E+03  0.00000000000E+00 0. -1.
         21   -1    0    0  502  503 -0.00000000000E+00 -0.00000000000E+00 -0.41258837322E+03  0.41258837322E+03  0.00000000000E+00 0.  1.
         25    1    1    2    0    0 -0.20659732265E+03  0.12681114414E+02 -0.21035478565E+03  0.32049555416E+03  0.12500000000E+03 0.  0.
          1    1    1    2  501    0 -0.22964466861E+02  0.71063729664E+01  0.11573126564E+03  0.11820149374E+03  0.00000000000E+00 0.  1.
         -1    1    1    2    0  503  0.22956178951E+03 -0.19787487380E+02 -0.54975483550E+02  0.23688069498E+03  0.00000000000E+00 0. -1.
<mgrwt>
<rscale>  4 0.24939323E+03</rscale>
<asrwt>0</asrwt>
<pdfrwt beam="1">  1       21 0.40459903E-01 0.24939323E+03</pdfrwt>
<pdfrwt beam="2">  1       21 0.63475134E-01 0.24939323E+03</pdfrwt>
<totfact> 0.13059030E+04</totfact>
</mgrwt>
</event>
<event>
 5    0  0.1972558E-002  0.2586891E+03  0.7546771E-02  0.1107933E+00
         21   -1    0    0  501  502  0.00000000000E+00  0.00000000000E+00  0.14193222703E+03  0.14193222703E+03  0.00000000000E+00 0. -1.
         21   -1    0    0  502  503 -0.00000000000E+00 -0.00000000000E+00 -0.64887954472E+03  0.64887954472E+03  0.00000000000E+00 0.  1.
         25    1    1    2    0    0 -0.23346140095E+03  0.71350258549E+02 -0.41558645270E+03  0.49792789116E+03  0.12500000000E+03 0.  0.
          3    1    1    2  501    0  0.17444411818E+03 -0.10374242272E+03 -0.97722061269E+02  0.22526171867E+03  0.00000000000E+00 0. -1.
         -3    1    1    2    0  503  0.59017282765E+02  0.32392164169E+02  0.63611962817E+01  0.67622161919E+02  0.00000000000E+00 0.  1.
<mgrwt>
<rscale>  4 0.25868914E+03</rscale>
<asrwt>0</asrwt>
<pdfrwt beam="1">  1       21 0.21835727E-01 0.25868914E+03</pdfrwt>
<pdfrwt beam="2">  1       21 0.99827623E-01 0.25868914E+03</pdfrwt>
<totfact> 0.15532405E+04</totfact>
</mgrwt>
</event>
<event>
 5    0  0.1972558E-002  0.2691706E+03  0.7546771E-02  0.1101755E+00
         21   -1    0    0  501  502  0.00000000000E+00  0.00000000000E+00  0.12191136820E+04  0.12191136820E+04  0.00000000000E+00 0. -1.
         21   -1    0    0  502  503 -0.00000000000E+00 -0.00000000000E+00 -0.93815630339E+02  0.93815630339E+02  0.00000000000E+00 0.  1.
         25    1    1    2    0    0 -0.17349199222E+03  0.18014151726E+03  0.28966525831E+03  0.40259334256E+03  0.12500000000E+03 0.  0.
          1    1    1    2  501    0  0.22447523958E+02 -0.11048823503E+02  0.52585159381E+03  0.52644645174E+03  0.00000000000E+00 0.  1.
         -1    1    1    2    0  503  0.15104446826E+03 -0.16909269376E+03  0.30978119953E+03  0.38388951804E+03  0.00000000000E+00 0. -1.
<mgrwt>
<rscale>  4 0.26917056E+03</rscale>
<asrwt>0</asrwt>
<pdfrwt beam="1">  1       21 0.18755594E+00 0.26917056E+03</pdfrwt>
<pdfrwt beam="2">  1       21 0.14433175E-01 0.26917056E+03</pdfrwt>
<totfact> 0.64307711E+03</totfact>
</mgrwt>
</event>
<event>
 5    0  0.1972558E-002  0.2510616E+03  0.7546771E-02  0.1112636E+00
         21   -1    0    0  501  502  0.00000000000E+00  0.00000000000E+00  0.60317331034E+03  0.60317331034E+03  0.00000000000E+00 0.  1.
         21   -1    0    0  502  503 -0.00000000000E+00 -0.00000000000E+00 -0.39761159638E+03  0.39761159638E+03  0.00000000000E+00 0.  1.
         25    1    1    2    0    0 -0.27329715308E+03 -0.33533537211E+02 -0.22403431378E+03  0.37634054492E+03  0.12500000000E+03 0.  0.
          3    1    1    2  501    0  0.19868525000E+03  0.79452138473E+02  0.47845926607E+03  0.52412950706E+03  0.00000000000E+00 0.  1.
         -3    1    1    2    0  503  0.74611903083E+02 -0.45918601262E+02 -0.48863238335E+02  0.10031485475E+03  0.00000000000E+00 0. -1.
<mgrwt>
<rscale>  4 0.25106161E+03</rscale>
<asrwt>0</asrwt>
<pdfrwt beam="1">  1       21 0.92795894E-01 0.25106161E+03</pdfrwt>
<pdfrwt beam="2">  1       21 0.61171015E-01 0.25106161E+03</pdfrwt>
<totfact> 0.23221423E+03</totfact>
</mgrwt>
</event>
<event>
 5    0  0.1972558E-002  0.2126110E+03  0.7546771E-02  0.1139515E+00
         21   -1    0    0  501  502  0.00000000000E+00  0.00000000000E+00  0.30712853302E+03  0.30712853302E+03  0.00000000000E+00 0. -1.
         21   -1    0    0  502  503 -0.00000000000E+00 -0.00000000000E+00 -0.19355463714E+03  0.19355463714E+03  0.00000000000E+00 0. -1.
         25    1    1    2    0    0 -0.92550584505E+02 -0.17810319487E+03 -0.17725091034E+01  0.23646247166E+03  0.12500000000E+03 0.  0.
          1    1    1    2  501    0  0.94262638199E+02  0.11913767569E+03  0.21582741003E+02  0.15344394885E+03  0.00000000000E+00 0. -1.
         -1    1    1    2    0  503 -0.17120536939E+01  0.58965519182E+02  0.93763663982E+02  0.11077674965E+03  0.00000000000E+00 0.  1.
<mgrwt>
<rscale>  4 0.21261096E+03</rscale>
<asrwt>0</asrwt>
<pdfrwt beam="1">  1       21 0.47250544E-01 0.21261096E+03</pdfrwt>
<pdfrwt beam="2">  1       21 0.29777636E-01 0.21261096E+03</pdfrwt>
<totfact> 0.45879302E+04</totfact>
</mgrwt>
</event>
<event>
 5    0  0.1972558E-002  0.2360367E+03  0.7546771E-02  0.1122462E+00
         21   -1    0    0  501  502  0.00000000000E+00  0.00000000000E+00  0.23786542650E+02  0.23786542650E+02  0.00000000000E+00 0.  1.
         21   -1    0    0  502  503 -0.00000000000E+00 -0.00000000000E+00 -0.21948898277E+04  0.21948898277E+04  0.00000000000E+00 0. -1.
         25    1    1    2    0    0 -0.70961958645E+02 -0.18722372274E+03 -0.14571514280E+04  0.14761448459E+04  0.12500000000E+03 0.  0.
          3    1    1    2  501    0  0.52222080935E+02  0.17220451957E+03 -0.63551044600E+03  0.66049607817E+03  0.00000000000E+00 0.  1.
         -3    1    1    2    0  503  0.18739877710E+02  0.15019203177E+02 -0.78441411031E+02  0.82035446273E+02  0.00000000000E+00 0. -1.
<mgrwt>
<rscale>  4 0.23603670E+03</rscale>
<asrwt>0</asrwt>
<pdfrwt beam="1">  1       21 0.36594683E-02 0.23603670E+03</pdfrwt>
<pdfrwt beam="2">  1       21 0.33767534E+00 0.23603670E+03</pdfrwt>
<totfact> 0.89651466E+03</totfact>
</mgrwt>
</event>
<event>
 5    0  0.1972558E-002  0.3407717E+03  0.7546771E-02  0.1066468E+00
         21   -1    0    0  501  502  0.00000000000E+00  0.00000000000E+00  0.21316820005E+04  0.21316820005E+04  0.00000000000E+00 0. -1.
         21   -1    0    0  502  503 -0.00000000000E+00 -0.00000000000E+00 -0.11449394553E+03  0.11449394553E+03  0.00000000000E+00 0.  1.
         25    1    1    2    0    0  0.32366851384E+03 -0.10164003538E+02  0.24600458793E+03  0.42545019815E+03  0.12500000000E+03 0.  0.
          1    1    1    2  501    0 -0.24893260048E+02  0.27643961845E+02  0.87693895863E+03  0.87772763440E+03  0.00000000000E+00 0. -1.
         -1    1    1    2    0  503 -0.29877525380E+03 -0.17479958307E+02  0.89424450842E+03  0.94299811350E+03  0.00000000000E+00 0.  1.
<mgrwt>
<rscale>  4 0.34077167E+03</rscale>
<asrwt>0</asrwt>
<pdfrwt beam="1">  1       21 0.32795105E+00 0.34077167E+03</pdfrwt>
<pdfrwt beam="2">  1       21 0.17614455E-01 0.34077167E+03</pdfrwt>
<totfact> 0.58617012E+02</totfact>
</mgrwt>
</event>
<event>
 5    0  0.1972558E-002  0.3385306E+03  0.7546771E-02  0.1067423E+00
         21   -1    0    0  501  502  0.00000000000E+00  0.00000000000E+00  0.12041345886E+04  0.12041345886E+04  0.00000000000E+00 0.  1.
         21   -1    0    0  502  503 -0.00000000000E+00 -0.00000000000E+00 -0.20445951645E+03  0.20445951645E+03  0.00000000000E+00 0. -1.
         25    1    1    2    0    0  0.26762852279E+03  0.16600073386E+03  0.15153611237E+02  0.33916942933E+03  0.12500000000E+03 0.  0.
          4    1    1    2  501    0 -0.25454723526E+03 -0.18410668257E+03  0.54290970513E+03  0.62724836666E+03  0.00000000000E+00 0. -1.
         -4    1    1    2    0  503 -0.13081287531E+02  0.18105948707E+02  0.44161175577E+03  0.44217630906E+03  0.00000000000E+00 0.  1.
<mgrwt>
<rscale>  4 0.33853061E+03</rscale>
<asrwt>0</asrwt>
<pdfrwt beam="1">  1       21 0.18525147E+00 0.33853061E+03</pdfrwt>
<pdfrwt beam="2">  1       21 0.31455311E-01 0.33853061E+03</pdfrwt>
<totfact> 0.14525559E+03</totfact>
</mgrwt>
</event>
<event>
 5    0  0.1972558E-002  0.4219580E+03  0.7546771E-02  0.1036431E+00
         21   -1    0    0  501  502  0.00000000000E+00  0.00000000000E+00  0.85670771476E+03  0.85670771476E+03  0.00000000000E+00 0.  1.
         21   -1    0    0  502  503 -0.00000000000E+00 -0.00000000000E+00 -0.29628010431E+03  0.29628010431E+03  0.00000000000E+00 0.  1.
         25    1    1    2    0    0  0.40305951088E+03 -0.98738027288E+02  0.16973098248E+03  0.46544577961E+03  0.12500000000E+03 0.  0.
          4    1    1    2  501    0 -0.37539358729E+03  0.11801579621E+03  0.11524755142E+03  0.41003667110E+03  0.00000000000E+00 0.  1.
         -4    1    1    2    0  503 -0.27665923584E+02 -0.19277768924E+02  0.27544907654E+03  0.27750536836E+03  0.00000000000E+00 0. -1.
<mgrwt>
<rscale>  4 0.42195797E+03</rscale>
<asrwt>0</asrwt>
<pdfrwt beam="1">  1       21 0.13180119E+00 0.42195797E+03</pdfrwt>
<pdfrwt beam="2">  1       21 0.45581555E-01 0.42195797E+03</pdfrwt>
<totfact> 0.16679605E+03</totfact>
</mgrwt>
</event>
<event>
 5    0  0.1972558E-002  0.3826983E+03  0.7546771E-02  0.1049941E+00
         21   -1    0    0  501  502  0.00000000000E+00  0.00000000000E+00  0.19214922718E+03  0.19214922718E+03  0.00000000000E+00 0. -1.
         21   -1    0    0  502  503 -0.00000000000E+00 -0.00000000000E+00 -0.17803203151E+04  0.17803203151E+04  0.00000000000E+00 0. -1.
         25    1    1    2    0    0 -0.35658649499E+03 -0.92652565947E+02 -0.14928240946E+04  0.15426883042E+04  0.12500000000E+03 0.  0.
          2    1    1    2  501    0  0.31122169736E+03  0.11992010309E+03 -0.13884434037E+03  0.36127209536E+03  0.00000000000E+00 0. -1.
         -2    1    1    2    0  503  0.45364797628E+02 -0.27267537145E+02  0.43497347026E+02  0.68509142777E+02  0.00000000000E+00 0.  1.
<mgrwt>
<rscale>  4 0.38269827E+03</rscale>
<asrwt>0</asrwt>
<pdfrwt beam="1">  1       21 0.29561420E-01 0.38269827E+03</pdfrwt>
<pdfrwt beam="2">  1       21 0.27389543E+00 0.38269827E+03</pdfrwt>
<totfact> 0.44201118E+02</totfact>
</mgrwt>
</event>
<event>
 5    0  0.1972558E-002  0.2449465E+03  0.7546771E-02  0.1116541E+00
         21   -1    0    0  501  502  0.00000000000E+00  0.00000000000E+00  0.79768050988E+03  0.79768050988E+03  0.00000000000E+00 0. -1.
         21   -1    0    0  502  503 -0.00000000000E+00 -0.00000000000E+00 -0.34172735851E+03  0.34172735851E+03  0.00000000000E+00 0.  1.
         25    1    1    2    0    0 -0.10929359545E+03 -0.22186686633E+03  0.73010100002E+02  0.28657541954E+03  0.12500000000E+03 0.  0.
          1    1    1    2  501    0  0.84895708972E+02  0.18306340278E+03 -0.19053216113E+03  0.27752836839E+03  0.00000000000E+00 0.  1.
         -1    1    1    2    0  503  0.24397886481E+02  0.38803463547E+02  0.57347521250E+03  0.57530408046E+03  0.00000000000E+00 0. -1.
<mgrwt>
<rscale>  4 0.24494652E+03</rscale>
<asrwt>0</asrwt>
<pdfrwt beam="1">  1       21 0.12272008E+00 0.24494652E+03</pdfrwt>
<pdfrwt beam="2">  1       21 0.52573440E-01 0.24494652E+03</pdfrwt>
<totfact> 0.16378443E+03</totfact>
</mgrwt>
</event>
<event>
 5    0  0.1972558E-002  0.2598163E+03  0.7546771E-02  0.1107254E+00
         21   -1    0    0  501  502  0.00000000000E+00  0.00000000000E+00  0.24483418345E+03  0.24483418345E+03  0.00000000000E+00 0. -1.
         21   -1    0    0  502  503 -0.00000000000E+00 -0.00000000000E+00 -0.38343150854E+03  0.38343150854E+03  0.00000000000E+00 0.  1.
         25    1    1    2    0    0  0.16746223414E+03  0.15848454781E+03 -0.10675437174E+03  0.28316505371E+03  0.12500000000E+03 0.  0.
          3    1    1    2  501    0 -0.14395101872E+03 -0.17468595021E+03 -0.11733968526E+03  0.25496211234E+03  0.00000000000E+00 0. -1.
         -3    1    1    2    0  503 -0.23511215417E+02  0.16201402394E+02  0.85496731917E+02  0.90138525939E+02  0.00000000000E+00 0.  1.
<mgrwt>
<rscale>  4 0.25981627E+03</rscale>
<asrwt>0</asrwt>
<pdfrwt beam="1">  1       21 0.37666797E-01 0.25981627E+03</pdfrwt>
<pdfrwt beam="2">  1       21 0.58989463E-01 0.25981627E+03</pdfrwt>
<totfact> 0.17606690E+04</totfact>
</mgrwt>
</event>
<event>
 5    0  0.1972558E-002  0.2596484E+03  0.7546771E-02  0.1107355E+00
         21   -1    0    0  501  502  0.00000000000E+00  0.00000000000E+00  0.53937956451E+03  0.53937956451E+03  0.00000000000E+00 0.  1.
         21   -1    0    0  502  503 -0.00000000000E+00 -0.00000000000E+00 -0.67948022393E+03  0.67948022393E+03  0.00000000000E+00 0. -1.
         25    1    1    2    0    0 -0.85572603125E+02 -0.21391165282E+03 -0.60437133983E+03  0.65876443592E+03  0.12500000000E+03 0.  0.
          2    1    1    2  501    0 -0.63837640825E+02  0.62366923292E+02  0.21219697883E+03  0.23020085866E+03  0.00000000000E+00 0. -1.
         -2    1    1    2    0  503  0.14941024395E+03  0.15154472953E+03  0.25207370159E+03  0.32989449386E+03  0.00000000000E+00 0.  1.
<mgrwt>
<rscale>  4 0.25964835E+03</rscale>
<asrwt>0</asrwt>
<pdfrwt beam="1">  1       21 0.82981471E-01 0.25964835E+03</pdfrwt>
<pdfrwt beam="2">  1       21 0.10453542E+00 0.25964835E+03</pdfrwt>
<totfact> 0.88027020E+02</totfact>
</mgrwt>
</event>
<event>
 5    0  0.1972558E-002  0.6807726E+03  0.7546771E-02  0.9750691E-01
         21   -1    0    0  501  502  0.00000000000E+00  0.00000000000E+00  0.10104431480E+04  0.10104431480E+04  0.00000000000E+00 0. -1.
         21   -1    0    0  502  503 -0.00000000000E+00 -0.00000000000E+00 -0.15864131491E+04  0.15864131491E+04  0.00000000000E+00 0. -1.
         25    1    1    2    0    0  0.12624830202E+03 -0.62877162993E+03 -0.81103913777E+03  0.10414902205E+04  0.12500000000E+03 0.  0.
          3    1    1    2  501    0 -0.66447780295E+03  0.59256449001E+03 -0.13596475707E+03  0.90063857379E+03  0.00000000000E+00 0. -1.
         -3    1    1    2    0  503  0.53822950092E+03  0.36207139917E+02  0.37103389376E+03  0.65472750283E+03  0.00000000000E+00 0.  1.
<mgrwt>
<rscale>  4 0.68077258E+03</rscale>
<asrwt>0</asrwt>
<pdfrwt beam="1">  1       21 0.15545279E+00 0.68077258E+03</pdfrwt>
<pdfrwt beam="2">  1       21 0.24406356E+00 0.68077258E+03</pdfrwt>
<totfact> 0.12875176E+01</totfact>
</mgrwt>
</event>
<event>
 5    0  0.1972558E-002  0.2445945E+03  0.7546771E-02  0.1116769E+00
         21   -1    0    0  501  502  0.00000000000E+00  0.00000000000E+00  0.12105427489E+04  0.12105427489E+04  0.00000000000E+00 0.  1.
         21   -1    0    0  502  503 -0.00000000000E+00 -0.00000000000E+00 -0.55248542620E+02  0.55248542620E+02  0.00000000000E+00 0.  1.
         25    1    1    2    0    0  0.16862177257E+03  0.15132278619E+03  0.49386908899E+03  0.55755140110E+03  0.12500000000E+03 0.  0.
          1    1    1    2  501    0 -0.44904791881E+01 -0.42003407365E+02  0.23044210747E+03  0.23428191464E+03  0.00000000000E+00 0. -1.
         -1    1    1    2    0  503 -0.16413129338E+03 -0.10931937882E+03  0.43098300982E+03  0.47395797578E+03  0.00000000000E+00 0.  1.
<mgrwt>
<rscale>  4 0.24459445E+03</rscale>
<asrwt>0</asrwt>
<pdfrwt beam="1">  1       21 0.18623733E+00 0.24459445E+03</pdfrwt>
<pdfrwt beam="2">  1       21 0.84997767E-02 0.24459445E+03</pdfrwt>
<totfact> 0.17209599E+04</totfact>
</mgrwt>
</event>
<event>
 5    0  0.1972558E-002  0.2538482E+03  0.7546771E-02  0.1110897E+00
         21   -1    0    0  501  502  0.00000000000E+00  0.00000000000E+00  0.12204755070E+03  0.12204755070E+03  0.00000000000E+00 0. -1.
         21   -1    0    0  502  503 -0.00000000000E+00 -0.00000000000E+00 -0.92366546619E+03  0.92366546619E+03  0.00000000000E+00 0. -1.
         25    1    1    2    0    0  0.77453959968E+02  0.19310757121E+03 -0.19061282572E+03  0.30862258392E+03  0.12500000000E+03 0.  0.
          2    1    1    2  501    0  0.31040495795E+02  0.45350594785E+01  0.38443805128E+02  0.49618598291E+02  0.00000000000E+00 0.  1.
         -2    1    1    2    0  503 -0.10849445576E+03 -0.19764263069E+03 -0.64944889490E+03  0.68747183468E+03  0.00000000000E+00 0. -1.
<mgrwt>
<rscale>  4 0.25384822E+03</rscale>
<asrwt>0</asrwt>
<pdfrwt beam="1">  1       21 0.18776546E-01 0.25384822E+03</pdfrwt>
<pdfrwt beam="2">  1       21 0.14210238E+00 0.25384822E+03</pdfrwt>
<totfact> 0.85717696E+03</totfact>
</mgrwt>
</event>
<event>
 5    0  0.1972558E-002  0.2471408E+03  0.7546771E-02  0.1115125E+00
         21   -1    0    0  503  502  0.00000000000E+00  0.00000000000E+00  0.28100746972E+03  0.28100746972E+03  0.00000000000E+00 0. -1.
         21   -1    0    0  501  503 -0.00000000000E+00 -0.00000000000E+00 -0.26640324115E+03  0.26640324115E+03  0.00000000000E+00 0.  1.
         25    1    1    2    0    0  0.20032180199E+02 -0.22924625798E+03 -0.97513453999E+02  0.27944410667E+03  0.12500000000E+03 0.  0.
          4    1    1    2  501    0 -0.53824183496E+01  0.21848127454E+02 -0.12324950469E+02  0.25655710955E+02  0.00000000000E+00 0.  1.
         -4    1    1    2    0  502 -0.14649761850E+02  0.20739813053E+03  0.12444263304E+03  0.24231089325E+03  0.00000000000E+00 0. -1.
<mgrwt>
<rscale>  4 0.24714085E+03</rscale>
<asrwt>0</asrwt>
<pdfrwt beam="1">  1       21 0.43231918E-01 0.24714085E+03</pdfrwt>
<pdfrwt beam="2">  1       21 0.40985114E-01 0.24714085E+03</pdfrwt>
<totfact> 0.28691515E+04</totfact>
</mgrwt>
</event>
<event>
 5    0  0.1972558E-002  0.2916156E+03  0.7546771E-02  0.1089509E+00
         21   -1    0    0  501  502  0.00000000000E+00  0.00000000000E+00  0.14722090508E+04  0.14722090508E+04  0.00000000000E+00 0.  1.
         21   -1    0    0  502  503 -0.00000000000E+00 -0.00000000000E+00 -0.99311352744E+02  0.99311352744E+02  0.00000000000E+00 0. -1.
         25    1    1    2    0    0 -0.26344044102E+03 -0.37132986084E+01  0.16994276781E+03  0.33752066438E+03  0.12500000000E+03 0.  0.
          4    1    1    2  501    0  0.24138459815E+03 -0.13878923961E+02  0.98569352541E+03  0.10149142204E+04  0.00000000000E+00 0.  1.
         -4    1    1    2    0  503  0.22055842871E+02  0.17592222570E+02  0.21726140481E+03  0.21908551874E+03  0.00000000000E+00 0. -1.
<mgrwt>
<rscale>  4 0.29161559E+03</rscale>
<asrwt>0</asrwt>
<pdfrwt beam="1">  1       21 0.22649368E+00 0.29161559E+03</pdfrwt>
<pdfrwt beam="2">  1       21 0.15278671E-01 0.29161559E+03</pdfrwt>
<totfact> 0.32040344E+03</totfact>
</mgrwt>
</event>
<event>
 5    0  0.1972558E-002  0.2321967E+03  0.7546771E-02  0.1125103E+00
         21   -1    0    0  503  502  0.00000000000E+00  0.00000000000E+00  0.20080086596E+03  0.20080086596E+03  0.00000000000E+00 0.  1.
         21   -1    0    0  501  503 -0.00000000000E+00 -0.00000000000E+00 -0.30561789025E+03  0.30561789025E+03  0.00000000000E+00 0.  1.
         25    1    1    2    0    0 -0.19875668479E+03 -0.71989850638E+02 -0.12171378262E+03  0.27409123157E+03  0.12500000000E+03 0.  0.
          4    1    1    2  501    0  0.40288714325E+02 -0.12449299273E+02  0.30815713813E+02  0.52228093706E+02  0.00000000000E+00 0. -1.
         -4    1    1    2    0  502  0.15846797047E+03  0.84439149911E+02 -0.13918955479E+02  0.18009943094E+03  0.00000000000E+00 0.  1.
<mgrwt>
<rscale>  4 0.23219672E+03</rscale>
<asrwt>0</asrwt>
<pdfrwt beam="1">  1       21 0.30892441E-01 0.23219672E+03</pdfrwt>
<pdfrwt beam="2">  1       21 0.47018137E-01 0.23219672E+03</pdfrwt>
<totfact> 0.42747748E+04</totfact>
</mgrwt>
</event>
<event>
 5    0  0.1972558E-002  0.2591926E+03  0.7546771E-02  0.1107629E+00
         21   -1    0    0  501  502  0.00000000000E+00  0.00000000000E+00  0.13336166722E+04  0.13336166722E+04  0.00000000000E+00 0.  1.
         21   -1    0    0  502  503 -0.00000000000E+00 -0.00000000000E+00 -0.33942926657E+03  0.33942926657E+03  0.00000000000E+00 0. -1.
         25    1    1    2    0    0 -0.15662377220E+03 -0.17184959409E+03 -0.27040941034E+03  0.37790149273E+03  0.12500000000E+03 0.  0.
          1    1    1    2  501    0  0.50152558885E+02  0.12930156791E+03  0.95462046386E+03  0.96464211221E+03  0.00000000000E+00 0.  1.
         -1    1    1    2    0  503  0.10647121331E+03  0.42548026188E+02  0.30997635209E+03  0.33050233381E+03  0.00000000000E+00 0. -1.
<mgrwt>
<rscale>  4 0.25919261E+03</rscale>
<asrwt>0</asrwt>
<pdfrwt beam="1">  1       21 0.20517179E+00 0.25919261E+03</pdfrwt>
<pdfrwt beam="2">  1       21 0.52219888E-01 0.25919261E+03</pdfrwt>
<totfact> 0.40281517E+02</totfact>
</mgrwt>
</event>
<event>
 5    0  0.1972558E-002  0.4215335E+03  0.7546771E-02  0.1036568E+00
         21   -1    0    0  501  502  0.00000000000E+00  0.00000000000E+00  0.75810252831E+03  0.75810252831E+03  0.00000000000E+00 0.  1.
         21   -1    0    0  502  503 -0.00000000000E+00 -0.00000000000E+00 -0.26476779130E+03  0.26476779130E+03  0.00000000000E+00 0.  1.
         25    1    1    2    0    0  0.40405850381E+03  0.29887490664E+02  0.15978410648E+03  0.45311422101E+03  0.12500000000E+03 0.  0.
          3    1    1    2  501    0 -0.42203686230E+01 -0.20304822779E+02  0.10924923586E+03  0.11120023775E+03  0.00000000000E+00 0. -1.
         -3    1    1    2    0  503 -0.39983813518E+03 -0.95826678849E+01  0.22430139467E+03  0.45855586085E+03  0.00000000000E+00 0.  1.
<mgrwt>
<rscale>  4 0.42153346E+03</rscale>
<asrwt>0</asrwt>
<pdfrwt beam="1">  1       21 0.11663116E+00 0.42153346E+03</pdfrwt>
<pdfrwt beam="2">  1       21 0.40733507E-01 0.42153346E+03</pdfrwt>
<totfact> 0.28820204E+03</totfact>
</mgrwt>
</event>
<event>
 5    0  0.1972558E-002  0.4399726E+03  0.7546771E-02  0.1030755E+00
         21   -1    0    0  501  502  0.00000000000E+00  0.00000000000E+00  0.17494448419E+04  0.17494448419E+04  0.00000000000E+00 0. -1.
         21   -1    0    0  502  503 -0.00000000000E+00 -0.00000000000E+00 -0.22866262224E+03  0.22866262224E+03  0.00000000000E+00 0. -1.
         25    1    1    2    0    0 -0.32421063094E+03 -0.25082671775E+03  0.12914616104E+03  0.44758273700E+03  0.12500000000E+03 0.  0.
          3    1    1    2  501    0  0.35572509175E+03  0.27992949860E+03  0.67572507046E+03  0.81332972153E+03  0.00000000000E+00 0. -1.
         -3    1    1    2    0  503 -0.31514460804E+02 -0.29102780851E+02  0.71591098817E+03  0.71719500561E+03  0.00000000000E+00 0.  1.
<mgrwt>
<rscale>  4 0.43997261E+03</rscale>
<asrwt>0</asrwt>
<pdfrwt beam="1">  1       21 0.26914535E+00 0.43997261E+03</pdfrwt>
<pdfrwt beam="2">  1       21 0.35178866E-01 0.43997261E+03</pdfrwt>
<totfact> 0.32172225E+02</totfact>
</mgrwt>
</event>
<event>
 5    0  0.1972558E-002  0.3313755E+03  0.7546771E-02  0.1070530E+00
         21   -1    0    0  503  502  0.00000000000E+00  0.00000000000E+00  0.29917576803E+03  0.29917576803E+03  0.00000000000E+00 0. -1.
         21   -1    0    0  501  503 -0.00000000000E+00 -0.00000000000E+00 -0.63120428888E+03  0.63120428888E+03  0.00000000000E+00 0.  1.
         25    1    1    2    0    0 -0.24572968761E+03  0.20107903809E+03 -0.32756368781E+03  0.47301038942E+03  0.12500000000E+03 0.  0.
          2    1    1    2  501    0  0.34309134290E+01 -0.35033499450E+02  0.12973875583E+03  0.13442939416E+03  0.00000000000E+00 0.  1.
         -2    1    1    2    0  502  0.24229877418E+03 -0.16604553864E+03 -0.13420358887E+03  0.32294027333E+03  0.00000000000E+00 0. -1.
<mgrwt>
<rscale>  4 0.33137555E+03</rscale>
<asrwt>0</asrwt>
<pdfrwt beam="1">  1       21 0.46027041E-01 0.33137555E+03</pdfrwt>
<pdfrwt beam="2">  1       21 0.97108352E-01 0.33137555E+03</pdfrwt>
<totfact> 0.36444235E+03</totfact>
</mgrwt>
</event>
<event>
 5    0  0.1972558E-002  0.2419863E+03  0.7546771E-02  0.1118477E+00
         21   -1    0    0  501  502  0.00000000000E+00  0.00000000000E+00  0.55372274568E+03  0.55372274568E+03  0.00000000000E+00 0. -1.
         21   -1    0    0  502  503 -0.00000000000E+00 -0.00000000000E+00 -0.13652488217E+03  0.13652488217E+03  0.00000000000E+00 0.  1.
         25    1    1    2    0    0  0.19389553399E+03  0.73053879954E+02  0.32818418608E+02  0.24420154807E+03  0.12500000000E+03 0.  0.
          3    1    1    2  501    0 -0.17105743679E+03 -0.28558410527E+02  0.26607183688E+03  0.31760108923E+03  0.00000000000E+00 0. -1.
         -3    1    1    2    0  503 -0.22838097199E+02 -0.44495469428E+02  0.11830760802E+03  0.12844499055E+03  0.00000000000E+00 0.  1.
<mgrwt>
<rscale>  4 0.24198625E+03</rscale>
<asrwt>0</asrwt>
<pdfrwt beam="1">  1       21 0.85188113E-01 0.24198625E+03</pdfrwt>
<pdfrwt beam="2">  1       21 0.21003828E-01 0.24198625E+03</pdfrwt>
<totfact> 0.24445005E+04</totfact>
</mgrwt>
</event>
<event>
 5    0  0.1972558E-002  0.3493566E+03  0.7546771E-02  0.1062879E+00
         21   -1    0    0  501  502  0.00000000000E+00  0.00000000000E+00  0.24856775519E+03  0.24856775519E+03  0.00000000000E+00 0. -1.
         21   -1    0    0  502  503 -0.00000000000E+00 -0.00000000000E+00 -0.63687909115E+03  0.63687909115E+03  0.00000000000E+00 0. -1.
         25    1    1    2    0    0 -0.15893112935E+02 -0.32406436334E+03 -0.39595225911E+03  0.52694733524E+03  0.12500000000E+03 0.  0.
          2    1    1    2  501    0  0.38534810285E+02  0.32891062583E+03 -0.67649053460E+01  0.33122936967E+03  0.00000000000E+00 0. -1.
         -2    1    1    2    0  503 -0.22641697350E+02 -0.48462624986E+01  0.14405828497E+02  0.27270141433E+02  0.00000000000E+00 0.  1.
<mgrwt>
<rscale>  4 0.34935659E+03</rscale>
<asrwt>0</asrwt>
<pdfrwt beam="1">  1       21 0.38241194E-01 0.34935659E+03</pdfrwt>
<pdfrwt beam="2">  1       21 0.97981397E-01 0.34935659E+03</pdfrwt>
<totfact> 0.51839167E+03</totfact>
</mgrwt>
</event>
<event>
 5    0  0.1972558E-002  0.2578180E+03  0.7546771E-02  0.1108461E+00
         21   -1    0    0  501  502  0.00000000000E+00  0.00000000000E+00  0.46524518663E+02  0.46524518663E+02  0.00000000000E+00 0. -1.
         21   -1    0    0  502  503 -0.00000000000E+00 -0.00000000000E+00 -0.20414081964E+04  0.20414081964E+04  0.00000000000E+00 0.  1.
         25    1    1    2    0    0  0.15952173034E+03 -0.18446014264E+03 -0.11559981562E+04  0.11880359690E+04  0.12500000000E+03 0.  0.
          2    1    1    2  501    0 -0.19569593552E+03  0.91972205775E+02 -0.66941518865E+03  0.70347173405E+03  0.00000000000E+00 0. -1.
         -2    1    1    2    0  503  0.36174205177E+02  0.92487936869E+02 -0.16947033291E+03  0.19642501196E+03  0.00000000000E+00 0.  1.
<mgrwt>
<rscale>  4 0.25781799E+03</rscale>
<asrwt>0</asrwt>
<pdfrwt beam="1">  1       21 0.71576193E-02 0.25781799E+03</pdfrwt>
<pdfrwt beam="2">  1       21 0.31406275E+00 0.25781799E+03</pdfrwt>
<totfact> 0.38483194E+03</totfact>
</mgrwt>
</event>
<event>
 5    0  0.1972558E-002  0.2838072E+03  0.7546771E-02  0.1093806E+00
         21   -1    0    0  503  502  0.00000000000E+00  0.00000000000E+00  0.15826370673E+04  0.15826370673E+04  0.00000000000E+00 0. -1.
         21   -1    0    0  501  503 -0.00000000000E+00 -0.00000000000E+00 -0.62641342283E+02  0.62641342283E+02  0.00000000000E+00 0. -1.
         25    1    1    2    0    0 -0.23129566762E+03 -0.10331068442E+03  0.39873053493E+03  0.48865307004E+03  0.12500000000E+03 0.  0.
          3    1    1    2  501    0  0.96406280064E+02  0.11153700389E+03  0.63875697149E+03  0.65554949676E+03  0.00000000000E+00 0.  1.
         -3    1    1    2    0  502  0.13488938756E+03 -0.82263194664E+01  0.48250821857E+03  0.50107584276E+03  0.00000000000E+00 0. -1.
<mgrwt>
<rscale>  4 0.28347522E+03</rscale>
<asrwt>0</asrwt>
<pdfrwt beam="1">  1       21 0.24348260E+00 0.28380724E+03</pdfrwt>
<pdfrwt beam="2">  1       21 0.96371308E-02 0.28380724E+03</pdfrwt>
<totfact> 0.58324777E+03</totfact>
</mgrwt>
</event>
<event>
 5    0  0.1972558E-002  0.2402143E+03  0.7546771E-02  0.1119650E+00
         21   -1    0    0  501  502  0.00000000000E+00  0.00000000000E+00  0.13619382247E+04  0.13619382247E+04  0.00000000000E+00 0. -1.
         21   -1    0    0  502  503 -0.00000000000E+00 -0.00000000000E+00 -0.82545889563E+02  0.82545889563E+02  0.00000000000E+00 0.  1.
         25    1    1    2    0    0 -0.20512455535E+03 -0.13506580718E+01  0.12417368606E+03  0.27041082041E+03  0.12500000000E+03 0.  0.
          1    1    1    2  501    0  0.46714615514E+02 -0.14116657492E+02  0.21416712996E+03  0.21965676606E+03  0.00000000000E+00 0. -1.
         -1    1    1    2    0  503  0.15840993983E+03  0.15467315564E+02  0.94105151916E+03  0.95441652784E+03  0.00000000000E+00 0.  1.
<mgrwt>
<rscale>  4 0.24021429E+03</rscale>
<asrwt>0</asrwt>
<pdfrwt beam="1">  1       21 0.20952894E+00 0.24021429E+03</pdfrwt>
<pdfrwt beam="2">  1       21 0.12699369E-01 0.24021429E+03</pdfrwt>
<totfact> 0.59494822E+03</totfact>
</mgrwt>
</event>
<event>
 5    0  0.1972558E-002  0.2700845E+03  0.7546771E-02  0.1101231E+00
         21   -1    0    0  501  502  0.00000000000E+00  0.00000000000E+00  0.79096033074E+02  0.79096033074E+02  0.00000000000E+00 0.  1.
         21   -1    0    0  502  503 -0.00000000000E+00 -0.00000000000E+00 -0.11631064563E+04  0.11631064563E+04  0.00000000000E+00 0. -1.
         25    1    1    2    0    0 -0.10460079007E+03 -0.18821141336E+03 -0.37328159479E+03  0.44869701404E+03  0.12500000000E+03 0.  0.
          4    1    1    2  501    0  0.29054805112E+01 -0.44533100279E+02 -0.67840642200E+01  0.45140473688E+02  0.00000000000E+00 0.  1.
         -4    1    1    2    0  503  0.10169530956E+03  0.23274451363E+03 -0.70394476419E+03  0.74836500162E+03  0.00000000000E+00 0. -1.
<mgrwt>
<rscale>  4 0.27008453E+03</rscale>
<asrwt>0</asrwt>
<pdfrwt beam="1">  1       21 0.12168620E-01 0.27008453E+03</pdfrwt>
<pdfrwt beam="2">  1       21 0.17893946E+00 0.27008453E+03</pdfrwt>
<totfact> 0.10036245E+04</totfact>
</mgrwt>
</event>
<event>
 5    0  0.1972558E-002  0.2532897E+03  0.7546771E-02  0.1111243E+00
         21   -1    0    0  501  502  0.00000000000E+00  0.00000000000E+00  0.35437725468E+03  0.35437725468E+03  0.00000000000E+00 0. -1.
         21   -1    0    0  502  503 -0.00000000000E+00 -0.00000000000E+00 -0.10798763412E+04  0.10798763412E+04  0.00000000000E+00 0. -1.
         25    1    1    2    0    0 -0.24276415803E+03 -0.23946881533E+02 -0.75274619406E+03  0.80109907142E+03  0.12500000000E+03 0.  0.
          1    1    1    2  501    0  0.86456686209E+02  0.20809343933E+03  0.22689807467E+03  0.31978176054E+03  0.00000000000E+00 0.  1.
         -1    1    1    2    0  503  0.15630747182E+03 -0.18414655780E+03 -0.19965096716E+03  0.31337276395E+03  0.00000000000E+00 0. -1.
<mgrwt>
<rscale>  4 0.25328969E+03</rscale>
<asrwt>0</asrwt>
<pdfrwt beam="1">  1       21 0.54519578E-01 0.25328969E+03</pdfrwt>
<pdfrwt beam="2">  1       21 0.16613482E+00 0.25328969E+03</pdfrwt>
<totfact> 0.68016547E+02</totfact>
</mgrwt>
</event>
<event>
 5    0  0.1972558E-002  0.2617741E+03  0.7546771E-02  0.1106082E+00
         21   -1    0    0  501  502  0.00000000000E+00  0.00000000000E+00  0.11393430566E+04  0.11393430566E+04  0.00000000000E+00 0. -1.
         21   -1    0    0  502  503 -0.00000000000E+00 -0.00000000000E+00 -0.10016249641E+03  0.10016249641E+03  0.00000000000E+00 0. -1.
         25    1    1    2    0    0  0.13800592788E+03  0.20838117903E+03  0.18557690263E+03  0.33545810274E+03  0.12500000000E+03 0.  0.
          3    1    1    2  501    0 -0.88305216337E+02 -0.17800350546E+03  0.39913128877E+03  0.44585742661E+03  0.00000000000E+00 0. -1.
         -3    1    1    2    0  503 -0.49700711544E+02 -0.30377673566E+02  0.45447236879E+03  0.45819002365E+03  0.00000000000E+00 0.  1.
<mgrwt>
<rscale>  4 0.26177407E+03</rscale>
<asrwt>0</asrwt>
<pdfrwt beam="1">  1       21 0.17528354E+00 0.26177407E+03</pdfrwt>
<pdfrwt beam="2">  1       21 0.15409616E-01 0.26177407E+03</pdfrwt>
<totfact> 0.69583463E+03</totfact>
</mgrwt>
</event>
<event>
 5    0  0.1972558E-002  0.3257361E+03  0.7546771E-02  0.1073039E+00
         21   -1    0    0  501  502  0.00000000000E+00  0.00000000000E+00  0.28388336402E+03  0.28388336402E+03  0.00000000000E+00 0. -1.
         21   -1    0    0  502  503 -0.00000000000E+00 -0.00000000000E+00 -0.54553095142E+03  0.54553095142E+03  0.00000000000E+00 0.  1.
         25    1    1    2    0    0  0.10025567090E+02 -0.30157587659E+03 -0.35911371941E+03  0.48542371677E+03  0.12500000000E+03 0.  0.
          1    1    1    2  501    0  0.30194374933E+02  0.52808038971E+01  0.12841376564E+02  0.33233839975E+02  0.00000000000E+00 0.  1.
         -1    1    1    2    0  503 -0.40219942023E+02  0.29629507269E+03  0.84624755451E+02  0.31075675869E+03  0.00000000000E+00 0. -1.
<mgrwt>
<rscale>  4 0.32573611E+03</rscale>
<asrwt>0</asrwt>
<pdfrwt beam="1">  1       21 0.43674364E-01 0.32573611E+03</pdfrwt>
<pdfrwt beam="2">  1       21 0.83927838E-01 0.32573611E+03</pdfrwt>
<totfact> 0.57426448E+03</totfact>
</mgrwt>
</event>
<event>
 5    0  0.1972558E-002  0.2089101E+03  0.7546771E-02  0.1142432E+00
         21   -1    0    0  503  502  0.00000000000E+00  0.00000000000E+00  0.58127744394E+02  0.58127744394E+02  0.00000000000E+00 0. -1.
         21   -1    0    0  501  503 -0.00000000000E+00 -0.00000000000E+00 -0.13258233034E+04  0.13258233034E+04  0.00000000000E+00 0. -1.
         25    1    1    2    0    0 -0.19925135432E+03  0.81470045954E+02 -0.79985480250E+03  0.83769396302E+03  0.12500000000E+03 0.  0.
          4    1    1    2  501    0  0.13506515298E+03  0.42276536984E+02 -0.25940723354E+03  0.29550298466E+03  0.00000000000E+00 0.  1.
         -4    1    1    2    0  502  0.64186201337E+02 -0.12374658294E+03 -0.20843352294E+03  0.25075410010E+03  0.00000000000E+00 0. -1.
<mgrwt>
<rscale>  4 0.20891011E+03</rscale>
<asrwt>0</asrwt>
<pdfrwt beam="1">  1       21 0.89427300E-02 0.20891011E+03</pdfrwt>
<pdfrwt beam="2">  1       21 0.20397281E+00 0.20891011E+03</pdfrwt>
<totfact> 0.12347107E+04</totfact>
</mgrwt>
</event>
<event>
 5    0  0.1972558E-002  0.2590014E+03  0.7546771E-02  0.1107745E+00
         21   -1    0    0  501  502  0.00000000000E+00  0.00000000000E+00  0.11396621511E+03  0.11396621511E+03  0.00000000000E+00 0. -1.
         21   -1    0    0  502  503 -0.00000000000E+00 -0.00000000000E+00 -0.13471164778E+04  0.13471164778E+04  0.00000000000E+00 0.  1.
         25    1    1    2    0    0  0.21771361423E+03 -0.38138875050E+02 -0.99866082965E+03  0.10304378896E+04  0.12500000000E+03 0.  0.
          4    1    1    2  501    0  0.14041387316E+02 -0.48369655765E+02  0.37644476952E+02  0.62879971387E+02  0.00000000000E+00 0. -1.
         -4    1    1    2    0  503 -0.23175500155E+03  0.86508530815E+02 -0.27213391000E+03  0.36776483195E+03  0.00000000000E+00 0.  1.
<mgrwt>
<rscale>  4 0.25900137E+03</rscale>
<asrwt>0</asrwt>
<pdfrwt beam="1">  1       21 0.17533264E-01 0.25900137E+03</pdfrwt>
<pdfrwt beam="2">  1       21 0.20724869E+00 0.25900137E+03</pdfrwt>
<totfact> 0.33601726E+03</totfact>
</mgrwt>
</event>
<event>
 5    0  0.1972558E-002  0.2257960E+03  0.7546771E-02  0.1129634E+00
         21   -1    0    0  501  502  0.00000000000E+00  0.00000000000E+00  0.66691286126E+03  0.66691286126E+03  0.00000000000E+00 0.  1.
         21   -1    0    0  502  503 -0.00000000000E+00 -0.00000000000E+00 -0.10887572323E+03  0.10887572323E+03  0.00000000000E+00 0.  1.
         25    1    1    2    0    0 -0.10436234080E+03  0.20642035329E+03  0.25323764322E+03  0.36504131873E+03  0.12500000000E+03 0.  0.
          2    1    1    2  501    0  0.95890173723E+02 -0.35528220961E+02  0.90795323791E+02  0.13675149258E+03  0.00000000000E+00 0.  1.
         -2    1    1    2    0  503  0.84721670748E+01 -0.17089213233E+03  0.21400417102E+03  0.27399577318E+03  0.00000000000E+00 0. -1.
<mgrwt>
<rscale>  4 0.22579603E+03</rscale>
<asrwt>0</asrwt>
<pdfrwt beam="1">  1       21 0.10260198E+00 0.22579603E+03</pdfrwt>
<pdfrwt beam="2">  1       21 0.16750112E-01 0.22579603E+03</pdfrwt>
<totfact> 0.24287542E+04</totfact>
</mgrwt>
</event>
<event>
 5    0  0.1972558E-002  0.2532172E+03  0.7546771E-02  0.1111288E+00
         21   -1    0    0  501  502  0.00000000000E+00  0.00000000000E+00  0.14355882714E+03  0.14355882714E+03  0.00000000000E+00 0. -1.
         21   -1    0    0  502  503 -0.00000000000E+00 -0.00000000000E+00 -0.93051179541E+03  0.93051179541E+03  0.00000000000E+00 0. -1.
         25    1    1    2    0    0 -0.15519590828E+03 -0.16801844586E+03 -0.77063582852E+03  0.81352353887E+03  0.12500000000E+03 0.  0.
          4    1    1    2  501    0  0.10850927563E+03  0.15939784851E+03 -0.53650349181E+02  0.20015068567E+03  0.00000000000E+00 0.  1.
         -4    1    1    2    0  503  0.46686632644E+02  0.86205973460E+01  0.37333209434E+02  0.60396398012E+02  0.00000000000E+00 0. -1.
<mgrwt>
<rscale>  4 0.25321724E+03</rscale>
<asrwt>0</asrwt>
<pdfrwt beam="1">  1       21 0.22085974E-01 0.25321724E+03</pdfrwt>
<pdfrwt beam="2">  1       21 0.14315566E+00 0.25321724E+03</pdfrwt>
<totfact> 0.61951588E+03</totfact>
</mgrwt>
</event>
<event>
 5    0  0.1972558E-002  0.2099672E+03  0.7546771E-02  0.1141592E+00
         21   -1    0    0  501  502  0.00000000000E+00  0.00000000000E+00  0.98999276350E+02  0.98999276350E+02  0.00000000000E+00 0.  1.
         21   -1    0    0  502  503 -0.00000000000E+00 -0.00000000000E+00 -0.19523009447E+04  0.19523009447E+04  0.00000000000E+00 0. -1.
         25    1    1    2    0    0  0.21054005178E+03 -0.54475921876E+02 -0.11510924880E+04  0.11781059610E+04  0.12500000000E+03 0.  0.
          2    1    1    2  501    0 -0.14404968619E+03 -0.48020940952E+02 -0.73188258775E+03  0.74746802280E+03  0.00000000000E+00 0. -1.
         -2    1    1    2    0  503 -0.66490365594E+02  0.10249686283E+03  0.29673407442E+02  0.12572623718E+03  0.00000000000E+00 0.  1.
<mgrwt>
<rscale>  4 0.20996719E+03</rscale>
<asrwt>0</asrwt>
<pdfrwt beam="1">  1       21 0.15230658E-01 0.20996719E+03</pdfrwt>
<pdfrwt beam="2">  1       21 0.30035399E+00 0.20996719E+03</pdfrwt>
<totfact> 0.12679979E+03</totfact>
</mgrwt>
</event>
<event>
 5    0  0.1972558E-002  0.2597357E+03  0.7546771E-02  0.1107302E+00
         21   -1    0    0  501  502  0.00000000000E+00  0.00000000000E+00  0.52261019305E+03  0.52261019305E+03  0.00000000000E+00 0.  1.
         21   -1    0    0  502  503 -0.00000000000E+00 -0.00000000000E+00 -0.68016154672E+03  0.68016154672E+03  0.00000000000E+00 0.  1.
         25    1    1    2    0    0  0.16444227117E+03 -0.14461652365E+03 -0.42345864285E+03  0.49284624546E+03  0.12500000000E+03 0.  0.
          2    1    1    2  501    0 -0.18959172963E+03  0.15472293857E+03 -0.15400479830E+03  0.28913956762E+03  0.00000000000E+00 0. -1.
         -2    1    1    2    0  503  0.25149458454E+02 -0.10106414926E+02  0.41991208749E+03  0.42078592669E+03  0.00000000000E+00 0.  1.
<mgrwt>
<rscale>  4 0.25973570E+03</rscale>
<asrwt>0</asrwt>
<pdfrwt beam="1">  1       21 0.80401569E-01 0.25973570E+03</pdfrwt>
<pdfrwt beam="2">  1       21 0.10464024E+00 0.25973570E+03</pdfrwt>
<totfact> 0.94387306E+02</totfact>
</mgrwt>
</event>
<event>
 5    0  0.1972558E-002  0.2486168E+03  0.7546771E-02  0.1114182E+00
         21   -1    0    0  501  502  0.00000000000E+00  0.00000000000E+00  0.10201048082E+03  0.10201048082E+03  0.00000000000E+00 0. -1.
         21   -1    0    0  502  503 -0.00000000000E+00 -0.00000000000E+00 -0.15963319232E+04  0.15963319232E+04  0.00000000000E+00 0.  1.
         25    1    1    2    0    0 -0.94621084402E+02  0.19405083685E+03 -0.13889618304E+04  0.14111870334E+04  0.12500000000E+03 0.  0.
          1    1    1    2  501    0  0.48495543898E+02 -0.20810354833E+03 -0.10686704555E+03  0.23891310142E+03  0.00000000000E+00 0.  1.
         -1    1    1    2    0  503  0.46125540504E+02  0.14052711482E+02  0.15074335211E+01  0.48242269253E+02  0.00000000000E+00 0. -1.
<mgrwt>
<rscale>  4 0.24861680E+03</rscale>
<asrwt>0</asrwt>
<pdfrwt beam="1">  1       21 0.15693921E-01 0.24861680E+03</pdfrwt>
<pdfrwt beam="2">  1       21 0.24558952E+00 0.24861680E+03</pdfrwt>
<totfact> 0.24123651E+03</totfact>
</mgrwt>
</event>
<event>
 5    0  0.1972558E-002  0.3693970E+03  0.7546771E-02  0.1054924E+00
         21   -1    0    0  503  502  0.00000000000E+00  0.00000000000E+00  0.10078514741E+04  0.10078514741E+04  0.00000000000E+00 0.  1.
         21   -1    0    0  501  503 -0.00000000000E+00 -0.00000000000E+00 -0.71181746409E+03  0.71181746409E+03  0.00000000000E+00 0. -1.
         25    1    1    2    0    0 -0.20385686038E+03  0.27109308375E+03 -0.45210870400E+03  0.57885780621E+03  0.12500000000E+03 0.  0.
          4    1    1    2  501    0  0.30219355404E+03 -0.23468333898E+03 -0.27532062719E+01  0.38262879380E+03  0.00000000000E+00 0.  1.
         -4    1    1    2    0  502 -0.98336693657E+02 -0.36409744765E+02  0.75089592031E+03  0.75818233821E+03  0.00000000000E+00 0. -1.
<mgrwt>
<rscale>  4 0.36939701E+03</rscale>
<asrwt>0</asrwt>
<pdfrwt beam="1">  1       21 0.15505407E+00 0.36939701E+03</pdfrwt>
<pdfrwt beam="2">  1       21 0.10951038E+00 0.36939701E+03</pdfrwt>
<totfact> 0.15352899E+02</totfact>
</mgrwt>
</event>
<event>
 5    0  0.1972558E-002  0.2855589E+03  0.7546771E-02  0.1092691E+00
         21   -1    0    0  501  502  0.00000000000E+00  0.00000000000E+00  0.38396630227E+03  0.38396630227E+03  0.00000000000E+00 0.  1.
         21   -1    0    0  502  503 -0.00000000000E+00 -0.00000000000E+00 -0.81964500176E+03  0.81964500176E+03  0.00000000000E+00 0. -1.
         25    1    1    2    0    0  0.34546168850E+03 -0.37679925326E+02 -0.27848274556E+03  0.46253777637E+03  0.12500000000E+03 0.  0.
          4    1    1    2  501    0 -0.11992324305E+03  0.82351431409E+02  0.24086183529E+03  0.28138544060E+03  0.00000000000E+00 0.  1.
         -4    1    1    2    0  503 -0.22553844545E+03 -0.44671506084E+02 -0.39805778922E+03  0.45968808707E+03  0.00000000000E+00 0. -1.
<mgrwt>
<rscale>  4 0.28555889E+03</rscale>
<asrwt>0</asrwt>
<pdfrwt beam="1">  1       21 0.59071739E-01 0.28555889E+03</pdfrwt>
<pdfrwt beam="2">  1       21 0.12609923E+00 0.28555889E+03</pdfrwt>
<totfact> 0.11576272E+03</totfact>
</mgrwt>
</event>
<event>
 5    0  0.1972558E-002  0.2897324E+03  0.7546771E-02  0.1090489E+00
         21   -1    0    0  501  502  0.00000000000E+00  0.00000000000E+00  0.15388535058E+04  0.15388535058E+04  0.00000000000E+00 0.  1.
         21   -1    0    0  502  503 -0.00000000000E+00 -0.00000000000E+00 -0.13342304113E+03  0.13342304113E+03  0.00000000000E+00 0. -1.
         25    1    1    2    0    0  0.64440046736E+02 -0.25331275465E+03  0.53825657613E+02  0.29468979065E+03  0.12500000000E+03 0.  0.
          4    1    1    2  501    0 -0.49371432175E+02  0.23756146938E+03  0.11870363775E+04  0.12115809307E+04  0.00000000000E+00 0.  1.
         -4    1    1    2    0  503 -0.15068614561E+02  0.15751285274E+02  0.16456842954E+03  0.16600582560E+03  0.00000000000E+00 0. -1.
<mgrwt>
<rscale>  4 0.28973241E+03</rscale>
<asrwt>0</asrwt>
<pdfrwt beam="1">  1       21 0.23674668E+00 0.28973241E+03</pdfrwt>
<pdfrwt beam="2">  1       21 0.20526623E-01 0.28973241E+03</pdfrwt>
<totfact> 0.15999809E+03</totfact>
</mgrwt>
</event>
<event>
 5    0  0.1972558E-002  0.1841960E+03  0.7546771E-02  0.1163803E+00
         21   -1    0    0  503  502  0.00000000000E+00  0.00000000000E+00  0.60163917701E+02  0.60163917701E+02  0.00000000000E+00 0. -1.
         21   -1    0    0  501  503 -0.00000000000E+00 -0.00000000000E+00 -0.16090060761E+04  0.16090060761E+04  0.00000000000E+00 0.  1.
         25    1    1    2    0    0  0.15873958766E+03 -0.12676257141E+03 -0.10610629487E+04  0.10875415336E+04  0.12500000000E+03 0.  0.
          2    1    1    2  501    0 -0.61770119451E+02  0.86426489918E+02 -0.46122305462E+03  0.47329883998E+03  0.00000000000E+00 0.  1.
         -2    1    1    2    0  502 -0.96969468213E+02  0.40336081493E+02 -0.26556155028E+02  0.10832962017E+03  0.00000000000E+00 0. -1.
<mgrwt>
<rscale>  4 0.18419599E+03</rscale>
<asrwt>0</asrwt>
<pdfrwt beam="1">  1       21 0.92559863E-02 0.18419599E+03</pdfrwt>
<pdfrwt beam="2">  1       21 0.24753942E+00 0.18419599E+03</pdfrwt>
<totfact> 0.64483602E+03</totfact>
</mgrwt>
</event>
<event>
 5    0  0.1972558E-002  0.2739384E+03  0.7546771E-02  0.1099046E+00
         21   -1    0    0  503  502  0.00000000000E+00  0.00000000000E+00  0.20101082559E+04  0.20101082559E+04  0.00000000000E+00 0. -1.
         21   -1    0    0  501  503 -0.00000000000E+00 -0.00000000000E+00 -0.61319453719E+02  0.61319453719E+02  0.00000000000E+00 0. -1.
         25    1    1    2    0    0 -0.27429979712E+02  0.23026477310E+03  0.59391065439E+03  0.64971465654E+03  0.12500000000E+03 0.  0.
          1    1    1    2  501    0  0.78358765021E+02 -0.23743840717E+03  0.13466040482E+04  0.13696202232E+04  0.00000000000E+00 0.  1.
         -1    1    1    2    0  502 -0.50928785309E+02  0.71736340701E+01  0.82740996002E+01  0.52092829862E+02  0.00000000000E+00 0. -1.
<mgrwt>
<rscale>  4 0.27393840E+03</rscale>
<asrwt>0</asrwt>
<pdfrwt beam="1">  1       21 0.30924737E+00 0.27393840E+03</pdfrwt>
<pdfrwt beam="2">  1       21 0.94337637E-02 0.27393840E+03</pdfrwt>
<totfact> 0.24920959E+03</totfact>
</mgrwt>
</event>
<event>
 5    0  0.1972558E-002  0.2627476E+03  0.7546771E-02  0.1105504E+00
         21   -1    0    0  501  502  0.00000000000E+00  0.00000000000E+00  0.47829685809E+03  0.47829685809E+03  0.00000000000E+00 0.  1.
         21   -1    0    0  502  503 -0.00000000000E+00 -0.00000000000E+00 -0.37683542182E+03  0.37683542182E+03  0.00000000000E+00 0. -1.
         25    1    1    2    0    0 -0.54953683582E+02  0.23138142550E+03 -0.28247955550E+03  0.38984223820E+03  0.12500000000E+03 0.  0.
          3    1    1    2  501    0  0.20831841999E+02 -0.35353743921E+02  0.16243664352E+03  0.16753959535E+03  0.00000000000E+00 0.  1.
         -3    1    1    2    0  503  0.34121841583E+02 -0.19602768158E+03  0.22150434824E+03  0.29775044636E+03  0.00000000000E+00 0. -1.
<mgrwt>
<rscale>  4 0.26274755E+03</rscale>
<asrwt>0</asrwt>
<pdfrwt beam="1">  1       21 0.73584132E-01 0.26274755E+03</pdfrwt>
<pdfrwt beam="2">  1       21 0.57974680E-01 0.26274755E+03</pdfrwt>
<totfact> 0.44057834E+03</totfact>
</mgrwt>
</event>
<event>
 5    0  0.1972558E-002  0.2496922E+03  0.7546771E-02  0.1113500E+00
         21   -1    0    0  501  502  0.00000000000E+00  0.00000000000E+00  0.57319386013E+03  0.57319386013E+03  0.00000000000E+00 0.  1.
         21   -1    0    0  502  503 -0.00000000000E+00 -0.00000000000E+00 -0.58978559603E+03  0.58978559603E+03  0.00000000000E+00 0.  1.
         25    1    1    2    0    0  0.14953508454E+03  0.15618561857E+03 -0.51392136127E+03  0.57139728257E+03  0.12500000000E+03 0.  0.
          1    1    1    2  501    0 -0.18376871114E+03 -0.12156479651E+03  0.22494257956E+03  0.31487791768E+03  0.00000000000E+00 0. -1.
         -1    1    1    2    0  503  0.34233626605E+02 -0.34620822059E+02  0.27238704582E+03  0.27670425591E+03  0.00000000000E+00 0.  1.
<mgrwt>
<rscale>  4 0.24969218E+03</rscale>
<asrwt>0</asrwt>
<pdfrwt beam="1">  1       21 0.88183671E-01 0.24969218E+03</pdfrwt>
<pdfrwt beam="2">  1       21 0.90736245E-01 0.24969218E+03</pdfrwt>
<totfact> 0.10792300E+03</totfact>
</mgrwt>
</event>
<event>
 5    0  0.1972558E-002  0.3653659E+03  0.7546771E-02  0.1056479E+00
         21   -1    0    0  501  502  0.00000000000E+00  0.00000000000E+00  0.18182529885E+04  0.18182529885E+04  0.00000000000E+00 0. -1.
         21   -1    0    0  502  503 -0.00000000000E+00 -0.00000000000E+00 -0.58812496529E+03  0.58812496529E+03  0.00000000000E+00 0. -1.
         25    1    1    2    0    0 -0.63249671570E+02 -0.33910430409E+03 -0.48679676133E+03  0.60958045970E+03  0.12500000000E+03 0.  0.
          4    1    1    2  501    0  0.98253346050E+02  0.31233872817E+03  0.63929203071E+03  0.71826422830E+03  0.00000000000E+00 0.  1.
         -4    1    1    2    0  503 -0.35003674481E+02  0.26765575921E+02  0.10776327538E+04  0.10785332658E+04  0.00000000000E+00 0. -1.
<mgrwt>
<rscale>  4 0.36536590E+03</rscale>
<asrwt>0</asrwt>
<pdfrwt beam="1">  1       21 0.27973123E+00 0.36536590E+03</pdfrwt>
<pdfrwt beam="2">  1       21 0.90480765E-01 0.36536590E+03</pdfrwt>
<totfact> 0.37628507E+01</totfact>
</mgrwt>
</event>
<event>
 5    0  0.1972558E-002  0.3140768E+03  0.7546771E-02  0.1078408E+00
         21   -1    0    0  501  502  0.00000000000E+00  0.00000000000E+00  0.69529863706E+03  0.69529863706E+03  0.00000000000E+00 0. -1.
         21   -1    0    0  502  503 -0.00000000000E+00 -0.00000000000E+00 -0.21928682212E+03  0.21928682212E+03  0.00000000000E+00 0. -1.
         25    1    1    2    0    0 -0.95834043513E+02 -0.27894730257E+03 -0.29372154928E+02  0.32168849061E+03  0.12500000000E+03 0.  0.
          3    1    1    2  501    0  0.78726416808E+01  0.25485175499E+02  0.12250509929E+03  0.12537532456E+03  0.00000000000E+00 0.  1.
         -3    1    1    2    0  503  0.87961401832E+02  0.25346212707E+03  0.38287887059E+03  0.46752164400E+03  0.00000000000E+00 0. -1.
<mgrwt>
<rscale>  4 0.31407679E+03</rscale>
<asrwt>0</asrwt>
<pdfrwt beam="1">  1       21 0.10696902E+00 0.31407679E+03</pdfrwt>
<pdfrwt beam="2">  1       21 0.33736434E-01 0.31407679E+03</pdfrwt>
<totfact> 0.54837019E+03</totfact>
</mgrwt>
</event>
<event>
 5    0  0.1972558E-002  0.2442238E+03  0.7546771E-02  0.1117011E+00
         21   -1    0    0  501  502  0.00000000000E+00  0.00000000000E+00  0.28815977906E+03  0.28815977906E+03  0.00000000000E+00 0. -1.
         21   -1    0    0  502  503 -0.00000000000E+00 -0.00000000000E+00 -0.65660231125E+03  0.65660231125E+03  0.00000000000E+00 0.  1.
         25    1    1    2    0    0 -0.10347930681E+03  0.20013260569E+03 -0.52399043578E+03  0.58391095519E+03  0.12500000000E+03 0.  0.
          2    1    1    2  501    0  0.72317327871E+02 -0.19580573378E+03  0.21118668830E+03  0.29693349189E+03  0.00000000000E+00 0. -1.
         -2    1    1    2    0  503  0.31161978943E+02 -0.43268719104E+01 -0.55638784711E+02  0.63917643232E+02  0.00000000000E+00 0.  1.
<mgrwt>
<rscale>  4 0.24422384E+03</rscale>
<asrwt>0</asrwt>
<pdfrwt beam="1">  1       21 0.44332275E-01 0.24422384E+03</pdfrwt>
<pdfrwt beam="2">  1       21 0.10101574E+00 0.24422384E+03</pdfrwt>
<totfact> 0.37664832E+03</totfact>
</mgrwt>
</event>
<event>
 5    0  0.1972558E-002  0.2254522E+03  0.7546771E-02  0.1129882E+00
         21   -1    0    0  501  502  0.00000000000E+00  0.00000000000E+00  0.92178483209E+03  0.92178483209E+03  0.00000000000E+00 0.  1.
         21   -1    0    0  502  503 -0.00000000000E+00 -0.00000000000E+00 -0.82618796646E+02  0.82618796646E+02  0.00000000000E+00 0. -1.
         25    1    1    2    0    0  0.98889412235E+02 -0.17568189500E+03  0.17600574323E+03  0.29537478859E+03  0.12500000000E+03 0.  0.
          1    1    1    2  501    0 -0.21975149069E+02  0.25567433708E+02  0.36429440073E+03  0.36585107796E+03  0.00000000000E+00 0.  1.
         -1    1    1    2    0  503 -0.76914263166E+02  0.15011446129E+03  0.29886589149E+03  0.34317776219E+03  0.00000000000E+00 0. -1.
<mgrwt>
<rscale>  4 0.22545219E+03</rscale>
<asrwt>0</asrwt>
<pdfrwt beam="1">  1       21 0.14181304E+00 0.22545219E+03</pdfrwt>
<pdfrwt beam="2">  1       21 0.12710585E-01 0.22545219E+03</pdfrwt>
<totfact> 0.17934873E+04</totfact>
</mgrwt>
</event>
<event>
 5    0  0.1972558E-002  0.2302638E+03  0.7546771E-02  0.1126454E+00
         21   -1    0    0  501  502  0.00000000000E+00  0.00000000000E+00  0.10784315663E+03  0.10784315663E+03  0.00000000000E+00 0.  1.
         21   -1    0    0  502  503 -0.00000000000E+00 -0.00000000000E+00 -0.12045220478E+04  0.12045220478E+04  0.00000000000E+00 0. -1.
         25    1    1    2    0    0  0.19881762818E+03 -0.44681932456E+02 -0.10423502915E+04  0.10694129486E+04  0.12500000000E+03 0.  0.
          2    1    1    2  501    0 -0.15505462209E+03  0.32723623594E+02 -0.92649217278E+02  0.18356646980E+03  0.00000000000E+00 0. -1.
         -2    1    1    2    0  503 -0.43763006085E+02  0.11958308862E+02  0.38320617607E+02  0.59385786062E+02  0.00000000000E+00 0.  1.
<mgrwt>
<rscale>  4 0.23026381E+03</rscale>
<asrwt>0</asrwt>
<pdfrwt beam="1">  1       21 0.16591254E-01 0.23026381E+03</pdfrwt>
<pdfrwt beam="2">  1       21 0.18531109E+00 0.23026381E+03</pdfrwt>
<totfact> 0.52966543E+03</totfact>
</mgrwt>
</event>
<event>
 5    0  0.1972558E-002  0.2600538E+03  0.7546771E-02  0.1107111E+00
         21   -1    0    0  503  502  0.00000000000E+00  0.00000000000E+00  0.80531916934E+03  0.80531916934E+03  0.00000000000E+00 0. -1.
         21   -1    0    0  501  503 -0.00000000000E+00 -0.00000000000E+00 -0.12823836545E+03  0.12823836545E+03  0.00000000000E+00 0. -1.
         25    1    1    2    0    0 -0.20832761512E+03  0.16890842472E+03  0.37251008139E+03  0.47573018813E+03  0.12500000000E+03 0.  0.
          3    1    1    2  501    0  0.12286500590E+03  0.21479493495E+02  0.66896332841E+02  0.14153549966E+03  0.00000000000E+00 0.  1.
         -3    1    1    2    0  502  0.85462609216E+02 -0.19038791821E+03  0.23767438966E+03  0.31629184700E+03  0.00000000000E+00 0. -1.
<mgrwt>
<rscale>  4 0.26005383E+03</rscale>
<asrwt>0</asrwt>
<pdfrwt beam="1">  1       21 0.12389525E+00 0.26005383E+03</pdfrwt>
<pdfrwt beam="2">  1       21 0.19728980E-01 0.26005383E+03</pdfrwt>
<totfact> 0.11067708E+04</totfact>
</mgrwt>
</event>
<event>
 5    0  0.1972558E-002  0.2357544E+03  0.7546771E-02  0.1122654E+00
         21   -1    0    0  503  502  0.00000000000E+00  0.00000000000E+00  0.17631851802E+04  0.17631851802E+04  0.00000000000E+00 0.  1.
         21   -1    0    0  501  503 -0.00000000000E+00 -0.00000000000E+00 -0.44739968131E+02  0.44739968131E+02  0.00000000000E+00 0.  1.
         25    1    1    2    0    0  0.10522001390E+03 -0.18248484003E+03  0.44391425554E+03  0.50700772622E+03  0.12500000000E+03 0.  0.
          2    1    1    2  501    0 -0.38237313186E+02 -0.36386871484E+01  0.66478026458E+02  0.76776690249E+02  0.00000000000E+00 0. -1.
         -2    1    1    2    0  502 -0.66982700718E+02  0.18612352718E+03  0.12080529301E+04  0.12241407319E+04  0.00000000000E+00 0.  1.
<mgrwt>
<rscale>  4 0.23575436E+03</rscale>
<asrwt>0</asrwt>
<pdfrwt beam="1">  1       21 0.27125920E+00 0.23575436E+03</pdfrwt>
<pdfrwt beam="2">  1       21 0.68830734E-02 0.23575436E+03</pdfrwt>
<totfact> 0.74695334E+03</totfact>
</mgrwt>
</event>
<event>
 5    0  0.1972558E-002  0.3341993E+03  0.7546771E-02  0.1069294E+00
         21   -1    0    0  501  502  0.00000000000E+00  0.00000000000E+00  0.91983415504E+02  0.91983415504E+02  0.00000000000E+00 0. -1.
         21   -1    0    0  502  503 -0.00000000000E+00 -0.00000000000E+00 -0.15466296250E+04  0.15466296250E+04  0.00000000000E+00 0. -1.
         25    1    1    2    0    0  0.29854955772E+03  0.28937997762E+02 -0.91685778461E+03  0.97273965855E+03  0.12500000000E+03 0.  0.
          1    1    1    2  501    0 -0.32429244053E+03 -0.32984581378E+02 -0.54821696932E+03  0.63780515445E+03  0.00000000000E+00 0. -1.
         -1    1    1    2    0  503  0.25742882810E+02  0.40465836162E+01  0.10428544454E+02  0.28068227478E+02  0.00000000000E+00 0.  1.
<mgrwt>
<rscale>  4 0.33419929E+03</rscale>
<asrwt>0</asrwt>
<pdfrwt beam="1">  1       21 0.14151295E-01 0.33419929E+03</pdfrwt>
<pdfrwt beam="2">  1       21 0.23794302E+00 0.33419929E+03</pdfrwt>
<totfact> 0.30503426E+03</totfact>
</mgrwt>
</event>
<event>
 5    0  0.1972558E-002  0.3425260E+03  0.7546771E-02  0.1065725E+00
         21   -1    0    0  501  502  0.00000000000E+00  0.00000000000E+00  0.52733103480E+03  0.52733103480E+03  0.00000000000E+00 0.  1.
         21   -1    0    0  502  503 -0.00000000000E+00 -0.00000000000E+00 -0.57441215937E+03  0.57441215937E+03  0.00000000000E+00 0.  1.
         25    1    1    2    0    0 -0.21474113735E+03  0.23788742829E+03 -0.34554370991E+03  0.48757526605E+03  0.12500000000E+03 0.  0.
          3    1    1    2  501    0  0.18961259152E+03 -0.25316254793E+03  0.20541693370E+01  0.31630433153E+03  0.00000000000E+00 0.  1.
         -3    1    1    2    0  503  0.25128545828E+02  0.15275119634E+02  0.29640841600E+03  0.29786359659E+03  0.00000000000E+00 0. -1.
<mgrwt>
<rscale>  4 0.34252605E+03</rscale>
<asrwt>0</asrwt>
<pdfrwt beam="1">  1       21 0.81127851E-01 0.34252605E+03</pdfrwt>
<pdfrwt beam="2">  1       21 0.88371101E-01 0.34252605E+03</pdfrwt>
<totfact> 0.13112718E+03</totfact>
</mgrwt>
</event>
<event>
 5    0  0.1972558E-002  0.3232219E+03  0.7546771E-02  0.1074176E+00
         21   -1    0    0  501  502  0.00000000000E+00  0.00000000000E+00  0.81866197085E+03  0.81866197085E+03  0.00000000000E+00 0. -1.
         21   -1    0    0  502  503 -0.00000000000E+00 -0.00000000000E+00 -0.96329076028E+03  0.96329076028E+03  0.00000000000E+00 0. -1.
         25    1    1    2    0    0 -0.20966122764E+03  0.20699988654E+03 -0.79276802024E+03  0.85493445206E+03  0.12500000000E+03 0.  0.
          1    1    1    2  501    0  0.24170226192E+03 -0.20812874572E+03  0.43947629601E+02  0.32197663325E+03  0.00000000000E+00 0. -1.
         -1    1    1    2    0  503 -0.32041034276E+02  0.11288591833E+01  0.60419160121E+03  0.60504164582E+03  0.00000000000E+00 0.  1.
<mgrwt>
<rscale>  4 0.32322191E+03</rscale>
<asrwt>0</asrwt>
<pdfrwt beam="1">  1       21 0.12594800E+00 0.32322191E+03</pdfrwt>
<pdfrwt beam="2">  1       21 0.14819858E+00 0.32322191E+03</pdfrwt>
<totfact> 0.12632951E+02</totfact>
</mgrwt>
</event>
<event>
 5    0  0.1972558E-002  0.3123553E+03  0.7546771E-02  0.1079222E+00
         21   -1    0    0  501  502  0.00000000000E+00  0.00000000000E+00  0.26111425570E+03  0.26111425570E+03  0.00000000000E+00 0. -1.
         21   -1    0    0  502  503 -0.00000000000E+00 -0.00000000000E+00 -0.43041485530E+03  0.43041485530E+03  0.00000000000E+00 0. -1.
         25    1    1    2    0    0  0.27047848321E+03 -0.91981886902E+02 -0.19228404497E+03  0.36635697257E+03  0.12500000000E+03 0.  0.
          2    1    1    2  501    0 -0.27849496788E+03  0.72004415769E+02 -0.76233400490E+01  0.28775371125E+03  0.00000000000E+00 0. -1.
         -2    1    1    2    0  503  0.80164846664E+01  0.19977471133E+02  0.30606785427E+02  0.37418427191E+02  0.00000000000E+00 0.  1.
<mgrwt>
<rscale>  4 0.31235530E+03</rscale>
<asrwt>0</asrwt>
<pdfrwt beam="1">  1       21 0.40171425E-01 0.31235530E+03</pdfrwt>
<pdfrwt beam="2">  1       21 0.66217669E-01 0.31235530E+03</pdfrwt>
<totfact> 0.11724163E+04</totfact>
</mgrwt>
</event>
<event>
 5    0  0.1972558E-002  0.2747488E+03  0.7546771E-02  0.1098592E+00
         21   -1    0    0  501  502  0.00000000000E+00  0.00000000000E+00  0.13446292704E+04  0.13446292704E+04  0.00000000000E+00 0.  1.
         21   -1    0    0  502  503 -0.00000000000E+00 -0.00000000000E+00 -0.59851403898E+02  0.59851403898E+02  0.00000000000E+00 0. -1.
         25    1    1    2    0    0  0.67740537105E+02 -0.24005628821E+03  0.47558229363E+03  0.55137946996E+03  0.12500000000E+03 0.  0.
          2    1    1    2  501    0 -0.26562331234E+02  0.46536067215E+01  0.13853223932E+03  0.14113254347E+03  0.00000000000E+00 0. -1.
         -2    1    1    2    0  503 -0.41178205871E+02  0.23540268149E+03  0.67066333357E+03  0.71196866089E+03  0.00000000000E+00 0.  1.
<mgrwt>
<rscale>  4 0.27474881E+03</rscale>
<asrwt>0</asrwt>
<pdfrwt beam="1">  1       21 0.20686602E+00 0.27474881E+03</pdfrwt>
<pdfrwt beam="2">  1       21 0.92079093E-02 0.27474881E+03</pdfrwt>
<totfact> 0.10737847E+04</totfact>
</mgrwt>
</event>
<event>
 5    0  0.1972558E-002  0.2759353E+03  0.7546771E-02  0.1097930E+00
         21   -1    0    0  501  502  0.00000000000E+00  0.00000000000E+00  0.43589378010E+03  0.43589378010E+03  0.00000000000E+00 0.  1.
         21   -1    0    0  502  503 -0.00000000000E+00 -0.00000000000E+00 -0.18101058528E+03  0.18101058528E+03  0.00000000000E+00 0.  1.
         25    1    1    2    0    0  0.93062660686E+02  0.22771610628E+03  0.37180969279E+02  0.27842900055E+03  0.12500000000E+03 0.  0.
          2    1    1    2  501    0 -0.37056817983E+02 -0.33247045931E+02  0.78114426294E+02  0.92630650529E+02  0.00000000000E+00 0. -1.
         -2    1    1    2    0  503 -0.56005842703E+02 -0.19446906035E+03  0.13958779925E+03  0.24584471430E+03  0.00000000000E+00 0.  1.
<mgrwt>
<rscale>  4 0.27593529E+03</rscale>
<asrwt>0</asrwt>
<pdfrwt beam="1">  1       21 0.67060581E-01 0.27593529E+03</pdfrwt>
<pdfrwt beam="2">  1       21 0.27847783E-01 0.27593529E+03</pdfrwt>
<totfact> 0.24044477E+04</totfact>
</mgrwt>
</event>
<event>
 5    0  0.1972558E-002  0.3212102E+03  0.7546771E-02  0.1075094E+00
         21   -1    0    0  501  502  0.00000000000E+00  0.00000000000E+00  0.28070563826E+04  0.28070563826E+04  0.00000000000E+00 0. -1.
         21   -1    0    0  502  503 -0.00000000000E+00 -0.00000000000E+00 -0.41122065424E+02  0.41122065424E+02  0.00000000000E+00 0. -1.
         25    1    1    2    0    0 -0.14080262162E+03 -0.26280781584E+03  0.10630561266E+04  0.11111285500E+04  0.12500000000E+03 0.  0.
          3    1    1    2  501    0  0.12090835199E+03  0.26754226290E+03  0.12621424049E+04  0.12958399369E+04  0.00000000000E+00 0. -1.
         -3    1    1    2    0  503  0.19894269626E+02 -0.47344470611E+01  0.44073578566E+03  0.44120996103E+03  0.00000000000E+00 0.  1.
<mgrwt>
<rscale>  4 0.32121015E+03</rscale>
<asrwt>0</asrwt>
<pdfrwt beam="1">  1       21 0.43185468E+00 0.32121015E+03</pdfrwt>
<pdfrwt beam="2">  1       21 0.63264738E-02 0.32121015E+03</pdfrwt>
<totfact> 0.84423564E+02</totfact>
</mgrwt>
</event>
<event>
 5    0  0.1972558E-002  0.2438129E+03  0.7546771E-02  0.1117279E+00
         21   -1    0    0  501  502  0.00000000000E+00  0.00000000000E+00  0.31305521314E+03  0.31305521314E+03  0.00000000000E+00 0.  1.
         21   -1    0    0  502  503 -0.00000000000E+00 -0.00000000000E+00 -0.21131775548E+03  0.21131775548E+03  0.00000000000E+00 0. -1.
         25    1    1    2    0    0  0.17943317751E+03  0.11886411816E+03 -0.12033967000E+01  0.24890036549E+03  0.12500000000E+03 0.  0.
          4    1    1    2  501    0 -0.18612158910E+03 -0.84795756839E+02  0.47360169510E+02  0.20993940070E+03  0.00000000000E+00 0.  1.
         -4    1    1    2    0  503  0.66884115975E+01 -0.34068361317E+02  0.55580684850E+02  0.65533202432E+02  0.00000000000E+00 0. -1.
<mgrwt>
<rscale>  4 0.24381292E+03</rscale>
<asrwt>0</asrwt>
<pdfrwt beam="1">  1       21 0.48162340E-01 0.24381292E+03</pdfrwt>
<pdfrwt beam="2">  1       21 0.32510424E-01 0.24381292E+03</pdfrwt>
<totfact> 0.36582790E+04</totfact>
</mgrwt>
</event>
<event>
 5    0  0.1972558E-002  0.3083189E+03  0.7546771E-02  0.1081154E+00
         21   -1    0    0  501  502  0.00000000000E+00  0.00000000000E+00  0.99858210756E+03  0.99858210756E+03  0.00000000000E+00 0. -1.
         21   -1    0    0  502  503 -0.00000000000E+00 -0.00000000000E+00 -0.28408421303E+03  0.28408421303E+03  0.00000000000E+00 0. -1.
         25    1    1    2    0    0 -0.28527554087E+03  0.45707344821E+01 -0.15466828826E+03  0.34777910407E+03  0.12500000000E+03 0.  0.
          1    1    1    2  501    0  0.26281119597E+03  0.36655276987E+01  0.49936207481E+03  0.56430988169E+03  0.00000000000E+00 0. -1.
         -1    1    1    2    0  503  0.22464344901E+02 -0.82362621808E+01  0.36980410799E+03  0.37057733483E+03  0.00000000000E+00 0.  1.
<mgrwt>
<rscale>  4 0.30831894E+03</rscale>
<asrwt>0</asrwt>
<pdfrwt beam="1">  1       21 0.15362801E+00 0.30831894E+03</pdfrwt>
<pdfrwt beam="2">  1       21 0.43705264E-01 0.30831894E+03</pdfrwt>
<totfact> 0.12862382E+03</totfact>
</mgrwt>
</event>
<event>
 5    0  0.1972558E-002  0.2688748E+03  0.7546771E-02  0.1101925E+00
         21   -1    0    0  501  502  0.00000000000E+00  0.00000000000E+00  0.15939266446E+03  0.15939266446E+03  0.00000000000E+00 0.  1.
         21   -1    0    0  502  503 -0.00000000000E+00 -0.00000000000E+00 -0.12651620213E+04  0.12651620213E+04  0.00000000000E+00 0. -1.
         25    1    1    2    0    0 -0.16830740699E+03 -0.16834868142E+03 -0.11433485696E+04  0.11745380425E+04  0.12500000000E+03 0.  0.
          4    1    1    2  501    0  0.62452576097E+01  0.23189442337E+02  0.20856619507E+02  0.31808050172E+02  0.00000000000E+00 0. -1.
         -4    1    1    2    0  503  0.16206214938E+03  0.14515923909E+03  0.16722593244E+02  0.21820859304E+03  0.00000000000E+00 0.  1.
<mgrwt>
<rscale>  4 0.26887481E+03</rscale>
<asrwt>0</asrwt>
<pdfrwt beam="1">  1       21 0.24521947E-01 0.26887481E+03</pdfrwt>
<pdfrwt beam="2">  1       21 0.19464032E+00 0.26887481E+03</pdfrwt>
<totfact> 0.21381023E+03</totfact>
</mgrwt>
</event>
<event>
 5    0  0.1972558E-002  0.2273576E+03  0.7546771E-02  0.1128514E+00
         21   -1    0    0  503  502  0.00000000000E+00  0.00000000000E+00  0.38885316016E+02  0.38885316016E+02  0.00000000000E+00 0.  1.
         21   -1    0    0  501  503 -0.00000000000E+00 -0.00000000000E+00 -0.13694609086E+04  0.13694609086E+04  0.00000000000E+00 0.  1.
         25    1    1    2    0    0  0.10173140774E+03  0.17709175705E+03 -0.69969808373E+03  0.73953578555E+03  0.12500000000E+03 0.  0.
          4    1    1    2  501    0  0.11483754231E+01 -0.28076342255E+02 -0.19197690802E+03  0.19402250636E+03  0.00000000000E+00 0. -1.
         -4    1    1    2    0  502 -0.10287978316E+03 -0.14901541479E+03 -0.43890060082E+03  0.47478793270E+03  0.00000000000E+00 0.  1.
<mgrwt>
<rscale>  4 0.22735759E+03</rscale>
<asrwt>0</asrwt>
<pdfrwt beam="1">  1       21 0.59823569E-02 0.22735759E+03</pdfrwt>
<pdfrwt beam="2">  1       21 0.21068627E+00 0.22735759E+03</pdfrwt>
<totfact> 0.22198606E+04</totfact>
</mgrwt>
</event>
<event>
 5    0  0.1972558E-002  0.2881794E+03  0.7546771E-02  0.1091304E+00
         21   -1    0    0  503  502  0.00000000000E+00  0.00000000000E+00  0.39656518891E+03  0.39656518891E+03  0.00000000000E+00 0.  1.
         21   -1    0    0  501  503 -0.00000000000E+00 -0.00000000000E+00 -0.26126317107E+03  0.26126317107E+03  0.00000000000E+00 0.  1.
         25    1    1    2    0    0 -0.59427302974E+02  0.25991602029E+03 -0.77810794673E+02  0.30457751347E+03  0.12500000000E+03 0.  0.
          1    1    1    2  501    0 -0.19465901423E+02 -0.26825043656E+02  0.42108886939E+02  0.53587896437E+02  0.00000000000E+00 0. -1.
         -1    1    1    2    0  502  0.78893204396E+02 -0.23309097664E+03  0.17100392557E+03  0.29966295008E+03  0.00000000000E+00 0.  1.
<mgrwt>
<rscale>  4 0.28817937E+03</rscale>
<asrwt>0</asrwt>
<pdfrwt beam="1">  1       21 0.61010029E-01 0.28817937E+03</pdfrwt>
<pdfrwt beam="2">  1       21 0.40194334E-01 0.28817937E+03</pdfrwt>
<totfact> 0.14161130E+04</totfact>
</mgrwt>
</event>
<event>
 5    0  0.1972558E-002  0.2015909E+03  0.7546771E-02  0.1148404E+00
         21   -1    0    0  501  502  0.00000000000E+00  0.00000000000E+00  0.50969310662E+03  0.50969310662E+03  0.00000000000E+00 0. -1.
         21   -1    0    0  502  503 -0.00000000000E+00 -0.00000000000E+00 -0.49800083557E+03  0.49800083557E+03  0.00000000000E+00 0.  1.
         25    1    1    2    0    0 -0.20039847444E+03  0.87923750942E+02 -0.32813739449E+03  0.41375026792E+03  0.12500000000E+03 0.  0.
          4    1    1    2  501    0  0.15658588204E+03  0.33701816142E+01  0.43044674247E+03  0.45805555851E+03  0.00000000000E+00 0. -1.
         -4    1    1    2    0  503  0.43812592400E+02 -0.91293932556E+02 -0.90617076928E+02  0.13588811576E+03  0.00000000000E+00 0.  1.
<mgrwt>
<rscale>  4 0.20159095E+03</rscale>
<asrwt>0</asrwt>
<pdfrwt beam="1">  1       21 0.78414324E-01 0.20159095E+03</pdfrwt>
<pdfrwt beam="2">  1       21 0.76615513E-01 0.20159095E+03</pdfrwt>
<totfact> 0.21639198E+03</totfact>
</mgrwt>
</event>
<event>
 5    0  0.1972558E-002  0.2693504E+03  0.7546771E-02  0.1101652E+00
         21   -1    0    0  501  502  0.00000000000E+00  0.00000000000E+00  0.42206716086E+03  0.42206716086E+03  0.00000000000E+00 0. -1.
         21   -1    0    0  502  503 -0.00000000000E+00 -0.00000000000E+00 -0.30053485940E+03  0.30053485940E+03  0.00000000000E+00 0.  1.
         25    1    1    2    0    0  0.11910650713E+03  0.20836511339E+03 -0.17098978677E+03  0.32010137097E+03  0.12500000000E+03 0.  0.
          1    1    1    2  501    0 -0.13566015190E+03 -0.19135640062E+03  0.20404155577E+03  0.31089211208E+03  0.00000000000E+00 0. -1.
         -1    1    1    2    0  503  0.16553644768E+02 -0.17008712766E+02  0.88480532460E+02  0.91608537209E+02  0.00000000000E+00 0.  1.
<mgrwt>
<rscale>  4 0.26935038E+03</rscale>
<asrwt>0</asrwt>
<pdfrwt beam="1">  1       21 0.64933410E-01 0.26935038E+03</pdfrwt>
<pdfrwt beam="2">  1       21 0.46236132E-01 0.26935038E+03</pdfrwt>
<totfact> 0.93451983E+03</totfact>
</mgrwt>
</event>
<event>
 5    0  0.1972558E-002  0.7516035E+03  0.7546771E-02  0.9632838E-01
         21   -1    0    0  501  502  0.00000000000E+00  0.00000000000E+00  0.98055903714E+03  0.98055903714E+03  0.00000000000E+00 0. -1.
         21   -1    0    0  502  503 -0.00000000000E+00 -0.00000000000E+00 -0.10173521721E+04  0.10173521721E+04  0.00000000000E+00 0.  1.
         25    1    1    2    0    0  0.75230153345E+03  0.41446103512E+02 -0.30464627693E+03  0.82225891955E+03  0.12500000000E+03 0.  0.
          4    1    1    2  501    0 -0.72628242273E+03 -0.37947701325E+02 -0.16191834926E+03  0.74507968529E+03  0.00000000000E+00 0.  1.
         -4    1    1    2    0  503 -0.26019110722E+02 -0.34984021873E+01  0.42977149125E+03  0.43057260437E+03  0.00000000000E+00 0. -1.
<mgrwt>
<rscale>  4 0.75160349E+03</rscale>
<asrwt>0</asrwt>
<pdfrwt beam="1">  1       21 0.15085524E+00 0.75160349E+03</pdfrwt>
<pdfrwt beam="2">  1       21 0.15651572E+00 0.75160349E+03</pdfrwt>
<totfact> 0.54380165E+01</totfact>
</mgrwt>
</event>
<event>
 5    0  0.1972558E-002  0.3758192E+03  0.7546771E-02  0.1052722E+00
         21   -1    0    0  501  502  0.00000000000E+00  0.00000000000E+00  0.18613631799E+03  0.18613631799E+03  0.00000000000E+00 0. -1.
         21   -1    0    0  502  503 -0.00000000000E+00 -0.00000000000E+00 -0.21942767771E+04  0.21942767771E+04  0.00000000000E+00 0.  1.
         25    1    1    2    0    0  0.15929237207E+03 -0.31367634574E+03 -0.19672628348E+04  0.20023773298E+04  0.12500000000E+03 0.  0.
          2    1    1    2  501    0 -0.18676146491E+01  0.93266714751E+02  0.30123279428E+02  0.98028465399E+02  0.00000000000E+00 0.  1.
         -2    1    1    2    0  503 -0.15742475742E+03  0.22040963098E+03 -0.71000903778E+02  0.28000729994E+03  0.00000000000E+00 0. -1.
<mgrwt>
<rscale>  4 0.37520093E+03</rscale>
<asrwt>0</asrwt>
<pdfrwt beam="1">  1       21 0.28636357E-01 0.37581918E+03</pdfrwt>
<pdfrwt beam="2">  1       21 0.33758104E+00 0.37581918E+03</pdfrwt>
<totfact> 0.19667763E+02</totfact>
</mgrwt>
</event>
<event>
 5    0  0.1972558E-002  0.2401856E+03  0.7546771E-02  0.1119669E+00
         21   -1    0    0  501  502  0.00000000000E+00  0.00000000000E+00  0.23257763529E+03  0.23257763529E+03  0.00000000000E+00 0. -1.
         21   -1    0    0  502  503 -0.00000000000E+00 -0.00000000000E+00 -0.29034432066E+03  0.29034432066E+03  0.00000000000E+00 0.  1.
         25    1    1    2    0    0 -0.18006371704E+03 -0.11361494144E+03 -0.13040489770E+03  0.27921628616E+03  0.12500000000E+03 0.  0.
          4    1    1    2  501    0  0.15993877040E+03  0.10866622855E+03  0.29169755272E+02  0.19554956949E+03  0.00000000000E+00 0. -1.
         -4    1    1    2    0  503  0.20124946639E+02  0.49487128903E+01  0.43468457055E+02  0.48156100291E+02  0.00000000000E+00 0.  1.
<mgrwt>
<rscale>  4 0.24018559E+03</rscale>
<asrwt>0</asrwt>
<pdfrwt beam="1">  1       21 0.35781175E-01 0.24018559E+03</pdfrwt>
<pdfrwt beam="2">  1       21 0.44668357E-01 0.24018559E+03</pdfrwt>
<totfact> 0.35397816E+04</totfact>
</mgrwt>
</event>
<event>
 5    0  0.1972558E-002  0.2593454E+03  0.7546771E-02  0.1107537E+00
         21   -1    0    0  503  502  0.00000000000E+00  0.00000000000E+00  0.85491574883E+03  0.85491574883E+03  0.00000000000E+00 0. -1.
         21   -1    0    0  501  503 -0.00000000000E+00 -0.00000000000E+00 -0.78205579929E+02  0.78205579929E+02  0.00000000000E+00 0. -1.
         25    1    1    2    0    0 -0.20306792370E+03  0.87021639188E+02  0.31963554322E+03  0.40816813670E+03  0.12500000000E+03 0.  0.
          3    1    1    2  501    0 -0.61920472272E+01  0.19747452392E+02  0.61383801112E+02  0.64778656699E+02  0.00000000000E+00 0.  1.
         -3    1    1    2    0  502  0.20925997093E+03 -0.10676909158E+03  0.39569082457E+03  0.46017453537E+03  0.00000000000E+00 0. -1.
<mgrwt>
<rscale>  4 0.25934538E+03</rscale>
<asrwt>0</asrwt>
<pdfrwt beam="1">  1       21 0.13152549E+00 0.25934538E+03</pdfrwt>
<pdfrwt beam="2">  1       21 0.12031628E-01 0.25934538E+03</pdfrwt>
<totfact> 0.23611751E+04</totfact>
</mgrwt>
</event>
<event>
 5    0  0.1972558E-002  0.3111672E+03  0.7546771E-02  0.1079788E+00
         21   -1    0    0  501  502  0.00000000000E+00  0.00000000000E+00  0.20988010216E+03  0.20988010216E+03  0.00000000000E+00 0. -1.
         21   -1    0    0  502  503 -0.00000000000E+00 -0.00000000000E+00 -0.11230002716E+04  0.11230002716E+04  0.00000000000E+00 0.  1.
         25    1    1    2    0    0  0.48305693714E+02  0.27366204591E+03 -0.75640659949E+03  0.81547550494E+03  0.12500000000E+03 0.  0.
          3    1    1    2  501    0 -0.64965185962E+02  0.33879156271E+02  0.94765168169E+02  0.11978609984E+03  0.00000000000E+00 0.  1.
         -3    1    1    2    0  503  0.16659492248E+02 -0.30754120218E+03 -0.25147873813E+03  0.39761876899E+03  0.00000000000E+00 0. -1.
<mgrwt>
<rscale>  4 0.31116721E+03</rscale>
<asrwt>0</asrwt>
<pdfrwt beam="1">  1       21 0.32289247E-01 0.31116721E+03</pdfrwt>
<pdfrwt beam="2">  1       21 0.17276927E+00 0.31116721E+03</pdfrwt>
<totfact> 0.17139479E+03</totfact>
</mgrwt>
</event>
<event>
 5    0  0.2422591E-002  0.3185746E+03  0.7546771E-02  0.1076307E+00
         21   -1    0    0  501  502  0.00000000000E+00  0.00000000000E+00  0.72002101293E+03  0.72002101293E+03  0.00000000000E+00 0. -1.
         21   -1    0    0  502  503 -0.00000000000E+00 -0.00000000000E+00 -0.34222021383E+03  0.34222021383E+03  0.00000000000E+00 0. -1.
         25    1    1    2    0    0 -0.32725323750E+03 -0.18507179823E+02 -0.74898058324E+02  0.35870867887E+03  0.12500000000E+03 0.  0.
          2    1    1    2  501    0  0.28425045139E+03 -0.47870076650E+02  0.52334967482E+03  0.59748200433E+03  0.00000000000E+00 0. -1.
         -2    1    1    2    0  503  0.43002786104E+02  0.66377256474E+02 -0.70650817404E+02  0.10605054356E+03  0.00000000000E+00 0.  1.
<mgrwt>
<rscale>  4 0.31857456E+03</rscale>
<asrwt>0</asrwt>
<pdfrwt beam="1">  1       21 0.11077246E+00 0.31857456E+03</pdfrwt>
<pdfrwt beam="2">  1       21 0.52649264E-01 0.31857456E+03</pdfrwt>
<totfact> 0.20072920E+03</totfact>
</mgrwt>
</event>
<event>
 5    0  0.1972558E-002  0.1963544E+03  0.7546771E-02  0.1152852E+00
         21   -1    0    0  501  502  0.00000000000E+00  0.00000000000E+00  0.30316196211E+03  0.30316196211E+03  0.00000000000E+00 0. -1.
         21   -1    0    0  502  503 -0.00000000000E+00 -0.00000000000E+00 -0.43832232870E+03  0.43832232870E+03  0.00000000000E+00 0. -1.
         25    1    1    2    0    0  0.20141643065E+03 -0.33581923776E+02 -0.25476157036E+03  0.34960661017E+03  0.12500000000E+03 0.  0.
          4    1    1    2  501    0 -0.10208966139E+03  0.68896775591E+02 -0.93163253389E+02  0.15442945454E+03  0.00000000000E+00 0.  1.
         -4    1    1    2    0  503 -0.99326769268E+02 -0.35314851815E+02  0.21276445716E+03  0.23744822611E+03  0.00000000000E+00 0. -1.
<mgrwt>
<rscale>  4 0.19635439E+03</rscale>
<asrwt>0</asrwt>
<pdfrwt beam="1">  1       21 0.46640302E-01 0.19635439E+03</pdfrwt>
<pdfrwt beam="2">  1       21 0.67434204E-01 0.19635439E+03</pdfrwt>
<totfact> 0.88309381E+03</totfact>
</mgrwt>
</event>
<event>
 5    0  0.1972558E-002  0.2782011E+03  0.7546771E-02  0.1096676E+00
         21   -1    0    0  501  502  0.00000000000E+00  0.00000000000E+00  0.11227154694E+04  0.11227154694E+04  0.00000000000E+00 0.  1.
         21   -1    0    0  502  503 -0.00000000000E+00 -0.00000000000E+00 -0.22644183621E+04  0.22644183621E+04  0.00000000000E+00 0.  1.
         25    1    1    2    0    0 -0.17756589317E+03 -0.17470846180E+03 -0.22296665997E+04  0.22470182106E+04  0.12500000000E+03 0.  0.
          3    1    1    2  501    0  0.12786063523E+03  0.17934963045E+03  0.45835783681E+03  0.50853371427E+03  0.00000000000E+00 0. -1.
         -3    1    1    2    0  503  0.49705257934E+02 -0.46411686434E+01  0.62960587017E+03  0.63158190669E+03  0.00000000000E+00 0.  1.
<mgrwt>
<rscale>  4 0.27820112E+03</rscale>
<asrwt>0</asrwt>
<pdfrwt beam="1">  1       21 0.17272546E+00 0.27820112E+03</pdfrwt>
<pdfrwt beam="2">  1       21 0.34837205E+00 0.27820112E+03</pdfrwt>
<totfact> 0.31103905E+00</totfact>
</mgrwt>
</event>
<event>
 5    0  0.1972558E-002  0.3168604E+03  0.7546771E-02  0.1077103E+00
         21   -1    0    0  501  502  0.00000000000E+00  0.00000000000E+00  0.21079797308E+03  0.21079797308E+03  0.00000000000E+00 0.  1.
         21   -1    0    0  502  503 -0.00000000000E+00 -0.00000000000E+00 -0.47880928095E+03  0.47880928095E+03  0.00000000000E+00 0.  1.
         25    1    1    2    0    0  0.18596804123E+02  0.28308440132E+03 -0.16241578793E+03  0.34998072456E+03  0.12500000000E+03 0.  0.
          2    1    1    2  501    0 -0.67508323186E+01 -0.29957551203E+03 -0.10934462281E+03  0.31897853797E+03  0.00000000000E+00 0.  1.
         -2    1    1    2    0  503 -0.11845971804E+02  0.16491110717E+02  0.37491028674E+01  0.20647991500E+02  0.00000000000E+00 0. -1.
<mgrwt>
<rscale>  4 0.31686037E+03</rscale>
<asrwt>0</asrwt>
<pdfrwt beam="1">  1       21 0.32430458E-01 0.31686037E+03</pdfrwt>
<pdfrwt beam="2">  1       21 0.73662966E-01 0.31686037E+03</pdfrwt>
<totfact> 0.14204275E+04</totfact>
</mgrwt>
</event>
<event>
 5    0  0.1972558E-002  0.2915733E+03  0.7546771E-02  0.1089531E+00
         21   -1    0    0  501  502  0.00000000000E+00  0.00000000000E+00  0.96769505866E+03  0.96769505866E+03  0.00000000000E+00 0.  1.
         21   -1    0    0  502  503 -0.00000000000E+00 -0.00000000000E+00 -0.32083047633E+03  0.32083047633E+03  0.00000000000E+00 0. -1.
         25    1    1    2    0    0  0.24446638560E+03  0.94389479698E+02 -0.16153600871E+03  0.33225302057E+03  0.12500000000E+03 0.  0.
          3    1    1    2  501    0 -0.26006989784E+01  0.20749479852E+02  0.63897402635E+03  0.63931612751E+03  0.00000000000E+00 0.  1.
         -3    1    1    2    0  503 -0.24186568662E+03 -0.11513895955E+03  0.16942656470E+03  0.31695638690E+03  0.00000000000E+00 0. -1.
<mgrwt>
<rscale>  4 0.29157334E+03</rscale>
<asrwt>0</asrwt>
<pdfrwt beam="1">  1       21 0.14887616E+00 0.29157334E+03</pdfrwt>
<pdfrwt beam="2">  1       21 0.49358535E-01 0.29157334E+03</pdfrwt>
<totfact> 0.10978027E+03</totfact>
</mgrwt>
</event>
<event>
 5    0  0.1972558E-002  0.1865696E+03  0.7546771E-02  0.1161592E+00
         21   -1    0    0  501  502  0.00000000000E+00  0.00000000000E+00  0.14285832873E+03  0.14285832873E+03  0.00000000000E+00 0.  1.
         21   -1    0    0  502  503 -0.00000000000E+00 -0.00000000000E+00 -0.49742700206E+03  0.49742700206E+03  0.00000000000E+00 0. -1.
         25    1    1    2    0    0 -0.21537217518E+03 -0.19232405553E+02 -0.26749824667E+03  0.36597181754E+03  0.12500000000E+03 0.  0.
          2    1    1    2  501    0  0.11866504713E+03  0.43118290837E+02  0.20270424298E+02  0.12787286857E+03  0.00000000000E+00 0.  1.
         -2    1    1    2    0  503  0.96707128044E+02 -0.23885885284E+02 -0.10734085095E+03  0.14644064468E+03  0.00000000000E+00 0. -1.
<mgrwt>
<rscale>  4 0.18656959E+03</rscale>
<asrwt>0</asrwt>
<pdfrwt beam="1">  1       21 0.21978204E-01 0.18656959E+03</pdfrwt>
<pdfrwt beam="2">  1       21 0.76527231E-01 0.18656959E+03</pdfrwt>
<totfact> 0.29490266E+04</totfact>
</mgrwt>
</event>
<event>
 5    0  0.1972558E-002  0.3238349E+03  0.7546771E-02  0.1073898E+00
         21   -1    0    0  503  502  0.00000000000E+00  0.00000000000E+00  0.10704560309E+04  0.10704560309E+04  0.00000000000E+00 0.  1.
         21   -1    0    0  501  503 -0.00000000000E+00 -0.00000000000E+00 -0.91446840318E+03  0.91446840318E+03  0.00000000000E+00 0.  1.
         25    1    1    2    0    0  0.66383462494E+02 -0.29743433550E+03 -0.84775307313E+03  0.90949668555E+03  0.12500000000E+03 0.  0.
          1    1    1    2  501    0 -0.13394345859E+03  0.18413021325E+03  0.42832869118E+03  0.48508788196E+03  0.00000000000E+00 0. -1.
         -1    1    1    2    0  502  0.67559996095E+02  0.11330412225E+03  0.57541200968E+03  0.59033986658E+03  0.00000000000E+00 0.  1.
<mgrwt>
<rscale>  4 0.32383491E+03</rscale>
<asrwt>0</asrwt>
<pdfrwt beam="1">  1       21 0.16468554E+00 0.32383491E+03</pdfrwt>
<pdfrwt beam="2">  1       21 0.14068745E+00 0.32383491E+03</pdfrwt>
<totfact> 0.71128494E+01</totfact>
</mgrwt>
</event>
<event>
 5    0  0.1972558E-002  0.2767287E+03  0.7546771E-02  0.1097489E+00
         21   -1    0    0  501  502  0.00000000000E+00  0.00000000000E+00  0.74809780130E+03  0.74809780130E+03  0.00000000000E+00 0.  1.
         21   -1    0    0  502  503 -0.00000000000E+00 -0.00000000000E+00 -0.62617300343E+03  0.62617300343E+03  0.00000000000E+00 0.  1.
         25    1    1    2    0    0 -0.63679911608E+02 -0.25306009527E+03 -0.47494765853E+03  0.55614280658E+03  0.12500000000E+03 0.  0.
          3    1    1    2  501    0  0.33455501213E+02  0.43092855156E+02  0.60343399448E+03  0.60589508202E+03  0.00000000000E+00 0.  1.
         -3    1    1    2    0  503  0.30224410395E+02  0.20996724012E+03 -0.65615380713E+01  0.21223291613E+03  0.00000000000E+00 0. -1.
<mgrwt>
<rscale>  4 0.27672873E+03</rscale>
<asrwt>0</asrwt>
<pdfrwt beam="1">  1       21 0.11509197E+00 0.27672873E+03</pdfrwt>
<pdfrwt beam="2">  1       21 0.96334308E-01 0.27672873E+03</pdfrwt>
<totfact> 0.48475931E+02</totfact>
</mgrwt>
</event>
<event>
 5    0  0.1972558E-002  0.2994602E+03  0.7546771E-02  0.1085511E+00
         21   -1    0    0  501  502  0.00000000000E+00  0.00000000000E+00  0.76106980901E+03  0.76106980901E+03  0.00000000000E+00 0. -1.
         21   -1    0    0  502  503 -0.00000000000E+00 -0.00000000000E+00 -0.21737039841E+03  0.21737039841E+03  0.00000000000E+00 0. -1.
         25    1    1    2    0    0 -0.18950616819E+03  0.20665213453E+03  0.37938280919E+02  0.30932508086E+03  0.12500000000E+03 0.  0.
          4    1    1    2  501    0  0.19704640776E+03 -0.17388554924E+03  0.13244428717E+03  0.29428720708E+03  0.00000000000E+00 0. -1.
         -4    1    1    2    0  503 -0.75402395641E+01 -0.32766585292E+02  0.37331684251E+03  0.37482791949E+03  0.00000000000E+00 0.  1.
<mgrwt>
<rscale>  4 0.29946020E+03</rscale>
<asrwt>0</asrwt>
<pdfrwt beam="1">  1       21 0.11708766E+00 0.29946020E+03</pdfrwt>
<pdfrwt beam="2">  1       21 0.33441600E-01 0.29946020E+03</pdfrwt>
<totfact> 0.45007078E+03</totfact>
</mgrwt>
</event>
<event>
 5    0  0.1972558E-002  0.3089697E+03  0.7546771E-02  0.1080841E+00
         21   -1    0    0  501  502  0.00000000000E+00  0.00000000000E+00  0.41821185223E+03  0.41821185223E+03  0.00000000000E+00 0.  1.
         21   -1    0    0  502  503 -0.00000000000E+00 -0.00000000000E+00 -0.34194422631E+03  0.34194422631E+03  0.00000000000E+00 0. -1.
         25    1    1    2    0    0  0.36724256411E+02 -0.29177644790E+03  0.39830186367E+02  0.32201492249E+03  0.12500000000E+03 0.  0.
          1    1    1    2  501    0 -0.15280119876E+02  0.27626944568E+03 -0.10373068070E+03  0.29549677290E+03  0.00000000000E+00 0. -1.
         -1    1    1    2    0  503 -0.21444136534E+02  0.15507002228E+02  0.14016812025E+03  0.14264438315E+03  0.00000000000E+00 0.  1.
<mgrwt>
<rscale>  4 0.30896970E+03</rscale>
<asrwt>0</asrwt>
<pdfrwt beam="1">  1       21 0.64340285E-01 0.30896970E+03</pdfrwt>
<pdfrwt beam="2">  1       21 0.52606804E-01 0.30896970E+03</pdfrwt>
<totfact> 0.71308707E+03</totfact>
</mgrwt>
</event>
<event>
 5    0  0.1972558E-002  0.2627234E+03  0.7546771E-02  0.1105518E+00
         21   -1    0    0  501  502  0.00000000000E+00  0.00000000000E+00  0.18665042330E+03  0.18665042330E+03  0.00000000000E+00 0.  1.
         21   -1    0    0  502  503 -0.00000000000E+00 -0.00000000000E+00 -0.93628096012E+03  0.93628096012E+03  0.00000000000E+00 0. -1.
         25    1    1    2    0    0 -0.19730980891E+03 -0.12028065924E+03 -0.82902752616E+03  0.86966098959E+03  0.12500000000E+03 0.  0.
          3    1    1    2  501    0  0.17705293730E+03  0.10146912886E+03  0.44698360741E+02  0.20890588831E+03  0.00000000000E+00 0.  1.
         -3    1    1    2    0  503  0.20256871612E+02  0.18811530383E+02  0.34698628606E+02  0.44364505520E+02  0.00000000000E+00 0. -1.
<mgrwt>
<rscale>  4 0.26272342E+03</rscale>
<asrwt>0</asrwt>
<pdfrwt beam="1">  1       21 0.28715449E-01 0.26272342E+03</pdfrwt>
<pdfrwt beam="2">  1       21 0.14404323E+00 0.26272342E+03</pdfrwt>
<totfact> 0.36555367E+03</totfact>
</mgrwt>
</event>
<event>
 5    0  0.1972558E-002  0.2428774E+03  0.7546771E-02  0.1117891E+00
         21   -1    0    0  501  502  0.00000000000E+00  0.00000000000E+00  0.72534411877E+03  0.72534411877E+03  0.00000000000E+00 0. -1.
         21   -1    0    0  502  503 -0.00000000000E+00 -0.00000000000E+00 -0.20625331308E+03  0.20625331308E+03  0.00000000000E+00 0.  1.
         25    1    1    2    0    0 -0.19295092863E+03 -0.78322076958E+02 -0.10945277959E+03  0.26640067485E+03  0.12500000000E+03 0.  0.
          1    1    1    2  501    0  0.22412735391E+02  0.10191246648E+02  0.16114420846E+03  0.16301425747E+03  0.00000000000E+00 0.  1.
         -1    1    1    2    0  503  0.17053819324E+03  0.68130830310E+02  0.46739937682E+03  0.50218249954E+03  0.00000000000E+00 0. -1.
<mgrwt>
<rscale>  4 0.24287735E+03</rscale>
<asrwt>0</asrwt>
<pdfrwt beam="1">  1       21 0.11159140E+00 0.24287735E+03</pdfrwt>
<pdfrwt beam="2">  1       21 0.31731279E-01 0.24287735E+03</pdfrwt>
<totfact> 0.58103686E+03</totfact>
</mgrwt>
</event>
<event>
 5    0  0.1972558E-002  0.3224612E+03  0.7546771E-02  0.1074522E+00
         21   -1    0    0  501  502  0.00000000000E+00  0.00000000000E+00  0.37084158953E+03  0.37084158953E+03  0.00000000000E+00 0. -1.
         21   -1    0    0  502  503 -0.00000000000E+00 -0.00000000000E+00 -0.44402090695E+03  0.44402090695E+03  0.00000000000E+00 0.  1.
         25    1    1    2    0    0  0.20572252917E+03  0.23802106478E+03 -0.24096898378E+03  0.41553199327E+03  0.12500000000E+03 0.  0.
          2    1    1    2  501    0 -0.50661078414E+02  0.11388074986E+02 -0.14200138826E+02  0.53831933465E+02  0.00000000000E+00 0.  1.
         -2    1    1    2    0  503 -0.15506145075E+03 -0.24940913976E+03  0.18198980519E+03  0.34549856975E+03  0.00000000000E+00 0. -1.
<mgrwt>
<rscale>  4 0.32246125E+03</rscale>
<asrwt>0</asrwt>
<pdfrwt beam="1">  1       21 0.57052552E-01 0.32246125E+03</pdfrwt>
<pdfrwt beam="2">  1       21 0.68310909E-01 0.32246125E+03</pdfrwt>
<totfact> 0.52179108E+03</totfact>
</mgrwt>
</event>
<event>
 5    0  0.1972558E-002  0.2451968E+03  0.7546771E-02  0.1116379E+00
         21   -1    0    0  501  502  0.00000000000E+00  0.00000000000E+00  0.15555759408E+04  0.15555759408E+04  0.00000000000E+00 0. -1.
         21   -1    0    0  502  503 -0.00000000000E+00 -0.00000000000E+00 -0.46778718965E+03  0.46778718965E+03  0.00000000000E+00 0. -1.
         25    1    1    2    0    0 -0.17388726393E+03  0.12099180682E+03 -0.42607771277E+03  0.49197867352E+03  0.12500000000E+03 0.  0.
          1    1    1    2  501    0  0.14719246000E+03 -0.10968353767E+03  0.10005142444E+04  0.10172142606E+04  0.00000000000E+00 0. -1.
         -1    1    1    2    0  503  0.26694803930E+02 -0.11308269142E+02  0.51335221946E+03  0.51417019627E+03  0.00000000000E+00 0.  1.
<mgrwt>
<rscale>  4 0.24519679E+03</rscale>
<asrwt>0</asrwt>
<pdfrwt beam="1">  1       21 0.23931937E+00 0.24519679E+03</pdfrwt>
<pdfrwt beam="2">  1       21 0.71967261E-01 0.24519679E+03</pdfrwt>
<totfact> 0.12505754E+02</totfact>
</mgrwt>
</event>
<event>
 5    0  0.1972558E-002  0.2665959E+03  0.7546771E-02  0.1103244E+00
         21   -1    0    0  501  502  0.00000000000E+00  0.00000000000E+00  0.31401662081E+03  0.31401662081E+03  0.00000000000E+00 0.  1.
         21   -1    0    0  502  503 -0.00000000000E+00 -0.00000000000E+00 -0.21449711851E+03  0.21449711851E+03  0.00000000000E+00 0.  1.
         25    1    1    2    0    0  0.18381803089E+03 -0.14717096530E+03  0.91796589306E+02  0.28195739982E+03  0.12500000000E+03 0.  0.
          1    1    1    2  501    0 -0.18263509803E+02  0.36277620645E+02  0.23058149106E+02  0.46704387269E+02  0.00000000000E+00 0. -1.
         -1    1    1    2    0  503 -0.16555452109E+03  0.11089334465E+03 -0.15335236110E+02  0.19985195222E+03  0.00000000000E+00 0.  1.
<mgrwt>
<rscale>  4 0.26659588E+03</rscale>
<asrwt>0</asrwt>
<pdfrwt beam="1">  1       21 0.48310250E-01 0.26659588E+03</pdfrwt>
<pdfrwt beam="2">  1       21 0.32999557E-01 0.26659588E+03</pdfrwt>
<totfact> 0.34955585E+04</totfact>
</mgrwt>
</event>
<event>
 5    0  0.1972558E-002  0.3043632E+03  0.7546771E-02  0.1083080E+00
         21   -1    0    0  503  502  0.00000000000E+00  0.00000000000E+00  0.50244967365E+03  0.50244967365E+03  0.00000000000E+00 0.  1.
         21   -1    0    0  501  503 -0.00000000000E+00 -0.00000000000E+00 -0.32691319284E+03  0.32691319284E+03  0.00000000000E+00 0.  1.
         25    1    1    2    0    0  0.31088181471E+02 -0.28776611851E+03 -0.16403170343E+03  0.35539726183E+03  0.12500000000E+03 0.  0.
          4    1    1    2  501    0  0.46638652515E+02  0.51353448037E+02  0.13513800900E+03  0.15190333113E+03  0.00000000000E+00 0. -1.
         -4    1    1    2    0  502 -0.77726833986E+02  0.23641267047E+03  0.20443017524E+03  0.32206227353E+03  0.00000000000E+00 0.  1.
<mgrwt>
<rscale>  4 0.30436319E+03</rscale>
<asrwt>0</asrwt>
<pdfrwt beam="1">  1       21 0.77299950E-01 0.30436319E+03</pdfrwt>
<pdfrwt beam="2">  1       21 0.50294337E-01 0.30436319E+03</pdfrwt>
<totfact> 0.52160971E+03</totfact>
</mgrwt>
</event>
<event>
 5    0  0.1972558E-002  0.3011598E+03  0.7546771E-02  0.1084662E+00
         21   -1    0    0  501  502  0.00000000000E+00  0.00000000000E+00  0.38746510864E+03  0.38746510864E+03  0.00000000000E+00 0. -1.
         21   -1    0    0  502  503 -0.00000000000E+00 -0.00000000000E+00 -0.64461246670E+03  0.64461246670E+03  0.00000000000E+00 0.  1.
         25    1    1    2    0    0 -0.28549612399E+03  0.56626802198E+02 -0.49729146006E+03  0.58960870735E+03  0.12500000000E+03 0.  0.
          4    1    1    2  501    0  0.66184761366E+02 -0.54320774256E+01  0.20380166905E+03  0.21434796572E+03  0.00000000000E+00 0. -1.
         -4    1    1    2    0  503  0.21931136262E+03 -0.51194724773E+02  0.36342432952E+02  0.22812090227E+03  0.00000000000E+00 0.  1.
<mgrwt>
<rscale>  4 0.30115985E+03</rscale>
<asrwt>0</asrwt>
<pdfrwt beam="1">  1       21 0.59610018E-01 0.30115985E+03</pdfrwt>
<pdfrwt beam="2">  1       21 0.99171147E-01 0.30115985E+03</pdfrwt>
<totfact> 0.20323795E+03</totfact>
</mgrwt>
</event>
<event>
 5    0  0.1972558E-002  0.2598636E+03  0.7546771E-02  0.1107225E+00
         21   -1    0    0  501  502  0.00000000000E+00  0.00000000000E+00  0.34025502356E+03  0.34025502356E+03  0.00000000000E+00 0.  1.
         21   -1    0    0  502  503 -0.00000000000E+00 -0.00000000000E+00 -0.41107408692E+03  0.41107408692E+03  0.00000000000E+00 0.  1.
         25    1    1    2    0    0  0.15616998774E+03  0.19922357559E+03 -0.28644912743E+03  0.40219050306E+03  0.12500000000E+03 0.  0.
          2    1    1    2  501    0 -0.13307113655E+03 -0.18072351645E+03  0.22529694085E+03  0.31800570488E+03  0.00000000000E+00 0.  1.
         -2    1    1    2    0  503 -0.23098851188E+02 -0.18500059143E+02 -0.96668767653E+01  0.31132902545E+02  0.00000000000E+00 0. -1.
<mgrwt>
<rscale>  4 0.25986357E+03</rscale>
<asrwt>0</asrwt>
<pdfrwt beam="1">  1       21 0.52346927E-01 0.25986357E+03</pdfrwt>
<pdfrwt beam="2">  1       21 0.63242167E-01 0.25986357E+03</pdfrwt>
<totfact> 0.76709186E+03</totfact>
</mgrwt>
</event>
<event>
 5    0  0.1972558E-002  0.2553223E+03  0.7546771E-02  0.1109987E+00
         21   -1    0    0  501  502  0.00000000000E+00  0.00000000000E+00  0.25466699658E+03  0.25466699658E+03  0.00000000000E+00 0.  1.
         21   -1    0    0  502  503 -0.00000000000E+00 -0.00000000000E+00 -0.11968040838E+04  0.11968040838E+04  0.00000000000E+00 0. -1.
         25    1    1    2    0    0 -0.23362678783E+03 -0.58667526110E+01 -0.10510488178E+04  0.10839485746E+04  0.12500000000E+03 0.  0.
          3    1    1    2  501    0  0.17939571788E+03 -0.21990383908E+01 -0.60597665130E+02  0.18936667178E+03  0.00000000000E+00 0. -1.
         -3    1    1    2    0  503  0.54231069947E+02  0.80657910018E+01  0.16950939579E+03  0.17815583401E+03  0.00000000000E+00 0.  1.
<mgrwt>
<rscale>  4 0.25532230E+03</rscale>
<asrwt>0</asrwt>
<pdfrwt beam="1">  1       21 0.39179538E-01 0.25532230E+03</pdfrwt>
<pdfrwt beam="2">  1       21 0.18412371E+00 0.25532230E+03</pdfrwt>
<totfact> 0.10089957E+03</totfact>
</mgrwt>
</event>
<event>
 5    0  0.1972558E-002  0.2314742E+03  0.7546771E-02  0.1125606E+00
         21   -1    0    0  501  502  0.00000000000E+00  0.00000000000E+00  0.71166561722E+03  0.71166561722E+03  0.00000000000E+00 0. -1.
         21   -1    0    0  502  503 -0.00000000000E+00 -0.00000000000E+00 -0.20075521611E+03  0.20075521611E+03  0.00000000000E+00 0. -1.
         25    1    1    2    0    0  0.16114031244E+03  0.12872523498E+03 -0.89315299773E+02  0.25717427785E+03  0.12500000000E+03 0.  0.
          2    1    1    2  501    0 -0.68038720457E+02 -0.11451301057E+03  0.50115203737E+03  0.51855169620E+03  0.00000000000E+00 0. -1.
         -2    1    1    2    0  503 -0.93101591985E+02 -0.14212224409E+02  0.99073663513E+02  0.13669485928E+03  0.00000000000E+00 0.  1.
<mgrwt>
<rscale>  4 0.23147421E+03</rscale>
<asrwt>0</asrwt>
<pdfrwt beam="1">  1       21 0.10948702E+00 0.23147421E+03</pdfrwt>
<pdfrwt beam="2">  1       21 0.30885418E-01 0.23147421E+03</pdfrwt>
<totfact> 0.64662078E+03</totfact>
</mgrwt>
</event>
<event>
 5    0  0.1972558E-002  0.4557181E+03  0.7546771E-02  0.1026030E+00
         21   -1    0    0  503  502  0.00000000000E+00  0.00000000000E+00  0.30309409067E+03  0.30309409067E+03  0.00000000000E+00 0. -1.
         21   -1    0    0  501  503 -0.00000000000E+00 -0.00000000000E+00 -0.15449227840E+04  0.15449227840E+04  0.00000000000E+00 0.  1.
         25    1    1    2    0    0 -0.17873806785E+03 -0.40013338318E+03 -0.13199004664E+04  0.13963582142E+04  0.12500000000E+03 0.  0.
          3    1    1    2  501    0  0.13594247747E+02  0.10833499660E+03  0.27315159219E+02  0.11254951347E+03  0.00000000000E+00 0.  1.
         -3    1    1    2    0  502  0.16514382011E+03  0.29179838658E+03  0.50756613828E+02  0.33910914700E+03  0.00000000000E+00 0. -1.
<mgrwt>
<rscale>  4 0.45571814E+03</rscale>
<asrwt>0</asrwt>
<pdfrwt beam="1">  1       21 0.46629860E-01 0.45571814E+03</pdfrwt>
<pdfrwt beam="2">  1       21 0.23768043E+00 0.45571814E+03</pdfrwt>
<totfact> 0.27787419E+02</totfact>
</mgrwt>
</event>
<event>
 5    0  0.1972558E-002  0.2610254E+03  0.7546771E-02  0.1106529E+00
         21   -1    0    0  501  502  0.00000000000E+00  0.00000000000E+00  0.16789492472E+04  0.16789492472E+04  0.00000000000E+00 0. -1.
         21   -1    0    0  502  503 -0.00000000000E+00 -0.00000000000E+00 -0.13535776156E+03  0.13535776156E+03  0.00000000000E+00 0.  1.
         25    1    1    2    0    0 -0.17162132378E+03 -0.11501081619E+03  0.31397744508E+03  0.39609115445E+03  0.12500000000E+03 0.  0.
          2    1    1    2  501    0 -0.24309699313E+02 -0.21478588529E+02  0.11721694213E+04  0.11726182003E+04  0.00000000000E+00 0. -1.
         -2    1    1    2    0  503  0.19593102309E+03  0.13648940472E+03  0.57444619246E+02  0.24559765408E+03  0.00000000000E+00 0.  1.
<mgrwt>
<rscale>  4 0.26102535E+03</rscale>
<asrwt>0</asrwt>
<pdfrwt beam="1">  1       21 0.25829987E+00 0.26102535E+03</pdfrwt>
<pdfrwt beam="2">  1       21 0.20824272E-01 0.26102535E+03</pdfrwt>
<totfact> 0.11832883E+03</totfact>
</mgrwt>
</event>
<event>
 5    0  0.1972558E-002  0.2665971E+03  0.7546771E-02  0.1103243E+00
         21   -1    0    0  501  502  0.00000000000E+00  0.00000000000E+00  0.61545307759E+03  0.61545307759E+03  0.00000000000E+00 0.  1.
         21   -1    0    0  502  503 -0.00000000000E+00 -0.00000000000E+00 -0.30780765491E+03  0.30780765491E+03  0.00000000000E+00 0. -1.
         25    1    1    2    0    0 -0.18407651654E+03  0.12837987663E+03 -0.16035853114E+03  0.30282901970E+03  0.12500000000E+03 0.  0.
          4    1    1    2  501    0  0.27712494582E+03 -0.10143976036E+03  0.26992622236E+03  0.39993552743E+03  0.00000000000E+00 0. -1.
         -4    1    1    2    0  503 -0.93048429288E+02 -0.26940116269E+02  0.19807773146E+03  0.22049618536E+03  0.00000000000E+00 0.  1.
<mgrwt>
<rscale>  4 0.26659712E+03</rscale>
<asrwt>0</asrwt>
<pdfrwt beam="1">  1       21 0.94685089E-01 0.26659712E+03</pdfrwt>
<pdfrwt beam="2">  1       21 0.47355024E-01 0.26659712E+03</pdfrwt>
<totfact> 0.37771696E+03</totfact>
</mgrwt>
</event>
<event>
 5    0  0.1972558E-002  0.5735698E+03  0.7546771E-02  0.9961810E-01
         21   -1    0    0  501  502  0.00000000000E+00  0.00000000000E+00  0.19382357567E+04  0.19382357567E+04  0.00000000000E+00 0.  1.
         21   -1    0    0  502  503 -0.00000000000E+00 -0.00000000000E+00 -0.22884433365E+03  0.22884433365E+03  0.00000000000E+00 0.  1.
         25    1    1    2    0    0 -0.35258731898E+02 -0.56399410894E+03  0.50462519945E+03  0.76785683888E+03  0.12500000000E+03 0.  0.
          4    1    1    2  501    0  0.17665661681E+02  0.55305802923E+03  0.69196006767E+03  0.88599886825E+03  0.00000000000E+00 0.  1.
         -4    1    1    2    0  503  0.17593070217E+02  0.10936079719E+02  0.51280615594E+03  0.51322438322E+03  0.00000000000E+00 0. -1.
<mgrwt>
<rscale>  4 0.57356982E+03</rscale>
<asrwt>0</asrwt>
<pdfrwt beam="1">  1       21 0.29819010E+00 0.57356982E+03</pdfrwt>
<pdfrwt beam="2">  1       21 0.35206822E-01 0.57356982E+03</pdfrwt>
<totfact> 0.19985654E+02</totfact>
</mgrwt>
</event>
<event>
 5    0  0.1972558E-002  0.2226588E+03  0.7546771E-02  0.1131916E+00
         21   -1    0    0  501  502  0.00000000000E+00  0.00000000000E+00  0.30786953046E+03  0.30786953046E+03  0.00000000000E+00 0.  1.
         21   -1    0    0  502  503 -0.00000000000E+00 -0.00000000000E+00 -0.64792492788E+03  0.64792492788E+03  0.00000000000E+00 0.  1.
         25    1    1    2    0    0  0.19873460352E+03 -0.32401258972E+02 -0.40135672015E+03  0.46610889396E+03  0.12500000000E+03 0.  0.
          3    1    1    2  501    0 -0.13898031720E+03  0.10948718911E+03 -0.16583379810E+03  0.24249499322E+03  0.00000000000E+00 0.  1.
         -3    1    1    2    0  503 -0.59754286320E+02 -0.77085930135E+02  0.22713512083E+03  0.24719057116E+03  0.00000000000E+00 0. -1.
<mgrwt>
<rscale>  4 0.22265884E+03</rscale>
<asrwt>0</asrwt>
<pdfrwt beam="1">  1       21 0.47364544E-01 0.22265884E+03</pdfrwt>
<pdfrwt beam="2">  1       21 0.99680757E-01 0.22265884E+03</pdfrwt>
<totfact> 0.34431347E+03</totfact>
</mgrwt>
</event>
<event>
 5    0  0.1972558E-002  0.3234688E+03  0.7546771E-02  0.1074064E+00
         21   -1    0    0  503  502  0.00000000000E+00  0.00000000000E+00  0.22047088355E+04  0.22047088355E+04  0.00000000000E+00 0. -1.
         21   -1    0    0  501  503 -0.00000000000E+00 -0.00000000000E+00 -0.13410717221E+03  0.13410717221E+03  0.00000000000E+00 0.  1.
         25    1    1    2    0    0  0.60789372496E-01  0.29834055612E+03  0.90476704389E+02  0.33588409483E+03  0.12500000000E+03 0.  0.
          3    1    1    2  501    0 -0.99836066330E+01 -0.24503336104E+02  0.13468148388E+03  0.13725592148E+03  0.00000000000E+00 0.  1.
         -3    1    1    2    0  502  0.99228172605E+01 -0.27383722002E+03  0.18454434750E+04  0.18656759914E+04  0.00000000000E+00 0. -1.
<mgrwt>
<rscale>  4 0.32346884E+03</rscale>
<asrwt>0</asrwt>
<pdfrwt beam="1">  1       21 0.33918595E+00 0.32346884E+03</pdfrwt>
<pdfrwt beam="2">  1       21 0.20631874E-01 0.32346884E+03</pdfrwt>
<totfact> 0.37835338E+02</totfact>
</mgrwt>
</event>
<event>
 5    0  0.1972558E-002  0.2897879E+03  0.7546771E-02  0.1090460E+00
         21   -1    0    0  501  502  0.00000000000E+00  0.00000000000E+00  0.17477821041E+03  0.17477821041E+03  0.00000000000E+00 0.  1.
         21   -1    0    0  502  503 -0.00000000000E+00 -0.00000000000E+00 -0.65502932067E+03  0.65502932067E+03  0.00000000000E+00 0.  1.
         25    1    1    2    0    0 -0.96569695288E+02 -0.24638266997E+03 -0.34329358025E+03  0.45111595887E+03  0.12500000000E+03 0.  0.
          1    1    1    2  501    0  0.68907920163E+02  0.24896886618E+03 -0.18873642785E+03  0.31993005014E+03  0.00000000000E+00 0.  1.
         -1    1    1    2    0  503  0.27661775125E+02 -0.25861962037E+01  0.51778897835E+02  0.58761522061E+02  0.00000000000E+00 0. -1.
<mgrwt>
<rscale>  4 0.28978785E+03</rscale>
<asrwt>0</asrwt>
<pdfrwt beam="1">  1       21 0.26888955E-01 0.28978785E+03</pdfrwt>
<pdfrwt beam="2">  1       21 0.10077374E+00 0.28978785E+03</pdfrwt>
<totfact> 0.10028948E+04</totfact>
</mgrwt>
</event>
<event>
 5    0  0.1972558E-002  0.2753387E+03  0.7546771E-02  0.1098262E+00
         21   -1    0    0  503  502  0.00000000000E+00  0.00000000000E+00  0.96238722746E+03  0.96238722746E+03  0.00000000000E+00 0. -1.
         21   -1    0    0  501  503 -0.00000000000E+00 -0.00000000000E+00 -0.98648123029E+02  0.98648123029E+02  0.00000000000E+00 0.  1.
         25    1    1    2    0    0  0.23846487130E+02 -0.26436558720E+03  0.26442341148E+03  0.39497159289E+03  0.12500000000E+03 0.  0.
          2    1    1    2  501    0 -0.44699011926E+02  0.43923312178E+02  0.19843547636E+03  0.20809588487E+03  0.00000000000E+00 0.  1.
         -2    1    1    2    0  502  0.20852524796E+02  0.22044227503E+03  0.40088021659E+03  0.45796787274E+03  0.00000000000E+00 0. -1.
<mgrwt>
<rscale>  4 0.27533865E+03</rscale>
<asrwt>0</asrwt>
<pdfrwt beam="1">  1       21 0.14805957E+00 0.27533865E+03</pdfrwt>
<pdfrwt beam="2">  1       21 0.15176635E-01 0.27533865E+03</pdfrwt>
<totfact> 0.11270350E+04</totfact>
</mgrwt>
</event>
<event>
 5    0  0.1972558E-002  0.3413578E+03  0.7546771E-02  0.1066219E+00
         21   -1    0    0  501  502  0.00000000000E+00  0.00000000000E+00  0.33071920847E+03  0.33071920847E+03  0.00000000000E+00 0. -1.
         21   -1    0    0  502  503 -0.00000000000E+00 -0.00000000000E+00 -0.59022716624E+03  0.59022716624E+03  0.00000000000E+00 0. -1.
         25    1    1    2    0    0 -0.22249327510E+03  0.22080457094E+03 -0.34256645997E+03  0.48086868842E+03  0.12500000000E+03 0.  0.
          4    1    1    2  501    0 -0.74083208322E+02 -0.55918659303E+02  0.19587659761E+02  0.94862503807E+02  0.00000000000E+00 0.  1.
         -4    1    1    2    0  503  0.29657648342E+03 -0.16488591163E+03  0.63470842435E+02  0.34521518248E+03  0.00000000000E+00 0. -1.
<mgrwt>
<rscale>  4 0.34135782E+03</rscale>
<asrwt>0</asrwt>
<pdfrwt beam="1">  1       21 0.50879879E-01 0.34135782E+03</pdfrwt>
<pdfrwt beam="2">  1       21 0.90804178E-01 0.34135782E+03</pdfrwt>
<totfact> 0.34446317E+03</totfact>
</mgrwt>
</event>
<event>
 5    0  0.1972558E-002  0.2090395E+03  0.7546771E-02  0.1142329E+00
         21   -1    0    0  503  502  0.00000000000E+00  0.00000000000E+00  0.93650171187E+02  0.93650171187E+02  0.00000000000E+00 0. -1.
         21   -1    0    0  501  503 -0.00000000000E+00 -0.00000000000E+00 -0.78084376848E+03  0.78084376848E+03  0.00000000000E+00 0. -1.
         25    1    1    2    0    0  0.17222457760E+03  0.10498732162E+03 -0.20989833018E+03  0.31680585828E+03  0.12500000000E+03 0.  0.
          4    1    1    2  501    0 -0.20333889204E+02 -0.54392048542E+02 -0.41790908046E+01  0.58218783865E+02  0.00000000000E+00 0.  1.
         -4    1    1    2    0  502 -0.15189068840E+03 -0.50595273076E+02 -0.47311617631E+03  0.49946929752E+03  0.00000000000E+00 0. -1.
<mgrwt>
<rscale>  4 0.20903953E+03</rscale>
<asrwt>0</asrwt>
<pdfrwt beam="1">  1       21 0.14407719E-01 0.20903953E+03</pdfrwt>
<pdfrwt beam="2">  1       21 0.12012981E+00 0.20903953E+03</pdfrwt>
<totfact> 0.22005800E+04</totfact>
</mgrwt>
</event>
<event>
 5    0  0.1972558E-002  0.2275429E+03  0.7546771E-02  0.1128381E+00
         21   -1    0    0  501  502  0.00000000000E+00  0.00000000000E+00  0.38978330424E+03  0.38978330424E+03  0.00000000000E+00 0. -1.
         21   -1    0    0  502  503 -0.00000000000E+00 -0.00000000000E+00 -0.15863201895E+03  0.15863201895E+03  0.00000000000E+00 0. -1.
         25    1    1    2    0    0 -0.11440508407E+03 -0.16760379126E+03  0.18115666512E+02  0.23902454158E+03  0.12500000000E+03 0.  0.
          2    1    1    2  501    0  0.13925078594E+02  0.25793783374E+02  0.94692605592E+02  0.99125761679E+02  0.00000000000E+00 0.  1.
         -2    1    1    2    0  503  0.10048000547E+03  0.14181000789E+03  0.11834301318E+03  0.21026501993E+03  0.00000000000E+00 0. -1.
<mgrwt>
<rscale>  4 0.22754286E+03</rscale>
<asrwt>0</asrwt>
<pdfrwt beam="1">  1       21 0.59966662E-01 0.22754286E+03</pdfrwt>
<pdfrwt beam="2">  1       21 0.24404926E-01 0.22754286E+03</pdfrwt>
<totfact> 0.40439737E+04</totfact>
</mgrwt>
</event>
<event>
 5    0  0.1972558E-002  0.3198301E+03  0.7546771E-02  0.1075728E+00
         21   -1    0    0  501  502  0.00000000000E+00  0.00000000000E+00  0.75481496902E+03  0.75481496902E+03  0.00000000000E+00 0. -1.
         21   -1    0    0  502  503 -0.00000000000E+00 -0.00000000000E+00 -0.14295006104E+04  0.14295006104E+04  0.00000000000E+00 0.  1.
         25    1    1    2    0    0  0.29166373559E+03 -0.57936442187E+02 -0.13502115111E+04  0.13882076540E+04  0.12500000000E+03 0.  0.
          2    1    1    2  501    0 -0.25686546585E+03 -0.53551369230E+02  0.28012920113E+03  0.38382285760E+03  0.00000000000E+00 0.  1.
         -2    1    1    2    0  503 -0.34798269743E+02  0.11148781142E+03  0.39539666854E+03  0.41228506784E+03  0.00000000000E+00 0. -1.
<mgrwt>
<rscale>  4 0.31983011E+03</rscale>
<asrwt>0</asrwt>
<pdfrwt beam="1">  1       21 0.11612538E+00 0.31983011E+03</pdfrwt>
<pdfrwt beam="2">  1       21 0.21992317E+00 0.31983011E+03</pdfrwt>
<totfact> 0.49479085E+01</totfact>
</mgrwt>
</event>
<event>
 5    0  0.1972558E-002  0.2971184E+03  0.7546771E-02  0.1086690E+00
         21   -1    0    0  503  502  0.00000000000E+00  0.00000000000E+00  0.28346987575E+03  0.28346987575E+03  0.00000000000E+00 0. -1.
         21   -1    0    0  501  503 -0.00000000000E+00 -0.00000000000E+00 -0.19340880223E+04  0.19340880223E+04  0.00000000000E+00 0.  1.
         25    1    1    2    0    0 -0.78068839369E+02 -0.25515258663E+03 -0.17849001486E+04  0.18090580772E+04  0.12500000000E+03 0.  0.
          1    1    1    2  501    0  0.19534694185E+02 -0.55945099194E+02  0.57921748450E+02  0.82863667214E+02  0.00000000000E+00 0.  1.
         -1    1    1    2    0  502  0.58534145184E+02  0.31109768582E+03  0.76360253553E+02  0.32563615370E+03  0.00000000000E+00 0. -1.
<mgrwt>
<rscale>  4 0.29711843E+03</rscale>
<asrwt>0</asrwt>
<pdfrwt beam="1">  1       21 0.43610751E-01 0.29711843E+03</pdfrwt>
<pdfrwt beam="2">  1       21 0.29755200E+00 0.29711843E+03</pdfrwt>
<totfact> 0.15637697E+02</totfact>
</mgrwt>
</event>
<event>
 5    0  0.1972558E-002  0.3450712E+03  0.7546771E-02  0.1064656E+00
         21   -1    0    0  503  502  0.00000000000E+00  0.00000000000E+00  0.39824131731E+03  0.39824131731E+03  0.00000000000E+00 0. -1.
         21   -1    0    0  501  503 -0.00000000000E+00 -0.00000000000E+00 -0.84689075379E+03  0.84689075379E+03  0.00000000000E+00 0.  1.
         25    1    1    2    0    0 -0.20083676453E+03 -0.24535460446E+03 -0.69515093455E+03  0.77420546996E+03  0.12500000000E+03 0.  0.
          1    1    1    2  501    0 -0.33880728601E+02 -0.23995385937E+02  0.42965266479E+02  0.59746936662E+02  0.00000000000E+00 0.  1.
         -1    1    1    2    0  502  0.23471749313E+03  0.26934999040E+03  0.20353623159E+03  0.41117966448E+03  0.00000000000E+00 0. -1.
<mgrwt>
<rscale>  4 0.34507119E+03</rscale>
<asrwt>0</asrwt>
<pdfrwt beam="1">  1       21 0.61267895E-01 0.34507119E+03</pdfrwt>
<pdfrwt beam="2">  1       21 0.13029089E+00 0.34507119E+03</pdfrwt>
<totfact> 0.94794427E+02</totfact>
</mgrwt>
</event>
<event>
 5    0  0.1972558E-002  0.2403371E+03  0.7546771E-02  0.1119568E+00
         21   -1    0    0  501  502  0.00000000000E+00  0.00000000000E+00  0.36490208170E+03  0.36490208170E+03  0.00000000000E+00 0.  1.
         21   -1    0    0  502  503 -0.00000000000E+00 -0.00000000000E+00 -0.25763946640E+03  0.25763946640E+03  0.00000000000E+00 0.  1.
         25    1    1    2    0    0  0.11863768934E+03  0.18251529911E+03 -0.12127204098E+03  0.27878063718E+03  0.12500000000E+03 0.  0.
          2    1    1    2  501    0 -0.11691780063E+03 -0.13957920264E+03  0.98928819294E+02  0.20721736704E+03  0.00000000000E+00 0.  1.
         -2    1    1    2    0  503 -0.17198887102E+01 -0.42936096472E+02  0.12960583698E+03  0.13654354388E+03  0.00000000000E+00 0. -1.
<mgrwt>
<rscale>  4 0.24033707E+03</rscale>
<asrwt>0</asrwt>
<pdfrwt beam="1">  1       21 0.56138782E-01 0.24033707E+03</pdfrwt>
<pdfrwt beam="2">  1       21 0.39636841E-01 0.24033707E+03</pdfrwt>
<totfact> 0.17832799E+04</totfact>
</mgrwt>
</event>
<event>
 5    0  0.1972558E-002  0.2452791E+03  0.7546771E-02  0.1116325E+00
         21   -1    0    0  501  502  0.00000000000E+00  0.00000000000E+00  0.16530832502E+04  0.16530832502E+04  0.00000000000E+00 0. -1.
         21   -1    0    0  502  503 -0.00000000000E+00 -0.00000000000E+00 -0.10862550032E+03  0.10862550032E+03  0.00000000000E+00 0.  1.
         25    1    1    2    0    0 -0.11856895918E+03 -0.16569684815E+03  0.97317668107E+02  0.25808869037E+03  0.12500000000E+03 0.  0.
          1    1    1    2  501    0  0.14965543235E+03  0.17621364331E+03  0.44975404960E+03  0.50569427686E+03  0.00000000000E+00 0.  1.
         -1    1    1    2    0  503 -0.31086473166E+02 -0.10516795156E+02  0.99738603217E+03  0.99792578330E+03  0.00000000000E+00 0. -1.
<mgrwt>
<rscale>  4 0.24527906E+03</rscale>
<asrwt>0</asrwt>
<pdfrwt beam="1">  1       21 0.25432048E+00 0.24527906E+03</pdfrwt>
<pdfrwt beam="2">  1       21 0.16711617E-01 0.24527906E+03</pdfrwt>
<totfact> 0.19115183E+03</totfact>
</mgrwt>
</event>
<event>
 5    0  0.1972558E-002  0.3425220E+03  0.7546771E-02  0.1065727E+00
         21   -1    0    0  501  502  0.00000000000E+00  0.00000000000E+00  0.17346358082E+04  0.17346358082E+04  0.00000000000E+00 0. -1.
         21   -1    0    0  502  503 -0.00000000000E+00 -0.00000000000E+00 -0.13079352452E+03  0.13079352452E+03  0.00000000000E+00 0. -1.
         25    1    1    2    0    0 -0.37582672695E+03 -0.13105042467E+03  0.68526533515E+03  0.80226773714E+03  0.12500000000E+03 0.  0.
          1    1    1    2  501    0  0.18677210095E+03 -0.96638812738E+02  0.21928202798E+03  0.30382146997E+03  0.00000000000E+00 0.  1.
         -1    1    1    2    0  503  0.18905462600E+03  0.22768923741E+03  0.69929492057E+03  0.75934012562E+03  0.00000000000E+00 0. -1.
<mgrwt>
<rscale>  4 0.34252201E+03</rscale>
<asrwt>0</asrwt>
<pdfrwt beam="1">  1       21 0.26686703E+00 0.34252201E+03</pdfrwt>
<pdfrwt beam="2">  1       21 0.20122082E-01 0.34252201E+03</pdfrwt>
<totfact> 0.10524454E+03</totfact>
</mgrwt>
</event>
<event>
 5    0  0.1972558E-002  0.2739492E+03  0.7546771E-02  0.1099040E+00
         21   -1    0    0  501  502  0.00000000000E+00  0.00000000000E+00  0.46382771062E+03  0.46382771062E+03  0.00000000000E+00 0.  1.
         21   -1    0    0  502  503 -0.00000000000E+00 -0.00000000000E+00 -0.63914656667E+03  0.63914656667E+03  0.00000000000E+00 0. -1.
         25    1    1    2    0    0 -0.16664862486E+03  0.17863323947E+03 -0.54392081557E+03  0.60922610911E+03  0.12500000000E+03 0.  0.
          2    1    1    2  501    0 -0.21733434069E+02 -0.26712419198E+02  0.18968262007E+03  0.19278327690E+03  0.00000000000E+00 0. -1.
         -2    1    1    2    0  503  0.18838205893E+03 -0.15192082027E+03  0.17891933944E+03  0.30096489128E+03  0.00000000000E+00 0.  1.
<mgrwt>
<rscale>  4 0.27394915E+03</rscale>
<asrwt>0</asrwt>
<pdfrwt beam="1">  1       21 0.71358109E-01 0.27394915E+03</pdfrwt>
<pdfrwt beam="2">  1       21 0.98330241E-01 0.27394915E+03</pdfrwt>
<totfact> 0.14201915E+03</totfact>
</mgrwt>
</event>
<event>
 5    0  0.1972558E-002  0.2330026E+03  0.7546771E-02  0.1124544E+00
         21   -1    0    0  503  502  0.00000000000E+00  0.00000000000E+00  0.14040745979E+04  0.14040745979E+04  0.00000000000E+00 0. -1.
         21   -1    0    0  501  503 -0.00000000000E+00 -0.00000000000E+00 -0.46973899664E+02  0.46973899664E+02  0.00000000000E+00 0. -1.
         25    1    1    2    0    0 -0.11262469772E+03 -0.17969215211E+03  0.60455098289E+03  0.65274840711E+03  0.12500000000E+03 0.  0.
          1    1    1    2  501    0 -0.29105146840E+02  0.54504123294E+02  0.32465540808E+03  0.33048289369E+03  0.00000000000E+00 0.  1.
         -1    1    1    2    0  502  0.14172984456E+03  0.12518802882E+03  0.42789430729E+03  0.46781719679E+03  0.00000000000E+00 0. -1.
<mgrwt>
<rscale>  4 0.23300262E+03</rscale>
<asrwt>0</asrwt>
<pdfrwt beam="1">  1       21 0.21601144E+00 0.23300262E+03</pdfrwt>
<pdfrwt beam="2">  1       21 0.72267549E-02 0.23300262E+03</pdfrwt>
<totfact> 0.14768551E+04</totfact>
</mgrwt>
</event>
<event>
 5    0  0.1972558E-002  0.3027543E+03  0.7546771E-02  0.1083872E+00
         21   -1    0    0  501  502  0.00000000000E+00  0.00000000000E+00  0.68791535838E+03  0.68791535838E+03  0.00000000000E+00 0.  1.
         21   -1    0    0  502  503 -0.00000000000E+00 -0.00000000000E+00 -0.31340507796E+03  0.31340507796E+03  0.00000000000E+00 0.  1.
         25    1    1    2    0    0  0.10040870779E+03  0.23596488362E+03 -0.79650141576E+02  0.29619331518E+03  0.12500000000E+03 0.  0.
          3    1    1    2  501    0  0.12006363323E+03  0.83723015248E+01  0.33358313876E+03  0.35463090943E+03  0.00000000000E+00 0. -1.
         -3    1    1    2    0  503 -0.22047234102E+03 -0.24433718515E+03  0.12057728325E+03  0.35049621173E+03  0.00000000000E+00 0.  1.
<mgrwt>
<rscale>  4 0.30275427E+03</rscale>
<asrwt>0</asrwt>
<pdfrwt beam="1">  1       21 0.10583313E+00 0.30275427E+03</pdfrwt>
<pdfrwt beam="2">  1       21 0.48216166E-01 0.30275427E+03</pdfrwt>
<totfact> 0.27266273E+03</totfact>
</mgrwt>
</event>
<event>
 5    0  0.1972558E-002  0.3109325E+03  0.7546771E-02  0.1079900E+00
         21   -1    0    0  503  502  0.00000000000E+00  0.00000000000E+00  0.11900359923E+04  0.11900359923E+04  0.00000000000E+00 0.  1.
         21   -1    0    0  501  503 -0.00000000000E+00 -0.00000000000E+00 -0.20701942138E+03  0.20701942138E+03  0.00000000000E+00 0.  1.
         25    1    1    2    0    0  0.28265872272E+03 -0.34030344587E+02 -0.56762547188E+02  0.31607120186E+03  0.12500000000E+03 0.  0.
          1    1    1    2  501    0 -0.17301088410E+02  0.24577813708E+02  0.11040223067E+03  0.11442049259E+03  0.00000000000E+00 0. -1.
         -1    1    1    2    0  502 -0.26535763431E+03  0.94525308788E+01  0.92937688748E+03  0.96656371927E+03  0.00000000000E+00 0.  1.
<mgrwt>
<rscale>  4 0.31093250E+03</rscale>
<asrwt>0</asrwt>
<pdfrwt beam="1">  1       21 0.18308246E+00 0.31093250E+03</pdfrwt>
<pdfrwt beam="2">  1       21 0.31849143E-01 0.31093250E+03</pdfrwt>
<totfact> 0.14919405E+03</totfact>
</mgrwt>
</event>
<event>
 5    0  0.1972558E-002  0.2379290E+03  0.7546771E-02  0.1121180E+00
         21   -1    0    0  501  502  0.00000000000E+00  0.00000000000E+00  0.65225876730E+03  0.65225876730E+03  0.00000000000E+00 0. -1.
         21   -1    0    0  502  503 -0.00000000000E+00 -0.00000000000E+00 -0.51459166827E+03  0.51459166827E+03  0.00000000000E+00 0.  1.
         25    1    1    2    0    0 -0.78939610056E+02 -0.19112994227E+03 -0.35896047558E+03  0.43271207506E+03  0.12500000000E+03 0.  0.
          2    1    1    2  501    0  0.37375281859E+02  0.19201105332E+03 -0.36839732273E+02  0.19905356607E+03  0.00000000000E+00 0.  1.
         -2    1    1    2    0  503  0.41564328197E+02 -0.88111104698E+00  0.53346730688E+03  0.53508479444E+03  0.00000000000E+00 0. -1.
<mgrwt>
<rscale>  4 0.23792902E+03</rscale>
<asrwt>0</asrwt>
<pdfrwt beam="1">  1       21 0.10034750E+00 0.23792902E+03</pdfrwt>
<pdfrwt beam="2">  1       21 0.79167949E-01 0.23792902E+03</pdfrwt>
<totfact> 0.11001465E+03</totfact>
</mgrwt>
</event>
<event>
 5    0  0.1972558E-002  0.2558706E+03  0.7546771E-02  0.1109650E+00
         21   -1    0    0  501  502  0.00000000000E+00  0.00000000000E+00  0.50556057169E+03  0.50556057169E+03  0.00000000000E+00 0. -1.
         21   -1    0    0  502  503 -0.00000000000E+00 -0.00000000000E+00 -0.16144725686E+04  0.16144725686E+04  0.00000000000E+00 0.  1.
         25    1    1    2    0    0 -0.11421289522E+03 -0.17425347887E+03 -0.12221523577E+04  0.12460699201E+04  0.12500000000E+03 0.  0.
          1    1    1    2  501    0  0.42836168998E+02 -0.16113689866E+03  0.39590060290E+03  0.42957807772E+03  0.00000000000E+00 0. -1.
         -1    1    1    2    0  503  0.71376726220E+02  0.33539037753E+03 -0.28266024216E+03  0.44438514251E+03  0.00000000000E+00 0.  1.
<mgrwt>
<rscale>  4 0.25587064E+03</rscale>
<asrwt>0</asrwt>
<pdfrwt beam="1">  1       21 0.77778551E-01 0.25587064E+03</pdfrwt>
<pdfrwt beam="2">  1       21 0.24838039E+00 0.25587064E+03</pdfrwt>
<totfact> 0.91536236E+01</totfact>
</mgrwt>
</event>
<event>
 5    0  0.1972558E-002  0.3025658E+03  0.7546771E-02  0.1083965E+00
         21   -1    0    0  501  502  0.00000000000E+00  0.00000000000E+00  0.14136581453E+04  0.14136581453E+04  0.00000000000E+00 0.  1.
         21   -1    0    0  502  503 -0.00000000000E+00 -0.00000000000E+00 -0.10374230499E+03  0.10374230499E+03  0.00000000000E+00 0. -1.
         25    1    1    2    0    0 -0.24270870296E+03  0.11357112357E+03  0.20432895490E+03  0.35941791332E+03  0.12500000000E+03 0.  0.
          4    1    1    2  501    0  0.26763444451E+03 -0.13489044233E+03  0.87117037630E+03  0.92128250383E+03  0.00000000000E+00 0.  1.
         -4    1    1    2    0  503 -0.24925741546E+02  0.21319318758E+02  0.23441650912E+03  0.23670003315E+03  0.00000000000E+00 0. -1.
<mgrwt>
<rscale>  4 0.30256576E+03</rscale>
<asrwt>0</asrwt>
<pdfrwt beam="1">  1       21 0.21748585E+00 0.30256576E+03</pdfrwt>
<pdfrwt beam="2">  1       21 0.15960356E-01 0.30256576E+03</pdfrwt>
<totfact> 0.33411679E+03</totfact>
</mgrwt>
</event>
<event>
 5    0  0.1972558E-002  0.3109279E+03  0.7546771E-02  0.1079902E+00
         21   -1    0    0  501  502  0.00000000000E+00  0.00000000000E+00  0.19179787529E+03  0.19179787529E+03  0.00000000000E+00 0.  1.
         21   -1    0    0  502  503 -0.00000000000E+00 -0.00000000000E+00 -0.75661963806E+03  0.75661963806E+03  0.00000000000E+00 0. -1.
         25    1    1    2    0    0 -0.17209231626E+03 -0.24619506473E+03 -0.48359534391E+03  0.58285266738E+03  0.12500000000E+03 0.  0.
          3    1    1    2  501    0  0.52691869170E+02  0.14333132503E+02  0.49618626423E+02  0.73782652785E+02  0.00000000000E+00 0. -1.
         -3    1    1    2    0  503  0.11940044709E+03  0.23186193223E+03 -0.13084504528E+03  0.29178219318E+03  0.00000000000E+00 0.  1.
<mgrwt>
<rscale>  4 0.31092789E+03</rscale>
<asrwt>0</asrwt>
<pdfrwt beam="1">  1       21 0.29507365E-01 0.31092789E+03</pdfrwt>
<pdfrwt beam="2">  1       21 0.11640302E+00 0.31092789E+03</pdfrwt>
<totfact> 0.58172775E+03</totfact>
</mgrwt>
</event>
<event>
 5    0  0.1972558E-002  0.4173810E+03  0.7546771E-02  0.1037922E+00
         21   -1    0    0  503  502  0.00000000000E+00  0.00000000000E+00  0.49492477377E+03  0.49492477377E+03  0.00000000000E+00 0. -1.
         21   -1    0    0  501  503 -0.00000000000E+00 -0.00000000000E+00 -0.45957763363E+03  0.45957763363E+03  0.00000000000E+00 0. -1.
         25    1    1    2    0    0 -0.24556733528E+03 -0.31229371812E+03 -0.16800789267E+03  0.44909056384E+03  0.12500000000E+03 0.  0.
          3    1    1    2  501    0  0.33831513136E+02 -0.29129529267E+02  0.68249194803E+02  0.81553990385E+02  0.00000000000E+00 0.  1.
         -3    1    1    2    0  502  0.21173582214E+03  0.34142324738E+03  0.13510583800E+03  0.42385785317E+03  0.00000000000E+00 0. -1.
<mgrwt>
<rscale>  4 0.41738097E+03</rscale>
<asrwt>0</asrwt>
<pdfrwt beam="1">  1       21 0.76142273E-01 0.41738097E+03</pdfrwt>
<pdfrwt beam="2">  1       21 0.70704251E-01 0.41738097E+03</pdfrwt>
<totfact> 0.24450922E+03</totfact>
</mgrwt>
</event>
<event>
 5    0  0.1972558E-002  0.2952550E+03  0.7546771E-02  0.1087637E+00
         21   -1    0    0  501  502  0.00000000000E+00  0.00000000000E+00  0.54207984263E+03  0.54207984263E+03  0.00000000000E+00 0. -1.
         21   -1    0    0  502  503 -0.00000000000E+00 -0.00000000000E+00 -0.33023496367E+03  0.33023496367E+03  0.00000000000E+00 0. -1.
         25    1    1    2    0    0 -0.22353434568E+03 -0.16105527943E+03 -0.19196546918E+03  0.35830454656E+03  0.12500000000E+03 0.  0.
          3    1    1    2  501    0  0.65034984054E+02 -0.22669454411E+02  0.13718110548E+03  0.15349954076E+03  0.00000000000E+00 0.  1.
         -3    1    1    2    0  503  0.15849936163E+03  0.18372473384E+03  0.26662924265E+03  0.36051071898E+03  0.00000000000E+00 0. -1.
<mgrwt>
<rscale>  4 0.29525501E+03</rscale>
<asrwt>0</asrwt>
<pdfrwt beam="1">  1       21 0.83396899E-01 0.29525501E+03</pdfrwt>
<pdfrwt beam="2">  1       21 0.50805379E-01 0.29525501E+03</pdfrwt>
<totfact> 0.43116035E+03</totfact>
</mgrwt>
</event>
<event>
 5    0  0.1972558E-002  0.1670051E+03  0.7546771E-02  0.1181008E+00
         21   -1    0    0  501  502  0.00000000000E+00  0.00000000000E+00  0.12780008844E+04  0.12780008844E+04  0.00000000000E+00 0.  1.
         21   -1    0    0  502  503 -0.00000000000E+00 -0.00000000000E+00 -0.16555752940E+03  0.16555752940E+03  0.00000000000E+00 0. -1.
         25    1    1    2    0    0 -0.13890313924E+03  0.15297256849E+03  0.64020021551E+02  0.24983645042E+03  0.12500000000E+03 0.  0.
          4    1    1    2  501    0  0.84313872116E+02 -0.59680640220E+02 -0.31816792938E+02  0.10808753934E+03  0.00000000000E+00 0. -1.
         -4    1    1    2    0  503  0.54589267126E+02 -0.93291928268E+02  0.10802401263E+04  0.10856344240E+04  0.00000000000E+00 0.  1.
<mgrwt>
<rscale>  4 0.16700509E+03</rscale>
<asrwt>0</asrwt>
<pdfrwt beam="1">  1       21 0.19661551E+00 0.16700509E+03</pdfrwt>
<pdfrwt beam="2">  1       21 0.25470390E-01 0.16700509E+03</pdfrwt>
<totfact> 0.21222413E+03</totfact>
</mgrwt>
</event>
<event>
 5    0  0.1972558E-002  0.2598912E+03  0.7546771E-02  0.1107209E+00
         21   -1    0    0  501  502  0.00000000000E+00  0.00000000000E+00  0.13050254377E+03  0.13050254377E+03  0.00000000000E+00 0. -1.
         21   -1    0    0  502  503 -0.00000000000E+00 -0.00000000000E+00 -0.56712677607E+03  0.56712677607E+03  0.00000000000E+00 0.  1.
         25    1    1    2    0    0 -0.22475352960E+03  0.37473658392E+02 -0.33329080279E+03  0.42264190915E+03  0.12500000000E+03 0.  0.
          1    1    1    2  501    0  0.10208513299E+03 -0.71272476917E+02 -0.29770903151E+02  0.12801346421E+03  0.00000000000E+00 0.  1.
         -1    1    1    2    0  503  0.12266839661E+03  0.33798818525E+02 -0.73562526352E+02  0.14697394648E+03  0.00000000000E+00 0. -1.
<mgrwt>
<rscale>  4 0.25989118E+03</rscale>
<asrwt>0</asrwt>
<pdfrwt beam="1">  1       21 0.20077314E-01 0.25989118E+03</pdfrwt>
<pdfrwt beam="2">  1       21 0.87250274E-01 0.25989118E+03</pdfrwt>
<totfact> 0.24972264E+04</totfact>
</mgrwt>
</event>
<event>
 5    0  0.1972558E-002  0.3270002E+03  0.7546771E-02  0.1072472E+00
         21   -1    0    0  501  502  0.00000000000E+00  0.00000000000E+00  0.96294096322E+03  0.96294096322E+03  0.00000000000E+00 0.  1.
         21   -1    0    0  502  503 -0.00000000000E+00 -0.00000000000E+00 -0.29550422657E+03  0.29550422657E+03  0.00000000000E+00 0. -1.
         25    1    1    2    0    0 -0.23249554126E+03 -0.22455680093E+03  0.29442765977E+03  0.45474452211E+03  0.12500000000E+03 0.  0.
          4    1    1    2  501    0  0.43360417933E+02 -0.41933325880E+01  0.48463591808E+03  0.48658985087E+03  0.00000000000E+00 0.  1.
         -4    1    1    2    0  503  0.18913512332E+03  0.22875013352E+03 -0.11162684120E+03  0.31711081681E+03  0.00000000000E+00 0. -1.
<mgrwt>
<rscale>  4 0.32700019E+03</rscale>
<asrwt>0</asrwt>
<pdfrwt beam="1">  1       21 0.14814476E+00 0.32700019E+03</pdfrwt>
<pdfrwt beam="2">  1       21 0.45462189E-01 0.32700019E+03</pdfrwt>
<totfact> 0.12918532E+03</totfact>
</mgrwt>
</event>
<event>
 5    0  0.1972558E-002  0.2783533E+03  0.7546771E-02  0.1096592E+00
         21   -1    0    0  501  502  0.00000000000E+00  0.00000000000E+00  0.14612109499E+03  0.14612109499E+03  0.00000000000E+00 0. -1.
         21   -1    0    0  502  503 -0.00000000000E+00 -0.00000000000E+00 -0.67514423566E+03  0.67514423566E+03  0.00000000000E+00 0. -1.
         25    1    1    2    0    0 -0.23428280164E+03  0.91616495656E+02 -0.46210768308E+03  0.54078694898E+03  0.12500000000E+03 0.  0.
          1    1    1    2  501    0  0.85738342274E-01 -0.28320764118E+02 -0.16225522086E+02  0.32639555730E+02  0.00000000000E+00 0.  1.
         -1    1    1    2    0  503  0.23419706329E+03 -0.63295731538E+02 -0.50689935501E+02  0.24783882595E+03  0.00000000000E+00 0. -1.
<mgrwt>
<rscale>  4 0.27835334E+03</rscale>
<asrwt>0</asrwt>
<pdfrwt beam="1">  1       21 0.22480169E-01 0.27835334E+03</pdfrwt>
<pdfrwt beam="2">  1       21 0.10386834E+00 0.27835334E+03</pdfrwt>
<totfact> 0.13227286E+04</totfact>
</mgrwt>
</event>
<event>
 5    0  0.1972558E-002  0.2911304E+03  0.7546771E-02  0.1089760E+00
         21   -1    0    0  501  502  0.00000000000E+00  0.00000000000E+00  0.20731086323E+04  0.20731086323E+04  0.00000000000E+00 0.  1.
         21   -1    0    0  502  503 -0.00000000000E+00 -0.00000000000E+00 -0.79277094109E+02  0.79277094109E+02  0.00000000000E+00 0.  1.
         25    1    1    2    0    0 -0.22375269994E+03 -0.14807967921E+03  0.27047175867E+03  0.40096487922E+03  0.12500000000E+03 0.  0.
          1    1    1    2  501    0  0.18578293586E+02  0.13346012282E+02  0.64797451311E+03  0.64837816024E+03  0.00000000000E+00 0. -1.
         -1    1    1    2    0  503  0.20517440636E+03  0.13473366693E+03  0.10753852665E+04  0.11030426870E+04  0.00000000000E+00 0.  1.
<mgrwt>
<rscale>  4 0.29113038E+03</rscale>
<asrwt>0</asrwt>
<pdfrwt beam="1">  1       21 0.31893975E+00 0.29113038E+03</pdfrwt>
<pdfrwt beam="2">  1       21 0.12196478E-01 0.29113038E+03</pdfrwt>
<totfact> 0.13588722E+03</totfact>
</mgrwt>
</event>
<event>
 5    0  0.1972558E-002  0.3822053E+03  0.7546771E-02  0.1050122E+00
         21   -1    0    0  501  502  0.00000000000E+00  0.00000000000E+00  0.19326806577E+03  0.19326806577E+03  0.00000000000E+00 0. -1.
         21   -1    0    0  502  503 -0.00000000000E+00 -0.00000000000E+00 -0.12910329913E+04  0.12910329913E+04  0.00000000000E+00 0. -1.
         25    1    1    2    0    0  0.28116509812E+03 -0.22844031922E+03 -0.86724219159E+03  0.94814176721E+03  0.12500000000E+03 0.  0.
          2    1    1    2  501    0 -0.33641085781E+02 -0.34397920699E+02  0.57018062736E+02  0.74605623642E+02  0.00000000000E+00 0.  1.
         -2    1    1    2    0  503 -0.24752401234E+03  0.26283823991E+03 -0.28754079664E+03  0.46155366620E+03  0.00000000000E+00 0. -1.
<mgrwt>
<rscale>  4 0.38220527E+03</rscale>
<asrwt>0</asrwt>
<pdfrwt beam="1">  1       21 0.29733549E-01 0.38220527E+03</pdfrwt>
<pdfrwt beam="2">  1       21 0.19862046E+00 0.38220527E+03</pdfrwt>
<totfact> 0.12876850E+03</totfact>
</mgrwt>
</event>
<event>
 5    0  0.1972558E-002  0.2810804E+03  0.7546771E-02  0.1095100E+00
         21   -1    0    0  501  502  0.00000000000E+00  0.00000000000E+00  0.10759082208E+03  0.10759082208E+03  0.00000000000E+00 0. -1.
         21   -1    0    0  502  503 -0.00000000000E+00 -0.00000000000E+00 -0.87249700767E+03  0.87249700767E+03  0.00000000000E+00 0. -1.
         25    1    1    2    0    0  0.18296235082E+03 -0.15770961256E+03 -0.51696518538E+03  0.58414514173E+03  0.12500000000E+03 0.  0.
          3    1    1    2  501    0 -0.21177064185E+03  0.16749576945E+03 -0.24631203420E+03  0.36547401511E+03  0.00000000000E+00 0. -1.
         -3    1    1    2    0  503  0.28808291023E+02 -0.97861568899E+01 -0.16289660206E+01  0.30468672906E+02  0.00000000000E+00 0.  1.
<mgrwt>
<rscale>  4 0.28108036E+03</rscale>
<asrwt>0</asrwt>
<pdfrwt beam="1">  1       21 0.16552434E-01 0.28108036E+03</pdfrwt>
<pdfrwt beam="2">  1       21 0.13423031E+00 0.28108036E+03</pdfrwt>
<totfact> 0.12380654E+04</totfact>
</mgrwt>
</event>
<event>
 5    0  0.1972558E-002  0.2549275E+03  0.7546771E-02  0.1110230E+00
         21   -1    0    0  501  502  0.00000000000E+00  0.00000000000E+00  0.10132695893E+04  0.10132695893E+04  0.00000000000E+00 0. -1.
         21   -1    0    0  502  503 -0.00000000000E+00 -0.00000000000E+00 -0.21018850395E+03  0.21018850395E+03  0.00000000000E+00 0.  1.
         25    1    1    2    0    0  0.13909840520E+03 -0.17624516944E+03 -0.10790458523E+03  0.27870975152E+03  0.12500000000E+03 0.  0.
          4    1    1    2  501    0 -0.11009315413E+03  0.17314272694E+03  0.63735673131E+03  0.66956889819E+03  0.00000000000E+00 0. -1.
         -4    1    1    2    0  503 -0.29005251077E+02  0.31024424904E+01  0.27362893929E+03  0.27517944356E+03  0.00000000000E+00 0.  1.
<mgrwt>
<rscale>  4 0.25492746E+03</rscale>
<asrwt>0</asrwt>
<pdfrwt beam="1">  1       21 0.15588763E+00 0.25492746E+03</pdfrwt>
<pdfrwt beam="2">  1       21 0.32336694E-01 0.25492746E+03</pdfrwt>
<totfact> 0.23576854E+03</totfact>
</mgrwt>
</event>
<event>
 5    0  0.1972558E-002  0.2620161E+03  0.7546771E-02  0.1105938E+00
         21   -1    0    0  501  502  0.00000000000E+00  0.00000000000E+00  0.16555496369E+04  0.16555496369E+04  0.00000000000E+00 0.  1.
         21   -1    0    0  502  503 -0.00000000000E+00 -0.00000000000E+00 -0.51893787592E+02  0.51893787592E+02  0.00000000000E+00 0. -1.
         25    1    1    2    0    0 -0.20221978904E+03 -0.11015703593E+03  0.40031323457E+03  0.47843818975E+03  0.12500000000E+03 0.  0.
          2    1    1    2  501    0  0.62617281310E+02  0.24353275224E+02  0.60195834344E+03  0.60569617232E+03  0.00000000000E+00 0. -1.
         -2    1    1    2    0  503  0.13960250773E+03  0.85803760706E+02  0.60138427135E+03  0.62330906246E+03  0.00000000000E+00 0.  1.
<mgrwt>
<rscale>  4 0.26201606E+03</rscale>
<asrwt>0</asrwt>
<pdfrwt beam="1">  1       21 0.25469990E+00 0.26201606E+03</pdfrwt>
<pdfrwt beam="2">  1       21 0.79836609E-02 0.26201606E+03</pdfrwt>
<totfact> 0.70739176E+03</totfact>
</mgrwt>
</event>
<event>
 5    0  0.1972558E-002  0.2415613E+03  0.7546771E-02  0.1118757E+00
         21   -1    0    0  501  502  0.00000000000E+00  0.00000000000E+00  0.57705723990E+02  0.57705723990E+02  0.00000000000E+00 0. -1.
         21   -1    0    0  502  503 -0.00000000000E+00 -0.00000000000E+00 -0.19604041716E+04  0.19604041716E+04  0.00000000000E+00 0.  1.
         25    1    1    2    0    0 -0.20283700040E+03 -0.96465283179E+02 -0.14922271061E+04  0.15142044564E+04  0.12500000000E+03 0.  0.
          3    1    1    2  501    0  0.59626294252E+02 -0.10033084324E+02 -0.47316019384E+01  0.60649367715E+02  0.00000000000E+00 0.  1.
         -3    1    1    2    0  503  0.14321070615E+03  0.10649836750E+03 -0.40573973957E+03  0.44325607148E+03  0.00000000000E+00 0. -1.
<mgrwt>
<rscale>  4 0.24156125E+03</rscale>
<asrwt>0</asrwt>
<pdfrwt beam="1">  1       21 0.88778051E-02 0.24156125E+03</pdfrwt>
<pdfrwt beam="2">  1       21 0.30160059E+00 0.24156125E+03</pdfrwt>
<totfact> 0.31693967E+03</totfact>
</mgrwt>
</event>
<event>
 5    0  0.1972558E-002  0.2332305E+03  0.7546771E-02  0.1124386E+00
         21   -1    0    0  501  502  0.00000000000E+00  0.00000000000E+00  0.21879090000E+03  0.21879090000E+03  0.00000000000E+00 0. -1.
         21   -1    0    0  502  503 -0.00000000000E+00 -0.00000000000E+00 -0.14012383958E+04  0.14012383958E+04  0.00000000000E+00 0. -1.
         25    1    1    2    0    0  0.13600489145E+03  0.14744785162E+03 -0.12458633990E+04  0.12680847008E+04  0.12500000000E+03 0.  0.
          2    1    1    2  501    0  0.32403711817E+02 -0.66587343350E+02  0.13329803138E+03  0.15248685191E+03  0.00000000000E+00 0.  1.
         -2    1    1    2    0  503 -0.16840860326E+03 -0.80860508273E+02 -0.69882128240E+02  0.19945774314E+03  0.00000000000E+00 0. -1.
<mgrwt>
<rscale>  4 0.23323051E+03</rscale>
<asrwt>0</asrwt>
<pdfrwt beam="1">  1       21 0.33660138E-01 0.23323051E+03</pdfrwt>
<pdfrwt beam="2">  1       21 0.21557514E+00 0.23323051E+03</pdfrwt>
<totfact> 0.87136380E+02</totfact>
</mgrwt>
</event>
<event>
 5    0  0.1972558E-002  0.2970976E+03  0.7546771E-02  0.1086701E+00
         21   -1    0    0  501  502  0.00000000000E+00  0.00000000000E+00  0.13656016256E+04  0.13656016256E+04  0.00000000000E+00 0.  1.
         21   -1    0    0  502  503 -0.00000000000E+00 -0.00000000000E+00 -0.74995088520E+02  0.74995088520E+02  0.00000000000E+00 0.  1.
         25    1    1    2    0    0 -0.21135134820E+03 -0.18467709556E+03  0.47720968964E+03  0.56756419011E+03  0.12500000000E+03 0.  0.
          4    1    1    2  501    0  0.22385284094E+02  0.97563645787E+01  0.27654082808E+03  0.27761685321E+03  0.00000000000E+00 0. -1.
         -4    1    1    2    0  503  0.18896606410E+03  0.17492073098E+03  0.53685601940E+03  0.59541567083E+03  0.00000000000E+00 0.  1.
<mgrwt>
<rscale>  4 0.29709759E+03</rscale>
<asrwt>0</asrwt>
<pdfrwt beam="1">  1       21 0.21009254E+00 0.29709759E+03</pdfrwt>
<pdfrwt beam="2">  1       21 0.11537707E-01 0.29709759E+03</pdfrwt>
<totfact> 0.67531185E+03</totfact>
</mgrwt>
</event>
<event>
 5    0  0.1972558E-002  0.5701008E+03  0.7546771E-02  0.9969456E-01
         21   -1    0    0  501  502  0.00000000000E+00  0.00000000000E+00  0.35579865870E+03  0.35579865870E+03  0.00000000000E+00 0. -1.
         21   -1    0    0  502  503 -0.00000000000E+00 -0.00000000000E+00 -0.10488209898E+04  0.10488209898E+04  0.00000000000E+00 0. -1.
         25    1    1    2    0    0 -0.13126255257E+03 -0.55168530014E+03 -0.47161620159E+03  0.74808647207E+03  0.12500000000E+03 0.  0.
          3    1    1    2  501    0  0.10827097162E+03  0.53215375430E+03 -0.26440780460E+03  0.60400472568E+03  0.00000000000E+00 0. -1.
         -3    1    1    2    0  503  0.22991580950E+02  0.19531545830E+02  0.43001675092E+02  0.52528450746E+02  0.00000000000E+00 0.  1.
<mgrwt>
<rscale>  4 0.57010084E+03</rscale>
<asrwt>0</asrwt>
<pdfrwt beam="1">  1       21 0.54738256E-01 0.57010084E+03</pdfrwt>
<pdfrwt beam="2">  1       21 0.16135707E+00 0.57010084E+03</pdfrwt>
<totfact> 0.61711873E+02</totfact>
</mgrwt>
</event>
<event>
 5    0  0.1972558E-002  0.2390764E+03  0.7546771E-02  0.1120410E+00
         21   -1    0    0  503  502  0.00000000000E+00  0.00000000000E+00  0.84600313906E+02  0.84600313906E+02  0.00000000000E+00 0.  1.
         21   -1    0    0  501  503 -0.00000000000E+00 -0.00000000000E+00 -0.16753022795E+04  0.16753022795E+04  0.00000000000E+00 0.  1.
         25    1    1    2    0    0 -0.49300398849E+02 -0.19919690146E+03 -0.14329173656E+04  0.14529236427E+04  0.12500000000E+03 0.  0.
          2    1    1    2  501    0 -0.49315266606E+02  0.22238629341E+02 -0.72301576083E+01  0.54578634414E+02  0.00000000000E+00 0. -1.
         -2    1    1    2    0  502  0.98615665455E+02  0.17695827212E+03 -0.15055444240E+03  0.25240031631E+03  0.00000000000E+00 0.  1.
<mgrwt>
<rscale>  4 0.23907644E+03</rscale>
<asrwt>0</asrwt>
<pdfrwt beam="1">  1       21 0.13015433E-01 0.23907644E+03</pdfrwt>
<pdfrwt beam="2">  1       21 0.25773881E+00 0.23907644E+03</pdfrwt>
<totfact> 0.28976488E+03</totfact>
</mgrwt>
</event>
<event>
 5    0  0.1972558E-002  0.3291291E+03  0.7546771E-02  0.1071523E+00
         21   -1    0    0  503  502  0.00000000000E+00  0.00000000000E+00  0.37821337190E+03  0.37821337190E+03  0.00000000000E+00 0. -1.
         21   -1    0    0  501  503 -0.00000000000E+00 -0.00000000000E+00 -0.11232757377E+04  0.11232757377E+04  0.00000000000E+00 0.  1.
         25    1    1    2    0    0  0.23721874002E+03  0.32044117364E+03 -0.89666962393E+03  0.98924046160E+03  0.12500000000E+03 0.  0.
          2    1    1    2  501    0 -0.69635032498E+02 -0.74855511183E+02 -0.84459796389E+02  0.13261162284E+03  0.00000000000E+00 0.  1.
         -2    1    1    2    0  502 -0.16758370752E+03 -0.24558566246E+03  0.23606705453E+03  0.37963702516E+03  0.00000000000E+00 0. -1.
<mgrwt>
<rscale>  4 0.32912912E+03</rscale>
<asrwt>0</asrwt>
<pdfrwt beam="1">  1       21 0.58186673E-01 0.32912912E+03</pdfrwt>
<pdfrwt beam="2">  1       21 0.17281165E+00 0.32912912E+03</pdfrwt>
<totfact> 0.50020378E+02</totfact>
</mgrwt>
</event>
<event>
 5    0  0.1972558E-002  0.2887963E+03  0.7546771E-02  0.1090979E+00
         21   -1    0    0  501  502  0.00000000000E+00  0.00000000000E+00  0.97685605302E+02  0.97685605302E+02  0.00000000000E+00 0.  1.
         21   -1    0    0  502  503 -0.00000000000E+00 -0.00000000000E+00 -0.13479528310E+04  0.13479528310E+04  0.00000000000E+00 0.  1.
         25    1    1    2    0    0 -0.23905815824E+03  0.91870747183E+02 -0.80205225697E+03  0.85117675022E+03  0.12500000000E+03 0.  0.
          2    1    1    2  501    0  0.26738293031E+03 -0.40368616189E+02 -0.46086319849E+03  0.53433897885E+03  0.00000000000E+00 0. -1.
         -2    1    1    2    0  503 -0.28324772065E+02 -0.51502130994E+02  0.12648229758E+02  0.60122707237E+02  0.00000000000E+00 0.  1.
<mgrwt>
<rscale>  4 0.28879628E+03</rscale>
<asrwt>0</asrwt>
<pdfrwt beam="1">  1       21 0.15028555E-01 0.28879628E+03</pdfrwt>
<pdfrwt beam="2">  1       21 0.20737735E+00 0.28879628E+03</pdfrwt>
<totfact> 0.43675200E+03</totfact>
</mgrwt>
</event>
<event>
 5    0  0.1972558E-002  0.3822124E+03  0.7546771E-02  0.1050119E+00
         21   -1    0    0  501  502  0.00000000000E+00  0.00000000000E+00  0.53299568829E+03  0.53299568829E+03  0.00000000000E+00 0.  1.
         21   -1    0    0  502  503 -0.00000000000E+00 -0.00000000000E+00 -0.12027131957E+04  0.12027131957E+04  0.00000000000E+00 0.  1.
         25    1    1    2    0    0  0.39785696916E+03  0.64437445674E+02 -0.83043570503E+03  0.93149922839E+03  0.12500000000E+03 0.  0.
          4    1    1    2  501    0 -0.25020192892E+03 -0.19642650463E+03 -0.21191203978E+03  0.38221864104E+03  0.00000000000E+00 0. -1.
         -4    1    1    2    0  503 -0.14765504023E+03  0.13198905895E+03  0.37263023737E+03  0.42199101458E+03  0.00000000000E+00 0.  1.
<mgrwt>
<rscale>  4 0.38221242E+03</rscale>
<asrwt>0</asrwt>
<pdfrwt beam="1">  1       21 0.81999337E-01 0.38221242E+03</pdfrwt>
<pdfrwt beam="2">  1       21 0.18503280E+00 0.38221242E+03</pdfrwt>
<totfact> 0.18422081E+02</totfact>
</mgrwt>
</event>
<event>
 5    0  0.1972558E-002  0.2850756E+03  0.7546771E-02  0.1092949E+00
         21   -1    0    0  503  502  0.00000000000E+00  0.00000000000E+00  0.78836874903E+03  0.78836874903E+03  0.00000000000E+00 0.  1.
         21   -1    0    0  501  503 -0.00000000000E+00 -0.00000000000E+00 -0.13126614833E+03  0.13126614833E+03  0.00000000000E+00 0.  1.
         25    1    1    2    0    0  0.60417463363E+02  0.25254539193E+03  0.18897680721E+03  0.34462541771E+03  0.12500000000E+03 0.  0.
          4    1    1    2  501    0 -0.27038126324E+02 -0.17798407430E+01  0.21653763518E+03  0.21822643185E+03  0.00000000000E+00 0. -1.
         -4    1    1    2    0  502 -0.33379337038E+02 -0.25076555119E+03  0.25158815831E+03  0.35678304781E+03  0.00000000000E+00 0.  1.
<mgrwt>
<rscale>  4 0.28507556E+03</rscale>
<asrwt>0</asrwt>
<pdfrwt beam="1">  1       21 0.12128750E+00 0.28507556E+03</pdfrwt>
<pdfrwt beam="2">  1       21 0.20194793E-01 0.28507556E+03</pdfrwt>
<totfact> 0.11030876E+04</totfact>
</mgrwt>
</event>
<event>
 5    0  0.1972558E-002  0.2630933E+03  0.7546771E-02  0.1105299E+00
         21   -1    0    0  501  502  0.00000000000E+00  0.00000000000E+00  0.53872855408E+03  0.53872855408E+03  0.00000000000E+00 0. -1.
         21   -1    0    0  502  503 -0.00000000000E+00 -0.00000000000E+00 -0.15100048489E+03  0.15100048489E+03  0.00000000000E+00 0.  1.
         25    1    1    2    0    0  0.10344078459E+03  0.20710649089E+03  0.52228293182E+02  0.26822730863E+03  0.12500000000E+03 0.  0.
          1    1    1    2  501    0 -0.47768781320E+02 -0.15059855234E+03  0.28949419208E+03  0.32980095161E+03  0.00000000000E+00 0. -1.
         -1    1    1    2    0  503 -0.55672003272E+02 -0.56507938549E+02  0.46005583929E+02  0.91700778732E+02  0.00000000000E+00 0.  1.
<mgrwt>
<rscale>  4 0.26309332E+03</rscale>
<asrwt>0</asrwt>
<pdfrwt beam="1">  1       21 0.82881315E-01 0.26309332E+03</pdfrwt>
<pdfrwt beam="2">  1       21 0.23230844E-01 0.26309332E+03</pdfrwt>
<totfact> 0.21292507E+04</totfact>
</mgrwt>
</event>
<event>
 5    0  0.1972558E-002  0.2364569E+03  0.7546771E-02  0.1122176E+00
         21   -1    0    0  501  502  0.00000000000E+00  0.00000000000E+00  0.21204540629E+03  0.21204540629E+03  0.00000000000E+00 0. -1.
         21   -1    0    0  502  503 -0.00000000000E+00 -0.00000000000E+00 -0.10933732256E+04  0.10933732256E+04  0.00000000000E+00 0.  1.
         25    1    1    2    0    0  0.15783278779E+03 -0.13204640212E+03 -0.95321219997E+03  0.98315102573E+03  0.12500000000E+03 0.  0.
          1    1    1    2  501    0 -0.10674763437E+03 -0.54332284684E+02  0.40759293385E+02  0.12652420559E+03  0.00000000000E+00 0.  1.
         -1    1    1    2    0  503 -0.51085153418E+02  0.18637868680E+03  0.31125087315E+02  0.19574340054E+03  0.00000000000E+00 0. -1.
<mgrwt>
<rscale>  4 0.23645687E+03</rscale>
<asrwt>0</asrwt>
<pdfrwt beam="1">  1       21 0.32622370E-01 0.23645687E+03</pdfrwt>
<pdfrwt beam="2">  1       21 0.16821127E+00 0.23645687E+03</pdfrwt>
<totfact> 0.19085908E+03</totfact>
</mgrwt>
</event>
<event>
 5    0  0.1972558E-002  0.3553444E+03  0.7546771E-02  0.1060443E+00
         21   -1    0    0  501  502  0.00000000000E+00  0.00000000000E+00  0.65625233974E+03  0.65625233974E+03  0.00000000000E+00 0. -1.
         21   -1    0    0  502  503 -0.00000000000E+00 -0.00000000000E+00 -0.22092067868E+04  0.22092067868E+04  0.00000000000E+00 0. -1.
         25    1    1    2    0    0 -0.37228376589E+02  0.32580564379E+03 -0.16922352239E+04  0.17282419745E+04  0.12500000000E+03 0.  0.
          4    1    1    2  501    0  0.59158178712E+02 -0.34397715221E+03 -0.43753790465E+03  0.55969580074E+03  0.00000000000E+00 0.  1.
         -4    1    1    2    0  503 -0.21929802123E+02  0.18171508425E+02  0.57681868145E+03  0.57752135130E+03  0.00000000000E+00 0. -1.
<mgrwt>
<rscale>  4 0.35534436E+03</rscale>
<asrwt>0</asrwt>
<pdfrwt beam="1">  1       21 0.10096190E+00 0.35534436E+03</pdfrwt>
<pdfrwt beam="2">  1       21 0.33987797E+00 0.35534436E+03</pdfrwt>
<totfact> 0.12786079E+01</totfact>
</mgrwt>
</event>
<event>
 5    0  0.1972558E-002  0.2685100E+03  0.7546771E-02  0.1102135E+00
         21   -1    0    0  501  502  0.00000000000E+00  0.00000000000E+00  0.32931991127E+04  0.32931991127E+04  0.00000000000E+00 0. -1.
         21   -1    0    0  502  503 -0.00000000000E+00 -0.00000000000E+00 -0.17085164086E+03  0.17085164086E+03  0.00000000000E+00 0.  1.
         25    1    1    2    0    0 -0.19849586904E+03 -0.13675178065E+03 -0.50100198437E+02  0.27610992271E+03  0.12500000000E+03 0.  0.
          3    1    1    2  501    0  0.13990176513E+03  0.14254805450E+03  0.13650865095E+04  0.13796208284E+04  0.00000000000E+00 0.  1.
         -3    1    1    2    0  503  0.58594103913E+02 -0.57962738479E+01  0.18073611608E+04  0.18083200024E+04  0.00000000000E+00 0. -1.
<mgrwt>
<rscale>  4 0.26851001E+03</rscale>
<asrwt>0</asrwt>
<pdfrwt beam="1">  1       21 0.50664597E+00 0.26851001E+03</pdfrwt>
<pdfrwt beam="2">  1       21 0.26284870E-01 0.26851001E+03</pdfrwt>
<totfact> 0.20534952E+01</totfact>
</mgrwt>
</event>
<event>
 5    0  0.1972558E-002  0.2439648E+03  0.7546771E-02  0.1117179E+00
         21   -1    0    0  501  502  0.00000000000E+00  0.00000000000E+00  0.96363119616E+02  0.96363119616E+02  0.00000000000E+00 0.  1.
         21   -1    0    0  502  503 -0.00000000000E+00 -0.00000000000E+00 -0.84224400310E+03  0.84224400310E+03  0.00000000000E+00 0. -1.
         25    1    1    2    0    0 -0.20833133392E+03  0.22178750686E+02 -0.66784488169E+03  0.71101028661E+03  0.12500000000E+03 0.  0.
          3    1    1    2  501    0  0.33826006367E+02  0.40600724467E+01  0.13501820656E+01  0.34095540568E+02  0.00000000000E+00 0. -1.
         -3    1    1    2    0  503  0.17450532756E+03 -0.26238823133E+02 -0.79386183865E+02  0.19350129554E+03  0.00000000000E+00 0.  1.
<mgrwt>
<rscale>  4 0.24396484E+03</rscale>
<asrwt>0</asrwt>
<pdfrwt beam="1">  1       21 0.14825095E-01 0.24396484E+03</pdfrwt>
<pdfrwt beam="2">  1       21 0.12957600E+00 0.24396484E+03</pdfrwt>
<totfact> 0.16924056E+04</totfact>
</mgrwt>
</event>
<event>
 5    0  0.1972558E-002  0.3295302E+03  0.7546771E-02  0.1071345E+00
         21   -1    0    0  501  502  0.00000000000E+00  0.00000000000E+00  0.82653414942E+03  0.82653414942E+03  0.00000000000E+00 0. -1.
         21   -1    0    0  502  503 -0.00000000000E+00 -0.00000000000E+00 -0.45895860722E+03  0.45895860722E+03  0.00000000000E+00 0.  1.
         25    1    1    2    0    0  0.33098606195E+02 -0.29917465622E+03 -0.10818964044E+03  0.34341081951E+03  0.12500000000E+03 0.  0.
          4    1    1    2  501    0 -0.22357423031E+02 -0.93360782616E+01  0.60639793020E+03  0.60688175658E+03  0.00000000000E+00 0. -1.
         -4    1    1    2    0  503 -0.10741183164E+02  0.30851073448E+03 -0.13063274756E+03  0.33520018055E+03  0.00000000000E+00 0.  1.
<mgrwt>
<rscale>  4 0.32953018E+03</rscale>
<asrwt>0</asrwt>
<pdfrwt beam="1">  1       21 0.12715910E+00 0.32953018E+03</pdfrwt>
<pdfrwt beam="2">  1       21 0.70609017E-01 0.32953018E+03</pdfrwt>
<totfact> 0.74397149E+02</totfact>
</mgrwt>
</event>
<event>
 5    0  0.1972558E-002  0.2427582E+03  0.7546771E-02  0.1117969E+00
         21   -1    0    0  503  502  0.00000000000E+00  0.00000000000E+00  0.23949725092E+03  0.23949725092E+03  0.00000000000E+00 0. -1.
         21   -1    0    0  501  503 -0.00000000000E+00 -0.00000000000E+00 -0.37420545080E+03  0.37420545080E+03  0.00000000000E+00 0. -1.
         25    1    1    2    0    0 -0.17619026583E+03 -0.11074094778E+03 -0.26886621547E+03  0.36224385310E+03  0.12500000000E+03 0.  0.
          3    1    1    2  501    0  0.26326305444E+02  0.37540832177E+02  0.31034889711E+02  0.55367434637E+02  0.00000000000E+00 0.  1.
         -3    1    1    2    0  502  0.14986396038E+03  0.73200115608E+02  0.10312312588E+03  0.19609141399E+03  0.00000000000E+00 0. -1.
<mgrwt>
<rscale>  4 0.24275825E+03</rscale>
<asrwt>0</asrwt>
<pdfrwt beam="1">  1       21 0.36845731E-01 0.24275825E+03</pdfrwt>
<pdfrwt beam="2">  1       21 0.57570069E-01 0.24275825E+03</pdfrwt>
<totfact> 0.19556884E+04</totfact>
</mgrwt>
</event>
<event>
 5    0  0.1972558E-002  0.3041603E+03  0.7546771E-02  0.1083179E+00
         21   -1    0    0  501  502  0.00000000000E+00  0.00000000000E+00  0.58501111524E+03  0.58501111524E+03  0.00000000000E+00 0.  1.
         21   -1    0    0  502  503 -0.00000000000E+00 -0.00000000000E+00 -0.26121229420E+03  0.26121229420E+03  0.00000000000E+00 0. -1.
         25    1    1    2    0    0  0.62259976191E+02  0.26483198944E+03 -0.56565327423E+02  0.30469152192E+03  0.12500000000E+03 0.  0.
          2    1    1    2  501    0  0.23097152072E+02  0.11042474436E+02  0.19875039797E+03  0.20039245337E+03  0.00000000000E+00 0. -1.
         -2    1    1    2    0  503 -0.85357128263E+02 -0.27587446387E+03  0.18161375049E+03  0.34113943415E+03  0.00000000000E+00 0.  1.
<mgrwt>
<rscale>  4 0.30416031E+03</rscale>
<asrwt>0</asrwt>
<pdfrwt beam="1">  1       21 0.90001710E-01 0.30416031E+03</pdfrwt>
<pdfrwt beam="2">  1       21 0.40186507E-01 0.30416031E+03</pdfrwt>
<totfact> 0.58512899E+03</totfact>
</mgrwt>
</event>
<event>
 5    0  0.1972558E-002  0.2577087E+03  0.7546771E-02  0.1108528E+00
         21   -1    0    0  501  502  0.00000000000E+00  0.00000000000E+00  0.27160092860E+04  0.27160092860E+04  0.00000000000E+00 0.  1.
         21   -1    0    0  502  503 -0.00000000000E+00 -0.00000000000E+00 -0.14705502562E+03  0.14705502562E+03  0.00000000000E+00 0.  1.
         25    1    1    2    0    0 -0.79103135211E+02  0.21275092432E+03  0.13270978524E+02  0.25946364036E+03  0.12500000000E+03 0.  0.
          4    1    1    2  501    0 -0.35051212419E+02 -0.22141509236E+02  0.20598233512E+04  0.20602405374E+04  0.00000000000E+00 0.  1.
         -4    1    1    2    0  503  0.11415434763E+03 -0.19060941508E+03  0.49585993065E+03  0.54336013382E+03  0.00000000000E+00 0. -1.
<mgrwt>
<rscale>  4 0.25770875E+03</rscale>
<asrwt>0</asrwt>
<pdfrwt beam="1">  1       21 0.41784755E+00 0.25770875E+03</pdfrwt>
<pdfrwt beam="2">  1       21 0.22623852E-01 0.25770875E+03</pdfrwt>
<totfact> 0.11125759E+02</totfact>
</mgrwt>
</event>
<event>
 5    0  0.1972558E-002  0.2714162E+03  0.7546771E-02  0.1100472E+00
         21   -1    0    0  501  502  0.00000000000E+00  0.00000000000E+00  0.51884414351E+03  0.51884414351E+03  0.00000000000E+00 0.  1.
         21   -1    0    0  502  503 -0.00000000000E+00 -0.00000000000E+00 -0.20518998224E+03  0.20518998224E+03  0.00000000000E+00 0.  1.
         25    1    1    2    0    0  0.53483466054E+02  0.23461800228E+03  0.20095099054E+02  0.27190972976E+03  0.12500000000E+03 0.  0.
          1    1    1    2  501    0  0.27664202291E+02 -0.63976888276E+01  0.18417893569E+03  0.18635481980E+03  0.00000000000E+00 0. -1.
         -1    1    1    2    0  503 -0.81147668345E+02 -0.22822031345E+03  0.10938012653E+03  0.26576957619E+03  0.00000000000E+00 0.  1.
<mgrwt>
<rscale>  4 0.27141624E+03</rscale>
<asrwt>0</asrwt>
<pdfrwt beam="1">  1       21 0.79822176E-01 0.27141624E+03</pdfrwt>
<pdfrwt beam="2">  1       21 0.31567690E-01 0.27141624E+03</pdfrwt>
<totfact> 0.12743757E+04</totfact>
</mgrwt>
</event>
<event>
 5    0  0.1972558E-002  0.2499090E+03  0.7546771E-02  0.1113362E+00
         21   -1    0    0  501  502  0.00000000000E+00  0.00000000000E+00  0.15365113638E+04  0.15365113638E+04  0.00000000000E+00 0.  1.
         21   -1    0    0  502  503 -0.00000000000E+00 -0.00000000000E+00 -0.21800250486E+03  0.21800250486E+03  0.00000000000E+00 0. -1.
         25    1    1    2    0    0 -0.18169193507E+03  0.11779033233E+03 -0.12106492251E+03  0.27779171536E+03  0.12500000000E+03 0.  0.
          3    1    1    2  501    0  0.16069039232E+03 -0.14732761848E+03  0.63590457130E+03  0.67223615877E+03  0.00000000000E+00 0. -1.
         -3    1    1    2    0  503  0.21001542747E+02  0.29537286149E+02  0.80366921019E+03  0.80448599458E+03  0.00000000000E+00 0.  1.
<mgrwt>
<rscale>  4 0.24990904E+03</rscale>
<asrwt>0</asrwt>
<pdfrwt beam="1">  1       21 0.23638636E+00 0.24990904E+03</pdfrwt>
<pdfrwt beam="2">  1       21 0.33538848E-01 0.24990904E+03</pdfrwt>
<totfact> 0.64322640E+02</totfact>
</mgrwt>
</event>
<event>
 5    0  0.1972558E-002  0.5468016E+03  0.7546771E-02  0.1002237E+00
         21   -1    0    0  501  502  0.00000000000E+00  0.00000000000E+00  0.47764008269E+03  0.47764008269E+03  0.00000000000E+00 0.  1.
         21   -1    0    0  502  503 -0.00000000000E+00 -0.00000000000E+00 -0.11564027327E+04  0.11564027327E+04  0.00000000000E+00 0. -1.
         25    1    1    2    0    0  0.51474562558E+03  0.13566110447E+03 -0.90051879264E+03  0.10535302987E+04  0.12500000000E+03 0.  0.
          3    1    1    2  501    0 -0.48595278719E+03 -0.13544791188E+03  0.19392115810E+03  0.54046430388E+03  0.00000000000E+00 0.  1.
         -3    1    1    2    0  503 -0.28792838395E+02 -0.21319259246E+00  0.27834984484E+02  0.40048212883E+02  0.00000000000E+00 0. -1.
<mgrwt>
<rscale>  4 0.54680160E+03</rscale>
<asrwt>0</asrwt>
<pdfrwt beam="1">  1       21 0.73483090E-01 0.54680160E+03</pdfrwt>
<pdfrwt beam="2">  1       21 0.17790811E+00 0.54680160E+03</pdfrwt>
<totfact> 0.24441889E+02</totfact>
</mgrwt>
</event>
<event>
 5    0  0.1972558E-002  0.2401372E+03  0.7546771E-02  0.1119701E+00
         21   -1    0    0  503  502  0.00000000000E+00  0.00000000000E+00  0.67828154264E+03  0.67828154264E+03  0.00000000000E+00 0. -1.
         21   -1    0    0  501  503 -0.00000000000E+00 -0.00000000000E+00 -0.88053585113E+03  0.88053585113E+03  0.00000000000E+00 0.  1.
         25    1    1    2    0    0 -0.18911100637E+03  0.79233297773E+02 -0.84598158567E+03  0.87940362263E+03  0.12500000000E+03 0.  0.
          2    1    1    2  501    0  0.35662529704E+02  0.13246237724E+02  0.12047810329E+03  0.12634180706E+03  0.00000000000E+00 0.  1.
         -2    1    1    2    0  502  0.15344847667E+03 -0.92479535497E+02  0.52324917389E+03  0.55307196409E+03  0.00000000000E+00 0. -1.
<mgrwt>
<rscale>  4 0.24013723E+03</rscale>
<asrwt>0</asrwt>
<pdfrwt beam="1">  1       21 0.10435101E+00 0.24013723E+03</pdfrwt>
<pdfrwt beam="2">  1       21 0.13546705E+00 0.24013723E+03</pdfrwt>
<totfact> 0.27399888E+02</totfact>
</mgrwt>
</event>
<event>
 5    0  0.1972558E-002  0.2332284E+03  0.7546771E-02  0.1124388E+00
         21   -1    0    0  501  502  0.00000000000E+00  0.00000000000E+00  0.43253753148E+03  0.43253753148E+03  0.00000000000E+00 0.  1.
         21   -1    0    0  502  503 -0.00000000000E+00 -0.00000000000E+00 -0.19249723330E+03  0.19249723330E+03  0.00000000000E+00 0.  1.
         25    1    1    2    0    0 -0.18366687508E+03  0.10269191471E+03  0.22789370289E+03  0.33442441622E+03  0.12500000000E+03 0.  0.
          3    1    1    2  501    0  0.75074027282E+01 -0.22021462844E+02  0.81549183121E+02  0.84803155538E+02  0.00000000000E+00 0. -1.
         -3    1    1    2    0  503  0.17615947235E+03 -0.80670451866E+02 -0.69402587834E+02  0.20580719302E+03  0.00000000000E+00 0.  1.
<mgrwt>
<rscale>  4 0.23322838E+03</rscale>
<asrwt>0</asrwt>
<pdfrwt beam="1">  1       21 0.66544235E-01 0.23322838E+03</pdfrwt>
<pdfrwt beam="2">  1       21 0.29614959E-01 0.23322838E+03</pdfrwt>
<totfact> 0.22121489E+04</totfact>
</mgrwt>
</event>
<event>
 5    0  0.1972558E-002  0.2669583E+03  0.7546771E-02  0.1103033E+00
         21   -1    0    0  501  502  0.00000000000E+00  0.00000000000E+00  0.15983599220E+04  0.15983599220E+04  0.00000000000E+00 0.  1.
         21   -1    0    0  502  503 -0.00000000000E+00 -0.00000000000E+00 -0.22426457797E+03  0.22426457797E+03  0.00000000000E+00 0.  1.
         25    1    1    2    0    0  0.49077194505E+02  0.21354452773E+03 -0.64219583868E+02  0.26030557293E+03  0.12500000000E+03 0.  0.
          3    1    1    2  501    0 -0.10308164799E+03  0.16333209641E+03  0.76309874331E+03  0.78716128710E+03  0.00000000000E+00 0. -1.
         -3    1    1    2    0  503  0.54004453481E+02 -0.37687662414E+03  0.67521618458E+03  0.77515763993E+03  0.00000000000E+00 0.  1.
<mgrwt>
<rscale>  4 0.26695828E+03</rscale>
<asrwt>0</asrwt>
<pdfrwt beam="1">  1       21 0.24590152E+00 0.26695828E+03</pdfrwt>
<pdfrwt beam="2">  1       21 0.34502244E-01 0.26695828E+03</pdfrwt>
<totfact> 0.52406491E+02</totfact>
</mgrwt>
</event>
<event>
 5    0  0.1972558E-002  0.3310102E+03  0.7546771E-02  0.1070691E+00
         21   -1    0    0  501  502  0.00000000000E+00  0.00000000000E+00  0.49542756687E+03  0.49542756687E+03  0.00000000000E+00 0. -1.
         21   -1    0    0  502  503 -0.00000000000E+00 -0.00000000000E+00 -0.22507825831E+03  0.22507825831E+03  0.00000000000E+00 0.  1.
         25    1    1    2    0    0 -0.10039873944E+02  0.30633632220E+03  0.68828010542E+02  0.33809027848E+03  0.12500000000E+03 0.  0.
          1    1    1    2  501    0  0.35280620432E+00 -0.47849681819E+02  0.87505152508E+02  0.99733987375E+02  0.00000000000E+00 0.  1.
         -1    1    1    2    0  503  0.96870677392E+01 -0.25848664039E+03  0.11401614551E+03  0.28268155931E+03  0.00000000000E+00 0. -1.
<mgrwt>
<rscale>  4 0.33101018E+03</rscale>
<asrwt>0</asrwt>
<pdfrwt beam="1">  1       21 0.76219625E-01 0.33101018E+03</pdfrwt>
<pdfrwt beam="2">  1       21 0.34627425E-01 0.33101018E+03</pdfrwt>
<totfact> 0.11468687E+04</totfact>
</mgrwt>
</event>
<event>
 5    0  0.1972558E-002  0.3052505E+03  0.7546771E-02  0.1082645E+00
         21   -1    0    0  501  502  0.00000000000E+00  0.00000000000E+00  0.24617279762E+04  0.24617279762E+04  0.00000000000E+00 0.  1.
         21   -1    0    0  502  503 -0.00000000000E+00 -0.00000000000E+00 -0.64196600712E+02  0.64196600712E+02  0.00000000000E+00 0. -1.
         25    1    1    2    0    0 -0.21354961210E+03 -0.20280845636E+03  0.66631255577E+03  0.73914283381E+03  0.12500000000E+03 0.  0.
          3    1    1    2  501    0  0.14080337518E+02  0.29609055458E+02  0.11253267548E+04  0.11258042712E+04  0.00000000000E+00 0. -1.
         -3    1    1    2    0  503  0.19946927458E+03  0.17319940091E+03  0.60589206493E+03  0.66097747187E+03  0.00000000000E+00 0.  1.
<mgrwt>
<rscale>  4 0.30525051E+03</rscale>
<asrwt>0</asrwt>
<pdfrwt beam="1">  1       21 0.37872731E+00 0.30525051E+03</pdfrwt>
<pdfrwt beam="2">  1       21 0.98764020E-02 0.30525051E+03</pdfrwt>
<totfact> 0.85413057E+02</totfact>
</mgrwt>
</event>
<event>
 5    0  0.1972558E-002  0.3516800E+03  0.7546771E-02  0.1061928E+00
         21   -1    0    0  501  502  0.00000000000E+00  0.00000000000E+00  0.46828500348E+03  0.46828500348E+03  0.00000000000E+00 0.  1.
         21   -1    0    0  502  503 -0.00000000000E+00 -0.00000000000E+00 -0.23461235921E+04  0.23461235921E+04  0.00000000000E+00 0.  1.
         25    1    1    2    0    0 -0.85808499159E+02  0.32039623149E+03 -0.16957673991E+04  0.17324170732E+04  0.12500000000E+03 0.  0.
          1    1    1    2  501    0  0.11018843436E+03 -0.30348185972E+03 -0.59022438205E+03  0.67276113994E+03  0.00000000000E+00 0. -1.
         -1    1    1    2    0  503 -0.24379935203E+02 -0.16914371767E+02  0.40815319261E+03  0.40923038236E+03  0.00000000000E+00 0.  1.
<mgrwt>
<rscale>  4 0.35168000E+03</rscale>
<asrwt>0</asrwt>
<pdfrwt beam="1">  1       21 0.72043848E-01 0.35168000E+03</pdfrwt>
<pdfrwt beam="2">  1       21 0.36094209E+00 0.35168000E+03</pdfrwt>
<totfact> 0.20973626E+01</totfact>
</mgrwt>
</event>
<event>
 5    0  0.1972558E-002  0.2573388E+03  0.7546771E-02  0.1108753E+00
         21   -1    0    0  501  502  0.00000000000E+00  0.00000000000E+00  0.58221033105E+03  0.58221033105E+03  0.00000000000E+00 0. -1.
         21   -1    0    0  502  503 -0.00000000000E+00 -0.00000000000E+00 -0.27030662304E+03  0.27030662304E+03  0.00000000000E+00 0.  1.
         25    1    1    2    0    0 -0.41359652595E+02  0.22110548147E+03 -0.17169710037E+03  0.30935925568E+03  0.12500000000E+03 0.  0.
          1    1    1    2  501    0  0.62599862011E+02 -0.14478335371E+03  0.38901101501E+03  0.41977438230E+03  0.00000000000E+00 0. -1.
         -1    1    1    2    0  503 -0.21240209416E+02 -0.76322127759E+02  0.94589793381E+02  0.12338331611E+03  0.00000000000E+00 0.  1.
<mgrwt>
<rscale>  4 0.25733879E+03</rscale>
<asrwt>0</asrwt>
<pdfrwt beam="1">  1       21 0.89570820E-01 0.25733879E+03</pdfrwt>
<pdfrwt beam="2">  1       21 0.41585634E-01 0.25733879E+03</pdfrwt>
<totfact> 0.56583311E+03</totfact>
</mgrwt>
</event>
<event>
 5    0  0.1972558E-002  0.3645827E+03  0.7546771E-02  0.1056784E+00
         21   -1    0    0  501  502  0.00000000000E+00  0.00000000000E+00  0.24287522464E+03  0.24287522464E+03  0.00000000000E+00 0. -1.
         21   -1    0    0  502  503 -0.00000000000E+00 -0.00000000000E+00 -0.13339930960E+04  0.13339930960E+04  0.00000000000E+00 0. -1.
         25    1    1    2    0    0 -0.23112511958E+03 -0.45269594151E+03 -0.64562496422E+03  0.83114922294E+03  0.12500000000E+03 0.  0.
          4    1    1    2  501    0  0.20296849236E+03  0.22354779719E+03 -0.78222331166E+02  0.31191114057E+03  0.00000000000E+00 0. -1.
         -4    1    1    2    0  503  0.28156627225E+02  0.22914814433E+03 -0.36727057599E+03  0.43380795716E+03  0.00000000000E+00 0.  1.
<mgrwt>
<rscale>  4 0.36458271E+03</rscale>
<asrwt>0</asrwt>
<pdfrwt beam="1">  1       21 0.37365419E-01 0.36458271E+03</pdfrwt>
<pdfrwt beam="2">  1       21 0.20522971E+00 0.36458271E+03</pdfrwt>
<totfact> 0.74436078E+02</totfact>
</mgrwt>
</event>
<event>
 5    0  0.1972558E-002  0.2557010E+03  0.7546771E-02  0.1109754E+00
         21   -1    0    0  501  502  0.00000000000E+00  0.00000000000E+00  0.63768089566E+03  0.63768089566E+03  0.00000000000E+00 0.  1.
         21   -1    0    0  502  503 -0.00000000000E+00 -0.00000000000E+00 -0.27870970488E+03  0.27870970488E+03  0.00000000000E+00 0. -1.
         25    1    1    2    0    0  0.21687751687E+03 -0.11477898877E+03 -0.64310650781E+02  0.28279132482E+03  0.12500000000E+03 0.  0.
          4    1    1    2  501    0 -0.15200200398E+03  0.13820528037E+03  0.71555246811E+00  0.20544055284E+03  0.00000000000E+00 0. -1.
         -4    1    1    2    0  503 -0.64875512893E+02 -0.23426291597E+02  0.42256628909E+03  0.42815872289E+03  0.00000000000E+00 0.  1.
<mgrwt>
<rscale>  4 0.25570101E+03</rscale>
<asrwt>0</asrwt>
<pdfrwt beam="1">  1       21 0.98104753E-01 0.25570101E+03</pdfrwt>
<pdfrwt beam="2">  1       21 0.42878416E-01 0.25570101E+03</pdfrwt>
<totfact> 0.42937089E+03</totfact>
</mgrwt>
</event>
<event>
 5    0  0.1972558E-002  0.2969418E+03  0.7546771E-02  0.1086779E+00
         21   -1    0    0  503  502  0.00000000000E+00  0.00000000000E+00  0.31110433491E+03  0.31110433491E+03  0.00000000000E+00 0.  1.
         21   -1    0    0  501  503 -0.00000000000E+00 -0.00000000000E+00 -0.44091870691E+03  0.44091870691E+03  0.00000000000E+00 0.  1.
         25    1    1    2    0    0 -0.10927609199E+03 -0.27950959766E+03 -0.22731857409E+03  0.39669334956E+03  0.12500000000E+03 0.  0.
          4    1    1    2  501    0 -0.17854213214E+02  0.88703615676E+02  0.87441294731E+02  0.12582958471E+03  0.00000000000E+00 0. -1.
         -4    1    1    2    0  502  0.12713030520E+03  0.19080598198E+03  0.10062907356E+02  0.22950010755E+03  0.00000000000E+00 0.  1.
<mgrwt>
<rscale>  4 0.29694184E+03</rscale>
<asrwt>0</asrwt>
<pdfrwt beam="1">  1       21 0.47862205E-01 0.29694184E+03</pdfrwt>
<pdfrwt beam="2">  1       21 0.67833647E-01 0.29694184E+03</pdfrwt>
<totfact> 0.77891347E+03</totfact>
</mgrwt>
</event>
<event>
 5    0  0.1972558E-002  0.2497975E+03  0.7546771E-02  0.1113433E+00
         21   -1    0    0  501  502  0.00000000000E+00  0.00000000000E+00  0.14531996554E+03  0.14531996554E+03  0.00000000000E+00 0. -1.
         21   -1    0    0  502  503 -0.00000000000E+00 -0.00000000000E+00 -0.56704589036E+03  0.56704589036E+03  0.00000000000E+00 0.  1.
         25    1    1    2    0    0  0.78649928731E+02 -0.19531244603E+03 -0.20396206846E+03  0.31868211157E+03  0.12500000000E+03 0.  0.
          2    1    1    2  501    0 -0.14030055902E+02 -0.15603147916E+02  0.45567014250E+02  0.50166258393E+02  0.00000000000E+00 0. -1.
         -2    1    1    2    0  503 -0.64619872830E+02  0.21091559394E+03 -0.26333087061E+03  0.34351748594E+03  0.00000000000E+00 0.  1.
<mgrwt>
<rscale>  4 0.24979745E+03</rscale>
<asrwt>0</asrwt>
<pdfrwt beam="1">  1       21 0.22356918E-01 0.24979745E+03</pdfrwt>
<pdfrwt beam="2">  1       21 0.87237829E-01 0.24979745E+03</pdfrwt>
<totfact> 0.20481522E+04</totfact>
</mgrwt>
</event>
<event>
 5    0  0.1972558E-002  0.2439950E+03  0.7546771E-02  0.1117160E+00
         21   -1    0    0  501  502  0.00000000000E+00  0.00000000000E+00  0.62737362840E+03  0.62737362840E+03  0.00000000000E+00 0. -1.
         21   -1    0    0  502  503 -0.00000000000E+00 -0.00000000000E+00 -0.12360836285E+03  0.12360836285E+03  0.00000000000E+00 0.  1.
         25    1    1    2    0    0 -0.14062460984E+03 -0.16197940326E+03  0.37348247289E+03  0.44847158832E+03  0.12500000000E+03 0.  0.
          3    1    1    2  501    0  0.24539172932E+02 -0.11065958865E+02  0.85148759686E+02  0.89302506851E+02  0.00000000000E+00 0.  1.
         -3    1    1    2    0  503  0.11608543691E+03  0.17304536213E+03  0.45134032980E+02  0.21320789608E+03  0.00000000000E+00 0. -1.
<mgrwt>
<rscale>  4 0.24399498E+03</rscale>
<asrwt>0</asrwt>
<pdfrwt beam="1">  1       21 0.96519018E-01 0.24399498E+03</pdfrwt>
<pdfrwt beam="2">  1       21 0.19016672E-01 0.24399498E+03</pdfrwt>
<totfact> 0.21991474E+04</totfact>
</mgrwt>
</event>
<event>
 5    0  0.1972558E-002  0.2473723E+03  0.7546771E-02  0.1114977E+00
         21   -1    0    0  501  502  0.00000000000E+00  0.00000000000E+00  0.35788914347E+03  0.35788914347E+03  0.00000000000E+00 0.  1.
         21   -1    0    0  502  503 -0.00000000000E+00 -0.00000000000E+00 -0.41481998180E+03  0.41481998180E+03  0.00000000000E+00 0. -1.
         25    1    1    2    0    0 -0.22880012261E+03  0.24722896194E+02 -0.30095730376E+03  0.39894989208E+03  0.12500000000E+03 0.  0.
          4    1    1    2  501    0  0.56943145498E+02 -0.40006070888E+02  0.17427859773E+03  0.18765936468E+03  0.00000000000E+00 0. -1.
         -4    1    1    2    0  503  0.17185697712E+03  0.15283174694E+02  0.69747867697E+02  0.18609986851E+03  0.00000000000E+00 0.  1.
<mgrwt>
<rscale>  4 0.24737229E+03</rscale>
<asrwt>0</asrwt>
<pdfrwt beam="1">  1       21 0.55059868E-01 0.24737229E+03</pdfrwt>
<pdfrwt beam="2">  1       21 0.63818459E-01 0.24737229E+03</pdfrwt>
<totfact> 0.68041520E+03</totfact>
</mgrwt>
</event>
<event>
 5    0  0.1972558E-002  0.2486148E+03  0.7546771E-02  0.1114183E+00
         21   -1    0    0  501  502  0.00000000000E+00  0.00000000000E+00  0.17806806112E+03  0.17806806112E+03  0.00000000000E+00 0. -1.
         21   -1    0    0  502  503 -0.00000000000E+00 -0.00000000000E+00 -0.55253608684E+03  0.55253608684E+03  0.00000000000E+00 0.  1.
         25    1    1    2    0    0  0.15471510137E+03  0.15200368798E+03 -0.41916140599E+03  0.48822450576E+03  0.12500000000E+03 0.  0.
          2    1    1    2  501    0 -0.13258331685E+03 -0.16170237155E+03  0.23840604179E+02  0.21046227044E+03  0.00000000000E+00 0. -1.
         -2    1    1    2    0  503 -0.22131784521E+02  0.96986835700E+01  0.20852776091E+02  0.31917371755E+02  0.00000000000E+00 0.  1.
<mgrwt>
<rscale>  4 0.24861484E+03</rscale>
<asrwt>0</asrwt>
<pdfrwt beam="1">  1       21 0.27395087E-01 0.24861484E+03</pdfrwt>
<pdfrwt beam="2">  1       21 0.85005551E-01 0.24861484E+03</pdfrwt>
<totfact> 0.14731641E+04</totfact>
</mgrwt>
</event>
<event>
 5    0  0.1972558E-002  0.5840715E+03  0.7546771E-02  0.9939015E-01
         21   -1    0    0  501  502  0.00000000000E+00  0.00000000000E+00  0.45534241673E+03  0.45534241673E+03  0.00000000000E+00 0.  1.
         21   -1    0    0  502  503 -0.00000000000E+00 -0.00000000000E+00 -0.98493707679E+03  0.98493707679E+03  0.00000000000E+00 0.  1.
         25    1    1    2    0    0 -0.46687113911E+02  0.57578475002E+03 -0.50673418442E+03  0.77853214360E+03  0.12500000000E+03 0.  0.
          3    1    1    2  501    0 -0.15261419154E+02 -0.20561975748E+02  0.88464088894E+02  0.92095606763E+02  0.00000000000E+00 0. -1.
         -3    1    1    2    0  503  0.61948533064E+02 -0.55522277427E+03 -0.11132456454E+03  0.56965174316E+03  0.00000000000E+00 0.  1.
<mgrwt>
<rscale>  4 0.58407148E+03</rscale>
<asrwt>0</asrwt>
<pdfrwt beam="1">  1       21 0.70052680E-01 0.58407148E+03</pdfrwt>
<pdfrwt beam="2">  1       21 0.15152878E+00 0.58407148E+03</pdfrwt>
<totfact> 0.42339111E+02</totfact>
</mgrwt>
</event>
<event>
 5    0  0.1972558E-002  0.3800809E+03  0.7546771E-02  0.1050904E+00
         21   -1    0    0  503  502  0.00000000000E+00  0.00000000000E+00  0.12530137649E+04  0.12530137649E+04  0.00000000000E+00 0.  1.
         21   -1    0    0  501  503 -0.00000000000E+00 -0.00000000000E+00 -0.63293276238E+03  0.63293276238E+03  0.00000000000E+00 0. -1.
         25    1    1    2    0    0  0.35146352545E+03 -0.72868873549E+02 -0.54578059031E+03  0.66508490827E+03  0.12500000000E+03 0.  0.
          2    1    1    2  501    0 -0.25315671940E+02  0.49198382346E+01  0.49022727373E+02  0.55392380822E+02  0.00000000000E+00 0. -1.
         -2    1    1    2    0  502 -0.32614785351E+03  0.67949035314E+02  0.11168388655E+04  0.11654692382E+04  0.00000000000E+00 0.  1.
<mgrwt>
<rscale>  4 0.38008089E+03</rscale>
<asrwt>0</asrwt>
<pdfrwt beam="1">  1       21 0.19277135E+00 0.38008089E+03</pdfrwt>
<pdfrwt beam="2">  1       21 0.97374271E-01 0.38008089E+03</pdfrwt>
<totfact> 0.10900376E+02</totfact>
</mgrwt>
</event>
<event>
 5    0  0.1972558E-002  0.5233937E+03  0.7546771E-02  0.1007847E+00
         21   -1    0    0  501  502  0.00000000000E+00  0.00000000000E+00  0.57007934850E+03  0.57007934850E+03  0.00000000000E+00 0. -1.
         21   -1    0    0  502  503 -0.00000000000E+00 -0.00000000000E+00 -0.54660106854E+03  0.54660106854E+03  0.00000000000E+00 0. -1.
         25    1    1    2    0    0 -0.19053555099E+03  0.48604089131E+03 -0.55212135441E+02  0.53964147739E+03  0.12500000000E+03 0.  0.
          3    1    1    2  501    0  0.22719367815E+03 -0.43966091702E+03  0.22385720503E+02  0.49539863729E+03  0.00000000000E+00 0. -1.
         -3    1    1    2    0  503 -0.36658127153E+02 -0.46379974289E+02  0.56304694898E+02  0.81640302357E+02  0.00000000000E+00 0.  1.
<mgrwt>
<rscale>  4 0.52339372E+03</rscale>
<asrwt>0</asrwt>
<pdfrwt beam="1">  1       21 0.87704515E-01 0.52339372E+03</pdfrwt>
<pdfrwt beam="2">  1       21 0.84092472E-01 0.52339372E+03</pdfrwt>
<totfact> 0.11371505E+03</totfact>
</mgrwt>
</event>
<event>
 5    0  0.1972558E-002  0.3868933E+03  0.7546771E-02  0.1048415E+00
         21   -1    0    0  501  502  0.00000000000E+00  0.00000000000E+00  0.95859525703E+03  0.95859525703E+03  0.00000000000E+00 0.  1.
         21   -1    0    0  502  503 -0.00000000000E+00 -0.00000000000E+00 -0.11081921441E+04  0.11081921441E+04  0.00000000000E+00 0.  1.
         25    1    1    2    0    0 -0.20138808311E+03  0.30940269605E+03 -0.93543684870E+03  0.10133875301E+04  0.12500000000E+03 0.  0.
          4    1    1    2  501    0  0.20989920690E+03 -0.27895543330E+03  0.94949074071E+02  0.36178603828E+03  0.00000000000E+00 0. -1.
         -4    1    1    2    0  503 -0.85111237979E+01 -0.30447262746E+02  0.69089088758E+03  0.69161383269E+03  0.00000000000E+00 0.  1.
<mgrwt>
<rscale>  4 0.38689330E+03</rscale>
<asrwt>0</asrwt>
<pdfrwt beam="1">  1       21 0.14747619E+00 0.38689330E+03</pdfrwt>
<pdfrwt beam="2">  1       21 0.17049110E+00 0.38689330E+03</pdfrwt>
<totfact> 0.54207883E+01</totfact>
</mgrwt>
</event>
<event>
 5    0  0.1972558E-002  0.2645438E+03  0.7546771E-02  0.1104444E+00
         21   -1    0    0  501  502  0.00000000000E+00  0.00000000000E+00  0.71468785698E+02  0.71468785698E+02  0.00000000000E+00 0. -1.
         21   -1    0    0  502  503 -0.00000000000E+00 -0.00000000000E+00 -0.17992429452E+04  0.17992429452E+04  0.00000000000E+00 0.  1.
         25    1    1    2    0    0 -0.85168108732E+02  0.22526125082E+03 -0.14598879183E+04  0.14848885385E+04  0.12500000000E+03 0.  0.
          1    1    1    2  501    0  0.11972685129E+03 -0.17580143720E+03 -0.23553552521E+03  0.31736043842E+03  0.00000000000E+00 0. -1.
         -1    1    1    2    0  503 -0.34558742557E+02 -0.49459813627E+02 -0.32350715980E+02  0.68462753929E+02  0.00000000000E+00 0.  1.
<mgrwt>
<rscale>  4 0.26454377E+03</rscale>
<asrwt>0</asrwt>
<pdfrwt beam="1">  1       21 0.10995199E-01 0.26454377E+03</pdfrwt>
<pdfrwt beam="2">  1       21 0.27680658E+00 0.26454377E+03</pdfrwt>
<totfact> 0.29643028E+03</totfact>
</mgrwt>
</event>
<event>
 5    0  0.1972558E-002  0.2807190E+03  0.7546771E-02  0.1095297E+00
         21   -1    0    0  501  502  0.00000000000E+00  0.00000000000E+00  0.58257079525E+03  0.58257079525E+03  0.00000000000E+00 0. -1.
         21   -1    0    0  502  503 -0.00000000000E+00 -0.00000000000E+00 -0.40738699130E+03  0.40738699130E+03  0.00000000000E+00 0.  1.
         25    1    1    2    0    0  0.17665293738E+03  0.17880679676E+03 -0.32499651801E+03  0.42944832934E+03  0.12500000000E+03 0.  0.
          2    1    1    2  501    0 -0.15947309776E+03 -0.16558250620E+03  0.43811625563E+03  0.49476771187E+03  0.00000000000E+00 0. -1.
         -2    1    1    2    0  503 -0.17179839625E+02 -0.13224290554E+02  0.62064066332E+02  0.65741745337E+02  0.00000000000E+00 0.  1.
<mgrwt>
<rscale>  4 0.28071895E+03</rscale>
<asrwt>0</asrwt>
<pdfrwt beam="1">  1       21 0.89626276E-01 0.28071895E+03</pdfrwt>
<pdfrwt beam="2">  1       21 0.62674922E-01 0.28071895E+03</pdfrwt>
<totfact> 0.23433187E+03</totfact>
</mgrwt>
</event>
<event>
 5    0  0.1972558E-002  0.5188218E+03  0.7546771E-02  0.1008980E+00
         21   -1    0    0  501  502  0.00000000000E+00  0.00000000000E+00  0.87119428556E+03  0.87119428556E+03  0.00000000000E+00 0. -1.
         21   -1    0    0  502  503 -0.00000000000E+00 -0.00000000000E+00 -0.19391087331E+04  0.19391087331E+04  0.00000000000E+00 0. -1.
         25    1    1    2    0    0  0.90948114392E+02 -0.49684704545E+03 -0.18082899551E+04  0.18816657801E+04  0.12500000000E+03 0.  0.
          4    1    1    2  501    0  0.78487143630E+01  0.29587689887E+02  0.22079319611E+03  0.22290506759E+03  0.00000000000E+00 0.  1.
         -4    1    1    2    0  503 -0.98796828755E+02  0.46725935556E+03  0.51958231149E+03  0.70573217097E+03  0.00000000000E+00 0. -1.
<mgrwt>
<rscale>  4 0.51882178E+03</rscale>
<asrwt>0</asrwt>
<pdfrwt beam="1">  1       21 0.13402989E+00 0.51882178E+03</pdfrwt>
<pdfrwt beam="2">  1       21 0.29832442E+00 0.51882178E+03</pdfrwt>
<totfact> 0.97610384E+00</totfact>
</mgrwt>
</event>
<event>
 5    0  0.1972558E-002  0.2443240E+03  0.7546771E-02  0.1116945E+00
         21   -1    0    0  501  502  0.00000000000E+00  0.00000000000E+00  0.87148444527E+03  0.87148444527E+03  0.00000000000E+00 0.  1.
         21   -1    0    0  502  503 -0.00000000000E+00 -0.00000000000E+00 -0.23819996759E+03  0.23819996759E+03  0.00000000000E+00 0.  1.
         25    1    1    2    0    0 -0.11346443189E+03  0.21793315441E+03 -0.11035180197E+03  0.29693695845E+03  0.12500000000E+03 0.  0.
          1    1    1    2  501    0  0.79291082580E+02 -0.12056703200E+03  0.14244962286E+03  0.20276927784E+03  0.00000000000E+00 0. -1.
         -1    1    1    2    0  503  0.34173349312E+02 -0.97366122417E+02  0.60118665679E+03  0.60997817657E+03  0.00000000000E+00 0.  1.
<mgrwt>
<rscale>  4 0.24432401E+03</rscale>
<asrwt>0</asrwt>
<pdfrwt beam="1">  1       21 0.13407453E+00 0.24432401E+03</pdfrwt>
<pdfrwt beam="2">  1       21 0.36646149E-01 0.24432401E+03</pdfrwt>
<totfact> 0.27524701E+03</totfact>
</mgrwt>
</event>
<event>
 5    0  0.1972558E-002  0.3037967E+03  0.7546771E-02  0.1083358E+00
         21   -1    0    0  501  502  0.00000000000E+00  0.00000000000E+00  0.38144422495E+03  0.38144422495E+03  0.00000000000E+00 0.  1.
         21   -1    0    0  502  503 -0.00000000000E+00 -0.00000000000E+00 -0.74747470595E+03  0.74747470595E+03  0.00000000000E+00 0. -1.
         25    1    1    2    0    0  0.27772938711E+03  0.72199555082E+02 -0.55430110985E+03  0.63656979869E+03  0.12500000000E+03 0.  0.
          1    1    1    2  501    0 -0.25068526517E+03 -0.30052684576E+02 -0.42653326589E+02  0.25605775187E+03  0.00000000000E+00 0. -1.
         -1    1    1    2    0  503 -0.27044121944E+02 -0.42146870506E+02  0.23092395544E+03  0.23629138034E+03  0.00000000000E+00 0.  1.
<mgrwt>
<rscale>  4 0.30379671E+03</rscale>
<asrwt>0</asrwt>
<pdfrwt beam="1">  1       21 0.58683727E-01 0.30379671E+03</pdfrwt>
<pdfrwt beam="2">  1       21 0.11499611E+00 0.30379671E+03</pdfrwt>
<totfact> 0.14628131E+03</totfact>
</mgrwt>
</event>
<event>
 5    0  0.1972558E-002  0.2556708E+03  0.7546771E-02  0.1109773E+00
         21   -1    0    0  501  502  0.00000000000E+00  0.00000000000E+00  0.19180292845E+03  0.19180292845E+03  0.00000000000E+00 0. -1.
         21   -1    0    0  502  503 -0.00000000000E+00 -0.00000000000E+00 -0.27738252679E+04  0.27738252679E+04  0.00000000000E+00 0.  1.
         25    1    1    2    0    0 -0.89375415225E+02 -0.22490993408E+03 -0.26388727691E+04  0.26528940678E+04  0.12500000000E+03 0.  0.
          2    1    1    2  501    0  0.52716098366E+02  0.10674777616E+03  0.12405512226E+03  0.17194111813E+03  0.00000000000E+00 0. -1.
         -2    1    1    2    0  503  0.36659316859E+02  0.11816215792E+03 -0.67204692563E+02  0.14079301040E+03  0.00000000000E+00 0.  1.
<mgrwt>
<rscale>  4 0.25567084E+03</rscale>
<asrwt>0</asrwt>
<pdfrwt beam="1">  1       21 0.29508144E-01 0.25567084E+03</pdfrwt>
<pdfrwt beam="2">  1       21 0.42674234E+00 0.25567084E+03</pdfrwt>
<totfact> 0.58543172E+01</totfact>
</mgrwt>
</event>
<event>
 5    0  0.1972558E-002  0.2867264E+03  0.7546771E-02  0.1092071E+00
         21   -1    0    0  501  502  0.00000000000E+00  0.00000000000E+00  0.15485138664E+03  0.15485138664E+03  0.00000000000E+00 0.  1.
         21   -1    0    0  502  503 -0.00000000000E+00 -0.00000000000E+00 -0.12149040035E+04  0.12149040035E+04  0.00000000000E+00 0.  1.
         25    1    1    2    0    0 -0.22394956131E+03 -0.16222796939E+03 -0.71972229797E+03  0.78108674695E+03  0.12500000000E+03 0.  0.
          1    1    1    2  501    0  0.15352265612E+03  0.20557195749E+03 -0.19454842324E+02  0.25730823255E+03  0.00000000000E+00 0.  1.
         -1    1    1    2    0  503  0.70426905196E+02 -0.43343988095E+02 -0.32087547657E+03  0.33136041064E+03  0.00000000000E+00 0. -1.
<mgrwt>
<rscale>  4 0.28672640E+03</rscale>
<asrwt>0</asrwt>
<pdfrwt beam="1">  1       21 0.23823290E-01 0.28672640E+03</pdfrwt>
<pdfrwt beam="2">  1       21 0.18690831E+00 0.28672640E+03</pdfrwt>
<totfact> 0.25141205E+03</totfact>
</mgrwt>
</event>
<event>
 5    0  0.1972558E-002  0.2408729E+03  0.7546771E-02  0.1119213E+00
         21   -1    0    0  501  502  0.00000000000E+00  0.00000000000E+00  0.76122460961E+02  0.76122460961E+02  0.00000000000E+00 0. -1.
         21   -1    0    0  502  503 -0.00000000000E+00 -0.00000000000E+00 -0.17500738985E+04  0.17500738985E+04  0.00000000000E+00 0.  1.
         25    1    1    2    0    0 -0.18246081454E+02  0.20351001054E+03 -0.14893969950E+04  0.15085349359E+04  0.12500000000E+03 0.  0.
          2    1    1    2  501    0  0.32129443832E+02  0.12317655784E+02 -0.17068032569E+01  0.34451980818E+02  0.00000000000E+00 0.  1.
         -2    1    1    2    0  503 -0.13883362378E+02 -0.21582766633E+03 -0.18284763923E+03  0.28320944277E+03  0.00000000000E+00 0. -1.
<mgrwt>
<rscale>  4 0.24087291E+03</rscale>
<asrwt>0</asrwt>
<pdfrwt beam="1">  1       21 0.11711147E-01 0.24087291E+03</pdfrwt>
<pdfrwt beam="2">  1       21 0.26924216E+00 0.24087291E+03</pdfrwt>
<totfact> 0.29941058E+03</totfact>
</mgrwt>
</event>
<event>
 5    0  0.1972558E-002  0.2350132E+03  0.7546771E-02  0.1123160E+00
         21   -1    0    0  501  502  0.00000000000E+00  0.00000000000E+00  0.27280091453E+03  0.27280091453E+03  0.00000000000E+00 0.  1.
         21   -1    0    0  502  503 -0.00000000000E+00 -0.00000000000E+00 -0.29053780175E+03  0.29053780175E+03  0.00000000000E+00 0. -1.
         25    1    1    2    0    0  0.55852506180E+02  0.21231677613E+03 -0.98541510577E+02  0.27117032504E+03  0.12500000000E+03 0.  0.
          3    1    1    2  501    0  0.36261661135E+02 -0.17672432198E+03  0.67052050572E+02  0.19246394866E+03  0.00000000000E+00 0.  1.
         -3    1    1    2    0  503 -0.92114167315E+02 -0.35592454154E+02  0.13752572790E+02  0.99704442585E+02  0.00000000000E+00 0. -1.
<mgrwt>
<rscale>  4 0.23501319E+03</rscale>
<asrwt>0</asrwt>
<pdfrwt beam="1">  1       21 0.41969371E-01 0.23501319E+03</pdfrwt>
<pdfrwt beam="2">  1       21 0.44698123E-01 0.23501319E+03</pdfrwt>
<totfact> 0.25665790E+04</totfact>
</mgrwt>
</event>
<event>
 5    0  0.1972558E-002  0.2690037E+03  0.7546771E-02  0.1101851E+00
         21   -1    0    0  501  502  0.00000000000E+00  0.00000000000E+00  0.15363369439E+03  0.15363369439E+03  0.00000000000E+00 0. -1.
         21   -1    0    0  502  503 -0.00000000000E+00 -0.00000000000E+00 -0.72338428628E+03  0.72338428628E+03  0.00000000000E+00 0. -1.
         25    1    1    2    0    0  0.23723530901E+03 -0.55543282291E+02 -0.52939754913E+03  0.59603054710E+03  0.12500000000E+03 0.  0.
          1    1    1    2  501    0 -0.21651888583E+03  0.62038947095E+02 -0.77305512180E+02  0.23812895895E+03  0.00000000000E+00 0. -1.
         -1    1    1    2    0  503 -0.20716423185E+02 -0.64956648036E+01  0.36952469419E+02  0.42858474622E+02  0.00000000000E+00 0.  1.
<mgrwt>
<rscale>  4 0.26900371E+03</rscale>
<asrwt>0</asrwt>
<pdfrwt beam="1">  1       21 0.23635952E-01 0.26900371E+03</pdfrwt>
<pdfrwt beam="2">  1       21 0.11128989E+00 0.26900371E+03</pdfrwt>
<totfact> 0.10207556E+04</totfact>
</mgrwt>
</event>
<event>
 5    0  0.1972558E-002  0.3081951E+03  0.7546771E-02  0.1086839E+00
         21   -1    0    0  501  502  0.00000000000E+00  0.00000000000E+00  0.13256235765E+04  0.13256235765E+04  0.00000000000E+00 0. -1.
         21   -1    0    0  502  503 -0.00000000000E+00 -0.00000000000E+00 -0.16657808656E+03  0.16657808656E+03  0.00000000000E+00 0. -1.
         25    1    1    2    0    0  0.65871260236E+02 -0.22438773103E+03  0.39645710643E+03  0.47696133387E+03  0.12500000000E+03 0.  0.
          3    1    1    2  501    0  0.28123321009E+03  0.10534921516E+03  0.29632231930E+03  0.42189749052E+03  0.00000000000E+00 0.  1.
         -3    1    1    2    0  503 -0.34710447033E+03  0.11903851587E+03  0.46626606425E+03  0.59334283872E+03  0.00000000000E+00 0. -1.
<mgrwt>
<rscale>  4 0.29682428E+03</rscale>
<asrwt>0</asrwt>
<pdfrwt beam="1">  1       21 0.20394208E+00 0.30819510E+03</pdfrwt>
<pdfrwt beam="2">  1       21 0.25627399E-01 0.30819510E+03</pdfrwt>
<totfact> 0.16604291E+03</totfact>
</mgrwt>
</event>
<event>
 5    0  0.1972558E-002  0.2403340E+03  0.7546771E-02  0.1119571E+00
         21   -1    0    0  501  502  0.00000000000E+00  0.00000000000E+00  0.16946885152E+03  0.16946885152E+03  0.00000000000E+00 0. -1.
         21   -1    0    0  502  503 -0.00000000000E+00 -0.00000000000E+00 -0.75480208353E+03  0.75480208353E+03  0.00000000000E+00 0. -1.
         25    1    1    2    0    0  0.25542110213E+02  0.20811797702E+03 -0.62358508853E+03  0.66966323954E+03  0.12500000000E+03 0.  0.
          3    1    1    2  501    0 -0.16297940631E+02 -0.18853977799E+03 -0.22062946511E+02  0.19052465552E+03  0.00000000000E+00 0. -1.
         -3    1    1    2    0  503 -0.92441695825E+01 -0.19578199029E+02  0.60314803039E+02  0.64083039988E+02  0.00000000000E+00 0.  1.
<mgrwt>
<rscale>  4 0.24033403E+03</rscale>
<asrwt>0</asrwt>
<pdfrwt beam="1">  1       21 0.26072131E-01 0.24033403E+03</pdfrwt>
<pdfrwt beam="2">  1       21 0.11612340E+00 0.24033403E+03</pdfrwt>
<totfact> 0.77425487E+03</totfact>
</mgrwt>
</event>
<event>
 5    0  0.1972558E-002  0.2307443E+03  0.7546771E-02  0.1126117E+00
         21   -1    0    0  501  502  0.00000000000E+00  0.00000000000E+00  0.23573857184E+04  0.23573857184E+04  0.00000000000E+00 0.  1.
         21   -1    0    0  502  503 -0.00000000000E+00 -0.00000000000E+00 -0.33440793627E+02  0.33440793627E+02  0.00000000000E+00 0.  1.
         25    1    1    2    0    0 -0.48894184569E+02 -0.20339782623E+03  0.56232517515E+03  0.61285880887E+03  0.12500000000E+03 0.  0.
          3    1    1    2  501    0  0.18985899487E+01  0.40276977136E+02  0.83194774079E+03  0.83292429604E+03  0.00000000000E+00 0. -1.
         -3    1    1    2    0  503  0.46995594620E+02  0.16312084910E+03  0.92967200879E+03  0.94504340707E+03  0.00000000000E+00 0.  1.
<mgrwt>
<rscale>  4 0.23074425E+03</rscale>
<asrwt>0</asrwt>
<pdfrwt beam="1">  1       21 0.36267460E+00 0.23074425E+03</pdfrwt>
<pdfrwt beam="2">  1       21 0.51447393E-02 0.23074425E+03</pdfrwt>
<totfact> 0.35956773E+03</totfact>
</mgrwt>
</event>
<event>
 5    0  0.1972558E-002  0.2778874E+03  0.7546771E-02  0.1096848E+00
         21   -1    0    0  503  502  0.00000000000E+00  0.00000000000E+00  0.94625988747E+02  0.94625988747E+02  0.00000000000E+00 0. -1.
         21   -1    0    0  501  503 -0.00000000000E+00 -0.00000000000E+00 -0.13249829682E+04  0.13249829682E+04  0.00000000000E+00 0. -1.
         25    1    1    2    0    0 -0.24091329309E+03  0.59642376634E+02 -0.10610636111E+04  0.10968488568E+04  0.12500000000E+03 0.  0.
          1    1    1    2  501    0  0.12040035387E+03 -0.44676604500E+02 -0.15375433876E+03  0.20033132778E+03  0.00000000000E+00 0.  1.
         -1    1    1    2    0  502  0.12051293923E+03 -0.14965772134E+02 -0.15539029572E+02  0.12242877234E+03  0.00000000000E+00 0. -1.
<mgrwt>
<rscale>  4 0.27788744E+03</rscale>
<asrwt>0</asrwt>
<pdfrwt beam="1">  1       21 0.14557844E-01 0.27788744E+03</pdfrwt>
<pdfrwt beam="2">  1       21 0.20384354E+00 0.27788744E+03</pdfrwt>
<totfact> 0.49138869E+03</totfact>
</mgrwt>
</event>
<event>
 5    0  0.1972558E-002  0.2477121E+03  0.7546771E-02  0.1114759E+00
         21   -1    0    0  501  502  0.00000000000E+00  0.00000000000E+00  0.88860832495E+02  0.88860832495E+02  0.00000000000E+00 0.  1.
         21   -1    0    0  502  503 -0.00000000000E+00 -0.00000000000E+00 -0.11335189532E+04  0.11335189532E+04  0.00000000000E+00 0.  1.
         25    1    1    2    0    0  0.64323822195E+02  0.21016721200E+03 -0.91483463731E+03  0.94913393403E+03  0.12500000000E+03 0.  0.
          3    1    1    2  501    0 -0.26515505986E+02 -0.19207709148E+03 -0.84494087281E+02  0.21150870411E+03  0.00000000000E+00 0.  1.
         -3    1    1    2    0  503 -0.37808316210E+02 -0.18090120520E+02 -0.45329396063E+02  0.61737147509E+02  0.00000000000E+00 0. -1.
<mgrwt>
<rscale>  4 0.24771205E+03</rscale>
<asrwt>0</asrwt>
<pdfrwt beam="1">  1       21 0.13670898E-01 0.24771205E+03</pdfrwt>
<pdfrwt beam="2">  1       21 0.17438752E+00 0.24771205E+03</pdfrwt>
<totfact> 0.88661067E+03</totfact>
</mgrwt>
</event>
<event>
 5    0  0.1972558E-002  0.3654936E+03  0.7546771E-02  0.1056430E+00
         21   -1    0    0  501  502  0.00000000000E+00  0.00000000000E+00  0.33029481236E+04  0.33029481236E+04  0.00000000000E+00 0. -1.
         21   -1    0    0  502  503 -0.00000000000E+00 -0.00000000000E+00 -0.17396963676E+03  0.17396963676E+03  0.00000000000E+00 0. -1.
         25    1    1    2    0    0  0.31103916485E+03 -0.15457626168E+03  0.47552999907E+02  0.37219010001E+03  0.12500000000E+03 0.  0.
          2    1    1    2  501    0 -0.25567485939E+03  0.13680367962E+03  0.28939601925E+04  0.29084515599E+04  0.00000000000E+00 0. -1.
         -2    1    1    2    0  503 -0.55364305458E+02  0.17772582058E+02  0.18746529445E+03  0.19627610047E+03  0.00000000000E+00 0.  1.
<mgrwt>
<rscale>  4 0.36549357E+03</rscale>
<asrwt>0</asrwt>
<pdfrwt beam="1">  1       21 0.50814582E+00 0.36549357E+03</pdfrwt>
<pdfrwt beam="2">  1       21 0.26764562E-01 0.36549357E+03</pdfrwt>
<totfact> 0.17238021E+01</totfact>
</mgrwt>
</event>
<event>
 5    0  0.1972558E-002  0.1867618E+03  0.7546771E-02  0.1161415E+00
         21   -1    0    0  501  502  0.00000000000E+00  0.00000000000E+00  0.20523893272E+04  0.20523893272E+04  0.00000000000E+00 0.  1.
         21   -1    0    0  502  503 -0.00000000000E+00 -0.00000000000E+00 -0.58444322483E+02  0.58444322483E+02  0.00000000000E+00 0. -1.
         25    1    1    2    0    0  0.21829778416E+03 -0.94983090801E+02  0.47994882990E+03  0.55013779131E+03  0.12500000000E+03 0.  0.
          4    1    1    2  501    0 -0.13003096686E+03 -0.21515930667E+01  0.19020389392E+03  0.23041311368E+03  0.00000000000E+00 0. -1.
         -4    1    1    2    0  503 -0.88266817300E+02  0.97134683867E+02  0.13237922809E+04  0.13302827446E+04  0.00000000000E+00 0.  1.
<mgrwt>
<rscale>  4 0.18676178E+03</rscale>
<asrwt>0</asrwt>
<pdfrwt beam="1">  1       21 0.31575215E+00 0.18676178E+03</pdfrwt>
<pdfrwt beam="2">  1       21 0.89914358E-02 0.18676178E+03</pdfrwt>
<totfact> 0.27305885E+03</totfact>
</mgrwt>
</event>
<event>
 5    0  0.1972558E-002  0.2441255E+03  0.7546771E-02  0.1117075E+00
         21   -1    0    0  501  502  0.00000000000E+00  0.00000000000E+00  0.41934201799E+03  0.41934201799E+03  0.00000000000E+00 0. -1.
         21   -1    0    0  502  503 -0.00000000000E+00 -0.00000000000E+00 -0.16303378270E+03  0.16303378270E+03  0.00000000000E+00 0. -1.
         25    1    1    2    0    0  0.15251272256E+03 -0.15048109608E+03  0.23068536426E+03  0.33874094542E+03  0.12500000000E+03 0.  0.
          1    1    1    2  501    0 -0.11966762523E+03  0.16537183434E+03  0.33129881646E+02  0.20679887132E+03  0.00000000000E+00 0. -1.
         -1    1    1    2    0  503 -0.32845097336E+02 -0.14890738266E+02 -0.75070106203E+01  0.36835983950E+02  0.00000000000E+00 0.  1.
<mgrwt>
<rscale>  4 0.24412554E+03</rscale>
<asrwt>0</asrwt>
<pdfrwt beam="1">  1       21 0.64514156E-01 0.24412554E+03</pdfrwt>
<pdfrwt beam="2">  1       21 0.25082121E-01 0.24412554E+03</pdfrwt>
<totfact> 0.32496611E+04</totfact>
</mgrwt>
</event>
<event>
 5    0  0.1972558E-002  0.2822714E+03  0.7546771E-02  0.1094455E+00
         21   -1    0    0  503  502  0.00000000000E+00  0.00000000000E+00  0.27850929491E+03  0.27850929491E+03  0.00000000000E+00 0. -1.
         21   -1    0    0  501  503 -0.00000000000E+00 -0.00000000000E+00 -0.29545225505E+03  0.29545225505E+03  0.00000000000E+00 0. -1.
         25    1    1    2    0    0  0.24739772016E+03 -0.63398150605E+02 -0.60553052612E+02  0.29071743949E+03  0.12500000000E+03 0.  0.
          4    1    1    2  501    0 -0.97636128590E+01 -0.20843458216E+02 -0.10627591162E+02  0.25351993617E+02  0.00000000000E+00 0.  1.
         -4    1    1    2    0  502 -0.23763410730E+03  0.84241608821E+02  0.54237683635E+02  0.25789211685E+03  0.00000000000E+00 0. -1.
<mgrwt>
<rscale>  4 0.28227141E+03</rscale>
<asrwt>0</asrwt>
<pdfrwt beam="1">  1       21 0.42847584E-01 0.28227141E+03</pdfrwt>
<pdfrwt beam="2">  1       21 0.45454193E-01 0.28227141E+03</pdfrwt>
<totfact> 0.23263211E+04</totfact>
</mgrwt>
</event>
<event>
 5    0  0.1972558E-002  0.2318596E+03  0.7546771E-02  0.1125338E+00
         21   -1    0    0  501  502  0.00000000000E+00  0.00000000000E+00  0.19674327847E+03  0.19674327847E+03  0.00000000000E+00 0. -1.
         21   -1    0    0  502  503 -0.00000000000E+00 -0.00000000000E+00 -0.29867902392E+03  0.29867902392E+03  0.00000000000E+00 0.  1.
         25    1    1    2    0    0  0.17078642088E+03  0.11145472284E+03 -0.13221377045E+03  0.27330502721E+03  0.12500000000E+03 0.  0.
          3    1    1    2  501    0 -0.15832432823E+03 -0.94030961607E+02 -0.10742283610E+01  0.18414550936E+03  0.00000000000E+00 0. -1.
         -3    1    1    2    0  503 -0.12462092651E+02 -0.17423761237E+02  0.31352253358E+02  0.37971765820E+02  0.00000000000E+00 0.  1.
<mgrwt>
<rscale>  4 0.23185964E+03</rscale>
<asrwt>0</asrwt>
<pdfrwt beam="1">  1       21 0.30268197E-01 0.23185964E+03</pdfrwt>
<pdfrwt beam="2">  1       21 0.45950619E-01 0.23185964E+03</pdfrwt>
<totfact> 0.46670822E+04</totfact>
</mgrwt>
</event>
<event>
 5    0  0.1972558E-002  0.2624964E+03  0.7546771E-02  0.1105653E+00
         21   -1    0    0  501  502  0.00000000000E+00  0.00000000000E+00  0.77710628275E+03  0.77710628275E+03  0.00000000000E+00 0.  1.
         21   -1    0    0  502  503 -0.00000000000E+00 -0.00000000000E+00 -0.23372555446E+03  0.23372555446E+03  0.00000000000E+00 0. -1.
         25    1    1    2    0    0  0.94022100137E+02  0.21743537549E+03 -0.12144467209E+03  0.29409540324E+03  0.12500000000E+03 0.  0.
          3    1    1    2  501    0 -0.36649871927E+02 -0.19903173854E+03  0.44600917715E+03  0.48977651247E+03  0.00000000000E+00 0. -1.
         -3    1    1    2    0  503 -0.57372228211E+02 -0.18403636951E+02  0.21881622323E+03  0.22695992151E+03  0.00000000000E+00 0.  1.
<mgrwt>
<rscale>  4 0.26249641E+03</rscale>
<asrwt>0</asrwt>
<pdfrwt beam="1">  1       21 0.11955481E+00 0.26249641E+03</pdfrwt>
<pdfrwt beam="2">  1       21 0.35957778E-01 0.26249641E+03</pdfrwt>
<totfact> 0.37757094E+03</totfact>
</mgrwt>
</event>
<event>
 5    0  0.1972558E-002  0.2712476E+03  0.7546771E-02  0.1100568E+00
         21   -1    0    0  503  502  0.00000000000E+00  0.00000000000E+00  0.11443956392E+03  0.11443956392E+03  0.00000000000E+00 0. -1.
         21   -1    0    0  501  503 -0.00000000000E+00 -0.00000000000E+00 -0.75884030948E+03  0.75884030948E+03  0.00000000000E+00 0. -1.
         25    1    1    2    0    0 -0.12442956666E+03  0.21655506737E+03 -0.47087745338E+03  0.54747547010E+03  0.12500000000E+03 0.  0.
          4    1    1    2  501    0  0.86621615895E+00 -0.24627580081E+02  0.15776390503E+02  0.29260255098E+02  0.00000000000E+00 0.  1.
         -4    1    1    2    0  502  0.12356335050E+03 -0.19192748729E+03 -0.18929968268E+03  0.29654414819E+03  0.00000000000E+00 0. -1.
<mgrwt>
<rscale>  4 0.27124756E+03</rscale>
<asrwt>0</asrwt>
<pdfrwt beam="1">  1       21 0.17606087E-01 0.27124756E+03</pdfrwt>
<pdfrwt beam="2">  1       21 0.11674466E+00 0.27124756E+03</pdfrwt>
<totfact> 0.15796870E+04</totfact>
</mgrwt>
</event>
<event>
 5    0  0.1972558E-002  0.3494362E+03  0.7546771E-02  0.1062847E+00
         21   -1    0    0  501  502  0.00000000000E+00  0.00000000000E+00  0.10545439275E+03  0.10545439275E+03  0.00000000000E+00 0.  1.
         21   -1    0    0  502  503 -0.00000000000E+00 -0.00000000000E+00 -0.24944037083E+04  0.24944037083E+04  0.00000000000E+00 0.  1.
         25    1    1    2    0    0  0.10324695058E+02  0.31966093288E+03 -0.19564592987E+04  0.19863654495E+04  0.12500000000E+03 0.  0.
          4    1    1    2  501    0 -0.14129170865E+02  0.33276434636E+02  0.18656277118E+02  0.40681829449E+02  0.00000000000E+00 0. -1.
         -4    1    1    2    0  503  0.38044758069E+01 -0.35293736751E+03 -0.45114629401E+03  0.57281082219E+03  0.00000000000E+00 0.  1.
<mgrwt>
<rscale>  4 0.34943616E+03</rscale>
<asrwt>0</asrwt>
<pdfrwt beam="1">  1       21 0.16223754E-01 0.34943616E+03</pdfrwt>
<pdfrwt beam="2">  1       21 0.38375438E+00 0.34943616E+03</pdfrwt>
<totfact> 0.30967667E+02</totfact>
</mgrwt>
</event>
<event>
 5    0  0.1972558E-002  0.4297644E+03  0.7546771E-02  0.1033934E+00
         21   -1    0    0  501  502  0.00000000000E+00  0.00000000000E+00  0.16864828181E+04  0.16864828181E+04  0.00000000000E+00 0.  1.
         21   -1    0    0  502  503 -0.00000000000E+00 -0.00000000000E+00 -0.25687933355E+03  0.25687933355E+03  0.00000000000E+00 0. -1.
         25    1    1    2    0    0  0.38010209381E+03  0.15790885909E+03  0.23037524279E+02  0.43077666722E+03  0.12500000000E+03 0.  0.
          4    1    1    2  501    0 -0.26201272443E+02  0.55491661583E+02  0.62930503824E+03  0.63229001442E+03  0.00000000000E+00 0.  1.
         -4    1    1    2    0  503 -0.35390082137E+03 -0.21340052067E+03  0.77726092205E+03  0.88029547002E+03  0.00000000000E+00 0. -1.
<mgrwt>
<rscale>  4 0.42976438E+03</rscale>
<asrwt>0</asrwt>
<pdfrwt beam="1">  1       21 0.25945889E+00 0.42976438E+03</pdfrwt>
<pdfrwt beam="2">  1       21 0.39519899E-01 0.42976438E+03</pdfrwt>
<totfact> 0.29226026E+02</totfact>
</mgrwt>
</event>
<event>
 5    0  0.1972558E-002  0.2446077E+03  0.7546771E-02  0.1116761E+00
         21   -1    0    0  503  502  0.00000000000E+00  0.00000000000E+00  0.11316345556E+04  0.11316345556E+04  0.00000000000E+00 0.  1.
         21   -1    0    0  501  503 -0.00000000000E+00 -0.00000000000E+00 -0.24598229219E+03  0.24598229219E+03  0.00000000000E+00 0. -1.
         25    1    1    2    0    0 -0.47342128209E+00 -0.21025626690E+03 -0.17036160050E+03  0.29808723022E+03  0.12500000000E+03 0.  0.
          2    1    1    2  501    0  0.36350884643E+02  0.10814618291E+03  0.47394881059E+03  0.48748790626E+03  0.00000000000E+00 0.  1.
         -2    1    1    2    0  502 -0.35877463361E+02  0.10211008399E+03  0.58206505333E+03  0.59204171132E+03  0.00000000000E+00 0. -1.
<mgrwt>
<rscale>  4 0.24460769E+03</rscale>
<asrwt>0</asrwt>
<pdfrwt beam="1">  1       21 0.17409762E+00 0.24460769E+03</pdfrwt>
<pdfrwt beam="2">  1       21 0.37843430E-01 0.24460769E+03</pdfrwt>
<totfact> 0.12807524E+03</totfact>
</mgrwt>
</event>
<event>
 5    0  0.1972558E-002  0.2651179E+03  0.7546771E-02  0.1104107E+00
         21   -1    0    0  501  502  0.00000000000E+00  0.00000000000E+00  0.18895440181E+04  0.18895440181E+04  0.00000000000E+00 0. -1.
         21   -1    0    0  502  503 -0.00000000000E+00 -0.00000000000E+00 -0.13298823562E+03  0.13298823562E+03  0.00000000000E+00 0. -1.
         25    1    1    2    0    0  0.23326817296E+03  0.34557630552E+02  0.34074291885E+02  0.26906194029E+03  0.12500000000E+03 0.  0.
          1    1    1    2  501    0 -0.21430332189E+03 -0.69362682045E+02  0.82742785486E+03  0.85753947456E+03  0.00000000000E+00 0. -1.
         -1    1    1    2    0  503 -0.18964851073E+02  0.34805051493E+02  0.89505363570E+03  0.89593083882E+03  0.00000000000E+00 0.  1.
<mgrwt>
<rscale>  4 0.26511793E+03</rscale>
<asrwt>0</asrwt>
<pdfrwt beam="1">  1       21 0.29069906E+00 0.26511793E+03</pdfrwt>
<pdfrwt beam="2">  1       21 0.20459730E-01 0.26511793E+03</pdfrwt>
<totfact> 0.78558617E+02</totfact>
</mgrwt>
</event>
<event>
 5    0  0.1972558E-002  0.3305578E+03  0.7546771E-02  0.1070890E+00
         21   -1    0    0  501  502  0.00000000000E+00  0.00000000000E+00  0.17220069665E+03  0.17220069665E+03  0.00000000000E+00 0. -1.
         21   -1    0    0  502  503 -0.00000000000E+00 -0.00000000000E+00 -0.13145166938E+04  0.13145166938E+04  0.00000000000E+00 0. -1.
         25    1    1    2    0    0  0.19744353158E+03 -0.23594635563E+03 -0.10305828024E+04  0.10827652301E+04  0.12500000000E+03 0.  0.
          1    1    1    2  501    0 -0.14313812404E+03  0.26936494000E+03 -0.13824059519E+03  0.33489767932E+03  0.00000000000E+00 0. -1.
         -1    1    1    2    0  503 -0.54305407536E+02 -0.33418584366E+02  0.26507400458E+02  0.69054481011E+02  0.00000000000E+00 0.  1.
<mgrwt>
<rscale>  4 0.33055781E+03</rscale>
<asrwt>0</asrwt>
<pdfrwt beam="1">  1       21 0.26492416E-01 0.33055781E+03</pdfrwt>
<pdfrwt beam="2">  1       21 0.20223333E+00 0.33055781E+03</pdfrwt>
<totfact> 0.15744806E+03</totfact>
</mgrwt>
</event>
<event>
 5    0  0.1972558E-002  0.2863097E+03  0.7546771E-02  0.1092292E+00
         21   -1    0    0  501  502  0.00000000000E+00  0.00000000000E+00  0.20452280575E+04  0.20452280575E+04  0.00000000000E+00 0.  1.
         21   -1    0    0  502  503 -0.00000000000E+00 -0.00000000000E+00 -0.42198991807E+03  0.42198991807E+03  0.00000000000E+00 0. -1.
         25    1    1    2    0    0 -0.21066549146E+03  0.11705575013E+03 -0.93758526681E+02  0.28722405758E+03  0.12500000000E+03 0.  0.
          2    1    1    2  501    0 -0.12177115597E+02  0.38708640913E+02  0.18683697747E+04  0.18688103852E+04  0.00000000000E+00 0.  1.
         -2    1    1    2    0  503  0.22284260705E+03 -0.15576439104E+03 -0.15137310859E+03  0.31118353272E+03  0.00000000000E+00 0. -1.
<mgrwt>
<rscale>  4 0.28630969E+03</rscale>
<asrwt>0</asrwt>
<pdfrwt beam="1">  1       21 0.31465046E+00 0.28630969E+03</pdfrwt>
<pdfrwt beam="2">  1       21 0.64921527E-01 0.28630969E+03</pdfrwt>
<totfact> 0.53768128E+01</totfact>
</mgrwt>
</event>
<event>
 5    0  0.1972558E-002  0.2865185E+03  0.7546771E-02  0.1092181E+00
         21   -1    0    0  501  502  0.00000000000E+00  0.00000000000E+00  0.64153376123E+03  0.64153376123E+03  0.00000000000E+00 0.  1.
         21   -1    0    0  502  503 -0.00000000000E+00 -0.00000000000E+00 -0.36882849643E+03  0.36882849643E+03  0.00000000000E+00 0. -1.
         25    1    1    2    0    0  0.25452949079E+03  0.29555829889E+02 -0.25159717876E+03  0.38024327624E+03  0.12500000000E+03 0.  0.
          1    1    1    2  501    0 -0.26624782278E+03 -0.13264268756E+02  0.28599970237E+03  0.39097272759E+03  0.00000000000E+00 0. -1.
         -1    1    1    2    0  503  0.11718331993E+02 -0.16291561133E+02  0.23830274118E+03  0.23914625384E+03  0.00000000000E+00 0.  1.
<mgrwt>
<rscale>  4 0.28651854E+03</rscale>
<asrwt>0</asrwt>
<pdfrwt beam="1">  1       21 0.98697502E-01 0.28651854E+03</pdfrwt>
<pdfrwt beam="2">  1       21 0.56742845E-01 0.28651854E+03</pdfrwt>
<totfact> 0.23064008E+03</totfact>
</mgrwt>
</event>
<event>
 5    0  0.1972558E-002  0.2840765E+03  0.7546771E-02  0.1093483E+00
         21   -1    0    0  501  502  0.00000000000E+00  0.00000000000E+00  0.53408807050E+03  0.53408807050E+03  0.00000000000E+00 0.  1.
         21   -1    0    0  502  503 -0.00000000000E+00 -0.00000000000E+00 -0.59990308596E+03  0.59990308596E+03  0.00000000000E+00 0.  1.
         25    1    1    2    0    0  0.19500194904E+03  0.20112455754E+03 -0.49160385971E+03  0.57946199415E+03  0.12500000000E+03 0.  0.
          2    1    1    2  501    0 -0.97011813461E+02 -0.14824030931E+03  0.85945631993E+02  0.19690894574E+03  0.00000000000E+00 0. -1.
         -2    1    1    2    0  503 -0.97990135576E+02 -0.52884248230E+02  0.33984321226E+03  0.35762021657E+03  0.00000000000E+00 0.  1.
<mgrwt>
<rscale>  4 0.28407649E+03</rscale>
<asrwt>0</asrwt>
<pdfrwt beam="1">  1       21 0.82167396E-01 0.28407649E+03</pdfrwt>
<pdfrwt beam="2">  1       21 0.92292782E-01 0.28407649E+03</pdfrwt>
<totfact> 0.11908639E+03</totfact>
</mgrwt>
</event>
<event>
 5    0  0.1972558E-002  0.2839347E+03  0.7546771E-02  0.1093559E+00
         21   -1    0    0  501  502  0.00000000000E+00  0.00000000000E+00  0.75752224815E+03  0.75752224815E+03  0.00000000000E+00 0.  1.
         21   -1    0    0  502  503 -0.00000000000E+00 -0.00000000000E+00 -0.20878070277E+03  0.20878070277E+03  0.00000000000E+00 0. -1.
         25    1    1    2    0    0  0.11220320521E+03 -0.21006316619E+03 -0.22119081910E+02  0.26987098183E+03  0.12500000000E+03 0.  0.
          3    1    1    2  501    0 -0.10591320768E+03  0.23533233462E+03  0.60250702060E+03  0.65544917816E+03  0.00000000000E+00 0.  1.
         -3    1    1    2    0  503 -0.62899975312E+01 -0.25269168438E+02 -0.31646393308E+02  0.40982790924E+02  0.00000000000E+00 0. -1.
<mgrwt>
<rscale>  4 0.28393475E+03</rscale>
<asrwt>0</asrwt>
<pdfrwt beam="1">  1       21 0.11654188E+00 0.28393475E+03</pdfrwt>
<pdfrwt beam="2">  1       21 0.32120108E-01 0.28393475E+03</pdfrwt>
<totfact> 0.49746886E+03</totfact>
</mgrwt>
</event>
<event>
 5    0  0.1972558E-002  0.2737320E+03  0.7546771E-02  0.1099163E+00
         21   -1    0    0  501  502  0.00000000000E+00  0.00000000000E+00  0.28116953027E+03  0.28116953027E+03  0.00000000000E+00 0.  1.
         21   -1    0    0  502  503 -0.00000000000E+00 -0.00000000000E+00 -0.41252086228E+03  0.41252086228E+03  0.00000000000E+00 0. -1.
         25    1    1    2    0    0  0.30993212085E+02 -0.21854357661E+03 -0.16897441713E+03  0.30479374619E+03  0.12500000000E+03 0.  0.
          1    1    1    2  501    0 -0.20883898525E+02  0.30155361122E+03  0.41889029557E+02  0.30516455963E+03  0.00000000000E+00 0.  1.
         -1    1    1    2    0  503 -0.10109313560E+02 -0.83010034609E+02 -0.42659444429E+01  0.83732086732E+02  0.00000000000E+00 0. -1.
<mgrwt>
<rscale>  4 0.27373197E+03</rscale>
<asrwt>0</asrwt>
<pdfrwt beam="1">  1       21 0.43256851E-01 0.27373197E+03</pdfrwt>
<pdfrwt beam="2">  1       21 0.63464748E-01 0.27373197E+03</pdfrwt>
<totfact> 0.11252582E+04</totfact>
</mgrwt>
</event>
<event>
 5    0  0.1972558E-002  0.3333997E+03  0.7546771E-02  0.1069642E+00
         21   -1    0    0  501  502  0.00000000000E+00  0.00000000000E+00  0.17556673592E+04  0.17556673592E+04  0.00000000000E+00 0.  1.
         21   -1    0    0  502  503 -0.00000000000E+00 -0.00000000000E+00 -0.41194910230E+03  0.41194910230E+03  0.00000000000E+00 0.  1.
         25    1    1    2    0    0  0.28920653947E+03  0.32759774950E+02 -0.22194748793E+03  0.38678070366E+03  0.12500000000E+03 0.  0.
          2    1    1    2  501    0  0.11324667797E+03 -0.89724084388E+02  0.12700461819E+04  0.12782380551E+04  0.00000000000E+00 0.  1.
         -2    1    1    2    0  503 -0.40245321744E+03  0.56964309439E+02  0.29561956285E+03  0.50259770266E+03  0.00000000000E+00 0. -1.
<mgrwt>
<rscale>  4 0.33339971E+03</rscale>
<asrwt>0</asrwt>
<pdfrwt beam="1">  1       21 0.27010267E+00 0.33339971E+03</pdfrwt>
<pdfrwt beam="2">  1       21 0.63376786E-01 0.33339971E+03</pdfrwt>
<totfact> 0.99191529E+01</totfact>
</mgrwt>
</event>
<event>
 5    0  0.1972558E-002  0.2829851E+03  0.7546771E-02  0.1094070E+00
         21   -1    0    0  501  502  0.00000000000E+00  0.00000000000E+00  0.42257281099E+03  0.42257281099E+03  0.00000000000E+00 0. -1.
         21   -1    0    0  502  503 -0.00000000000E+00 -0.00000000000E+00 -0.70924876721E+03  0.70924876721E+03  0.00000000000E+00 0. -1.
         25    1    1    2    0    0  0.56321617231E+02 -0.25180735870E+03 -0.58400332235E+03  0.65058738920E+03  0.12500000000E+03 0.  0.
          1    1    1    2  501    0 -0.29797096595E+02  0.23380114872E+03  0.61969346486E+02  0.24370277802E+03  0.00000000000E+00 0.  1.
         -1    1    1    2    0  503 -0.26524520636E+02  0.18006209972E+02  0.23535801965E+03  0.23753141099E+03  0.00000000000E+00 0. -1.
<mgrwt>
<rscale>  4 0.28298505E+03</rscale>
<asrwt>0</asrwt>
<pdfrwt beam="1">  1       21 0.65011203E-01 0.28298505E+03</pdfrwt>
<pdfrwt beam="2">  1       21 0.10911519E+00 0.28298505E+03</pdfrwt>
<totfact> 0.13488479E+03</totfact>
</mgrwt>
</event>
<event>
 5    0  0.1972558E-002  0.2477222E+03  0.7546771E-02  0.1114753E+00
         21   -1    0    0  501  502  0.00000000000E+00  0.00000000000E+00  0.27659500337E+04  0.27659500337E+04  0.00000000000E+00 0. -1.
         21   -1    0    0  502  503 -0.00000000000E+00 -0.00000000000E+00 -0.70546538146E+02  0.70546538146E+02  0.00000000000E+00 0.  1.
         25    1    1    2    0    0  0.15938786924E+03 -0.13211085943E+03  0.13728496575E+04  0.13939867123E+04  0.12500000000E+03 0.  0.
          1    1    1    2  501    0  0.77997533513E+02  0.10255891824E+03  0.35829176786E+02  0.13373734278E+03  0.00000000000E+00 0.  1.
         -1    1    1    2    0  503 -0.23738540276E+03  0.29551941194E+02  0.12867246613E+04  0.13087725168E+04  0.00000000000E+00 0. -1.
<mgrwt>
<rscale>  4 0.24772224E+03</rscale>
<asrwt>0</asrwt>
<pdfrwt beam="1">  1       21 0.42553069E+00 0.24772224E+03</pdfrwt>
<pdfrwt beam="2">  1       21 0.10853316E-01 0.24772224E+03</pdfrwt>
<totfact> 0.38876500E+02</totfact>
</mgrwt>
</event>
<event>
 5    0  0.1972558E-002  0.2910988E+03  0.7546771E-02  0.1089777E+00
         21   -1    0    0  501  502  0.00000000000E+00  0.00000000000E+00  0.27653927886E+03  0.27653927886E+03  0.00000000000E+00 0.  1.
         21   -1    0    0  502  503 -0.00000000000E+00 -0.00000000000E+00 -0.11581852226E+04  0.11581852226E+04  0.00000000000E+00 0. -1.
         25    1    1    2    0    0  0.76158801568E+02  0.27332592280E+03 -0.99511597851E+03  0.10422993974E+04  0.12500000000E+03 0.  0.
          1    1    1    2  501    0 -0.35920434002E+02 -0.80767973211E+02  0.16665338815E+03  0.18864542099E+03  0.00000000000E+00 0.  1.
         -1    1    1    2    0  503 -0.40238367566E+02 -0.19255794958E+03 -0.53183353439E+02  0.20377968313E+03  0.00000000000E+00 0. -1.
<mgrwt>
<rscale>  4 0.29109883E+03</rscale>
<asrwt>0</asrwt>
<pdfrwt beam="1">  1       21 0.42544505E-01 0.29109883E+03</pdfrwt>
<pdfrwt beam="2">  1       21 0.17818234E+00 0.29109883E+03</pdfrwt>
<totfact> 0.91107627E+02</totfact>
</mgrwt>
</event>
<event>
 5    0  0.1972558E-002  0.2754287E+03  0.7546771E-02  0.1098212E+00
         21   -1    0    0  501  502  0.00000000000E+00  0.00000000000E+00  0.67286689091E+03  0.67286689091E+03  0.00000000000E+00 0. -1.
         21   -1    0    0  502  503 -0.00000000000E+00 -0.00000000000E+00 -0.29773041653E+03  0.29773041653E+03  0.00000000000E+00 0.  1.
         25    1    1    2    0    0 -0.95527569454E+02  0.26740476996E+03  0.40384318221E+02  0.31286853578E+03  0.12500000000E+03 0.  0.
          2    1    1    2  501    0  0.11759137871E+02 -0.55621430378E+02  0.41301434540E+03  0.41690870745E+03  0.00000000000E+00 0. -1.
         -2    1    1    2    0  503  0.83768431583E+02 -0.21178333959E+03 -0.78262189246E+02  0.24082006420E+03  0.00000000000E+00 0.  1.
<mgrwt>
<rscale>  4 0.27542868E+03</rscale>
<asrwt>0</asrwt>
<pdfrwt beam="1">  1       21 0.10351798E+00 0.27542868E+03</pdfrwt>
<pdfrwt beam="2">  1       21 0.45804680E-01 0.27542868E+03</pdfrwt>
<totfact> 0.32533074E+03</totfact>
</mgrwt>
</event>
<event>
 5    0  0.1972558E-002  0.3237115E+03  0.7546771E-02  0.1073954E+00
         21   -1    0    0  501  502  0.00000000000E+00  0.00000000000E+00  0.26952700037E+03  0.26952700037E+03  0.00000000000E+00 0.  1.
         21   -1    0    0  502  503 -0.00000000000E+00 -0.00000000000E+00 -0.10107968491E+04  0.10107968491E+04  0.00000000000E+00 0.  1.
         25    1    1    2    0    0  0.30433498602E+03  0.11030393013E+02 -0.72258799449E+03  0.79404021502E+03  0.12500000000E+03 0.  0.
          3    1    1    2  501    0 -0.18996951174E+02 -0.12246337004E+02  0.15207947286E+03  0.15374987151E+03  0.00000000000E+00 0.  1.
         -3    1    1    2    0  503 -0.28533803485E+03  0.12159439910E+01 -0.17076132707E+03  0.33253376291E+03  0.00000000000E+00 0. -1.
<mgrwt>
<rscale>  4 0.32371153E+03</rscale>
<asrwt>0</asrwt>
<pdfrwt beam="1">  1       21 0.41465693E-01 0.32371153E+03</pdfrwt>
<pdfrwt beam="2">  1       21 0.15550721E+00 0.32371153E+03</pdfrwt>
<totfact> 0.13740453E+03</totfact>
</mgrwt>
</event>
<event>
 5    0  0.1972558E-002  0.2596731E+03  0.7546771E-02  0.1107340E+00
         21   -1    0    0  501  502  0.00000000000E+00  0.00000000000E+00  0.15961953059E+03  0.15961953059E+03  0.00000000000E+00 0. -1.
         21   -1    0    0  502  503 -0.00000000000E+00 -0.00000000000E+00 -0.11495424671E+04  0.11495424671E+04  0.00000000000E+00 0. -1.
         25    1    1    2    0    0 -0.57484641219E+02 -0.23246271676E+03 -0.89308538663E+03  0.93304335723E+03  0.12500000000E+03 0.  0.
          2    1    1    2  501    0  0.16847535064E+01  0.38585878966E+02  0.92002828615E+02  0.99780904601E+02  0.00000000000E+00 0.  1.
         -2    1    1    2    0  503  0.55799887713E+02  0.19387683780E+03 -0.18884037848E+03  0.27633773584E+03  0.00000000000E+00 0. -1.
<mgrwt>
<rscale>  4 0.25967313E+03</rscale>
<asrwt>0</asrwt>
<pdfrwt beam="1">  1       21 0.24556850E-01 0.25967313E+03</pdfrwt>
<pdfrwt beam="2">  1       21 0.17685269E+00 0.25967313E+03</pdfrwt>
<totfact> 0.28336561E+03</totfact>
</mgrwt>
</event>
<event>
 5    0  0.1972558E-002  0.2488579E+03  0.7546771E-02  0.1114029E+00
         21   -1    0    0  501  502  0.00000000000E+00  0.00000000000E+00  0.48031083312E+03  0.48031083312E+03  0.00000000000E+00 0.  1.
         21   -1    0    0  502  503 -0.00000000000E+00 -0.00000000000E+00 -0.92586620104E+03  0.92586620104E+03  0.00000000000E+00 0.  1.
         25    1    1    2    0    0 -0.39730036340E+02 -0.21148705618E+03 -0.88192919344E+03  0.91636747703E+03  0.12500000000E+03 0.  0.
          1    1    1    2  501    0  0.38240186875E+02  0.18982956116E+03  0.34243119458E+03  0.39339127748E+03  0.00000000000E+00 0.  1.
         -1    1    1    2    0  503  0.14898494652E+01  0.21657495016E+02  0.93942630943E+02  0.96418279648E+02  0.00000000000E+00 0. -1.
<mgrwt>
<rscale>  4 0.24885789E+03</rscale>
<asrwt>0</asrwt>
<pdfrwt beam="1">  1       21 0.73893975E-01 0.24885789E+03</pdfrwt>
<pdfrwt beam="2">  1       21 0.14244095E+00 0.24885789E+03</pdfrwt>
<totfact> 0.53155511E+02</totfact>
</mgrwt>
</event>
<event>
 5    0  0.1972558E-002  0.2724431E+03  0.7546771E-02  0.1099889E+00
         21   -1    0    0  501  502  0.00000000000E+00  0.00000000000E+00  0.30869796183E+03  0.30869796183E+03  0.00000000000E+00 0.  1.
         21   -1    0    0  502  503 -0.00000000000E+00 -0.00000000000E+00 -0.54544871279E+03  0.54544871279E+03  0.00000000000E+00 0. -1.
         25    1    1    2    0    0  0.22979511298E+03 -0.81886656911E+02 -0.43857567046E+03  0.51718936305E+03  0.12500000000E+03 0.  0.
          3    1    1    2  501    0 -0.18612228271E+02 -0.16527990622E+02  0.58092602378E+02  0.63200790867E+02  0.00000000000E+00 0. -1.
         -3    1    1    2    0  503 -0.21118288471E+03  0.98414647532E+02  0.14373231713E+03  0.27375652071E+03  0.00000000000E+00 0.  1.
<mgrwt>
<rscale>  4 0.27244306E+03</rscale>
<asrwt>0</asrwt>
<pdfrwt beam="1">  1       21 0.47491994E-01 0.27244306E+03</pdfrwt>
<pdfrwt beam="2">  1       21 0.83915186E-01 0.27244306E+03</pdfrwt>
<totfact> 0.49584774E+03</totfact>
</mgrwt>
</event>
<event>
 5    0  0.1972558E-002  0.6885110E+03  0.7546771E-02  0.9737084E-01
         21   -1    0    0  501  502  0.00000000000E+00  0.00000000000E+00  0.33939092275E+03  0.33939092275E+03  0.00000000000E+00 0. -1.
         21   -1    0    0  502  503 -0.00000000000E+00 -0.00000000000E+00 -0.16611821817E+04  0.16611821817E+04  0.00000000000E+00 0. -1.
         25    1    1    2    0    0  0.67595682670E+03 -0.19208565191E+03 -0.66494577525E+03  0.97549598320E+03  0.12500000000E+03 0.  0.
          3    1    1    2  501    0 -0.63924354021E+03  0.14704616054E+03 -0.69492663087E+03  0.95560342157E+03  0.00000000000E+00 0. -1.
         -3    1    1    2    0  503 -0.36713286490E+02  0.45039491363E+02  0.38081147126E+02  0.69473699725E+02  0.00000000000E+00 0.  1.
<mgrwt>
<rscale>  4 0.68851097E+03</rscale>
<asrwt>0</asrwt>
<pdfrwt beam="1">  1       21 0.52213988E-01 0.68851097E+03</pdfrwt>
<pdfrwt beam="2">  1       21 0.25556649E+00 0.68851097E+03</pdfrwt>
<totfact> 0.15235206E+02</totfact>
</mgrwt>
</event>
<event>
 5    0  0.1972558E-002  0.2922171E+03  0.7546771E-02  0.1089197E+00
         21   -1    0    0  501  502  0.00000000000E+00  0.00000000000E+00  0.52527627727E+03  0.52527627727E+03  0.00000000000E+00 0.  1.
         21   -1    0    0  502  503 -0.00000000000E+00 -0.00000000000E+00 -0.28756890492E+03  0.28756890492E+03  0.00000000000E+00 0.  1.
         25    1    1    2    0    0  0.23271110688E+03  0.21643351554E+03  0.14153597681E+03  0.36966925574E+03  0.12500000000E+03 0.  0.
          3    1    1    2  501    0 -0.10666490415E+03 -0.22442118045E+03 -0.46327987832E+02  0.25276184536E+03  0.00000000000E+00 0.  1.
         -3    1    1    2    0  503 -0.12604620273E+03  0.79876649114E+01  0.14249938338E+03  0.19041408109E+03  0.00000000000E+00 0. -1.
<mgrwt>
<rscale>  4 0.29221706E+03</rscale>
<asrwt>0</asrwt>
<pdfrwt beam="1">  1       21 0.80811735E-01 0.29221706E+03</pdfrwt>
<pdfrwt beam="2">  1       21 0.44241370E-01 0.29221706E+03</pdfrwt>
<totfact> 0.61992353E+03</totfact>
</mgrwt>
</event>
<event>
 5    0  0.1972558E-002  0.2436224E+03  0.7546771E-02  0.1117403E+00
         21   -1    0    0  501  502  0.00000000000E+00  0.00000000000E+00  0.12149040041E+03  0.12149040041E+03  0.00000000000E+00 0.  1.
         21   -1    0    0  502  503 -0.00000000000E+00 -0.00000000000E+00 -0.76089955870E+03  0.76089955870E+03  0.00000000000E+00 0.  1.
         25    1    1    2    0    0  0.18617531400E+03 -0.88593266666E+02 -0.53834328272E+03  0.58987160001E+03  0.12500000000E+03 0.  0.
          3    1    1    2  501    0  0.20302764058E-01 -0.22181501232E+02  0.31497707311E+02  0.38524342629E+02  0.00000000000E+00 0. -1.
         -3    1    1    2    0  503 -0.18619561676E+03  0.11077476790E+03 -0.13256358288E+03  0.25399401648E+03  0.00000000000E+00 0.  1.
<mgrwt>
<rscale>  4 0.24362235E+03</rscale>
<asrwt>0</asrwt>
<pdfrwt beam="1">  1       21 0.18690831E-01 0.24362235E+03</pdfrwt>
<pdfrwt beam="2">  1       21 0.11706147E+00 0.24362235E+03</pdfrwt>
<totfact> 0.14240841E+04</totfact>
</mgrwt>
</event>
<event>
 5    0  0.1972558E-002  0.2653035E+03  0.7546771E-02  0.1103998E+00
         21   -1    0    0  501  502  0.00000000000E+00  0.00000000000E+00  0.14448157074E+04  0.14448157074E+04  0.00000000000E+00 0.  1.
         21   -1    0    0  502  503 -0.00000000000E+00 -0.00000000000E+00 -0.30345502220E+03  0.30345502220E+03  0.00000000000E+00 0. -1.
         25    1    1    2    0    0 -0.19052072171E+03  0.15087644377E+03 -0.13586487019E+03  0.30519847581E+03  0.12500000000E+03 0.  0.
          4    1    1    2  501    0  0.47137500458E+02  0.17289441746E+02  0.12114598548E+04  0.12124998345E+04  0.00000000000E+00 0.  1.
         -4    1    1    2    0  503  0.14338322125E+03 -0.16816588551E+03  0.65765700585E+02  0.23057241934E+03  0.00000000000E+00 0. -1.
<mgrwt>
<rscale>  4 0.26530354E+03</rscale>
<asrwt>0</asrwt>
<pdfrwt beam="1">  1       21 0.22227934E+00 0.26530354E+03</pdfrwt>
<pdfrwt beam="2">  1       21 0.46685389E-01 0.26530354E+03</pdfrwt>
<totfact> 0.39502330E+02</totfact>
</mgrwt>
</event>
<event>
 5    0  0.1972558E-002  0.2362797E+03  0.7546771E-02  0.1122296E+00
         21   -1    0    0  501  502  0.00000000000E+00  0.00000000000E+00  0.14852485421E+04  0.14852485421E+04  0.00000000000E+00 0. -1.
         21   -1    0    0  502  503 -0.00000000000E+00 -0.00000000000E+00 -0.55454081417E+02  0.55454081417E+02  0.00000000000E+00 0. -1.
         25    1    1    2    0    0 -0.12102342053E+03  0.16504060950E+03  0.10831792238E+04  0.11094085370E+04  0.12500000000E+03 0.  0.
          2    1    1    2  501    0  0.14436306823E+03 -0.13860044334E+03  0.20954066283E+03  0.28975518587E+03  0.00000000000E+00 0. -1.
         -2    1    1    2    0  503 -0.23339647699E+02 -0.26440166156E+02  0.13707457402E+03  0.14153890060E+03  0.00000000000E+00 0.  1.
<mgrwt>
<rscale>  4 0.23627969E+03</rscale>
<asrwt>0</asrwt>
<pdfrwt beam="1">  1       21 0.22849975E+00 0.23627969E+03</pdfrwt>
<pdfrwt beam="2">  1       21 0.85313983E-02 0.23627969E+03</pdfrwt>
<totfact> 0.92323278E+03</totfact>
</mgrwt>
</event>
<event>
 5    0  0.1972558E-002  0.3573465E+03  0.7546771E-02  0.1059639E+00
         21   -1    0    0  501  502  0.00000000000E+00  0.00000000000E+00  0.16092882750E+03  0.16092882750E+03  0.00000000000E+00 0.  1.
         21   -1    0    0  502  503 -0.00000000000E+00 -0.00000000000E+00 -0.20650661230E+04  0.20650661230E+04  0.00000000000E+00 0. -1.
         25    1    1    2    0    0  0.12539920298E+03  0.30320881473E+03 -0.14872392946E+04  0.15281250816E+04  0.12500000000E+03 0.  0.
          4    1    1    2  501    0 -0.12807084377E+03 -0.32904943054E+03 -0.49926268212E+03  0.61150543294E+03  0.00000000000E+00 0.  1.
         -4    1    1    2    0  503  0.26716407868E+01  0.25840615804E+02  0.82364681235E+02  0.86364435995E+02  0.00000000000E+00 0. -1.
<mgrwt>
<rscale>  4 0.35734655E+03</rscale>
<asrwt>0</asrwt>
<pdfrwt beam="1">  1       21 0.24758281E-01 0.35734655E+03</pdfrwt>
<pdfrwt beam="2">  1       21 0.31770249E+00 0.35734655E+03</pdfrwt>
<totfact> 0.34880894E+02</totfact>
</mgrwt>
</event>
<event>
 5    0  0.1972558E-002  0.2477947E+03  0.7546771E-02  0.1114707E+00
         21   -1    0    0  501  502  0.00000000000E+00  0.00000000000E+00  0.58507215404E+03  0.58507215404E+03  0.00000000000E+00 0. -1.
         21   -1    0    0  502  503 -0.00000000000E+00 -0.00000000000E+00 -0.26250246712E+03  0.26250246712E+03  0.00000000000E+00 0. -1.
         25    1    1    2    0    0 -0.14884873674E+03  0.15135118135E+03 -0.33467996641E+02  0.24861261699E+03  0.12500000000E+03 0.  0.
          1    1    1    2  501    0  0.10491955028E+03 -0.19291150044E+03 -0.17750559707E+02  0.22031350708E+03  0.00000000000E+00 0.  1.
         -1    1    1    2    0  503  0.43929186468E+02  0.41560319093E+02  0.37378824327E+03  0.37864849710E+03  0.00000000000E+00 0. -1.
<mgrwt>
<rscale>  4 0.24779468E+03</rscale>
<asrwt>0</asrwt>
<pdfrwt beam="1">  1       21 0.90011100E-01 0.24779468E+03</pdfrwt>
<pdfrwt beam="2">  1       21 0.40384995E-01 0.24779468E+03</pdfrwt>
<totfact> 0.59727693E+03</totfact>
</mgrwt>
</event>
<event>
 5    0  0.1972558E-002  0.3179741E+03  0.7546771E-02  0.1076585E+00
         21   -1    0    0  501  502  0.00000000000E+00  0.00000000000E+00  0.12284790015E+04  0.12284790015E+04  0.00000000000E+00 0.  1.
         21   -1    0    0  502  503 -0.00000000000E+00 -0.00000000000E+00 -0.24793572641E+03  0.24793572641E+03  0.00000000000E+00 0. -1.
         25    1    1    2    0    0  0.27348825263E+03 -0.16097740194E+03 -0.68997728623E+02  0.34798740612E+03  0.12500000000E+03 0.  0.
          1    1    1    2  501    0 -0.47839940051E+02  0.11007071762E+03  0.69371851664E+03  0.70402386541E+03  0.00000000000E+00 0.  1.
         -1    1    1    2    0  503 -0.22564831258E+03  0.50906684324E+02  0.35582248707E+03  0.42440345638E+03  0.00000000000E+00 0. -1.
<mgrwt>
<rscale>  4 0.31797407E+03</rscale>
<asrwt>0</asrwt>
<pdfrwt beam="1">  1       21 0.18899677E+00 0.31797407E+03</pdfrwt>
<pdfrwt beam="2">  1       21 0.38143959E-01 0.31797407E+03</pdfrwt>
<totfact> 0.94235068E+02</totfact>
</mgrwt>
</event>
<event>
 5    0  0.1972558E-002  0.2697632E+03  0.7546771E-02  0.1101415E+00
         21   -1    0    0  501  502  0.00000000000E+00  0.00000000000E+00  0.29021096488E+03  0.29021096488E+03  0.00000000000E+00 0. -1.
         21   -1    0    0  502  503 -0.00000000000E+00 -0.00000000000E+00 -0.79915543200E+03  0.79915543200E+03  0.00000000000E+00 0.  1.
         25    1    1    2    0    0  0.21933755201E+03 -0.96295563769E+02 -0.61540487855E+03  0.67210859380E+03  0.12500000000E+03 0.  0.
          1    1    1    2  501    0 -0.18668762399E+03  0.15936680440E+03 -0.45389402976E+02  0.24962020190E+03  0.00000000000E+00 0.  1.
         -1    1    1    2    0  503 -0.32649928016E+02 -0.63071240629E+02  0.15184981440E+03  0.16763760118E+03  0.00000000000E+00 0. -1.
<mgrwt>
<rscale>  4 0.26976319E+03</rscale>
<asrwt>0</asrwt>
<pdfrwt beam="1">  1       21 0.44647842E-01 0.26976319E+03</pdfrwt>
<pdfrwt beam="2">  1       21 0.12294699E+00 0.26976319E+03</pdfrwt>
<totfact> 0.22539948E+03</totfact>
</mgrwt>
</event>
<event>
 5    0  0.1972558E-002  0.2410116E+03  0.7546771E-02  0.1119121E+00
         21   -1    0    0  501  502  0.00000000000E+00  0.00000000000E+00  0.11183619534E+04  0.11183619534E+04  0.00000000000E+00 0. -1.
         21   -1    0    0  502  503 -0.00000000000E+00 -0.00000000000E+00 -0.26855547774E+03  0.26855547774E+03  0.00000000000E+00 0.  1.
         25    1    1    2    0    0  0.19875951575E+03 -0.60104411306E+02 -0.13592906541E+03  0.27788414165E+03  0.12500000000E+03 0.  0.
          3    1    1    2  501    0 -0.19939644232E+03  0.38489407433E+02  0.10608421254E+03  0.22911620598E+03  0.00000000000E+00 0.  1.
         -3    1    1    2    0  503  0.63692656770E+00  0.21615003872E+02  0.87965132854E+03  0.87991708352E+03  0.00000000000E+00 0. -1.
<mgrwt>
<rscale>  4 0.24101160E+03</rscale>
<asrwt>0</asrwt>
<pdfrwt beam="1">  1       21 0.17205568E+00 0.24101160E+03</pdfrwt>
<pdfrwt beam="2">  1       21 0.41316228E-01 0.24101160E+03</pdfrwt>
<totfact> 0.11111889E+03</totfact>
</mgrwt>
</event>
<event>
 5    0  0.1972558E-002  0.2589831E+03  0.7546771E-02  0.1107756E+00
         21   -1    0    0  501  502  0.00000000000E+00  0.00000000000E+00  0.14556625919E+03  0.14556625919E+03  0.00000000000E+00 0. -1.
         21   -1    0    0  502  503 -0.00000000000E+00 -0.00000000000E+00 -0.65225601037E+03  0.65225601037E+03  0.00000000000E+00 0.  1.
         25    1    1    2    0    0  0.23496207280E+03  0.33222718393E+02 -0.41609696051E+03  0.49504808374E+03  0.12500000000E+03 0.  0.
          1    1    1    2  501    0 -0.21020362291E+03  0.37878482919E+02 -0.68749377983E+02  0.22438096961E+03  0.00000000000E+00 0.  1.
         -1    1    1    2    0  503 -0.24758449895E+02 -0.71101201312E+02 -0.21843412684E+02  0.78393216205E+02  0.00000000000E+00 0. -1.
<mgrwt>
<rscale>  4 0.25898307E+03</rscale>
<asrwt>0</asrwt>
<pdfrwt beam="1">  1       21 0.22394809E-01 0.25898307E+03</pdfrwt>
<pdfrwt beam="2">  1       21 0.10034708E+00 0.25898307E+03</pdfrwt>
<totfact> 0.14619185E+04</totfact>
</mgrwt>
</event>
<event>
 5    0  0.1972558E-002  0.2506684E+03  0.7546771E-02  0.1112883E+00
         21   -1    0    0  501  502  0.00000000000E+00  0.00000000000E+00  0.65519585521E+03  0.65519585521E+03  0.00000000000E+00 0.  1.
         21   -1    0    0  502  503 -0.00000000000E+00 -0.00000000000E+00 -0.12830099235E+04  0.12830099235E+04  0.00000000000E+00 0. -1.
         25    1    1    2    0    0 -0.20223335473E+03  0.11795867587E+02 -0.93905098658E+03  0.96875137556E+03  0.12500000000E+03 0.  0.
          4    1    1    2  501    0 -0.70947367476E+02  0.75699667888E+02  0.57227831318E+03  0.58160677129E+03  0.00000000000E+00 0.  1.
         -4    1    1    2    0  503  0.27318072220E+03 -0.87495535475E+02 -0.26104139491E+03  0.38784763190E+03  0.00000000000E+00 0. -1.
<mgrwt>
<rscale>  4 0.25066842E+03</rscale>
<asrwt>0</asrwt>
<pdfrwt beam="1">  1       21 0.10079936E+00 0.25066842E+03</pdfrwt>
<pdfrwt beam="2">  1       21 0.19738614E+00 0.25066842E+03</pdfrwt>
<totfact> 0.10451219E+02</totfact>
</mgrwt>
</event>
<event>
 5    0  0.1972558E-002  0.2441469E+03  0.7546771E-02  0.1117061E+00
         21   -1    0    0  501  502  0.00000000000E+00  0.00000000000E+00  0.15338419100E+04  0.15338419100E+04  0.00000000000E+00 0. -1.
         21   -1    0    0  502  503 -0.00000000000E+00 -0.00000000000E+00 -0.34915180787E+03  0.34915180787E+03  0.00000000000E+00 0.  1.
         25    1    1    2    0    0 -0.15168211460E+03  0.14550040449E+03 -0.29168603213E+03  0.38063574837E+03  0.12500000000E+03 0.  0.
          2    1    1    2  501    0 -0.23675186432E+02 -0.38756385285E+02  0.62232812109E+03  0.62398306239E+03  0.00000000000E+00 0. -1.
         -2    1    1    2    0  503  0.17535730103E+03 -0.10674401920E+03  0.85404801316E+03  0.87837490711E+03  0.00000000000E+00 0.  1.
<mgrwt>
<rscale>  4 0.24414692E+03</rscale>
<asrwt>0</asrwt>
<pdfrwt beam="1">  1       21 0.23597567E+00 0.24414692E+03</pdfrwt>
<pdfrwt beam="2">  1       21 0.53715664E-01 0.24414692E+03</pdfrwt>
<totfact> 0.24772608E+02</totfact>
</mgrwt>
</event>
<event>
 5    0  0.1972558E-002  0.3082800E+03  0.7546771E-02  0.1081173E+00
         21   -1    0    0  501  502  0.00000000000E+00  0.00000000000E+00  0.73770982243E+02  0.73770982243E+02  0.00000000000E+00 0. -1.
         21   -1    0    0  502  503 -0.00000000000E+00 -0.00000000000E+00 -0.13995265960E+04  0.13995265960E+04  0.00000000000E+00 0. -1.
         25    1    1    2    0    0  0.25534304336E+03  0.11921204845E+03 -0.94242710398E+03  0.99156715789E+03  0.12500000000E+03 0.  0.
          4    1    1    2  501    0 -0.15131067618E+03 -0.10947683053E+03 -0.25927912350E+03  0.31953992087E+03  0.00000000000E+00 0. -1.
         -4    1    1    2    0  503 -0.10403236718E+03 -0.97352179242E+01 -0.12404938631E+03  0.16219049952E+03  0.00000000000E+00 0.  1.
<mgrwt>
<rscale>  4 0.30828004E+03</rscale>
<asrwt>0</asrwt>
<pdfrwt beam="1">  1       21 0.11349383E-01 0.30828004E+03</pdfrwt>
<pdfrwt beam="2">  1       21 0.21531175E+00 0.30828004E+03</pdfrwt>
<totfact> 0.64013162E+03</totfact>
</mgrwt>
</event>
<event>
 5    0  0.1972558E-002  0.1930753E+03  0.7546771E-02  0.1155716E+00
         21   -1    0    0  503  502  0.00000000000E+00  0.00000000000E+00  0.27942701467E+03  0.27942701467E+03  0.00000000000E+00 0.  1.
         21   -1    0    0  501  503 -0.00000000000E+00 -0.00000000000E+00 -0.27044767593E+03  0.27044767593E+03  0.00000000000E+00 0.  1.
         25    1    1    2    0    0 -0.10817448227E+03 -0.16967442551E+03 -0.12770490078E+03  0.26911832151E+03  0.12500000000E+03 0.  0.
          1    1    1    2  501    0  0.70576165180E+01  0.72400527384E+02 -0.14844577113E+02  0.74242897209E+02  0.00000000000E+00 0. -1.
         -1    1    1    2    0  502  0.10111686575E+03  0.97273898128E+02  0.15152881663E+03  0.20651347188E+03  0.00000000000E+00 0.  1.
<mgrwt>
<rscale>  4 0.19307533E+03</rscale>
<asrwt>0</asrwt>
<pdfrwt beam="1">  1       21 0.42988772E-01 0.19307533E+03</pdfrwt>
<pdfrwt beam="2">  1       21 0.41607334E-01 0.19307533E+03</pdfrwt>
<totfact> 0.28934930E+04</totfact>
</mgrwt>
</event>
<event>
 5    0  0.1972558E-002  0.3230277E+03  0.7546771E-02  0.1074264E+00
         21   -1    0    0  501  502  0.00000000000E+00  0.00000000000E+00  0.25870249422E+03  0.25870249422E+03  0.00000000000E+00 0.  1.
         21   -1    0    0  502  503 -0.00000000000E+00 -0.00000000000E+00 -0.77247322433E+03  0.77247322433E+03  0.00000000000E+00 0.  1.
         25    1    1    2    0    0 -0.33038984861E+03 -0.11215404316E+03 -0.25462364481E+03  0.44966007378E+03  0.12500000000E+03 0.  0.
          4    1    1    2  501    0  0.23656668642E+03  0.15285519806E+03  0.21836783673E+02  0.28249841383E+03  0.00000000000E+00 0.  1.
         -4    1    1    2    0  503  0.93823162190E+02 -0.40701154901E+02 -0.28098386897E+03  0.29901723093E+03  0.00000000000E+00 0. -1.
<mgrwt>
<rscale>  4 0.32302772E+03</rscale>
<asrwt>0</asrwt>
<pdfrwt beam="1">  1       21 0.39800384E-01 0.32302772E+03</pdfrwt>
<pdfrwt beam="2">  1       21 0.11884203E+00 0.32302772E+03</pdfrwt>
<totfact> 0.30144789E+03</totfact>
</mgrwt>
</event>
<event>
 5    0  0.1972558E-002  0.2706323E+03  0.7546771E-02  0.1100918E+00
         21   -1    0    0  501  502  0.00000000000E+00  0.00000000000E+00  0.23410418380E+03  0.23410418380E+03  0.00000000000E+00 0. -1.
         21   -1    0    0  502  503 -0.00000000000E+00 -0.00000000000E+00 -0.48946638494E+03  0.48946638494E+03  0.00000000000E+00 0. -1.
         25    1    1    2    0    0 -0.20685566759E+03 -0.12176857834E+03 -0.34900224242E+03  0.44163833518E+03  0.12500000000E+03 0.  0.
          1    1    1    2  501    0  0.72945436407E+02 -0.49862184651E+01  0.59820354950E+02  0.94468904585E+02  0.00000000000E+00 0.  1.
         -1    1    1    2    0  503  0.13391023118E+03  0.12675479680E+03  0.33819686334E+02  0.18746332898E+03  0.00000000000E+00 0. -1.
<mgrwt>
<rscale>  4 0.27063232E+03</rscale>
<asrwt>0</asrwt>
<pdfrwt beam="1">  1       21 0.36016028E-01 0.27063232E+03</pdfrwt>
<pdfrwt beam="2">  1       21 0.75302521E-01 0.27063232E+03</pdfrwt>
<totfact> 0.11189215E+04</totfact>
</mgrwt>
</event>
<event>
 5    0  0.1972558E-002  0.2782746E+03  0.7546771E-02  0.1096635E+00
         21   -1    0    0  501  502  0.00000000000E+00  0.00000000000E+00  0.69831541722E+03  0.69831541722E+03  0.00000000000E+00 0. -1.
         21   -1    0    0  502  503 -0.00000000000E+00 -0.00000000000E+00 -0.27753961566E+03  0.27753961566E+03  0.00000000000E+00 0. -1.
         25    1    1    2    0    0 -0.65616040718E+01 -0.28399092363E+03 -0.13455911401E+01  0.31035577966E+03  0.12500000000E+03 0.  0.
          3    1    1    2  501    0  0.90220883021E+01  0.59492188325E+02  0.43640434766E+03  0.44053316924E+03  0.00000000000E+00 0. -1.
         -3    1    1    2    0  503 -0.24604842303E+01  0.22449873531E+03 -0.14282954949E+02  0.22496608398E+03  0.00000000000E+00 0.  1.
<mgrwt>
<rscale>  4 0.27827459E+03</rscale>
<asrwt>0</asrwt>
<pdfrwt beam="1">  1       21 0.10743314E+00 0.27827459E+03</pdfrwt>
<pdfrwt beam="2">  1       21 0.42698403E-01 0.27827459E+03</pdfrwt>
<totfact> 0.34311905E+03</totfact>
</mgrwt>
</event>
<event>
 5    0  0.1972558E-002  0.2515068E+03  0.7546771E-02  0.1112356E+00
         21   -1    0    0  501  502  0.00000000000E+00  0.00000000000E+00  0.79235826201E+03  0.79235826201E+03  0.00000000000E+00 0.  1.
         21   -1    0    0  502  503 -0.00000000000E+00 -0.00000000000E+00 -0.13677316157E+04  0.13677316157E+04  0.00000000000E+00 0. -1.
         25    1    1    2    0    0  0.45683300233E+02  0.21199425896E+03 -0.12819088852E+04  0.13061178812E+04  0.12500000000E+03 0.  0.
          3    1    1    2  501    0  0.26852691302E+01 -0.30675816782E+03  0.67745465537E+03  0.74367505960E+03  0.00000000000E+00 0.  1.
         -3    1    1    2    0  503 -0.48368569363E+02  0.94763908858E+02  0.29080876143E+02  0.11029693686E+03  0.00000000000E+00 0. -1.
<mgrwt>
<rscale>  4 0.25150679E+03</rscale>
<asrwt>0</asrwt>
<pdfrwt beam="1">  1       21 0.12190127E+00 0.25150679E+03</pdfrwt>
<pdfrwt beam="2">  1       21 0.21042025E+00 0.25150679E+03</pdfrwt>
<totfact> 0.54055734E+01</totfact>
</mgrwt>
</event>
<event>
 5    0  0.1972558E-002  0.2464417E+03  0.7546771E-02  0.1115574E+00
         21   -1    0    0  501  502  0.00000000000E+00  0.00000000000E+00  0.68556222755E+03  0.68556222755E+03  0.00000000000E+00 0.  1.
         21   -1    0    0  502  503 -0.00000000000E+00 -0.00000000000E+00 -0.53421219424E+03  0.53421219424E+03  0.00000000000E+00 0. -1.
         25    1    1    2    0    0 -0.75268811092E+02 -0.20134515620E+03 -0.46701619623E+03  0.52908826616E+03  0.12500000000E+03 0.  0.
          4    1    1    2  501    0 -0.10518943978E+01  0.25788685485E+02  0.39779052166E+03  0.39862697087E+03  0.00000000000E+00 0.  1.
         -4    1    1    2    0  503  0.76320705490E+02  0.17555647072E+03  0.22057570787E+03  0.29205918476E+03  0.00000000000E+00 0. -1.
<mgrwt>
<rscale>  4 0.24644169E+03</rscale>
<asrwt>0</asrwt>
<pdfrwt beam="1">  1       21 0.10547111E+00 0.24644169E+03</pdfrwt>
<pdfrwt beam="2">  1       21 0.82186491E-01 0.24644169E+03</pdfrwt>
<totfact> 0.88992400E+02</totfact>
</mgrwt>
</event>
<event>
 5    0  0.1972558E-002  0.3014325E+03  0.7546771E-02  0.1084527E+00
         21   -1    0    0  501  502  0.00000000000E+00  0.00000000000E+00  0.11325704057E+03  0.11325704057E+03  0.00000000000E+00 0.  1.
         21   -1    0    0  502  503 -0.00000000000E+00 -0.00000000000E+00 -0.12464128894E+04  0.12464128894E+04  0.00000000000E+00 0.  1.
         25    1    1    2    0    0  0.12334172204E+03 -0.25593416836E+03 -0.93659819327E+03  0.98668974585E+03  0.12500000000E+03 0.  0.
          2    1    1    2  501    0 -0.12954978467E+02  0.29600437658E+02  0.22371747774E+02  0.39300285942E+02  0.00000000000E+00 0. -1.
         -2    1    1    2    0  503 -0.11038674357E+03  0.22633373070E+03 -0.21892940335E+03  0.33367989820E+03  0.00000000000E+00 0.  1.
<mgrwt>
<rscale>  4 0.30143254E+03</rscale>
<asrwt>0</asrwt>
<pdfrwt beam="1">  1       21 0.17424160E-01 0.30143254E+03</pdfrwt>
<pdfrwt beam="2">  1       21 0.19175583E+00 0.30143254E+03</pdfrwt>
<totfact> 0.41733733E+03</totfact>
</mgrwt>
</event>
<event>
 5    0  0.1972558E-002  0.2664769E+03  0.7546771E-02  0.1103313E+00
         21   -1    0    0  503  502  0.00000000000E+00  0.00000000000E+00  0.25155556575E+03  0.25155556575E+03  0.00000000000E+00 0. -1.
         21   -1    0    0  501  503 -0.00000000000E+00 -0.00000000000E+00 -0.12924490858E+04  0.12924490858E+04  0.00000000000E+00 0.  1.
         25    1    1    2    0    0 -0.22240070324E+03 -0.66778567462E+02 -0.11692546350E+04  0.11986254008E+04  0.12500000000E+03 0.  0.
          3    1    1    2  501    0 -0.10858023753E+02  0.33466661338E+02 -0.41872815843E+02  0.54692292030E+02  0.00000000000E+00 0.  1.
         -3    1    1    2    0  502  0.23325872700E+03  0.33311906123E+02  0.17023393078E+03  0.29068695877E+03  0.00000000000E+00 0. -1.
<mgrwt>
<rscale>  4 0.26647691E+03</rscale>
<asrwt>0</asrwt>
<pdfrwt beam="1">  1       21 0.38700857E-01 0.26647691E+03</pdfrwt>
<pdfrwt beam="2">  1       21 0.19883832E+00 0.26647691E+03</pdfrwt>
<totfact> 0.81776427E+02</totfact>
</mgrwt>
</event>
<event>
 5    0  0.1972558E-002  0.2410814E+03  0.7546771E-02  0.1119075E+00
         21   -1    0    0  501  502  0.00000000000E+00  0.00000000000E+00  0.98310546504E+02  0.98310546504E+02  0.00000000000E+00 0. -1.
         21   -1    0    0  502  503 -0.00000000000E+00 -0.00000000000E+00 -0.11988082343E+04  0.11988082343E+04  0.00000000000E+00 0. -1.
         25    1    1    2    0    0  0.52330643304E+02 -0.22658172146E+03 -0.15048433149E+03  0.30388864202E+03  0.12500000000E+03 0.  0.
          2    1    1    2  501    0 -0.30170820948E+02  0.20023065433E+03 -0.93319605242E+03  0.95491228164E+03  0.00000000000E+00 0. -1.
         -2    1    1    2    0  503 -0.22159822356E+02  0.26351067126E+02 -0.16817303875E+02  0.38317857132E+02  0.00000000000E+00 0.  1.
<mgrwt>
<rscale>  4 0.24108139E+03</rscale>
<asrwt>0</asrwt>
<pdfrwt beam="1">  1       21 0.15124699E-01 0.24108139E+03</pdfrwt>
<pdfrwt beam="2">  1       21 0.18443204E+00 0.24108139E+03</pdfrwt>
<totfact> 0.63146860E+03</totfact>
</mgrwt>
</event>
<event>
 5    0  0.1972558E-002  0.4680178E+03  0.7546771E-02  0.1022481E+00
         21   -1    0    0  501  502  0.00000000000E+00  0.00000000000E+00  0.21117694073E+03  0.21117694073E+03  0.00000000000E+00 0. -1.
         21   -1    0    0  502  503 -0.00000000000E+00 -0.00000000000E+00 -0.11157077822E+04  0.11157077822E+04  0.00000000000E+00 0. -1.
         25    1    1    2    0    0  0.40128118830E+03 -0.22780827916E+03 -0.52843870657E+03  0.71259783240E+03  0.12500000000E+03 0.  0.
          3    1    1    2  501    0 -0.38164675665E+03  0.21863398022E+03 -0.39057501281E+03  0.58822096597E+03  0.00000000000E+00 0. -1.
         -3    1    1    2    0  503 -0.19634431649E+02  0.91742989439E+01  0.14482877961E+02  0.26065924525E+02  0.00000000000E+00 0.  1.
<mgrwt>
<rscale>  4 0.46801785E+03</rscale>
<asrwt>0</asrwt>
<pdfrwt beam="1">  1       21 0.32488761E-01 0.46801785E+03</pdfrwt>
<pdfrwt beam="2">  1       21 0.17164735E+00 0.46801785E+03</pdfrwt>
<totfact> 0.15952921E+03</totfact>
</mgrwt>
</event>
<event>
 5    0  0.1972558E-002  0.2737661E+03  0.7546771E-02  0.1099143E+00
         21   -1    0    0  501  502  0.00000000000E+00  0.00000000000E+00  0.18729584571E+03  0.18729584571E+03  0.00000000000E+00 0.  1.
         21   -1    0    0  502  503 -0.00000000000E+00 -0.00000000000E+00 -0.14088419688E+04  0.14088419688E+04  0.00000000000E+00 0. -1.
         25    1    1    2    0    0 -0.16899315495E+03 -0.16442838577E+03 -0.89981856998E+03  0.93855944902E+03  0.12500000000E+03 0.  0.
          2    1    1    2  501    0 -0.36908622795E+02  0.80868803284E+01  0.13094169227E+03  0.13628415478E+03  0.00000000000E+00 0.  1.
         -2    1    1    2    0  503  0.20590177774E+03  0.15634150545E+03 -0.45266924536E+03  0.52129421069E+03  0.00000000000E+00 0. -1.
<mgrwt>
<rscale>  4 0.27376610E+03</rscale>
<asrwt>0</asrwt>
<pdfrwt beam="1">  1       21 0.28814746E-01 0.27376610E+03</pdfrwt>
<pdfrwt beam="2">  1       21 0.21674491E+00 0.27376610E+03</pdfrwt>
<totfact> 0.11226635E+03</totfact>
</mgrwt>
</event>
<event>
 5    0  0.1972558E-002  0.3437350E+03  0.7546771E-02  0.1065216E+00
         21   -1    0    0  501  502  0.00000000000E+00  0.00000000000E+00  0.23203611745E+03  0.23203611745E+03  0.00000000000E+00 0. -1.
         21   -1    0    0  502  503 -0.00000000000E+00 -0.00000000000E+00 -0.14973839623E+04  0.14973839623E+04  0.00000000000E+00 0.  1.
         25    1    1    2    0    0 -0.36508151873E+03 -0.16490141593E+03 -0.99100511290E+03  0.10761938144E+04  0.12500000000E+03 0.  0.
          4    1    1    2  501    0  0.28173593438E+03  0.12933729895E+03  0.52177184470E+02  0.31436560276E+03  0.00000000000E+00 0. -1.
         -4    1    1    2    0  503  0.83345584351E+02  0.35564116979E+02 -0.32651991639E+03  0.33886066259E+03  0.00000000000E+00 0.  1.
<mgrwt>
<rscale>  4 0.34373502E+03</rscale>
<asrwt>0</asrwt>
<pdfrwt beam="1">  1       21 0.35697865E-01 0.34373502E+03</pdfrwt>
<pdfrwt beam="2">  1       21 0.23036676E+00 0.34373502E+03</pdfrwt>
<totfact> 0.57261303E+02</totfact>
</mgrwt>
</event>
<event>
 5    0  0.1972558E-002  0.3251618E+03  0.7546771E-02  0.1073298E+00
         21   -1    0    0  501  502  0.00000000000E+00  0.00000000000E+00  0.17250174032E+04  0.17250174032E+04  0.00000000000E+00 0.  1.
         21   -1    0    0  502  503 -0.00000000000E+00 -0.00000000000E+00 -0.24044772209E+03  0.24044772209E+03  0.00000000000E+00 0. -1.
         25    1    1    2    0    0  0.11352877819E+03 -0.26827959733E+03  0.66643566089E+02  0.32392760105E+03  0.12500000000E+03 0.  0.
          4    1    1    2  501    0 -0.22213642002E+02 -0.28832923934E+02  0.13129595099E+04  0.13134639158E+04  0.00000000000E+00 0.  1.
         -4    1    1    2    0  503 -0.91315136185E+02  0.29711252126E+03  0.10496660513E+03  0.32807360848E+03  0.00000000000E+00 0. -1.
<mgrwt>
<rscale>  4 0.32516183E+03</rscale>
<asrwt>0</asrwt>
<pdfrwt beam="1">  1       21 0.26538728E+00 0.32516183E+03</pdfrwt>
<pdfrwt beam="2">  1       21 0.36991958E-01 0.32516183E+03</pdfrwt>
<totfact> 0.33105824E+02</totfact>
</mgrwt>
</event>
<event>
 5    0  0.1972558E-002  0.2348342E+03  0.7546771E-02  0.1123283E+00
         21   -1    0    0  501  502  0.00000000000E+00  0.00000000000E+00  0.17708714173E+03  0.17708714173E+03  0.00000000000E+00 0.  1.
         21   -1    0    0  502  503 -0.00000000000E+00 -0.00000000000E+00 -0.11772901822E+04  0.11772901822E+04  0.00000000000E+00 0. -1.
         25    1    1    2    0    0 -0.48321445665E+02  0.20254125903E+03 -0.99872858087E+03  0.10278334991E+04  0.12500000000E+03 0.  0.
          3    1    1    2  501    0  0.11741557761E+01 -0.39335467473E+02  0.11435300749E+03  0.12093497412E+03  0.00000000000E+00 0.  1.
         -3    1    1    2    0  503  0.47147289888E+02 -0.16320579155E+03 -0.11582746711E+03  0.20560885068E+03  0.00000000000E+00 0. -1.
<mgrwt>
<rscale>  4 0.23483416E+03</rscale>
<asrwt>0</asrwt>
<pdfrwt beam="1">  1       21 0.27244175E-01 0.23483416E+03</pdfrwt>
<pdfrwt beam="2">  1       21 0.18112157E+00 0.23483416E+03</pdfrwt>
<totfact> 0.22091439E+03</totfact>
</mgrwt>
</event>
<event>
 5    0  0.1972558E-002  0.2255197E+03  0.7546771E-02  0.1129834E+00
         21   -1    0    0  501  502  0.00000000000E+00  0.00000000000E+00  0.17803852389E+04  0.17803852389E+04  0.00000000000E+00 0.  1.
         21   -1    0    0  502  503 -0.00000000000E+00 -0.00000000000E+00 -0.44912876491E+02  0.44912876491E+02  0.00000000000E+00 0. -1.
         25    1    1    2    0    0 -0.97387679613E+02  0.17931190961E+03  0.50198642275E+03  0.55610474705E+03  0.12500000000E+03 0.  0.
          2    1    1    2  501    0  0.61228982367E+02 -0.16388385463E+03  0.42295128246E+03  0.45770590276E+03  0.00000000000E+00 0.  1.
         -2    1    1    2    0  503  0.36158697245E+02 -0.15428054979E+02  0.81053465720E+03  0.81148746557E+03  0.00000000000E+00 0. -1.
<mgrwt>
<rscale>  4 0.22551971E+03</rscale>
<asrwt>0</asrwt>
<pdfrwt beam="1">  1       21 0.27390537E+00 0.22551971E+03</pdfrwt>
<pdfrwt beam="2">  1       21 0.69096747E-02 0.22551971E+03</pdfrwt>
<totfact> 0.72263993E+03</totfact>
</mgrwt>
</event>
<event>
 5    0  0.1972558E-002  0.3468166E+03  0.7546771E-02  0.1063929E+00
         21   -1    0    0  503  502  0.00000000000E+00  0.00000000000E+00  0.13828291998E+04  0.13828291998E+04  0.00000000000E+00 0.  1.
         21   -1    0    0  501  503 -0.00000000000E+00 -0.00000000000E+00 -0.89627194442E+02  0.89627194442E+02  0.00000000000E+00 0.  1.
         25    1    1    2    0    0  0.13180993755E+03  0.29462228846E+03  0.57854315832E+03  0.67417604417E+03  0.12500000000E+03 0.  0.
          1    1    1    2  501    0 -0.24776842042E+02  0.12137462143E+02  0.90673861167E+02  0.94778473230E+02  0.00000000000E+00 0. -1.
         -1    1    1    2    0  502 -0.10703309550E+03 -0.30675975060E+03  0.62398498583E+03  0.70350187680E+03  0.00000000000E+00 0.  1.
<mgrwt>
<rscale>  4 0.34681657E+03</rscale>
<asrwt>0</asrwt>
<pdfrwt beam="1">  1       21 0.21274294E+00 0.34681657E+03</pdfrwt>
<pdfrwt beam="2">  1       21 0.13788800E-01 0.34681657E+03</pdfrwt>
<totfact> 0.45682185E+03</totfact>
</mgrwt>
</event>
<event>
 5    0  0.1972558E-002  0.2994168E+03  0.7546771E-02  0.1085533E+00
         21   -1    0    0  501  502  0.00000000000E+00  0.00000000000E+00  0.27236907314E+03  0.27236907314E+03  0.00000000000E+00 0.  1.
         21   -1    0    0  502  503 -0.00000000000E+00 -0.00000000000E+00 -0.70625074471E+03  0.70625074471E+03  0.00000000000E+00 0.  1.
         25    1    1    2    0    0 -0.15317641561E+03  0.23048273988E+03 -0.10746956749E+03  0.32211801505E+03  0.12500000000E+03 0.  0.
          4    1    1    2  501    0  0.28211121514E+02  0.98225233614E+01  0.12584406058E+03  0.12934093291E+03  0.00000000000E+00 0. -1.
         -4    1    1    2    0  503  0.12496529410E+03 -0.24030526324E+03 -0.45225616466E+03  0.52716086989E+03  0.00000000000E+00 0.  1.
<mgrwt>
<rscale>  4 0.29941679E+03</rscale>
<asrwt>0</asrwt>
<pdfrwt beam="1">  1       21 0.41902935E-01 0.29941679E+03</pdfrwt>
<pdfrwt beam="2">  1       21 0.10865396E+00 0.29941679E+03</pdfrwt>
<totfact> 0.34279669E+03</totfact>
</mgrwt>
</event>
<event>
 5    0  0.1972558E-002  0.4764400E+03  0.7546771E-02  0.1020785E+00
         21   -1    0    0  501  502  0.00000000000E+00  0.00000000000E+00  0.74512227147E+03  0.74512227147E+03  0.00000000000E+00 0.  1.
         21   -1    0    0  502  503 -0.00000000000E+00 -0.00000000000E+00 -0.32084988957E+03  0.32084988957E+03  0.00000000000E+00 0.  1.
         25    1    1    2    0    0  0.20093949202E+03  0.40251008240E+03  0.69750808308E+02  0.47210297727E+03  0.12500000000E+03 0.  0.
          2    1    1    2  501    0 -0.78589314047E+02 -0.54535380525E+02  0.24074226725E+02  0.98640541381E+02  0.00000000000E+00 0. -1.
         -2    1    1    2    0  503 -0.12235017797E+03 -0.34797470187E+03  0.33044734687E+03  0.49522864239E+03  0.00000000000E+00 0.  1.
<mgrwt>
<rscale>  4 0.47404242E+03</rscale>
<asrwt>0</asrwt>
<pdfrwt beam="1">  1       21 0.11463420E+00 0.47643999E+03</pdfrwt>
<pdfrwt beam="2">  1       21 0.49361522E-01 0.47643999E+03</pdfrwt>
<totfact> 0.19716525E+03</totfact>
</mgrwt>
</event>
<event>
 5    0  0.1972558E-002  0.3015402E+03  0.7546771E-02  0.1084473E+00
         21   -1    0    0  501  502  0.00000000000E+00  0.00000000000E+00  0.56561299021E+03  0.56561299021E+03  0.00000000000E+00 0.  1.
         21   -1    0    0  502  503 -0.00000000000E+00 -0.00000000000E+00 -0.74991041365E+03  0.74991041365E+03  0.00000000000E+00 0. -1.
         25    1    1    2    0    0  0.54689342912E+01 -0.29214856525E+03 -0.64463662049E+03  0.71872252358E+03  0.12500000000E+03 0.  0.
          4    1    1    2  501    0 -0.11293428224E+03  0.12394085449E+03  0.28720821406E+03  0.33257186552E+03  0.00000000000E+00 0.  1.
         -4    1    1    2    0  503  0.10746534794E+03  0.16820771076E+03  0.17313098299E+03  0.26422901476E+03  0.00000000000E+00 0. -1.
<mgrwt>
<rscale>  4 0.30154022E+03</rscale>
<asrwt>0</asrwt>
<pdfrwt beam="1">  1       21 0.87017383E-01 0.30154022E+03</pdfrwt>
<pdfrwt beam="2">  1       21 0.11537083E+00 0.30154022E+03</pdfrwt>
<totfact> 0.60102331E+02</totfact>
</mgrwt>
</event>
<event>
 5    0  0.1972558E-002  0.2156136E+03  0.7546771E-02  0.1137196E+00
         21   -1    0    0  501  502  0.00000000000E+00  0.00000000000E+00  0.18425269296E+03  0.18425269296E+03  0.00000000000E+00 0.  1.
         21   -1    0    0  502  503 -0.00000000000E+00 -0.00000000000E+00 -0.48517580591E+03  0.48517580591E+03  0.00000000000E+00 0. -1.
         25    1    1    2    0    0  0.11395399481E+03 -0.17036431002E+03 -0.26067357438E+03  0.35438005509E+03  0.12500000000E+03 0.  0.
          2    1    1    2  501    0 -0.37029124323E+02  0.15246991450E+03 -0.12396027255E+03  0.19996094630E+03  0.00000000000E+00 0. -1.
         -2    1    1    2    0  503 -0.76924870488E+02  0.17894395526E+02  0.83710733988E+02  0.11508749748E+03  0.00000000000E+00 0.  1.
<mgrwt>
<rscale>  4 0.21561355E+03</rscale>
<asrwt>0</asrwt>
<pdfrwt beam="1">  1       21 0.28346569E-01 0.21561355E+03</pdfrwt>
<pdfrwt beam="2">  1       21 0.74642430E-01 0.21561355E+03</pdfrwt>
<totfact> 0.18856197E+04</totfact>
</mgrwt>
</event>
<event>
 5    0  0.1972558E-002  0.1895856E+03  0.7546771E-02  0.1158836E+00
         21   -1    0    0  501  502  0.00000000000E+00  0.00000000000E+00  0.56498649540E+03  0.56498649540E+03  0.00000000000E+00 0.  1.
         21   -1    0    0  502  503 -0.00000000000E+00 -0.00000000000E+00 -0.10624619021E+04  0.10624619021E+04  0.00000000000E+00 0.  1.
         25    1    1    2    0    0 -0.10742602432E+03  0.17021809112E+03 -0.58775137434E+03  0.63371225906E+03  0.12500000000E+03 0.  0.
          3    1    1    2  501    0  0.77888730567E+02 -0.93635373092E+02 -0.44030690859E+03  0.45684177917E+03  0.00000000000E+00 0. -1.
         -3    1    1    2    0  503  0.29537293754E+02 -0.76582718028E+02  0.53058287625E+03  0.53689435924E+03  0.00000000000E+00 0.  1.
<mgrwt>
<rscale>  4 0.18958561E+03</rscale>
<asrwt>0</asrwt>
<pdfrwt beam="1">  1       21 0.86921000E-01 0.18958561E+03</pdfrwt>
<pdfrwt beam="2">  1       21 0.16345568E+00 0.18958561E+03</pdfrwt>
<totfact> 0.27148545E+02</totfact>
</mgrwt>
</event>
<event>
 5    0  0.1972558E-002  0.3104020E+03  0.7546771E-02  0.1080153E+00
         21   -1    0    0  501  502  0.00000000000E+00  0.00000000000E+00  0.10025979931E+04  0.10025979931E+04  0.00000000000E+00 0. -1.
         21   -1    0    0  502  503 -0.00000000000E+00 -0.00000000000E+00 -0.38234584552E+03  0.38234584552E+03  0.00000000000E+00 0.  1.
         25    1    1    2    0    0 -0.28233426965E+03 -0.67705724941E+02  0.11824612722E+02  0.31632503296E+03  0.12500000000E+03 0.  0.
          3    1    1    2  501    0  0.13829164814E+01  0.43840568901E+02  0.75126206312E+03  0.75254142439E+03  0.00000000000E+00 0.  1.
         -3    1    1    2    0  503  0.28095135317E+03  0.23865156041E+02 -0.14283452822E+03  0.31607738131E+03  0.00000000000E+00 0. -1.
<mgrwt>
<rscale>  4 0.31040201E+03</rscale>
<asrwt>0</asrwt>
<pdfrwt beam="1">  1       21 0.15424584E+00 0.31040201E+03</pdfrwt>
<pdfrwt beam="2">  1       21 0.58822438E-01 0.31040201E+03</pdfrwt>
<totfact> 0.67795975E+02</totfact>
</mgrwt>
</event>
<event>
 5    0  0.1972558E-002  0.2557623E+03  0.7546771E-02  0.1109716E+00
         21   -1    0    0  501  502  0.00000000000E+00  0.00000000000E+00  0.58065153411E+02  0.58065153411E+02  0.00000000000E+00 0. -1.
         21   -1    0    0  502  503 -0.00000000000E+00 -0.00000000000E+00 -0.14902161099E+04  0.14902161099E+04  0.00000000000E+00 0. -1.
         25    1    1    2    0    0 -0.92574634419E+02 -0.20246318159E+03 -0.97183794173E+03  0.10048160965E+04  0.12500000000E+03 0.  0.
          1    1    1    2  501    0  0.40280435980E+02 -0.18113616044E+02 -0.20550499931E+02  0.48712828457E+02  0.00000000000E+00 0.  1.
         -1    1    1    2    0  503  0.52294198439E+02  0.22057679763E+03 -0.43976251486E+03  0.49475233837E+03  0.00000000000E+00 0. -1.
<mgrwt>
<rscale>  4 0.25576230E+03</rscale>
<asrwt>0</asrwt>
<pdfrwt beam="1">  1       21 0.89331014E-02 0.25576230E+03</pdfrwt>
<pdfrwt beam="2">  1       21 0.22926400E+00 0.25576230E+03</pdfrwt>
<totfact> 0.83043363E+03</totfact>
</mgrwt>
</event>
<event>
 5    0  0.1972558E-002  0.3152649E+03  0.7546771E-02  0.1078024E+00
         21   -1    0    0  501  502  0.00000000000E+00  0.00000000000E+00  0.15379022845E+04  0.15379022845E+04  0.00000000000E+00 0.  1.
         21   -1    0    0  502  503 -0.00000000000E+00 -0.00000000000E+00 -0.28429981081E+03  0.28429981081E+03  0.00000000000E+00 0. -1.
         25    1    1    2    0    0  0.28768700680E+03 -0.82227782456E+01 -0.17496424385E+03  0.35926162415E+03  0.12500000000E+03 0.  0.
          1    1    1    2  501    0 -0.22045039084E+03 -0.35621157523E+02  0.12021865849E+04  0.12227509258E+04  0.00000000000E+00 0.  1.
         -1    1    1    2    0  503 -0.67236615963E+02  0.43843935768E+02  0.22638013258E+03  0.24018954527E+03  0.00000000000E+00 0. -1.
<mgrwt>
<rscale>  4 0.31489243E+03</rscale>
<asrwt>0</asrwt>
<pdfrwt beam="1">  1       21 0.23660035E+00 0.31526490E+03</pdfrwt>
<pdfrwt beam="2">  1       21 0.43738433E-01 0.31526490E+03</pdfrwt>
<totfact> 0.35349175E+02</totfact>
</mgrwt>
</event>
<event>
 5    0  0.1972558E-002  0.2435657E+03  0.7546771E-02  0.1117440E+00
         21   -1    0    0  501  502  0.00000000000E+00  0.00000000000E+00  0.31730289825E+03  0.31730289825E+03  0.00000000000E+00 0.  1.
         21   -1    0    0  502  503 -0.00000000000E+00 -0.00000000000E+00 -0.67505427445E+03  0.67505427445E+03  0.00000000000E+00 0.  1.
         25    1    1    2    0    0 -0.62875303779E+02  0.19202093884E+03 -0.54523336167E+03  0.59475185032E+03  0.12500000000E+03 0.  0.
          2    1    1    2  501    0  0.45152520584E+02 -0.26612857970E+03  0.11841075949E+03  0.29476139335E+03  0.00000000000E+00 0.  1.
         -2    1    1    2    0  503  0.17722783195E+02  0.74107640863E+02  0.69071225989E+02  0.10284392903E+03  0.00000000000E+00 0. -1.
<mgrwt>
<rscale>  4 0.24356570E+03</rscale>
<asrwt>0</asrwt>
<pdfrwt beam="1">  1       21 0.48815830E-01 0.24356570E+03</pdfrwt>
<pdfrwt beam="2">  1       21 0.10385450E+00 0.24356570E+03</pdfrwt>
<totfact> 0.28861621E+03</totfact>
</mgrwt>
</event>
<event>
 5    0  0.1972558E-002  0.2677727E+03  0.7546771E-02  0.1102561E+00
         21   -1    0    0  501  502  0.00000000000E+00  0.00000000000E+00  0.24524085822E+03  0.24524085822E+03  0.00000000000E+00 0. -1.
         21   -1    0    0  502  503 -0.00000000000E+00 -0.00000000000E+00 -0.71068701391E+03  0.71068701391E+03  0.00000000000E+00 0.  1.
         25    1    1    2    0    0 -0.83460825131E+02  0.22460252624E+03 -0.49684474702E+03  0.56558969825E+03  0.12500000000E+03 0.  0.
          1    1    1    2  501    0 -0.38434206287E+02 -0.25419296682E+02  0.12919403244E+03  0.13716569132E+03  0.00000000000E+00 0.  1.
         -1    1    1    2    0  503  0.12189503142E+03 -0.19918322956E+03 -0.97795441115E+02  0.25317248256E+03  0.00000000000E+00 0. -1.
<mgrwt>
<rscale>  4 0.26777269E+03</rscale>
<asrwt>0</asrwt>
<pdfrwt beam="1">  1       21 0.37729363E-01 0.26777269E+03</pdfrwt>
<pdfrwt beam="2">  1       21 0.10933646E+00 0.26777269E+03</pdfrwt>
<totfact> 0.42570246E+03</totfact>
</mgrwt>
</event>
<event>
 5    0  0.1972558E-002  0.4405384E+03  0.7546771E-02  0.1030582E+00
         21   -1    0    0  501  502  0.00000000000E+00  0.00000000000E+00  0.99589827248E+03  0.99589827248E+03  0.00000000000E+00 0. -1.
         21   -1    0    0  502  503 -0.00000000000E+00 -0.00000000000E+00 -0.32356739149E+03  0.32356739149E+03  0.00000000000E+00 0. -1.
         25    1    1    2    0    0 -0.38412080041E+03 -0.17578488824E+03 -0.82526277111E+02  0.44820163170E+03  0.12500000000E+03 0.  0.
          1    1    1    2  501    0  0.35678056411E+03  0.17862426924E+03  0.73818361821E+03  0.83911504258E+03  0.00000000000E+00 0. -1.
         -1    1    1    2    0  503  0.27340236308E+02 -0.28393810006E+01  0.16673539884E+02  0.32148989691E+02  0.00000000000E+00 0.  1.
<mgrwt>
<rscale>  4 0.44053844E+03</rscale>
<asrwt>0</asrwt>
<pdfrwt beam="1">  1       21 0.15321512E+00 0.44053844E+03</pdfrwt>
<pdfrwt beam="2">  1       21 0.49779599E-01 0.44053844E+03</pdfrwt>
<totfact> 0.91970022E+02</totfact>
</mgrwt>
</event>
<event>
 5    0  0.1972558E-002  0.3818764E+03  0.7546771E-02  0.1050242E+00
         21   -1    0    0  501  502  0.00000000000E+00  0.00000000000E+00  0.47551353845E+03  0.47551353845E+03  0.00000000000E+00 0.  1.
         21   -1    0    0  502  503 -0.00000000000E+00 -0.00000000000E+00 -0.27583599883E+04  0.27583599883E+04  0.00000000000E+00 0.  1.
         25    1    1    2    0    0 -0.23872002638E+03 -0.27707072078E+03 -0.24875584935E+04  0.25174049523E+04  0.12500000000E+03 0.  0.
          3    1    1    2  501    0  0.22950158458E+03 -0.18455895130E+02 -0.13436890880E+03  0.26658319723E+03  0.00000000000E+00 0. -1.
         -3    1    1    2    0  503  0.92184417974E+01  0.29552661591E+03  0.33908095241E+03  0.44988537726E+03  0.00000000000E+00 0.  1.
<mgrwt>
<rscale>  4 0.38187644E+03</rscale>
<asrwt>0</asrwt>
<pdfrwt beam="1">  1       21 0.73155929E-01 0.38187644E+03</pdfrwt>
<pdfrwt beam="2">  1       21 0.42436307E+00 0.38187644E+03</pdfrwt>
<totfact> 0.77995260E+00</totfact>
</mgrwt>
</event>
<event>
 5    0  0.1972558E-002  0.2469787E+03  0.7546771E-02  0.1115229E+00
         21   -1    0    0  501  502  0.00000000000E+00  0.00000000000E+00  0.25636197701E+03  0.25636197701E+03  0.00000000000E+00 0.  1.
         21   -1    0    0  502  503 -0.00000000000E+00 -0.00000000000E+00 -0.12285266599E+04  0.12285266599E+04  0.00000000000E+00 0. -1.
         25    1    1    2    0    0  0.10813512993E+03  0.20033119315E+03 -0.11427183075E+04  0.11718600273E+04  0.12500000000E+03 0.  0.
          4    1    1    2  501    0 -0.11234494748E+02 -0.13128114873E+03  0.43015127159E+02  0.13860467182E+03  0.00000000000E+00 0. -1.
         -4    1    1    2    0  503 -0.96900635186E+02 -0.69050044417E+02  0.12753849747E+03  0.17442393778E+03  0.00000000000E+00 0.  1.
<mgrwt>
<rscale>  4 0.24697873E+03</rscale>
<asrwt>0</asrwt>
<pdfrwt beam="1">  1       21 0.39440305E-01 0.24697873E+03</pdfrwt>
<pdfrwt beam="2">  1       21 0.18900410E+00 0.24697873E+03</pdfrwt>
<totfact> 0.92950665E+02</totfact>
</mgrwt>
</event>
<event>
 5    0  0.1972558E-002  0.4104389E+03  0.7546771E-02  0.1040224E+00
         21   -1    0    0  501  502  0.00000000000E+00  0.00000000000E+00  0.30440927148E+04  0.30440927148E+04  0.00000000000E+00 0.  1.
         21   -1    0    0  502  503 -0.00000000000E+00 -0.00000000000E+00 -0.11667200011E+04  0.11667200011E+04  0.00000000000E+00 0. -1.
         25    1    1    2    0    0 -0.34715938288E+03  0.17988705611E+03 -0.11124814020E+04  0.11857988278E+04  0.12500000000E+03 0.  0.
          1    1    1    2  501    0  0.31363708503E+03 -0.23536870894E+03  0.26716651122E+04  0.27002890812E+04  0.00000000000E+00 0.  1.
         -1    1    1    2    0  503  0.33522297848E+02  0.55481652831E+02  0.31818900354E+03  0.32472480692E+03  0.00000000000E+00 0. -1.
<mgrwt>
<rscale>  4 0.41043894E+03</rscale>
<asrwt>0</asrwt>
<pdfrwt beam="1">  1       21 0.46832195E+00 0.41043894E+03</pdfrwt>
<pdfrwt beam="2">  1       21 0.17949539E+00 0.41043894E+03</pdfrwt>
<totfact> 0.39654570E-01</totfact>
</mgrwt>
</event>
<event>
 5    0  0.1972558E-002  0.2737699E+03  0.7546771E-02  0.1099141E+00
         21   -1    0    0  503  502  0.00000000000E+00  0.00000000000E+00  0.41371225822E+02  0.41371225822E+02  0.00000000000E+00 0.  1.
         21   -1    0    0  501  503 -0.00000000000E+00 -0.00000000000E+00 -0.19012154745E+04  0.19012154745E+04  0.00000000000E+00 0.  1.
         25    1    1    2    0    0  0.18400451777E+03  0.15958478952E+03 -0.12720966249E+04  0.13012224217E+04  0.12500000000E+03 0.  0.
          1    1    1    2  501    0 -0.75245485802E+01 -0.43699716370E+02 -0.79917993850E+02  0.91395677049E+02  0.00000000000E+00 0. -1.
         -1    1    1    2    0  502 -0.17647996919E+03 -0.11588507315E+03 -0.50782962994E+03  0.54996860160E+03  0.00000000000E+00 0.  1.
<mgrwt>
<rscale>  4 0.27376992E+03</rscale>
<asrwt>0</asrwt>
<pdfrwt beam="1">  1       21 0.63648060E-02 0.27376992E+03</pdfrwt>
<pdfrwt beam="2">  1       21 0.29249459E+00 0.27376992E+03</pdfrwt>
<totfact> 0.62272207E+03</totfact>
</mgrwt>
</event>
<event>
 5    0  0.1972558E-002  0.1786968E+03  0.7546771E-02  0.1169070E+00
         21   -1    0    0  503  502  0.00000000000E+00  0.00000000000E+00  0.88820650034E+02  0.88820650034E+02  0.00000000000E+00 0. -1.
         21   -1    0    0  501  503 -0.00000000000E+00 -0.00000000000E+00 -0.10138122868E+04  0.10138122868E+04  0.00000000000E+00 0. -1.
         25    1    1    2    0    0  0.56849850290E+02  0.20220993730E+03 -0.40696566368E+03  0.47472814919E+03  0.12500000000E+03 0.  0.
          4    1    1    2  501    0 -0.35208471275E+02 -0.10732006616E+03 -0.51841615954E+03  0.53057756033E+03  0.00000000000E+00 0.  1.
         -4    1    1    2    0  502 -0.21641379015E+02 -0.94889871135E+02  0.39018646283E+00  0.97327227306E+02  0.00000000000E+00 0. -1.
<mgrwt>
<rscale>  4 0.17869681E+03</rscale>
<asrwt>0</asrwt>
<pdfrwt beam="1">  1       21 0.13664716E-01 0.17869681E+03</pdfrwt>
<pdfrwt beam="2">  1       21 0.15597112E+00 0.17869681E+03</pdfrwt>
<totfact> 0.12653792E+04</totfact>
</mgrwt>
</event>
<event>
 5    0  0.1972558E-002  0.3170568E+03  0.7546771E-02  0.1077012E+00
         21   -1    0    0  501  502  0.00000000000E+00  0.00000000000E+00  0.20926378912E+03  0.20926378912E+03  0.00000000000E+00 0. -1.
         21   -1    0    0  502  503 -0.00000000000E+00 -0.00000000000E+00 -0.16538984022E+04  0.16538984022E+04  0.00000000000E+00 0.  1.
         25    1    1    2    0    0 -0.23143131246E+03  0.19329039193E+03 -0.11921136245E+04  0.12359941430E+04  0.12500000000E+03 0.  0.
          2    1    1    2  501    0  0.20706508893E+03  0.13274916213E+03 -0.88661642689E+02  0.26145588152E+03  0.00000000000E+00 0.  1.
         -2    1    1    2    0  503  0.24366223534E+02 -0.32603955406E+03 -0.16385934592E+03  0.36571216675E+03  0.00000000000E+00 0. -1.
<mgrwt>
<rscale>  4 0.31705683E+03</rscale>
<asrwt>0</asrwt>
<pdfrwt beam="1">  1       21 0.32194428E-01 0.31705683E+03</pdfrwt>
<pdfrwt beam="2">  1       21 0.25444592E+00 0.31705683E+03</pdfrwt>
<totfact> 0.51200560E+02</totfact>
</mgrwt>
</event>
<event>
 5    0  0.1972558E-002  0.2291223E+03  0.7546771E-02  0.1127259E+00
         21   -1    0    0  501  502  0.00000000000E+00  0.00000000000E+00  0.88630643843E+02  0.88630643843E+02  0.00000000000E+00 0.  1.
         21   -1    0    0  502  503 -0.00000000000E+00 -0.00000000000E+00 -0.91895612351E+03  0.91895612351E+03  0.00000000000E+00 0.  1.
         25    1    1    2    0    0 -0.21316216344E+03  0.49294331759E+02 -0.32295664890E+03  0.40962670339E+03  0.12500000000E+03 0.  0.
          3    1    1    2  501    0  0.33017269524E+02 -0.19443908548E+02  0.17581248059E+02  0.42158106572E+02  0.00000000000E+00 0. -1.
         -3    1    1    2    0  503  0.18014489392E+03 -0.29850423211E+02 -0.52495007883E+03  0.55580195738E+03  0.00000000000E+00 0.  1.
<mgrwt>
<rscale>  4 0.22912232E+03</rscale>
<asrwt>0</asrwt>
<pdfrwt beam="1">  1       21 0.13635484E-01 0.22912232E+03</pdfrwt>
<pdfrwt beam="2">  1       21 0.14137787E+00 0.22912232E+03</pdfrwt>
<totfact> 0.15886281E+04</totfact>
</mgrwt>
</event>
<event>
 5    0  0.1972558E-002  0.2737561E+03  0.7546771E-02  0.1099149E+00
         21   -1    0    0  503  502  0.00000000000E+00  0.00000000000E+00  0.30354119778E+03  0.30354119778E+03  0.00000000000E+00 0. -1.
         21   -1    0    0  501  503 -0.00000000000E+00 -0.00000000000E+00 -0.14858716602E+04  0.14858716602E+04  0.00000000000E+00 0.  1.
         25    1    1    2    0    0 -0.19974726014E+03  0.13954996262E+03 -0.14052308370E+04  0.14316675121E+04  0.12500000000E+03 0.  0.
          2    1    1    2  501    0  0.22530356614E+02  0.27972072820E+02  0.26733596338E+02  0.44774311834E+02  0.00000000000E+00 0.  1.
         -2    1    1    2    0  502  0.17721690353E+03 -0.16752203544E+03  0.19616677824E+03  0.31297103403E+03  0.00000000000E+00 0. -1.
<mgrwt>
<rscale>  4 0.27375606E+03</rscale>
<asrwt>0</asrwt>
<pdfrwt beam="1">  1       21 0.46698646E-01 0.27375606E+03</pdfrwt>
<pdfrwt beam="2">  1       21 0.22859564E+00 0.27375606E+03</pdfrwt>
<totfact> 0.35800265E+02</totfact>
</mgrwt>
</event>
<event>
 5    0  0.1972558E-002  0.2721139E+03  0.7546771E-02  0.1100076E+00
         21   -1    0    0  503  502  0.00000000000E+00  0.00000000000E+00  0.41652529652E+03  0.41652529652E+03  0.00000000000E+00 0.  1.
         21   -1    0    0  501  503 -0.00000000000E+00 -0.00000000000E+00 -0.18153164258E+03  0.18153164258E+03  0.00000000000E+00 0.  1.
         25    1    1    2    0    0  0.20534338256E+03 -0.11248024430E+03  0.83145931300E+02  0.27812938718E+03  0.12500000000E+03 0.  0.
          4    1    1    2  501    0  0.15410809928E+01 -0.29422915485E+02  0.25826653621E+02  0.39180338482E+02  0.00000000000E+00 0. -1.
         -4    1    1    2    0  502 -0.20688446355E+03  0.14190315978E+03  0.12602106903E+03  0.28074721344E+03  0.00000000000E+00 0.  1.
<mgrwt>
<rscale>  4 0.27211387E+03</rscale>
<asrwt>0</asrwt>
<pdfrwt beam="1">  1       21 0.64080815E-01 0.27211387E+03</pdfrwt>
<pdfrwt beam="2">  1       21 0.27927945E-01 0.27211387E+03</pdfrwt>
<totfact> 0.26466500E+04</totfact>
</mgrwt>
</event>
<event>
 5    0  0.1972558E-002  0.3479098E+03  0.7546771E-02  0.1063476E+00
         21   -1    0    0  501  502  0.00000000000E+00  0.00000000000E+00  0.16562387442E+04  0.16562387442E+04  0.00000000000E+00 0.  1.
         21   -1    0    0  502  503 -0.00000000000E+00 -0.00000000000E+00 -0.18353486108E+03  0.18353486108E+03  0.00000000000E+00 0.  1.
         25    1    1    2    0    0  0.25410203795E+03 -0.18884206929E+03  0.11135128823E+03  0.35812467412E+03  0.12500000000E+03 0.  0.
          3    1    1    2  501    0  0.41812919204E+02  0.15352174820E+02  0.92752111127E+03  0.92859001790E+03  0.00000000000E+00 0.  1.
         -3    1    1    2    0  503 -0.29591495715E+03  0.17348989447E+03  0.43383148359E+03  0.55305891323E+03  0.00000000000E+00 0. -1.
<mgrwt>
<rscale>  4 0.34790979E+03</rscale>
<asrwt>0</asrwt>
<pdfrwt beam="1">  1       21 0.25480595E+00 0.34790979E+03</pdfrwt>
<pdfrwt beam="2">  1       21 0.28236134E-01 0.34790979E+03</pdfrwt>
<totfact> 0.64517960E+02</totfact>
</mgrwt>
</event>
<event>
 5    0  0.1972558E-002  0.2557298E+03  0.7546771E-02  0.1109736E+00
         21   -1    0    0  501  502  0.00000000000E+00  0.00000000000E+00  0.39664258175E+03  0.39664258175E+03  0.00000000000E+00 0. -1.
         21   -1    0    0  502  503 -0.00000000000E+00 -0.00000000000E+00 -0.38847032362E+03  0.38847032362E+03  0.00000000000E+00 0. -1.
         25    1    1    2    0    0  0.24221355802E+02 -0.23319807122E+03 -0.19352227185E+03  0.32870029540E+03  0.12500000000E+03 0.  0.
          3    1    1    2  501    0  0.29224018822E+02  0.20957480793E+03 -0.33349103691E+02  0.21421439287E+03  0.00000000000E+00 0.  1.
         -3    1    1    2    0  503 -0.53445374624E+02  0.23623263286E+02  0.23504363367E+03  0.24219821710E+03  0.00000000000E+00 0. -1.
<mgrwt>
<rscale>  4 0.25572985E+03</rscale>
<asrwt>0</asrwt>
<pdfrwt beam="1">  1       21 0.61021936E-01 0.25572985E+03</pdfrwt>
<pdfrwt beam="2">  1       21 0.59764665E-01 0.25572985E+03</pdfrwt>
<totfact> 0.62605639E+03</totfact>
</mgrwt>
</event>
