<event>
 5    0  0.1856407E+000  0.3390989E+03  0.7546771E-02  0.1067180E+00
         21   -1    0    0  502  501  0.00000000000E+00  0.00000000000E+00  0.22931432072E+03  0.22931432072E+03  0.00000000000E+00 0.  1.
         21   -1    0    0  503  502 -0.00000000000E+00 -0.00000000000E+00 -0.90365921307E+03  0.90365921307E+03  0.00000000000E+00 0.  1.
         25    1    1    2    0    0  0.21899310152E+03  0.25405196213E+03  0.13196518345E+02  0.35818923221E+03  0.12500000000E+03 0.  0.
         21    1    1    2  503  504 -0.22130866076E+03 -0.21934450450E+03 -0.66188668316E+03  0.73156238034E+03  0.00000000000E+00 0.  1.
         21    1    1    2  504  501  0.23155592340E+01 -0.34707457632E+02 -0.25654727535E+02  0.43221921230E+02  0.00000000000E+00 0. -1.
<mgrwt>
<rscale>  4 0.33909893E+03</rscale>
<asrwt>0</asrwt>
<pdfrwt beam="1">  1       21 0.35279126E-01 0.33909893E+03</pdfrwt>
<pdfrwt beam="2">  1       21 0.13902450E+00 0.33909893E+03</pdfrwt>
<totfact> 0.25525695E+03</totfact>
</mgrwt>
</event>
<event>
 5    0  0.1856407E+000  0.2840133E+03  0.7546771E-02  0.1093517E+00
         21   -1    0    0  502  501  0.00000000000E+00  0.00000000000E+00  0.21726617121E+03  0.21726617121E+03  0.00000000000E+00 0.  1.
         21   -1    0    0  503  502 -0.00000000000E+00 -0.00000000000E+00 -0.38759887195E+03  0.38759887195E+03  0.00000000000E+00 0. -1.
         25    1    1    2    0    0  0.24241190823E+03  0.79214990561E+02  0.77990560450E+01  0.28412034995E+03  0.12500000000E+03 0.  0.
         21    1    1    2  503  504 -0.96085563659E+02  0.50534041750E+01 -0.82137895438E+02  0.12650931311E+03  0.00000000000E+00 0. -1.
         21    1    1    2  504  501 -0.14632634457E+03 -0.84268394736E+02 -0.95993861348E+02  0.19423538010E+03  0.00000000000E+00 0. -1.
<mgrwt>
<rscale>  4 0.28401329E+03</rscale>
<asrwt>0</asrwt>
<pdfrwt beam="1">  1       21 0.33425565E-01 0.28401329E+03</pdfrwt>
<pdfrwt beam="2">  1       21 0.59630596E-01 0.28401329E+03</pdfrwt>
<totfact> 0.21620059E+04</totfact>
</mgrwt>
</event>
<event>
 5    0  0.1856407E+000  0.4019002E+03  0.7546771E-02  0.1043124E+00
         21   -1    0    0  502  501  0.00000000000E+00  0.00000000000E+00  0.20176126279E+03  0.20176126279E+03  0.00000000000E+00 0. -1.
         21   -1    0    0  503  502 -0.00000000000E+00 -0.00000000000E+00 -0.76968690389E+03  0.76968690389E+03  0.00000000000E+00 0. -1.
         25    1    1    2    0    0 -0.38188183015E+03 -0.80645599800E+01 -0.28997405541E+03  0.49558926758E+03  0.12500000000E+03 0.  0.
         21    1    1    2  503  504  0.34111255530E+03  0.18119520126E+02 -0.22844186137E+03  0.41094011293E+03  0.00000000000E+00 0. -1.
         21    1    1    2  504  501  0.40769274850E+02 -0.10054960146E+02 -0.49509724325E+02  0.64918786172E+02  0.00000000000E+00 0. -1.
<mgrwt>
<rscale>  4 0.40190020E+03</rscale>
<asrwt>0</asrwt>
<pdfrwt beam="1">  1       21 0.31040194E-01 0.40190020E+03</pdfrwt>
<pdfrwt beam="2">  1       21 0.11841337E+00 0.40190020E+03</pdfrwt>
<totfact> 0.48468872E+03</totfact>
</mgrwt>
</event>
<event>
 5    0  0.3071164E+000  0.3391684E+03  0.7546771E-02  0.1067151E+00
         21   -1    0    0  502  501  0.00000000000E+00  0.00000000000E+00  0.63116690541E+03  0.63116690541E+03  0.00000000000E+00 0. -1.
         21   -1    0    0  503  502 -0.00000000000E+00 -0.00000000000E+00 -0.17996824058E+03  0.17996824058E+03  0.00000000000E+00 0. -1.
         25    1    1    2    0    0 -0.20022506737E+03 -0.24355720840E+03  0.16183844242E+03  0.37580164025E+03  0.12500000000E+03 0.  0.
         21    1    1    2  503  504  0.23230569004E+02  0.21588419454E+02  0.69040703852E+02  0.75975903938E+02  0.00000000000E+00 0. -1.
         21    1    1    2  504  501  0.17699449836E+03  0.22196878895E+03  0.22031951856E+03  0.35935760181E+03  0.00000000000E+00 0. -1.
<mgrwt>
<rscale>  4 0.33916838E+03</rscale>
<asrwt>0</asrwt>
<pdfrwt beam="1">  1       21 0.97102600E-01 0.33916838E+03</pdfrwt>
<pdfrwt beam="2">  1       21 0.27687422E-01 0.33916838E+03</pdfrwt>
<totfact> 0.10131178E+04</totfact>
</mgrwt>
</event>
<event>
 5    0  0.1856407E+000  0.2422739E+03  0.7546771E-02  0.1118287E+00
         21   -1    0    0  502  501  0.00000000000E+00  0.00000000000E+00  0.57005590106E+03  0.57005590106E+03  0.00000000000E+00 0.  1.
         21   -1    0    0  503  502 -0.00000000000E+00 -0.00000000000E+00 -0.10096139034E+03  0.10096139034E+03  0.00000000000E+00 0. -1.
         25    1    1    2    0    0 -0.20375565184E+03  0.39437290210E+02  0.33533434772E+03  0.41369770398E+03  0.12500000000E+03 0.  0.
         21    1    1    2  503  504  0.12875410044E+03 -0.37997079147E+02  0.46088759274E+02  0.14193509128E+03  0.00000000000E+00 0. -1.
         21    1    1    2  504  501  0.75001551399E+02 -0.14402110627E+01  0.87671403718E+02  0.11538449614E+03  0.00000000000E+00 0.  1.
<mgrwt>
<rscale>  4 0.24227395E+03</rscale>
<asrwt>0</asrwt>
<pdfrwt beam="1">  1       21 0.87700906E-01 0.24227395E+03</pdfrwt>
<pdfrwt beam="2">  1       21 0.15532522E-01 0.24227395E+03</pdfrwt>
<totfact> 0.40065099E+04</totfact>
</mgrwt>
</event>
<event>
 5    0  0.2141123E+000  0.2630065E+03  0.7546771E-02  0.1105350E+00
         21   -1    0    0  502  501  0.00000000000E+00  0.00000000000E+00  0.17744977510E+03  0.17744977510E+03  0.00000000000E+00 0.  1.
         21   -1    0    0  503  502 -0.00000000000E+00 -0.00000000000E+00 -0.72578320886E+03  0.72578320886E+03  0.00000000000E+00 0. -1.
         25    1    1    2    0    0  0.10474976305E+03 -0.21470481992E+03  0.19832335083E+01  0.26962864420E+03  0.12500000000E+03 0.  0.
         21    1    1    2  503  504 -0.24760578800E+02  0.21117358007E+03 -0.48745774618E+03  0.53181051277E+03  0.00000000000E+00 0. -1.
         21    1    1    2  504  501 -0.79989184250E+02  0.35312398556E+01 -0.62858921098E+02  0.10179382699E+03  0.00000000000E+00 0. -1.
<mgrwt>
<rscale>  4 0.26300650E+03</rscale>
<asrwt>0</asrwt>
<pdfrwt beam="1">  1       21 0.27299966E-01 0.26300650E+03</pdfrwt>
<pdfrwt beam="2">  1       21 0.11165895E+00 0.26300650E+03</pdfrwt>
<totfact> 0.76950273E+03</totfact>
</mgrwt>
</event>
<event>
 5    0  0.1856407E+000  0.2525387E+03  0.7546771E-02  0.1111711E+00
         21   -1    0    0  502  501  0.00000000000E+00  0.00000000000E+00  0.15320180320E+04  0.15320180320E+04  0.00000000000E+00 0. -1.
         21   -1    0    0  503  502 -0.00000000000E+00 -0.00000000000E+00 -0.56893507708E+02  0.56893507708E+02  0.00000000000E+00 0. -1.
         25    1    1    2    0    0  0.82325710512E+01  0.21927835847E+03  0.12103221341E+04  0.12363880629E+04  0.12500000000E+03 0.  0.
         21    1    1    2  503  504  0.27523666856E+02 -0.94706497324E+02  0.81002180438E+02  0.12762533490E+03  0.00000000000E+00 0. -1.
         21    1    1    2  504  501 -0.35756237907E+02 -0.12457186114E+03  0.18380020971E+03  0.22489814190E+03  0.00000000000E+00 0. -1.
<mgrwt>
<rscale>  4 0.25253866E+03</rscale>
<asrwt>0</asrwt>
<pdfrwt beam="1">  1       21 0.23569505E+00 0.25253866E+03</pdfrwt>
<pdfrwt beam="2">  1       21 0.87528485E-02 0.25253866E+03</pdfrwt>
<totfact> 0.78827357E+03</totfact>
</mgrwt>
</event>
<event>
 5    0  0.1856407E+000  0.2361144E+03  0.7546771E-02  0.1122409E+00
         21   -1    0    0  502  501  0.00000000000E+00  0.00000000000E+00  0.30794910371E+03  0.30794910371E+03  0.00000000000E+00 0.  1.
         21   -1    0    0  503  502 -0.00000000000E+00 -0.00000000000E+00 -0.24000910247E+03  0.24000910247E+03  0.00000000000E+00 0. -1.
         25    1    1    2    0    0  0.13922386634E+03  0.14401989385E+03  0.19656269940E+03  0.30722452633E+03  0.12500000000E+03 0.  0.
         21    1    1    2  503  504 -0.15303294621E+02 -0.32629618736E+02 -0.31518556488E+02  0.47877993360E+02  0.00000000000E+00 0. -1.
         21    1    1    2  504  501 -0.12392057172E+03 -0.11139027511E+03 -0.97104141667E+02  0.19285568650E+03  0.00000000000E+00 0. -1.
<mgrwt>
<rscale>  4 0.23611441E+03</rscale>
<asrwt>0</asrwt>
<pdfrwt beam="1">  1       21 0.47376785E-01 0.23611441E+03</pdfrwt>
<pdfrwt beam="2">  1       21 0.36924477E-01 0.23611441E+03</pdfrwt>
<totfact> 0.29475125E+04</totfact>
</mgrwt>
</event>
<event>
 5    0  0.1856407E+000  0.2371512E+03  0.7546771E-02  0.1121705E+00
         21   -1    0    0  502  501  0.00000000000E+00  0.00000000000E+00  0.10970682078E+04  0.10970682078E+04  0.00000000000E+00 0. -1.
         21   -1    0    0  503  502 -0.00000000000E+00 -0.00000000000E+00 -0.46852223856E+03  0.46852223856E+03  0.00000000000E+00 0. -1.
         25    1    1    2    0    0  0.16918990362E+03  0.11386509419E+03  0.10287057681E+04  0.10561491564E+04  0.12500000000E+03 0.  0.
         21    1    1    2  503  504 -0.13629223600E+02 -0.29783660546E+02 -0.30856225945E+03  0.31029581069E+03  0.00000000000E+00 0. -1.
         21    1    1    2  504  501 -0.15556068002E+03 -0.84081433641E+02 -0.91597539492E+02  0.19914547922E+03  0.00000000000E+00 0. -1.
<mgrwt>
<rscale>  4 0.23715121E+03</rscale>
<asrwt>0</asrwt>
<pdfrwt beam="1">  1       21 0.16877972E+00 0.23715121E+03</pdfrwt>
<pdfrwt beam="2">  1       21 0.72080345E-01 0.23715121E+03</pdfrwt>
<totfact> 0.35982061E+02</totfact>
</mgrwt>
</event>
<event>
 5    0  0.1856407E+000  0.2608087E+03  0.7546771E-02  0.1106658E+00
         21   -1    0    0  502  501  0.00000000000E+00  0.00000000000E+00  0.27935016975E+03  0.27935016975E+03  0.00000000000E+00 0. -1.
         21   -1    0    0  503  502 -0.00000000000E+00 -0.00000000000E+00 -0.56666612170E+03  0.56666612170E+03  0.00000000000E+00 0. -1.
         25    1    1    2    0    0  0.93141562809E+02 -0.21025162675E+03  0.17715813274E+03  0.31605553511E+03  0.12500000000E+03 0.  0.
         21    1    1    2  503  504  0.21326715835E+02  0.18535026501E+02 -0.28500151426E+02  0.40132712929E+02  0.00000000000E+00 0. -1.
         21    1    1    2  504  501 -0.11446827864E+03  0.19171660025E+03 -0.43597393327E+03  0.48982804341E+03  0.00000000000E+00 0. -1.
<mgrwt>
<rscale>  4 0.26080870E+03</rscale>
<asrwt>0</asrwt>
<pdfrwt beam="1">  1       21 0.42976950E-01 0.26080870E+03</pdfrwt>
<pdfrwt beam="2">  1       21 0.87179401E-01 0.26080870E+03</pdfrwt>
<totfact> 0.56210757E+03</totfact>
</mgrwt>
</event>
<event>
 5    0  0.1856407E+000  0.4571878E+03  0.7546771E-02  0.1025802E+00
         21   -1    0    0  502  501  0.00000000000E+00  0.00000000000E+00  0.13352216781E+04  0.13352216781E+04  0.00000000000E+00 0. -1.
         21   -1    0    0  503  502 -0.00000000000E+00 -0.00000000000E+00 -0.24726435445E+03  0.24726435445E+03  0.00000000000E+00 0.  1.
         25    1    1    2    0    0  0.42581521699E+03 -0.97805254413E+02  0.10246960309E+04  0.11209422030E+04  0.12500000000E+03 0.  0.
         21    1    1    2  503  504 -0.23966773125E+03 -0.31877149710E+01  0.69858675934E+02  0.24966180632E+03  0.00000000000E+00 0.  1.
         21    1    1    2  504  501 -0.18614748574E+03  0.10099296938E+03 -0.65973831193E+01  0.21188202325E+03  0.00000000000E+00 0.  1.
<mgrwt>
<rscale>  4 0.45649760E+03</rscale>
<asrwt>0</asrwt>
<pdfrwt beam="1">  1       21 0.20541871E+00 0.45718783E+03</pdfrwt>
<pdfrwt beam="2">  1       21 0.38040671E-01 0.45718783E+03</pdfrwt>
<totfact> 0.68119375E+02</totfact>
</mgrwt>
</event>
<event>
 5    0  0.1856407E+000  0.2897337E+03  0.7546771E-02  0.1090488E+00
         21   -1    0    0  502  501  0.00000000000E+00  0.00000000000E+00  0.39969138299E+03  0.39969138299E+03  0.00000000000E+00 0.  1.
         21   -1    0    0  503  502 -0.00000000000E+00 -0.00000000000E+00 -0.39554623346E+03  0.39554623346E+03  0.00000000000E+00 0.  1.
         25    1    1    2    0    0 -0.13728862561E+03 -0.22692489388E+03  0.27652611515E+03  0.40303196715E+03  0.12500000000E+03 0.  0.
         21    1    1    2  503  504  0.10955209502E+03  0.21668054840E+03 -0.26911658787E+03  0.36245807957E+03  0.00000000000E+00 0.  1.
         21    1    1    2  504  501  0.27736530584E+02  0.10244345474E+02 -0.32643777458E+01  0.29747569735E+02  0.00000000000E+00 0. -1.
<mgrwt>
<rscale>  4 0.28973375E+03</rscale>
<asrwt>0</asrwt>
<pdfrwt beam="1">  1       21 0.61490982E-01 0.28973375E+03</pdfrwt>
<pdfrwt beam="2">  1       21 0.60853267E-01 0.28973375E+03</pdfrwt>
<totfact> 0.58119470E+03</totfact>
</mgrwt>
</event>
<event>
 5    0  0.4884502E+000  0.2661436E+03  0.7546771E-02  0.1103507E+00
         21   -1    0    0  502  501  0.00000000000E+00  0.00000000000E+00  0.54477781182E+02  0.54477781182E+02  0.00000000000E+00 0. -1.
         21   -1    0    0  503  502 -0.00000000000E+00 -0.00000000000E+00 -0.21067222484E+04  0.21067222484E+04  0.00000000000E+00 0. -1.
         25    1    1    2    0    0  0.22347557744E+03  0.72567906156E+02 -0.34027736080E+03  0.43199666317E+03  0.12500000000E+03 0.  0.
         21    1    1    2  503  504 -0.20414181349E+03 -0.53709821932E+02 -0.16075515362E+04  0.16213514630E+04  0.00000000000E+00 0. -1.
         21    1    1    2  504  501 -0.19333763949E+02 -0.18858084224E+02 -0.10441557017E+03  0.10785190338E+03  0.00000000000E+00 0.  1.
<mgrwt>
<rscale>  4 0.26614364E+03</rscale>
<asrwt>0</asrwt>
<pdfrwt beam="1">  1       21 0.83811980E-02 0.26614364E+03</pdfrwt>
<pdfrwt beam="2">  1       21 0.32411108E+00 0.26614364E+03</pdfrwt>
<totfact> 0.25289338E+03</totfact>
</mgrwt>
</event>
