<event>
 5    0  0.2159162E+000  0.3752729E+03  0.7546771E-02  0.1052695E+00
         21   -1    0    0  502  501  0.00000000000E+00  0.00000000000E+00  0.60163284789E+02  0.60163284789E+02  0.00000000000E+00 0.  1.
         21   -1    0    0  503  502 -0.00000000000E+00 -0.00000000000E+00 -0.23011376115E+04  0.23011376115E+04  0.00000000000E+00 0. -1.
         25    1    1    2    0    0 -0.21619442789E+03  0.28011552980E+03 -0.94692406683E+03  0.10185749501E+04  0.12500000000E+03 0.  0.
         21    1    1    2  503  504  0.44481361496E+02 -0.26401878608E+02 -0.20188593931E+03  0.20840725325E+03  0.00000000000E+00 0.  1.
         21    1    1    2  504  501  0.17171306639E+03 -0.25371365119E+03 -0.10921643206E+04  0.11343186929E+04  0.00000000000E+00 0. -1.
<mgrwt>
<rscale>  4 0.37527289E+03</rscale>
<asrwt>0</asrwt>
<pdfrwt beam="1">  1       21 0.92558923E-02 0.37527289E+03</pdfrwt>
<pdfrwt beam="2">  1       21 0.35402108E+00 0.37527289E+03</pdfrwt>
<totfact> 0.12859763E+03</totfact>
</mgrwt>
</event>
<event>
 5    0  0.2159162E+000  0.4314449E+03  0.7546771E-02  0.1033405E+00
         21   -1    0    0  502  501  0.00000000000E+00  0.00000000000E+00  0.52345489088E+03  0.52345489088E+03  0.00000000000E+00 0. -1.
         21   -1    0    0  503  502 -0.00000000000E+00 -0.00000000000E+00 -0.59926791131E+03  0.59926791131E+03  0.00000000000E+00 0.  1.
         25    1    1    2    0    0  0.38647223786E+03 -0.15919403809E+03  0.31531173932E+03  0.53828433504E+03  0.12500000000E+03 0.  0.
         21    1    1    2  503  504 -0.32075003778E+02 -0.14034503518E+02 -0.59760456556E+02  0.69260994247E+02  0.00000000000E+00 0. -1.
         21    1    1    2  504  501 -0.35439723408E+03  0.17322854161E+03 -0.33136430319E+03  0.51517747290E+03  0.00000000000E+00 0.  1.
<mgrwt>
<rscale>  4 0.43144490E+03</rscale>
<asrwt>0</asrwt>
<pdfrwt beam="1">  1       21 0.80531522E-01 0.43144490E+03</pdfrwt>
<pdfrwt beam="2">  1       21 0.92195063E-01 0.43144490E+03</pdfrwt>
<totfact> 0.11569887E+03</totfact>
</mgrwt>
</event>
<event>
 5    0  0.2159162E+000  0.2864517E+03  0.7546771E-02  0.1092216E+00
         21   -1    0    0  502  501  0.00000000000E+00  0.00000000000E+00  0.13941331064E+04  0.13941331064E+04  0.00000000000E+00 0. -1.
         21   -1    0    0  503  502 -0.00000000000E+00 -0.00000000000E+00 -0.74023916154E+02  0.74023916154E+02  0.00000000000E+00 0. -1.
         25    1    1    2    0    0 -0.22619818500E+03 -0.12354746254E+03  0.10587054119E+04  0.10967733328E+04  0.12500000000E+03 0.  0.
         21    1    1    2  503  504  0.13477212687E+03  0.61794624268E+02  0.11276595660E+03  0.18627469698E+03  0.00000000000E+00 0. -1.
         21    1    1    2  504  501  0.91426058137E+02  0.61752838276E+02  0.14863782172E+03  0.18510899272E+03  0.00000000000E+00 0. -1.
<mgrwt>
<rscale>  4 0.28645173E+03</rscale>
<asrwt>0</asrwt>
<pdfrwt beam="1">  1       21 0.21448200E+00 0.28645173E+03</pdfrwt>
<pdfrwt beam="2">  1       21 0.11388296E-01 0.28645173E+03</pdfrwt>
<totfact> 0.65241223E+03</totfact>
</mgrwt>
</event>
<event>
 5    0  0.2159162E+000  0.1958908E+03  0.7546771E-02  0.1153253E+00
         21   -1    0    0  502  501  0.00000000000E+00  0.00000000000E+00  0.33706593314E+03  0.33706593314E+03  0.00000000000E+00 0. -1.
         21   -1    0    0  503  502 -0.00000000000E+00 -0.00000000000E+00 -0.19746160988E+03  0.19746160988E+03  0.00000000000E+00 0. -1.
         25    1    1    2    0    0 -0.59771163919E+02 -0.19958978603E+03  0.47327151938E+01  0.24301455371E+03  0.12500000000E+03 0.  0.
         21    1    1    2  503  504 -0.39751205570E+02  0.10123940041E+03  0.20237760341E+02  0.11063065345E+03  0.00000000000E+00 0. -1.
         21    1    1    2  504  501  0.99522369489E+02  0.98350385615E+02  0.11463384773E+03  0.18088233585E+03  0.00000000000E+00 0. -1.
<mgrwt>
<rscale>  4 0.19589079E+03</rscale>
<asrwt>0</asrwt>
<pdfrwt beam="1">  1       21 0.51856297E-01 0.19589079E+03</pdfrwt>
<pdfrwt beam="2">  1       21 0.30378709E-01 0.19589079E+03</pdfrwt>
<totfact> 0.36653985E+04</totfact>
</mgrwt>
</event>
<event>
 5    0  0.2159162E+000  0.2902295E+03  0.7546771E-02  0.1090229E+00
         21   -1    0    0  502  501  0.00000000000E+00  0.00000000000E+00  0.29996380864E+03  0.29996380864E+03  0.00000000000E+00 0. -1.
         21   -1    0    0  503  502 -0.00000000000E+00 -0.00000000000E+00 -0.92711193737E+03  0.92711193737E+03  0.00000000000E+00 0. -1.
         25    1    1    2    0    0 -0.12644476447E+03 -0.22939019700E+03  0.20073248951E+03  0.35288337066E+03  0.12500000000E+03 0.  0.
         21    1    1    2  503  504  0.43666518873E+01  0.90668792251E+02 -0.19901322831E+03  0.21873765697E+03  0.00000000000E+00 0.  1.
         21    1    1    2  504  501  0.12207811258E+03  0.13872140475E+03 -0.62886738994E+03  0.65545471837E+03  0.00000000000E+00 0. -1.
<mgrwt>
<rscale>  4 0.29022946E+03</rscale>
<asrwt>0</asrwt>
<pdfrwt beam="1">  1       21 0.46148278E-01 0.29022946E+03</pdfrwt>
<pdfrwt beam="2">  1       21 0.14263261E+00 0.29022946E+03</pdfrwt>
<totfact> 0.14169653E+03</totfact>
</mgrwt>
</event>
<event>
 5    0  0.2159162E+000  0.3216758E+03  0.7546771E-02  0.1074881E+00
         21   -1    0    0  502  501  0.00000000000E+00  0.00000000000E+00  0.69669058928E+03  0.69669058928E+03  0.00000000000E+00 0. -1.
         21   -1    0    0  503  502 -0.00000000000E+00 -0.00000000000E+00 -0.43561297033E+03  0.43561297033E+03  0.00000000000E+00 0.  1.
         25    1    1    2    0    0  0.62463209741E+02 -0.23494933416E+03  0.53314572799E+03  0.59914289570E+03  0.12500000000E+03 0.  0.
         21    1    1    2  503  504  0.57851105740E+02 -0.42319758051E+02  0.53108221015E+02  0.89208718723E+02  0.00000000000E+00 0. -1.
         21    1    1    2  504  501 -0.12031431548E+03  0.27726909221E+03 -0.32517633006E+03  0.44395194519E+03  0.00000000000E+00 0.  1.
<mgrwt>
<rscale>  4 0.32167582E+03</rscale>
<asrwt>0</asrwt>
<pdfrwt beam="1">  1       21 0.10718317E+00 0.32167582E+03</pdfrwt>
<pdfrwt beam="2">  1       21 0.67017380E-01 0.32167582E+03</pdfrwt>
<totfact> 0.12865906E+03</totfact>
</mgrwt>
</event>
<event>
 5    0  0.2159162E+000  0.2317791E+03  0.7546771E-02  0.1125394E+00
         21   -1    0    0  502  501  0.00000000000E+00  0.00000000000E+00  0.82905824952E+02  0.82905824952E+02  0.00000000000E+00 0. -1.
         21   -1    0    0  503  502 -0.00000000000E+00 -0.00000000000E+00 -0.17641698461E+04  0.17641698461E+04  0.00000000000E+00 0.  1.
         25    1    1    2    0    0 -0.22453206371E+03 -0.19123167436E+03 -0.38355938513E+03  0.49972692827E+03  0.12500000000E+03 0.  0.
         21    1    1    2  503  504  0.59186297869E+02  0.11271884898E+03 -0.21976284613E+03  0.25397689917E+03  0.00000000000E+00 0.  1.
         21    1    1    2  504  501  0.16534576585E+03  0.78512825385E+02 -0.10779417899E+04  0.10933718436E+04  0.00000000000E+00 0.  1.
<mgrwt>
<rscale>  4 0.23177909E+03</rscale>
<asrwt>0</asrwt>
<pdfrwt beam="1">  1       21 0.12754743E-01 0.23177909E+03</pdfrwt>
<pdfrwt beam="2">  1       21 0.27141073E+00 0.23177909E+03</pdfrwt>
<totfact> 0.25150262E+03</totfact>
</mgrwt>
</event>
<event>
 5    0  0.2159162E+000  0.2539773E+03  0.7546771E-02  0.1110817E+00
         21   -1    0    0  502  501  0.00000000000E+00  0.00000000000E+00  0.18632731060E+04  0.18632731060E+04  0.00000000000E+00 0.  1.
         21   -1    0    0  503  502 -0.00000000000E+00 -0.00000000000E+00 -0.12681428515E+03  0.12681428515E+03  0.00000000000E+00 0.  1.
         25    1    1    2    0    0 -0.17928875067E+03  0.13111022334E+03  0.17252475138E+04  0.17439719983E+04  0.12500000000E+03 0.  0.
         21    1    1    2  503  504  0.15085561584E+00 -0.22696463661E+02  0.28011957059E+02  0.36053043677E+02  0.00000000000E+00 0.  1.
         21    1    1    2  504  501  0.17913789505E+03 -0.10841375968E+03 -0.16800649995E+02  0.21006234925E+03  0.00000000000E+00 0.  1.
<mgrwt>
<rscale>  4 0.25397727E+03</rscale>
<asrwt>0</asrwt>
<pdfrwt beam="1">  1       21 0.28665738E+00 0.25397727E+03</pdfrwt>
<pdfrwt beam="2">  1       21 0.19509891E-01 0.25397727E+03</pdfrwt>
<totfact> 0.91728728E+02</totfact>
</mgrwt>
</event>
<event>
 5    0  0.2159162E+000  0.2571732E+03  0.7546771E-02  0.1108854E+00
         21   -1    0    0  502  501  0.00000000000E+00  0.00000000000E+00  0.18275630185E+03  0.18275630185E+03  0.00000000000E+00 0.  1.
         21   -1    0    0  503  502 -0.00000000000E+00 -0.00000000000E+00 -0.37594319433E+03  0.37594319433E+03  0.00000000000E+00 0. -1.
         25    1    1    2    0    0 -0.11614520722E+03 -0.19241451684E+03  0.41535595231E+01  0.25720674079E+03  0.12500000000E+03 0.  0.
         21    1    1    2  503  504  0.14134638838E+02  0.18827989452E+02 -0.73525465033E+01  0.24664572609E+02  0.00000000000E+00 0. -1.
         21    1    1    2  504  501  0.10201056838E+03  0.17358652738E+03 -0.18998790550E+03  0.27682818279E+03  0.00000000000E+00 0. -1.
<mgrwt>
<rscale>  4 0.25717320E+03</rscale>
<asrwt>0</asrwt>
<pdfrwt beam="1">  1       21 0.28116355E-01 0.25717320E+03</pdfrwt>
<pdfrwt beam="2">  1       21 0.57837414E-01 0.25717320E+03</pdfrwt>
<totfact> 0.32835484E+04</totfact>
</mgrwt>
</event>
<event>
 5    0  0.2159162E+000  0.3443811E+03  0.7546771E-02  0.1064945E+00
         21   -1    0    0  502  501  0.00000000000E+00  0.00000000000E+00  0.37596464968E+03  0.37596464968E+03  0.00000000000E+00 0. -1.
         21   -1    0    0  503  502 -0.00000000000E+00 -0.00000000000E+00 -0.13786288461E+04  0.13786288461E+04  0.00000000000E+00 0. -1.
         25    1    1    2    0    0 -0.32323473342E+03  0.79535869251E+01  0.25615751098E+03  0.43102856386E+03  0.12500000000E+03 0.  0.
         21    1    1    2  503  504  0.31440932723E+02  0.92591158393E+02 -0.36913361072E+03  0.38186552270E+03  0.00000000000E+00 0. -1.
         21    1    1    2  504  501  0.29179380069E+03 -0.10054474532E+03 -0.88968809665E+03  0.94169940918E+03  0.00000000000E+00 0. -1.
<mgrwt>
<rscale>  4 0.34438110E+03</rscale>
<asrwt>0</asrwt>
<pdfrwt beam="1">  1       21 0.57840716E-01 0.34438110E+03</pdfrwt>
<pdfrwt beam="2">  1       21 0.21209674E+00 0.34438110E+03</pdfrwt>
<totfact> 0.27260775E+02</totfact>
</mgrwt>
</event>
<event>
 5    0  0.2159162E+000  0.2649175E+03  0.7546771E-02  0.1104224E+00
         21   -1    0    0  502  501  0.00000000000E+00  0.00000000000E+00  0.33363869766E+03  0.33363869766E+03  0.00000000000E+00 0.  1.
         21   -1    0    0  503  502 -0.00000000000E+00 -0.00000000000E+00 -0.22861276163E+03  0.22861276163E+03  0.00000000000E+00 0. -1.
         25    1    1    2    0    0 -0.21440324287E+03 -0.55194090265E+02  0.72446930480E+02  0.26436470243E+03  0.12500000000E+03 0.  0.
         21    1    1    2  503  504  0.23064365666E+03  0.87471199218E+02  0.58380507968E+02  0.25348765406E+03  0.00000000000E+00 0. -1.
         21    1    1    2  504  501 -0.16240413789E+02 -0.32277108952E+02 -0.25801502421E+02  0.44399102801E+02  0.00000000000E+00 0. -1.
<mgrwt>
<rscale>  4 0.26491753E+03</rscale>
<asrwt>0</asrwt>
<pdfrwt beam="1">  1       21 0.51329031E-01 0.26491753E+03</pdfrwt>
<pdfrwt beam="2">  1       21 0.35171194E-01 0.26491753E+03</pdfrwt>
<totfact> 0.27123318E+04</totfact>
</mgrwt>
</event>
<event>
 5    0  0.2839983E+000  0.2523221E+03  0.7546771E-02  0.1111846E+00
         21   -1    0    0  502  501  0.00000000000E+00  0.00000000000E+00  0.11865520172E+03  0.11865520172E+03  0.00000000000E+00 0.  1.
         21   -1    0    0  503  502 -0.00000000000E+00 -0.00000000000E+00 -0.52078049127E+03  0.52078049127E+03  0.00000000000E+00 0.  1.
         25    1    1    2    0    0  0.21844714074E+03 -0.17952969553E+02 -0.29315608210E+03  0.38679057756E+03  0.12500000000E+03 0.  0.
         21    1    1    2  503  504 -0.19939879173E+03 -0.30130293947E+01 -0.91954109073E+02  0.21960080753E+03  0.00000000000E+00 0.  1.
         21    1    1    2  504  501 -0.19048349009E+02  0.20965998947E+02 -0.17015098376E+02  0.33044307900E+02  0.00000000000E+00 0.  1.
<mgrwt>
<rscale>  4 0.25232214E+03</rscale>
<asrwt>0</asrwt>
<pdfrwt beam="1">  1       21 0.18254646E-01 0.25232214E+03</pdfrwt>
<pdfrwt beam="2">  1       21 0.80120077E-01 0.25232214E+03</pdfrwt>
<totfact> 0.36423750E+04</totfact>
</mgrwt>
</event>
