<event>
 5    0  0.1856407E+000  0.3277470E+03  0.7546771E-02  0.1072138E+00
         21   -1    0    0  502  501  0.00000000000E+00  0.00000000000E+00  0.35346916210E+03  0.35346916210E+03  0.00000000000E+00 0. -1.
         21   -1    0    0  503  502 -0.00000000000E+00 -0.00000000000E+00 -0.36453804609E+03  0.36453804609E+03  0.00000000000E+00 0. -1.
         25    1    1    2    0    0  0.62282164335E+02  0.28915808188E+03 -0.54150664183E+02  0.32565128396E+03  0.12500000000E+03 0.  0.
         21    1    1    2  503  504 -0.24900852449E+01 -0.30996011215E+03  0.78579961362E+02  0.31977536175E+03  0.00000000000E+00 0. -1.
         21    1    1    2  504  501 -0.59792079090E+02  0.20802030274E+02 -0.35498181170E+02  0.72580562493E+02  0.00000000000E+00 0. -1.
<mgrwt>
<rscale>  4 0.32774697E+03</rscale>
<asrwt>0</asrwt>
<pdfrwt beam="1">  1       21 0.54379871E-01 0.32774697E+03</pdfrwt>
<pdfrwt beam="2">  1       21 0.56082776E-01 0.32774697E+03</pdfrwt>
<totfact> 0.88829943E+03</totfact>
</mgrwt>
</event>
<event>
 5    0  0.1856407E+000  0.2564186E+03  0.7546771E-02  0.1109314E+00
         21   -1    0    0  502  501  0.00000000000E+00  0.00000000000E+00  0.35537349865E+03  0.35537349865E+03  0.00000000000E+00 0.  1.
         21   -1    0    0  503  502 -0.00000000000E+00 -0.00000000000E+00 -0.28218157685E+03  0.28218157685E+03  0.00000000000E+00 0. -1.
         25    1    1    2    0    0  0.49586908764E+02 -0.26153633592E+03  0.87281904386E+02  0.30676252600E+03  0.12500000000E+03 0.  0.
         21    1    1    2  503  504 -0.21285421987E+02  0.65327580134E+02 -0.94523914023E+02  0.11685688785E+03  0.00000000000E+00 0. -1.
         21    1    1    2  504  501 -0.28301486776E+02  0.19620875579E+03  0.80433931439E+02  0.21393566165E+03  0.00000000000E+00 0. -1.
<mgrwt>
<rscale>  4 0.25641859E+03</rscale>
<asrwt>0</asrwt>
<pdfrwt beam="1">  1       21 0.54672846E-01 0.25641859E+03</pdfrwt>
<pdfrwt beam="2">  1       21 0.43412550E-01 0.25641859E+03</pdfrwt>
<totfact> 0.15540733E+04</totfact>
</mgrwt>
</event>
<event>
 5    0  0.1856407E+000  0.2528308E+03  0.7546771E-02  0.1111529E+00
         21   -1    0    0  502  501  0.00000000000E+00  0.00000000000E+00  0.80340944654E+02  0.80340944654E+02  0.00000000000E+00 0. -1.
         21   -1    0    0  503  502 -0.00000000000E+00 -0.00000000000E+00 -0.71902043377E+03  0.71902043377E+03  0.00000000000E+00 0. -1.
         25    1    1    2    0    0  0.15103635523E+03  0.15964463440E+03 -0.37774300651E+03  0.45454721301E+03  0.12500000000E+03 0.  0.
         21    1    1    2  503  504 -0.38196280839E+02 -0.38840114221E+02 -0.10125011871E+03  0.11497433140E+03  0.00000000000E+00 0. -1.
         21    1    1    2  504  501 -0.11284007439E+03 -0.12080452018E+03 -0.15968636390E+03  0.22983983401E+03  0.00000000000E+00 0. -1.
<mgrwt>
<rscale>  4 0.25283075E+03</rscale>
<asrwt>0</asrwt>
<pdfrwt beam="1">  1       21 0.12360145E-01 0.25283075E+03</pdfrwt>
<pdfrwt beam="2">  1       21 0.11061853E+00 0.25283075E+03</pdfrwt>
<totfact> 0.34773321E+04</totfact>
</mgrwt>
</event>
<event>
 5    0  0.1856407E+000  0.3266861E+03  0.7546771E-02  0.1072613E+00
         21   -1    0    0  502  501  0.00000000000E+00  0.00000000000E+00  0.15777607136E+03  0.15777607136E+03  0.00000000000E+00 0. -1.
         21   -1    0    0  503  502 -0.00000000000E+00 -0.00000000000E+00 -0.90546338681E+03  0.90546338681E+03  0.00000000000E+00 0. -1.
         25    1    1    2    0    0 -0.29306172826E+03  0.72205612953E+02 -0.98981757480E+02  0.34135204032E+03  0.12500000000E+03 0.  0.
         21    1    1    2  503  504  0.10733166714E+03 -0.68288362358E+02 -0.21087436684E+03  0.24627502065E+03  0.00000000000E+00 0. -1.
         21    1    1    2  504  501  0.18573006112E+03 -0.39172505956E+01 -0.43783119113E+03  0.47561239721E+03  0.00000000000E+00 0. -1.
<mgrwt>
<rscale>  4 0.32668613E+03</rscale>
<asrwt>0</asrwt>
<pdfrwt beam="1">  1       21 0.24273241E-01 0.32668613E+03</pdfrwt>
<pdfrwt beam="2">  1       21 0.13930206E+00 0.32668613E+03</pdfrwt>
<totfact> 0.53350550E+03</totfact>
</mgrwt>
</event>
<event>
 5    0  0.1856407E+000  0.2506053E+03  0.7546771E-02  0.1112923E+00
         21   -1    0    0  502  501  0.00000000000E+00  0.00000000000E+00  0.16522576832E+04  0.16522576832E+04  0.00000000000E+00 0. -1.
         21   -1    0    0  503  502 -0.00000000000E+00 -0.00000000000E+00 -0.19554532498E+03  0.19554532498E+03  0.00000000000E+00 0.  1.
         25    1    1    2    0    0 -0.17813467302E+03  0.12428220049E+03  0.15675339822E+04  0.15874400186E+04  0.12500000000E+03 0.  0.
         21    1    1    2  503  504  0.95287308304E+02 -0.23839212514E+02 -0.79705379753E+02  0.12649476961E+03  0.00000000000E+00 0.  1.
         21    1    1    2  504  501  0.82847364713E+02 -0.10044298798E+03 -0.31116244243E+02  0.13386822001E+03  0.00000000000E+00 0. -1.
<mgrwt>
<rscale>  4 0.25060532E+03</rscale>
<asrwt>0</asrwt>
<pdfrwt beam="1">  1       21 0.25419348E+00 0.25060532E+03</pdfrwt>
<pdfrwt beam="2">  1       21 0.30083897E-01 0.25060532E+03</pdfrwt>
<totfact> 0.62303052E+02</totfact>
</mgrwt>
</event>
<event>
 5    0  0.1856407E+000  0.2559608E+03  0.7546771E-02  0.1109595E+00
         21   -1    0    0  502  501  0.00000000000E+00  0.00000000000E+00  0.24364024745E+03  0.24364024745E+03  0.00000000000E+00 0.  1.
         21   -1    0    0  503  502 -0.00000000000E+00 -0.00000000000E+00 -0.29520952545E+03  0.29520952545E+03  0.00000000000E+00 0.  1.
         25    1    1    2    0    0  0.21723942892E+03  0.51941923745E+02  0.62887592782E+02  0.26357310607E+03  0.12500000000E+03 0.  0.
         21    1    1    2  503  504 -0.11164468534E+03  0.20079351340E+02 -0.90771628095E+02  0.14528318754E+03  0.00000000000E+00 0.  1.
         21    1    1    2  504  501 -0.10559474357E+03 -0.72021275085E+02 -0.23685242691E+02  0.12999347929E+03  0.00000000000E+00 0.  1.
<mgrwt>
<rscale>  4 0.25596080E+03</rscale>
<asrwt>0</asrwt>
<pdfrwt beam="1">  1       21 0.37483115E-01 0.25596080E+03</pdfrwt>
<pdfrwt beam="2">  1       21 0.45416850E-01 0.25596080E+03</pdfrwt>
<totfact> 0.30942157E+04</totfact>
</mgrwt>
</event>
<event>
 5    0  0.1856407E+000  0.2444404E+03  0.7546771E-02  0.1116870E+00
         21   -1    0    0  502  501  0.00000000000E+00  0.00000000000E+00  0.94256182343E+02  0.94256182343E+02  0.00000000000E+00 0. -1.
         21   -1    0    0  503  502 -0.00000000000E+00 -0.00000000000E+00 -0.67852609782E+03  0.67852609782E+03  0.00000000000E+00 0. -1.
         25    1    1    2    0    0 -0.11407346229E+03  0.17638981468E+03 -0.16624536459E+03  0.29561570116E+03  0.12500000000E+03 0.  0.
         21    1    1    2  503  504  0.50901460629E+02 -0.57212045139E+02 -0.25131377837E+03  0.26272189098E+03  0.00000000000E+00 0. -1.
         21    1    1    2  504  501  0.63172001663E+02 -0.11917776954E+03 -0.16671077251E+03  0.21444468802E+03  0.00000000000E+00 0. -1.
<mgrwt>
<rscale>  4 0.24444043E+03</rscale>
<asrwt>0</asrwt>
<pdfrwt beam="1">  1       21 0.14500950E-01 0.24444043E+03</pdfrwt>
<pdfrwt beam="2">  1       21 0.10438864E+00 0.24444043E+03</pdfrwt>
<totfact> 0.30072086E+04</totfact>
</mgrwt>
</event>
<event>
 5    0  0.1856407E+000  0.2547578E+03  0.7546771E-02  0.1110334E+00
         21   -1    0    0  502  501  0.00000000000E+00  0.00000000000E+00  0.13042383957E+03  0.13042383957E+03  0.00000000000E+00 0. -1.
         21   -1    0    0  503  502 -0.00000000000E+00 -0.00000000000E+00 -0.54803489855E+03  0.54803489855E+03  0.00000000000E+00 0.  1.
         25    1    1    2    0    0 -0.20392778486E+03 -0.87692727306E+02 -0.82290371484E+02  0.26771862300E+03  0.12500000000E+03 0.  0.
         21    1    1    2  503  504  0.90178749724E+02  0.19717736044E+01 -0.92298724079E+02  0.12905483044E+03  0.00000000000E+00 0.  1.
         21    1    1    2  504  501  0.11374903514E+03  0.85720953702E+02 -0.24302196342E+03  0.28168528468E+03  0.00000000000E+00 0.  1.
<mgrwt>
<rscale>  4 0.25475784E+03</rscale>
<asrwt>0</asrwt>
<pdfrwt beam="1">  1       21 0.20065206E-01 0.25475784E+03</pdfrwt>
<pdfrwt beam="2">  1       21 0.84313061E-01 0.25475784E+03</pdfrwt>
<totfact> 0.27121829E+04</totfact>
</mgrwt>
</event>
<event>
 5    0  0.1856407E+000  0.2181738E+03  0.7546771E-02  0.1135252E+00
         21   -1    0    0  502  501  0.00000000000E+00  0.00000000000E+00  0.73807724281E+03  0.73807724281E+03  0.00000000000E+00 0.  1.
         21   -1    0    0  503  502 -0.00000000000E+00 -0.00000000000E+00 -0.85809319751E+02  0.85809319751E+02  0.00000000000E+00 0.  1.
         25    1    1    2    0    0 -0.50121350047E+02  0.21411374198E+03  0.40526282551E+03  0.47772356229E+03  0.12500000000E+03 0.  0.
         21    1    1    2  503  504  0.13379387103E+02 -0.65808661356E+02  0.15724129274E+02  0.68971270469E+02  0.00000000000E+00 0.  1.
         21    1    1    2  504  501  0.36741962945E+02 -0.14830508062E+03  0.23128096828E+03  0.27719172980E+03  0.00000000000E+00 0.  1.
<mgrwt>
<rscale>  4 0.21817380E+03</rscale>
<asrwt>0</asrwt>
<pdfrwt beam="1">  1       21 0.11355034E+00 0.21817380E+03</pdfrwt>
<pdfrwt beam="2">  1       21 0.13201434E-01 0.21817380E+03</pdfrwt>
<totfact> 0.29462788E+04</totfact>
</mgrwt>
</event>
<event>
 5    0  0.1856407E+000  0.2572651E+03  0.7546771E-02  0.1108798E+00
         21   -1    0    0  502  501  0.00000000000E+00  0.00000000000E+00  0.70308973228E+03  0.70308973228E+03  0.00000000000E+00 0.  1.
         21   -1    0    0  503  502 -0.00000000000E+00 -0.00000000000E+00 -0.13352715267E+03  0.13352715267E+03  0.00000000000E+00 0.  1.
         25    1    1    2    0    0 -0.16895173973E+03  0.14837669751E+03  0.53775631036E+03  0.59612681877E+03  0.12500000000E+03 0.  0.
         21    1    1    2  503  504  0.10646724343E+03 -0.11350741804E+03  0.55327959920E+02  0.16516776629E+03  0.00000000000E+00 0.  1.
         21    1    1    2  504  501  0.62484496297E+02 -0.34869279476E+02 -0.23521690667E+02  0.75322299888E+02  0.00000000000E+00 0.  1.
<mgrwt>
<rscale>  4 0.25726511E+03</rscale>
<asrwt>0</asrwt>
<pdfrwt beam="1">  1       21 0.10816765E+00 0.25726511E+03</pdfrwt>
<pdfrwt beam="2">  1       21 0.20542639E-01 0.25726511E+03</pdfrwt>
<totfact> 0.14370019E+04</totfact>
</mgrwt>
</event>
<event>
 5    0  0.1856407E+000  0.7128690E+03  0.7546771E-02  0.9698607E-01
         21   -1    0    0  502  501  0.00000000000E+00  0.00000000000E+00  0.34478898302E+04  0.34478898302E+04  0.00000000000E+00 0. -1.
         21   -1    0    0  503  502 -0.00000000000E+00 -0.00000000000E+00 -0.38088850285E+03  0.38088850285E+03  0.00000000000E+00 0.  1.
         25    1    1    2    0    0 -0.30984368843E+02  0.69355877558E+03  0.30342367623E+04  0.31151567434E+04  0.12500000000E+03 0.  0.
         21    1    1    2  503  504  0.17965362024E+02 -0.63305125391E+03 -0.18017557122E+02  0.63356237000E+03  0.00000000000E+00 0.  1.
         21    1    1    2  504  501  0.13019006820E+02 -0.60507521663E+02  0.50782122137E+02  0.80059219614E+02  0.00000000000E+00 0. -1.
<mgrwt>
<rscale>  4 0.71099790E+03</rscale>
<asrwt>0</asrwt>
<pdfrwt beam="1">  1       21 0.53044457E+00 0.71286903E+03</pdfrwt>
<pdfrwt beam="2">  1       21 0.58598234E-01 0.71286903E+03</pdfrwt>
<totfact> 0.18364306E+00</totfact>
</mgrwt>
</event>
<event>
 5    0  0.1856407E+000  0.2762827E+03  0.7546771E-02  0.1097737E+00
         21   -1    0    0  502  501  0.00000000000E+00  0.00000000000E+00  0.19687471751E+04  0.19687471751E+04  0.00000000000E+00 0.  1.
         21   -1    0    0  503  502 -0.00000000000E+00 -0.00000000000E+00 -0.57368399963E+03  0.57368399963E+03  0.00000000000E+00 0. -1.
         25    1    1    2    0    0  0.17803009728E+03  0.17984277790E+03  0.19200926895E+04  0.19407264302E+04  0.12500000000E+03 0.  0.
         21    1    1    2  503  504 -0.55306799238E+02 -0.11253979187E+03 -0.37997873845E+03  0.40013483786E+03  0.00000000000E+00 0. -1.
         21    1    1    2  504  501 -0.12272329804E+03 -0.67302986032E+02 -0.14505077558E+03  0.20156990675E+03  0.00000000000E+00 0. -1.
<mgrwt>
<rscale>  4 0.27628267E+03</rscale>
<asrwt>0</asrwt>
<pdfrwt beam="1">  1       21 0.30288418E+00 0.27628267E+03</pdfrwt>
<pdfrwt beam="2">  1       21 0.88259078E-01 0.27628267E+03</pdfrwt>
<totfact> 0.31875623E+01</totfact>
</mgrwt>
</event>
<event>
 5    0  0.1856407E+000  0.2420134E+03  0.7546771E-02  0.1118459E+00
         21   -1    0    0  502  501  0.00000000000E+00  0.00000000000E+00  0.17245535592E+03  0.17245535592E+03  0.00000000000E+00 0.  1.
         21   -1    0    0  503  502 -0.00000000000E+00 -0.00000000000E+00 -0.15038497518E+04  0.15038497518E+04  0.00000000000E+00 0.  1.
         25    1    1    2    0    0 -0.14219509306E+03  0.15075157574E+03  0.75052848915E+02  0.25338392255E+03  0.12500000000E+03 0.  0.
         21    1    1    2  503  504  0.51671246479E+02 -0.24028862938E+02 -0.27818503515E+03  0.28396164838E+03  0.00000000000E+00 0.  1.
         21    1    1    2  504  501  0.90523846583E+02 -0.12672271280E+03 -0.11282622096E+04  0.11389595367E+04  0.00000000000E+00 0.  1.
<mgrwt>
<rscale>  4 0.24201339E+03</rscale>
<asrwt>0</asrwt>
<pdfrwt beam="1">  1       21 0.26531594E-01 0.24201339E+03</pdfrwt>
<pdfrwt beam="2">  1       21 0.23136149E+00 0.24201339E+03</pdfrwt>
<totfact> 0.11005136E+03</totfact>
</mgrwt>
</event>
<event>
 5    0  0.1856407E+000  0.2715849E+03  0.7546771E-02  0.1100376E+00
         21   -1    0    0  502  501  0.00000000000E+00  0.00000000000E+00  0.16028122464E+04  0.16028122464E+04  0.00000000000E+00 0.  1.
         21   -1    0    0  503  502 -0.00000000000E+00 -0.00000000000E+00 -0.12677605566E+03  0.12677605566E+03  0.00000000000E+00 0.  1.
         25    1    1    2    0    0 -0.19006553729E+03  0.14835242131E+03  0.14570279667E+04  0.14821230870E+04  0.12500000000E+03 0.  0.
         21    1    1    2  503  504  0.16473231280E+03 -0.13766562430E+03  0.32001689260E+02  0.21705452566E+03  0.00000000000E+00 0.  1.
         21    1    1    2  504  501  0.25333224491E+02 -0.10686797001E+02 -0.12993465169E+02  0.30410689409E+02  0.00000000000E+00 0. -1.
<mgrwt>
<rscale>  4 0.27158488E+03</rscale>
<asrwt>0</asrwt>
<pdfrwt beam="1">  1       21 0.24658648E+00 0.27158488E+03</pdfrwt>
<pdfrwt beam="2">  1       21 0.19504010E-01 0.27158488E+03</pdfrwt>
<totfact> 0.15581659E+03</totfact>
</mgrwt>
</event>
