<event>
 5    0  0.1943430E+001  0.2779032E+03  0.7546771E-02  0.1096840E+00
         21   -1    0    0  502  501  0.00000000000E+00  0.00000000000E+00  0.22249236225E+04  0.22249236225E+04  0.00000000000E+00 0.  1.
         21   -1    0    0  503  502 -0.00000000000E+00 -0.00000000000E+00 -0.37604594607E+02  0.37604594607E+02  0.00000000000E+00 0. -1.
         25    1    1    2    0    0 -0.11671217421E+03  0.20203587757E+03  0.81829545522E+03  0.86004225447E+03  0.12500000000E+03 0.  0.
         21    1    1    2  503  504  0.15679739732E+03 -0.20526488360E+03  0.12618508112E+04  0.12880165240E+04  0.00000000000E+00 0.  1.
         21    1    1    2  504  501 -0.40085223108E+02  0.32290060317E+01  0.10717276144E+03  0.11446943866E+03  0.00000000000E+00 0. -1.
<mgrwt>
<rscale>  4 0.27790321E+03</rscale>
<asrwt>0</asrwt>
<pdfrwt beam="1">  1       21 0.34229584E+00 0.27790321E+03</pdfrwt>
<pdfrwt beam="2">  1       21 0.57853240E-02 0.27790321E+03</pdfrwt>
<totfact> 0.37187497E+03</totfact>
</mgrwt>
</event>
<event>
 5    0  0.1943430E+001  0.2411891E+03  0.7546771E-02  0.1119003E+00
         21   -1    0    0  504  501  0.00000000000E+00  0.00000000000E+00  0.10190006321E+03  0.10190006321E+03  0.00000000000E+00 0. -1.
         21   -1    0    0  501  502 -0.00000000000E+00 -0.00000000000E+00 -0.11334510027E+04  0.11334510027E+04  0.00000000000E+00 0.  1.
         25    1    1    2    0    0 -0.21129356214E+03  0.91609020274E+00 -0.97823204475E+02  0.26427294216E+03  0.12500000000E+03 0.  0.
         21    1    1    2  503  502  0.29250338060E+02 -0.52995009498E+02 -0.10691089106E+03  0.12285760837E+03  0.00000000000E+00 0.  1.
         21    1    1    2  504  503  0.18204322408E+03  0.52078919295E+02 -0.82681684399E+03  0.84822051542E+03  0.00000000000E+00 0.  1.
<mgrwt>
<rscale>  4 0.24118915E+03</rscale>
<asrwt>0</asrwt>
<pdfrwt beam="1">  1       21 0.15676933E-01 0.24118915E+03</pdfrwt>
<pdfrwt beam="2">  1       21 0.17437707E+00 0.24118915E+03</pdfrwt>
<totfact> 0.69344643E+03</totfact>
</mgrwt>
</event>
<event>
 5    0  0.1943430E+001  0.2476194E+03  0.7546771E-02  0.1114819E+00
         21   -1    0    0  503  501  0.00000000000E+00  0.00000000000E+00  0.99055370950E+03  0.99055370950E+03  0.00000000000E+00 0. -1.
         21   -1    0    0  504  502 -0.00000000000E+00 -0.00000000000E+00 -0.31995298448E+03  0.31995298448E+03  0.00000000000E+00 0.  1.
         25    1    1    2    0    0 -0.65986138750E+02 -0.20367788164E+03  0.92466140373E+03  0.95732051139E+03  0.12500000000E+03 0.  0.
         21    1    1    2  503  502  0.87894723972E+02  0.18966850200E+03 -0.25153075365E+03  0.32705862347E+03  0.00000000000E+00 0.  1.
         21    1    1    2  504  501 -0.21908585223E+02  0.14009379635E+02 -0.25299250649E+01  0.26127559110E+02  0.00000000000E+00 0. -1.
<mgrwt>
<rscale>  4 0.24761936E+03</rscale>
<asrwt>0</asrwt>
<pdfrwt beam="1">  1       21 0.15239288E+00 0.24761936E+03</pdfrwt>
<pdfrwt beam="2">  1       21 0.49223536E-01 0.24761936E+03</pdfrwt>
<totfact> 0.10721428E+03</totfact>
</mgrwt>
</event>
<event>
 5    0  0.1943430E+001  0.3873903E+03  0.7546771E-02  0.1048236E+00
         21   -1    0    0  503  501  0.00000000000E+00  0.00000000000E+00  0.49672979379E+03  0.49672979379E+03  0.00000000000E+00 0.  1.
         21   -1    0    0  504  502 -0.00000000000E+00 -0.00000000000E+00 -0.76045311503E+03  0.76045311503E+03  0.00000000000E+00 0.  1.
         25    1    1    2    0    0 -0.32118306333E+03  0.21703886036E+03 -0.12208479382E+02  0.40747818843E+03  0.12500000000E+03 0.  0.
         21    1    1    2  503  502  0.44705299737E+02  0.80432630710E+01 -0.44279484950E+03  0.44511856471E+03  0.00000000000E+00 0.  1.
         21    1    1    2  504  501  0.27647776359E+03 -0.22508212344E+03  0.19128000764E+03  0.40458615568E+03  0.00000000000E+00 0.  1.
<mgrwt>
<rscale>  4 0.38739030E+03</rscale>
<asrwt>0</asrwt>
<pdfrwt beam="1">  1       21 0.76419969E-01 0.38739030E+03</pdfrwt>
<pdfrwt beam="2">  1       21 0.11699279E+00 0.38739030E+03</pdfrwt>
<totfact> 0.74426030E+02</totfact>
</mgrwt>
</event>
<event>
 5    0  0.1943430E+001  0.2647059E+03  0.7546771E-02  0.1104348E+00
         21   -1    0    0  504  501  0.00000000000E+00  0.00000000000E+00  0.12398268704E+04  0.12398268704E+04  0.00000000000E+00 0.  1.
         21   -1    0    0  503  502 -0.00000000000E+00 -0.00000000000E+00 -0.98360142636E+02  0.98360142636E+02  0.00000000000E+00 0.  1.
         25    1    1    2    0    0  0.10322280199E+03 -0.20698092113E+03  0.98127967586E+03  0.10158891922E+04  0.12500000000E+03 0.  0.
         21    1    1    2  503  501 -0.12531646663E+03  0.20619966588E+03  0.17285437809E+03  0.29681838730E+03  0.00000000000E+00 0.  1.
         21    1    1    2  504  502  0.22093664640E+02  0.78125525162E+00 -0.12667326235E+02  0.25479433489E+02  0.00000000000E+00 0.  1.
<mgrwt>
<rscale>  4 0.26470594E+03</rscale>
<asrwt>0</asrwt>
<pdfrwt beam="1">  1       21 0.19074258E+00 0.26470594E+03</pdfrwt>
<pdfrwt beam="2">  1       21 0.15132331E-01 0.26470594E+03</pdfrwt>
<totfact> 0.56302052E+03</totfact>
</mgrwt>
</event>
<event>
 5    0  0.1943430E+001  0.3041886E+03  0.7546771E-02  0.1083165E+00
         21   -1    0    0  503  501  0.00000000000E+00  0.00000000000E+00  0.55886026059E+03  0.55886026059E+03  0.00000000000E+00 0.  1.
         21   -1    0    0  504  502 -0.00000000000E+00 -0.00000000000E+00 -0.31814441684E+03  0.31814441684E+03  0.00000000000E+00 0. -1.
         25    1    1    2    0    0  0.24840703933E+03 -0.11231531286E+03  0.39732201428E+03  0.49780575501E+03  0.12500000000E+03 0.  0.
         21    1    1    2  503  502  0.10285279197E+02 -0.36026934588E+02 -0.50064595358E+02  0.62531517592E+02  0.00000000000E+00 0. -1.
         21    1    1    2  504  501 -0.25869231852E+03  0.14834224745E+03 -0.10654157518E+03  0.31666740483E+03  0.00000000000E+00 0. -1.
<mgrwt>
<rscale>  4 0.30418863E+03</rscale>
<asrwt>0</asrwt>
<pdfrwt beam="1">  1       21 0.85978501E-01 0.30418863E+03</pdfrwt>
<pdfrwt beam="2">  1       21 0.48945295E-01 0.30418863E+03</pdfrwt>
<totfact> 0.43262930E+03</totfact>
</mgrwt>
</event>
<event>
 5    0  0.1943430E+001  0.3046150E+03  0.7546771E-02  0.1082956E+00
         21   -1    0    0  504  501  0.00000000000E+00  0.00000000000E+00  0.16080991481E+04  0.16080991481E+04  0.00000000000E+00 0. -1.
         21   -1    0    0  503  502 -0.00000000000E+00 -0.00000000000E+00 -0.38178910626E+03  0.38178910626E+03  0.00000000000E+00 0. -1.
         25    1    1    2    0    0 -0.24844760063E+03 -0.11582227148E+03  0.13182396430E+04  0.13522284441E+04  0.12500000000E+03 0.  0.
         21    1    1    2  503  501  0.26670592609E+03  0.12612808331E+03  0.19261986645E+03  0.35233898076E+03  0.00000000000E+00 0. -1.
         21    1    1    2  504  502 -0.18258325460E+02 -0.10305811825E+02 -0.28454946760E+03  0.28532082945E+03  0.00000000000E+00 0. -1.
<mgrwt>
<rscale>  4 0.30461504E+03</rscale>
<asrwt>0</asrwt>
<pdfrwt beam="1">  1       21 0.24739986E+00 0.30461504E+03</pdfrwt>
<pdfrwt beam="2">  1       21 0.58736787E-01 0.30461504E+03</pdfrwt>
<totfact> 0.16437578E+02</totfact>
</mgrwt>
</event>
<event>
 5    0  0.1943430E+001  0.2437728E+03  0.7546771E-02  0.1117305E+00
         21   -1    0    0  503  501  0.00000000000E+00  0.00000000000E+00  0.67988042399E+02  0.67988042399E+02  0.00000000000E+00 0.  1.
         21   -1    0    0  504  502 -0.00000000000E+00 -0.00000000000E+00 -0.11399325582E+04  0.11399325582E+04  0.00000000000E+00 0.  1.
         25    1    1    2    0    0 -0.67163889792E+02  0.19821507078E+03 -0.22987641371E+03  0.33506472204E+03  0.12500000000E+03 0.  0.
         21    1    1    2  503  502  0.26937455766E+02 -0.13620109434E+03 -0.68931034775E+03  0.70315369596E+03  0.00000000000E+00 0.  1.
         21    1    1    2  504  501  0.40226434026E+02 -0.62013976442E+02 -0.15275775433E+03  0.16970218260E+03  0.00000000000E+00 0.  1.
<mgrwt>
<rscale>  4 0.24377285E+03</rscale>
<asrwt>0</asrwt>
<pdfrwt beam="1">  1       21 0.10459699E-01 0.24377285E+03</pdfrwt>
<pdfrwt beam="2">  1       21 0.17537424E+00 0.24377285E+03</pdfrwt>
<totfact> 0.14160753E+04</totfact>
</mgrwt>
</event>
<event>
 5    0  0.1943430E+001  0.2804112E+03  0.7546771E-02  0.1095465E+00
         21   -1    0    0  504  501  0.00000000000E+00  0.00000000000E+00  0.74400968927E+03  0.74400968927E+03  0.00000000000E+00 0. -1.
         21   -1    0    0  501  502 -0.00000000000E+00 -0.00000000000E+00 -0.25273303800E+03  0.25273303800E+03  0.00000000000E+00 0.  1.
         25    1    1    2    0    0  0.31618269373E+02 -0.25975909284E+03  0.56438114896E+03  0.63452784224E+03  0.12500000000E+03 0.  0.
         21    1    1    2  503  502  0.64182852436E+02  0.20308571296E+03 -0.11647546548E+03  0.24275456621E+03  0.00000000000E+00 0.  1.
         21    1    1    2  504  503 -0.95801121809E+02  0.56673379880E+02  0.43370967788E+02  0.11946031882E+03  0.00000000000E+00 0.  1.
<mgrwt>
<rscale>  4 0.28041118E+03</rscale>
<asrwt>0</asrwt>
<pdfrwt beam="1">  1       21 0.11446303E+00 0.28041118E+03</pdfrwt>
<pdfrwt beam="2">  1       21 0.38882006E-01 0.28041118E+03</pdfrwt>
<totfact> 0.35524060E+03</totfact>
</mgrwt>
</event>
<event>
 5    0  0.1943430E+001  0.3227489E+03  0.7546771E-02  0.1074391E+00
         21   -1    0    0  504  501  0.00000000000E+00  0.00000000000E+00  0.47423338422E+03  0.47423338422E+03  0.00000000000E+00 0.  1.
         21   -1    0    0  501  502 -0.00000000000E+00 -0.00000000000E+00 -0.74299195176E+03  0.74299195176E+03  0.00000000000E+00 0. -1.
         25    1    1    2    0    0 -0.27879736089E+03  0.10662479352E+03  0.37251214395E+03  0.49344413303E+03  0.12500000000E+03 0.  0.
         21    1    1    2  503  502  0.17837934358E+02  0.20993974718E+02 -0.15436228318E+03  0.15680131806E+03  0.00000000000E+00 0. -1.
         21    1    1    2  504  503  0.26095942653E+03 -0.12761876824E+03 -0.48690842832E+03  0.56697988489E+03  0.00000000000E+00 0. -1.
<mgrwt>
<rscale>  4 0.32274891E+03</rscale>
<asrwt>0</asrwt>
<pdfrwt beam="1">  1       21 0.72958982E-01 0.32274891E+03</pdfrwt>
<pdfrwt beam="2">  1       21 0.11430645E+00 0.32274891E+03</pdfrwt>
<totfact> 0.90780964E+02</totfact>
</mgrwt>
</event>
<event>
 5    0  0.1943430E+001  0.2361669E+03  0.7546771E-02  0.1122373E+00
         21   -1    0    0  503  501  0.00000000000E+00  0.00000000000E+00  0.10592753456E+03  0.10592753456E+03  0.00000000000E+00 0.  1.
         21   -1    0    0  504  502 -0.00000000000E+00 -0.00000000000E+00 -0.16455535281E+04  0.16455535281E+04  0.00000000000E+00 0. -1.
         25    1    1    2    0    0 -0.76832881842E+02 -0.18505812376E+03 -0.46611572249E+02  0.24072274419E+03  0.12500000000E+03 0.  0.
         21    1    1    2  503  502 -0.18197041852E+02  0.10488266237E+03 -0.66862422270E+03  0.67704494413E+03  0.00000000000E+00 0. -1.
         21    1    1    2  504  501  0.95029923693E+02  0.80175461389E+02 -0.82439019860E+03  0.83371337434E+03  0.00000000000E+00 0. -1.
<mgrwt>
<rscale>  4 0.23616689E+03</rscale>
<asrwt>0</asrwt>
<pdfrwt beam="1">  1       21 0.16296545E-01 0.23616689E+03</pdfrwt>
<pdfrwt beam="2">  1       21 0.25316206E+00 0.23616689E+03</pdfrwt>
<totfact> 0.20513647E+03</totfact>
</mgrwt>
</event>
