<event>
 5    0  0.1856407E+000  0.2997033E+03  0.7546771E-02  0.1085389E+00
         21   -1    0    0  502  501  0.00000000000E+00  0.00000000000E+00  0.24256741373E+03  0.24256741373E+03  0.00000000000E+00 0.  1.
         21   -1    0    0  503  502 -0.00000000000E+00 -0.00000000000E+00 -0.54820353680E+03  0.54820353680E+03  0.00000000000E+00 0. -1.
         25    1    1    2    0    0  0.18455837450E+03 -0.20033796643E+03  0.83964256871E+02  0.31124281650E+03  0.12500000000E+03 0.  0.
         21    1    1    2  503  504 -0.11324679871E+03  0.15270860925E+03 -0.30260798154E+03  0.35737423977E+03  0.00000000000E+00 0. -1.
         21    1    1    2  504  501 -0.71311575784E+02  0.47629357178E+02 -0.86992398395E+02  0.12215389427E+03  0.00000000000E+00 0.  1.
<mgrwt>
<rscale>  4 0.29970334E+03</rscale>
<asrwt>0</asrwt>
<pdfrwt beam="1">  1       21 0.37318064E-01 0.29970334E+03</pdfrwt>
<pdfrwt beam="2">  1       21 0.84339005E-01 0.29970334E+03</pdfrwt>
<totfact> 0.79296424E+03</totfact>
</mgrwt>
</event>
<event>
 5    0  0.1856407E+000  0.2584690E+03  0.7546771E-02  0.1108067E+00
         21   -1    0    0  502  501  0.00000000000E+00  0.00000000000E+00  0.17832779845E+03  0.17832779845E+03  0.00000000000E+00 0. -1.
         21   -1    0    0  503  502 -0.00000000000E+00 -0.00000000000E+00 -0.98411630886E+03  0.98411630886E+03  0.00000000000E+00 0.  1.
         25    1    1    2    0    0  0.22359753181E+03  0.34429116329E+02  0.58942900191E+02  0.26510466945E+03  0.12500000000E+03 0.  0.
         21    1    1    2  503  504 -0.18145640417E+03 -0.54581684267E+02 -0.62473964927E+03  0.65284394478E+03  0.00000000000E+00 0.  1.
         21    1    1    2  504  501 -0.42141127640E+02  0.20152567937E+02 -0.23999176133E+03  0.24449549309E+03  0.00000000000E+00 0.  1.
<mgrwt>
<rscale>  4 0.25846899E+03</rscale>
<asrwt>0</asrwt>
<pdfrwt beam="1">  1       21 0.27435046E-01 0.25846899E+03</pdfrwt>
<pdfrwt beam="2">  1       21 0.15140251E+00 0.25846899E+03</pdfrwt>
<totfact> 0.35107820E+03</totfact>
</mgrwt>
</event>
<event>
 5    0  0.1856407E+000  0.2517142E+03  0.7546771E-02  0.1112226E+00
         21   -1    0    0  502  501  0.00000000000E+00  0.00000000000E+00  0.47071300168E+03  0.47071300168E+03  0.00000000000E+00 0. -1.
         21   -1    0    0  503  502 -0.00000000000E+00 -0.00000000000E+00 -0.14072507404E+03  0.14072507404E+03  0.00000000000E+00 0. -1.
         25    1    1    2    0    0 -0.26815540381E+02  0.21683165948E+03  0.29263820671E+03  0.38600150490E+03  0.12500000000E+03 0.  0.
         21    1    1    2  503  504  0.10630940216E+02 -0.18092008031E+03  0.41207806853E+02  0.18585794493E+03  0.00000000000E+00 0. -1.
         21    1    1    2  504  501  0.16184600165E+02 -0.35911579168E+02 -0.38580859266E+01  0.39578625896E+02  0.00000000000E+00 0. -1.
<mgrwt>
<rscale>  4 0.25171421E+03</rscale>
<asrwt>0</asrwt>
<pdfrwt beam="1">  1       21 0.72417384E-01 0.25171421E+03</pdfrwt>
<pdfrwt beam="2">  1       21 0.21650012E-01 0.25171421E+03</pdfrwt>
<totfact> 0.33214888E+04</totfact>
</mgrwt>
</event>
<event>
 5    0  0.2317797E+000  0.2768969E+03  0.7546771E-02  0.1097396E+00
         21   -1    0    0  502  501  0.00000000000E+00  0.00000000000E+00  0.17445670372E+03  0.17445670372E+03  0.00000000000E+00 0.  1.
         21   -1    0    0  503  502 -0.00000000000E+00 -0.00000000000E+00 -0.70051831015E+03  0.70051831015E+03  0.00000000000E+00 0.  1.
         25    1    1    2    0    0  0.59077811967E+01  0.31773624463E+03 -0.31904522031E+03  0.46733935810E+03  0.12500000000E+03 0.  0.
         21    1    1    2  503  504 -0.14122153541E+02 -0.96379384653E+02 -0.15008995351E+03  0.17892851967E+03  0.00000000000E+00 0.  1.
         21    1    1    2  504  501  0.82143723445E+01 -0.22135685998E+03 -0.56926432619E+02  0.22870713610E+03  0.00000000000E+00 0.  1.
<mgrwt>
<rscale>  4 0.27689694E+03</rscale>
<asrwt>0</asrwt>
<pdfrwt beam="1">  1       21 0.26839493E-01 0.27689694E+03</pdfrwt>
<pdfrwt beam="2">  1       21 0.10777205E+00 0.27689694E+03</pdfrwt>
<totfact> 0.86074391E+03</totfact>
</mgrwt>
</event>
<event>
 5    0  0.1856407E+000  0.4181576E+03  0.7546771E-02  0.1037668E+00
         21   -1    0    0  502  501  0.00000000000E+00  0.00000000000E+00  0.11636542347E+04  0.11636542347E+04  0.00000000000E+00 0. -1.
         21   -1    0    0  503  502 -0.00000000000E+00 -0.00000000000E+00 -0.17309633262E+03  0.17309633262E+03  0.00000000000E+00 0. -1.
         25    1    1    2    0    0  0.36928133103E+03 -0.15120206707E+03  0.74922206665E+03  0.85801484351E+03  0.12500000000E+03 0.  0.
         21    1    1    2  503  504 -0.39815734882E+02  0.29590775898E+02 -0.48564553076E+01  0.49844677956E+02  0.00000000000E+00 0.  1.
         21    1    1    2  504  501 -0.32946559614E+03  0.12161129117E+03  0.24619229070E+03  0.42889104582E+03  0.00000000000E+00 0. -1.
<mgrwt>
<rscale>  4 0.41815759E+03</rscale>
<asrwt>0</asrwt>
<pdfrwt beam="1">  1       21 0.17902372E+00 0.41815759E+03</pdfrwt>
<pdfrwt beam="2">  1       21 0.26630206E-01 0.41815759E+03</pdfrwt>
<totfact> 0.21396652E+03</totfact>
</mgrwt>
</event>
<event>
 5    0  0.1856407E+000  0.2586759E+03  0.7546771E-02  0.1107941E+00
         21   -1    0    0  502  501  0.00000000000E+00  0.00000000000E+00  0.13083822433E+03  0.13083822433E+03  0.00000000000E+00 0.  1.
         21   -1    0    0  503  502 -0.00000000000E+00 -0.00000000000E+00 -0.13675577855E+04  0.13675577855E+04  0.00000000000E+00 0. -1.
         25    1    1    2    0    0  0.22889239164E+03 -0.48443682745E+02 -0.34758337676E+02  0.26752880104E+03  0.12500000000E+03 0.  0.
         21    1    1    2  503  504 -0.16796337766E+03  0.38648510621E+02 -0.10851968242E+04  0.10987982302E+04  0.00000000000E+00 0. -1.
         21    1    1    2  504  501 -0.60929013979E+02  0.97951721243E+01 -0.11676439933E+03  0.13206897854E+03  0.00000000000E+00 0. -1.
<mgrwt>
<rscale>  4 0.25867589E+03</rscale>
<asrwt>0</asrwt>
<pdfrwt beam="1">  1       21 0.20128959E-01 0.25867589E+03</pdfrwt>
<pdfrwt beam="2">  1       21 0.21039349E+00 0.25867589E+03</pdfrwt>
<totfact> 0.24794106E+03</totfact>
</mgrwt>
</event>
<event>
 5    0  0.1856407E+000  0.2444168E+03  0.7546771E-02  0.1116885E+00
         21   -1    0    0  502  501  0.00000000000E+00  0.00000000000E+00  0.88368209042E+02  0.88368209042E+02  0.00000000000E+00 0.  1.
         21   -1    0    0  503  502 -0.00000000000E+00 -0.00000000000E+00 -0.62084768413E+03  0.62084768413E+03  0.00000000000E+00 0.  1.
         25    1    1    2    0    0  0.13730940863E+03 -0.15893613537E+03 -0.22860080417E+03  0.33466086788E+03  0.12500000000E+03 0.  0.
         21    1    1    2  503  504 -0.57991932906E+02  0.89373862777E+02 -0.19939171811E+03  0.22607036268E+03  0.00000000000E+00 0.  1.
         21    1    1    2  504  501 -0.79317475723E+02  0.69562272597E+02 -0.10448695281E+03  0.14848466261E+03  0.00000000000E+00 0.  1.
<mgrwt>
<rscale>  4 0.24441679E+03</rscale>
<asrwt>0</asrwt>
<pdfrwt beam="1">  1       21 0.13595109E-01 0.24441679E+03</pdfrwt>
<pdfrwt beam="2">  1       21 0.95515030E-01 0.24441679E+03</pdfrwt>
<totfact> 0.41816167E+04</totfact>
</mgrwt>
</event>
<event>
 5    0  0.1856407E+000  0.2509116E+03  0.7546771E-02  0.1112730E+00
         21   -1    0    0  502  501  0.00000000000E+00  0.00000000000E+00  0.10259197098E+03  0.10259197098E+03  0.00000000000E+00 0. -1.
         21   -1    0    0  503  502 -0.00000000000E+00 -0.00000000000E+00 -0.89132578340E+03  0.89132578340E+03  0.00000000000E+00 0. -1.
         25    1    1    2    0    0  0.20104976141E+03 -0.83130064257E+02 -0.10202484736E+03  0.27086100425E+03  0.12500000000E+03 0.  0.
         21    1    1    2  503  504 -0.42196888626E+02  0.45156846443E+02 -0.22389839264E+03  0.23227184164E+03  0.00000000000E+00 0. -1.
         21    1    1    2  504  501 -0.15885287279E+03  0.37973217814E+02 -0.46281057242E+03  0.49078490849E+03  0.00000000000E+00 0. -1.
<mgrwt>
<rscale>  4 0.25091157E+03</rscale>
<asrwt>0</asrwt>
<pdfrwt beam="1">  1       21 0.15783380E-01 0.25091157E+03</pdfrwt>
<pdfrwt beam="2">  1       21 0.13712705E+00 0.25091157E+03</pdfrwt>
<totfact> 0.13000455E+04</totfact>
</mgrwt>
</event>
<event>
 5    0  0.1856407E+000  0.3809399E+03  0.7546771E-02  0.1050587E+00
         21   -1    0    0  502  501  0.00000000000E+00  0.00000000000E+00  0.69253450252E+03  0.69253450252E+03  0.00000000000E+00 0.  1.
         21   -1    0    0  503  502 -0.00000000000E+00 -0.00000000000E+00 -0.37734151196E+03  0.37734151196E+03  0.00000000000E+00 0. -1.
         25    1    1    2    0    0 -0.51992316033E+02  0.40203623158E+03  0.39369713532E+03  0.57875622398E+03  0.12500000000E+03 0.  0.
         21    1    1    2  503  504 -0.22949338782E+01 -0.34988572219E+03 -0.15598808788E+03  0.38308950505E+03  0.00000000000E+00 0. -1.
         21    1    1    2  504  501  0.54287249911E+02 -0.52150509389E+02  0.77483943133E+02  0.10803028546E+03  0.00000000000E+00 0. -1.
<mgrwt>
<rscale>  4 0.38093991E+03</rscale>
<asrwt>0</asrwt>
<pdfrwt beam="1">  1       21 0.10654377E+00 0.38093991E+03</pdfrwt>
<pdfrwt beam="2">  1       21 0.58052540E-01 0.38093991E+03</pdfrwt>
<totfact> 0.17350570E+03</totfact>
</mgrwt>
</event>
<event>
 5    0  0.1856407E+000  0.2719785E+03  0.7546771E-02  0.1100153E+00
         21   -1    0    0  502  501  0.00000000000E+00  0.00000000000E+00  0.23633863538E+04  0.23633863538E+04  0.00000000000E+00 0. -1.
         21   -1    0    0  503  502 -0.00000000000E+00 -0.00000000000E+00 -0.96301250775E+02  0.96301250775E+02  0.00000000000E+00 0. -1.
         25    1    1    2    0    0 -0.24049645288E+03  0.22556223061E+02  0.21804241485E+04  0.21973215045E+04  0.12500000000E+03 0.  0.
         21    1    1    2  503  504  0.43843357570E+02  0.10760097932E+02  0.63240223384E+00  0.45148860928E+02  0.00000000000E+00 0. -1.
         21    1    1    2  504  501  0.19665309531E+03 -0.33316320993E+02  0.86028552272E+02  0.21721723906E+03  0.00000000000E+00 0. -1.
<mgrwt>
<rscale>  4 0.27197854E+03</rscale>
<asrwt>0</asrwt>
<pdfrwt beam="1">  1       21 0.36359786E+00 0.27197854E+03</pdfrwt>
<pdfrwt beam="2">  1       21 0.14815579E-01 0.27197854E+03</pdfrwt>
<totfact> 0.52531708E+02</totfact>
</mgrwt>
</event>
<event>
 5    0  0.1856407E+000  0.2811851E+03  0.7546771E-02  0.1095043E+00
         21   -1    0    0  502  501  0.00000000000E+00  0.00000000000E+00  0.21412767168E+04  0.21412767168E+04  0.00000000000E+00 0. -1.
         21   -1    0    0  503  502 -0.00000000000E+00 -0.00000000000E+00 -0.38754169967E+02  0.38754169967E+02  0.00000000000E+00 0. -1.
         25    1    1    2    0    0 -0.37665139061E+02 -0.24904092271E+03  0.14499251115E+04  0.14769386828E+04  0.12500000000E+03 0.  0.
         21    1    1    2  503  504 -0.15495549531E+02  0.48558907602E+02  0.89299785818E+02  0.10282281512E+03  0.00000000000E+00 0. -1.
         21    1    1    2  504  501  0.53160688592E+02  0.20048201511E+03  0.56329764951E+03  0.60026938881E+03  0.00000000000E+00 0. -1.
<mgrwt>
<rscale>  4 0.28118507E+03</rscale>
<asrwt>0</asrwt>
<pdfrwt beam="1">  1       21 0.32942709E+00 0.28118507E+03</pdfrwt>
<pdfrwt beam="2">  1       21 0.59621817E-02 0.28118507E+03</pdfrwt>
<totfact> 0.41992690E+03</totfact>
</mgrwt>
</event>
