<event>
 5    0  0.2159162E+000  0.2471651E+03  0.7546771E-02  0.1115110E+00
         21   -1    0    0  502  501  0.00000000000E+00  0.00000000000E+00  0.17946039864E+04  0.17946039864E+04  0.00000000000E+00 0. -1.
         21   -1    0    0  503  502 -0.00000000000E+00 -0.00000000000E+00 -0.67695306164E+02  0.67695306164E+02  0.00000000000E+00 0. -1.
         25    1    1    2    0    0  0.21519780467E+03  0.30670231144E+02  0.14627798045E+04  0.14841160718E+04  0.12500000000E+03 0.  0.
         21    1    1    2  503  504 -0.19328445496E+03 -0.59429264313E+02  0.27415403769E+03  0.34066281624E+03  0.00000000000E+00 0. -1.
         21    1    1    2  504  501 -0.21913349700E+02  0.28759033169E+02 -0.10025161924E+02  0.37520404522E+02  0.00000000000E+00 0. -1.
<mgrwt>
<rscale>  4 0.24716513E+03</rscale>
<asrwt>0</asrwt>
<pdfrwt beam="1">  1       21 0.27609288E+00 0.24716513E+03</pdfrwt>
<pdfrwt beam="2">  1       21 0.10414664E-01 0.24716513E+03</pdfrwt>
<totfact> 0.33478852E+03</totfact>
</mgrwt>
</event>
<event>
 5    0  0.3030515E+000  0.2493770E+03  0.7546771E-02  0.1113699E+00
         21   -1    0    0  502  501  0.00000000000E+00  0.00000000000E+00  0.21873238784E+03  0.21873238784E+03  0.00000000000E+00 0. -1.
         21   -1    0    0  503  502 -0.00000000000E+00 -0.00000000000E+00 -0.46424802420E+03  0.46424802420E+03  0.00000000000E+00 0. -1.
         25    1    1    2    0    0 -0.15287904613E+03  0.15228882409E+03 -0.35656486732E+03  0.43511767753E+03  0.12500000000E+03 0.  0.
         21    1    1    2  503  504  0.99262345595E+02 -0.10966503278E+03  0.99835549425E+02  0.17845607189E+03  0.00000000000E+00 0. -1.
         21    1    1    2  504  501  0.53616700535E+02 -0.42623791310E+02  0.11213681534E+02  0.69406662616E+02  0.00000000000E+00 0.  1.
<mgrwt>
<rscale>  4 0.24937700E+03</rscale>
<asrwt>0</asrwt>
<pdfrwt beam="1">  1       21 0.33651137E-01 0.24937700E+03</pdfrwt>
<pdfrwt beam="2">  1       21 0.71422772E-01 0.24937700E+03</pdfrwt>
<totfact> 0.14584551E+04</totfact>
</mgrwt>
</event>
<event>
 5    0  0.2159162E+000  0.3902810E+03  0.7546771E-02  0.1047198E+00
         21   -1    0    0  502  501  0.00000000000E+00  0.00000000000E+00  0.10150649268E+03  0.10150649268E+03  0.00000000000E+00 0.  1.
         21   -1    0    0  503  502 -0.00000000000E+00 -0.00000000000E+00 -0.17664798879E+04  0.17664798879E+04  0.00000000000E+00 0.  1.
         25    1    1    2    0    0  0.36541845004E+03  0.56246051846E+02 -0.44680607408E+03  0.59325789486E+03  0.12500000000E+03 0.  0.
         21    1    1    2  503  504 -0.26587762001E+02  0.98349869958E+01 -0.63058425332E+02  0.69137551756E+02  0.00000000000E+00 0.  1.
         21    1    1    2  504  501 -0.33883068804E+03 -0.66081038842E+02 -0.11551088958E+04  0.12055909339E+04  0.00000000000E+00 0.  1.
<mgrwt>
<rscale>  4 0.39028100E+03</rscale>
<asrwt>0</asrwt>
<pdfrwt beam="1">  1       21 0.15616385E-01 0.39028100E+03</pdfrwt>
<pdfrwt beam="2">  1       21 0.27176611E+00 0.39028100E+03</pdfrwt>
<totfact> 0.15348708E+03</totfact>
</mgrwt>
</event>
<event>
 5    0  0.3012801E+000  0.2773888E+03  0.7546771E-02  0.1097124E+00
         21   -1    0    0  502  501  0.00000000000E+00  0.00000000000E+00  0.56935352191E+03  0.56935352191E+03  0.00000000000E+00 0.  1.
         21   -1    0    0  503  502 -0.00000000000E+00 -0.00000000000E+00 -0.13297758808E+03  0.13297758808E+03  0.00000000000E+00 0.  1.
         25    1    1    2    0    0 -0.80745177011E+02  0.23409353216E+03  0.29846880408E+03  0.40746557206E+03  0.12500000000E+03 0.  0.
         21    1    1    2  503  504  0.42394974830E+02 -0.20927443781E+03  0.10134905043E+03  0.23635725974E+03  0.00000000000E+00 0.  1.
         21    1    1    2  504  501  0.38350202181E+02 -0.24819094350E+02  0.36558079319E+02  0.58508278176E+02  0.00000000000E+00 0.  1.
<mgrwt>
<rscale>  4 0.27738883E+03</rscale>
<asrwt>0</asrwt>
<pdfrwt beam="1">  1       21 0.87592848E-01 0.27738883E+03</pdfrwt>
<pdfrwt beam="2">  1       21 0.20458091E-01 0.27738883E+03</pdfrwt>
<totfact> 0.23701536E+04</totfact>
</mgrwt>
</event>
<event>
 5    0  0.4775874E+000  0.3130969E+03  0.7546771E-02  0.1078871E+00
         21   -1    0    0  502  501  0.00000000000E+00  0.00000000000E+00  0.12391541577E+03  0.12391541577E+03  0.00000000000E+00 0. -1.
         21   -1    0    0  503  502 -0.00000000000E+00 -0.00000000000E+00 -0.88033347542E+03  0.88033347542E+03  0.00000000000E+00 0. -1.
         25    1    1    2    0    0  0.20657326851E+03  0.21189891146E+03 -0.50968837365E+03  0.60247896409E+03  0.12500000000E+03 0.  0.
         21    1    1    2  503  504  0.33983351510E+01 -0.22137161408E+02 -0.56465274428E+02  0.60744792478E+02  0.00000000000E+00 0. -1.
         21    1    1    2  504  501 -0.20997160366E+03 -0.18976175005E+03 -0.19026441157E+03  0.34102513461E+03  0.00000000000E+00 0. -1.
<mgrwt>
<rscale>  4 0.31309694E+03</rscale>
<asrwt>0</asrwt>
<pdfrwt beam="1">  1       21 0.19063910E-01 0.31309694E+03</pdfrwt>
<pdfrwt beam="2">  1       21 0.13543592E+00 0.31309694E+03</pdfrwt>
<totfact> 0.91533154E+03</totfact>
</mgrwt>
</event>
<event>
 5    0  0.4364202E+000  0.3057647E+03  0.7546771E-02  0.1082394E+00
         21   -1    0    0  502  501  0.00000000000E+00  0.00000000000E+00  0.64294419672E+03  0.64294419672E+03  0.00000000000E+00 0. -1.
         21   -1    0    0  503  502 -0.00000000000E+00 -0.00000000000E+00 -0.24164060357E+03  0.24164060357E+03  0.00000000000E+00 0.  1.
         25    1    1    2    0    0 -0.23193953167E+03  0.15514861858E+03  0.49162731587E+03  0.57895548871E+03  0.12500000000E+03 0.  0.
         21    1    1    2  503  504  0.19119589503E+02 -0.51330239641E+02 -0.23376346535E+02  0.59555065122E+02  0.00000000000E+00 0. -1.
         21    1    1    2  504  501  0.21281994217E+03 -0.10381837894E+03 -0.66947376184E+02  0.24607424646E+03  0.00000000000E+00 0.  1.
<mgrwt>
<rscale>  4 0.30576468E+03</rscale>
<asrwt>0</asrwt>
<pdfrwt beam="1">  1       21 0.98914491E-01 0.30576468E+03</pdfrwt>
<pdfrwt beam="2">  1       21 0.37175478E-01 0.30576468E+03</pdfrwt>
<totfact> 0.54766537E+03</totfact>
</mgrwt>
</event>
<event>
 5    0  0.2159162E+000  0.2797631E+03  0.7546771E-02  0.1095818E+00
         21   -1    0    0  502  501  0.00000000000E+00  0.00000000000E+00  0.66993256614E+03  0.66993256614E+03  0.00000000000E+00 0.  1.
         21   -1    0    0  503  502 -0.00000000000E+00 -0.00000000000E+00 -0.14884443781E+04  0.14884443781E+04  0.00000000000E+00 0. -1.
         25    1    1    2    0    0 -0.90893043509E+02  0.23319698225E+03  0.62821044865E+03  0.68768869823E+03  0.12500000000E+03 0.  0.
         21    1    1    2  503  504  0.45816335092E+02 -0.99336654424E+02 -0.87336001862E+03  0.88018442931E+03  0.00000000000E+00 0. -1.
         21    1    1    2  504  501  0.45076708417E+02 -0.13386032783E+03 -0.57336224202E+03  0.59050381674E+03  0.00000000000E+00 0. -1.
<mgrwt>
<rscale>  4 0.27976307E+03</rscale>
<asrwt>0</asrwt>
<pdfrwt beam="1">  1       21 0.10306655E+00 0.27976307E+03</pdfrwt>
<pdfrwt beam="2">  1       21 0.22899144E+00 0.27976307E+03</pdfrwt>
<totfact> 0.60536466E+01</totfact>
</mgrwt>
</event>
<event>
 5    0  0.2577505E+000  0.2457507E+03  0.7546771E-02  0.1116020E+00
         21   -1    0    0  502  501  0.00000000000E+00  0.00000000000E+00  0.26353723681E+03  0.26353723681E+03  0.00000000000E+00 0. -1.
         21   -1    0    0  503  502 -0.00000000000E+00 -0.00000000000E+00 -0.46360590354E+03  0.46360590354E+03  0.00000000000E+00 0. -1.
         25    1    1    2    0    0  0.17474647923E+03  0.16179817532E+03  0.11800687095E+03  0.29371006645E+03  0.12500000000E+03 0.  0.
         21    1    1    2  503  504 -0.11620388900E+03 -0.55325154189E+02 -0.27654262633E+03  0.30502465586E+03  0.00000000000E+00 0. -1.
         21    1    1    2  504  501 -0.58542590227E+02 -0.10647302113E+03 -0.41532911338E+02  0.12840841804E+03  0.00000000000E+00 0. -1.
<mgrwt>
<rscale>  4 0.24575072E+03</rscale>
<asrwt>0</asrwt>
<pdfrwt beam="1">  1       21 0.40544191E-01 0.24575072E+03</pdfrwt>
<pdfrwt beam="2">  1       21 0.71323985E-01 0.24575072E+03</pdfrwt>
<totfact> 0.10077078E+04</totfact>
</mgrwt>
</event>
<event>
 5    0  0.2159162E+000  0.2907913E+03  0.7546771E-02  0.1089937E+00
         21   -1    0    0  502  501  0.00000000000E+00  0.00000000000E+00  0.60635514947E+03  0.60635514947E+03  0.00000000000E+00 0.  1.
         21   -1    0    0  503  502 -0.00000000000E+00 -0.00000000000E+00 -0.36434989347E+03  0.36434989347E+03  0.00000000000E+00 0.  1.
         25    1    1    2    0    0 -0.22768402415E+03  0.13074620103E+03  0.50865405486E+03  0.58590829612E+03  0.12500000000E+03 0.  0.
         21    1    1    2  503  504  0.67353283185E+02 -0.12219063260E+02 -0.11679182922E+03  0.13537393263E+03  0.00000000000E+00 0.  1.
         21    1    1    2  504  501  0.16033074097E+03 -0.11852713777E+03 -0.14985696964E+03  0.24942281419E+03  0.00000000000E+00 0.  1.
<mgrwt>
<rscale>  4 0.29079131E+03</rscale>
<asrwt>0</asrwt>
<pdfrwt beam="1">  1       21 0.93285407E-01 0.29079131E+03</pdfrwt>
<pdfrwt beam="2">  1       21 0.56053830E-01 0.29079131E+03</pdfrwt>
<totfact> 0.27000368E+03</totfact>
</mgrwt>
</event>
