<event>
 5    0  0.1041609E-002  0.7765597E+03  0.7546771E-02  0.9594580E-01
          2   -1    0    0  502    0 -0.00000000000E+00  0.00000000000E+00  0.14002185710E+04  0.14002185710E+04  0.00000000000E+00 0.  1.
         21   -1    0    0  503  502  0.00000000000E+00 -0.00000000000E+00 -0.63810934553E+03  0.63810934553E+03  0.00000000000E+00 0.  1.
         25    1    1    2    0    0  0.13880636300E+03 -0.47926009208E+03  0.11354287229E+03  0.52675841343E+03  0.12500000000E+03 0.  0.
         21    1    1    2  503  501  0.25215309410E+03 -0.76598397376E+02 -0.26449099691E+03  0.37336843036E+03  0.00000000000E+00 0.  1.
          2    1    1    2  501    0 -0.39095945710E+03  0.55585848946E+03  0.91305735006E+03  0.11382010727E+04  0.00000000000E+00 0.  1.
<mgrwt>
<rscale>  4 0.77655968E+03</rscale>
<asrwt>0</asrwt>
<pdfrwt beam="1">  1       21 0.98170669E-01 0.77655968E+03</pdfrwt>
<pdfrwt beam="2">  1        2 0.21541824E+00 0.77655968E+03</pdfrwt>
<totfact> 0.13472519E+02</totfact>
</mgrwt>
</event>
<event>
 5    0  0.1041609E-002  0.4070520E+03  0.7546771E-02  0.1041365E+00
         21   -1    0    0  503  502  0.00000000000E+00  0.00000000000E+00  0.68304383984E+03  0.68304383984E+03  0.00000000000E+00 0. -1.
          1   -1    0    0  502    0 -0.00000000000E+00 -0.00000000000E+00 -0.11629947651E+03  0.11629947651E+03  0.00000000000E+00 0. -1.
         25    1    1    2    0    0  0.16300573841E+03 -0.15904303441E+03  0.21998311681E+03  0.34041611189E+03  0.12500000000E+03 0.  0.
         21    1    1    2  503  501 -0.25118454941E+02  0.14464060220E+03  0.10589755987E+03  0.18101418113E+03  0.00000000000E+00 0.  1.
          1    1    1    2  501    0 -0.13788728347E+03  0.14402432218E+02  0.24086368664E+03  0.27791302334E+03  0.00000000000E+00 0. -1.
<mgrwt>
<rscale>  4 0.40705201E+03</rscale>
<asrwt>0</asrwt>
<pdfrwt beam="1">  1       21 0.10508367E+00 0.40705201E+03</pdfrwt>
<pdfrwt beam="2">  1        1 0.17892228E-01 0.40705201E+03</pdfrwt>
<totfact> 0.21781059E+03</totfact>
</mgrwt>
</event>
<event>
 5    0  0.1041609E-002  0.4769196E+03  0.7546771E-02  0.1019985E+00
         -2   -1    0    0    0  501 -0.00000000000E+00  0.00000000000E+00  0.15764375058E+03  0.15764375058E+03  0.00000000000E+00 0.  1.
         21   -1    0    0  501  502  0.00000000000E+00 -0.00000000000E+00 -0.15055934661E+04  0.15055934661E+04  0.00000000000E+00 0.  1.
         25    1    1    2    0    0  0.11803860572E+02 -0.23528921945E+03 -0.72910639269E+03  0.77635138937E+03  0.12500000000E+03 0.  0.
         21    1    1    2  503  502  0.30110299213E+02 -0.19645473738E+03 -0.15700643658E+03  0.25328267822E+03  0.00000000000E+00 0.  1.
         -2    1    1    2    0  503 -0.41914159786E+02  0.43174395684E+03 -0.46183688630E+03  0.63360314914E+03  0.00000000000E+00 0.  1.
<mgrwt>
<rscale>  4 0.47691963E+03</rscale>
<asrwt>0</asrwt>
<pdfrwt beam="1">  1       21 0.23162977E+00 0.47691963E+03</pdfrwt>
<pdfrwt beam="2">  1       -2 0.24252884E-01 0.47691963E+03</pdfrwt>
<totfact> 0.87638439E+01</totfact>
</mgrwt>
</event>
<event>
 5    0  0.1041609E-002  0.6477134E+03  0.7546771E-02  0.9811079E-01
          1   -1    0    0  502    0 -0.00000000000E+00  0.00000000000E+00  0.72391229101E+03  0.72391229101E+03  0.00000000000E+00 0. -1.
         21   -1    0    0  503  502  0.00000000000E+00 -0.00000000000E+00 -0.27169880470E+03  0.27169880470E+03  0.00000000000E+00 0. -1.
         25    1    1    2    0    0 -0.15762088437E+03  0.14121234969E+03  0.27225800821E+03  0.36678971351E+03  0.12500000000E+03 0.  0.
         21    1    1    2  503  501  0.35712502751E+03 -0.14277885638E+03  0.19015820468E+03  0.42905038155E+03  0.00000000000E+00 0.  1.
          1    1    1    2  501    0 -0.19950414313E+03  0.15665066877E+01 -0.10202726584E+02  0.19977100065E+03  0.00000000000E+00 0. -1.
<mgrwt>
<rscale>  4 0.64771344E+03</rscale>
<asrwt>0</asrwt>
<pdfrwt beam="1">  1       21 0.41799816E-01 0.64771344E+03</pdfrwt>
<pdfrwt beam="2">  1        1 0.11137112E+00 0.64771344E+03</pdfrwt>
<totfact> 0.14666954E+03</totfact>
</mgrwt>
</event>
<event>
 5    0  0.1041609E-002  0.5776352E+03  0.7546771E-02  0.9952924E-01
         21   -1    0    0  503  502  0.00000000000E+00  0.00000000000E+00  0.11460364565E+03  0.11460364565E+03  0.00000000000E+00 0. -1.
          2   -1    0    0  502    0 -0.00000000000E+00 -0.00000000000E+00 -0.30840828947E+04  0.30840828947E+04  0.00000000000E+00 0. -1.
         25    1    1    2    0    0 -0.96365134791E+02 -0.54052428369E+03 -0.17409228924E+04  0.18297240933E+04  0.12500000000E+03 0.  0.
         21    1    1    2  503  501  0.68244878952E+02  0.13980605967E+02 -0.22173269042E+03  0.23241817237E+03  0.00000000000E+00 0.  1.
          2    1    1    2  501    0  0.28120255840E+02  0.52654367772E+03 -0.10068236663E+04  0.11365442747E+04  0.00000000000E+00 0. -1.
<mgrwt>
<rscale>  4 0.57763524E+03</rscale>
<asrwt>0</asrwt>
<pdfrwt beam="1">  1       21 0.17631329E-01 0.57763524E+03</pdfrwt>
<pdfrwt beam="2">  1        2 0.47447431E+00 0.57763524E+03</pdfrwt>
<totfact> 0.59819291E+02</totfact>
</mgrwt>
</event>
<event>
 5    0  0.1041609E-002  0.5510670E+03  0.7546771E-02  0.1001247E+00
          2   -1    0    0  502    0 -0.00000000000E+00  0.00000000000E+00  0.38580243586E+04  0.38580243586E+04  0.00000000000E+00 0. -1.
         21   -1    0    0  503  502  0.00000000000E+00 -0.00000000000E+00 -0.79702858158E+02  0.79702858158E+02  0.00000000000E+00 0. -1.
         25    1    1    2    0    0  0.33259117597E+02 -0.39369990222E+03  0.16324910406E+04  0.16842677280E+04  0.12500000000E+03 0.  0.
         21    1    1    2  503  501 -0.11238480562E+03 -0.12207181727E+03  0.55010659017E+03  0.57458605417E+03  0.00000000000E+00 0. -1.
          2    1    1    2  501    0  0.79125688026E+02  0.51577171949E+03  0.15957238696E+04  0.16788734346E+04  0.00000000000E+00 0. -1.
<mgrwt>
<rscale>  4 0.55106702E+03</rscale>
<asrwt>0</asrwt>
<pdfrwt beam="1">  1       21 0.12261981E-01 0.55106702E+03</pdfrwt>
<pdfrwt beam="2">  1        2 0.59354206E+00 0.55106702E+03</pdfrwt>
<totfact> 0.35567110E+02</totfact>
</mgrwt>
</event>
<event>
 5    0  0.1041609E-002  0.4457993E+03  0.7546771E-02  0.1028982E+00
         21   -1    0    0  503  502  0.00000000000E+00  0.00000000000E+00  0.42266054573E+03  0.42266054573E+03  0.00000000000E+00 0. -1.
          2   -1    0    0  502    0 -0.00000000000E+00 -0.00000000000E+00 -0.62777014445E+03  0.62777014445E+03  0.00000000000E+00 0. -1.
         25    1    1    2    0    0 -0.39615620819E+03 -0.12329987675E+03  0.53814026589E+02  0.43665037541E+03  0.12500000000E+03 0.  0.
         21    1    1    2  503  501  0.22281247080E+02  0.63939958040E+02  0.80602371125E+02  0.10526877237E+03  0.00000000000E+00 0. -1.
          2    1    1    2  501    0  0.37387496111E+03  0.59359918713E+02 -0.33952599643E+03  0.50851154239E+03  0.00000000000E+00 0. -1.
<mgrwt>
<rscale>  4 0.44579927E+03</rscale>
<asrwt>0</asrwt>
<pdfrwt beam="1">  1       21 0.65024699E-01 0.44579927E+03</pdfrwt>
<pdfrwt beam="2">  1        2 0.96580022E-01 0.44579927E+03</pdfrwt>
<totfact> 0.12024041E+03</totfact>
</mgrwt>
</event>
<event>
 5    0  0.1041609E-002  0.3727252E+03  0.7546771E-02  0.1053656E+00
         21   -1    0    0  501  502  0.00000000000E+00  0.00000000000E+00  0.31355227115E+04  0.31355227115E+04  0.00000000000E+00 0. -1.
         -3   -1    0    0    0  501 -0.00000000000E+00 -0.00000000000E+00 -0.46135594585E+02  0.46135594585E+02  0.00000000000E+00 0. -1.
         25    1    1    2    0    0 -0.14295056037E+03  0.24311686017E+03  0.11387668898E+04  0.11798117221E+04  0.12500000000E+03 0.  0.
         21    1    1    2  503  502  0.12939736452E+03  0.62712824307E+02  0.63650653197E+03  0.65254665849E+03  0.00000000000E+00 0.  1.
         -3    1    1    2    0  503  0.13553195848E+02 -0.30582968448E+03  0.13141136951E+04  0.13492999254E+04  0.00000000000E+00 0. -1.
<mgrwt>
<rscale>  4 0.37272525E+03</rscale>
<asrwt>0</asrwt>
<pdfrwt beam="1">  1       21 0.48238794E+00 0.37272525E+03</pdfrwt>
<pdfrwt beam="2">  1       -3 0.70977863E-02 0.37272525E+03</pdfrwt>
<totfact> 0.13656679E+01</totfact>
</mgrwt>
</event>
<event>
 5    0  0.1041609E-002  0.2977404E+03  0.7546771E-02  0.1086376E+00
          2   -1    0    0  502    0 -0.00000000000E+00  0.00000000000E+00  0.21571156005E+04  0.21571156005E+04  0.00000000000E+00 0.  1.
         21   -1    0    0  503  502  0.00000000000E+00 -0.00000000000E+00 -0.51553000760E+02  0.51553000760E+02  0.00000000000E+00 0.  1.
         25    1    1    2    0    0  0.66359328949E+01  0.20264224904E+03  0.98243891024E+03  0.10109001578E+04  0.12500000000E+03 0.  0.
         21    1    1    2  503  501 -0.17156670094E+03 -0.75718968070E+02  0.72091055667E+03  0.74490303108E+03  0.00000000000E+00 0.  1.
          2    1    1    2  501    0  0.16493076805E+03 -0.12692328097E+03  0.40221313283E+03  0.45286541237E+03  0.00000000000E+00 0.  1.
<mgrwt>
<rscale>  4 0.29774040E+03</rscale>
<asrwt>0</asrwt>
<pdfrwt beam="1">  1       21 0.79312325E-02 0.29774040E+03</pdfrwt>
<pdfrwt beam="2">  1        2 0.33186387E+00 0.29774040E+03</pdfrwt>
<totfact> 0.93478253E+03</totfact>
</mgrwt>
</event>
<event>
 5    0  0.1041609E-002  0.3322653E+03  0.7546771E-02  0.1070139E+00
         21   -1    0    0  503  502  0.00000000000E+00  0.00000000000E+00  0.41285816082E+03  0.41285816082E+03  0.00000000000E+00 0. -1.
          2   -1    0    0  502    0 -0.00000000000E+00 -0.00000000000E+00 -0.39849756443E+03  0.39849756443E+03  0.00000000000E+00 0. -1.
         25    1    1    2    0    0  0.29227273787E+03  0.54673813596E+02 -0.11521937365E+03  0.34250997541E+03  0.12500000000E+03 0.  0.
         21    1    1    2  503  501 -0.73868432097E+02 -0.13358462128E+03 -0.64969443386E+02  0.16589883928E+03  0.00000000000E+00 0.  1.
          2    1    1    2  501    0 -0.21840430577E+03  0.78910807679E+02  0.19454941343E+03  0.30294691055E+03  0.00000000000E+00 0. -1.
<mgrwt>
<rscale>  4 0.33226525E+03</rscale>
<asrwt>0</asrwt>
<pdfrwt beam="1">  1       21 0.63516640E-01 0.33226525E+03</pdfrwt>
<pdfrwt beam="2">  1        2 0.61307317E-01 0.33226525E+03</pdfrwt>
<totfact> 0.21872244E+03</totfact>
</mgrwt>
</event>
<event>
 5    0  0.1041609E-002  0.5059584E+03  0.7546771E-02  0.1012235E+00
         21   -1    0    0  503  502  0.00000000000E+00  0.00000000000E+00  0.90201745500E+02  0.90201745500E+02  0.00000000000E+00 0.  1.
          1   -1    0    0  502    0 -0.00000000000E+00 -0.00000000000E+00 -0.29816220961E+04  0.29816220961E+04  0.00000000000E+00 0.  1.
         25    1    1    2    0    0  0.37859874862E+03  0.95525508000E+01 -0.16295806153E+04  0.16776728661E+04  0.12500000000E+03 0.  0.
         21    1    1    2  503  501  0.61005610666E+02  0.11916028431E+03 -0.25468123817E+03  0.28772102976E+03  0.00000000000E+00 0. -1.
          1    1    1    2  501    0 -0.43960435928E+03 -0.12871283511E+03 -0.10071584971E+04  0.11064299458E+04  0.00000000000E+00 0.  1.
<mgrwt>
<rscale>  4 0.50595836E+03</rscale>
<asrwt>0</asrwt>
<pdfrwt beam="1">  1       21 0.13877195E-01 0.50595836E+03</pdfrwt>
<pdfrwt beam="2">  1        1 0.45871098E+00 0.50595836E+03</pdfrwt>
<totfact> 0.33624620E+02</totfact>
</mgrwt>
</event>
<event>
 5    0  0.1041609E-002  0.2377883E+03  0.7546771E-02  0.1121275E+00
          4   -1    0    0  502    0 -0.00000000000E+00  0.00000000000E+00  0.25198965272E+03  0.25198965272E+03  0.00000000000E+00 0. -1.
         21   -1    0    0  503  502  0.00000000000E+00 -0.00000000000E+00 -0.33806281606E+03  0.33806281606E+03  0.00000000000E+00 0. -1.
         25    1    1    2    0    0  0.12485217937E+03  0.20640405352E+03  0.50129953545E+01  0.27173669264E+03  0.12500000000E+03 0.  0.
         21    1    1    2  503  501 -0.17187996924E+02 -0.10723305596E+03  0.45838420101E+02  0.11787924451E+03  0.00000000000E+00 0.  1.
          4    1    1    2  501    0 -0.10766418245E+03 -0.99170997558E+02 -0.13692457879E+03  0.20043653164E+03  0.00000000000E+00 0. -1.
<mgrwt>
<rscale>  4 0.23778833E+03</rscale>
<asrwt>0</asrwt>
<pdfrwt beam="1">  1       21 0.52009664E-01 0.23778833E+03</pdfrwt>
<pdfrwt beam="2">  1        4 0.38767639E-01 0.23778833E+03</pdfrwt>
<totfact> 0.95395843E+02</totfact>
</mgrwt>
</event>
<event>
 5    0  0.1041609E-002  0.4841805E+03  0.7546771E-02  0.1017993E+00
         21   -1    0    0  503  502  0.00000000000E+00  0.00000000000E+00  0.39935776430E+03  0.39935776430E+03  0.00000000000E+00 0.  1.
          2   -1    0    0  502    0 -0.00000000000E+00 -0.00000000000E+00 -0.10407752375E+04  0.10407752375E+04  0.00000000000E+00 0.  1.
         25    1    1    2    0    0  0.26349636228E+03 -0.13361967253E+03 -0.21295307380E+03  0.38504358385E+03  0.12500000000E+03 0.  0.
         21    1    1    2  503  501  0.12986177898E+03  0.63757220894E+02 -0.60227350322E+03  0.61940490597E+03  0.00000000000E+00 0.  1.
          2    1    1    2  501    0 -0.39335814126E+03  0.69862451637E+02  0.17380910380E+03  0.43568451201E+03  0.00000000000E+00 0.  1.
<mgrwt>
<rscale>  4 0.48418049E+03</rscale>
<asrwt>0</asrwt>
<pdfrwt beam="1">  1       21 0.61439656E-01 0.48418049E+03</pdfrwt>
<pdfrwt beam="2">  1        2 0.16011927E+00 0.48418049E+03</pdfrwt>
<totfact> 0.69313092E+02</totfact>
</mgrwt>
</event>
<event>
 5    0  0.1041609E-002  0.4982815E+03  0.7546771E-02  0.1014228E+00
         21   -1    0    0  503  502  0.00000000000E+00  0.00000000000E+00  0.52020953528E+03  0.52020953528E+03  0.00000000000E+00 0. -1.
          1   -1    0    0  502    0 -0.00000000000E+00 -0.00000000000E+00 -0.51355521211E+03  0.51355521211E+03  0.00000000000E+00 0. -1.
         25    1    1    2    0    0 -0.11603205452E+03  0.43998454839E+03 -0.11657633247E+03  0.48607086087E+03  0.12500000000E+03 0.  0.
         21    1    1    2  503  501  0.11092334709E+03 -0.19798144956E+02  0.14243436793E+02  0.11357302041E+03  0.00000000000E+00 0. -1.
          1    1    1    2  501    0  0.51087074230E+01 -0.42018640343E+03  0.10898721885E+03  0.43412086611E+03  0.00000000000E+00 0. -1.
<mgrwt>
<rscale>  4 0.49828148E+03</rscale>
<asrwt>0</asrwt>
<pdfrwt beam="1">  1       21 0.80032237E-01 0.49828148E+03</pdfrwt>
<pdfrwt beam="2">  1        1 0.79008494E-01 0.49828148E+03</pdfrwt>
<totfact> 0.59376734E+02</totfact>
</mgrwt>
</event>
<event>
 5    0  0.1041609E-002  0.3053797E+03  0.7546771E-02  0.1082582E+00
          2   -1    0    0  502    0 -0.00000000000E+00  0.00000000000E+00  0.13903158540E+04  0.13903158540E+04  0.00000000000E+00 0. -1.
         21   -1    0    0  503  502  0.00000000000E+00 -0.00000000000E+00 -0.75507138130E+02  0.75507138130E+02  0.00000000000E+00 0. -1.
         25    1    1    2    0    0 -0.20291624576E+03  0.35375623336E+02  0.76036565744E+03  0.79762608441E+03  0.12500000000E+03 0.  0.
         21    1    1    2  503  501 -0.22002580693E+02 -0.28236018571E+02 -0.26927691836E+02  0.44793826467E+02  0.00000000000E+00 0. -1.
          2    1    1    2  501    0  0.22491882645E+03 -0.71396047642E+01  0.58137075029E+03  0.62340308127E+03  0.00000000000E+00 0. -1.
<mgrwt>
<rscale>  4 0.30537969E+03</rscale>
<asrwt>0</asrwt>
<pdfrwt beam="1">  1       21 0.11616484E-01 0.30537969E+03</pdfrwt>
<pdfrwt beam="2">  1        2 0.21389473E+00 0.30537969E+03</pdfrwt>
<totfact> 0.12103525E+04</totfact>
</mgrwt>
</event>
<event>
 5    0  0.1041609E-002  0.4577016E+03  0.7546771E-02  0.1025450E+00
          2   -1    0    0  502    0 -0.00000000000E+00  0.00000000000E+00  0.47330389256E+03  0.47330389256E+03  0.00000000000E+00 0. -1.
         21   -1    0    0  503  502  0.00000000000E+00 -0.00000000000E+00 -0.51673941762E+03  0.51673941762E+03  0.00000000000E+00 0. -1.
         25    1    1    2    0    0  0.75167747943E+02 -0.19422259142E+03  0.21955500302E+03  0.32741717227E+03  0.12500000000E+03 0.  0.
         21    1    1    2  503  501 -0.25374156088E+03 -0.92420635364E+02 -0.12933630733E+03  0.29942316870E+03  0.00000000000E+00 0.  1.
          2    1    1    2  501    0  0.17857381293E+03  0.28664322678E+03 -0.13365422074E+03  0.36320296922E+03  0.00000000000E+00 0. -1.
<mgrwt>
<rscale>  4 0.45770157E+03</rscale>
<asrwt>0</asrwt>
<pdfrwt beam="1">  1       21 0.79498372E-01 0.45770157E+03</pdfrwt>
<pdfrwt beam="2">  1        2 0.72815983E-01 0.45770157E+03</pdfrwt>
<totfact> 0.10571867E+03</totfact>
</mgrwt>
</event>
<event>
 5    0  0.1041609E-002  0.2925266E+03  0.7546771E-02  0.1089037E+00
          3   -1    0    0  502    0 -0.00000000000E+00  0.00000000000E+00  0.42037499145E+03  0.42037499145E+03  0.00000000000E+00 0. -1.
         21   -1    0    0  503  502  0.00000000000E+00 -0.00000000000E+00 -0.69310587842E+03  0.69310587842E+03  0.00000000000E+00 0. -1.
         25    1    1    2    0    0  0.23481540951E+03  0.10203016211E+03 -0.50307817535E+03  0.57815316400E+03  0.12500000000E+03 0.  0.
         21    1    1    2  503  501 -0.96199556653E+02  0.55357243606E+02 -0.96436317017E+02  0.14703313354E+03  0.00000000000E+00 0. -1.
          3    1    1    2  501    0 -0.13861585286E+03 -0.15738740571E+03  0.32678360540E+03  0.38829457233E+03  0.00000000000E+00 0. -1.
<mgrwt>
<rscale>  4 0.29252665E+03</rscale>
<asrwt>0</asrwt>
<pdfrwt beam="1">  1       21 0.10663167E+00 0.29252665E+03</pdfrwt>
<pdfrwt beam="2">  1        3 0.64673076E-01 0.29252665E+03</pdfrwt>
<totfact> 0.78926715E+01</totfact>
</mgrwt>
</event>
<event>
 5    0  0.1041609E-002  0.3018657E+03  0.7546771E-02  0.1084312E+00
         21   -1    0    0  503  502  0.00000000000E+00  0.00000000000E+00  0.53986131613E+02  0.53986131613E+02  0.00000000000E+00 0. -1.
          2   -1    0    0  502    0 -0.00000000000E+00 -0.00000000000E+00 -0.32504731656E+04  0.32504731656E+04  0.00000000000E+00 0. -1.
         25    1    1    2    0    0  0.35213353034E+02 -0.21840228263E+03 -0.29693968085E+03  0.39081672348E+03  0.12500000000E+03 0.  0.
         21    1    1    2  503  501 -0.53884987640E+02 -0.10921813237E+02 -0.46184957038E+03  0.46511063583E+03  0.00000000000E+00 0.  1.
          2    1    1    2  501    0  0.18671634606E+02  0.22932409587E+03 -0.24376977828E+04  0.24485319379E+04  0.00000000000E+00 0. -1.
<mgrwt>
<rscale>  4 0.30186567E+03</rscale>
<asrwt>0</asrwt>
<pdfrwt beam="1">  1       21 0.83055587E-02 0.30186567E+03</pdfrwt>
<pdfrwt beam="2">  1        2 0.50007280E+00 0.30186567E+03</pdfrwt>
<totfact> 0.20484733E+03</totfact>
</mgrwt>
</event>
<event>
 5    0  0.1041609E-002  0.4136897E+03  0.7546771E-02  0.1039140E+00
         21   -1    0    0  503  502  0.00000000000E+00  0.00000000000E+00  0.41873525356E+03  0.41873525356E+03  0.00000000000E+00 0.  1.
          1   -1    0    0  502    0 -0.00000000000E+00 -0.00000000000E+00 -0.59355209908E+03  0.59355209908E+03  0.00000000000E+00 0.  1.
         25    1    1    2    0    0  0.19787320220E+03 -0.11529070862E+03 -0.21547235437E+03  0.33837713744E+03  0.12500000000E+03 0.  0.
         21    1    1    2  503  501 -0.33669498194E+01  0.32539954647E+03 -0.11851033622E+03  0.34632484893E+03  0.00000000000E+00 0.  1.
          1    1    1    2  501    0 -0.19450625238E+03 -0.21010883785E+03  0.15916584508E+03  0.32758536628E+03  0.00000000000E+00 0.  1.
<mgrwt>
<rscale>  4 0.41368972E+03</rscale>
<asrwt>0</asrwt>
<pdfrwt beam="1">  1       21 0.64420809E-01 0.41368972E+03</pdfrwt>
<pdfrwt beam="2">  1        1 0.91315707E-01 0.41368972E+03</pdfrwt>
<totfact> 0.81017373E+02</totfact>
</mgrwt>
</event>
<event>
 5    0  0.1041609E-002  0.2555023E+03  0.7546771E-02  0.1109876E+00
         21   -1    0    0  501  502  0.00000000000E+00  0.00000000000E+00  0.38612271553E+03  0.38612271553E+03  0.00000000000E+00 0. -1.
         -1   -1    0    0    0  501 -0.00000000000E+00 -0.00000000000E+00 -0.19571973114E+03  0.19571973114E+03  0.00000000000E+00 0. -1.
         25    1    1    2    0    0  0.39969429742E+02 -0.21424457338E+03  0.10674115843E+03  0.27297796145E+03  0.12500000000E+03 0.  0.
         21    1    1    2  503  502  0.57485549236E+02  0.58796274513E+02 -0.36058732910E+02  0.89787652195E+02  0.00000000000E+00 0.  1.
         -1    1    1    2    0  503 -0.97454978978E+02  0.15544829887E+03  0.11972055887E+03  0.21907683301E+03  0.00000000000E+00 0. -1.
<mgrwt>
<rscale>  4 0.25550226E+03</rscale>
<asrwt>0</asrwt>
<pdfrwt beam="1">  1       21 0.59403495E-01 0.25550226E+03</pdfrwt>
<pdfrwt beam="2">  1       -1 0.30110728E-01 0.25550226E+03</pdfrwt>
<totfact> 0.24147577E+03</totfact>
</mgrwt>
</event>
<event>
 5    0  0.1041609E-002  0.2751116E+03  0.7546771E-02  0.1098389E+00
         21   -1    0    0  503  502  0.00000000000E+00  0.00000000000E+00  0.68731969518E+02  0.68731969518E+02  0.00000000000E+00 0. -1.
          2   -1    0    0  502    0 -0.00000000000E+00 -0.00000000000E+00 -0.18355708290E+04  0.18355708290E+04  0.00000000000E+00 0. -1.
         25    1    1    2    0    0  0.14779278913E+03 -0.22358809590E+03 -0.10539994043E+04  0.10947027402E+04  0.12500000000E+03 0.  0.
         21    1    1    2  503  501 -0.11683277843E+02  0.89061326803E+02 -0.55302738553E+03  0.56027467197E+03  0.00000000000E+00 0.  1.
          2    1    1    2  501    0 -0.13610951129E+03  0.13452676909E+03 -0.15981206966E+03  0.24932538634E+03  0.00000000000E+00 0. -1.
<mgrwt>
<rscale>  4 0.27511161E+03</rscale>
<asrwt>0</asrwt>
<pdfrwt beam="1">  1       21 0.10574151E-01 0.27511161E+03</pdfrwt>
<pdfrwt beam="2">  1        2 0.28239547E+00 0.27511161E+03</pdfrwt>
<totfact> 0.83604088E+03</totfact>
</mgrwt>
</event>
<event>
 5    0  0.1041609E-002  0.2631973E+03  0.7546771E-02  0.1105237E+00
          2   -1    0    0  502    0 -0.00000000000E+00  0.00000000000E+00  0.11571116499E+04  0.11571116499E+04  0.00000000000E+00 0.  1.
         21   -1    0    0  503  502  0.00000000000E+00 -0.00000000000E+00 -0.10291964892E+03  0.10291964892E+03  0.00000000000E+00 0.  1.
         25    1    1    2    0    0 -0.23810768286E+03  0.29051092381E+02  0.89053360351E+03  0.93070636271E+03  0.12500000000E+03 0.  0.
         21    1    1    2  503  501  0.35393787184E+02 -0.48244693120E+02  0.99013645424E+02  0.11568912034E+03  0.00000000000E+00 0. -1.
          2    1    1    2  501    0  0.20271389567E+03  0.19193600738E+02  0.64644752037E+02  0.21363581576E+03  0.00000000000E+00 0.  1.
<mgrwt>
<rscale>  4 0.26319729E+03</rscale>
<asrwt>0</asrwt>
<pdfrwt beam="1">  1       21 0.15833793E-01 0.26319729E+03</pdfrwt>
<pdfrwt beam="2">  1        2 0.17801717E+00 0.26319729E+03</pdfrwt>
<totfact> 0.93964066E+03</totfact>
</mgrwt>
</event>
<event>
 5    0  0.1041609E-002  0.5688855E+03  0.7546771E-02  0.9972148E-01
          2   -1    0    0  502    0 -0.00000000000E+00  0.00000000000E+00  0.30514123997E+04  0.30514123997E+04  0.00000000000E+00 0.  1.
         21   -1    0    0  503  502  0.00000000000E+00 -0.00000000000E+00 -0.12739936872E+03  0.12739936872E+03  0.00000000000E+00 0.  1.
         25    1    1    2    0    0  0.26369587037E+03  0.90285717719E+02  0.22484577132E+04  0.22691130671E+04  0.12500000000E+03 0.  0.
         21    1    1    2  503  501  0.13231775268E+03  0.68478146228E+02  0.59725054642E+02  0.16051269837E+03  0.00000000000E+00 0.  1.
          2    1    1    2  501    0 -0.39601362305E+03 -0.15876386395E+03  0.61583026305E+03  0.74918600295E+03  0.00000000000E+00 0.  1.
<mgrwt>
<rscale>  4 0.56888552E+03</rscale>
<asrwt>0</asrwt>
<pdfrwt beam="1">  1       21 0.19599905E-01 0.56888552E+03</pdfrwt>
<pdfrwt beam="2">  1        2 0.46944801E+00 0.56888552E+03</pdfrwt>
<totfact> 0.51367473E+02</totfact>
</mgrwt>
</event>
<event>
 5    0  0.1041609E-002  0.2767730E+03  0.7546771E-02  0.1097465E+00
         21   -1    0    0  503  502  0.00000000000E+00  0.00000000000E+00  0.15938151872E+03  0.15938151872E+03  0.00000000000E+00 0.  1.
          2   -1    0    0  502    0 -0.00000000000E+00 -0.00000000000E+00 -0.13905607361E+04  0.13905607361E+04  0.00000000000E+00 0.  1.
         25    1    1    2    0    0 -0.13967747050E+03 -0.18124151896E+03 -0.53411388240E+03  0.59435757194E+03  0.12500000000E+03 0.  0.
         21    1    1    2  503  501  0.66340770388E+02  0.87793642662E+01 -0.75613360932E+03  0.75908906605E+03  0.00000000000E+00 0. -1.
          2    1    1    2  501    0  0.73336700113E+02  0.17246215469E+03  0.59068274367E+02  0.19649561680E+03  0.00000000000E+00 0.  1.
<mgrwt>
<rscale>  4 0.27677303E+03</rscale>
<asrwt>0</asrwt>
<pdfrwt beam="1">  1       21 0.24520234E-01 0.27677303E+03</pdfrwt>
<pdfrwt beam="2">  1        2 0.21393242E+00 0.27677303E+03</pdfrwt>
<totfact> 0.30432657E+03</totfact>
</mgrwt>
</event>
<event>
 5    0  0.1041609E-002  0.3051103E+03  0.7546771E-02  0.1082714E+00
         21   -1    0    0  503  502  0.00000000000E+00  0.00000000000E+00  0.14164766604E+04  0.14164766604E+04  0.00000000000E+00 0. -1.
          3   -1    0    0  502    0 -0.00000000000E+00 -0.00000000000E+00 -0.11834595599E+03  0.11834595599E+03  0.00000000000E+00 0. -1.
         25    1    1    2    0    0  0.20307752367E+03 -0.10719476167E+03  0.13941110239E+03  0.29629656262E+03  0.12500000000E+03 0.  0.
         21    1    1    2  503  501 -0.12076871769E+03 -0.94624496970E+02  0.18322093805E+03  0.23897445625E+03  0.00000000000E+00 0.  1.
          3    1    1    2  501    0 -0.82308805981E+02  0.20181925864E+03  0.97549866400E+03  0.99955159755E+03  0.00000000000E+00 0. -1.
<mgrwt>
<rscale>  4 0.30511027E+03</rscale>
<asrwt>0</asrwt>
<pdfrwt beam="1">  1       21 0.21791947E+00 0.30511027E+03</pdfrwt>
<pdfrwt beam="2">  1        3 0.18207071E-01 0.30511027E+03</pdfrwt>
<totfact> 0.12818937E+02</totfact>
</mgrwt>
</event>
<event>
 5    0  0.1041609E-002  0.3802378E+03  0.7546771E-02  0.1050846E+00
         21   -1    0    0  503  502  0.00000000000E+00  0.00000000000E+00  0.37989491288E+03  0.37989491288E+03  0.00000000000E+00 0. -1.
          1   -1    0    0  502    0 -0.00000000000E+00 -0.00000000000E+00 -0.46845998545E+03  0.46845998545E+03  0.00000000000E+00 0. -1.
         25    1    1    2    0    0 -0.15231446460E+03 -0.16917660469E+03  0.13086384068E+03  0.29081053024E+03  0.12500000000E+03 0.  0.
         21    1    1    2  503  501 -0.12211591409E+03 -0.59540067199E+02  0.44775138890E+01  0.13593146879E+03  0.00000000000E+00 0.  1.
          1    1    1    2  501    0  0.27443037869E+03  0.22871667188E+03 -0.22390642714E+03  0.42161289931E+03  0.00000000000E+00 0. -1.
<mgrwt>
<rscale>  4 0.38023785E+03</rscale>
<asrwt>0</asrwt>
<pdfrwt beam="1">  1       21 0.58445371E-01 0.38023785E+03</pdfrwt>
<pdfrwt beam="2">  1        1 0.72070767E-01 0.38023785E+03</pdfrwt>
<totfact> 0.13982356E+03</totfact>
</mgrwt>
</event>
<event>
 5    0  0.1041609E-002  0.3632800E+03  0.7546771E-02  0.1057293E+00
         21   -1    0    0  503  502  0.00000000000E+00  0.00000000000E+00  0.38268948375E+03  0.38268948375E+03  0.00000000000E+00 0.  1.
          3   -1    0    0  502    0 -0.00000000000E+00 -0.00000000000E+00 -0.38312364521E+03  0.38312364521E+03  0.00000000000E+00 0.  1.
         25    1    1    2    0    0 -0.16128149262E+03  0.20219988753E+03 -0.47792278658E+02  0.29121403860E+03  0.12500000000E+03 0.  0.
         21    1    1    2  503  501 -0.77892649967E+02 -0.26911151646E+02  0.14127209750E+03  0.16355207285E+03  0.00000000000E+00 0. -1.
          3    1    1    2  501    0  0.23917414258E+03 -0.17528873588E+03 -0.93913980302E+02  0.31104701751E+03  0.00000000000E+00 0.  1.
<mgrwt>
<rscale>  4 0.36328001E+03</rscale>
<asrwt>0</asrwt>
<pdfrwt beam="1">  1       21 0.58875306E-01 0.36328001E+03</pdfrwt>
<pdfrwt beam="2">  1        3 0.58942099E-01 0.36328001E+03</pdfrwt>
<totfact> 0.36914261E+02</totfact>
</mgrwt>
</event>
<event>
 5    0  0.1041609E-002  0.2421790E+03  0.7546771E-02  0.1118350E+00
         21   -1    0    0  503  502  0.00000000000E+00  0.00000000000E+00  0.12521843202E+03  0.12521843202E+03  0.00000000000E+00 0. -1.
          2   -1    0    0  502    0 -0.00000000000E+00 -0.00000000000E+00 -0.13459156620E+04  0.13459156620E+04  0.00000000000E+00 0. -1.
         25    1    1    2    0    0  0.10239212111E+02  0.20114692239E+03 -0.27272095755E+03  0.36134007049E+03  0.12500000000E+03 0.  0.
         21    1    1    2  503  501  0.14586089391E+02 -0.84066099261E+02 -0.98173859012E+03  0.98543925352E+03  0.00000000000E+00 0.  1.
          2    1    1    2  501    0 -0.24825301502E+02 -0.11708082313E+03  0.33762317663E+02  0.12435477005E+03  0.00000000000E+00 0. -1.
<mgrwt>
<rscale>  4 0.24217898E+03</rscale>
<asrwt>0</asrwt>
<pdfrwt beam="1">  1       21 0.19264372E-01 0.24217898E+03</pdfrwt>
<pdfrwt beam="2">  1        2 0.20706397E+00 0.24217898E+03</pdfrwt>
<totfact> 0.51497313E+03</totfact>
</mgrwt>
</event>
<event>
 5    0  0.1041609E-002  0.3128904E+03  0.7546771E-02  0.1078969E+00
         21   -1    0    0  503  502  0.00000000000E+00  0.00000000000E+00  0.12072295681E+03  0.12072295681E+03  0.00000000000E+00 0. -1.
          2   -1    0    0  502    0 -0.00000000000E+00 -0.00000000000E+00 -0.15520324053E+04  0.15520324053E+04  0.00000000000E+00 0. -1.
         25    1    1    2    0    0 -0.14337450084E+03  0.16709934548E+03 -0.10123159222E+04  0.10434974677E+04  0.12500000000E+03 0.  0.
         21    1    1    2  503  501  0.43371086358E+02  0.90098130807E+02 -0.32133242365E+03  0.33653120330E+03  0.00000000000E+00 0.  1.
          2    1    1    2  501    0  0.10000341449E+03 -0.25719747629E+03 -0.97661102646E+02  0.29272669111E+03  0.00000000000E+00 0. -1.
<mgrwt>
<rscale>  4 0.31289038E+03</rscale>
<asrwt>0</asrwt>
<pdfrwt beam="1">  1       21 0.18572763E-01 0.31289038E+03</pdfrwt>
<pdfrwt beam="2">  1        2 0.23877421E+00 0.31289038E+03</pdfrwt>
<totfact> 0.41678630E+03</totfact>
</mgrwt>
</event>
<event>
 5    0  0.1041609E-002  0.3635136E+03  0.7546771E-02  0.1057201E+00
         21   -1    0    0  503  502  0.00000000000E+00  0.00000000000E+00  0.16760145241E+03  0.16760145241E+03  0.00000000000E+00 0.  1.
          2   -1    0    0  502    0 -0.00000000000E+00 -0.00000000000E+00 -0.94635021667E+03  0.94635021667E+03  0.00000000000E+00 0.  1.
         25    1    1    2    0    0  0.33987277781E+03  0.97688594626E+02 -0.55449589739E+03  0.66943802315E+03  0.12500000000E+03 0.  0.
         21    1    1    2  503  501 -0.35201355337E+02 -0.53673883972E+01 -0.94049763609E+02  0.10056491590E+03  0.00000000000E+00 0. -1.
          2    1    1    2  501    0 -0.30467142247E+03 -0.92321206229E+02 -0.13020310326E+03  0.34394873003E+03  0.00000000000E+00 0.  1.
<mgrwt>
<rscale>  4 0.36351355E+03</rscale>
<asrwt>0</asrwt>
<pdfrwt beam="1">  1       21 0.25784839E-01 0.36351355E+03</pdfrwt>
<pdfrwt beam="2">  1        2 0.14559234E+00 0.36351355E+03</pdfrwt>
<totfact> 0.48956590E+03</totfact>
</mgrwt>
</event>
<event>
 5    0  0.1041609E-002  0.3148963E+03  0.7546771E-02  0.1078022E+00
         21   -1    0    0  503  502  0.00000000000E+00  0.00000000000E+00  0.10466989243E+03  0.10466989243E+03  0.00000000000E+00 0.  1.
          3   -1    0    0  502    0 -0.00000000000E+00 -0.00000000000E+00 -0.13104469594E+04  0.13104469594E+04  0.00000000000E+00 0.  1.
         25    1    1    2    0    0  0.26645374749E+03 -0.13738126392E+03 -0.82818014140E+03  0.88959460308E+03  0.12500000000E+03 0.  0.
         21    1    1    2  503  501 -0.12442141727E+03 -0.26933963651E+02 -0.23014100351E+03  0.26300381931E+03  0.00000000000E+00 0. -1.
          3    1    1    2  501    0 -0.14203233022E+03  0.16431522757E+03 -0.14745592204E+03  0.26251842941E+03  0.00000000000E+00 0.  1.
<mgrwt>
<rscale>  4 0.31489635E+03</rscale>
<asrwt>0</asrwt>
<pdfrwt beam="1">  1       21 0.16103060E-01 0.31489635E+03</pdfrwt>
<pdfrwt beam="2">  1        3 0.20160723E+00 0.31489635E+03</pdfrwt>
<totfact> 0.26160884E+02</totfact>
</mgrwt>
</event>
<event>
 5    0  0.1041609E-002  0.4254492E+03  0.7546771E-02  0.1035307E+00
          1   -1    0    0  502    0 -0.00000000000E+00  0.00000000000E+00  0.96634368660E+03  0.96634368660E+03  0.00000000000E+00 0.  1.
         21   -1    0    0  503  502  0.00000000000E+00 -0.00000000000E+00 -0.25575045385E+03  0.25575045385E+03  0.00000000000E+00 0.  1.
         25    1    1    2    0    0  0.16795708378E+02  0.32565448187E+03  0.73697805254E+03  0.81553331465E+03  0.12500000000E+03 0.  0.
         21    1    1    2  503  501  0.25933311165E+02  0.26621323117E+02 -0.35765547216E+02  0.51579122135E+02  0.00000000000E+00 0.  1.
          1    1    1    2  501    0 -0.42729019544E+02 -0.35227580499E+03  0.93807274265E+01  0.35498170367E+03  0.00000000000E+00 0.  1.
<mgrwt>
<rscale>  4 0.42544919E+03</rscale>
<asrwt>0</asrwt>
<pdfrwt beam="1">  1       21 0.39346224E-01 0.42544919E+03</pdfrwt>
<pdfrwt beam="2">  1        1 0.14866826E+00 0.42544919E+03</pdfrwt>
<totfact> 0.10878375E+03</totfact>
</mgrwt>
</event>
<event>
 5    0  0.1041609E-002  0.2915339E+03  0.7546771E-02  0.1089551E+00
          2   -1    0    0  502    0 -0.00000000000E+00  0.00000000000E+00  0.69647809987E+03  0.69647809987E+03  0.00000000000E+00 0. -1.
         21   -1    0    0  503  502  0.00000000000E+00 -0.00000000000E+00 -0.13891886633E+03  0.13891886633E+03  0.00000000000E+00 0. -1.
         25    1    1    2    0    0  0.15151300811E+03 -0.16359917962E+03  0.10446528426E+03  0.27615010197E+03  0.12500000000E+03 0.  0.
         21    1    1    2  503  501  0.51338171559E+02  0.10129964132E+03  0.18856170675E+03  0.22011983655E+03  0.00000000000E+00 0.  1.
          2    1    1    2  501    0 -0.20285117967E+03  0.62299538305E+02  0.26453224253E+03  0.33912702768E+03  0.00000000000E+00 0. -1.
<mgrwt>
<rscale>  4 0.29153390E+03</rscale>
<asrwt>0</asrwt>
<pdfrwt beam="1">  1       21 0.21372134E-01 0.29153390E+03</pdfrwt>
<pdfrwt beam="2">  1        2 0.10715048E+00 0.29153390E+03</pdfrwt>
<totfact> 0.10608636E+04</totfact>
</mgrwt>
</event>
<event>
 5    0  0.1041609E-002  0.7204675E+03  0.7546771E-02  0.9682856E-01
          3   -1    0    0  502    0 -0.00000000000E+00  0.00000000000E+00  0.37883277618E+03  0.37883277618E+03  0.00000000000E+00 0. -1.
         21   -1    0    0  503  502  0.00000000000E+00 -0.00000000000E+00 -0.73523533014E+03  0.73523533014E+03  0.00000000000E+00 0. -1.
         25    1    1    2    0    0  0.15321092100E+03  0.42124032874E+03  0.33273272771E+02  0.46652878963E+03  0.12500000000E+03 0.  0.
         21    1    1    2  503  501 -0.13114272492E+02 -0.24525342629E+03 -0.67686603143E+02  0.25476009007E+03  0.00000000000E+00 0. -1.
          3    1    1    2  501    0 -0.14009664851E+03 -0.17598690245E+03 -0.32198922358E+03  0.39277922662E+03  0.00000000000E+00 0. -1.
<mgrwt>
<rscale>  4 0.72046747E+03</rscale>
<asrwt>0</asrwt>
<pdfrwt beam="1">  1       21 0.11311313E+00 0.72046747E+03</pdfrwt>
<pdfrwt beam="2">  1        3 0.58281967E-01 0.72046747E+03</pdfrwt>
<totfact> 0.78214005E+01</totfact>
</mgrwt>
</event>
<event>
 5    0  0.1041609E-002  0.3433484E+03  0.7546771E-02  0.1065379E+00
         21   -1    0    0  501  502  0.00000000000E+00  0.00000000000E+00  0.14994586025E+04  0.14994586025E+04  0.00000000000E+00 0. -1.
         -3   -1    0    0    0  501 -0.00000000000E+00 -0.00000000000E+00 -0.94392256239E+02  0.94392256239E+02  0.00000000000E+00 0. -1.
         25    1    1    2    0    0  0.30743402808E+03 -0.12144234727E+03  0.81073375456E+03  0.88440835936E+03  0.12500000000E+03 0.  0.
         21    1    1    2  503  502 -0.10404993272E+03 -0.31182295868E+02  0.30752000576E+03  0.32613996691E+03  0.00000000000E+00 0.  1.
         -3    1    1    2    0  503 -0.20338409536E+03  0.15262464314E+03  0.28681258594E+03  0.38330253247E+03  0.00000000000E+00 0. -1.
<mgrwt>
<rscale>  4 0.34334842E+03</rscale>
<asrwt>0</asrwt>
<pdfrwt beam="1">  1       21 0.23068592E+00 0.34334842E+03</pdfrwt>
<pdfrwt beam="2">  1       -3 0.14521887E-01 0.34334842E+03</pdfrwt>
<totfact> 0.15641551E+02</totfact>
</mgrwt>
</event>
<event>
 5    0  0.1041609E-002  0.6693223E+03  0.7546771E-02  0.9771183E-01
         21   -1    0    0  503  502  0.00000000000E+00  0.00000000000E+00  0.50650760284E+03  0.50650760284E+03  0.00000000000E+00 0. -1.
          2   -1    0    0  502    0 -0.00000000000E+00 -0.00000000000E+00 -0.11576004946E+04  0.11576004946E+04  0.00000000000E+00 0. -1.
         25    1    1    2    0    0 -0.92204268602E+02 -0.41120758920E+03  0.16151061934E+02  0.43986266648E+03  0.12500000000E+03 0.  0.
         21    1    1    2  503  501  0.82946952212E+02 -0.23598831769E+03  0.53212314735E+02  0.25573860367E+03  0.00000000000E+00 0.  1.
          2    1    1    2  501    0  0.92573163896E+01  0.64719590689E+03 -0.72045626847E+03  0.96850682732E+03  0.00000000000E+00 0. -1.
<mgrwt>
<rscale>  4 0.66932226E+03</rscale>
<asrwt>0</asrwt>
<pdfrwt beam="1">  1       21 0.77924247E-01 0.66932226E+03</pdfrwt>
<pdfrwt beam="2">  1        2 0.17809238E+00 0.66932226E+03</pdfrwt>
<totfact> 0.33003324E+02</totfact>
</mgrwt>
</event>
<event>
 5    0  0.1041609E-002  0.4278651E+03  0.7546771E-02  0.1034536E+00
         21   -1    0    0  503  502  0.00000000000E+00  0.00000000000E+00  0.41937960085E+03  0.41937960085E+03  0.00000000000E+00 0.  1.
          2   -1    0    0  502    0 -0.00000000000E+00 -0.00000000000E+00 -0.59350053986E+03  0.59350053986E+03  0.00000000000E+00 0.  1.
         25    1    1    2    0    0 -0.32209667001E+03  0.48969084962E+02 -0.40565410669E+03  0.53509297359E+03  0.12500000000E+03 0.  0.
         21    1    1    2  503  501  0.75779919500E+02 -0.31302903423E+02  0.21520933756E+03  0.23029877754E+03  0.00000000000E+00 0.  1.
          2    1    1    2  501    0  0.24631675051E+03 -0.17666181538E+02  0.16323830112E+02  0.24748838959E+03  0.00000000000E+00 0.  1.
<mgrwt>
<rscale>  4 0.42786513E+03</rscale>
<asrwt>0</asrwt>
<pdfrwt beam="1">  1       21 0.64519939E-01 0.42786513E+03</pdfrwt>
<pdfrwt beam="2">  1        2 0.91307775E-01 0.42786513E+03</pdfrwt>
<totfact> 0.13134359E+03</totfact>
</mgrwt>
</event>
<event>
 5    0  0.1041609E-002  0.3284973E+03  0.7546771E-02  0.1071804E+00
          2   -1    0    0  502    0 -0.00000000000E+00  0.00000000000E+00  0.34983264044E+03  0.34983264044E+03  0.00000000000E+00 0. -1.
         21   -1    0    0  503  502  0.00000000000E+00 -0.00000000000E+00 -0.64103928684E+03  0.64103928684E+03  0.00000000000E+00 0. -1.
         25    1    1    2    0    0 -0.17797388075E+03 -0.22948744907E+03  0.93499794077E+02  0.32970654073E+03  0.12500000000E+03 0.  0.
         21    1    1    2  503  501  0.80907067334E+02 -0.13843121094E+02  0.88235794120E+02  0.12051199488E+03  0.00000000000E+00 0. -1.
          2    1    1    2  501    0  0.97066813412E+02  0.24333057017E+03 -0.47294223460E+03  0.54065339166E+03  0.00000000000E+00 0. -1.
<mgrwt>
<rscale>  4 0.32849730E+03</rscale>
<asrwt>0</asrwt>
<pdfrwt beam="1">  1       21 0.98621428E-01 0.32849730E+03</pdfrwt>
<pdfrwt beam="2">  1        2 0.53820407E-01 0.32849730E+03</pdfrwt>
<totfact> 0.92162382E+02</totfact>
</mgrwt>
</event>
<event>
 5    0  0.1041609E-002  0.6499002E+03  0.7546771E-02  0.9806967E-01
          4   -1    0    0  502    0 -0.00000000000E+00  0.00000000000E+00  0.88028730122E+03  0.88028730122E+03  0.00000000000E+00 0.  1.
         21   -1    0    0  503  502  0.00000000000E+00 -0.00000000000E+00 -0.49306311127E+03  0.49306311127E+03  0.00000000000E+00 0.  1.
         25    1    1    2    0    0  0.58942186679E+03  0.25286928452E+03  0.27508977973E+03  0.70898547165E+03  0.12500000000E+03 0.  0.
         21    1    1    2  503  501 -0.32810957425E+02 -0.48987521415E+02  0.29266763137E+02  0.65824612464E+02  0.00000000000E+00 0. -1.
          4    1    1    2  501    0 -0.55661090937E+03 -0.20388176310E+03  0.82867647084E+02  0.59854032837E+03  0.00000000000E+00 0.  1.
<mgrwt>
<rscale>  4 0.64990016E+03</rscale>
<asrwt>0</asrwt>
<pdfrwt beam="1">  1       21 0.75855863E-01 0.64990016E+03</pdfrwt>
<pdfrwt beam="2">  1        4 0.13542882E+00 0.64990016E+03</pdfrwt>
<totfact> 0.24077771E+01</totfact>
</mgrwt>
</event>
<event>
 5    0  0.1041609E-002  0.2054290E+03  0.7546771E-02  0.1145238E+00
          4   -1    0    0  502    0 -0.00000000000E+00  0.00000000000E+00  0.14808991906E+04  0.14808991906E+04  0.00000000000E+00 0. -1.
         21   -1    0    0  503  502  0.00000000000E+00 -0.00000000000E+00 -0.43659209549E+02  0.43659209549E+02  0.00000000000E+00 0. -1.
         25    1    1    2    0    0  0.10792480649E+03  0.19718265306E+03  0.95266420010E+03  0.98677395622E+03  0.12500000000E+03 0.  0.
         21    1    1    2  503  501 -0.70864340651E+02 -0.91658679104E+02  0.30457864200E+03  0.32586993939E+03  0.00000000000E+00 0.  1.
          4    1    1    2  501    0 -0.37060465839E+02 -0.10552397396E+03  0.17999713899E+03  0.21191450458E+03  0.00000000000E+00 0. -1.
<mgrwt>
<rscale>  4 0.20542902E+03</rscale>
<asrwt>0</asrwt>
<pdfrwt beam="1">  1       21 0.67168026E-02 0.20542902E+03</pdfrwt>
<pdfrwt beam="2">  1        4 0.22783061E+00 0.20542902E+03</pdfrwt>
<totfact> 0.66953345E+02</totfact>
</mgrwt>
</event>
<event>
 5    0  0.1041609E-002  0.3786330E+03  0.7546771E-02  0.1051440E+00
          4   -1    0    0  502    0 -0.00000000000E+00  0.00000000000E+00  0.35273789769E+03  0.35273789769E+03  0.00000000000E+00 0.  1.
         21   -1    0    0  503  502  0.00000000000E+00 -0.00000000000E+00 -0.46450630623E+03  0.46450630623E+03  0.00000000000E+00 0.  1.
         25    1    1    2    0    0  0.15328133351E+03 -0.26794412913E+03  0.10901582925E+03  0.35042641819E+03  0.12500000000E+03 0.  0.
         21    1    1    2  503  501 -0.12717426063E+03 -0.10527021653E+02 -0.10016241832E+03  0.16222398342E+03  0.00000000000E+00 0. -1.
          4    1    1    2  501    0 -0.26107072879E+02  0.27847115079E+03 -0.12062181947E+03  0.30459380231E+03  0.00000000000E+00 0.  1.
<mgrwt>
<rscale>  4 0.37863302E+03</rscale>
<asrwt>0</asrwt>
<pdfrwt beam="1">  1       21 0.71462509E-01 0.37863302E+03</pdfrwt>
<pdfrwt beam="2">  1        4 0.54267369E-01 0.37863302E+03</pdfrwt>
<totfact> 0.23743958E+02</totfact>
</mgrwt>
</event>
<event>
 5    0  0.1041609E-002  0.4604910E+03  0.7546771E-02  0.1024639E+00
         21   -1    0    0  503  502  0.00000000000E+00  0.00000000000E+00  0.19099430956E+03  0.19099430956E+03  0.00000000000E+00 0.  1.
          2   -1    0    0  502    0 -0.00000000000E+00 -0.00000000000E+00 -0.11389591483E+04  0.11389591483E+04  0.00000000000E+00 0.  1.
         25    1    1    2    0    0  0.35467629622E+03  0.21299451170E+03 -0.50809647904E+03  0.66704495285E+03  0.12500000000E+03 0.  0.
         21    1    1    2  503  501  0.37953865472E+02 -0.59269140589E+02 -0.94732949743E+02  0.11801550194E+03  0.00000000000E+00 0.  1.
          2    1    1    2  501    0 -0.39263016169E+03 -0.15372537111E+03 -0.34513540994E+03  0.54489300306E+03  0.00000000000E+00 0.  1.
<mgrwt>
<rscale>  4 0.46049098E+03</rscale>
<asrwt>0</asrwt>
<pdfrwt beam="1">  1       21 0.29383740E-01 0.46049098E+03</pdfrwt>
<pdfrwt beam="2">  1        2 0.17522449E+00 0.46049098E+03</pdfrwt>
<totfact> 0.28272504E+03</totfact>
</mgrwt>
</event>
<event>
 5    0  0.1041609E-002  0.3904544E+03  0.7546771E-02  0.1047136E+00
         21   -1    0    0  503  502  0.00000000000E+00  0.00000000000E+00  0.15317704385E+03  0.15317704385E+03  0.00000000000E+00 0.  1.
          1   -1    0    0  502    0 -0.00000000000E+00 -0.00000000000E+00 -0.11362285238E+04  0.11362285238E+04  0.00000000000E+00 0.  1.
         25    1    1    2    0    0  0.10412922493E+03  0.26073490389E+03 -0.40220525529E+03  0.50618144274E+03  0.12500000000E+03 0.  0.
         21    1    1    2  503  501 -0.35473281375E+02  0.84311756826E+02 -0.35162460489E+03  0.36332724752E+03  0.00000000000E+00 0.  1.
          1    1    1    2  501    0 -0.68655943557E+02 -0.34504666072E+03 -0.22922161975E+03  0.41989687736E+03  0.00000000000E+00 0.  1.
<mgrwt>
<rscale>  4 0.39045441E+03</rscale>
<asrwt>0</asrwt>
<pdfrwt beam="1">  1       21 0.23565698E-01 0.39045441E+03</pdfrwt>
<pdfrwt beam="2">  1        1 0.17480439E+00 0.39045441E+03</pdfrwt>
<totfact> 0.22696574E+03</totfact>
</mgrwt>
</event>
<event>
 5    0  0.1041609E-002  0.2630047E+03  0.7546771E-02  0.1105351E+00
          2   -1    0    0  502    0 -0.00000000000E+00  0.00000000000E+00  0.18500492394E+04  0.18500492394E+04  0.00000000000E+00 0.  1.
         21   -1    0    0  503  502  0.00000000000E+00 -0.00000000000E+00 -0.69071122290E+02  0.69071122290E+02  0.00000000000E+00 0.  1.
         25    1    1    2    0    0 -0.15906066857E+03  0.13570000698E+03  0.89070318140E+03  0.92341320411E+03  0.12500000000E+03 0.  0.
         21    1    1    2  503  501 -0.16380471471E+02 -0.21050563551E+02  0.73348148459E+03  0.73396630326E+03  0.00000000000E+00 0. -1.
          2    1    1    2  501    0  0.17544114004E+03 -0.11464944343E+03  0.15679345107E+03  0.26174085428E+03  0.00000000000E+00 0.  1.
<mgrwt>
<rscale>  4 0.26300473E+03</rscale>
<asrwt>0</asrwt>
<pdfrwt beam="1">  1       21 0.10626328E-01 0.26300473E+03</pdfrwt>
<pdfrwt beam="2">  1        2 0.28462292E+00 0.26300473E+03</pdfrwt>
<totfact> 0.81753051E+03</totfact>
</mgrwt>
</event>
<event>
 5    0  0.1041609E-002  0.2177221E+03  0.7546771E-02  0.1135593E+00
         21   -1    0    0  503  502  0.00000000000E+00  0.00000000000E+00  0.66353189028E+02  0.66353189028E+02  0.00000000000E+00 0. -1.
          1   -1    0    0  502    0 -0.00000000000E+00 -0.00000000000E+00 -0.16472811773E+04  0.16472811773E+04  0.00000000000E+00 0. -1.
         25    1    1    2    0    0 -0.18574389415E+03 -0.15336173733E+03 -0.44417411593E+03  0.52051538109E+03  0.12500000000E+03 0.  0.
         21    1    1    2  503  501  0.82533127522E+02  0.97159391694E+02 -0.13954540590E+03  0.18900948347E+03  0.00000000000E+00 0. -1.
          1    1    1    2  501    0  0.10321076662E+03  0.56202345632E+02 -0.99720846646E+03  0.10041095018E+04  0.00000000000E+00 0. -1.
<mgrwt>
<rscale>  4 0.21772210E+03</rscale>
<asrwt>0</asrwt>
<pdfrwt beam="1">  1       21 0.10208184E-01 0.21772210E+03</pdfrwt>
<pdfrwt beam="2">  1        1 0.25342786E+00 0.21772210E+03</pdfrwt>
<totfact> 0.50446133E+03</totfact>
</mgrwt>
</event>
<event>
 5    0  0.1041609E-002  0.3646717E+03  0.7546771E-02  0.1056749E+00
         -3   -1    0    0    0  501 -0.00000000000E+00  0.00000000000E+00  0.52983690889E+02  0.52983690889E+02  0.00000000000E+00 0. -1.
         21   -1    0    0  501  502  0.00000000000E+00 -0.00000000000E+00 -0.26566542580E+04  0.26566542580E+04  0.00000000000E+00 0. -1.
         25    1    1    2    0    0  0.29843426050E+03  0.82249505252E+02 -0.15310457639E+04  0.15670207785E+04  0.12500000000E+03 0.  0.
         21    1    1    2  503  502 -0.34211085859E+02  0.77302103324E+02 -0.20621670968E+03  0.22287069104E+03  0.00000000000E+00 0.  1.
         -3    1    1    2    0  503 -0.26422317464E+03 -0.15955160858E+03 -0.86640809347E+03  0.91974647934E+03  0.00000000000E+00 0. -1.
<mgrwt>
<rscale>  4 0.36467173E+03</rscale>
<asrwt>0</asrwt>
<pdfrwt beam="1">  1       21 0.40871587E+00 0.36467173E+03</pdfrwt>
<pdfrwt beam="2">  1       -3 0.81513405E-02 0.36467173E+03</pdfrwt>
<totfact> 0.34050962E+01</totfact>
</mgrwt>
</event>
<event>
 5    0  0.1041609E-002  0.4415869E+03  0.7546771E-02  0.1030261E+00
         -2   -1    0    0    0  501 -0.00000000000E+00  0.00000000000E+00  0.29792994535E+04  0.29792994535E+04  0.00000000000E+00 0.  1.
         21   -1    0    0  501  502  0.00000000000E+00 -0.00000000000E+00 -0.86932676537E+02  0.86932676537E+02  0.00000000000E+00 0.  1.
         25    1    1    2    0    0 -0.31455759608E+02  0.32507758331E+03  0.10843423408E+04  0.11393367422E+04  0.12500000000E+03 0.  0.
         21    1    1    2  503  502 -0.89568575811E+02  0.23814433821E+02  0.12754626928E+04  0.12788255306E+04  0.00000000000E+00 0.  1.
         -2    1    1    2    0  503  0.12102433542E+03 -0.34889201714E+03  0.53256174331E+03  0.64806985721E+03  0.00000000000E+00 0.  1.
<mgrwt>
<rscale>  4 0.44158692E+03</rscale>
<asrwt>0</asrwt>
<pdfrwt beam="1">  1       21 0.13374260E-01 0.44158692E+03</pdfrwt>
<pdfrwt beam="2">  1       -2 0.45835368E+00 0.44158692E+03</pdfrwt>
<totfact> 0.13642289E+01</totfact>
</mgrwt>
</event>
<event>
 5    0  0.1041609E-002  0.2852637E+03  0.7546771E-02  0.1092848E+00
         21   -1    0    0  501  502  0.00000000000E+00  0.00000000000E+00  0.64533093247E+03  0.64533093247E+03  0.00000000000E+00 0. -1.
         -1   -1    0    0    0  501 -0.00000000000E+00 -0.00000000000E+00 -0.28382063696E+03  0.28382063696E+03  0.00000000000E+00 0. -1.
         25    1    1    2    0    0 -0.35245403875E+02  0.27165162908E+03 -0.13019451914E+03  0.32804337959E+03  0.12500000000E+03 0.  0.
         21    1    1    2  503  502 -0.17085300360E+02 -0.46400880900E+02 -0.83732804051E+01  0.50150384460E+02  0.00000000000E+00 0. -1.
         -1    1    1    2    0  503  0.52330704236E+02 -0.22525074818E+03  0.50007809505E+03  0.55095780538E+03  0.00000000000E+00 0. -1.
<mgrwt>
<rscale>  4 0.28526374E+03</rscale>
<asrwt>0</asrwt>
<pdfrwt beam="1">  1       21 0.99281682E-01 0.28526374E+03</pdfrwt>
<pdfrwt beam="2">  1       -1 0.43664713E-01 0.28526374E+03</pdfrwt>
<totfact> 0.38882793E+02</totfact>
</mgrwt>
</event>
<event>
 5    0  0.1041609E-002  0.2639906E+03  0.7546771E-02  0.1104769E+00
         21   -1    0    0  503  502  0.00000000000E+00  0.00000000000E+00  0.69436624035E+02  0.69436624035E+02  0.00000000000E+00 0. -1.
          2   -1    0    0  502    0 -0.00000000000E+00 -0.00000000000E+00 -0.31812620480E+04  0.31812620480E+04  0.00000000000E+00 0. -1.
         25    1    1    2    0    0  0.93273865280E+02 -0.27158499960E+03 -0.38038675822E+03  0.49272458004E+03  0.12500000000E+03 0.  0.
         21    1    1    2  503  501 -0.10099824107E+02  0.17637365396E+03 -0.67769553017E+03  0.70034341853E+03  0.00000000000E+00 0. -1.
          2    1    1    2  501    0 -0.83174041173E+02  0.95211345633E+02 -0.20537431356E+04  0.20576306735E+04  0.00000000000E+00 0. -1.
<mgrwt>
<rscale>  4 0.26399060E+03</rscale>
<asrwt>0</asrwt>
<pdfrwt beam="1">  1       21 0.10682556E-01 0.26399060E+03</pdfrwt>
<pdfrwt beam="2">  1        2 0.48942500E+00 0.26399060E+03</pdfrwt>
<totfact> 0.14750515E+03</totfact>
</mgrwt>
</event>
<event>
 5    0  0.1041609E-002  0.4139100E+03  0.7546771E-02  0.1039067E+00
         21   -1    0    0  503  502  0.00000000000E+00  0.00000000000E+00  0.57559252154E+03  0.57559252154E+03  0.00000000000E+00 0.  1.
          2   -1    0    0  502    0 -0.00000000000E+00 -0.00000000000E+00 -0.94250019924E+03  0.94250019924E+03  0.00000000000E+00 0.  1.
         25    1    1    2    0    0  0.17191041864E+03  0.27613242833E+03 -0.62730771863E+03  0.71759479086E+03  0.12500000000E+03 0.  0.
         21    1    1    2  503  501 -0.17591052692E+03  0.40133236705E+02 -0.18225082967E+03  0.25645770623E+03  0.00000000000E+00 0. -1.
          2    1    1    2  501    0  0.40001082866E+01 -0.31626566503E+03  0.44265087060E+03  0.54404022369E+03  0.00000000000E+00 0.  1.
<mgrwt>
<rscale>  4 0.41390999E+03</rscale>
<asrwt>0</asrwt>
<pdfrwt beam="1">  1       21 0.88552697E-01 0.41390999E+03</pdfrwt>
<pdfrwt beam="2">  1        2 0.14500003E+00 0.41390999E+03</pdfrwt>
<totfact> 0.35493983E+02</totfact>
</mgrwt>
</event>
<event>
 5    0  0.1041609E-002  0.2171511E+03  0.7546771E-02  0.1136025E+00
          1   -1    0    0  502    0 -0.00000000000E+00  0.00000000000E+00  0.23022188701E+04  0.23022188701E+04  0.00000000000E+00 0.  1.
         21   -1    0    0  503  502  0.00000000000E+00 -0.00000000000E+00 -0.30653248652E+02  0.30653248652E+02  0.00000000000E+00 0.  1.
         25    1    1    2    0    0 -0.19384201022E+03 -0.10706134556E+03  0.69676235344E+03  0.74171398383E+03  0.12500000000E+03 0.  0.
         21    1    1    2  503  501  0.76364864912E+02  0.70207025021E+02  0.65865389323E+03  0.66677250245E+03  0.00000000000E+00 0. -1.
          1    1    1    2  501    0  0.11747714531E+03  0.36854320540E+02  0.91614937480E+03  0.92438563249E+03  0.00000000000E+00 0.  1.
<mgrwt>
<rscale>  4 0.21715106E+03</rscale>
<asrwt>0</asrwt>
<pdfrwt beam="1">  1       21 0.47158862E-02 0.21715106E+03</pdfrwt>
<pdfrwt beam="2">  1        1 0.35418738E+00 0.21715106E+03</pdfrwt>
<totfact> 0.72414278E+03</totfact>
</mgrwt>
</event>
<event>
 5    0  0.1041609E-002  0.4778914E+03  0.7546771E-02  0.1019716E+00
          1   -1    0    0  502    0 -0.00000000000E+00  0.00000000000E+00  0.15615341669E+04  0.15615341669E+04  0.00000000000E+00 0.  1.
         21   -1    0    0  503  502  0.00000000000E+00 -0.00000000000E+00 -0.21831039516E+03  0.21831039516E+03  0.00000000000E+00 0.  1.
         25    1    1    2    0    0  0.10808308377E+02 -0.23785220659E+03  0.69283984931E+02  0.27769724931E+03  0.12500000000E+03 0.  0.
         21    1    1    2  503  501  0.25399059860E+03 -0.87581173214E+02  0.16209696131E+03  0.31377876114E+03  0.00000000000E+00 0.  1.
          1    1    1    2  501    0 -0.26479890697E+03  0.32543337980E+03  0.11118428255E+04  0.11883685516E+04  0.00000000000E+00 0.  1.
<mgrwt>
<rscale>  4 0.47789136E+03</rscale>
<asrwt>0</asrwt>
<pdfrwt beam="1">  1       21 0.33586216E-01 0.47789136E+03</pdfrwt>
<pdfrwt beam="2">  1        1 0.24023602E+00 0.47789136E+03</pdfrwt>
<totfact> 0.56046974E+02</totfact>
</mgrwt>
</event>
<event>
 5    0  0.1041609E-002  0.3253612E+03  0.7546771E-02  0.1073208E+00
         21   -1    0    0  501  502  0.00000000000E+00  0.00000000000E+00  0.46231340385E+03  0.46231340385E+03  0.00000000000E+00 0.  1.
         -4   -1    0    0    0  501 -0.00000000000E+00 -0.00000000000E+00 -0.27077062541E+03  0.27077062541E+03  0.00000000000E+00 0.  1.
         25    1    1    2    0    0 -0.17909639134E+03  0.18103785161E+03  0.26776874706E+03  0.39009655601E+03  0.12500000000E+03 0.  0.
         21    1    1    2  503  502 -0.40613547136E+02  0.84875277588E+01 -0.24707043138E+02  0.48290126517E+02  0.00000000000E+00 0.  1.
         -4    1    1    2    0  503  0.21970993847E+03 -0.18952537937E+03 -0.51518925473E+02  0.29469734673E+03  0.00000000000E+00 0.  1.
<mgrwt>
<rscale>  4 0.32536124E+03</rscale>
<asrwt>0</asrwt>
<pdfrwt beam="1">  1       21 0.71125139E-01 0.32536124E+03</pdfrwt>
<pdfrwt beam="2">  1       -4 0.41657019E-01 0.32536124E+03</pdfrwt>
<totfact> 0.41606491E+02</totfact>
</mgrwt>
</event>
<event>
 5    0  0.1041609E-002  0.5214195E+03  0.7546771E-02  0.1008335E+00
          2   -1    0    0  502    0 -0.00000000000E+00  0.00000000000E+00  0.23123170444E+04  0.23123170444E+04  0.00000000000E+00 0. -1.
         21   -1    0    0  503  502  0.00000000000E+00 -0.00000000000E+00 -0.14911457681E+03  0.14911457681E+03  0.00000000000E+00 0. -1.
         25    1    1    2    0    0 -0.16142833013E+03  0.24037877664E+03  0.19294792289E+03  0.36972281912E+03  0.12500000000E+03 0.  0.
         21    1    1    2  503  501  0.10965154995E+03  0.20773530216E+03  0.47526929800E+03  0.53014934103E+03  0.00000000000E+00 0. -1.
          2    1    1    2  501    0  0.51776780184E+02 -0.44811407880E+03  0.14949852467E+04  0.15615594610E+04  0.00000000000E+00 0. -1.
<mgrwt>
<rscale>  4 0.52141953E+03</rscale>
<asrwt>0</asrwt>
<pdfrwt beam="1">  1       21 0.22940706E-01 0.52141953E+03</pdfrwt>
<pdfrwt beam="2">  1        2 0.35574106E+00 0.52141953E+03</pdfrwt>
<totfact> 0.10265802E+03</totfact>
</mgrwt>
</event>
<event>
 5    0  0.1041609E-002  0.7849131E+03  0.7546771E-02  0.9582115E-01
         21   -1    0    0  503  502  0.00000000000E+00  0.00000000000E+00  0.83761133828E+03  0.83761133828E+03  0.00000000000E+00 0. -1.
          2   -1    0    0  502    0 -0.00000000000E+00 -0.00000000000E+00 -0.10700100486E+04  0.10700100486E+04  0.00000000000E+00 0. -1.
         25    1    1    2    0    0  0.52487167870E+03 -0.39413883410E+03 -0.40049142090E+03  0.77900839396E+03  0.12500000000E+03 0.  0.
         21    1    1    2  503  501  0.54559794036E+02  0.39046915921E+03 -0.20005028583E+03  0.44211203589E+03  0.00000000000E+00 0.  1.
          2    1    1    2  501    0 -0.57943147273E+03  0.36696748919E+01  0.36814299646E+03  0.68650095699E+03  0.00000000000E+00 0. -1.
<mgrwt>
<rscale>  4 0.78491309E+03</rscale>
<asrwt>0</asrwt>
<pdfrwt beam="1">  1       21 0.12886328E+00 0.78491309E+03</pdfrwt>
<pdfrwt beam="2">  1        2 0.16461693E+00 0.78491309E+03</pdfrwt>
<totfact> 0.10552314E+02</totfact>
</mgrwt>
</event>
<event>
 5    0  0.1041609E-002  0.3734263E+03  0.7546771E-02  0.1053391E+00
         21   -1    0    0  503  502  0.00000000000E+00  0.00000000000E+00  0.91604998825E+02  0.91604998825E+02  0.00000000000E+00 0. -1.
          2   -1    0    0  502    0 -0.00000000000E+00 -0.00000000000E+00 -0.37927902807E+04  0.37927902807E+04  0.00000000000E+00 0. -1.
         25    1    1    2    0    0 -0.23626751082E+02 -0.24657479264E+03 -0.23414727842E+03  0.36305275061E+03  0.12500000000E+03 0.  0.
         21    1    1    2  503  501 -0.11015413805E+03 -0.62775598251E+02 -0.19890889590E+03  0.23588017876E+03  0.00000000000E+00 0.  1.
          2    1    1    2  501    0  0.13378088913E+03  0.30935039089E+03 -0.32681291075E+04  0.32854623501E+04  0.00000000000E+00 0. -1.
<mgrwt>
<rscale>  4 0.37342635E+03</rscale>
<asrwt>0</asrwt>
<pdfrwt beam="1">  1       21 0.14093078E-01 0.37342635E+03</pdfrwt>
<pdfrwt beam="2">  1        2 0.58350616E+00 0.37342635E+03</pdfrwt>
<totfact> 0.33021159E+02</totfact>
</mgrwt>
</event>
<event>
 5    0  0.1041609E-002  0.1794663E+03  0.7546771E-02  0.1168321E+00
         21   -1    0    0  503  502  0.00000000000E+00  0.00000000000E+00  0.19763929996E+03  0.19763929996E+03  0.00000000000E+00 0.  1.
          2   -1    0    0  502    0 -0.00000000000E+00 -0.00000000000E+00 -0.29761543733E+03  0.29761543733E+03  0.00000000000E+00 0.  1.
         25    1    1    2    0    0 -0.22012821626E+03 -0.71244170717E+01 -0.59784943979E+02  0.26020458958E+03  0.12500000000E+03 0.  0.
         21    1    1    2  503  501  0.13823380929E+03  0.81422337166E+01 -0.59801034284E+02  0.15083449772E+03  0.00000000000E+00 0. -1.
          2    1    1    2  501    0  0.81894406970E+02 -0.10178166449E+01  0.19609840896E+02  0.84215649993E+02  0.00000000000E+00 0.  1.
<mgrwt>
<rscale>  4 0.17946634E+03</rscale>
<asrwt>0</asrwt>
<pdfrwt beam="1">  1       21 0.30406046E-01 0.17946634E+03</pdfrwt>
<pdfrwt beam="2">  1        2 0.45786991E-01 0.17946634E+03</pdfrwt>
<totfact> 0.14228629E+04</totfact>
</mgrwt>
</event>
<event>
 5    0  0.1041609E-002  0.4260691E+03  0.7546771E-02  0.1035109E+00
         21   -1    0    0  503  502  0.00000000000E+00  0.00000000000E+00  0.11810495516E+03  0.11810495516E+03  0.00000000000E+00 0. -1.
          1   -1    0    0  502    0 -0.00000000000E+00 -0.00000000000E+00 -0.16508092873E+04  0.16508092873E+04  0.00000000000E+00 0. -1.
         25    1    1    2    0    0 -0.14409048151E+03  0.34341768909E+03 -0.48286195180E+03  0.62247766268E+03  0.12500000000E+03 0.  0.
         21    1    1    2  503  501 -0.77927643098E+02 -0.91244616098E+02 -0.35277465137E+03  0.37262347239E+03  0.00000000000E+00 0.  1.
          1    1    1    2  501    0  0.22201812461E+03 -0.25217307299E+03 -0.69706772895E+03  0.77381310737E+03  0.00000000000E+00 0. -1.
<mgrwt>
<rscale>  4 0.42606905E+03</rscale>
<asrwt>0</asrwt>
<pdfrwt beam="1">  1       21 0.18169995E-01 0.42606905E+03</pdfrwt>
<pdfrwt beam="2">  1        1 0.25397063E+00 0.42606905E+03</pdfrwt>
<totfact> 0.16374072E+03</totfact>
</mgrwt>
</event>
<event>
 5    0  0.1041609E-002  0.3938216E+03  0.7546771E-02  0.1045940E+00
         21   -1    0    0  503  502  0.00000000000E+00  0.00000000000E+00  0.82064132586E+02  0.82064132586E+02  0.00000000000E+00 0. -1.
          2   -1    0    0  502    0 -0.00000000000E+00 -0.00000000000E+00 -0.26304082099E+04  0.26304082099E+04  0.00000000000E+00 0. -1.
         25    1    1    2    0    0  0.26695152876E+03 -0.22104870455E+03 -0.18470984045E+04  0.18834869695E+04  0.12500000000E+03 0.  0.
         21    1    1    2  503  501 -0.75601123148E+02  0.11580829711E+03 -0.58519276534E+02  0.15017189227E+03  0.00000000000E+00 0.  1.
          2    1    1    2  501    0 -0.19135040561E+03  0.10524040743E+03 -0.64272639628E+03  0.67881348069E+03  0.00000000000E+00 0. -1.
<mgrwt>
<rscale>  4 0.39382162E+03</rscale>
<asrwt>0</asrwt>
<pdfrwt beam="1">  1       21 0.12625249E-01 0.39382162E+03</pdfrwt>
<pdfrwt beam="2">  1        2 0.40467824E+00 0.39382162E+03</pdfrwt>
<totfact> 0.21739800E+03</totfact>
</mgrwt>
</event>
<event>
 5    0  0.1041609E-002  0.3016905E+03  0.7546771E-02  0.1084399E+00
         -2   -1    0    0    0  501 -0.00000000000E+00  0.00000000000E+00  0.28537684193E+04  0.28537684193E+04  0.00000000000E+00 0.  1.
         21   -1    0    0  501  502  0.00000000000E+00 -0.00000000000E+00 -0.42221683122E+02  0.42221683122E+02  0.00000000000E+00 0.  1.
         25    1    1    2    0    0 -0.24010379384E+03 -0.33420315655E+02  0.17749251032E+04  0.17957591351E+04  0.12500000000E+03 0.  0.
         21    1    1    2  503  502 -0.10630916975E+02  0.82482527774E+02  0.48800595402E+03  0.49504160930E+03  0.00000000000E+00 0. -1.
         -2    1    1    2    0  503  0.25073471081E+03 -0.49062212119E+02  0.54861567895E+03  0.60518935802E+03  0.00000000000E+00 0.  1.
<mgrwt>
<rscale>  4 0.30169048E+03</rscale>
<asrwt>0</asrwt>
<pdfrwt beam="1">  1       21 0.64956458E-02 0.30169048E+03</pdfrwt>
<pdfrwt beam="2">  1       -2 0.43904114E+00 0.30169048E+03</pdfrwt>
<totfact> 0.70018172E+01</totfact>
</mgrwt>
</event>
<event>
 5    0  0.1041609E-002  0.3871278E+03  0.7546771E-02  0.1048330E+00
          2   -1    0    0  502    0 -0.00000000000E+00  0.00000000000E+00  0.28461321127E+03  0.28461321127E+03  0.00000000000E+00 0.  1.
         21   -1    0    0  503  502  0.00000000000E+00 -0.00000000000E+00 -0.57840951923E+03  0.57840951923E+03  0.00000000000E+00 0.  1.
         25    1    1    2    0    0  0.25145645720E+03 -0.80018662749E+02 -0.65086973018E+02  0.29915656489E+03  0.12500000000E+03 0.  0.
         21    1    1    2  503  501 -0.11847906305E+03 -0.17631681188E+03 -0.16287748970E+03  0.26768261651E+03  0.00000000000E+00 0.  1.
          2    1    1    2  501    0 -0.13297739415E+03  0.25633547463E+03 -0.65831845234E+02  0.29618354909E+03  0.00000000000E+00 0.  1.
<mgrwt>
<rscale>  4 0.38712781E+03</rscale>
<asrwt>0</asrwt>
<pdfrwt beam="1">  1       21 0.88986080E-01 0.38712781E+03</pdfrwt>
<pdfrwt beam="2">  1        2 0.43786648E-01 0.38712781E+03</pdfrwt>
<totfact> 0.14500794E+03</totfact>
</mgrwt>
</event>
<event>
 5    0  0.1041609E-002  0.3976716E+03  0.7546771E-02  0.1044589E+00
         21   -1    0    0  503  502  0.00000000000E+00  0.00000000000E+00  0.23725039465E+02  0.23725039465E+02  0.00000000000E+00 0. -1.
          2   -1    0    0  502    0 -0.00000000000E+00 -0.00000000000E+00 -0.41021981079E+04  0.41021981079E+04  0.00000000000E+00 0. -1.
         25    1    1    2    0    0 -0.23922270470E+03 -0.21185158796E+02 -0.23909126840E+04  0.24061930047E+04  0.12500000000E+03 0.  0.
         21    1    1    2  503  501  0.12247413763E+03  0.16438124725E+02 -0.14472801240E+04  0.14525460006E+04  0.00000000000E+00 0.  1.
          2    1    1    2  501    0  0.11674856706E+03  0.47470340703E+01 -0.24028026033E+03  0.26718414202E+03  0.00000000000E+00 0. -1.
<mgrwt>
<rscale>  4 0.39767157E+03</rscale>
<asrwt>0</asrwt>
<pdfrwt beam="1">  1       21 0.36500089E-02 0.39767157E+03</pdfrwt>
<pdfrwt beam="2">  1        2 0.63110692E+00 0.39767157E+03</pdfrwt>
<totfact> 0.20437319E+03</totfact>
</mgrwt>
</event>
<event>
 5    0  0.1041609E-002  0.2723244E+03  0.7546771E-02  0.1099957E+00
         21   -1    0    0  503  502  0.00000000000E+00  0.00000000000E+00  0.57248042290E+02  0.57248042290E+02  0.00000000000E+00 0.  1.
          1   -1    0    0  502    0 -0.00000000000E+00 -0.00000000000E+00 -0.13729974289E+04  0.13729974289E+04  0.00000000000E+00 0.  1.
         25    1    1    2    0    0 -0.21313173460E+03  0.91374091763E+02 -0.51998051272E+03  0.58290573384E+03  0.12500000000E+03 0.  0.
         21    1    1    2  503  501  0.47679906676E+02  0.53150280106E+02 -0.19784411775E+03  0.21033454472E+03  0.00000000000E+00 0. -1.
          1    1    1    2  501    0  0.16545182792E+03 -0.14452437187E+03 -0.59792475617E+03  0.63700519265E+03  0.00000000000E+00 0.  1.
<mgrwt>
<rscale>  4 0.27232441E+03</rscale>
<asrwt>0</asrwt>
<pdfrwt beam="1">  1       21 0.88073907E-02 0.27232441E+03</pdfrwt>
<pdfrwt beam="2">  1        1 0.21123038E+00 0.27232441E+03</pdfrwt>
<totfact> 0.97759540E+03</totfact>
</mgrwt>
</event>
<event>
 5    0  0.1041609E-002  0.4966552E+03  0.7546771E-02  0.1014656E+00
         21   -1    0    0  503  502  0.00000000000E+00  0.00000000000E+00  0.19396184855E+03  0.19396184855E+03  0.00000000000E+00 0.  1.
          1   -1    0    0  502    0 -0.00000000000E+00 -0.00000000000E+00 -0.14065990191E+04  0.14065990191E+04  0.00000000000E+00 0.  1.
         25    1    1    2    0    0  0.16712813712E+03  0.40551432624E+03 -0.69401711236E+03  0.83045676302E+03  0.12500000000E+03 0.  0.
         21    1    1    2  503  501 -0.19206299031E+03 -0.45588198927E+02 -0.11384258648E+03  0.22787411135E+03  0.00000000000E+00 0.  1.
          1    1    1    2  501    0  0.24934853189E+02 -0.35992612731E+03 -0.40477747175E+03  0.54222999333E+03  0.00000000000E+00 0.  1.
<mgrwt>
<rscale>  4 0.49665517E+03</rscale>
<asrwt>0</asrwt>
<pdfrwt beam="1">  1       21 0.29840285E-01 0.49665517E+03</pdfrwt>
<pdfrwt beam="2">  1        1 0.21639984E+00 0.49665517E+03</pdfrwt>
<totfact> 0.90023326E+02</totfact>
</mgrwt>
</event>
<event>
 5    0  0.1041609E-002  0.2407694E+03  0.7546771E-02  0.1119281E+00
         21   -1    0    0  503  502  0.00000000000E+00  0.00000000000E+00  0.45714144287E+03  0.45714144287E+03  0.00000000000E+00 0. -1.
          4   -1    0    0  502    0 -0.00000000000E+00 -0.00000000000E+00 -0.25922045309E+03  0.25922045309E+03  0.00000000000E+00 0. -1.
         25    1    1    2    0    0  0.87898113756E+02  0.18159361422E+03  0.61273821394E+02  0.24511589160E+03  0.12500000000E+03 0.  0.
         21    1    1    2  503  501 -0.19983131698E+03 -0.16180654264E+03  0.21335397020E+03  0.33411649029E+03  0.00000000000E+00 0. -1.
          4    1    1    2  501    0  0.11193320322E+03 -0.19787071575E+02 -0.76706801814E+02  0.13712951407E+03  0.00000000000E+00 0. -1.
<mgrwt>
<rscale>  4 0.24076936E+03</rscale>
<asrwt>0</asrwt>
<pdfrwt beam="1">  1       21 0.70329453E-01 0.24076936E+03</pdfrwt>
<pdfrwt beam="2">  1        4 0.39880070E-01 0.24076936E+03</pdfrwt>
<totfact> 0.46952593E+02</totfact>
</mgrwt>
</event>
<event>
 5    0  0.1041609E-002  0.2417304E+03  0.7546771E-02  0.1118645E+00
          2   -1    0    0  502    0 -0.00000000000E+00  0.00000000000E+00  0.34215869433E+04  0.34215869433E+04  0.00000000000E+00 0. -1.
         21   -1    0    0  503  502  0.00000000000E+00 -0.00000000000E+00 -0.22784670420E+02  0.22784670420E+02  0.00000000000E+00 0. -1.
         25    1    1    2    0    0  0.37339914540E+02 -0.21143798335E+03  0.16100053993E+04  0.16290619005E+04  0.12500000000E+03 0.  0.
         21    1    1    2  503  501  0.60024468210E+02  0.94406831238E+02  0.32701262681E+03  0.34561950851E+03  0.00000000000E+00 0. -1.
          2    1    1    2  501    0 -0.97364382749E+02  0.11703115212E+03  0.14617842468E+04  0.14696902047E+04  0.00000000000E+00 0. -1.
<mgrwt>
<rscale>  4 0.24173045E+03</rscale>
<asrwt>0</asrwt>
<pdfrwt beam="1">  1       21 0.35053366E-02 0.24173045E+03</pdfrwt>
<pdfrwt beam="2">  1        2 0.52639758E+00 0.24173045E+03</pdfrwt>
<totfact> 0.72094288E+03</totfact>
</mgrwt>
</event>
<event>
 5    0  0.1041609E-002  0.3913586E+03  0.7546771E-02  0.1046814E+00
         21   -1    0    0  503  502  0.00000000000E+00  0.00000000000E+00  0.23690718655E+03  0.23690718655E+03  0.00000000000E+00 0. -1.
          2   -1    0    0  502    0 -0.00000000000E+00 -0.00000000000E+00 -0.83810169852E+03  0.83810169852E+03  0.00000000000E+00 0. -1.
         25    1    1    2    0    0 -0.24517506440E+03  0.11368051625E+03  0.43483444269E+02  0.30091507424E+03  0.12500000000E+03 0.  0.
         21    1    1    2  503  501  0.85067045706E+02  0.11874767229E+03 -0.23086516505E+03  0.27319614999E+03  0.00000000000E+00 0.  1.
          2    1    1    2  501    0  0.16010801870E+03 -0.23242818854E+03 -0.41381279119E+03  0.50089766083E+03  0.00000000000E+00 0. -1.
<mgrwt>
<rscale>  4 0.39135860E+03</rscale>
<asrwt>0</asrwt>
<pdfrwt beam="1">  1       21 0.36447260E-01 0.39135860E+03</pdfrwt>
<pdfrwt beam="2">  1        2 0.12893872E+00 0.39135860E+03</pdfrwt>
<totfact> 0.28864034E+03</totfact>
</mgrwt>
</event>
<event>
 5    0  0.1041609E-002  0.6001745E+03  0.7546771E-02  0.9905044E-01
         21   -1    0    0  503  502  0.00000000000E+00  0.00000000000E+00  0.17956450985E+03  0.17956450985E+03  0.00000000000E+00 0. -1.
          2   -1    0    0  502    0 -0.00000000000E+00 -0.00000000000E+00 -0.21385591099E+04  0.21385591099E+04  0.00000000000E+00 0. -1.
         25    1    1    2    0    0  0.46253995017E+03 -0.26146572055E+03 -0.10276804874E+04  0.11636407146E+04  0.12500000000E+03 0.  0.
         21    1    1    2  503  501  0.39443142488E+02  0.14847815628E+03 -0.32347367382E+03  0.35810158061E+03  0.00000000000E+00 0.  1.
          2    1    1    2  501    0 -0.50198309266E+03  0.11298756427E+03 -0.60784043888E+03  0.79638132458E+03  0.00000000000E+00 0. -1.
<mgrwt>
<rscale>  4 0.60017446E+03</rscale>
<asrwt>0</asrwt>
<pdfrwt beam="1">  1       21 0.27625309E-01 0.60017446E+03</pdfrwt>
<pdfrwt beam="2">  1        2 0.32900909E+00 0.60017446E+03</pdfrwt>
<totfact> 0.87158276E+02</totfact>
</mgrwt>
</event>
<event>
 5    0  0.1041609E-002  0.3688116E+03  0.7546771E-02  0.1055148E+00
         21   -1    0    0  503  502  0.00000000000E+00  0.00000000000E+00  0.17522800548E+03  0.17522800548E+03  0.00000000000E+00 0. -1.
          2   -1    0    0  502    0 -0.00000000000E+00 -0.00000000000E+00 -0.83968991345E+03  0.83968991345E+03  0.00000000000E+00 0. -1.
         25    1    1    2    0    0  0.17018482662E+03 -0.16340386654E+03 -0.27078754130E+03  0.38028225220E+03  0.12500000000E+03 0.  0.
         21    1    1    2  503  501  0.12353337904E+03  0.15156627191E+03 -0.21509413739E+03  0.29068594472E+03  0.00000000000E+00 0. -1.
          2    1    1    2  501    0 -0.29371820566E+03  0.11837594630E+02 -0.17858022928E+03  0.34394972201E+03  0.00000000000E+00 0. -1.
<mgrwt>
<rscale>  4 0.36881162E+03</rscale>
<asrwt>0</asrwt>
<pdfrwt beam="1">  1       21 0.26958154E-01 0.36881162E+03</pdfrwt>
<pdfrwt beam="2">  1        2 0.12918307E+00 0.36881162E+03</pdfrwt>
<totfact> 0.52726489E+03</totfact>
</mgrwt>
</event>
<event>
 5    0  0.1041609E-002  0.4059121E+03  0.7546771E-02  0.1041752E+00
         21   -1    0    0  501  502  0.00000000000E+00  0.00000000000E+00  0.11157834370E+03  0.11157834370E+03  0.00000000000E+00 0. -1.
         -1   -1    0    0    0  501 -0.00000000000E+00 -0.00000000000E+00 -0.18684477306E+04  0.18684477306E+04  0.00000000000E+00 0. -1.
         25    1    1    2    0    0  0.28503256598E+03 -0.10768734685E+03 -0.94356843346E+03  0.99939307430E+03  0.12500000000E+03 0.  0.
         21    1    1    2  503  502 -0.64728152962E+02 -0.14659552469E+03 -0.48405906700E+03  0.50989524610E+03  0.00000000000E+00 0.  1.
         -1    1    1    2    0  503 -0.22030441302E+03  0.25428287155E+03 -0.32924188644E+03  0.47073775390E+03  0.00000000000E+00 0. -1.
<mgrwt>
<rscale>  4 0.40591208E+03</rscale>
<asrwt>0</asrwt>
<pdfrwt beam="1">  1       21 0.17165900E-01 0.40591208E+03</pdfrwt>
<pdfrwt beam="2">  1       -1 0.28745349E+00 0.40591208E+03</pdfrwt>
<totfact> 0.12414564E+02</totfact>
</mgrwt>
</event>
<event>
 5    0  0.1041609E-002  0.3228435E+03  0.7546771E-02  0.1074348E+00
          2   -1    0    0  502    0 -0.00000000000E+00  0.00000000000E+00  0.14760724264E+04  0.14760724264E+04  0.00000000000E+00 0.  1.
         21   -1    0    0  503  502  0.00000000000E+00 -0.00000000000E+00 -0.84993841949E+02  0.84993841949E+02  0.00000000000E+00 0.  1.
         25    1    1    2    0    0  0.22614625634E+03 -0.17524022900E+02  0.21115852196E+03  0.33415885748E+03  0.12500000000E+03 0.  0.
         21    1    1    2  503  501 -0.17056490472E+02  0.21406703634E+02  0.73266418548E+03  0.73317527203E+03  0.00000000000E+00 0. -1.
          2    1    1    2  501    0 -0.20908976587E+03 -0.38826807336E+01  0.44725587700E+03  0.49373213883E+03  0.00000000000E+00 0.  1.
<mgrwt>
<rscale>  4 0.32284353E+03</rscale>
<asrwt>0</asrwt>
<pdfrwt beam="1">  1       21 0.13075977E-01 0.32284353E+03</pdfrwt>
<pdfrwt beam="2">  1        2 0.22708805E+00 0.32284353E+03</pdfrwt>
<totfact> 0.87353093E+03</totfact>
</mgrwt>
</event>
<event>
 5    0  0.1041609E-002  0.5836726E+03  0.7546771E-02  0.9939871E-01
         21   -1    0    0  501  502  0.00000000000E+00  0.00000000000E+00  0.17407473744E+03  0.17407473744E+03  0.00000000000E+00 0. -1.
         -3   -1    0    0    0  501 -0.00000000000E+00 -0.00000000000E+00 -0.10259126487E+04  0.10259126487E+04  0.00000000000E+00 0. -1.
         25    1    1    2    0    0 -0.17085039798E+03  0.17587335858E+03 -0.41095683915E+03  0.49460268943E+03  0.12500000000E+03 0.  0.
         21    1    1    2  503  502  0.19854523917E+03 -0.23504110828E+03 -0.51912551041E+03  0.60345325431E+03  0.00000000000E+00 0. -1.
         -3    1    1    2    0  503 -0.27694841196E+02  0.59167749693E+02  0.78244438272E+02  0.10193144242E+03  0.00000000000E+00 0. -1.
<mgrwt>
<rscale>  4 0.58367258E+03</rscale>
<asrwt>0</asrwt>
<pdfrwt beam="1">  1       21 0.26780729E-01 0.58367258E+03</pdfrwt>
<pdfrwt beam="2">  1       -3 0.15783272E+00 0.58367258E+03</pdfrwt>
<totfact> 0.18462089E+02</totfact>
</mgrwt>
</event>
<event>
 5    0  0.1041609E-002  0.3001677E+03  0.7546771E-02  0.1085157E+00
         21   -1    0    0  503  502  0.00000000000E+00  0.00000000000E+00  0.17648114010E+03  0.17648114010E+03  0.00000000000E+00 0.  1.
          2   -1    0    0  502    0 -0.00000000000E+00 -0.00000000000E+00 -0.78410938399E+03  0.78410938399E+03  0.00000000000E+00 0.  1.
         25    1    1    2    0    0 -0.26378387908E+03 -0.17874392619E+02 -0.45227613775E+03  0.53859087771E+03  0.12500000000E+03 0.  0.
         21    1    1    2  503  501  0.14391199988E+02 -0.45470073041E+02 -0.15762057003E+03  0.16467810503E+03  0.00000000000E+00 0.  1.
          2    1    1    2  501    0  0.24939267909E+03  0.63344465660E+02  0.22684638946E+01  0.25732154135E+03  0.00000000000E+00 0.  1.
<mgrwt>
<rscale>  4 0.30016773E+03</rscale>
<asrwt>0</asrwt>
<pdfrwt beam="1">  1       21 0.27150944E-01 0.30016773E+03</pdfrwt>
<pdfrwt beam="2">  1        2 0.12063222E+00 0.30016773E+03</pdfrwt>
<totfact> 0.57679234E+03</totfact>
</mgrwt>
</event>
<event>
 5    0  0.1041609E-002  0.3523654E+03  0.7546771E-02  0.1061648E+00
          3   -1    0    0  502    0 -0.00000000000E+00  0.00000000000E+00  0.10624890808E+03  0.10624890808E+03  0.00000000000E+00 0.  1.
         21   -1    0    0  503  502  0.00000000000E+00 -0.00000000000E+00 -0.17766689205E+04  0.17766689205E+04  0.00000000000E+00 0.  1.
         25    1    1    2    0    0  0.18503891198E+03 -0.13708229854E+03 -0.12235645037E+04  0.12513057381E+04  0.12500000000E+03 0.  0.
         21    1    1    2  503  501 -0.44679162932E+02 -0.12059221805E+03 -0.24104543658E+03  0.27320617333E+03  0.00000000000E+00 0. -1.
          3    1    1    2  501    0 -0.14035974905E+03  0.25767451659E+03 -0.20581007216E+03  0.35840591716E+03  0.00000000000E+00 0.  1.
<mgrwt>
<rscale>  4 0.35236536E+03</rscale>
<asrwt>0</asrwt>
<pdfrwt beam="1">  1       21 0.27333369E+00 0.35236536E+03</pdfrwt>
<pdfrwt beam="2">  1        3 0.16345985E-01 0.35236536E+03</pdfrwt>
<totfact> 0.69851943E+01</totfact>
</mgrwt>
</event>
<event>
 5    0  0.1041609E-002  0.4631074E+03  0.7546771E-02  0.1023884E+00
         21   -1    0    0  503  502  0.00000000000E+00  0.00000000000E+00  0.53757172530E+03  0.53757172530E+03  0.00000000000E+00 0.  1.
          2   -1    0    0  502    0 -0.00000000000E+00 -0.00000000000E+00 -0.48562843517E+03  0.48562843517E+03  0.00000000000E+00 0.  1.
         25    1    1    2    0    0 -0.32010288574E+02 -0.33246772000E+03 -0.20738182481E+03  0.41254292465E+03  0.12500000000E+03 0.  0.
         21    1    1    2  503  501  0.16346774324E+03 -0.26961929841E+02  0.43544521045E+02  0.17130316416E+03  0.00000000000E+00 0.  1.
          2    1    1    2  501    0 -0.13145745466E+03  0.35942964984E+03  0.21578059390E+03  0.43935407165E+03  0.00000000000E+00 0.  1.
<mgrwt>
<rscale>  4 0.46310742E+03</rscale>
<asrwt>0</asrwt>
<pdfrwt beam="1">  1       21 0.82703343E-01 0.46310742E+03</pdfrwt>
<pdfrwt beam="2">  1        2 0.74712067E-01 0.46310742E+03</pdfrwt>
<totfact> 0.93573068E+02</totfact>
</mgrwt>
</event>
<event>
 5    0  0.1041609E-002  0.2382390E+03  0.7546771E-02  0.1120972E+00
         21   -1    0    0  503  502  0.00000000000E+00  0.00000000000E+00  0.19504200777E+03  0.19504200777E+03  0.00000000000E+00 0.  1.
          1   -1    0    0  502    0 -0.00000000000E+00 -0.00000000000E+00 -0.12721782551E+04  0.12721782551E+04  0.00000000000E+00 0.  1.
         25    1    1    2    0    0  0.24616301242E+03  0.55784197153E+02 -0.67386400162E+03  0.73036004684E+03  0.12500000000E+03 0.  0.
         21    1    1    2  503  501 -0.11097830019E+03 -0.32398807890E+02 -0.53459069132E+03  0.54694887614E+03  0.00000000000E+00 0. -1.
          1    1    1    2  501    0 -0.13518471223E+03 -0.23385389264E+02  0.13131844563E+03  0.18991133988E+03  0.00000000000E+00 0.  1.
<mgrwt>
<rscale>  4 0.23823897E+03</rscale>
<asrwt>0</asrwt>
<pdfrwt beam="1">  1       21 0.30006463E-01 0.23823897E+03</pdfrwt>
<pdfrwt beam="2">  1        1 0.19571973E+00 0.23823897E+03</pdfrwt>
<totfact> 0.11991671E+03</totfact>
</mgrwt>
</event>
<event>
 5    0  0.1041609E-002  0.4178766E+03  0.7546771E-02  0.1037760E+00
         21   -1    0    0  503  502  0.00000000000E+00  0.00000000000E+00  0.28540689152E+03  0.28540689152E+03  0.00000000000E+00 0.  1.
          2   -1    0    0  502    0 -0.00000000000E+00 -0.00000000000E+00 -0.10379166165E+04  0.10379166165E+04  0.00000000000E+00 0.  1.
         25    1    1    2    0    0 -0.25000172230E+03 -0.14648807895E+03  0.40721087418E+02  0.31818677752E+03  0.12500000000E+03 0.  0.
         21    1    1    2  503  501  0.68786859929E+01 -0.14282561578E+03 -0.19847416018E+02  0.14436201982E+03  0.00000000000E+00 0.  1.
          2    1    1    2  501    0  0.24312303631E+03  0.28931369473E+03 -0.77338339639E+03  0.86077471069E+03  0.00000000000E+00 0.  1.
<mgrwt>
<rscale>  4 0.41787658E+03</rscale>
<asrwt>0</asrwt>
<pdfrwt beam="1">  1       21 0.43908752E-01 0.41787658E+03</pdfrwt>
<pdfrwt beam="2">  1        2 0.15967948E+00 0.41787658E+03</pdfrwt>
<totfact> 0.14528801E+03</totfact>
</mgrwt>
</event>
<event>
 5    0  0.1041609E-002  0.3172231E+03  0.7546771E-02  0.1076934E+00
         -2   -1    0    0    0  501 -0.00000000000E+00  0.00000000000E+00  0.15091643590E+03  0.15091643590E+03  0.00000000000E+00 0. -1.
         21   -1    0    0  501  502  0.00000000000E+00 -0.00000000000E+00 -0.14531083268E+04  0.14531083268E+04  0.00000000000E+00 0. -1.
         25    1    1    2    0    0  0.20621515141E+03  0.12298272969E+03 -0.42718031919E+03  0.50572469346E+03  0.12500000000E+03 0.  0.
         21    1    1    2  503  502 -0.18726057292E+02 -0.10844751528E+02 -0.87952204491E+03  0.87978821391E+03  0.00000000000E+00 0. -1.
         -2    1    1    2    0  503 -0.18748909412E+03 -0.11213797817E+03  0.45104731770E+01  0.21851185535E+03  0.00000000000E+00 0. -1.
<mgrwt>
<rscale>  4 0.31722307E+03</rscale>
<asrwt>0</asrwt>
<pdfrwt beam="1">  1       21 0.22355512E+00 0.31722307E+03</pdfrwt>
<pdfrwt beam="2">  1       -2 0.23217914E-01 0.31722307E+03</pdfrwt>
<totfact> 0.11384584E+02</totfact>
</mgrwt>
</event>
<event>
 5    0  0.1041609E-002  0.3180610E+03  0.7546771E-02  0.1076545E+00
          2   -1    0    0  502    0 -0.00000000000E+00  0.00000000000E+00  0.48768050139E+04  0.48768050139E+04  0.00000000000E+00 0.  1.
         21   -1    0    0  503  502  0.00000000000E+00 -0.00000000000E+00 -0.62243375879E+02  0.62243375879E+02  0.00000000000E+00 0.  1.
         25    1    1    2    0    0  0.11765225589E+03 -0.17179791623E+03  0.26561081781E+04  0.26671880757E+04  0.12500000000E+03 0.  0.
         21    1    1    2  503  501  0.12371026975E+03  0.94409544172E+02  0.19120227353E+04  0.19183452070E+04  0.00000000000E+00 0. -1.
          2    1    1    2  501    0 -0.24136252564E+03  0.77388372056E+02  0.24643072463E+03  0.35351510711E+03  0.00000000000E+00 0.  1.
<mgrwt>
<rscale>  4 0.31806097E+03</rscale>
<asrwt>0</asrwt>
<pdfrwt beam="1">  1       21 0.95759078E-02 0.31806097E+03</pdfrwt>
<pdfrwt beam="2">  1        2 0.75027740E+00 0.31806097E+03</pdfrwt>
<totfact> 0.74712867E+01</totfact>
</mgrwt>
</event>
<event>
 5    0  0.1041609E-002  0.3959290E+03  0.7546771E-02  0.1045199E+00
          2   -1    0    0  502    0 -0.00000000000E+00  0.00000000000E+00  0.21687717926E+04  0.21687717926E+04  0.00000000000E+00 0. -1.
         21   -1    0    0  503  502  0.00000000000E+00 -0.00000000000E+00 -0.89586297702E+02  0.89586297702E+02  0.00000000000E+00 0. -1.
         25    1    1    2    0    0  0.15422323097E+03  0.27861748231E+03  0.34510148118E+03  0.48593470624E+03  0.12500000000E+03 0.  0.
         21    1    1    2  503  501  0.11465112575E+02 -0.43293489305E+02  0.62511817013E+03  0.62672043341E+03  0.00000000000E+00 0.  1.
          2    1    1    2  501    0 -0.16568834355E+03 -0.23532399301E+03  0.11089658436E+04  0.11457029506E+04  0.00000000000E+00 0. -1.
<mgrwt>
<rscale>  4 0.39592896E+03</rscale>
<asrwt>0</asrwt>
<pdfrwt beam="1">  1       21 0.13782509E-01 0.39592896E+03</pdfrwt>
<pdfrwt beam="2">  1        2 0.33365716E+00 0.39592896E+03</pdfrwt>
<totfact> 0.33197789E+03</totfact>
</mgrwt>
</event>
<event>
 5    0  0.1041609E-002  0.3615407E+03  0.7546771E-02  0.1057975E+00
          2   -1    0    0  502    0 -0.00000000000E+00  0.00000000000E+00  0.45446073188E+03  0.45446073188E+03  0.00000000000E+00 0. -1.
         21   -1    0    0  503  502  0.00000000000E+00 -0.00000000000E+00 -0.59336683778E+03  0.59336683778E+03  0.00000000000E+00 0. -1.
         25    1    1    2    0    0  0.11930249901E+03 -0.21211076710E+03  0.22402816522E+03  0.35360667782E+03  0.12500000000E+03 0.  0.
         21    1    1    2  503  501  0.10324092566E+03 -0.43302059935E+02  0.79264864213E+02  0.13717388900E+03  0.00000000000E+00 0.  1.
          2    1    1    2  501    0 -0.22254342466E+03  0.25541282704E+03 -0.44219913533E+03  0.55704700283E+03  0.00000000000E+00 0. -1.
<mgrwt>
<rscale>  4 0.36154066E+03</rscale>
<asrwt>0</asrwt>
<pdfrwt beam="1">  1       21 0.91287206E-01 0.36154066E+03</pdfrwt>
<pdfrwt beam="2">  1        2 0.69917036E-01 0.36154066E+03</pdfrwt>
<totfact> 0.82143489E+02</totfact>
</mgrwt>
</event>
<event>
 5    0  0.1041609E-002  0.5222936E+03  0.7546771E-02  0.1008118E+00
          2   -1    0    0  502    0 -0.00000000000E+00  0.00000000000E+00  0.18747082223E+04  0.18747082223E+04  0.00000000000E+00 0. -1.
         21   -1    0    0  503  502  0.00000000000E+00 -0.00000000000E+00 -0.15183051274E+03  0.15183051274E+03  0.00000000000E+00 0. -1.
         25    1    1    2    0    0  0.97101873312E+02  0.37150142322E+03  0.98747952954E+03  0.10668565520E+04  0.12500000000E+03 0.  0.
         21    1    1    2  503  501  0.12690446316E+03  0.50805685786E+02  0.13381593880E+03  0.19129209590E+03  0.00000000000E+00 0.  1.
          2    1    1    2  501    0 -0.22400633647E+03 -0.42230710900E+03  0.60158224124E+03  0.76839008717E+03  0.00000000000E+00 0. -1.
<mgrwt>
<rscale>  4 0.52229356E+03</rscale>
<asrwt>0</asrwt>
<pdfrwt beam="1">  1       21 0.23358542E-01 0.52229356E+03</pdfrwt>
<pdfrwt beam="2">  1        2 0.28841663E+00 0.52229356E+03</pdfrwt>
<totfact> 0.17114365E+03</totfact>
</mgrwt>
</event>
<event>
 5    0  0.1041609E-002  0.4861067E+03  0.7546771E-02  0.1017470E+00
         21   -1    0    0  503  502  0.00000000000E+00  0.00000000000E+00  0.13594763241E+03  0.13594763241E+03  0.00000000000E+00 0. -1.
          3   -1    0    0  502    0 -0.00000000000E+00 -0.00000000000E+00 -0.18410952873E+04  0.18410952873E+04  0.00000000000E+00 0. -1.
         25    1    1    2    0    0 -0.37193529773E+03  0.18732169801E+03 -0.53499464023E+03  0.68939796150E+03  0.12500000000E+03 0.  0.
         21    1    1    2  503  501 -0.56081694016E+02 -0.75716514938E+02 -0.17952565591E+03  0.20275011262E+03  0.00000000000E+00 0.  1.
          3    1    1    2  501    0  0.42801699174E+03 -0.11160518307E+03 -0.99062735872E+03  0.10848948456E+04  0.00000000000E+00 0. -1.
<mgrwt>
<rscale>  4 0.48610670E+03</rscale>
<asrwt>0</asrwt>
<pdfrwt beam="1">  1       21 0.20915019E-01 0.48610670E+03</pdfrwt>
<pdfrwt beam="2">  1        3 0.28324544E+00 0.48610670E+03</pdfrwt>
<totfact> 0.52980908E+01</totfact>
</mgrwt>
</event>
<event>
 5    0  0.1041609E-002  0.5319527E+03  0.7546771E-02  0.1005760E+00
         21   -1    0    0  503  502  0.00000000000E+00  0.00000000000E+00  0.59110791280E+03  0.59110791280E+03  0.00000000000E+00 0. -1.
          2   -1    0    0  502    0 -0.00000000000E+00 -0.00000000000E+00 -0.64181303081E+03  0.64181303081E+03  0.00000000000E+00 0. -1.
         25    1    1    2    0    0  0.27769337991E+03  0.21788879691E+03  0.34293932969E+02  0.37601890232E+03  0.12500000000E+03 0.  0.
         21    1    1    2  503  501  0.31286373444E+01  0.15758240615E+03  0.23948778595E+03  0.28669915019E+03  0.00000000000E+00 0. -1.
          2    1    1    2  501    0 -0.28082201725E+03 -0.37547120305E+03 -0.32448683693E+03  0.57020289111E+03  0.00000000000E+00 0. -1.
<mgrwt>
<rscale>  4 0.53195273E+03</rscale>
<asrwt>0</asrwt>
<pdfrwt beam="1">  1       21 0.90939679E-01 0.53195273E+03</pdfrwt>
<pdfrwt beam="2">  1        2 0.98740466E-01 0.53195273E+03</pdfrwt>
<totfact> 0.53102523E+02</totfact>
</mgrwt>
</event>
<event>
 5    0  0.1041609E-002  0.6664549E+03  0.7546771E-02  0.9776383E-01
         21   -1    0    0  503  502  0.00000000000E+00  0.00000000000E+00  0.70858565354E+03  0.70858565354E+03  0.00000000000E+00 0.  1.
          1   -1    0    0  502    0 -0.00000000000E+00 -0.00000000000E+00 -0.68927074335E+03  0.68927074335E+03  0.00000000000E+00 0.  1.
         25    1    1    2    0    0  0.22408053352E+03 -0.52386146425E+03 -0.10560125396E+03  0.59280649800E+03  0.12500000000E+03 0.  0.
         21    1    1    2  503  501 -0.32839076016E+02 -0.85545758916E+02 -0.92642420636E+02  0.13030387517E+03  0.00000000000E+00 0. -1.
          1    1    1    2  501    0 -0.19124145750E+03  0.60940722317E+03  0.21755858478E+03  0.67474602372E+03  0.00000000000E+00 0.  1.
<mgrwt>
<rscale>  4 0.66645487E+03</rscale>
<asrwt>0</asrwt>
<pdfrwt beam="1">  1       21 0.10901318E+00 0.66645487E+03</pdfrwt>
<pdfrwt beam="2">  1        1 0.10604165E+00 0.66645487E+03</pdfrwt>
<totfact> 0.17875785E+02</totfact>
</mgrwt>
</event>
<event>
 5    0  0.1041609E-002  0.3387132E+03  0.7546771E-02  0.1067345E+00
         21   -1    0    0  503  502  0.00000000000E+00  0.00000000000E+00  0.79027388065E+02  0.79027388065E+02  0.00000000000E+00 0.  1.
          1   -1    0    0  502    0 -0.00000000000E+00 -0.00000000000E+00 -0.14616380284E+04  0.14616380284E+04  0.00000000000E+00 0.  1.
         25    1    1    2    0    0 -0.16091044728E+03 -0.21507021438E+03 -0.71065935611E+03  0.76994096500E+03  0.12500000000E+03 0.  0.
         21    1    1    2  503  501 -0.50615931651E+02 -0.22616825713E+02 -0.65009273073E+02  0.85438275543E+02  0.00000000000E+00 0.  1.
          1    1    1    2  501    0  0.21152637893E+03  0.23768704009E+03 -0.60694201116E+03  0.68528617593E+03  0.00000000000E+00 0.  1.
<mgrwt>
<rscale>  4 0.33871324E+03</rscale>
<asrwt>0</asrwt>
<pdfrwt beam="1">  1       21 0.12158060E-01 0.33871324E+03</pdfrwt>
<pdfrwt beam="2">  1        1 0.22486739E+00 0.33871324E+03</pdfrwt>
<totfact> 0.47054588E+03</totfact>
</mgrwt>
</event>
<event>
 5    0  0.1041609E-002  0.2926038E+03  0.7546771E-02  0.1088997E+00
         21   -1    0    0  501  502  0.00000000000E+00  0.00000000000E+00  0.22952935579E+03  0.22952935579E+03  0.00000000000E+00 0. -1.
         -2   -1    0    0    0  501 -0.00000000000E+00 -0.00000000000E+00 -0.47544929861E+03  0.47544929861E+03  0.00000000000E+00 0. -1.
         25    1    1    2    0    0  0.10848209449E+03 -0.19148413162E+03 -0.25894524436E+03  0.36209415497E+03  0.12500000000E+03 0.  0.
         21    1    1    2  503  502 -0.67372070274E+02 -0.52044624074E+02 -0.33643221484E+02  0.91539636769E+02  0.00000000000E+00 0.  1.
         -2    1    1    2    0  503 -0.41110024215E+02  0.24352875570E+03  0.46668523021E+02  0.25134486266E+03  0.00000000000E+00 0. -1.
<mgrwt>
<rscale>  4 0.29260378E+03</rscale>
<asrwt>0</asrwt>
<pdfrwt beam="1">  1       21 0.35312209E-01 0.29260378E+03</pdfrwt>
<pdfrwt beam="2">  1       -2 0.73146045E-01 0.29260378E+03</pdfrwt>
<totfact> 0.10655569E+03</totfact>
</mgrwt>
</event>
<event>
 5    0  0.1041609E-002  0.4818066E+03  0.7546771E-02  0.1018640E+00
          1   -1    0    0  502    0 -0.00000000000E+00  0.00000000000E+00  0.13281596396E+04  0.13281596396E+04  0.00000000000E+00 0. -1.
         21   -1    0    0  503  502  0.00000000000E+00 -0.00000000000E+00 -0.38561469889E+03  0.38561469889E+03  0.00000000000E+00 0. -1.
         25    1    1    2    0    0 -0.21341480943E+03  0.29280965857E+02  0.58335709734E+03  0.63429784712E+03  0.12500000000E+03 0.  0.
         21    1    1    2  503  501  0.23152411619E+03  0.20330689651E+03 -0.26921773829E+03  0.40916414941E+03  0.00000000000E+00 0. -1.
          1    1    1    2  501    0 -0.18109306758E+02 -0.23258786237E+03  0.62840558165E+03  0.67031234195E+03  0.00000000000E+00 0. -1.
<mgrwt>
<rscale>  4 0.48180657E+03</rscale>
<asrwt>0</asrwt>
<pdfrwt beam="1">  1       21 0.59325339E-01 0.48180657E+03</pdfrwt>
<pdfrwt beam="2">  1        1 0.20433225E+00 0.48180657E+03</pdfrwt>
<totfact> 0.24482228E+02</totfact>
</mgrwt>
</event>
<event>
 5    0  0.1041609E-002  0.4261286E+03  0.7546771E-02  0.1035090E+00
         21   -1    0    0  503  502  0.00000000000E+00  0.00000000000E+00  0.22189180266E+03  0.22189180266E+03  0.00000000000E+00 0. -1.
          2   -1    0    0  502    0 -0.00000000000E+00 -0.00000000000E+00 -0.24942615805E+04  0.24942615805E+04  0.00000000000E+00 0. -1.
         25    1    1    2    0    0 -0.18669306410E+03 -0.29250903378E+03 -0.99707130479E+03  0.10631048969E+04  0.12500000000E+03 0.  0.
         21    1    1    2  503  501 -0.83474757471E+01  0.33108050739E+02 -0.13243736602E+04  0.13248137285E+04  0.00000000000E+00 0.  1.
          2    1    1    2  501    0  0.19504053984E+03  0.25940098304E+03  0.49075187159E+02  0.32823475773E+03  0.00000000000E+00 0. -1.
<mgrwt>
<rscale>  4 0.42612856E+03</rscale>
<asrwt>0</asrwt>
<pdfrwt beam="1">  1       21 0.34137200E-01 0.42612856E+03</pdfrwt>
<pdfrwt beam="2">  1        2 0.38373255E+00 0.42612856E+03</pdfrwt>
<totfact> 0.38297237E+02</totfact>
</mgrwt>
</event>
<event>
 5    0  0.1041609E-002  0.4293162E+03  0.7546771E-02  0.1034076E+00
          2   -1    0    0  502    0 -0.00000000000E+00  0.00000000000E+00  0.14313256152E+04  0.14313256152E+04  0.00000000000E+00 0.  1.
         21   -1    0    0  503  502  0.00000000000E+00 -0.00000000000E+00 -0.14229002209E+03  0.14229002209E+03  0.00000000000E+00 0.  1.
         25    1    1    2    0    0 -0.95933226709E+01 -0.22378135476E+03  0.59153520203E+03  0.64475500915E+03  0.12500000000E+03 0.  0.
         21    1    1    2  503  501 -0.27809640433E+03  0.69622368038E+02  0.34170099486E+03  0.44603189810E+03  0.00000000000E+00 0.  1.
          2    1    1    2  501    0  0.28768972700E+03  0.15415898672E+03  0.35579939627E+03  0.48282873008E+03  0.00000000000E+00 0.  1.
<mgrwt>
<rscale>  4 0.42931624E+03</rscale>
<asrwt>0</asrwt>
<pdfrwt beam="1">  1       21 0.21890774E-01 0.42931624E+03</pdfrwt>
<pdfrwt beam="2">  1        2 0.22020393E+00 0.42931624E+03</pdfrwt>
<totfact> 0.34432799E+03</totfact>
</mgrwt>
</event>
<event>
 5    0  0.1041609E-002  0.2693872E+03  0.7546771E-02  0.1101631E+00
          2   -1    0    0  502    0 -0.00000000000E+00  0.00000000000E+00  0.77551662742E+03  0.77551662742E+03  0.00000000000E+00 0. -1.
         21   -1    0    0  503  502  0.00000000000E+00 -0.00000000000E+00 -0.11637193379E+03  0.11637193379E+03  0.00000000000E+00 0. -1.
         25    1    1    2    0    0 -0.11865470110E+03  0.22131198635E+03  0.31009458180E+03  0.41814062594E+03  0.12500000000E+03 0.  0.
         21    1    1    2  503  501  0.12476637887E+03 -0.48221087919E+02  0.22110189308E+03  0.25841433733E+03  0.00000000000E+00 0.  1.
          2    1    1    2  501    0 -0.61116777704E+01 -0.17309089843E+03  0.12794821875E+03  0.21533359795E+03  0.00000000000E+00 0. -1.
<mgrwt>
<rscale>  4 0.26938716E+03</rscale>
<asrwt>0</asrwt>
<pdfrwt beam="1">  1       21 0.17903375E-01 0.26938716E+03</pdfrwt>
<pdfrwt beam="2">  1        2 0.11931025E+00 0.26938716E+03</pdfrwt>
<totfact> 0.13006151E+04</totfact>
</mgrwt>
</event>
<event>
 5    0  0.1041609E-002  0.3331487E+03  0.7546771E-02  0.1069752E+00
          2   -1    0    0  502    0 -0.00000000000E+00  0.00000000000E+00  0.38816696093E+04  0.38816696093E+04  0.00000000000E+00 0. -1.
         21   -1    0    0  503  502  0.00000000000E+00 -0.00000000000E+00 -0.31916762373E+02  0.31916762373E+02  0.00000000000E+00 0. -1.
         25    1    1    2    0    0  0.91581745134E+00  0.20259574241E+03  0.95043823722E+03  0.97979779360E+03  0.12500000000E+03 0.  0.
         21    1    1    2  503  501  0.19054728378E+03 -0.38217904905E+02  0.11347431719E+04  0.11512649311E+04  0.00000000000E+00 0. -1.
          2    1    1    2  501    0 -0.19146310123E+03 -0.16437783750E+03  0.17645714378E+04  0.17825236469E+04  0.00000000000E+00 0. -1.
<mgrwt>
<rscale>  4 0.33314867E+03</rscale>
<asrwt>0</asrwt>
<pdfrwt beam="1">  1       21 0.49102742E-02 0.33314867E+03</pdfrwt>
<pdfrwt beam="2">  1        2 0.59717956E+00 0.33314867E+03</pdfrwt>
<totfact> 0.18739560E+03</totfact>
</mgrwt>
</event>
<event>
 5    0  0.1041609E-002  0.3524243E+03  0.7546771E-02  0.1061624E+00
         21   -1    0    0  503  502  0.00000000000E+00  0.00000000000E+00  0.82832003821E+02  0.82832003821E+02  0.00000000000E+00 0.  1.
          2   -1    0    0  502    0 -0.00000000000E+00 -0.00000000000E+00 -0.19037560593E+04  0.19037560593E+04  0.00000000000E+00 0.  1.
         25    1    1    2    0    0 -0.21837105876E+03 -0.28158062304E+03 -0.12015680227E+04  0.12595095393E+04  0.12500000000E+03 0.  0.
         21    1    1    2  503  501  0.47575012491E+02  0.15005975912E+03 -0.19077836304E+03  0.24734125601E+03  0.00000000000E+00 0. -1.
          2    1    1    2  501    0  0.17079604627E+03  0.13152086392E+03 -0.42857766981E+03  0.47973726781E+03  0.00000000000E+00 0.  1.
<mgrwt>
<rscale>  4 0.35242433E+03</rscale>
<asrwt>0</asrwt>
<pdfrwt beam="1">  1       21 0.12743386E-01 0.35242433E+03</pdfrwt>
<pdfrwt beam="2">  1        2 0.29288554E+00 0.35242433E+03</pdfrwt>
<totfact> 0.53722488E+03</totfact>
</mgrwt>
</event>
<event>
 5    0  0.1041609E-002  0.3208977E+03  0.7546771E-02  0.1075237E+00
          1   -1    0    0  502    0 -0.00000000000E+00  0.00000000000E+00  0.86701587523E+03  0.86701587523E+03  0.00000000000E+00 0.  1.
         21   -1    0    0  503  502  0.00000000000E+00 -0.00000000000E+00 -0.59706494926E+03  0.59706494926E+03  0.00000000000E+00 0.  1.
         25    1    1    2    0    0  0.17518936915E+03  0.24444273554E+03 -0.19065835608E+03  0.37738465094E+03  0.12500000000E+03 0.  0.
         21    1    1    2  503  501 -0.11909596299E+03 -0.46085543265E+02 -0.28543397151E+03  0.31269838150E+03  0.00000000000E+00 0.  1.
          1    1    1    2  501    0 -0.56093406154E+02 -0.19835719228E+03  0.74604325355E+03  0.77399779206E+03  0.00000000000E+00 0.  1.
<mgrwt>
<rscale>  4 0.32089770E+03</rscale>
<asrwt>0</asrwt>
<pdfrwt beam="1">  1       21 0.91856146E-01 0.32089770E+03</pdfrwt>
<pdfrwt beam="2">  1        1 0.13338706E+00 0.32089770E+03</pdfrwt>
<totfact> 0.21094378E+02</totfact>
</mgrwt>
</event>
<event>
 5    0  0.1041609E-002  0.3094243E+03  0.7546771E-02  0.1080622E+00
         -3   -1    0    0    0  501 -0.00000000000E+00  0.00000000000E+00  0.49169089820E+03  0.49169089820E+03  0.00000000000E+00 0.  1.
         21   -1    0    0  501  502  0.00000000000E+00 -0.00000000000E+00 -0.22920466150E+03  0.22920466150E+03  0.00000000000E+00 0.  1.
         25    1    1    2    0    0  0.21953476292E+03 -0.13867700599E+03  0.23133981744E+03  0.36955369739E+03  0.12500000000E+03 0.  0.
         21    1    1    2  503  502  0.39539201377E+02  0.64730171642E+01  0.44879792216E+02  0.60161816346E+02  0.00000000000E+00 0.  1.
         -3    1    1    2    0  503 -0.25907396429E+03  0.13220398883E+03 -0.13733372956E+02  0.29118004597E+03  0.00000000000E+00 0.  1.
<mgrwt>
<rscale>  4 0.30942430E+03</rscale>
<asrwt>0</asrwt>
<pdfrwt beam="1">  1       21 0.35262256E-01 0.30942430E+03</pdfrwt>
<pdfrwt beam="2">  1       -3 0.75644754E-01 0.30942430E+03</pdfrwt>
<totfact> 0.63514025E+02</totfact>
</mgrwt>
</event>
<event>
 5    0  0.1041609E-002  0.3260836E+03  0.7546771E-02  0.1072883E+00
         21   -1    0    0  501  502  0.00000000000E+00  0.00000000000E+00  0.14007102032E+03  0.14007102032E+03  0.00000000000E+00 0. -1.
         -1   -1    0    0    0  501 -0.00000000000E+00 -0.00000000000E+00 -0.11088383893E+04  0.11088383893E+04  0.00000000000E+00 0. -1.
         25    1    1    2    0    0 -0.39396999302E+02 -0.28888840874E+03 -0.38947387786E+03  0.50231816391E+03  0.12500000000E+03 0.  0.
         21    1    1    2  503  502  0.68088204420E+02  0.70659557452E+02  0.26840081764E+02  0.10173085387E+03  0.00000000000E+00 0. -1.
         -1    1    1    2    0  503 -0.28691205118E+02  0.21822885128E+03 -0.60613357290E+03  0.64486039185E+03  0.00000000000E+00 0. -1.
<mgrwt>
<rscale>  4 0.32608357E+03</rscale>
<asrwt>0</asrwt>
<pdfrwt beam="1">  1       21 0.21549387E-01 0.32608357E+03</pdfrwt>
<pdfrwt beam="2">  1       -1 0.17059052E+00 0.32608357E+03</pdfrwt>
<totfact> 0.48297917E+02</totfact>
</mgrwt>
</event>
<event>
 5    0  0.1041609E-002  0.2814111E+03  0.7546771E-02  0.1094921E+00
          2   -1    0    0  502    0 -0.00000000000E+00  0.00000000000E+00  0.83510603622E+03  0.83510603622E+03  0.00000000000E+00 0.  1.
         21   -1    0    0  503  502  0.00000000000E+00 -0.00000000000E+00 -0.10535637179E+03  0.10535637179E+03  0.00000000000E+00 0.  1.
         25    1    1    2    0    0  0.18943923979E+03  0.93292182298E+02  0.27609170576E+03  0.36938095083E+03  0.12500000000E+03 0.  0.
         21    1    1    2  503  501 -0.88547262532E+02  0.92591221438E+02  0.11700399157E+03  0.17350413837E+03  0.00000000000E+00 0.  1.
          2    1    1    2  501    0 -0.10089197726E+03 -0.18588340374E+03  0.33665396711E+03  0.39757731881E+03  0.00000000000E+00 0.  1.
<mgrwt>
<rscale>  4 0.28141106E+03</rscale>
<asrwt>0</asrwt>
<pdfrwt beam="1">  1       21 0.16208673E-01 0.28141106E+03</pdfrwt>
<pdfrwt beam="2">  1        2 0.12847785E+00 0.28141106E+03</pdfrwt>
<totfact> 0.14192271E+04</totfact>
</mgrwt>
</event>
<event>
 5    0  0.1041609E-002  0.3796366E+03  0.7546771E-02  0.1051068E+00
         21   -1    0    0  503  502  0.00000000000E+00  0.00000000000E+00  0.39602385617E+03  0.39602385617E+03  0.00000000000E+00 0.  1.
          4   -1    0    0  502    0 -0.00000000000E+00 -0.00000000000E+00 -0.68332389208E+03  0.68332389208E+03  0.00000000000E+00 0.  1.
         25    1    1    2    0    0 -0.21332566143E+03 -0.16708455821E+03 -0.36015333176E+03  0.46771840866E+03  0.12500000000E+03 0.  0.
         21    1    1    2  503  501 -0.92839345225E+02 -0.27623276313E+02 -0.15529545154E+03  0.18302695617E+03  0.00000000000E+00 0.  1.
          4    1    1    2  501    0  0.30616500665E+03  0.19470783453E+03  0.22814874740E+03  0.42860238341E+03  0.00000000000E+00 0.  1.
<mgrwt>
<rscale>  4 0.37963663E+03</rscale>
<asrwt>0</asrwt>
<pdfrwt beam="1">  1       21 0.60926747E-01 0.37963663E+03</pdfrwt>
<pdfrwt beam="2">  1        4 0.10512675E+00 0.37963663E+03</pdfrwt>
<totfact> 0.76971410E+01</totfact>
</mgrwt>
</event>
<event>
 5    0  0.1041609E-002  0.2772355E+03  0.7546771E-02  0.1097209E+00
         21   -1    0    0  503  502  0.00000000000E+00  0.00000000000E+00  0.86102932293E+02  0.86102932293E+02  0.00000000000E+00 0. -1.
          2   -1    0    0  502    0 -0.00000000000E+00 -0.00000000000E+00 -0.92100230671E+03  0.92100230671E+03  0.00000000000E+00 0. -1.
         25    1    1    2    0    0 -0.13018428201E+03 -0.19479378830E+03 -0.29760499793E+03  0.39885624232E+03  0.12500000000E+03 0.  0.
         21    1    1    2  503  501  0.30949886226E+02 -0.17406499164E+02 -0.16198375151E+03  0.16583008600E+03  0.00000000000E+00 0.  1.
          2    1    1    2  501    0  0.99234395789E+02  0.21220028746E+03 -0.37531062498E+03  0.44241891068E+03  0.00000000000E+00 0. -1.
<mgrwt>
<rscale>  4 0.27723547E+03</rscale>
<asrwt>0</asrwt>
<pdfrwt beam="1">  1       21 0.13246604E-01 0.27723547E+03</pdfrwt>
<pdfrwt beam="2">  1        2 0.14169267E+00 0.27723547E+03</pdfrwt>
<totfact> 0.18049029E+04</totfact>
</mgrwt>
</event>
<event>
 5    0  0.1041609E-002  0.6899404E+03  0.7546771E-02  0.9734592E-01
         -3   -1    0    0    0  501 -0.00000000000E+00  0.00000000000E+00  0.13447485263E+04  0.13447485263E+04  0.00000000000E+00 0. -1.
         21   -1    0    0  501  502  0.00000000000E+00 -0.00000000000E+00 -0.35981083717E+03  0.35981083717E+03  0.00000000000E+00 0. -1.
         25    1    1    2    0    0 -0.26441207749E+03 -0.53358800599E+03  0.40336424567E+03  0.73003946575E+03  0.12500000000E+03 0.  0.
         21    1    1    2  503  502 -0.14973006128E+03  0.88837264300E+02  0.13736266290E+03  0.22176485731E+03  0.00000000000E+00 0. -1.
         -3    1    1    2    0  503  0.41414213876E+03  0.44475074169E+03  0.44421078060E+03  0.75275504046E+03  0.00000000000E+00 0. -1.
<mgrwt>
<rscale>  4 0.68994038E+03</rscale>
<asrwt>0</asrwt>
<pdfrwt beam="1">  1       21 0.55355514E-01 0.68994038E+03</pdfrwt>
<pdfrwt beam="2">  1       -3 0.20688439E+00 0.68994038E+03</pdfrwt>
<totfact> 0.19126950E+01</totfact>
</mgrwt>
</event>
<event>
 5    0  0.1041609E-002  0.6994086E+03  0.7546771E-02  0.9718244E-01
          2   -1    0    0  502    0 -0.00000000000E+00  0.00000000000E+00  0.14928322846E+04  0.14928322846E+04  0.00000000000E+00 0. -1.
         21   -1    0    0  503  502  0.00000000000E+00 -0.00000000000E+00 -0.50454494677E+03  0.50454494677E+03  0.00000000000E+00 0. -1.
         25    1    1    2    0    0  0.21483174684E+03 -0.35205210306E+03 -0.13584065342E+03  0.45185290288E+03  0.12500000000E+03 0.  0.
         21    1    1    2  503  501  0.12433053011E+02 -0.27777855258E+03  0.54107079855E+02  0.28327209741E+03  0.00000000000E+00 0.  1.
          2    1    1    2  501    0 -0.22726479985E+03  0.62983065564E+03  0.10700209114E+04  0.12622522311E+04  0.00000000000E+00 0. -1.
<mgrwt>
<rscale>  4 0.69940860E+03</rscale>
<asrwt>0</asrwt>
<pdfrwt beam="1">  1       21 0.77622300E-01 0.69940860E+03</pdfrwt>
<pdfrwt beam="2">  1        2 0.22966650E+00 0.69940860E+03</pdfrwt>
<totfact> 0.21256471E+02</totfact>
</mgrwt>
</event>
<event>
 5    0  0.1041609E-002  0.4109025E+03  0.7546771E-02  0.1040069E+00
         21   -1    0    0  503  502  0.00000000000E+00  0.00000000000E+00  0.12241298908E+03  0.12241298908E+03  0.00000000000E+00 0.  1.
          2   -1    0    0  502    0 -0.00000000000E+00 -0.00000000000E+00 -0.14553917190E+04  0.14553917190E+04  0.00000000000E+00 0.  1.
         25    1    1    2    0    0 -0.65014129541E+02  0.27774328422E+03 -0.70832116029E+03  0.77376484483E+03  0.12500000000E+03 0.  0.
         21    1    1    2  503  501 -0.15560556106E+03 -0.53303756006E+01 -0.19103819448E+03  0.24644897096E+03  0.00000000000E+00 0. -1.
          2    1    1    2  501    0  0.22061969060E+03 -0.27241290862E+03 -0.43361937512E+03  0.55759089227E+03  0.00000000000E+00 0.  1.
<mgrwt>
<rscale>  4 0.41090248E+03</rscale>
<asrwt>0</asrwt>
<pdfrwt beam="1">  1       21 0.18832767E-01 0.41090248E+03</pdfrwt>
<pdfrwt beam="2">  1        2 0.22390642E+00 0.41090248E+03</pdfrwt>
<totfact> 0.44658822E+03</totfact>
</mgrwt>
</event>
<event>
 5    0  0.1041609E-002  0.4523500E+03  0.7546771E-02  0.1027024E+00
         -4   -1    0    0    0  501 -0.00000000000E+00  0.00000000000E+00  0.21173384155E+04  0.21173384155E+04  0.00000000000E+00 0.  1.
         21   -1    0    0  501  502  0.00000000000E+00 -0.00000000000E+00 -0.14842864160E+03  0.14842864160E+03  0.00000000000E+00 0.  1.
         25    1    1    2    0    0 -0.20901355077E+03  0.91141425376E+02  0.46642690161E+03  0.53401542897E+03  0.12500000000E+03 0.  0.
         21    1    1    2  503  502 -0.15050100722E+03  0.45331110906E+02 -0.22724497140E+02  0.15881393377E+03  0.00000000000E+00 0.  1.
         -4    1    1    2    0  503  0.35951455799E+03 -0.13647253628E+03  0.15252073694E+04  0.15729376944E+04  0.00000000000E+00 0.  1.
<mgrwt>
<rscale>  4 0.45235002E+03</rscale>
<asrwt>0</asrwt>
<pdfrwt beam="1">  1       21 0.22835177E-01 0.45235002E+03</pdfrwt>
<pdfrwt beam="2">  1       -4 0.32574435E+00 0.45235002E+03</pdfrwt>
<totfact> 0.17791963E+01</totfact>
</mgrwt>
</event>
<event>
 5    0  0.1041609E-002  0.3950768E+03  0.7546771E-02  0.1045498E+00
          2   -1    0    0  502    0 -0.00000000000E+00  0.00000000000E+00  0.10544111926E+04  0.10544111926E+04  0.00000000000E+00 0.  1.
         21   -1    0    0  503  502  0.00000000000E+00 -0.00000000000E+00 -0.40710731638E+03  0.40710731638E+03  0.00000000000E+00 0.  1.
         25    1    1    2    0    0 -0.28225673176E+03  0.25973665920E+03  0.72106805530E+03  0.82625427995E+03  0.12500000000E+03 0.  0.
         21    1    1    2  503  501  0.37354145618E+02 -0.30070971261E+02  0.19774486643E+03  0.20347635663E+03  0.00000000000E+00 0. -1.
          2    1    1    2  501    0  0.24490258614E+03 -0.22966568793E+03 -0.27150904555E+03  0.43178787237E+03  0.00000000000E+00 0.  1.
<mgrwt>
<rscale>  4 0.39507675E+03</rscale>
<asrwt>0</asrwt>
<pdfrwt beam="1">  1       21 0.62631895E-01 0.39507675E+03</pdfrwt>
<pdfrwt beam="2">  1        2 0.16221711E+00 0.39507675E+03</pdfrwt>
<totfact> 0.66820322E+02</totfact>
</mgrwt>
</event>
<event>
 5    0  0.1041609E-002  0.5649630E+03  0.7546771E-02  0.9980887E-01
         21   -1    0    0  501  502  0.00000000000E+00  0.00000000000E+00  0.46242661586E+03  0.46242661586E+03  0.00000000000E+00 0. -1.
         -2   -1    0    0    0  501 -0.00000000000E+00 -0.00000000000E+00 -0.90970713668E+03  0.90970713668E+03  0.00000000000E+00 0. -1.
         25    1    1    2    0    0 -0.20066799136E+03  0.84977256348E+02 -0.16402413324E+03  0.30002948711E+03  0.12500000000E+03 0.  0.
         21    1    1    2  503  502 -0.27773477377E+03 -0.84509851899E+02  0.23006361587E+03  0.37041569483E+03  0.00000000000E+00 0. -1.
         -2    1    1    2    0  503  0.47840276513E+03 -0.46740444906E+00 -0.51332000346E+03  0.70168857059E+03  0.00000000000E+00 0. -1.
<mgrwt>
<rscale>  4 0.56496300E+03</rscale>
<asrwt>0</asrwt>
<pdfrwt beam="1">  1       21 0.71142557E-01 0.56496300E+03</pdfrwt>
<pdfrwt beam="2">  1       -2 0.13995494E+00 0.56496300E+03</pdfrwt>
<totfact> 0.48787091E+01</totfact>
</mgrwt>
</event>
<event>
 5    0  0.1041609E-002  0.6012743E+03  0.7546771E-02  0.9902766E-01
          1   -1    0    0  502    0 -0.00000000000E+00  0.00000000000E+00  0.10346962299E+04  0.10346962299E+04  0.00000000000E+00 0. -1.
         21   -1    0    0  503  502  0.00000000000E+00 -0.00000000000E+00 -0.38549275828E+03  0.38549275828E+03  0.00000000000E+00 0. -1.
         25    1    1    2    0    0  0.18887761862E+03  0.24907050278E+03  0.19080324444E+03  0.38696478943E+03  0.12500000000E+03 0.  0.
         21    1    1    2  503  501  0.28398266318E+03  0.50051334211E+02  0.36627464321E+03  0.46616349417E+03  0.00000000000E+00 0. -1.
          1    1    1    2  501    0 -0.47286028180E+03 -0.29912183699E+03  0.92125583999E+02  0.56706070459E+03  0.00000000000E+00 0. -1.
<mgrwt>
<rscale>  4 0.60127435E+03</rscale>
<asrwt>0</asrwt>
<pdfrwt beam="1">  1       21 0.59306579E-01 0.60127435E+03</pdfrwt>
<pdfrwt beam="2">  1        1 0.15918403E+00 0.60127435E+03</pdfrwt>
<totfact> 0.38733964E+02</totfact>
</mgrwt>
</event>
<event>
 5    0  0.1041609E-002  0.3738167E+03  0.7546771E-02  0.1053243E+00
          2   -1    0    0  502    0 -0.00000000000E+00  0.00000000000E+00  0.14944532397E+03  0.14944532397E+03  0.00000000000E+00 0. -1.
         21   -1    0    0  503  502  0.00000000000E+00 -0.00000000000E+00 -0.11450016120E+04  0.11450016120E+04  0.00000000000E+00 0. -1.
         25    1    1    2    0    0 -0.18639117403E+03 -0.12433962783E+03 -0.11841245307E+03  0.28257480752E+03  0.12500000000E+03 0.  0.
         21    1    1    2  503  501 -0.14121487375E+03  0.45134033496E+02 -0.15252673265E+03  0.21270431524E+03  0.00000000000E+00 0.  1.
          2    1    1    2  501    0  0.32760604777E+03  0.79205594337E+02 -0.72461710234E+03  0.79916781324E+03  0.00000000000E+00 0. -1.
<mgrwt>
<rscale>  4 0.37381665E+03</rscale>
<asrwt>0</asrwt>
<pdfrwt beam="1">  1       21 0.17615409E+00 0.37381665E+03</pdfrwt>
<pdfrwt beam="2">  1        2 0.22991589E-01 0.37381665E+03</pdfrwt>
<totfact> 0.51370803E+02</totfact>
</mgrwt>
</event>
<event>
 5    0  0.1041609E-002  0.1623214E+03  0.7546771E-02  0.1186101E+00
         21   -1    0    0  503  502  0.00000000000E+00  0.00000000000E+00  0.48518099978E+02  0.48518099978E+02  0.00000000000E+00 0.  1.
          2   -1    0    0  502    0 -0.00000000000E+00 -0.00000000000E+00 -0.14303126344E+04  0.14303126344E+04  0.00000000000E+00 0.  1.
         25    1    1    2    0    0  0.17178620059E+03  0.12348757994E+03 -0.65037219925E+03  0.69524720688E+03  0.12500000000E+03 0.  0.
         21    1    1    2  503  501 -0.15835497538E+03 -0.63055302637E+02 -0.27900010102E+03  0.32694544772E+03  0.00000000000E+00 0.  1.
          2    1    1    2  501    0 -0.13431225219E+02 -0.60432277299E+02 -0.45242223412E+03  0.45663807975E+03  0.00000000000E+00 0.  1.
<mgrwt>
<rscale>  4 0.16232145E+03</rscale>
<asrwt>0</asrwt>
<pdfrwt beam="1">  1       21 0.74643213E-02 0.16232145E+03</pdfrwt>
<pdfrwt beam="2">  1        2 0.22004815E+00 0.16232145E+03</pdfrwt>
<totfact> 0.26066792E+04</totfact>
</mgrwt>
</event>
<event>
 5    0  0.1041609E-002  0.4201152E+03  0.7546771E-02  0.1037029E+00
          2   -1    0    0  502    0 -0.00000000000E+00  0.00000000000E+00  0.79076990910E+03  0.79076990910E+03  0.00000000000E+00 0. -1.
         21   -1    0    0  503  502  0.00000000000E+00 -0.00000000000E+00 -0.32371261051E+03  0.32371261051E+03  0.00000000000E+00 0. -1.
         25    1    1    2    0    0  0.19945100695E+03  0.16579647170E+02 -0.12953832246E+03  0.26918537453E+03  0.12500000000E+03 0.  0.
         21    1    1    2  503  501  0.16743972512E+03 -0.90179652143E+02  0.77450601903E+02  0.20534611499E+03  0.00000000000E+00 0.  1.
          2    1    1    2  501    0 -0.36689073207E+03  0.73600004973E+02  0.51914501914E+03  0.63995103009E+03  0.00000000000E+00 0. -1.
<mgrwt>
<rscale>  4 0.42011520E+03</rscale>
<asrwt>0</asrwt>
<pdfrwt beam="1">  1       21 0.49801940E-01 0.42011520E+03</pdfrwt>
<pdfrwt beam="2">  1        2 0.12165691E+00 0.42011520E+03</pdfrwt>
<totfact> 0.16191013E+03</totfact>
</mgrwt>
</event>
<event>
 5    0  0.1041609E-002  0.2399470E+03  0.7546771E-02  0.1119828E+00
         21   -1    0    0  503  502  0.00000000000E+00  0.00000000000E+00  0.22987433245E+03  0.22987433245E+03  0.00000000000E+00 0. -1.
          1   -1    0    0  502    0 -0.00000000000E+00 -0.00000000000E+00 -0.82200093339E+03  0.82200093339E+03  0.00000000000E+00 0. -1.
         25    1    1    2    0    0 -0.66428135163E+02  0.20405488209E+03 -0.32883541829E+03  0.41207866284E+03  0.12500000000E+03 0.  0.
         21    1    1    2  503  501 -0.45302938266E+01 -0.67642259062E+02 -0.41694411049E+03  0.42241968472E+03  0.00000000000E+00 0.  1.
          1    1    1    2  501    0  0.70958428989E+02 -0.13641262303E+03  0.15365292784E+03  0.21737691828E+03  0.00000000000E+00 0. -1.
<mgrwt>
<rscale>  4 0.23994696E+03</rscale>
<asrwt>0</asrwt>
<pdfrwt beam="1">  1       21 0.35365281E-01 0.23994696E+03</pdfrwt>
<pdfrwt beam="2">  1        1 0.12646168E+00 0.23994696E+03</pdfrwt>
<totfact> 0.18646379E+03</totfact>
</mgrwt>
</event>
<event>
 5    0  0.1041609E-002  0.3403030E+03  0.7546771E-02  0.1066667E+00
          2   -1    0    0  502    0 -0.00000000000E+00  0.00000000000E+00  0.31348058991E+03  0.31348058991E+03  0.00000000000E+00 0. -1.
         21   -1    0    0  503  502  0.00000000000E+00 -0.00000000000E+00 -0.71001290283E+03  0.71001290283E+03  0.00000000000E+00 0. -1.
         25    1    1    2    0    0 -0.25772477137E+03  0.21486977387E+02 -0.22826363371E+03  0.36689649010E+03  0.12500000000E+03 0.  0.
         21    1    1    2  503  501  0.43845292965E+02  0.11689635604E+03 -0.33137282486E+03  0.35411172930E+03  0.00000000000E+00 0. -1.
          2    1    1    2  501    0  0.21387947841E+03 -0.13838333343E+03  0.16310414566E+03  0.30248527334E+03  0.00000000000E+00 0. -1.
<mgrwt>
<rscale>  4 0.34030303E+03</rscale>
<asrwt>0</asrwt>
<pdfrwt beam="1">  1       21 0.10923275E+00 0.34030303E+03</pdfrwt>
<pdfrwt beam="2">  1        2 0.48227783E-01 0.34030303E+03</pdfrwt>
<totfact> 0.80700652E+02</totfact>
</mgrwt>
</event>
<event>
 5    0  0.1041609E-002  0.2603308E+03  0.7546771E-02  0.1106945E+00
         21   -1    0    0  503  502  0.00000000000E+00  0.00000000000E+00  0.72835986279E+03  0.72835986279E+03  0.00000000000E+00 0. -1.
          1   -1    0    0  502    0 -0.00000000000E+00 -0.00000000000E+00 -0.99696602759E+02  0.99696602759E+02  0.00000000000E+00 0. -1.
         25    1    1    2    0    0 -0.15279024253E+03 -0.15602179575E+03  0.26504223847E+03  0.36545868048E+03  0.12500000000E+03 0.  0.
         21    1    1    2  503  501 -0.28670979477E+02  0.21260835419E+02  0.15003206507E+01  0.35725329235E+02  0.00000000000E+00 0.  1.
          1    1    1    2  501    0  0.18146122201E+03  0.13476096034E+03  0.36212070091E+03  0.42687245584E+03  0.00000000000E+00 0. -1.
<mgrwt>
<rscale>  4 0.26033080E+03</rscale>
<asrwt>0</asrwt>
<pdfrwt beam="1">  1       21 0.11205536E+00 0.26033080E+03</pdfrwt>
<pdfrwt beam="2">  1        1 0.15337939E-01 0.26033080E+03</pdfrwt>
<totfact> 0.23620540E+03</totfact>
</mgrwt>
</event>
<event>
 5    0  0.1041609E-002  0.4115258E+03  0.7546771E-02  0.1039860E+00
         21   -1    0    0  503  502  0.00000000000E+00  0.00000000000E+00  0.62246630032E+03  0.62246630032E+03  0.00000000000E+00 0.  1.
          2   -1    0    0  502    0 -0.00000000000E+00 -0.00000000000E+00 -0.40662183903E+03  0.40662183903E+03  0.00000000000E+00 0.  1.
         25    1    1    2    0    0 -0.12140461541E+03 -0.23293244488E+03  0.85140290675E+02  0.30310142464E+03  0.12500000000E+03 0.  0.
         21    1    1    2  503  501 -0.15223865964E+03  0.58084216625E+02  0.31351571412E+03  0.35333056577E+03  0.00000000000E+00 0.  1.
          2    1    1    2  501    0  0.27364327505E+03  0.17484822825E+03 -0.18281154351E+03  0.37265614894E+03  0.00000000000E+00 0.  1.
<mgrwt>
<rscale>  4 0.41152578E+03</rscale>
<asrwt>0</asrwt>
<pdfrwt beam="1">  1       21 0.95764046E-01 0.41152578E+03</pdfrwt>
<pdfrwt beam="2">  1        2 0.62557206E-01 0.41152578E+03</pdfrwt>
<totfact> 0.81811697E+02</totfact>
</mgrwt>
</event>
<event>
 5    0  0.1041609E-002  0.2995963E+03  0.7546771E-02  0.1085443E+00
         21   -1    0    0  503  502  0.00000000000E+00  0.00000000000E+00  0.10234506223E+03  0.10234506223E+03  0.00000000000E+00 0.  1.
          2   -1    0    0  502    0 -0.00000000000E+00 -0.00000000000E+00 -0.98350507445E+03  0.98350507445E+03  0.00000000000E+00 0.  1.
         25    1    1    2    0    0 -0.93442645221E+02 -0.18863299237E+03 -0.67731608600E+03  0.72020553601E+03  0.12500000000E+03 0.  0.
         21    1    1    2  503  501  0.29564085002E+02 -0.27135444002E+02  0.22891199831E+02  0.46199290827E+02  0.00000000000E+00 0.  1.
          2    1    1    2  501    0  0.63878560220E+02  0.21576843637E+03 -0.22673512606E+03  0.31944530984E+03  0.00000000000E+00 0.  1.
<mgrwt>
<rscale>  4 0.29959631E+03</rscale>
<asrwt>0</asrwt>
<pdfrwt beam="1">  1       21 0.15745394E-01 0.29959631E+03</pdfrwt>
<pdfrwt beam="2">  1        2 0.15130847E+00 0.29959631E+03</pdfrwt>
<totfact> 0.11957745E+04</totfact>
</mgrwt>
</event>
<event>
 5    0  0.1041609E-002  0.3166948E+03  0.7546771E-02  0.1077181E+00
         21   -1    0    0  501  502  0.00000000000E+00  0.00000000000E+00  0.53180477540E+03  0.53180477540E+03  0.00000000000E+00 0.  1.
         -1   -1    0    0    0  501 -0.00000000000E+00 -0.00000000000E+00 -0.24638307541E+03  0.24638307541E+03  0.00000000000E+00 0.  1.
         25    1    1    2    0    0  0.16324599132E+03  0.24724002315E+03  0.54047487756E+02  0.32607209888E+03  0.12500000000E+03 0.  0.
         21    1    1    2  503  502  0.21004614506E+02 -0.11443071933E+03 -0.14672599618E+02  0.11726409739E+03  0.00000000000E+00 0. -1.
         -1    1    1    2    0  503 -0.18425060583E+03 -0.13280930382E+03  0.24604681186E+03  0.33485165455E+03  0.00000000000E+00 0.  1.
<mgrwt>
<rscale>  4 0.31669483E+03</rscale>
<asrwt>0</asrwt>
<pdfrwt beam="1">  1       21 0.81816119E-01 0.31669483E+03</pdfrwt>
<pdfrwt beam="2">  1       -1 0.37905089E-01 0.31669483E+03</pdfrwt>
<totfact> 0.78040584E+02</totfact>
</mgrwt>
</event>
<event>
 5    0  0.1041609E-002  0.7670572E+03  0.7546771E-02  0.9608964E-01
         21   -1    0    0  501  502  0.00000000000E+00  0.00000000000E+00  0.49308787377E+03  0.49308787377E+03  0.00000000000E+00 0.  1.
         -1   -1    0    0    0  501 -0.00000000000E+00 -0.00000000000E+00 -0.12511378668E+04  0.12511378668E+04  0.00000000000E+00 0.  1.
         25    1    1    2    0    0 -0.30086666283E+03  0.42533790626E+03 -0.17441976719E+03  0.56345393644E+03  0.12500000000E+03 0.  0.
         21    1    1    2  503  502 -0.24257253486E+03  0.78434072923E+02 -0.31931428137E+02  0.25692986312E+03  0.00000000000E+00 0. -1.
         -1    1    1    2    0  503  0.54343919769E+03 -0.50377197918E+03 -0.55169879774E+03  0.92384194104E+03  0.00000000000E+00 0.  1.
<mgrwt>
<rscale>  4 0.76705721E+03</rscale>
<asrwt>0</asrwt>
<pdfrwt beam="1">  1       21 0.75859674E-01 0.76705721E+03</pdfrwt>
<pdfrwt beam="2">  1       -1 0.19248275E+00 0.76705721E+03</pdfrwt>
<totfact> 0.22155960E+01</totfact>
</mgrwt>
</event>
<event>
 5    0  0.1041609E-002  0.2345718E+03  0.7546771E-02  0.1123463E+00
          1   -1    0    0  502    0 -0.00000000000E+00  0.00000000000E+00  0.84117496011E+03  0.84117496011E+03  0.00000000000E+00 0. -1.
         21   -1    0    0  503  502  0.00000000000E+00 -0.00000000000E+00 -0.14695144130E+03  0.14695144130E+03  0.00000000000E+00 0. -1.
         25    1    1    2    0    0 -0.64001255402E+02 -0.20460341748E+03  0.34640704364E+03  0.42612387755E+03  0.12500000000E+03 0.  0.
         21    1    1    2  503  501  0.10945498146E+03  0.75083237107E+02  0.39511796079E+03  0.41681661243E+03  0.00000000000E+00 0. -1.
          1    1    1    2  501    0 -0.45453726061E+02  0.12952018037E+03 -0.47301485613E+02  0.14518591143E+03  0.00000000000E+00 0. -1.
<mgrwt>
<rscale>  4 0.23457177E+03</rscale>
<asrwt>0</asrwt>
<pdfrwt beam="1">  1       21 0.22607915E-01 0.23457177E+03</pdfrwt>
<pdfrwt beam="2">  1        1 0.12941153E+00 0.23457177E+03</pdfrwt>
<totfact> 0.43047890E+03</totfact>
</mgrwt>
</event>
<event>
 5    0  0.1041609E-002  0.4031577E+03  0.7546771E-02  0.1042692E+00
         21   -1    0    0  503  502  0.00000000000E+00  0.00000000000E+00  0.10419234321E+03  0.10419234321E+03  0.00000000000E+00 0.  1.
          2   -1    0    0  502    0 -0.00000000000E+00 -0.00000000000E+00 -0.28038987159E+04  0.28038987159E+04  0.00000000000E+00 0.  1.
         25    1    1    2    0    0 -0.23669334115E+03 -0.29050732186E+03 -0.23258649473E+04  0.23591716755E+04  0.12500000000E+03 0.  0.
         21    1    1    2  503  501 -0.14396153750E+02  0.32874980411E+02 -0.67337337882E+02  0.76304198134E+02  0.00000000000E+00 0. -1.
          2    1    1    2  501    0  0.25108949490E+03  0.25763234145E+03 -0.30650408754E+03  0.47261518542E+03  0.00000000000E+00 0.  1.
<mgrwt>
<rscale>  4 0.40315773E+03</rscale>
<asrwt>0</asrwt>
<pdfrwt beam="1">  1       21 0.16029591E-01 0.40315773E+03</pdfrwt>
<pdfrwt beam="2">  1        2 0.43136904E+00 0.40315773E+03</pdfrwt>
<totfact> 0.11104666E+03</totfact>
</mgrwt>
</event>
<event>
 5    0  0.1041609E-002  0.4114231E+03  0.7546771E-02  0.1039895E+00
          2   -1    0    0  502    0 -0.00000000000E+00  0.00000000000E+00  0.76051894775E+03  0.76051894775E+03  0.00000000000E+00 0. -1.
         21   -1    0    0  503  502  0.00000000000E+00 -0.00000000000E+00 -0.27616873791E+03  0.27616873791E+03  0.00000000000E+00 0. -1.
         25    1    1    2    0    0 -0.25188754078E+03  0.59125700199E+02  0.46022899046E+03  0.54256695926E+03  0.12500000000E+03 0.  0.
         21    1    1    2  503  501 -0.72401247513E+02 -0.14005159611E+03  0.26544975290E+02  0.15987815964E+03  0.00000000000E+00 0. -1.
          2    1    1    2  501    0  0.32428878829E+03  0.80925895914E+02 -0.24237559096E+01  0.33424256676E+03  0.00000000000E+00 0. -1.
<mgrwt>
<rscale>  4 0.41142308E+03</rscale>
<asrwt>0</asrwt>
<pdfrwt beam="1">  1       21 0.42487499E-01 0.41142308E+03</pdfrwt>
<pdfrwt beam="2">  1        2 0.11700291E+00 0.41142308E+03</pdfrwt>
<totfact> 0.23800912E+03</totfact>
</mgrwt>
</event>
<event>
 5    0  0.1041609E-002  0.2975026E+03  0.7546771E-02  0.1086496E+00
         21   -1    0    0  503  502  0.00000000000E+00  0.00000000000E+00  0.50402049655E+03  0.50402049655E+03  0.00000000000E+00 0.  1.
          2   -1    0    0  502    0 -0.00000000000E+00 -0.00000000000E+00 -0.49712472514E+03  0.49712472514E+03  0.00000000000E+00 0.  1.
         25    1    1    2    0    0  0.10454431792E+03 -0.19149997941E+03 -0.10165705428E+03  0.27122115185E+03  0.12500000000E+03 0.  0.
         21    1    1    2  503  501  0.76869390874E+02  0.92936685176E+02 -0.27168402465E+03  0.29725130774E+03  0.00000000000E+00 0.  1.
          2    1    1    2  501    0 -0.18141370880E+03  0.98563294236E+02  0.38023685033E+03  0.43267276210E+03  0.00000000000E+00 0.  1.
<mgrwt>
<rscale>  4 0.29750261E+03</rscale>
<asrwt>0</asrwt>
<pdfrwt beam="1">  1       21 0.77541614E-01 0.29750261E+03</pdfrwt>
<pdfrwt beam="2">  1        2 0.76480728E-01 0.29750261E+03</pdfrwt>
<totfact> 0.11065244E+03</totfact>
</mgrwt>
</event>
<event>
 5    0  0.1041609E-002  0.4153170E+03  0.7546771E-02  0.1038601E+00
         -4   -1    0    0    0  501 -0.00000000000E+00  0.00000000000E+00  0.47853238110E+03  0.47853238110E+03  0.00000000000E+00 0. -1.
         21   -1    0    0  501  502  0.00000000000E+00 -0.00000000000E+00 -0.38013883750E+03  0.38013883750E+03  0.00000000000E+00 0. -1.
         25    1    1    2    0    0  0.20588523230E+02 -0.26672360401E+03  0.98227491773E+02  0.31118966622E+03  0.12500000000E+03 0.  0.
         21    1    1    2  503  502 -0.15500770660E+03 -0.76055328994E+02  0.39718569850E+02  0.17717044608E+03  0.00000000000E+00 0.  1.
         -4    1    1    2    0  503  0.13441918337E+03  0.34277893300E+03 -0.39552518023E+02  0.37031110630E+03  0.00000000000E+00 0. -1.
<mgrwt>
<rscale>  4 0.41531697E+03</rscale>
<asrwt>0</asrwt>
<pdfrwt beam="1">  1       21 0.58482898E-01 0.41531697E+03</pdfrwt>
<pdfrwt beam="2">  1       -4 0.73620366E-01 0.41531697E+03</pdfrwt>
<totfact> 0.19041121E+02</totfact>
</mgrwt>
</event>
<event>
 5    0  0.1041609E-002  0.3399042E+03  0.7546771E-02  0.1066837E+00
          1   -1    0    0  502    0 -0.00000000000E+00  0.00000000000E+00  0.19929482611E+04  0.19929482611E+04  0.00000000000E+00 0. -1.
         21   -1    0    0  503  502  0.00000000000E+00 -0.00000000000E+00 -0.77810434819E+02  0.77810434819E+02  0.00000000000E+00 0. -1.
         25    1    1    2    0    0  0.17360353243E+03  0.11639773431E+03  0.30827670577E+03  0.39286912114E+03  0.12500000000E+03 0.  0.
         21    1    1    2  503  501  0.19453142436E+02 -0.15450119377E+02  0.13070426415E+04  0.13072786993E+04  0.00000000000E+00 0. -1.
          1    1    1    2  501    0 -0.19305667486E+03 -0.10094761494E+03  0.29981847903E+03  0.37061087550E+03  0.00000000000E+00 0. -1.
<mgrwt>
<rscale>  4 0.33990418E+03</rscale>
<asrwt>0</asrwt>
<pdfrwt beam="1">  1       21 0.11970838E-01 0.33990418E+03</pdfrwt>
<pdfrwt beam="2">  1        1 0.30660739E+00 0.33990418E+03</pdfrwt>
<totfact> 0.21603452E+03</totfact>
</mgrwt>
</event>
<event>
 5    0  0.1041609E-002  0.4318915E+03  0.7546771E-02  0.1033264E+00
          2   -1    0    0  502    0 -0.00000000000E+00  0.00000000000E+00  0.10894239880E+04  0.10894239880E+04  0.00000000000E+00 0.  1.
         21   -1    0    0  503  502  0.00000000000E+00 -0.00000000000E+00 -0.17855257464E+03  0.17855257464E+03  0.00000000000E+00 0.  1.
         25    1    1    2    0    0  0.22490656666E+03 -0.17548776402E+02  0.24936787086E+03  0.35874818229E+03  0.12500000000E+03 0.  0.
         21    1    1    2  503  501  0.70658077635E+02  0.23442057756E+03  0.35576640316E+03  0.43187417697E+03  0.00000000000E+00 0. -1.
          2    1    1    2  501    0 -0.29556464429E+03 -0.21687180116E+03  0.30573713932E+03  0.47735420335E+03  0.00000000000E+00 0.  1.
<mgrwt>
<rscale>  4 0.43189150E+03</rscale>
<asrwt>0</asrwt>
<pdfrwt beam="1">  1       21 0.27469627E-01 0.43189150E+03</pdfrwt>
<pdfrwt beam="2">  1        2 0.16760369E+00 0.43189150E+03</pdfrwt>
<totfact> 0.34774009E+03</totfact>
</mgrwt>
</event>
<event>
 5    0  0.1041609E-002  0.5882586E+03  0.7546771E-02  0.9930070E-01
         21   -1    0    0  501  502  0.00000000000E+00  0.00000000000E+00  0.22833856980E+04  0.22833856980E+04  0.00000000000E+00 0. -1.
         -2   -1    0    0    0  501 -0.00000000000E+00 -0.00000000000E+00 -0.15624384598E+03  0.15624384598E+03  0.00000000000E+00 0. -1.
         25    1    1    2    0    0  0.28710385847E+03 -0.22058544532E+03  0.37721597604E+03  0.53759041734E+03  0.12500000000E+03 0.  0.
         21    1    1    2  503  502  0.39628209531E+02 -0.20076023719E+03  0.61401238859E+03  0.64721424673E+03  0.00000000000E+00 0. -1.
         -2    1    1    2    0  503 -0.32673206800E+03  0.42134568251E+03  0.11359134874E+04  0.12548248799E+04  0.00000000000E+00 0. -1.
<mgrwt>
<rscale>  4 0.58825861E+03</rscale>
<asrwt>0</asrwt>
<pdfrwt beam="1">  1       21 0.35129008E+00 0.58825861E+03</pdfrwt>
<pdfrwt beam="2">  1       -2 0.24037516E-01 0.58825861E+03</pdfrwt>
<totfact> 0.15794041E+01</totfact>
</mgrwt>
</event>
<event>
 5    0  0.1041609E-002  0.6214682E+03  0.7546771E-02  0.9861841E-01
          2   -1    0    0  502    0 -0.00000000000E+00  0.00000000000E+00  0.41437907971E+03  0.41437907971E+03  0.00000000000E+00 0.  1.
         21   -1    0    0  503  502  0.00000000000E+00 -0.00000000000E+00 -0.94935543731E+03  0.94935543731E+03  0.00000000000E+00 0.  1.
         25    1    1    2    0    0  0.32543507348E+03 -0.28966187710E+02 -0.22508730787E+03  0.41597634939E+03  0.12500000000E+03 0.  0.
         21    1    1    2  503  501  0.18125571370E+03 -0.25487101812E+03 -0.13992037524E+03  0.34262308888E+03  0.00000000000E+00 0.  1.
          2    1    1    2  501    0 -0.50669078718E+03  0.28383720583E+03 -0.16996867449E+03  0.60513507875E+03  0.00000000000E+00 0.  1.
<mgrwt>
<rscale>  4 0.62146821E+03</rscale>
<asrwt>0</asrwt>
<pdfrwt beam="1">  1       21 0.14605468E+00 0.62146821E+03</pdfrwt>
<pdfrwt beam="2">  1        2 0.63750628E-01 0.62146821E+03</pdfrwt>
<totfact> 0.26019359E+02</totfact>
</mgrwt>
</event>
<event>
 5    0  0.1041609E-002  0.4856255E+03  0.7546771E-02  0.1017600E+00
          2   -1    0    0  502    0 -0.00000000000E+00  0.00000000000E+00  0.21337194333E+04  0.21337194333E+04  0.00000000000E+00 0. -1.
         21   -1    0    0  503  502  0.00000000000E+00 -0.00000000000E+00 -0.58210232216E+02  0.58210232216E+02  0.00000000000E+00 0. -1.
         25    1    1    2    0    0  0.12070910007E+03 -0.16738384247E+03  0.92166768871E+03  0.95272470629E+03  0.12500000000E+03 0.  0.
         21    1    1    2  503  501 -0.13000904023E+03  0.20290774421E+03  0.11731994147E+04  0.11976939383E+04  0.00000000000E+00 0.  1.
          2    1    1    2  501    0  0.92999401598E+01 -0.35523901740E+02 -0.19357902274E+02  0.41511020973E+02  0.00000000000E+00 0. -1.
<mgrwt>
<rscale>  4 0.48562554E+03</rscale>
<asrwt>0</asrwt>
<pdfrwt beam="1">  1       21 0.89554220E-02 0.48562554E+03</pdfrwt>
<pdfrwt beam="2">  1        2 0.32826447E+00 0.48562554E+03</pdfrwt>
<totfact> 0.74167295E+03</totfact>
</mgrwt>
</event>
<event>
 5    0  0.1041609E-002  0.3766427E+03  0.7546771E-02  0.1052182E+00
         21   -1    0    0  503  502  0.00000000000E+00  0.00000000000E+00  0.71991816267E+02  0.71991816267E+02  0.00000000000E+00 0.  1.
          2   -1    0    0  502    0 -0.00000000000E+00 -0.00000000000E+00 -0.22414336994E+04  0.22414336994E+04  0.00000000000E+00 0.  1.
         25    1    1    2    0    0 -0.30127455115E+03 -0.16563882442E+02 -0.90503830610E+03  0.96216425463E+03  0.12500000000E+03 0.  0.
         21    1    1    2  503  501  0.18788222127E+02 -0.10349111577E+03 -0.70835901429E+03  0.71612561850E+03  0.00000000000E+00 0.  1.
          2    1    1    2  501    0  0.28248632903E+03  0.12005499821E+03 -0.55604456277E+03  0.63513564257E+03  0.00000000000E+00 0.  1.
<mgrwt>
<rscale>  4 0.37664274E+03</rscale>
<asrwt>0</asrwt>
<pdfrwt beam="1">  1       21 0.11075665E-01 0.37664274E+03</pdfrwt>
<pdfrwt beam="2">  1        2 0.34483592E+00 0.37664274E+03</pdfrwt>
<totfact> 0.45416257E+03</totfact>
</mgrwt>
</event>
<event>
 5    0  0.1041609E-002  0.2698553E+03  0.7546771E-02  0.1101362E+00
         21   -1    0    0  503  502  0.00000000000E+00  0.00000000000E+00  0.10063357974E+03  0.10063357974E+03  0.00000000000E+00 0.  1.
          2   -1    0    0  502    0 -0.00000000000E+00 -0.00000000000E+00 -0.10066684021E+04  0.10066684021E+04  0.00000000000E+00 0.  1.
         25    1    1    2    0    0 -0.15780762971E+03  0.19473713054E+03 -0.60366614161E+03  0.66547998357E+03  0.12500000000E+03 0.  0.
         21    1    1    2  503  501 -0.82952278481E+01 -0.10393286086E+03 -0.20256012703E+03  0.22781890930E+03  0.00000000000E+00 0. -1.
          2    1    1    2  501    0  0.16610285756E+03 -0.90804269682E+02 -0.99808553674E+02  0.21400308892E+03  0.00000000000E+00 0.  1.
<mgrwt>
<rscale>  4 0.26985527E+03</rscale>
<asrwt>0</asrwt>
<pdfrwt beam="1">  1       21 0.15482090E-01 0.26985527E+03</pdfrwt>
<pdfrwt beam="2">  1        2 0.15487206E+00 0.26985527E+03</pdfrwt>
<totfact> 0.12010049E+04</totfact>
</mgrwt>
</event>
<event>
 5    0  0.1041609E-002  0.3898766E+03  0.7546771E-02  0.1047343E+00
         21   -1    0    0  503  502  0.00000000000E+00  0.00000000000E+00  0.11756886538E+03  0.11756886538E+03  0.00000000000E+00 0. -1.
          1   -1    0    0  502    0 -0.00000000000E+00 -0.00000000000E+00 -0.14676188286E+04  0.14676188286E+04  0.00000000000E+00 0. -1.
         25    1    1    2    0    0 -0.15741484548E+03 -0.21605401655E+03 -0.40592954829E+03  0.50185911352E+03  0.12500000000E+03 0.  0.
         21    1    1    2  503  501 -0.13828565512E+03  0.15355093031E+03 -0.23766269901E+03  0.31493549992E+03  0.00000000000E+00 0.  1.
          1    1    1    2  501    0  0.29570050060E+03  0.62503086237E+02 -0.70645771594E+03  0.76839308056E+03  0.00000000000E+00 0. -1.
<mgrwt>
<rscale>  4 0.38987656E+03</rscale>
<asrwt>0</asrwt>
<pdfrwt beam="1">  1       21 0.18087518E-01 0.38987656E+03</pdfrwt>
<pdfrwt beam="2">  1        1 0.22578751E+00 0.38987656E+03</pdfrwt>
<totfact> 0.22103964E+03</totfact>
</mgrwt>
</event>
<event>
 5    0  0.1041609E-002  0.3047373E+03  0.7546771E-02  0.1082896E+00
         21   -1    0    0  503  502  0.00000000000E+00  0.00000000000E+00  0.47377064432E+03  0.47377064432E+03  0.00000000000E+00 0.  1.
          2   -1    0    0  502    0 -0.00000000000E+00 -0.00000000000E+00 -0.41765717714E+03  0.41765717714E+03  0.00000000000E+00 0.  1.
         25    1    1    2    0    0  0.12720960007E+03  0.17411218043E+03 -0.26160462678E+03  0.36132992469E+03  0.12500000000E+03 0.  0.
         21    1    1    2  503  501  0.20908291343E+02  0.68332763185E+02 -0.33025837032E+02  0.78722481433E+02  0.00000000000E+00 0.  1.
          2    1    1    2  501    0 -0.14811789142E+03 -0.24244494362E+03  0.35074393099E+03  0.45137541534E+03  0.00000000000E+00 0.  1.
<mgrwt>
<rscale>  4 0.30473735E+03</rscale>
<asrwt>0</asrwt>
<pdfrwt beam="1">  1       21 0.72887792E-01 0.30473735E+03</pdfrwt>
<pdfrwt beam="2">  1        2 0.64254950E-01 0.30473735E+03</pdfrwt>
<totfact> 0.15415647E+03</totfact>
</mgrwt>
</event>
<event>
 5    0  0.1041609E-002  0.2997104E+03  0.7546771E-02  0.1085385E+00
         21   -1    0    0  503  502  0.00000000000E+00  0.00000000000E+00  0.12679320109E+03  0.12679320109E+03  0.00000000000E+00 0. -1.
          2   -1    0    0  502    0 -0.00000000000E+00 -0.00000000000E+00 -0.78269315707E+03  0.78269315707E+03  0.00000000000E+00 0. -1.
         25    1    1    2    0    0  0.35889762197E+02  0.19680950642E+03 -0.28221382893E+03  0.36782020348E+03  0.12500000000E+03 0.  0.
         21    1    1    2  503  501 -0.14744604293E+03  0.85464881095E+01 -0.20837330768E+03  0.25540715219E+03  0.00000000000E+00 0. -1.
          2    1    1    2  501    0  0.11155628073E+03 -0.20535599453E+03 -0.16531281936E+03  0.28625900249E+03  0.00000000000E+00 0. -1.
<mgrwt>
<rscale>  4 0.29971037E+03</rscale>
<asrwt>0</asrwt>
<pdfrwt beam="1">  1       21 0.19506646E-01 0.29971037E+03</pdfrwt>
<pdfrwt beam="2">  1        2 0.12041433E+00 0.29971037E+03</pdfrwt>
<totfact> 0.10884651E+04</totfact>
</mgrwt>
</event>
<event>
 5    0  0.1041609E-002  0.3202974E+03  0.7546771E-02  0.1075513E+00
          1   -1    0    0  502    0 -0.00000000000E+00  0.00000000000E+00  0.14641919323E+04  0.14641919323E+04  0.00000000000E+00 0.  1.
         21   -1    0    0  503  502  0.00000000000E+00 -0.00000000000E+00 -0.11226971844E+03  0.11226971844E+03  0.00000000000E+00 0.  1.
         25    1    1    2    0    0  0.14583870891E+03 -0.29397626192E+03  0.94788187088E+03  0.10108392616E+04  0.12500000000E+03 0.  0.
         21    1    1    2  503  501 -0.45022926046E+02  0.91314568372E+02  0.29943019244E+03  0.31626548091E+03  0.00000000000E+00 0. -1.
          1    1    1    2  501    0 -0.10081578286E+03  0.20266169355E+03  0.10461015054E+03  0.24935690827E+03  0.00000000000E+00 0.  1.
<mgrwt>
<rscale>  4 0.32029739E+03</rscale>
<asrwt>0</asrwt>
<pdfrwt beam="1">  1       21 0.17272265E-01 0.32029739E+03</pdfrwt>
<pdfrwt beam="2">  1        1 0.22526028E+00 0.32029739E+03</pdfrwt>
<totfact> 0.24709446E+03</totfact>
</mgrwt>
</event>
<event>
 5    0  0.1041609E-002  0.1628401E+03  0.7546771E-02  0.1185527E+00
          1   -1    0    0  502    0 -0.00000000000E+00  0.00000000000E+00  0.77329965292E+03  0.77329965292E+03  0.00000000000E+00 0. -1.
         21   -1    0    0  503  502  0.00000000000E+00 -0.00000000000E+00 -0.12082835768E+03  0.12082835768E+03  0.00000000000E+00 0. -1.
         25    1    1    2    0    0  0.22106902905E+03  0.10282535310E+03  0.33968440585E+03  0.43641157687E+03  0.12500000000E+03 0.  0.
         21    1    1    2  503  501 -0.26570389191E+03 -0.86905277100E+02  0.22865763305E+03  0.36115841194E+03  0.00000000000E+00 0. -1.
          1    1    1    2  501    0  0.44634862854E+02 -0.15920076002E+02  0.84129256337E+02  0.96558021799E+02  0.00000000000E+00 0. -1.
<mgrwt>
<rscale>  4 0.16284014E+03</rscale>
<asrwt>0</asrwt>
<pdfrwt beam="1">  1       21 0.18588979E-01 0.16284014E+03</pdfrwt>
<pdfrwt beam="2">  1        1 0.11896917E+00 0.16284014E+03</pdfrwt>
<totfact> 0.72390652E+03</totfact>
</mgrwt>
</event>
<event>
 5    0  0.1041609E-002  0.3818058E+03  0.7546771E-02  0.1050268E+00
         21   -1    0    0  503  502  0.00000000000E+00  0.00000000000E+00  0.55985596981E+02  0.55985596981E+02  0.00000000000E+00 0. -1.
          2   -1    0    0  502    0 -0.00000000000E+00 -0.00000000000E+00 -0.31412712977E+04  0.31412712977E+04  0.00000000000E+00 0. -1.
         25    1    1    2    0    0 -0.22424144180E+03 -0.97552672199E+02 -0.48680200219E+03  0.55892927765E+03  0.12500000000E+03 0.  0.
         21    1    1    2  503  501 -0.14629195463E+02 -0.12679924363E+03 -0.63792952713E+03  0.65057370307E+03  0.00000000000E+00 0.  1.
          2    1    1    2  501    0  0.23887063726E+03  0.22435191583E+03 -0.19605541714E+04  0.19877539139E+04  0.00000000000E+00 0. -1.
<mgrwt>
<rscale>  4 0.38180577E+03</rscale>
<asrwt>0</asrwt>
<pdfrwt beam="1">  1       21 0.86131682E-02 0.38180577E+03</pdfrwt>
<pdfrwt beam="2">  1        2 0.48327254E+00 0.38180577E+03</pdfrwt>
<totfact> 0.21735866E+03</totfact>
</mgrwt>
</event>
<event>
 5    0  0.1041609E-002  0.5592394E+03  0.7546771E-02  0.9993777E-01
         21   -1    0    0  503  502  0.00000000000E+00  0.00000000000E+00  0.28194497838E+03  0.28194497838E+03  0.00000000000E+00 0. -1.
          1   -1    0    0  502    0 -0.00000000000E+00 -0.00000000000E+00 -0.11128550790E+04  0.11128550790E+04  0.00000000000E+00 0. -1.
         25    1    1    2    0    0  0.48465683858E+03  0.24153373835E+03 -0.43034508723E+03  0.70288881912E+03  0.12500000000E+03 0.  0.
         21    1    1    2  503  501  0.40616572878E+01 -0.32262001985E+02 -0.24268146751E+02  0.40574336455E+02  0.00000000000E+00 0. -1.
          1    1    1    2  501    0 -0.48871849586E+03 -0.20927173637E+03 -0.37629686668E+03  0.65133690185E+03  0.00000000000E+00 0. -1.
<mgrwt>
<rscale>  4 0.55923940E+03</rscale>
<asrwt>0</asrwt>
<pdfrwt beam="1">  1       21 0.43376151E-01 0.55923940E+03</pdfrwt>
<pdfrwt beam="2">  1        1 0.17120847E+00 0.55923940E+03</pdfrwt>
<totfact> 0.66821414E+02</totfact>
</mgrwt>
</event>
<event>
 5    0  0.1041609E-002  0.3888062E+03  0.7546771E-02  0.1047726E+00
         21   -1    0    0  503  502  0.00000000000E+00  0.00000000000E+00  0.20419443849E+03  0.20419443849E+03  0.00000000000E+00 0. -1.
          2   -1    0    0  502    0 -0.00000000000E+00 -0.00000000000E+00 -0.78431843460E+03  0.78431843460E+03  0.00000000000E+00 0. -1.
         25    1    1    2    0    0 -0.20749521722E+03  0.27218559394E+03 -0.22667690975E+03  0.42912315730E+03  0.12500000000E+03 0.  0.
         21    1    1    2  503  501 -0.49074378458E+02 -0.10192855744E+03 -0.15926561777E+03  0.19535419742E+03  0.00000000000E+00 0.  1.
          2    1    1    2  501    0  0.25656959567E+03 -0.17025703649E+03 -0.19418146858E+03  0.36403551838E+03  0.00000000000E+00 0. -1.
<mgrwt>
<rscale>  4 0.38880618E+03</rscale>
<asrwt>0</asrwt>
<pdfrwt beam="1">  1       21 0.31414529E-01 0.38880618E+03</pdfrwt>
<pdfrwt beam="2">  1        2 0.12066437E+00 0.38880618E+03</pdfrwt>
<totfact> 0.42442849E+03</totfact>
</mgrwt>
</event>
<event>
 5    0  0.1041609E-002  0.3129597E+03  0.7546771E-02  0.1078936E+00
         21   -1    0    0  503  502  0.00000000000E+00  0.00000000000E+00  0.18008666890E+03  0.18008666890E+03  0.00000000000E+00 0.  1.
          2   -1    0    0  502    0 -0.00000000000E+00 -0.00000000000E+00 -0.70876862428E+03  0.70876862428E+03  0.00000000000E+00 0.  1.
         25    1    1    2    0    0 -0.14794993680E+03  0.17097815842E+03 -0.13121337043E+03  0.28976656646E+03  0.12500000000E+03 0.  0.
         21    1    1    2  503  501 -0.57940919276E+02 -0.11321917967E+03 -0.36024128557E+03  0.38203339724E+03  0.00000000000E+00 0. -1.
          2    1    1    2  501    0  0.20589085608E+03 -0.57758978755E+02 -0.37227299380E+02  0.21705532949E+03  0.00000000000E+00 0.  1.
<mgrwt>
<rscale>  4 0.31295971E+03</rscale>
<asrwt>0</asrwt>
<pdfrwt beam="1">  1       21 0.27705642E-01 0.31295971E+03</pdfrwt>
<pdfrwt beam="2">  1        2 0.10904133E+00 0.31295971E+03</pdfrwt>
<totfact> 0.62741347E+03</totfact>
</mgrwt>
</event>
<event>
 5    0  0.1041609E-002  0.5306480E+03  0.7546771E-02  0.1006075E+00
          1   -1    0    0  502    0 -0.00000000000E+00  0.00000000000E+00  0.28039254442E+04  0.28039254442E+04  0.00000000000E+00 0. -1.
         21   -1    0    0  503  502  0.00000000000E+00 -0.00000000000E+00 -0.10136788861E+03  0.10136788861E+03  0.00000000000E+00 0. -1.
         25    1    1    2    0    0  0.18159657089E+01 -0.44349427871E+03  0.92643709849E+03  0.10346985892E+04  0.12500000000E+03 0.  0.
         21    1    1    2  503  501 -0.66653320558E+02 -0.38258854270E+02  0.48400556201E+03  0.49006916770E+03  0.00000000000E+00 0.  1.
          1    1    1    2  501    0  0.64837354849E+02  0.48175313298E+03  0.12921148951E+04  0.13805255760E+04  0.00000000000E+00 0. -1.
<mgrwt>
<rscale>  4 0.53064799E+03</rscale>
<asrwt>0</asrwt>
<pdfrwt beam="1">  1       21 0.15595062E-01 0.53064799E+03</pdfrwt>
<pdfrwt beam="2">  1        1 0.43137309E+00 0.53064799E+03</pdfrwt>
<totfact> 0.35826452E+02</totfact>
</mgrwt>
</event>
<event>
 5    0  0.1041609E-002  0.6551317E+03  0.7546771E-02  0.9797197E-01
         21   -1    0    0  501  502  0.00000000000E+00  0.00000000000E+00  0.20099766647E+03  0.20099766647E+03  0.00000000000E+00 0. -1.
         -3   -1    0    0    0  501 -0.00000000000E+00 -0.00000000000E+00 -0.25361499491E+04  0.25361499491E+04  0.00000000000E+00 0. -1.
         25    1    1    2    0    0  0.27514121013E+03  0.38245838514E+03 -0.45195260936E+03  0.66472796163E+03  0.12500000000E+03 0.  0.
         21    1    1    2  503  502  0.23912883206E+02  0.18208480884E+03 -0.19735411186E+03  0.26958365874E+03  0.00000000000E+00 0. -1.
         -3    1    1    2    0  503 -0.29905409333E+03 -0.56454319397E+03 -0.16858455614E+04  0.18028359951E+04  0.00000000000E+00 0. -1.
<mgrwt>
<rscale>  4 0.65513173E+03</rscale>
<asrwt>0</asrwt>
<pdfrwt beam="1">  1       21 0.30922717E-01 0.65513173E+03</pdfrwt>
<pdfrwt beam="2">  1       -3 0.39017693E+00 0.65513173E+03</pdfrwt>
<totfact> 0.60913875E+00</totfact>
</mgrwt>
</event>
<event>
 5    0  0.1041609E-002  0.2725296E+03  0.7546771E-02  0.1099841E+00
          2   -1    0    0  502    0 -0.00000000000E+00  0.00000000000E+00  0.15174048869E+04  0.15174048869E+04  0.00000000000E+00 0.  1.
         21   -1    0    0  503  502  0.00000000000E+00 -0.00000000000E+00 -0.14225624008E+03  0.14225624008E+03  0.00000000000E+00 0.  1.
         25    1    1    2    0    0 -0.24818278033E+03  0.64034778459E+01  0.34551435993E+03  0.44344207051E+03  0.12500000000E+03 0.  0.
         21    1    1    2  503  501  0.10312199327E+03  0.42556974671E+02 -0.52509720834E+02  0.12329846865E+03  0.00000000000E+00 0.  1.
          2    1    1    2  501    0  0.14506078706E+03 -0.48960452516E+02  0.10821440077E+04  0.10929205878E+04  0.00000000000E+00 0.  1.
<mgrwt>
<rscale>  4 0.27252959E+03</rscale>
<asrwt>0</asrwt>
<pdfrwt beam="1">  1       21 0.21885576E-01 0.27252959E+03</pdfrwt>
<pdfrwt beam="2">  1        2 0.23344689E+00 0.27252959E+03</pdfrwt>
<totfact> 0.32344514E+03</totfact>
</mgrwt>
</event>
<event>
 5    0  0.1041609E-002  0.4168905E+03  0.7546771E-02  0.1038083E+00
         21   -1    0    0  503  502  0.00000000000E+00  0.00000000000E+00  0.77206019410E+03  0.77206019410E+03  0.00000000000E+00 0. -1.
          1   -1    0    0  502    0 -0.00000000000E+00 -0.00000000000E+00 -0.22772964676E+03  0.22772964676E+03  0.00000000000E+00 0. -1.
         25    1    1    2    0    0  0.29242400468E+03  0.20720070930E+02  0.28561570248E+03  0.42795145678E+03  0.12500000000E+03 0.  0.
         21    1    1    2  503  501  0.58012133285E+02  0.11406174014E+03  0.27481679352E+02  0.13088441799E+03  0.00000000000E+00 0.  1.
          1    1    1    2  501    0 -0.35043613797E+03 -0.13478181107E+03  0.23123316551E+03  0.44095396610E+03  0.00000000000E+00 0. -1.
<mgrwt>
<rscale>  4 0.41689053E+03</rscale>
<asrwt>0</asrwt>
<pdfrwt beam="1">  1       21 0.11877849E+00 0.41689053E+03</pdfrwt>
<pdfrwt beam="2">  1        1 0.35035331E-01 0.41689053E+03</pdfrwt>
<totfact> 0.67197611E+02</totfact>
</mgrwt>
</event>
<event>
 5    0  0.1041609E-002  0.2808639E+03  0.7546771E-02  0.1095218E+00
          2   -1    0    0  502    0 -0.00000000000E+00  0.00000000000E+00  0.90133144890E+03  0.90133144890E+03  0.00000000000E+00 0.  1.
         21   -1    0    0  503  502  0.00000000000E+00 -0.00000000000E+00 -0.10055202273E+03  0.10055202273E+03  0.00000000000E+00 0.  1.
         25    1    1    2    0    0 -0.23695744847E+03 -0.70695756401E+02  0.43850852243E+03  0.51871133263E+03  0.12500000000E+03 0.  0.
         21    1    1    2  503  501  0.73820504735E+02 -0.43328251727E+02  0.21054133119E+02  0.88148062024E+02  0.00000000000E+00 0. -1.
          2    1    1    2  501    0  0.16313694374E+03  0.11402400813E+03  0.34121677062E+03  0.39502407698E+03  0.00000000000E+00 0.  1.
<mgrwt>
<rscale>  4 0.28086385E+03</rscale>
<asrwt>0</asrwt>
<pdfrwt beam="1">  1       21 0.15469543E-01 0.28086385E+03</pdfrwt>
<pdfrwt beam="2">  1        2 0.13866637E+00 0.28086385E+03</pdfrwt>
<totfact> 0.13982622E+04</totfact>
</mgrwt>
</event>
<event>
 5    0  0.1041609E-002  0.6195303E+03  0.7546771E-02  0.9865695E-01
          2   -1    0    0  502    0 -0.00000000000E+00  0.00000000000E+00  0.89174835199E+03  0.89174835199E+03  0.00000000000E+00 0. -1.
         21   -1    0    0  503  502  0.00000000000E+00 -0.00000000000E+00 -0.14727304055E+03  0.14727304055E+03  0.00000000000E+00 0. -1.
         25    1    1    2    0    0  0.72661318688E+02 -0.24459577317E+03  0.42965563057E+03  0.51510748428E+03  0.12500000000E+03 0.  0.
         21    1    1    2  503  501 -0.79366371995E+02  0.31630437088E+03  0.31278324257E+03  0.45186373264E+03  0.00000000000E+00 0. -1.
          2    1    1    2  501    0  0.67050533068E+01 -0.71708597716E+02  0.20364382983E+01  0.72050175622E+02  0.00000000000E+00 0. -1.
<mgrwt>
<rscale>  4 0.61953035E+03</rscale>
<asrwt>0</asrwt>
<pdfrwt beam="1">  1       21 0.22657391E-01 0.61953035E+03</pdfrwt>
<pdfrwt beam="2">  1        2 0.13719205E+00 0.61953035E+03</pdfrwt>
<totfact> 0.65681735E+03</totfact>
</mgrwt>
</event>
<event>
 5    0  0.1041609E-002  0.6654077E+03  0.7546771E-02  0.9778290E-01
          1   -1    0    0  502    0 -0.00000000000E+00  0.00000000000E+00  0.16309410052E+04  0.16309410052E+04  0.00000000000E+00 0.  1.
         21   -1    0    0  503  502  0.00000000000E+00 -0.00000000000E+00 -0.30263971631E+03  0.30263971631E+03  0.00000000000E+00 0.  1.
         25    1    1    2    0    0 -0.67881867672E+02  0.32733569026E+03  0.40531222485E+02  0.35919964097E+03  0.12500000000E+03 0.  0.
         21    1    1    2  503  501 -0.33555995908E+02  0.28325228970E+03  0.36454968987E+03  0.46287616148E+03  0.00000000000E+00 0. -1.
          1    1    1    2  501    0  0.10143786358E+03 -0.61058797996E+03  0.92322037652E+03  0.11115049190E+04  0.00000000000E+00 0.  1.
<mgrwt>
<rscale>  4 0.66540767E+03</rscale>
<asrwt>0</asrwt>
<pdfrwt beam="1">  1       21 0.46559957E-01 0.66540767E+03</pdfrwt>
<pdfrwt beam="2">  1        1 0.25091400E+00 0.66540767E+03</pdfrwt>
<totfact> 0.24482940E+02</totfact>
</mgrwt>
</event>
<event>
 5    0  0.1041609E-002  0.3092642E+03  0.7546771E-02  0.1080699E+00
          2   -1    0    0  502    0 -0.00000000000E+00  0.00000000000E+00  0.10811426513E+04  0.10811426513E+04  0.00000000000E+00 0. -1.
         21   -1    0    0  503  502  0.00000000000E+00 -0.00000000000E+00 -0.15302327505E+03  0.15302327505E+03  0.00000000000E+00 0. -1.
         25    1    1    2    0    0  0.24102462844E+03 -0.69726968029E+02  0.66218133354E+03  0.71907151248E+03  0.12500000000E+03 0.  0.
         21    1    1    2  503  501 -0.66973429650E+02 -0.96088529168E+02  0.24771823424E+03  0.27401235244E+03  0.00000000000E+00 0.  1.
          2    1    1    2  501    0 -0.17405119879E+03  0.16581549720E+03  0.18219808444E+02  0.24108206140E+03  0.00000000000E+00 0. -1.
<mgrwt>
<rscale>  4 0.30926419E+03</rscale>
<asrwt>0</asrwt>
<pdfrwt beam="1">  1       21 0.23542043E-01 0.30926419E+03</pdfrwt>
<pdfrwt beam="2">  1        2 0.16632963E+00 0.30926419E+03</pdfrwt>
<totfact> 0.48819850E+03</totfact>
</mgrwt>
</event>
<event>
 5    0  0.1041609E-002  0.2663264E+03  0.7546771E-02  0.1103401E+00
         21   -1    0    0  503  502  0.00000000000E+00  0.00000000000E+00  0.21691190910E+02  0.21691190910E+02  0.00000000000E+00 0.  1.
          2   -1    0    0  502    0 -0.00000000000E+00 -0.00000000000E+00 -0.34809042000E+04  0.34809042000E+04  0.00000000000E+00 0.  1.
         25    1    1    2    0    0  0.22982697529E+03  0.16843194791E+02 -0.13947721449E+04  0.14191964162E+04  0.12500000000E+03 0.  0.
         21    1    1    2  503  501 -0.30410063183E+02  0.41981950891E+02 -0.82616220612E+03  0.82778695747E+03  0.00000000000E+00 0. -1.
          2    1    1    2  501    0 -0.19941691211E+03 -0.58825145682E+02 -0.12382786581E+04  0.12556120171E+04  0.00000000000E+00 0.  1.
<mgrwt>
<rscale>  4 0.26632638E+03</rscale>
<asrwt>0</asrwt>
<pdfrwt beam="1">  1       21 0.33371055E-02 0.26632638E+03</pdfrwt>
<pdfrwt beam="2">  1        2 0.53552386E+00 0.26632638E+03</pdfrwt>
<totfact> 0.70783155E+03</totfact>
</mgrwt>
</event>
<event>
 5    0  0.1041609E-002  0.4098266E+03  0.7546771E-02  0.1040429E+00
          2   -1    0    0  502    0 -0.00000000000E+00  0.00000000000E+00  0.83725159033E+03  0.83725159033E+03  0.00000000000E+00 0. -1.
         21   -1    0    0  503  502  0.00000000000E+00 -0.00000000000E+00 -0.34181267962E+03  0.34181267962E+03  0.00000000000E+00 0. -1.
         25    1    1    2    0    0 -0.19674071534E+03 -0.40788600567E+02  0.20091885504E+03  0.31042552298E+03  0.12500000000E+03 0.  0.
         21    1    1    2  503  501 -0.17120370446E+03 -0.24886884340E+02  0.43594419099E+03  0.46901748698E+03  0.00000000000E+00 0. -1.
          2    1    1    2  501    0  0.36794441980E+03  0.65675484906E+02 -0.14142413532E+03  0.39962125998E+03  0.00000000000E+00 0. -1.
<mgrwt>
<rscale>  4 0.40982663E+03</rscale>
<asrwt>0</asrwt>
<pdfrwt beam="1">  1       21 0.52586566E-01 0.40982663E+03</pdfrwt>
<pdfrwt beam="2">  1        2 0.12880794E+00 0.40982663E+03</pdfrwt>
<totfact> 0.13413892E+03</totfact>
</mgrwt>
</event>
<event>
 5    0  0.1041609E-002  0.5356948E+03  0.7546771E-02  0.1004860E+00
         21   -1    0    0  501  502  0.00000000000E+00  0.00000000000E+00  0.70325029774E+03  0.70325029774E+03  0.00000000000E+00 0.  1.
         -1   -1    0    0    0  501 -0.00000000000E+00 -0.00000000000E+00 -0.63309691057E+03  0.63309691057E+03  0.00000000000E+00 0.  1.
         25    1    1    2    0    0  0.29191944037E+03 -0.38378405957E+03  0.20309901807E+03  0.53794179535E+03  0.12500000000E+03 0.  0.
         21    1    1    2  503  502 -0.23254531231E+03  0.22639402668E+00  0.18461776824E+03  0.29691933902E+03  0.00000000000E+00 0.  1.
         -1    1    1    2    0  503 -0.59374128060E+02  0.38355766554E+03 -0.31756339915E+03  0.50148607394E+03  0.00000000000E+00 0.  1.
<mgrwt>
<rscale>  4 0.53569479E+03</rscale>
<asrwt>0</asrwt>
<pdfrwt beam="1">  1       21 0.10819235E+00 0.53569479E+03</pdfrwt>
<pdfrwt beam="2">  1       -1 0.97399525E-01 0.53569479E+03</pdfrwt>
<totfact> 0.58563736E+01</totfact>
</mgrwt>
</event>
<event>
 5    0  0.1041609E-002  0.2379924E+03  0.7546771E-02  0.1121138E+00
          4   -1    0    0  502    0 -0.00000000000E+00  0.00000000000E+00  0.53961373022E+03  0.53961373022E+03  0.00000000000E+00 0. -1.
         21   -1    0    0  503  502  0.00000000000E+00 -0.00000000000E+00 -0.18877407906E+03  0.18877407906E+03  0.00000000000E+00 0. -1.
         25    1    1    2    0    0  0.92148609056E+02 -0.18307512449E+03  0.81388696438E+02  0.25348961964E+03  0.12500000000E+03 0.  0.
         21    1    1    2  503  501 -0.20264378350E+03  0.15240946426E+03  0.10506160133E+03  0.27446509406E+03  0.00000000000E+00 0. -1.
          4    1    1    2  501    0  0.11049517444E+03  0.30665660234E+02  0.16438935339E+03  0.20043309557E+03  0.00000000000E+00 0. -1.
<mgrwt>
<rscale>  4 0.23799239E+03</rscale>
<asrwt>0</asrwt>
<pdfrwt beam="1">  1       21 0.29042166E-01 0.23799239E+03</pdfrwt>
<pdfrwt beam="2">  1        4 0.83017496E-01 0.23799239E+03</pdfrwt>
<totfact> 0.62343547E+02</totfact>
</mgrwt>
</event>
<event>
 5    0  0.1041609E-002  0.5749917E+03  0.7546771E-02  0.9958693E-01
         21   -1    0    0  503  502  0.00000000000E+00  0.00000000000E+00  0.10522386289E+04  0.10522386289E+04  0.00000000000E+00 0.  1.
          2   -1    0    0  502    0 -0.00000000000E+00 -0.00000000000E+00 -0.35056083246E+03  0.35056083246E+03  0.00000000000E+00 0.  1.
         25    1    1    2    0    0  0.38779866498E+03  0.19193993121E+03  0.18127745376E+03  0.48550515651E+03  0.12500000000E+03 0.  0.
         21    1    1    2  503  501  0.12778031501E+03 -0.10953699479E+03 -0.15598628340E+02  0.16902508493E+03  0.00000000000E+00 0.  1.
          2    1    1    2  501    0 -0.51557897999E+03 -0.82402936418E+02  0.53599897099E+03  0.74826921989E+03  0.00000000000E+00 0.  1.
<mgrwt>
<rscale>  4 0.57499170E+03</rscale>
<asrwt>0</asrwt>
<pdfrwt beam="1">  1       21 0.16188286E+00 0.57499170E+03</pdfrwt>
<pdfrwt beam="2">  1        2 0.53932436E-01 0.57499170E+03</pdfrwt>
<totfact> 0.23840250E+02</totfact>
</mgrwt>
</event>
<event>
 5    0  0.1041609E-002  0.2728855E+03  0.7546771E-02  0.1099639E+00
         21   -1    0    0  503  502  0.00000000000E+00  0.00000000000E+00  0.84675040716E+02  0.84675040716E+02  0.00000000000E+00 0. -1.
          1   -1    0    0  502    0 -0.00000000000E+00 -0.00000000000E+00 -0.12320443644E+04  0.12320443644E+04  0.00000000000E+00 0. -1.
         25    1    1    2    0    0 -0.11690867892E+02  0.22452561665E+03 -0.19283822231E+03  0.32149651461E+03  0.12500000000E+03 0.  0.
         21    1    1    2  503  501 -0.74583751830E+02 -0.61188125291E+02 -0.30047365354E+03  0.31558063816E+03  0.00000000000E+00 0. -1.
          1    1    1    2  501    0  0.86274619721E+02 -0.16333749136E+03 -0.65405744788E+03  0.67964225238E+03  0.00000000000E+00 0. -1.
<mgrwt>
<rscale>  4 0.27288554E+03</rscale>
<asrwt>0</asrwt>
<pdfrwt beam="1">  1       21 0.13026930E-01 0.27288554E+03</pdfrwt>
<pdfrwt beam="2">  1        1 0.18954528E+00 0.27288554E+03</pdfrwt>
<totfact> 0.60608224E+03</totfact>
</mgrwt>
</event>
<event>
 5    0  0.1041609E-002  0.5497067E+03  0.7546771E-02  0.1001562E+00
          1   -1    0    0  502    0 -0.00000000000E+00  0.00000000000E+00  0.68287798025E+03  0.68287798025E+03  0.00000000000E+00 0.  1.
         21   -1    0    0  503  502  0.00000000000E+00 -0.00000000000E+00 -0.10531256349E+04  0.10531256349E+04  0.00000000000E+00 0.  1.
         25    1    1    2    0    0  0.31222167976E+03  0.13863195176E+03  0.39705309213E+03  0.53849545340E+03  0.12500000000E+03 0.  0.
         21    1    1    2  503  501  0.62606482935E+02 -0.30275349782E+03  0.20438863862E+02  0.30983382531E+03  0.00000000000E+00 0. -1.
          1    1    1    2  501    0 -0.37482816270E+03  0.16412154606E+03 -0.78773961067E+03  0.88767433648E+03  0.00000000000E+00 0.  1.
<mgrwt>
<rscale>  4 0.54970674E+03</rscale>
<asrwt>0</asrwt>
<pdfrwt beam="1">  1       21 0.16201933E+00 0.54970674E+03</pdfrwt>
<pdfrwt beam="2">  1        1 0.10505815E+00 0.54970674E+03</pdfrwt>
<totfact> 0.65507672E+01</totfact>
</mgrwt>
</event>
<event>
 5    0  0.1041609E-002  0.4371612E+03  0.7546771E-02  0.1031621E+00
          1   -1    0    0  502    0 -0.00000000000E+00  0.00000000000E+00  0.49251399969E+03  0.49251399969E+03  0.00000000000E+00 0.  1.
         21   -1    0    0  503  502  0.00000000000E+00 -0.00000000000E+00 -0.18219936604E+03  0.18219936604E+03  0.00000000000E+00 0.  1.
         25    1    1    2    0    0  0.19659559922E+03 -0.14372595858E+03  0.13680273624E+03  0.30601792341E+03  0.12500000000E+03 0.  0.
         21    1    1    2  503  501 -0.44638393007E+02  0.15117051675E+03  0.14445824795E+03  0.21380668059E+03  0.00000000000E+00 0.  1.
          1    1    1    2  501    0 -0.15195720621E+03 -0.74445581655E+01  0.29053649462E+02  0.15488876174E+03  0.00000000000E+00 0.  1.
<mgrwt>
<rscale>  4 0.43716116E+03</rscale>
<asrwt>0</asrwt>
<pdfrwt beam="1">  1       21 0.28030672E-01 0.43716116E+03</pdfrwt>
<pdfrwt beam="2">  1        1 0.75771384E-01 0.43716116E+03</pdfrwt>
<totfact> 0.58900374E+03</totfact>
</mgrwt>
</event>
<event>
 5    0  0.1041609E-002  0.3937750E+03  0.7546771E-02  0.1045957E+00
         21   -1    0    0  503  502  0.00000000000E+00  0.00000000000E+00  0.18881147738E+03  0.18881147738E+03  0.00000000000E+00 0. -1.
          1   -1    0    0  502    0 -0.00000000000E+00 -0.00000000000E+00 -0.96150100495E+03  0.96150100495E+03  0.00000000000E+00 0. -1.
         25    1    1    2    0    0 -0.29457252776E+03  0.31495750777E+02 -0.28930424898E+03  0.43253543774E+03  0.12500000000E+03 0.  0.
         21    1    1    2  503  501 -0.21752711270E+02 -0.10529356850E+03  0.28772940741E+02  0.11130048577E+03  0.00000000000E+00 0. -1.
          1    1    1    2  501    0  0.31632523903E+03  0.73797817719E+02 -0.51215821933E+03  0.60647655881E+03  0.00000000000E+00 0. -1.
<mgrwt>
<rscale>  4 0.39377498E+03</rscale>
<asrwt>0</asrwt>
<pdfrwt beam="1">  1       21 0.29047920E-01 0.39377498E+03</pdfrwt>
<pdfrwt beam="2">  1        1 0.14792323E+00 0.39377498E+03</pdfrwt>
<totfact> 0.20361977E+03</totfact>
</mgrwt>
</event>
<event>
 5    0  0.1041609E-002  0.1924091E+03  0.7546771E-02  0.1156306E+00
         21   -1    0    0  503  502  0.00000000000E+00  0.00000000000E+00  0.29395270733E+03  0.29395270733E+03  0.00000000000E+00 0.  1.
          2   -1    0    0  502    0 -0.00000000000E+00 -0.00000000000E+00 -0.23904033321E+03  0.23904033321E+03  0.00000000000E+00 0.  1.
         25    1    1    2    0    0 -0.22140736683E+03  0.64653759849E+02  0.48803257188E+02  0.26684843763E+03  0.12500000000E+03 0.  0.
         21    1    1    2  503  501  0.13275670018E+03 -0.73104732469E+02  0.58926711831E+02  0.16260689014E+03  0.00000000000E+00 0.  1.
          2    1    1    2  501    0  0.88650666652E+02  0.84509726198E+01 -0.52817594903E+02  0.10353771278E+03  0.00000000000E+00 0.  1.
<mgrwt>
<rscale>  4 0.19240908E+03</rscale>
<asrwt>0</asrwt>
<pdfrwt beam="1">  1       21 0.45223493E-01 0.19240908E+03</pdfrwt>
<pdfrwt beam="2">  1        2 0.36775436E-01 0.19240908E+03</pdfrwt>
<totfact> 0.81195535E+03</totfact>
</mgrwt>
</event>
<event>
 5    0  0.1041609E-002  0.2572426E+03  0.7546771E-02  0.1108811E+00
          1   -1    0    0  502    0 -0.00000000000E+00  0.00000000000E+00  0.77655039414E+03  0.77655039414E+03  0.00000000000E+00 0.  1.
         21   -1    0    0  503  502  0.00000000000E+00 -0.00000000000E+00 -0.13518420791E+03  0.13518420791E+03  0.00000000000E+00 0.  1.
         25    1    1    2    0    0  0.16610511204E+03 -0.20180508694E+03  0.15574677458E+03  0.32893503789E+03  0.12500000000E+03 0.  0.
         21    1    1    2  503  501 -0.10126877269E+03  0.51002967340E+02  0.63658968044E+02  0.13003511530E+03  0.00000000000E+00 0.  1.
          1    1    1    2  501    0 -0.64836339350E+02  0.15080211960E+03  0.42196044360E+03  0.45276444885E+03  0.00000000000E+00 0.  1.
<mgrwt>
<rscale>  4 0.25724257E+03</rscale>
<asrwt>0</asrwt>
<pdfrwt beam="1">  1       21 0.20797571E-01 0.25724257E+03</pdfrwt>
<pdfrwt beam="2">  1        1 0.11946929E+00 0.25724257E+03</pdfrwt>
<totfact> 0.56675271E+03</totfact>
</mgrwt>
</event>
<event>
 5    0  0.1041609E-002  0.1493727E+04  0.7546771E-02  0.8888635E-01
         21   -1    0    0  503  502  0.00000000000E+00  0.00000000000E+00  0.87068339356E+03  0.87068339356E+03  0.00000000000E+00 0. -1.
          2   -1    0    0  502    0 -0.00000000000E+00 -0.00000000000E+00 -0.34250102460E+04  0.34250102460E+04  0.00000000000E+00 0. -1.
         25    1    1    2    0    0 -0.39594802944E+03 -0.31133859732E+03 -0.12908776497E+04  0.13912931649E+04  0.12500000000E+03 0.  0.
         21    1    1    2  503  501 -0.33747218293E+03 -0.91029213982E+03 -0.11047457856E+04  0.14707081644E+04  0.00000000000E+00 0. -1.
          2    1    1    2  501    0  0.73342021237E+03  0.12216307371E+04 -0.15870341713E+03  0.14336923102E+04  0.00000000000E+00 0. -1.
<mgrwt>
<rscale>  4 0.14937270E+04</rscale>
<asrwt>0</asrwt>
<pdfrwt beam="1">  1       21 0.13395129E+00 0.14937270E+04</pdfrwt>
<pdfrwt beam="2">  1        2 0.52692465E+00 0.14937270E+04</pdfrwt>
<totfact> 0.34589513E+00</totfact>
</mgrwt>
</event>
<event>
 5    0  0.1041609E-002  0.2025098E+03  0.7546771E-02  0.1147639E+00
         21   -1    0    0  501  502  0.00000000000E+00  0.00000000000E+00  0.65397426046E+02  0.65397426046E+02  0.00000000000E+00 0.  1.
         -3   -1    0    0    0  501 -0.00000000000E+00 -0.00000000000E+00 -0.10135895089E+04  0.10135895089E+04  0.00000000000E+00 0.  1.
         25    1    1    2    0    0 -0.18132965202E+03  0.90419211161E+02 -0.62942203150E+03  0.67294366049E+03  0.12500000000E+03 0.  0.
         21    1    1    2  503  502  0.10402044970E+03  0.98093397000E+00 -0.24310017733E+03  0.26442184555E+03  0.00000000000E+00 0. -1.
         -3    1    1    2    0  503  0.77309202323E+02 -0.91400145131E+02 -0.75669874039E+02  0.14162142893E+03  0.00000000000E+00 0.  1.
<mgrwt>
<rscale>  4 0.20250979E+03</rscale>
<asrwt>0</asrwt>
<pdfrwt beam="1">  1       21 0.10061142E-01 0.20250979E+03</pdfrwt>
<pdfrwt beam="2">  1       -3 0.15593685E+00 0.20250979E+03</pdfrwt>
<totfact> 0.12324206E+03</totfact>
</mgrwt>
</event>
<event>
 5    0  0.1041609E-002  0.3677326E+03  0.7546771E-02  0.1055563E+00
          2   -1    0    0  502    0 -0.00000000000E+00  0.00000000000E+00  0.32075982303E+03  0.32075982303E+03  0.00000000000E+00 0.  1.
         21   -1    0    0  503  502  0.00000000000E+00 -0.00000000000E+00 -0.52645386578E+03  0.52645386578E+03  0.00000000000E+00 0.  1.
         25    1    1    2    0    0  0.32243457347E+03  0.17091759329E+03 -0.20345493809E+03  0.43611442271E+03  0.12500000000E+03 0.  0.
         21    1    1    2  503  501 -0.88596361245E+02 -0.11628480744E+02 -0.77544979678E+02  0.11831213236E+03  0.00000000000E+00 0. -1.
          2    1    1    2  501    0 -0.23383821222E+03 -0.15928911254E+03  0.75305875021E+02  0.29278713374E+03  0.00000000000E+00 0.  1.
<mgrwt>
<rscale>  4 0.36773259E+03</rscale>
<asrwt>0</asrwt>
<pdfrwt beam="1">  1       21 0.80992902E-01 0.36773259E+03</pdfrwt>
<pdfrwt beam="2">  1        2 0.49347665E-01 0.36773259E+03</pdfrwt>
<totfact> 0.15918001E+03</totfact>
</mgrwt>
</event>
<event>
 5    0  0.1041609E-002  0.3152721E+03  0.7546771E-02  0.1077846E+00
         -3   -1    0    0    0  501 -0.00000000000E+00  0.00000000000E+00  0.87106898565E+03  0.87106898565E+03  0.00000000000E+00 0.  1.
         21   -1    0    0  501  502  0.00000000000E+00 -0.00000000000E+00 -0.11894518072E+03  0.11894518072E+03  0.00000000000E+00 0.  1.
         25    1    1    2    0    0 -0.15279488348E+03  0.16714902521E+03  0.30596556433E+03  0.40065571205E+03  0.12500000000E+03 0.  0.
         21    1    1    2  503  502  0.30538442170E+02  0.82333653194E+02  0.38158065444E+02  0.95746879098E+02  0.00000000000E+00 0.  1.
         -3    1    1    2    0  503  0.12225644131E+03 -0.24948267841E+03  0.40800017515E+03  0.49361157522E+03  0.00000000000E+00 0.  1.
<mgrwt>
<rscale>  4 0.31527213E+03</rscale>
<asrwt>0</asrwt>
<pdfrwt beam="1">  1       21 0.18299259E-01 0.31527213E+03</pdfrwt>
<pdfrwt beam="2">  1       -3 0.13401061E+00 0.31527213E+03</pdfrwt>
<totfact> 0.60071132E+02</totfact>
</mgrwt>
</event>
<event>
 5    0  0.1041609E-002  0.3696620E+03  0.7546771E-02  0.1054822E+00
         21   -1    0    0  503  502  0.00000000000E+00  0.00000000000E+00  0.40438530488E+03  0.40438530488E+03  0.00000000000E+00 0. -1.
          4   -1    0    0  502    0 -0.00000000000E+00 -0.00000000000E+00 -0.78693354318E+03  0.78693354318E+03  0.00000000000E+00 0. -1.
         25    1    1    2    0    0  0.29842378820E+03  0.25571030211E+02 -0.29638151310E+03  0.43951977914E+03  0.12500000000E+03 0.  0.
         21    1    1    2  503  501 -0.82795915198E+02 -0.16765004324E+03 -0.34106490361E+03  0.38895625595E+03  0.00000000000E+00 0. -1.
          4    1    1    2  501    0 -0.21562787300E+03  0.14207901303E+03  0.25489817841E+03  0.36284281296E+03  0.00000000000E+00 0. -1.
<mgrwt>
<rscale>  4 0.36966199E+03</rscale>
<asrwt>0</asrwt>
<pdfrwt beam="1">  1       21 0.62213124E-01 0.36966199E+03</pdfrwt>
<pdfrwt beam="2">  1        4 0.12106670E+00 0.36966199E+03</pdfrwt>
<totfact> 0.52293223E+01</totfact>
</mgrwt>
</event>
<event>
 5    0  0.1041609E-002  0.2310004E+03  0.7546771E-02  0.1125938E+00
         21   -1    0    0  503  502  0.00000000000E+00  0.00000000000E+00  0.85424711905E+02  0.85424711905E+02  0.00000000000E+00 0.  1.
          1   -1    0    0  502    0 -0.00000000000E+00 -0.00000000000E+00 -0.16105872562E+04  0.16105872562E+04  0.00000000000E+00 0.  1.
         25    1    1    2    0    0 -0.98904731373E+02  0.21959906348E+03 -0.85188349800E+03  0.89405614406E+03  0.12500000000E+03 0.  0.
         21    1    1    2  503  501  0.14932716450E+03 -0.14375464997E+03 -0.11649294125E+03  0.23777007130E+03  0.00000000000E+00 0.  1.
          1    1    1    2  501    0 -0.50422433131E+02 -0.75844413509E+02 -0.55678610500E+03  0.56418575270E+03  0.00000000000E+00 0.  1.
<mgrwt>
<rscale>  4 0.23100045E+03</rscale>
<asrwt>0</asrwt>
<pdfrwt beam="1">  1       21 0.13142264E-01 0.23100045E+03</pdfrwt>
<pdfrwt beam="2">  1        1 0.24778265E+00 0.23100045E+03</pdfrwt>
<totfact> 0.33717883E+03</totfact>
</mgrwt>
</event>
<event>
 5    0  0.1041609E-002  0.3664877E+03  0.7546771E-02  0.1056044E+00
         21   -1    0    0  501  502  0.00000000000E+00  0.00000000000E+00  0.14996710351E+03  0.14996710351E+03  0.00000000000E+00 0. -1.
         -1   -1    0    0    0  501 -0.00000000000E+00 -0.00000000000E+00 -0.15478110825E+04  0.15478110825E+04  0.00000000000E+00 0. -1.
         25    1    1    2    0    0  0.39041395609E+02 -0.29031944586E+03 -0.45208219810E+03  0.55300354887E+03  0.12500000000E+03 0.  0.
         21    1    1    2  503  502 -0.22925789419E+03  0.29805572956E+03 -0.33013755077E+03  0.50038705259E+03  0.00000000000E+00 0. -1.
         -1    1    1    2    0  503  0.19021649858E+03 -0.77362836942E+01 -0.61562423007E+03  0.64438758451E+03  0.00000000000E+00 0. -1.
<mgrwt>
<rscale>  4 0.36648771E+03</rscale>
<asrwt>0</asrwt>
<pdfrwt beam="1">  1       21 0.23071863E-01 0.36648771E+03</pdfrwt>
<pdfrwt beam="2">  1       -1 0.23812477E+00 0.36648771E+03</pdfrwt>
<totfact> 0.14729173E+02</totfact>
</mgrwt>
</event>
<event>
 5    0  0.1041609E-002  0.5110277E+03  0.7546771E-02  0.1010940E+00
          2   -1    0    0  502    0 -0.00000000000E+00  0.00000000000E+00  0.21590659538E+04  0.21590659538E+04  0.00000000000E+00 0. -1.
         21   -1    0    0  503  502  0.00000000000E+00 -0.00000000000E+00 -0.13143099073E+03  0.13143099073E+03  0.00000000000E+00 0. -1.
         25    1    1    2    0    0 -0.48244395424E+03  0.64728943428E+02  0.11657498044E+04  0.12694643010E+04  0.12500000000E+03 0.  0.
         21    1    1    2  503  501  0.11257753705E+02 -0.22761590199E+02  0.23152603097E+03  0.23291442640E+03  0.00000000000E+00 0.  1.
          2    1    1    2  501    0  0.47118620053E+03 -0.41967353229E+02  0.63035912776E+03  0.78811821718E+03  0.00000000000E+00 0. -1.
<mgrwt>
<rscale>  4 0.51102769E+03</rscale>
<asrwt>0</asrwt>
<pdfrwt beam="1">  1       21 0.20220154E-01 0.51102769E+03</pdfrwt>
<pdfrwt beam="2">  1        2 0.33216397E+00 0.51102769E+03</pdfrwt>
<totfact> 0.15907383E+03</totfact>
</mgrwt>
</event>
<event>
 5    0  0.1041609E-002  0.2862390E+03  0.7546771E-02  0.1092329E+00
         -1   -1    0    0    0  501 -0.00000000000E+00  0.00000000000E+00  0.43936826303E+02  0.43936826303E+02  0.00000000000E+00 0. -1.
         21   -1    0    0  501  502  0.00000000000E+00 -0.00000000000E+00 -0.19944913763E+04  0.19944913763E+04  0.00000000000E+00 0. -1.
         25    1    1    2    0    0  0.24818467804E+03 -0.32800780607E+02 -0.99620903882E+03  0.10347603465E+04  0.12500000000E+03 0.  0.
         21    1    1    2  503  502 -0.26878169947E+02  0.67493366021E+02 -0.12476207242E+03  0.14437231449E+03  0.00000000000E+00 0.  1.
         -1    1    1    2    0  503 -0.22130650809E+03 -0.34692585414E+02 -0.82958343872E+03  0.85929554160E+03  0.00000000000E+00 0. -1.
<mgrwt>
<rscale>  4 0.28623902E+03</rscale>
<asrwt>0</asrwt>
<pdfrwt beam="1">  1       21 0.30684476E+00 0.28623902E+03</pdfrwt>
<pdfrwt beam="2">  1       -1 0.67595132E-02 0.28623902E+03</pdfrwt>
<totfact> 0.28645843E+02</totfact>
</mgrwt>
</event>
<event>
 5    0  0.1041609E-002  0.5137156E+03  0.7546771E-02  0.1010260E+00
         21   -1    0    0  503  502  0.00000000000E+00  0.00000000000E+00  0.29198770163E+03  0.29198770163E+03  0.00000000000E+00 0. -1.
          2   -1    0    0  502    0 -0.00000000000E+00 -0.00000000000E+00 -0.10495329082E+04  0.10495329082E+04  0.00000000000E+00 0. -1.
         25    1    1    2    0    0  0.10979447580E+03 -0.39319601558E+03 -0.40124280138E+02  0.42882734455E+03  0.12500000000E+03 0.  0.
         21    1    1    2  503  501 -0.13105022995E+03 -0.34788048321E+02 -0.17964746943E+03  0.22507239802E+03  0.00000000000E+00 0. -1.
          2    1    1    2  501    0  0.21255754153E+02  0.42798406390E+03 -0.53777345699E+03  0.68762086725E+03  0.00000000000E+00 0. -1.
<mgrwt>
<rscale>  4 0.51371561E+03</rscale>
<asrwt>0</asrwt>
<pdfrwt beam="1">  1       21 0.44921185E-01 0.51371561E+03</pdfrwt>
<pdfrwt beam="2">  1        2 0.16146660E+00 0.51371561E+03</pdfrwt>
<totfact> 0.13330326E+03</totfact>
</mgrwt>
</event>
<event>
 5    0  0.1041609E-002  0.5683827E+03  0.7546771E-02  0.9973264E-01
         21   -1    0    0  503  502  0.00000000000E+00  0.00000000000E+00  0.46863080264E+03  0.46863080264E+03  0.00000000000E+00 0.  1.
          1   -1    0    0  502    0 -0.00000000000E+00 -0.00000000000E+00 -0.76175023923E+03  0.76175023923E+03  0.00000000000E+00 0.  1.
         25    1    1    2    0    0 -0.22555779393E+03  0.27650904025E+03 -0.11497009886E+03  0.39519196775E+03  0.12500000000E+03 0.  0.
         21    1    1    2  503  501  0.21344764230E+03  0.18935205836E+03  0.87912874057E+02  0.29856786738E+03  0.00000000000E+00 0.  1.
          1    1    1    2  501    0  0.12110151624E+02 -0.46586109861E+03 -0.26606221179E+03  0.53662120673E+03  0.00000000000E+00 0.  1.
<mgrwt>
<rscale>  4 0.56838273E+03</rscale>
<asrwt>0</asrwt>
<pdfrwt beam="1">  1       21 0.72097047E-01 0.56838273E+03</pdfrwt>
<pdfrwt beam="2">  1        1 0.11719234E+00 0.56838273E+03</pdfrwt>
<totfact> 0.41999088E+02</totfact>
</mgrwt>
</event>
<event>
 5    0  0.1041609E-002  0.5658466E+03  0.7546771E-02  0.9978912E-01
         21   -1    0    0  503  502  0.00000000000E+00  0.00000000000E+00  0.18459025163E+03  0.18459025163E+03  0.00000000000E+00 0.  1.
          2   -1    0    0  502    0 -0.00000000000E+00 -0.00000000000E+00 -0.26280555293E+04  0.26280555293E+04  0.00000000000E+00 0.  1.
         25    1    1    2    0    0  0.10241641486E+03  0.42400502300E+03 -0.68524549125E+03  0.82186115911E+03  0.12500000000E+03 0.  0.
         21    1    1    2  503  501  0.12952595059E+03 -0.37559498389E+02  0.37005504136E+02  0.13984668438E+03  0.00000000000E+00 0.  1.
          2    1    1    2  501    0 -0.23194236546E+03 -0.38644552461E+03 -0.17952252905E+04  0.18509379374E+04  0.00000000000E+00 0.  1.
<mgrwt>
<rscale>  4 0.56584656E+03</rscale>
<asrwt>0</asrwt>
<pdfrwt beam="1">  1       21 0.28398502E-01 0.56584656E+03</pdfrwt>
<pdfrwt beam="2">  1        2 0.40431622E+00 0.56584656E+03</pdfrwt>
<totfact> 0.44461869E+02</totfact>
</mgrwt>
</event>
<event>
 5    0  0.1041609E-002  0.3440305E+03  0.7546771E-02  0.1065092E+00
         21   -1    0    0  503  502  0.00000000000E+00  0.00000000000E+00  0.15433404931E+03  0.15433404931E+03  0.00000000000E+00 0.  1.
          2   -1    0    0  502    0 -0.00000000000E+00 -0.00000000000E+00 -0.81799214738E+03  0.81799214738E+03  0.00000000000E+00 0.  1.
         25    1    1    2    0    0 -0.17499712482E+03 -0.15335664084E+03 -0.21330334701E+03  0.33950783619E+03  0.12500000000E+03 0.  0.
         21    1    1    2  503  501 -0.93479640663E+02 -0.22253888897E+02 -0.23634279703E+02  0.98955838466E+02  0.00000000000E+00 0.  1.
          2    1    1    2  501    0  0.26847676548E+03  0.17561052974E+03 -0.42672047136E+03  0.53386252204E+03  0.00000000000E+00 0.  1.
<mgrwt>
<rscale>  4 0.34403053E+03</rscale>
<asrwt>0</asrwt>
<pdfrwt beam="1">  1       21 0.23743699E-01 0.34403053E+03</pdfrwt>
<pdfrwt beam="2">  1        2 0.12584495E+00 0.34403053E+03</pdfrwt>
<totfact> 0.70139800E+03</totfact>
</mgrwt>
</event>
<event>
 5    0  0.1041609E-002  0.3917956E+03  0.7546771E-02  0.1046658E+00
          1   -1    0    0  502    0 -0.00000000000E+00  0.00000000000E+00  0.58785617644E+03  0.58785617644E+03  0.00000000000E+00 0.  1.
         21   -1    0    0  503  502  0.00000000000E+00 -0.00000000000E+00 -0.30933803043E+03  0.30933803043E+03  0.00000000000E+00 0.  1.
         25    1    1    2    0    0 -0.28086867583E+03 -0.11460553830E+03  0.34999737503E+02  0.32995700341E+03  0.12500000000E+03 0.  0.
         21    1    1    2  503  501 -0.63000455128E+02  0.82495946575E+02 -0.48864856245E+02  0.11472755869E+03  0.00000000000E+00 0.  1.
          1    1    1    2  501    0  0.34386913096E+03  0.32109591724E+02  0.29238326475E+03  0.45250964477E+03  0.00000000000E+00 0.  1.
<mgrwt>
<rscale>  4 0.39179564E+03</rscale>
<asrwt>0</asrwt>
<pdfrwt beam="1">  1       21 0.47590466E-01 0.39179564E+03</pdfrwt>
<pdfrwt beam="2">  1        1 0.90439412E-01 0.39179564E+03</pdfrwt>
<totfact> 0.15869594E+03</totfact>
</mgrwt>
</event>
<event>
 5    0  0.1041609E-002  0.2395105E+03  0.7546771E-02  0.1120119E+00
          2   -1    0    0  502    0 -0.00000000000E+00  0.00000000000E+00  0.16328292376E+04  0.16328292376E+04  0.00000000000E+00 0.  1.
         21   -1    0    0  503  502  0.00000000000E+00 -0.00000000000E+00 -0.49892769250E+02  0.49892769250E+02  0.00000000000E+00 0.  1.
         25    1    1    2    0    0 -0.80446129444E+02 -0.23755270869E+03  0.96225996780E+03  0.10022335630E+04  0.12500000000E+03 0.  0.
         21    1    1    2  503  501 -0.69437324523E+01  0.12771015156E+03  0.39027058568E+03  0.41069359416E+03  0.00000000000E+00 0.  1.
          2    1    1    2  501    0  0.87389861896E+02  0.10984255713E+03  0.23040591484E+03  0.26979484967E+03  0.00000000000E+00 0.  1.
<mgrwt>
<rscale>  4 0.23951049E+03</rscale>
<asrwt>0</asrwt>
<pdfrwt beam="1">  1       21 0.76758119E-02 0.23951049E+03</pdfrwt>
<pdfrwt beam="2">  1        2 0.25120446E+00 0.23951049E+03</pdfrwt>
<totfact> 0.19010827E+04</totfact>
</mgrwt>
</event>
<event>
 5    0  0.1041609E-002  0.4260914E+03  0.7546771E-02  0.1035102E+00
         21   -1    0    0  503  502  0.00000000000E+00  0.00000000000E+00  0.10111800870E+03  0.10111800870E+03  0.00000000000E+00 0.  1.
          2   -1    0    0  502    0 -0.00000000000E+00 -0.00000000000E+00 -0.23920009597E+04  0.23920009597E+04  0.00000000000E+00 0.  1.
         25    1    1    2    0    0  0.20553917629E+03  0.90419608081E+02 -0.14955333465E+04  0.15174541341E+04  0.12500000000E+03 0.  0.
         21    1    1    2  503  501 -0.15268322690E+03  0.67728458721E+02 -0.79143827652E+03  0.80887196603E+03  0.00000000000E+00 0. -1.
          2    1    1    2  501    0 -0.52855949388E+02 -0.15814806680E+03 -0.39113279626E+01  0.16679286827E+03  0.00000000000E+00 0.  1.
<mgrwt>
<rscale>  4 0.42609145E+03</rscale>
<asrwt>0</asrwt>
<pdfrwt beam="1">  1       21 0.15556615E-01 0.42609145E+03</pdfrwt>
<pdfrwt beam="2">  1        2 0.36800018E+00 0.42609145E+03</pdfrwt>
<totfact> 0.19894985E+03</totfact>
</mgrwt>
</event>
<event>
 5    0  0.1041609E-002  0.3453886E+03  0.7546771E-02  0.1064524E+00
         21   -1    0    0  503  502  0.00000000000E+00  0.00000000000E+00  0.61667499699E+03  0.61667499699E+03  0.00000000000E+00 0.  1.
          2   -1    0    0  502    0 -0.00000000000E+00 -0.00000000000E+00 -0.26751120268E+03  0.26751120268E+03  0.00000000000E+00 0.  1.
         25    1    1    2    0    0 -0.91788853127E+02 -0.22382182161E+03  0.22467487357E+03  0.35302294572E+03  0.12500000000E+03 0.  0.
         21    1    1    2  503  501 -0.92063275166E+02  0.97797769015E+02 -0.13407908632E+03  0.18978211625E+03  0.00000000000E+00 0. -1.
          2    1    1    2  501    0  0.18385212829E+03  0.12602405260E+03  0.25856800705E+03  0.34138113771E+03  0.00000000000E+00 0.  1.
<mgrwt>
<rscale>  4 0.34538855E+03</rscale>
<asrwt>0</asrwt>
<pdfrwt beam="1">  1       21 0.94873076E-01 0.34538855E+03</pdfrwt>
<pdfrwt beam="2">  1        2 0.41155570E-01 0.34538855E+03</pdfrwt>
<totfact> 0.13476398E+03</totfact>
</mgrwt>
</event>
<event>
 5    0  0.1041609E-002  0.2543737E+03  0.7546771E-02  0.1110572E+00
         21   -1    0    0  503  502  0.00000000000E+00  0.00000000000E+00  0.38369206372E+03  0.38369206372E+03  0.00000000000E+00 0. -1.
          1   -1    0    0  502    0 -0.00000000000E+00 -0.00000000000E+00 -0.30717607519E+03  0.30717607519E+03  0.00000000000E+00 0. -1.
         25    1    1    2    0    0  0.27795939805E+03 -0.14238889191E+03  0.52117988361E+02  0.34040756193E+03  0.12500000000E+03 0.  0.
         21    1    1    2  503  501 -0.16183863134E+03  0.14774847565E+03  0.62933054290E+02  0.22799544726E+03  0.00000000000E+00 0. -1.
          1    1    1    2  501    0 -0.11612076672E+03 -0.53595837438E+01 -0.38535054124E+02  0.12246512972E+03  0.00000000000E+00 0. -1.
<mgrwt>
<rscale>  4 0.25437370E+03</rscale>
<asrwt>0</asrwt>
<pdfrwt beam="1">  1       21 0.59029548E-01 0.25437370E+03</pdfrwt>
<pdfrwt beam="2">  1        1 0.47257858E-01 0.25437370E+03</pdfrwt>
<totfact> 0.24420922E+03</totfact>
</mgrwt>
</event>
<event>
 5    0  0.1041609E-002  0.4732443E+03  0.7546771E-02  0.1021009E+00
          2   -1    0    0  502    0 -0.00000000000E+00  0.00000000000E+00  0.10871171395E+04  0.10871171395E+04  0.00000000000E+00 0.  1.
         21   -1    0    0  503  502  0.00000000000E+00 -0.00000000000E+00 -0.34155361578E+03  0.34155361578E+03  0.00000000000E+00 0.  1.
         25    1    1    2    0    0  0.49223321427E+02  0.23564331805E+03  0.35340606746E+03  0.44550146715E+03  0.12500000000E+03 0.  0.
         21    1    1    2  503  501 -0.21975761153E+03  0.14279731112E+03  0.49091733690E+03  0.55649286749E+03  0.00000000000E+00 0.  1.
          2    1    1    2  501    0  0.17053429011E+03 -0.37844062917E+03 -0.98759880641E+02  0.42667642064E+03  0.00000000000E+00 0.  1.
<mgrwt>
<rscale>  4 0.47324427E+03</rscale>
<asrwt>0</asrwt>
<pdfrwt beam="1">  1       21 0.52546711E-01 0.47324427E+03</pdfrwt>
<pdfrwt beam="2">  1        2 0.16724879E+00 0.47324427E+03</pdfrwt>
<totfact> 0.91481178E+02</totfact>
</mgrwt>
</event>
<event>
 5    0  0.1041609E-002  0.7077961E+03  0.7546771E-02  0.9703992E-01
         -3   -1    0    0    0  501 -0.00000000000E+00  0.00000000000E+00  0.71059159621E+03  0.71059159621E+03  0.00000000000E+00 0.  1.
         21   -1    0    0  501  502  0.00000000000E+00 -0.00000000000E+00 -0.84600765960E+03  0.84600765960E+03  0.00000000000E+00 0.  1.
         25    1    1    2    0    0  0.49421236087E+03 -0.16710827710E+03 -0.17253825716E+03  0.56352948822E+03  0.12500000000E+03 0.  0.
         21    1    1    2  503  502  0.16751768195E+03  0.54849747771E+02 -0.21328358815E+03  0.27669578524E+03  0.00000000000E+00 0. -1.
         -3    1    1    2    0  503 -0.66173004281E+03  0.11225852933E+03  0.25040578192E+03  0.71637398235E+03  0.00000000000E+00 0.  1.
<mgrwt>
<rscale>  4 0.70779607E+03</rscale>
<asrwt>0</asrwt>
<pdfrwt beam="1">  1       21 0.13015502E+00 0.70779607E+03</pdfrwt>
<pdfrwt beam="2">  1       -3 0.10932178E+00 0.70779607E+03</pdfrwt>
<totfact> 0.13279500E+01</totfact>
</mgrwt>
</event>
<event>
 5    0  0.1041609E-002  0.7805013E+03  0.7546771E-02  0.9588678E-01
          2   -1    0    0  502    0 -0.00000000000E+00  0.00000000000E+00  0.14210495947E+04  0.14210495947E+04  0.00000000000E+00 0.  1.
         21   -1    0    0  503  502  0.00000000000E+00 -0.00000000000E+00 -0.44516349837E+03  0.44516349837E+03  0.00000000000E+00 0.  1.
         25    1    1    2    0    0  0.28740677174E+03 -0.26653582317E+03  0.20051944764E+03  0.45768662462E+03  0.12500000000E+03 0.  0.
         21    1    1    2  503  501  0.24616317968E+03 -0.28700436594E+03  0.11552416913E+03  0.39536521187E+03  0.00000000000E+00 0.  1.
          2    1    1    2  501    0 -0.53356995142E+03  0.55354018912E+03  0.65984247959E+03  0.10131612566E+04  0.00000000000E+00 0.  1.
<mgrwt>
<rscale>  4 0.78050130E+03</rscale>
<asrwt>0</asrwt>
<pdfrwt beam="1">  1       21 0.68486693E-01 0.78050130E+03</pdfrwt>
<pdfrwt beam="2">  1        2 0.21862301E+00 0.78050130E+03</pdfrwt>
<totfact> 0.30587624E+02</totfact>
</mgrwt>
</event>
<event>
 5    0  0.1041609E-002  0.3782512E+03  0.7546771E-02  0.1051582E+00
         -4   -1    0    0    0  501 -0.00000000000E+00  0.00000000000E+00  0.15881322323E+04  0.15881322323E+04  0.00000000000E+00 0.  1.
         21   -1    0    0  501  502  0.00000000000E+00 -0.00000000000E+00 -0.12101009009E+03  0.12101009009E+03  0.00000000000E+00 0.  1.
         25    1    1    2    0    0 -0.56418972717E+02  0.31850737589E+03  0.88087875262E+03  0.94667968490E+03  0.12500000000E+03 0.  0.
         21    1    1    2  503  502  0.12216032722E+03 -0.22612183544E+02  0.36951501301E+03  0.38984073829E+03  0.00000000000E+00 0.  1.
         -4    1    1    2    0  503 -0.65741354507E+02 -0.29589519235E+03  0.21672837659E+03  0.37262189920E+03  0.00000000000E+00 0.  1.
<mgrwt>
<rscale>  4 0.37825118E+03</rscale>
<asrwt>0</asrwt>
<pdfrwt beam="1">  1       21 0.18616938E-01 0.37825118E+03</pdfrwt>
<pdfrwt beam="2">  1       -4 0.24432802E+00 0.37825118E+03</pdfrwt>
<totfact> 0.82756954E+01</totfact>
</mgrwt>
</event>
<event>
 5    0  0.1041609E-002  0.9169784E+03  0.7546771E-02  0.9404603E-01
         21   -1    0    0  503  502  0.00000000000E+00  0.00000000000E+00  0.13487011722E+04  0.13487011722E+04  0.00000000000E+00 0. -1.
          2   -1    0    0  502    0 -0.00000000000E+00 -0.00000000000E+00 -0.89043979089E+03  0.89043979089E+03  0.00000000000E+00 0. -1.
         25    1    1    2    0    0  0.14957531397E+02  0.43405393403E+03  0.31124383711E+03  0.54874791256E+03  0.12500000000E+03 0.  0.
         21    1    1    2  503  501 -0.13723162935E+03  0.45376619821E+03  0.53412566105E+03  0.71416139949E+03  0.00000000000E+00 0. -1.
          2    1    1    2  501    0  0.12227409796E+03 -0.88782013224E+03 -0.38710811689E+03  0.97623165100E+03  0.00000000000E+00 0. -1.
<mgrwt>
<rscale>  4 0.91697839E+03</rscale>
<asrwt>0</asrwt>
<pdfrwt beam="1">  1       21 0.20749249E+00 0.91697839E+03</pdfrwt>
<pdfrwt beam="2">  1        2 0.13699074E+00 0.91697839E+03</pdfrwt>
<totfact> 0.33925825E+01</totfact>
</mgrwt>
</event>
<event>
 5    0  0.1041609E-002  0.2901347E+03  0.7546771E-02  0.1090279E+00
         21   -1    0    0  503  502  0.00000000000E+00  0.00000000000E+00  0.20388233803E+03  0.20388233803E+03  0.00000000000E+00 0.  1.
          4   -1    0    0  502    0 -0.00000000000E+00 -0.00000000000E+00 -0.45128524429E+03  0.45128524429E+03  0.00000000000E+00 0.  1.
         25    1    1    2    0    0  0.26955517198E+03 -0.97565427463E+02 -0.15481004047E+03  0.34895580237E+03  0.12500000000E+03 0.  0.
         21    1    1    2  503  501 -0.75994303184E+02  0.28732328018E+01 -0.17653116205E+02  0.78070622483E+02  0.00000000000E+00 0. -1.
          4    1    1    2  501    0 -0.19356086880E+03  0.94692194662E+02 -0.74939749586E+02  0.22814115746E+03  0.00000000000E+00 0.  1.
<mgrwt>
<rscale>  4 0.29013470E+03</rscale>
<asrwt>0</asrwt>
<pdfrwt beam="1">  1       21 0.31366514E-01 0.29013470E+03</pdfrwt>
<pdfrwt beam="2">  1        4 0.69428498E-01 0.29013470E+03</pdfrwt>
<totfact> 0.79552970E+02</totfact>
</mgrwt>
</event>
<event>
 5    0  0.1041609E-002  0.4009203E+03  0.7546771E-02  0.1043461E+00
         -2   -1    0    0    0  501 -0.00000000000E+00  0.00000000000E+00  0.27045224796E+03  0.27045224796E+03  0.00000000000E+00 0. -1.
         21   -1    0    0  501  502  0.00000000000E+00 -0.00000000000E+00 -0.67009791076E+03  0.67009791076E+03  0.00000000000E+00 0. -1.
         25    1    1    2    0    0  0.18561118122E+03 -0.78686968562E+02 -0.38079495764E+02  0.24024611883E+03  0.12500000000E+03 0.  0.
         21    1    1    2  503  502  0.10725921654E+03  0.18880293622E+03 -0.31702769664E+03  0.38426247370E+03  0.00000000000E+00 0. -1.
         -2    1    1    2    0  503 -0.29287039776E+03 -0.11011596765E+03 -0.44538470404E+02  0.31604156619E+03  0.00000000000E+00 0. -1.
<mgrwt>
<rscale>  4 0.40092028E+03</rscale>
<asrwt>0</asrwt>
<pdfrwt beam="1">  1       21 0.10309199E+00 0.40092028E+03</pdfrwt>
<pdfrwt beam="2">  1       -2 0.41608038E-01 0.40092028E+03</pdfrwt>
<totfact> 0.31526099E+02</totfact>
</mgrwt>
</event>
