<LesHouchesEvents version="3.0">
  <!--
  <scalesfunctionalform>
    muR  H_T/2 := sum_i mT(i)/2, i=final state
    muF1 H_T/2 := sum_i mT(i)/2, i=final state
    muF2 H_T/2 := sum_i mT(i)/2, i=final state
    QES  H_T/2 := sum_i mT(i)/2, i=final state
  </scalesfunctionalform>
HERWIG6   
  -->
  <header>
       39
  </header>
  <init>
   2212   2212 0.65000000D+04 0.65000000D+04 -1 -1   244800   244800 -4   1
 0.63752621D-04 0.22378085D-05 0.18842058D-05     66
  </init>
  <event>
  7     66 0.18842058E-05 0.27465395E+02 0.75467711E-02 0.93322688E-01
        2 -1    0    0  501    0 0.00000000E+00 0.00000000E+00 0.10002920E+04 0.10002921E+04 0.32000000E+00 0.0000E+00 0.9000E+01
       -2 -1    0    0    0  503 0.00000000E+00 0.00000000E+00 -.61756453E+03 0.61756462E+03 0.32000000E+00 0.0000E+00 0.9000E+01
       23  2    1    2    0    0 -.25749894E+03 0.46806781E+03 0.73596447E+03 0.91370548E+03 0.88435368E+02 0.0000E+00 0.0000E+00
       25  1    1    2    0    0 0.24542684E+03 -.48746914E+03 -.27721716E+03 0.62476784E+03 0.12500000E+03 0.0000E+00 0.9000E+01
        3  1    3    3  502    0 -.65886857E+02 0.56269146E+02 0.13494950E+03 0.16037117E+03 0.50000000E+00 0.0000E+00 0.9000E+01
       -3  1    3    3    0  502 -.19161208E+03 0.41179866E+03 0.60101498E+03 0.75333431E+03 0.50000000E+00 0.0000E+00 0.9000E+01
       21  1    1    2  501  503 0.12072103E+02 0.19401334E+02 -.76019809E+02 0.79383381E+02 0.75000000E+00 0.0000E+00 0.9000E+01
#aMCatNLO 2  0  0  0  0 0.00000000D+00 0.00000000D+00  -5  6  0 0.00000000D+00 0.00000000D+00 0.00000000D+00 0.00000000D+00 0.00000000D+00
  <mgrwgt>
 0.3429635894D-03    1    2    0
 0.734154089667382D+03 0.000000000000000D+00 0.000000000000000D+00 0.734154089667382D+03
 0.734154089667382D+03 0.000000000000000D+00 0.000000000000000D+00 -.734154089667382D+03
 0.736811633180584D+03 0.251502185732566D+03 -.477705323213313D+03 -.485603395309016D+03
 0.126058581249777D+03 -.648473663527919D+02 0.579219076583074D+02 0.912723265674540D+02
 0.605437964904404D+03 -.186654819379774D+03 0.419783415555006D+03 0.394331068741562D+03
 0.000000000000000D+00 0.000000000000000D+00 0.000000000000000D+00 -.000000000000000D+00
 0.735478232259545D+03 0.000000000000000D+00 0.000000000000000D+00 0.735478232259545D+03
 0.839919873996611D+03 0.000000000000000D+00 0.000000000000000D+00 -.839919873996611D+03
 0.741145166056375D+03 0.245426837908384D+03 -.487469144528531D+03 -.485603395309016D+03
 0.125841661101785D+03 -.658828374775715D+02 0.562577798862030D+02 0.912723265674540D+02
 0.601499147210467D+03 -.191616102931363D+03 0.411810030739240D+03 0.394331068741562D+03
 0.106912131887529D+03 0.120721025005503D+02 0.194013339030886D+02 -.104441641737066D+03
0.978363067663D-04 0.000000000000D+00 0.000000000000D+00 0.261529179050D-05 0.316830219141D-07  6 2 -2 25 3 -3 21 2 0.15389082D+00 0.95009769D-01 0.31561349D+06 0.31561349D+06 0.31561349D+06 0.10829254D+01  1  2  1  2  6  2       -2 0.342963589439D-03 0.100000000000D+01
  </mgrwgt>
  </event>
  <event>
  7     66 0.18842058E-05 0.74074432E+02 0.75467711E-02 0.95087739E-01
        2 -1    0    0  501    0 0.00000000E+00 0.00000000E+00 0.12825467E+04 0.12825467E+04 0.32000000E+00 0.0000E+00 0.9000E+01
       -2 -1    0    0    0  503 0.00000000E+00 0.00000000E+00 -.25293634E+03 0.25293654E+03 0.32000000E+00 0.0000E+00 0.9000E+01
       23  2    1    2    0    0 0.30295413E+03 -.32916770E+03 0.56560211E+03 0.72692761E+03 0.91571984E+02 0.0000E+00 0.0000E+00
       25  1    1    2    0    0 -.33255977E+03 0.32754522E+03 0.54139329E+03 0.72568145E+03 0.12500000E+03 0.0000E+00 0.9000E+01
        3  1    3    3  502    0 0.15680032E+03 -.16660908E+03 0.21623166E+03 0.31480360E+03 0.50000000E+00 0.0000E+00 0.9000E+01
       -3  1    3    3    0  502 0.14615382E+03 -.16255862E+03 0.34937045E+03 0.41212402E+03 0.50000000E+00 0.0000E+00 0.9000E+01
       21  1    1    2  501  503 0.29605638E+02 0.16224845E+01 -.77385044E+02 0.82874205E+02 0.75000000E+00 0.0000E+00 0.9000E+01
#aMCatNLO 2  0  0  0  0 0.00000000D+00 0.00000000D+00  -5  6  0 0.00000000D+00 0.00000000D+00 0.00000000D+00 0.00000000D+00 0.00000000D+00
  <mgrwgt>
 0.7657968832D-03    1    2    0
 0.470041261783485D+03 0.000000000000000D+00 0.000000000000000D+00 0.470041261783485D+03
 0.470041261783485D+03 0.000000000000000D+00 0.000000000000000D+00 -.470041261783485D+03
 0.473891759827524D+03 -.317487212377329D+03 0.328371241396656D+03 -.179610086832602D+02
 0.236459186676911D+03 0.164170471569304D+03 -.166205310734488D+03 -.365622470900116D+02
 0.229731577062535D+03 0.153316740808025D+03 -.162165930662168D+03 0.545232557732718D+02
 0.000000000000000D+00 0.000000000000000D+00 0.000000000000000D+00 -.000000000000000D+00
 0.471282873860543D+03 0.000000000000000D+00 0.000000000000000D+00 0.471282873860543D+03
 0.688338111781545D+03 0.000000000000000D+00 0.000000000000000D+00 -.688338111781545D+03
 0.483559167810541D+03 -.332559772214931D+03 0.327545216489351D+03 -.179610086832602D+02
 0.231693466607471D+03 0.156800632890294D+03 -.166609201671214D+03 -.365622470900116D+02
 0.225297352240257D+03 0.146153500826968D+03 -.162558499323703D+03 0.545232557732718D+02
 0.219070998983819D+03 0.296056384976689D+02 0.162248450556603D+01 -.217055237921003D+03
0.479319085663D-04 0.000000000000D+00 0.000000000000D+00 0.334949124993D-04 0.260745847638D-06  6 2 -2 25 3 -3 21 2 0.19731463D+00 0.38913248D-01 0.23052786D+06 0.23052786D+06 0.23052786D+06 0.10931184D+01  1  2  1  2  6  2       -2 0.765796883211D-03 0.100000000000D+01
  </mgrwgt>
  </event>
  <event>
  7     66 0.18842058E-05 0.74246217E+02 0.75467711E-02 0.94482024E-01
        2 -1    0    0  503    0 0.00000000E+00 0.00000000E+00 0.10784423E+04 0.10784423E+04 0.32000000E+00 0.0000E+00 0.9000E+01
       -2 -1    0    0    0  501 0.00000000E+00 0.00000000E+00 -.35621002E+03 0.35621016E+03 0.32000000E+00 0.0000E+00 0.9000E+01
       23  2    1    2    0    0 -.13002611E+03 -.46471893E+03 0.14082480E+03 0.51107434E+03 0.92167699E+02 0.0000E+00 0.0000E+00
       25  1    1    2    0    0 0.12409034E+03 0.48133284E+03 0.21348177E+03 0.55522894E+03 0.12500000E+03 0.0000E+00 0.9000E+01
        3  1    3    3  502    0 -.72812067E+02 -.25463092E+03 0.12473298E+03 0.29274062E+03 0.50000000E+00 0.0000E+00 0.9000E+01
       -3  1    3    3    0  502 -.57214040E+02 -.21008801E+03 0.16091823E+02 0.21833373E+03 0.50000000E+00 0.0000E+00 0.9000E+01
       21  1    1    2  503  501 0.59357705E+01 -.16613909E+02 0.36792567E+03 0.36834918E+03 0.75000000E+00 0.0000E+00 0.9000E+01
#aMCatNLO 2  0  0  0  0 0.00000000D+00 0.00000000D+00  -5  6  0 0.00000000D+00 0.00000000D+00 0.00000000D+00 0.00000000D+00 0.00000000D+00
  <mgrwgt>
 0.8185417473D-03    1    2    0
 0.502781836171480D+03 0.000000000000000D+00 0.000000000000000D+00 0.502781836171480D+03
 0.502781836171480D+03 0.000000000000000D+00 0.000000000000000D+00 -.502781836171480D+03
 0.506327168819938D+03 0.127099995138943D+03 0.472908966500058D+03 0.307392668217956D+02
 0.270252413212334D+03 -.712286368716856D+02 -.259065454868115D+03 0.291193789505915D+02
 0.228984090310688D+03 -.558713582672574D+02 -.213843511631943D+03 -.598586457723871D+02
 0.000000000000000D+00 0.000000000000000D+00 -.000000000000000D+00 0.000000000000000D+00
 0.763480686662905D+03 0.000000000000000D+00 0.000000000000000D+00 0.763480686662905D+03
 0.503157783831916D+03 0.000000000000000D+00 0.000000000000000D+00 -.503157783831916D+03
 0.513468224910972D+03 0.124090337042464D+03 0.481332840892008D+03 0.307392668217956D+02
 0.266434186381245D+03 -.728125263260491D+02 -.254632231762175D+03 0.291193789505915D+02
 0.225816015742320D+03 -.572135812561792D+02 -.210086700226060D+03 -.598586457723871D+02
 0.260920043460284D+03 0.593577053976478D+01 -.166139089037731D+02 0.260322902830989D+03
0.765659863285D-04 0.000000000000D+00 0.000000000000D+00 0.361476707507D-04 0.800953775097D-06  6 2 -2 25 3 -3 21 2 0.16591403D+00 0.54801497D-01 0.25642364D+06 0.25642364D+06 0.25642364D+06 0.10896312D+01  1  2  1  1  6  1        2 0.818541747341D-03 0.100000000000D+01
  </mgrwgt>
  </event>
  <event>
  7     66 0.18842058E-05 0.68957354E+02 0.75467711E-02 0.95456333E-01
        2 -1    0    0  501    0 0.00000000E+00 0.00000000E+00 0.20658355E+04 0.20658355E+04 0.32000000E+00 0.0000E+00 0.9000E+01
       21 -1    0    0  503  501 0.00000000E+00 0.00000000E+00 -.16506652E+03 0.16506822E+03 0.75000000E+00 0.0000E+00 0.9000E+01
       23  2    1    2    0    0 0.19720243E+03 0.37469286E+03 0.88824049E+03 0.98800651E+03 0.88893986E+02 0.0000E+00 0.0000E+00
       25  1    1    2    0    0 -.21461496E+03 -.40293237E+03 0.10736477E+04 0.11733535E+04 0.12500000E+03 0.0000E+00 0.9000E+01
        3  1    3    3  502    0 0.10456799E+03 0.19167847E+03 0.55857834E+03 0.59973754E+03 0.50000000E+00 0.0000E+00 0.9000E+01
        2  1    1    2  503    0 0.17412527E+02 0.28239514E+02 -.61119226E+02 0.69543716E+02 0.32000000E+00 0.0000E+00 0.9000E+01
       -3  1    3    3    0  502 0.92634445E+02 0.18301438E+03 0.32966215E+03 0.38826896E+03 0.50000000E+00 0.0000E+00 0.9000E+01
#aMCatNLO 2  0  0  0  0 0.00000000D+00 0.00000000D+00  -5  6  0 0.00000000D+00 0.00000000D+00 0.00000000D+00 0.00000000D+00 0.00000000D+00
  <mgrwgt>
 0.1269563672D-02    1    2    0
 0.453147647503739D+03 0.000000000000000D+00 0.000000000000000D+00 0.453147647503739D+03
 0.453147647503739D+03 0.000000000000000D+00 0.000000000000000D+00 -.453147647503739D+03
 0.457408322470649D+03 -.205672660158779D+03 -.388429810563211D+03 0.204551361387045D+02
 0.229080353826347D+03 0.108890111180964D+03 0.198687723695438D+03 0.338221916635638D+02
 0.000000000000000D+00 0.000000000000000D+00 0.000000000000000D+00 -.000000000000000D+00
 0.219806618710483D+03 0.967825489778156D+02 0.189742086867773D+03 -.542773278022683D+02
 0.454377554044604D+03 0.000000000000000D+00 0.000000000000000D+00 0.454377554044604D+03
 0.750481765621483D+03 0.000000000000000D+00 0.000000000000000D+00 -.750481765621483D+03
 0.473769447543365D+03 -.214614960752706D+03 -.402932370816997D+03 0.204551361387045D+02
 0.220950731989506D+03 0.104568365778992D+03 0.191678747377175D+03 0.338221916635638D+02
 0.297956994160149D+03 0.174125271037983D+02 0.282395140759460D+02 -.296104211576878D+03
 0.212182145973067D+03 0.926340678699159D+02 0.183014109363877D+03 -.542773278022683D+02
0.820671511344D-05 0.000000000000D+00 0.000000000000D+00 0.137719553403D-04 0.512063066656D-08  6 2 21 25 3 2 -3 2 0.31782092D+00 0.25394977D-01 0.21621251D+06 0.21621251D+06 0.21621251D+06 0.10952350D+01  1  2  1  6  5  2       -2 0.126956367207D-02 0.100000000000D+01
  </mgrwgt>
  </event>
  <event>
  7     66 0.18842058E-05 0.49160189E+02 0.75467711E-02 0.92061414E-01
        2 -1    0    0  501    0 0.00000000E+00 0.00000000E+00 0.13533489E+04 0.13533489E+04 0.32000000E+00 0.0000E+00 0.9000E+01
       -2 -1    0    0    0  503 0.00000000E+00 0.00000000E+00 -.41403019E+03 0.41403031E+03 0.32000000E+00 0.0000E+00 0.9000E+01
       23  2    1    2    0    0 0.41037578E+03 0.44815949E+03 0.10367540E+03 0.62311348E+03 0.90920900E+02 0.0000E+00 0.0000E+00
       25  1    1    2    0    0 -.43132659E+03 -.43873461E+03 0.88774927E+03 0.10873152E+04 0.12500000E+03 0.0000E+00 0.9000E+01
        3  1    3    3  502    0 0.26319302E+03 0.33093188E+03 0.10192182E+03 0.43494228E+03 0.50000000E+00 0.0000E+00 0.9000E+01
       -3  1    3    3    0  502 0.14718276E+03 0.11722761E+03 0.17535859E+01 0.18817121E+03 0.50000000E+00 0.0000E+00 0.9000E+01
       21  1    1    2  501  503 0.20950806E+02 -.94248848E+01 -.52105975E+02 0.56950503E+02 0.75000000E+00 0.0000E+00 0.9000E+01
#aMCatNLO 2  0  0  0  0 0.00000000D+00 0.00000000D+00  -5  6  0 0.00000000D+00 0.00000000D+00 0.00000000D+00 0.00000000D+00 0.00000000D+00
  <mgrwgt>
 0.2681230155D-03    1    2    0
 0.696799071925524D+03 0.000000000000000D+00 0.000000000000000D+00 0.696799071925524D+03
 0.696799071925524D+03 0.000000000000000D+00 0.000000000000000D+00 -.696799071925524D+03
 0.699439140725086D+03 -.420786489038559D+03 -.443476153169389D+03 0.316002759150818D+03
 0.463042268193209D+03 0.270143861742302D+03 0.327813034091112D+03 -.184306947173588D+03
 0.231116734932754D+03 0.150642627296257D+03 0.115663119078277D+03 -.131695811977231D+03
 0.000000000000000D+00 0.000000000000000D+00 -.000000000000000D+00 -.000000000000000D+00
 0.698141987262140D+03 0.000000000000000D+00 0.000000000000000D+00 0.698141987262140D+03
 0.802595082430134D+03 0.000000000000000D+00 0.000000000000000D+00 -.802595082430134D+03
 0.702860885095909D+03 -.431326586456034D+03 -.438734607505563D+03 0.316002759150818D+03
 0.461260937615471D+03 0.263196528323547D+03 0.330938346632553D+03 -.184306947173588D+03
 0.229665661548363D+03 0.147179251943093D+03 0.117221145701519D+03 -.131695811977231D+03
 0.106949585432531D+03 0.209508061893941D+02 -.942488482850943D+01 -.104453095167994D+03
0.515973082534D-04 0.000000000000D+00 0.000000000000D+00 0.354774735311D-04 0.418712301616D-06  6 2 -2 25 3 -3 21 2 0.20820714D+00 0.63696844D-01 0.39802576D+06 0.39802576D+06 0.39802576D+06 0.10755826D+01  1  2  1  2  6  2       -2 0.268123015531D-03 0.100000000000D+01
  </mgrwgt>
  </event>
  <event>
  7     66 0.18842058E-05 0.50123815E+02 0.75467711E-02 0.94818671E-01
        2 -1    0    0  501    0 0.00000000E+00 0.00000000E+00 0.24619801E+03 0.24619822E+03 0.32000000E+00 0.0000E+00 0.9000E+01
       -2 -1    0    0    0  501 -.00000000E+00 -.00000000E+00 -.12806530E+04 0.12806530E+04 0.32000000E+00 0.0000E+00 0.9000E+01
       23  2    1    2    0    0 0.47661754E+03 0.70928318E+02 -.15161485E+03 0.51332927E+03 0.91240158E+02 0.0000E+00 0.0000E+00
       25  1    1    2    0    0 -.47661754E+03 -.70928318E+02 -.88284013E+03 0.10135220E+04 0.12500000E+03 0.0000E+00 0.9000E+01
        3  1    3    3  502    0 0.17284649E+03 0.39396132E+02 -.22103780E+02 0.17865271E+03 0.50000000E+00 0.0000E+00 0.9000E+01
       -3  1    3    3    0  503 0.29330794E+03 0.37979896E+02 -.12801342E+03 0.32227272E+03 0.50000000E+00 0.0000E+00 0.9000E+01
       21  1    3    3  503  502 0.10463110E+02 -.64477105E+01 -.14976487E+01 0.12403834E+02 0.75000000E+00 0.0000E+00 0.9000E+01
#aMCatNLO 2  0  0  5  4 0.10844289D+02 0.00000000D+00  -5  6  0 0.00000000D+00 0.00000000D+00 0.00000000D+00 0.00000000D+00 0.00000000D+00
  <mgrwgt>
 0.5173869078D-01    1    2    0
 0.561510824593328D+03 0.000000000000000D+00 0.000000000000000D+00 0.561510824593328D+03
 0.561510824593328D+03 -.000000000000000D+00 -.000000000000000D+00 -.561510824593328D+03
 0.566196753546189D+03 -.477968662677092D+03 -.710685678353119D+02 -.267299419922216D+03
 0.222023964015583D+03 0.172353274008848D+03 0.393515100770141D+02 0.134314735566440D+03
 0.334800931624885D+03 0.305615388668244D+03 0.317170577582978D+02 0.132984684355776D+03
 0.000000000000000D+00 0.000000000000000D+00 0.000000000000000D+00 0.000000000000000D+00
 0.561510824593328D+03 0.000000000000000D+00 0.000000000000000D+00 0.561510824593328D+03
 0.561510824593328D+03 -.000000000000000D+00 -.000000000000000D+00 -.561510824593328D+03
 0.564757763325698D+03 -.476614372950825D+03 -.709280183503639D+02 -.266710117817506D+03
 0.222587261157837D+03 0.172885684822415D+03 0.394067641811960D+02 0.134546407421376D+03
 0.320237393106218D+03 0.293313442758384D+03 0.379939257689901D+02 0.122783035657825D+03
 0.154392315969042D+02 0.104152453700252D+02 -.647267159982217D+01 0.938067473830481D+01
0.196285448789D-01 0.000000000000D+00 0.000000000000D+00 0.192803407094D-06 0.588518864859D-06  6 2 -2 25 3 -3 21 2 0.37876636D-01 0.19702356D+00 0.24165030D+06 0.24165030D+06 0.24165030D+06 0.10915707D+01  1  2  1  4  6  5       -3 0.517386907767D-01 0.100000000000D+01
  </mgrwgt>
  </event>
  <event>
  7     66 0.18842058E-05 0.70917564E+02 0.75467711E-02 0.95068646E-01
        2 -1    0    0  501    0 0.00000000E+00 0.00000000E+00 0.77773577E+03 0.77773583E+03 0.32000000E+00 0.0000E+00 0.9000E+01
       -2 -1    0    0    0  503 0.00000000E+00 0.00000000E+00 -.35853778E+03 0.35853792E+03 0.32000000E+00 0.0000E+00 0.9000E+01
       23  2    1    2    0    0 0.28403887E+03 -.35193583E+03 0.34584765E+03 0.57651100E+03 0.90650010E+02 0.0000E+00 0.0000E+00
       25  1    1    2    0    0 -.29695332E+03 0.36363199E+03 0.12798773E+03 0.50240955E+03 0.12500000E+03 0.0000E+00 0.9000E+01
        3  1    3    3  502    0 0.93467417E+02 -.17582945E+03 0.18096652E+03 0.26907487E+03 0.50000000E+00 0.0000E+00 0.9000E+01
       -3  1    3    3    0  502 0.19057146E+03 -.17610638E+03 0.16488113E+03 0.30743613E+03 0.50000000E+00 0.0000E+00 0.9000E+01
       21  1    1    2  501  503 0.12914443E+02 -.11696163E+02 -.54637389E+02 0.57353202E+02 0.75000000E+00 0.0000E+00 0.9000E+01
#aMCatNLO 2  0  0  2  1 0.38865944D+01 0.00000000D+00  -5  6  0 0.00000000D+00 0.00000000D+00 0.00000000D+00 0.00000000D+00 0.00000000D+00
  <mgrwgt>
 0.5684472860D-03    1    2    0
 0.484573524297981D+03 0.000000000000000D+00 0.000000000000000D+00 0.484573524297981D+03
 0.484573524297981D+03 0.000000000000000D+00 0.000000000000000D+00 -.484573524297981D+03
 0.488395222825262D+03 -.290390629611251D+03 0.357688393301181D+03 -.103136750046424D+03
 0.214440260678649D+03 0.962991102637736D+02 -.178396683731231D+03 0.698979970816869D+02
 0.266311565092052D+03 0.194091519347478D+03 -.179291709569949D+03 0.332387529647367D+02
 0.000000000000000D+00 0.000000000000000D+00 -.000000000000000D+00 -.000000000000000D+00
 0.485497949100919D+03 0.000000000000000D+00 0.000000000000000D+00 0.485497949100919D+03
 0.574350499948084D+03 0.000000000000000D+00 0.000000000000000D+00 -.574350499948084D+03
 0.496660535278520D+03 -.296953317367822D+03 0.363631991713123D+03 -.103136750046424D+03
 0.211038689862123D+03 0.934644631116491D+02 -.175829442238611D+03 0.698979970816869D+02
 0.261604434644586D+03 0.190574410961005D+03 -.176106386635831D+03 0.332387529647367D+02
 0.905447892637733D+02 0.129144432951683D+02 -.116961628386818D+02 -.888525508471649D+02
0.341442511055D-04 0.000000000000D+00 0.000000000000D+00 0.427381481145D-04 0.910979158858D-06  6 2 -2 25 3 -3 21 2 0.11965129D+00 0.55159498D-01 0.23129788D+06 0.23129788D+06 0.23129788D+06 0.10930086D+01  1  2  1  2  6  2       -2 0.568447285963D-03 0.100000000000D+01
  </mgrwgt>
  </event>
  <event>
  6     66 -.18842058E-05 0.25168058E+02 0.75467711E-02 0.95125634E-01
        2 -1    0    0  501    0 0.00000000E+00 0.00000000E+00 0.11513200E+04 0.11513200E+04 0.32000000E+00 0.0000E+00 0.9000E+01
       -2 -1    0    0    0  501 0.00000000E+00 0.00000000E+00 -.23172257E+03 0.23172279E+03 0.32000000E+00 0.0000E+00 0.9000E+01
       23  2    1    2    0    0 -.12651229E+03 -.45325888E+03 0.21200229E+03 0.52411045E+03 0.91092377E+02 0.0000E+00 0.0000E+00
       25  1    1    2    0    0 0.12651229E+03 0.45325888E+03 0.70759511E+03 0.85893237E+03 0.12500000E+03 0.0000E+00 0.9000E+01
        3  1    3    3  502    0 -.12010493E+03 -.41912590E+03 0.16613334E+03 0.46657502E+03 0.50000000E+00 0.0000E+00 0.9000E+01
       -3  1    3    3    0  502 -.64073568E+01 -.34132976E+02 0.45868953E+02 0.57535425E+02 0.50000000E+00 0.0000E+00 0.9000E+01
#aMCatNLO 1  0  0  5  4 0.32034761D+01 0.00000000D+00  -5  6  0 0.00000000D+00 0.00000000D+00 0.00000000D+00 0.00000000D+00 0.00000000D+00
  <mgrwgt>
 -.1182672523D-02    8    2    0
 0.516514288892304D+03 0.000000000000000D+00 0.000000000000000D+00 0.516514288892304D+03
 0.516514288892304D+03 -.000000000000000D+00 -.000000000000000D+00 -.516514288892304D+03
 0.520060744010689D+03 0.126512288624601D+03 0.453258876542903D+03 0.182727143914042D+03
 0.476783672847732D+03 -.120108357659029D+03 -.419137501125940D+03 -.192925913926892D+03
 0.361841609261861D+02 -.640393096557148D+01 -.341213754169627D+02 0.101987700128508D+02
 0.000000000000000D+00 0.000000000000000D+00 -.000000000000000D+00 0.000000000000000D+00
 0.516514288892304D+03 0.000000000000000D+00 0.000000000000000D+00 0.516514288892304D+03
 0.516514288892304D+03 -.000000000000000D+00 -.000000000000000D+00 -.516514288892304D+03
 0.519709244964052D+03 0.126431044474130D+03 0.452825992089034D+03 0.182856531693204D+03
 0.477103610176957D+03 -.120182891222006D+03 -.419534630279449D+03 -.192807213292685D+03
 0.288523072124701D+02 -.686143439667684D+01 -.259755612304669D+02 0.105188672519961D+02
 0.736341543113006D+01 0.613281144552764D+00 -.731580057911754D+01 -.568185652514966D+00
0.140800249779D-05 0.000000000000D+00 0.000000000000D+00 0.816105562796D-05 0.000000000000D+00  6 2 -2 25 3 -3 21 0 0.17712617D+00 0.35649647D-01 0.22926224D+06 0.22926224D+06 0.22926224D+06 0.10932996D+01  1  2  2  4  6  5       -3 0.263361586217D-04 0.100000000000D+01
0.363150505242D-06 0.000000000000D+00 -.540710032707D-08 0.816105562796D-05 0.000000000000D+00  6 2 -2 25 3 -3 21 2 0.17712617D+00 0.35649647D-01 0.22926224D+06 0.22926224D+06 0.22926224D+06 0.10932996D+01  1  2  3  4  6  5       -3 0.811921537187D-05 0.100000000000D+01
-.365507253129D-06 0.000000000000D+00 0.000000000000D+00 0.816105562796D-05 0.000000000000D+00  6 2 -2 25 3 -3 21 2 0.17712617D+00 0.35649647D-01 0.22926224D+06 0.22926224D+06 0.22926224D+06 0.10932996D+01  1  2 15  4  6  5       -3 -.817190686863D-05 0.100000000000D+01
0.127017522792D-07 0.000000000000D+00 0.000000000000D+00 0.816105562796D-05 0.000000000000D+00  6 2 -2 25 3 -3 21 2 0.17712617D+00 0.35649647D-01 0.22900809D+06 0.22900809D+06 0.22900809D+06 0.10933362D+01  1  2 12  4  6  5       -3 0.284009857706D-06 0.100000000000D+01
-.733012013190D-04 0.000000000000D+00 0.000000000000D+00 0.816105562796D-05 0.000000000000D+00  6 2 -2 25 3 -3 21 2 0.17712617D+00 0.35649647D-01 0.22926224D+06 0.22926224D+06 0.22926224D+06 0.10932996D+01  1  2  4  4  6  5       -3 -.163884734272D-02 0.100000000000D+01
-.183872948388D-04 0.000000000000D+00 0.000000000000D+00 0.816105562796D-05 0.000000000000D+00  6 2 -2 25 3 -3 21 2 0.17712617D+00 0.35649647D-01 0.22926224D+06 0.22926224D+06 0.22926224D+06 0.10932996D+01  1  2  5  4  6  5       -3 -.411097891224D-03 0.100000000000D+01
0.314989164323D-04 0.000000000000D+00 -.000000000000D+00 0.816105562796D-05 0.000000000000D+00  6 2 -2 25 3 -3 21 2 0.17712617D+00 0.35649647D-01 0.22926224D+06 0.22926224D+06 0.22926224D+06 0.10932996D+01  1  2  6  4  6  5       -3 0.704243785435D-03 0.100000000000D+01
0.610295547265D-05 0.000000000000D+00 0.000000000000D+00 0.816105562796D-05 0.111529111753D-05  6 2 -2 25 3 -3 21 2 0.17712617D+00 0.35649647D-01 0.22900809D+06 0.22900809D+06 0.22900809D+06 0.10933362D+01  1  2 11  4  6  5       -3 0.136461448568D-03 0.100000000000D+01
  </mgrwgt>
  </event>
  <event>
  7     66 0.18842058E-05 0.24775826E+02 0.75467711E-02 0.92263326E-01
        2 -1    0    0  501    0 0.00000000E+00 0.00000000E+00 0.85693647E+03 0.85693653E+03 0.32000000E+00 0.0000E+00 0.9000E+01
       -2 -1    0    0    0  503 0.00000000E+00 0.00000000E+00 -.10293042E+04 0.10293043E+04 0.32000000E+00 0.0000E+00 0.9000E+01
       23  2    1    2    0    0 -.52680073E+03 -.22051350E+03 0.38410445E+03 0.69431902E+03 0.91637703E+02 0.0000E+00 0.0000E+00
       25  1    1    2    0    0 0.56845478E+03 0.22068811E+03 0.11349689E+02 0.62257360E+03 0.12500000E+03 0.0000E+00 0.9000E+01
        3  1    3    3  502    0 -.53556079E+02 -.43189816E+02 0.75600429E+02 0.10222176E+03 0.50000000E+00 0.0000E+00 0.9000E+01
       -3  1    3    3    0  502 -.47324465E+03 -.17732368E+03 0.30850402E+03 0.59209726E+03 0.50000000E+00 0.0000E+00 0.9000E+01
       21  1    1    2  501  503 -.41654048E+02 -.17461041E+00 -.56782188E+03 0.56934817E+03 0.75000000E+00 0.0000E+00 0.9000E+01
#aMCatNLO 2  0  0  2  1 0.38865944D+01 0.00000000D+00  -5  6  0 0.00000000D+00 0.00000000D+00 0.00000000D+00 0.00000000D+00 0.00000000D+00
  <mgrwgt>
 0.1029387336D-03    1    2    0
 0.627711541699979D+03 0.000000000000000D+00 0.000000000000000D+00 0.627711541699979D+03
 0.627711541699979D+03 0.000000000000000D+00 0.000000000000000D+00 -.627711541699979D+03
 0.630590065918422D+03 0.547230605275343D+03 0.220599137319407D+03 -.184101918781187D+03
 0.851824107142945D+02 -.563387732216078D+02 -.431975399701831D+02 0.470739659207450D+02
 0.539650606767242D+03 -.490891832053735D+03 -.177401597349224D+03 0.137027952860442D+03
 0.000000000000000D+00 -.000000000000000D+00 -.000000000000000D+00 -.000000000000000D+00
 0.628616599798070D+03 0.000000000000000D+00 0.000000000000000D+00 0.628616599798070D+03
 0.140315720724952D+04 0.000000000000000D+00 0.000000000000000D+00 -.140315720724952D+04
 0.649124479406292D+03 0.568454776167357D+03 0.220688107332714D+03 -.184101918781187D+03
 0.833539971474055D+02 -.535435830481029D+02 -.431858227583214D+02 0.470739659207450D+02
 0.523635454790850D+03 -.473257145349538D+03 -.177327674164252D+03 0.137027952860442D+03
 0.775659875703044D+03 -.416540477697163D+02 -.174610410139966D+00 -.774540607451452D+03
0.908590987255D-04 0.000000000000D+00 0.000000000000D+00 0.206753374949D-04 0.100515148685D-06  6 2 -2 25 3 -3 21 2 0.13183635D+00 0.15835446D+00 0.38334795D+06 0.38334795D+06 0.38334795D+06 0.10767614D+01  1  2  1  2  6  2       -2 0.102938733552D-03 0.100000000000D+01
  </mgrwgt>
  </event>
  <event>
  7     66 0.18842058E-05 0.70811563E+02 0.75467711E-02 0.95399736E-01
        2 -1    0    0  503    0 0.00000000E+00 0.00000000E+00 0.12850841E+04 0.12850841E+04 0.32000000E+00 0.0000E+00 0.9000E+01
       -2 -1    0    0    0  501 0.00000000E+00 0.00000000E+00 -.19481642E+03 0.19481668E+03 0.32000000E+00 0.0000E+00 0.9000E+01
       23  2    1    2    0    0 -.14906093E+03 -.42693415E+03 0.57775146E+03 0.73949013E+03 0.92503890E+02 0.0000E+00 0.0000E+00
       25  1    1    2    0    0 0.16040160E+03 0.42073614E+03 0.36665685E+03 0.59397796E+03 0.12500000E+03 0.0000E+00 0.9000E+01
        3  1    3    3  502    0 -.10796798E+03 -.24390611E+03 0.27331442E+03 0.38190090E+03 0.50000000E+00 0.0000E+00 0.9000E+01
       -3  1    3    3    0  502 -.41092947E+02 -.18302804E+03 0.30443704E+03 0.35758922E+03 0.50000000E+00 0.0000E+00 0.9000E+01
       21  1    1    2  503  501 -.11340667E+02 0.61980076E+01 0.14585932E+03 0.14643268E+03 0.75000000E+00 0.0000E+00 0.9000E+01
#aMCatNLO 2  0  0  1  1 0.50742819D+02 0.00000000D+00  -5  6  0 0.00000000D+00 0.00000000D+00 0.00000000D+00 0.00000000D+00 0.00000000D+00
  <mgrwgt>
 0.2272374386D-02    1    2    0
 0.470654613671599D+03 0.000000000000000D+00 0.000000000000000D+00 0.470654613671599D+03
 0.470654613671599D+03 0.000000000000000D+00 0.000000000000000D+00 -.470654613671599D+03
 0.474408975353566D+03 0.154691615034876D+03 0.423856814265864D+03 -.765165415731488D+02
 0.266487105027082D+03 -.111182042468433D+03 -.242152380850164D+03 0.401933164340313D+01
 0.200413146962550D+03 -.435095725664434D+02 -.181704433415700D+03 0.724972099297457D+02
 0.000000000000000D+00 -.000000000000000D+00 0.000000000000000D+00 0.000000000000000D+00
 0.531095420020197D+03 0.000000000000000D+00 0.000000000000000D+00 0.531095420020197D+03
 0.471390345176356D+03 0.000000000000000D+00 0.000000000000000D+00 -.471390345176356D+03
 0.473526508708753D+03 0.160401595348452D+03 0.420736142404307D+03 -.765165415731488D+02
 0.266767167488527D+03 -.107969934208549D+03 -.243907892307719D+03 0.401933164340313D+01
 0.201104267029868D+03 -.410909939099830D+02 -.183026257650406D+03 0.724972099297457D+02
 0.610878219694042D+02 -.113406672299205D+02 0.619800755381799D+01 0.597050748438409D+02
0.883782307647D-04 0.000000000000D+00 0.000000000000D+00 0.163085876663D-04 0.629063395674D-06  6 2 -2 25 3 -3 21 2 0.19770430D+00 0.29971634D-01 0.21834427D+06 0.21834427D+06 0.21834427D+06 0.10949102D+01  1  2  1  1  6  1        2 0.227237438618D-02 0.100000000000D+01
  </mgrwgt>
  </event>
  <event>
  7     66 0.18842058E-05 0.26471295E+02 0.75467711E-02 0.95253110E-01
        2 -1    0    0  503    0 0.00000000E+00 0.00000000E+00 0.70606726E+03 0.70606733E+03 0.32000000E+00 0.0000E+00 0.9000E+01
       -2 -1    0    0    0  501 0.00000000E+00 0.00000000E+00 -.36947127E+03 0.36947141E+03 0.32000000E+00 0.0000E+00 0.9000E+01
       23  2    1    2    0    0 0.39108231E+03 0.19016627E+03 -.13404450E+02 0.44371253E+03 0.87135215E+02 0.0000E+00 0.0000E+00
       25  1    1    2    0    0 -.39285371E+03 -.22613656E+03 0.26554613E+03 0.54001068E+03 0.12500000E+03 0.0000E+00 0.9000E+01
        3  1    3    3  502    0 0.89728850E+02 0.12830607E+02 0.18802065E+02 0.92572451E+02 0.50000000E+00 0.0000E+00 0.9000E+01
       -3  1    3    3    0  502 0.30135346E+03 0.17733566E+03 -.32206515E+02 0.35114008E+03 0.50000000E+00 0.0000E+00 0.9000E+01
       21  1    1    2  503  501 0.17713995E+01 0.35970291E+02 0.84454304E+02 0.91815531E+02 0.75000000E+00 0.0000E+00 0.9000E+01
#aMCatNLO 2  0  0  1  1 0.50742819D+02 0.00000000D+00  -5  6  0 0.00000000D+00 0.00000000D+00 0.00000000D+00 0.00000000D+00 0.00000000D+00
  <mgrwgt>
 0.1203831474D-03    1    2    0
 0.475089182333343D+03 0.000000000000000D+00 0.000000000000000D+00 0.475089182333343D+03
 0.475089182333343D+03 0.000000000000000D+00 0.000000000000000D+00 -.475089182333343D+03
 0.479315996362616D+03 -.391952121948044D+03 -.207828708813360D+03 0.131527891576215D+03
 0.914947620843798D+02 0.898917225875557D+02 0.162740210050889D+02 -.509175209973164D+01
 0.379367606219691D+03 0.302060399360488D+03 0.191554687808271D+03 -.126436139476483D+03
 0.000000000000000D+00 0.000000000000000D+00 0.000000000000000D+00 0.000000000000000D+00
 0.543238158737754D+03 0.000000000000000D+00 0.000000000000000D+00 0.543238158737754D+03
 0.480212205384700D+03 0.000000000000000D+00 0.000000000000000D+00 -.480212205384700D+03
 0.488258507224090D+03 -.392853713659360D+03 -.226136558915763D+03 0.131527891576215D+03
 0.907767996571989D+02 0.897218808558177D+02 0.128251905347469D+02 -.509175209973164D+01
 0.371825316132817D+03 0.301360433301150D+03 0.177341077001624D+03 -.126436139476483D+03
 0.725897411083471D+02 0.177139950239179D+01 0.359702913793928D+02 0.630259533530542D+02
0.679746126238D-05 0.000000000000D+00 0.000000000000D+00 0.298192216830D-05 0.148007202556D-07  6 2 -2 25 3 -3 21 2 0.10862531D+00 0.56841523D-01 0.22397760D+06 0.22397760D+06 0.22397760D+06 0.10940685D+01  1  2  1  1  6  1        2 0.120383147438D-03 0.100000000000D+01
  </mgrwgt>
  </event>
  <event>
  6     66 0.18842058E-05 0.12257480E+03 0.75467711E-02 0.92061643E-01
        2 -1    0    0  501    0 0.00000000E+00 0.00000000E+00 0.35343026E+04 0.35343026E+04 0.32000000E+00 0.0000E+00 0.9000E+01
       -2 -1    0    0    0  501 0.00000000E+00 0.00000000E+00 -.11632344E+03 0.11632388E+03 0.32000000E+00 0.0000E+00 0.9000E+01
       25  1    1    2    0    0 0.96863201E+02 0.57338900E+03 0.19205160E+04 0.20105134E+04 0.12500000E+03 0.0000E+00 0.9000E+01
        3  1    1    2  503    0 0.55158571E+02 -.17935664E+03 0.48073701E+03 0.51606162E+03 0.50000000E+00 0.0000E+00 0.9000E+01
       -3  1    1    2    0  502 -.11930610E+02 -.32120965E+03 0.67822597E+03 0.75053894E+03 0.50000000E+00 0.0000E+00 0.9000E+01
       21  1    1    2  502  503 -.14009116E+03 -.72822696E+02 0.33850018E+03 0.37351253E+03 0.75000000E+00 0.0000E+00 0.9000E+01
#aMCatNLO 2  0  0  4  5 0.34899068D+01 0.00000000D+00  -5  6  0 0.00000000D+00 0.00000000D+00 0.00000000D+00 0.00000000D+00 0.00000000D+00
  <mgrwgt>
 0.5506827206D-02    1    2    0
 0.641188788696464D+03 0.000000000000000D+00 0.000000000000000D+00 0.641188788696464D+03
 0.641188788696464D+03 -.000000000000000D+00 -.000000000000000D+00 -.641188788696464D+03
 0.643483578618384D+03 0.109544342942410D+03 0.611041467488272D+03 0.114343683212569D+03
 0.329562067374729D+03 -.104099762539832D+03 -.309044114563987D+03 -.476038963197025D+02
 0.309331931399816D+03 -.544458040257791D+01 -.301997352924285D+03 -.667397868928663D+02
 0.000000000000000D+00 0.000000000000000D+00 0.000000000000000D+00 -.000000000000000D+00
 0.641188788696464D+03 0.000000000000000D+00 0.000000000000000D+00 0.641188788696464D+03
 0.641188788696464D+03 -.000000000000000D+00 -.000000000000000D+00 -.641188788696464D+03
 0.604606499093815D+03 0.968573167404291D+02 0.573377108959681D+03 0.108542018874541D+03
 0.187303587764834D+03 0.553884272779094D+02 -.178795876357154D+03 -.684037359620796D+01
 0.328951223144921D+03 -.119328261234606D+02 -.321259204296102D+03 -.697068040027802D+02
 0.161516267389359D+03 -.140312917894878D+03 -.733220283064251D+02 -.319948412755534D+02
0.204289099860D-02 0.000000000000D+00 0.000000000000D+00 0.114508585203D-05 0.278157808805D-08  6 2 -2 25 3 -3 21 2 0.54373890D+00 0.17895949D-01 0.39800875D+06 0.39800875D+06 0.39800875D+06 0.10755839D+01  1  2  1  3  6  4        3 0.550682720589D-02 0.100000000000D+01
  </mgrwgt>
  </event>
  <event>
  7     66 0.18842058E-05 0.22253234E+02 0.75467711E-02 0.90035239E-01
        2 -1    0    0  503    0 0.00000000E+00 0.00000000E+00 0.24751666E+04 0.24751667E+04 0.32000000E+00 0.0000E+00 0.9000E+01
       -2 -1    0    0    0  501 0.00000000E+00 0.00000000E+00 -.32911647E+03 0.32911663E+03 0.32000000E+00 0.0000E+00 0.9000E+01
       23  2    1    2    0    0 -.61622502E+03 -.40914352E+03 0.10377113E+04 0.12773086E+04 0.86837837E+02 0.0000E+00 0.0000E+00
       25  1    1    2    0    0 0.61684260E+03 0.43205515E+03 0.48765883E+03 0.90587117E+03 0.12500000E+03 0.0000E+00 0.9000E+01
        3  1    3    3  502    0 -.61539673E+02 -.74678652E+02 0.14679580E+03 0.17582176E+03 0.50000000E+00 0.0000E+00 0.9000E+01
       -3  1    3    3    0  502 -.55468535E+03 -.33446487E+03 0.89091553E+03 0.11014869E+04 0.50000000E+00 0.0000E+00 0.9000E+01
       21  1    1    2  503  501 -.61757175E+00 -.22911633E+02 0.62068001E+03 0.62110350E+03 0.75000000E+00 0.0000E+00 0.9000E+01
#aMCatNLO 2  0  0  1  1 0.50742819D+02 0.00000000D+00  -5  6  0 0.00000000D+00 0.00000000D+00 0.00000000D+00 0.00000000D+00 0.00000000D+00
  <mgrwgt>
 0.2596441470D-03    1    2    0
 0.780864034405357D+03 0.000000000000000D+00 0.000000000000000D+00 0.780864034405357D+03
 0.780864034405357D+03 0.000000000000000D+00 0.000000000000000D+00 -.780864034405357D+03
 0.783452253892622D+03 0.616531519193342D+03 0.420514326203490D+03 -.203049307874231D+03
 0.103508420218469D+03 -.615640274653037D+02 -.761802028045714D+02 0.334729783411771D+02
 0.674767394699622D+03 -.554967491728038D+03 -.344334123398919D+03 0.169576329533054D+03
 0.000000000000000D+00 -.000000000000000D+00 -.000000000000000D+00 0.000000000000000D+00
 0.104244273912017D+04 0.000000000000000D+00 0.000000000000000D+00 0.104244273912017D+04
 0.781450355747011D+03 0.000000000000000D+00 0.000000000000000D+00 -.781450355747011D+03
 0.789949660032481D+03 0.616842596478202D+03 0.432055152876640D+03 -.203049307874231D+03
 0.102377605418641D+03 -.615233217401618D+02 -.746700387992576D+02 0.334729783411771D+02
 0.669568981173881D+03 -.554701702989607D+03 -.334473481329619D+03 0.169576329533054D+03
 0.261996848242176D+03 -.617571748433094D+00 -.229116327477629D+02 0.260992383373157D+03
0.137499341351D-03 0.000000000000D+00 0.000000000000D+00 0.160471330037D-05 0.191883956103D-07  6 2 -2 25 3 -3 21 2 0.38079462D+00 0.50633283D-01 0.58585105D+06 0.58585105D+06 0.58585105D+06 0.10636805D+01  1  2  1  1  6  1        2 0.259644146976D-03 0.100000000000D+01
  </mgrwgt>
  </event>
  <event>
  7     66 0.18842058E-05 0.30027536E+02 0.75467711E-02 0.92050483E-01
        2 -1    0    0  501    0 0.00000000E+00 0.00000000E+00 0.25139015E+04 0.25139016E+04 0.32000000E+00 0.0000E+00 0.9000E+01
       -2 -1    0    0    0  503 0.00000000E+00 0.00000000E+00 -.19203190E+03 0.19203217E+03 0.32000000E+00 0.0000E+00 0.9000E+01
       23  2    1    2    0    0 -.17098413E+03 0.59525652E+03 0.64445275E+03 0.89827599E+03 0.89523779E+02 0.0000E+00 0.0000E+00
       25  1    1    2    0    0 0.18499304E+03 -.57173169E+03 0.16700896E+04 0.17793043E+04 0.12500000E+03 0.0000E+00 0.9000E+01
        3  1    3    3  502    0 -.15987245E+03 0.47580139E+03 0.55710501E+03 0.74987493E+03 0.50000000E+00 0.0000E+00 0.9000E+01
       -3  1    3    3    0  502 -.11111679E+02 0.11945513E+03 0.87347742E+02 0.14840106E+03 0.50000000E+00 0.0000E+00 0.9000E+01
       21  1    1    2  501  503 -.14008912E+02 -.23524826E+02 0.73273274E+01 0.28353470E+02 0.75000000E+00 0.0000E+00 0.9000E+01
#aMCatNLO 2  0  0  2  1 0.21328348D+03 0.00000000D+00  -5  6  0 0.00000000D+00 0.00000000D+00 0.00000000D+00 0.00000000D+00 0.00000000D+00
  <mgrwgt>
 0.9676649748D-04    1    2    0
 0.672974790391920D+03 0.000000000000000D+00 0.000000000000000D+00 0.672974790391920D+03
 0.672974790391920D+03 0.000000000000000D+00 0.000000000000000D+00 -.672974790391920D+03
 0.675801973949217D+03 0.178002585129543D+03 -.583470596496928D+03 0.262603219143208D+03
 0.527114693830026D+03 -.165396880147928D+03 0.466543257457029D+03 -.181193712391566D+03
 0.143032913004597D+03 -.126057049816152D+02 0.116927339039899D+03 -.814095067516424D+02
 0.000000000000000D+00 -.000000000000000D+00 -.000000000000000D+00 -.000000000000000D+00
 0.677921856283348D+03 0.000000000000000D+00 0.000000000000000D+00 0.677921856283348D+03
 0.712095548845024D+03 0.000000000000000D+00 0.000000000000000D+00 -.712095548845024D+03
 0.667596438412990D+03 0.184993041497404D+03 -.571731692732590D+03 0.262603219143208D+03
 0.533656617670746D+03 -.159877091304136D+03 0.475812504932008D+03 -.181193712391566D+03
 0.144974985918037D+03 -.111070381434746D+02 0.119444013898013D+03 -.814095067516424D+02
 0.437893631265994D+02 -.140089120497934D+02 -.235248260974306D+02 -.341736925616765D+02
0.187285769535D-04 0.000000000000D+00 0.000000000000D+00 0.106898629952D-04 0.881522178357D-07  6 2 -2 25 3 -3 21 2 0.38675228D+00 0.29543253D-01 0.39883815D+06 0.39883815D+06 0.39883815D+06 0.10755187D+01  1  2  1  2  6  2       -2 0.967664974785D-04 0.100000000000D+01
  </mgrwgt>
  </event>
  <event>
  7     66 0.18842058E-05 0.61264332E+02 0.75467711E-02 0.93705875E-01
        2 -1    0    0  501    0 0.00000000E+00 0.00000000E+00 0.13983206E+03 0.13983242E+03 0.32000000E+00 0.0000E+00 0.9000E+01
       21 -1    0    0  503  501 0.00000000E+00 0.00000000E+00 -.29662875E+04 0.29662876E+04 0.75000000E+00 0.0000E+00 0.9000E+01
       23  2    1    2    0    0 -.42401908E+03 0.31950596E+03 -.68990144E+03 0.87509515E+03 0.89170050E+02 0.0000E+00 0.0000E+00
       25  1    1    2    0    0 0.39514115E+03 -.28243877E+03 -.13036295E+04 0.13967760E+04 0.12500000E+03 0.0000E+00 0.9000E+01
        3  1    3    3  502    0 -.24749194E+03 0.13676612E+03 -.39598547E+03 0.48658193E+03 0.50000000E+00 0.0000E+00 0.9000E+01
        2  1    1    2  503    0 0.28877927E+02 -.37067189E+02 -.83292445E+03 0.83424886E+03 0.32000000E+00 0.0000E+00 0.9000E+01
       -3  1    3    3    0  502 -.17652714E+03 0.18273984E+03 -.29391596E+03 0.38851322E+03 0.50000000E+00 0.0000E+00 0.9000E+01
#aMCatNLO 2  0  0  2  1 0.68332050D+01 0.00000000D+00  -5  6  0 0.00000000D+00 0.00000000D+00 0.00000000D+00 0.00000000D+00 0.00000000D+00
  <mgrwgt>
 0.5513136341D-05    1    2    0
 0.544294225509476D+03 0.000000000000000D+00 0.000000000000000D+00 0.544294225509476D+03
 0.544294225509476D+03 0.000000000000000D+00 0.000000000000000D+00 -.544294225509476D+03
 0.547818836798913D+03 0.409393868602820D+03 -.300733303606882D+03 -.162593414392534D+03
 0.279101022705354D+03 -.239948458633708D+03 0.127079136400990D+03 0.645988480242523D+02
 0.000000000000000D+00 0.000000000000000D+00 -.000000000000000D+00 -.000000000000000D+00
 0.261668591514686D+03 -.169445409969112D+03 0.173654167205891D+03 0.979945663682816D+02
 0.547393216322040D+03 0.000000000000000D+00 0.000000000000000D+00 0.547393216322040D+03
 0.757741598714149D+03 0.000000000000000D+00 0.000000000000000D+00 -.757741598714149D+03
 0.527228419178001D+03 0.395141150175454D+03 -.282438770396577D+03 -.162593414392534D+03
 0.290053361672124D+03 -.247494170821831D+03 0.136764676947133D+03 0.645988480242523D+02
 0.215532719386956D+03 0.288779273378080D+02 -.370671885099428D+02 -.210348382392109D+03
 0.272320314799110D+03 -.176524906691432D+03 0.182741281959386D+03 0.979945663682816D+02
0.841615355721D-05 0.000000000000D+00 0.000000000000D+00 0.105224550634D-04 0.131267096336D-08  6 2 21 25 3 2 -3 2 0.21512655D-01 0.45635186D+00 0.29450440D+06 0.29450440D+06 0.29450440D+06 0.10851464D+01  1  2  1  6  5  2       -2 0.551313634077D-05 0.100000000000D+01
  </mgrwgt>
  </event>
  <event>
  7     66 0.18842058E-05 0.84483158E+02 0.75467711E-02 0.93170825E-01
        2 -1    0    0  501    0 0.00000000E+00 0.00000000E+00 0.21206194E+04 0.21206194E+04 0.32000000E+00 0.0000E+00 0.9000E+01
       -2 -1    0    0    0  503 0.00000000E+00 0.00000000E+00 -.18405920E+03 0.18405948E+03 0.32000000E+00 0.0000E+00 0.9000E+01
       23  2    1    2    0    0 -.25954606E+03 0.48270309E+03 0.11824144E+04 0.13071839E+04 0.10129011E+03 0.0000E+00 0.0000E+00
       25  1    1    2    0    0 0.23372840E+03 -.49564099E+03 0.77816620E+03 0.95992531E+03 0.12500000E+03 0.0000E+00 0.9000E+01
        3  1    3    3  502    0 -.13870931E+03 0.24223643E+03 0.71912703E+03 0.77140307E+03 0.50000000E+00 0.0000E+00 0.9000E+01
       -3  1    3    3    0  502 -.12083675E+03 0.24046666E+03 0.46328734E+03 0.53578087E+03 0.50000000E+00 0.0000E+00 0.9000E+01
       21  1    1    2  501  503 0.25817655E+02 0.12937900E+02 -.24020352E+02 0.37569673E+02 0.75000000E+00 0.0000E+00 0.9000E+01
#aMCatNLO 2  0  0  2  1 0.48995662D+01 0.00000000D+00  -5  6  0 0.00000000D+00 0.00000000D+00 0.00000000D+00 0.00000000D+00 0.00000000D+00
  <mgrwgt>
 0.5745836745D-04    1    2    0
 0.569006639070234D+03 0.000000000000000D+00 0.000000000000000D+00 0.569006639070234D+03
 0.569006639070234D+03 0.000000000000000D+00 0.000000000000000D+00 -.569006639070234D+03
 0.571363957732115D+03 0.246690307134394D+03 -.489145443867084D+03 -.103500721279218D+03
 0.297450143258311D+03 -.131959326014325D+03 0.245619290088315D+03 0.103607375889686D+03
 0.269199177150043D+03 -.114730981120069D+03 0.243526153778769D+03 -.106654610467743D+00
 0.000000000000000D+00 0.000000000000000D+00 0.000000000000000D+00 -.000000000000000D+00
 0.571012800208968D+03 0.000000000000000D+00 0.000000000000000D+00 0.571012800208968D+03
 0.683554223051229D+03 0.000000000000000D+00 0.000000000000000D+00 -.683554223051229D+03
 0.571512343572657D+03 0.233728403370932D+03 -.495640992058029D+03 -.103500721279218D+03
 0.297747197056342D+03 -.138709742167516D+03 0.242236480415281D+03 0.103607375889686D+03
 0.269120080492368D+03 -.120836315882557D+03 0.240466611222730D+03 -.106654610467743D+00
 0.116187402138830D+03 0.258176546791400D+02 0.129379004200182D+02 -.112541422842261D+03
0.603510527188D-05 0.000000000000D+00 0.000000000000D+00 0.751983411911D-06 0.572627933620D-08  6 2 -2 25 3 -3 21 2 0.32624847D+00 0.28316763D-01 0.32444411D+06 0.32444411D+06 0.32444411D+06 0.10820440D+01  1  2  1  2  6  2       -2 0.574583674514D-04 0.100000000000D+01
  </mgrwgt>
  </event>
  <event>
  7     66 0.18842058E-05 0.45400666E+02 0.75467711E-02 0.93103139E-01
        2 -1    0    0  503    0 0.00000000E+00 0.00000000E+00 0.28615198E+04 0.28615198E+04 0.32000000E+00 0.0000E+00 0.9000E+01
       -2 -1    0    0    0  501 0.00000000E+00 0.00000000E+00 -.16648506E+03 0.16648536E+03 0.32000000E+00 0.0000E+00 0.9000E+01
       23  2    1    2    0    0 -.15707023E+02 -.56097969E+03 0.11197013E+04 0.12559029E+04 0.92823094E+02 0.0000E+00 0.0000E+00
       25  1    1    2    0    0 0.74035444E+01 0.54920572E+03 0.70846089E+03 0.90510970E+03 0.12500000E+03 0.0000E+00 0.9000E+01
        3  1    3    3  502    0 -.50761892E+02 -.42851013E+03 0.86661293E+03 0.96809913E+03 0.50000000E+00 0.0000E+00 0.9000E+01
       -3  1    3    3    0  502 0.35054869E+02 -.13246956E+03 0.25308835E+03 0.28780373E+03 0.50000000E+00 0.0000E+00 0.9000E+01
       21  1    1    2  503  501 0.83034786E+01 0.11773976E+02 0.86687256E+03 0.86699260E+03 0.75000000E+00 0.0000E+00 0.9000E+01
#aMCatNLO 2  0  0  1  2 0.15148870D+02 0.00000000D+00  -5  6  0 0.00000000D+00 0.00000000D+00 0.00000000D+00 0.00000000D+00 0.00000000D+00
  <mgrwgt>
 0.5310548496D-03    1    2    0
 0.576105634297949D+03 0.000000000000000D+00 0.000000000000000D+00 0.576105634297949D+03
 0.576105634297949D+03 0.000000000000000D+00 0.000000000000000D+00 -.576105634297949D+03
 0.579147122253589D+03 0.115564643015031D+02 0.555094379168251D+03 -.107345552135505D+03
 0.435951847717700D+03 -.476058199363203D+02 -.424040020529228D+03 0.893183095800595D+02
 0.137112298624609D+03 0.360493556348172D+02 -.131054358639023D+03 0.180272425554455D+02
 0.000000000000000D+00 0.000000000000000D+00 0.000000000000000D+00 0.000000000000000D+00
 0.826569473984219D+03 0.000000000000000D+00 0.000000000000000D+00 0.826569473984219D+03
 0.576357897901159D+03 0.000000000000000D+00 0.000000000000000D+00 -.576357897901159D+03
 0.573436831481219D+03 0.740354444097372D+01 0.549205717072988D+03 -.107345552135505D+03
 0.440662093697296D+03 -.507643815625885D+02 -.428518725331826D+03 0.893183095800595D+02
 0.138202416377594D+03 0.350573585276878D+02 -.132460967954768D+03 0.180272425554455D+02
 0.250626030329268D+03 0.830347859392689D+01 0.117739762136064D+02 0.250211576083060D+03
0.126325727177D-03 0.000000000000D+00 0.000000000000D+00 0.124340114017D-04 0.398519119279D-06  6 2 -2 25 3 -3 21 2 0.44023341D+00 0.25613086D-01 0.32846887D+06 0.32846887D+06 0.32846887D+06 0.10816508D+01  1  2  1  1  6  1        2 0.531054849642D-03 0.100000000000D+01
  </mgrwgt>
  </event>
  <event>
  7     66 0.18842058E-05 0.70657466E+02 0.75467711E-02 0.94704675E-01
        2 -1    0    0  501    0 0.00000000E+00 0.00000000E+00 0.15311575E+04 0.15311575E+04 0.32000000E+00 0.0000E+00 0.9000E+01
       -2 -1    0    0    0  503 0.00000000E+00 0.00000000E+00 -.17428670E+03 0.17428699E+03 0.32000000E+00 0.0000E+00 0.9000E+01
       23  2    1    2    0    0 -.68046192E+02 -.46938889E+03 0.63340757E+03 0.79676611E+03 0.93139026E+02 0.0000E+00 0.0000E+00
       25  1    1    2    0    0 0.79292561E+02 0.48049716E+03 0.73398378E+03 0.88967524E+03 0.12500000E+03 0.0000E+00 0.9000E+01
        3  1    3    3  502    0 -.33224068E+02 -.27377898E+03 0.44133460E+03 0.52041834E+03 0.50000000E+00 0.0000E+00 0.9000E+01
       -3  1    3    3    0  502 -.34822124E+02 -.19560991E+03 0.19207297E+03 0.27634777E+03 0.50000000E+00 0.0000E+00 0.9000E+01
       21  1    1    2  501  503 -.11246369E+02 -.11108275E+02 -.10520575E+02 0.19003147E+02 0.75000000E+00 0.0000E+00 0.9000E+01
#aMCatNLO 2  0  0  2  1 0.23925821D+03 0.00000000D+00  -5  6  0 0.00000000D+00 0.00000000D+00 0.00000000D+00 0.00000000D+00 0.00000000D+00
  <mgrwgt>
 0.7913712944D-03    1    2    0
 0.493476300765177D+03 0.000000000000000D+00 0.000000000000000D+00 0.493476300765177D+03
 0.493476300765177D+03 0.000000000000000D+00 0.000000000000000D+00 -.493476300765177D+03
 0.496997301781839D+03 0.735940270107509D+02 0.474868600051326D+03 0.215650145388997D+02
 0.281264586802817D+03 -.364089238933032D+02 -.276927025817900D+03 0.330995531985408D+02
 0.208690712945697D+03 -.371851031174477D+02 -.197941574233426D+03 -.546645677374405D+02
 0.000000000000000D+00 -.000000000000000D+00 -.000000000000000D+00 -.000000000000000D+00
 0.494907504696115D+03 0.000000000000000D+00 0.000000000000000D+00 0.494907504696115D+03
 0.539206695818098D+03 0.000000000000000D+00 0.000000000000000D+00 -.539206695818098D+03
 0.503244356560061D+03 0.792925609510302D+02 0.480497161630861D+03 0.215650145388997D+02
 0.277768930512954D+03 -.332240220792171D+02 -.273781231448116D+03 0.330995531985408D+02
 0.206065895295568D+03 -.348221695310422D+02 -.195607655134441D+03 -.546645677374405D+02
 0.470350181456300D+02 -.112463693407709D+02 -.111082750483037D+02 -.442991911219827D+02
0.350330317846D-04 0.000000000000D+00 0.000000000000D+00 0.164132103493D-04 0.418447968297D-06  6 2 -2 25 3 -3 21 2 0.23556129D+00 0.26813201D-01 0.24654318D+06 0.24654318D+06 0.24654318D+06 0.10909143D+01  1  2  1  2  6  2       -2 0.791371294430D-03 0.100000000000D+01
  </mgrwgt>
  </event>
  <event>
  7     66 0.18842058E-05 0.71294229E+02 0.75467711E-02 0.93749937E-01
        2 -1    0    0  501    0 0.00000000E+00 0.00000000E+00 0.60761371E+03 0.60761380E+03 0.32000000E+00 0.0000E+00 0.9000E+01
       -2 -1    0    0    0  503 0.00000000E+00 0.00000000E+00 -.65396129E+03 0.65396137E+03 0.32000000E+00 0.0000E+00 0.9000E+01
       23  2    1    2    0    0 -.37728608E+03 0.36490318E+03 0.24994517E+03 0.59181608E+03 0.11079065E+03 0.0000E+00 0.0000E+00
       25  1    1    2    0    0 0.35347814E+03 -.36370800E+03 -.18223012E+03 0.55322972E+03 0.12500000E+03 0.0000E+00 0.9000E+01
        3  1    3    3  502    0 -.21001574E+03 0.27166631E+03 0.18191195E+03 0.38858899E+03 0.50000000E+00 0.0000E+00 0.9000E+01
       -3  1    3    3    0  502 -.16727034E+03 0.93236867E+02 0.68033216E+02 0.20322709E+03 0.50000000E+00 0.0000E+00 0.9000E+01
       21  1    1    2  501  503 0.23807938E+02 -.11951761E+01 -.11406262E+03 0.11652936E+03 0.75000000E+00 0.0000E+00 0.9000E+01
#aMCatNLO 2  0  0  2  1 0.23925821D+03 0.00000000D+00  -5  6  0 0.00000000D+00 0.00000000D+00 0.00000000D+00 0.00000000D+00 0.00000000D+00
  <mgrwgt>
 0.1507066886D-03    1    2    0
 0.571396604457493D+03 0.000000000000000D+00 0.000000000000000D+00 0.571396604457493D+03
 0.571396604457493D+03 0.000000000000000D+00 0.000000000000000D+00 -.571396604457493D+03
 0.572862513825182D+03 0.365329420467342D+03 -.364302956114024D+03 -.215323548302748D+03
 0.373920163600228D+03 -.202179915362578D+03 0.271276504566987D+03 0.159212526645107D+03
 0.196010531489578D+03 -.163149505104764D+03 0.930264515470369D+02 0.561110216576403D+02
 0.000000000000000D+00 0.000000000000000D+00 -.000000000000000D+00 -.000000000000000D+00
 0.572682228230741D+03 0.000000000000000D+00 0.000000000000000D+00 0.572682228230741D+03
 0.693847914866978D+03 0.000000000000000D+00 0.000000000000000D+00 -.693847914866978D+03
 0.564995179717573D+03 0.353478151324962D+03 -.363708013640467D+03 -.215323548302748D+03
 0.378497251298629D+03 -.210016660978470D+03 0.271669914991250D+03 0.159212526645107D+03
 0.199549372559694D+03 -.167269428810009D+03 0.932332747632356D+02 0.561110216576403D+02
 0.123488339521822D+03 0.238079384635170D+02 -.119517611401804D+01 -.121165686636237D+03
0.258142734448D-04 0.000000000000D+00 0.000000000000D+00 0.131135116600D-06 0.147284548126D-08  6 2 -2 25 3 -3 21 2 0.93478859D-01 0.10060924D+00 0.29218026D+06 0.29218026D+06 0.29218026D+06 0.10854015D+01  1  2  1  2  6  2       -2 0.150706688551D-03 0.100000000000D+01
  </mgrwgt>
  </event>
  <event>
  7     66 0.18842058E-05 0.18335956E+03 0.75467711E-02 0.91332021E-01
       21 -1    0    0  501  503 0.00000000E+00 0.00000000E+00 0.21893053E+04 0.21893054E+04 0.75000000E+00 0.0000E+00 0.9000E+01
       -4 -1    0    0    0  501 0.00000000E+00 0.00000000E+00 -.35848693E+03 0.35849028E+03 0.15500000E+01 0.0000E+00 0.9000E+01
       23  2    1    2    0    0 -.13926273E+03 -.17302960E+03 0.14944794E+03 0.28290640E+03 0.91476751E+02 0.0000E+00 0.0000E+00
       25  1    1    2    0    0 -.20402004E+03 0.55182677E+03 0.10868817E+03 0.61120789E+03 0.12500000E+03 0.0000E+00 0.9000E+01
        1  1    3    3  502    0 -.11790122E+03 -.78230959E+02 0.10413809E+03 0.17568616E+03 0.32000000E+00 0.0000E+00 0.9000E+01
       -1  1    3    3    0  502 -.21361506E+02 -.94798642E+02 0.45309848E+02 0.10722025E+03 0.32000000E+00 0.0000E+00 0.9000E+01
       -4  1    1    2    0  503 0.34328277E+03 -.37879717E+03 0.15726823E+04 0.16536814E+04 0.15500000E+01 0.0000E+00 0.9000E+01
#aMCatNLO 2  0  0  1  2 0.60470074D+02 0.00000000D+00  -5  6  0 0.00000000D+00 0.00000000D+00 0.00000000D+00 0.00000000D+00 0.00000000D+00
  <mgrwgt>
 0.2068805515D-04    1    2    0
 0.343320462110898D+03 0.000000000000000D+00 0.000000000000000D+00 0.343320462110898D+03
 0.343320462110898D+03 0.000000000000000D+00 0.000000000000000D+00 -.343320462110898D+03
 0.348604886622849D+03 0.831673506907783D+01 0.317522643998927D+03 -.707853759123373D+02
 0.173834659451430D+03 -.453747310537425D+02 -.158261796877915D+03 0.557927079228897D+02
 0.164201378147517D+03 0.370579959846647D+02 -.159260847121013D+03 0.149926679894476D+02
 0.000000000000000D+00 0.000000000000000D+00 -.000000000000000D+00 0.000000000000000D+00
 0.162649958849193D+04 0.000000000000000D+00 0.000000000000000D+00 0.162649958849193D+04
 0.482533393573265D+03 0.000000000000000D+00 0.000000000000000D+00 -.482533393573265D+03
 0.605617483501965D+03 -.204020043985269D+03 0.551826774026461D+03 -.707853759123373D+02
 0.152098173579304D+03 -.117902403974208D+03 -.782307566491194D+02 0.557927079228897D+02
 0.983252995666687D+02 -.213603254747004D+02 -.947988445976436D+02 0.149926679894476D+02
 0.125299202541726D+04 0.343282773434178D+03 -.378797172779698D+03 0.114396619491867D+04
0.108153434179D-03 0.000000000000D+00 0.000000000000D+00 0.502878101517D-04 0.392655085853D-09  6 21 -4 25 1 -1 -4 2 0.33681617D+00 0.55152054D-01 0.45653167D+06 0.45653167D+06 0.45653167D+06 0.10713132D+01  1  2  1  5  6  1        4 0.206880551528D-04 0.100000000000D+01
  </mgrwgt>
  </event>
  <event>
  7     66 0.18842058E-05 0.26859378E+02 0.75467711E-02 0.90644146E-01
        2 -1    0    0  503    0 0.00000000E+00 0.00000000E+00 0.61748635E+03 0.61748643E+03 0.32000000E+00 0.0000E+00 0.9000E+01
       -2 -1    0    0    0  501 0.00000000E+00 0.00000000E+00 -.96394917E+03 0.96394922E+03 0.32000000E+00 0.0000E+00 0.9000E+01
       23  2    1    2    0    0 0.69639872E+03 -.15513850E+03 -.23513725E+03 0.75657043E+03 0.89834050E+02 0.0000E+00 0.0000E+00
       25  1    1    2    0    0 -.67004756E+03 0.16331135E+03 -.20253208E+03 0.72957424E+03 0.12500000E+03 0.0000E+00 0.9000E+01
        3  1    3    3  502    0 0.58150659E+03 -.11397972E+03 -.16210621E+03 0.61434515E+03 0.50000000E+00 0.0000E+00 0.9000E+01
       -3  1    3    3    0  502 0.11489213E+03 -.41158781E+02 -.73031047E+02 0.14222528E+03 0.50000000E+00 0.0000E+00 0.9000E+01
       21  1    1    2  503  501 -.26351164E+02 -.81728554E+01 0.91206516E+02 0.95290978E+02 0.75000000E+00 0.0000E+00 0.9000E+01
#aMCatNLO 2  0  0  1  1 0.76853747D+02 0.00000000D+00  -5  6  0 0.00000000D+00 0.00000000D+00 0.00000000D+00 0.00000000D+00 0.00000000D+00
  <mgrwgt>
 0.1578223177D-03    1    2    0
 0.709984219072441D+03 0.000000000000000D+00 0.000000000000000D+00 0.709984219072441D+03
 0.709984219072441D+03 0.000000000000000D+00 0.000000000000000D+00 -.709984219072441D+03
 0.712644434386555D+03 -.683163387589306D+03 0.159243459351776D+03 0.128994718231458D+02
 0.582889847108470D+03 0.570612047748815D+03 -.117365417172935D+03 0.196932393948344D+02
 0.124434156649857D+03 0.112551339840491D+03 -.418780421788407D+02 -.325927112179802D+02
 0.000000000000000D+00 -.000000000000000D+00 -.000000000000000D+00 0.000000000000000D+00
 0.836429169289522D+03 0.000000000000000D+00 0.000000000000000D+00 0.836429169289522D+03
 0.711624778564961D+03 0.000000000000000D+00 0.000000000000000D+00 -.711624778564961D+03
 0.701017635689183D+03 -.670047558501035D+03 0.163311354537089D+03 0.128994718231458D+02
 0.592913518320047D+03 0.581521045244623D+03 -.113981974304693D+03 0.196932393948344D+02
 0.126305285730360D+03 0.114877677755019D+03 -.411565247865179D+02 -.325927112179802D+02
 0.127817508114893D+03 -.263511644986072D+02 -.817285544587802D+01 0.124804390724561D+03
0.794394149794D-04 0.000000000000D+00 0.000000000000D+00 0.148914346384D-04 0.120334736517D-06  6 2 -2 25 3 -3 21 2 0.94997764D-01 0.14829965D+00 0.52063615D+06 0.52063615D+06 0.52063615D+06 0.10672713D+01  1  2  1  1  6  1        2 0.157822317710D-03 0.100000000000D+01
  </mgrwgt>
  </event>
  <event>
  7     66 0.18842058E-05 0.60366401E+02 0.75467711E-02 0.91331404E-01
        2 -1    0    0  503    0 0.00000000E+00 0.00000000E+00 0.20593411E+04 0.20593411E+04 0.32000000E+00 0.0000E+00 0.9000E+01
       -2 -1    0    0    0  501 0.00000000E+00 0.00000000E+00 -.27040240E+03 0.27040259E+03 0.32000000E+00 0.0000E+00 0.9000E+01
       23  2    1    2    0    0 -.18673759E+03 0.63797194E+03 0.12084596E+04 0.13823385E+04 0.92768470E+02 0.0000E+00 0.0000E+00
       25  1    1    2    0    0 0.17345140E+03 -.63690342E+03 0.43290076E+03 0.79922426E+03 0.12500000E+03 0.0000E+00 0.9000E+01
        3  1    3    3  502    0 -.84591113E+02 0.21291742E+03 0.33889180E+03 0.40906892E+03 0.50000000E+00 0.0000E+00 0.9000E+01
       -3  1    3    3    0  502 -.10214648E+03 0.42505453E+03 0.86956780E+03 0.97326957E+03 0.50000000E+00 0.0000E+00 0.9000E+01
       21  1    1    2  503  501 0.13286197E+02 -.10685238E+01 0.14757836E+03 0.14818097E+03 0.75000000E+00 0.0000E+00 0.9000E+01
#aMCatNLO 2  0  0  1  1 0.11963194D+03 0.00000000D+00  -5  6  0 0.00000000D+00 0.00000000D+00 0.00000000D+00 0.00000000D+00 0.00000000D+00
  <mgrwgt>
 0.2053882792D-03    1    2    0
 0.718500971442982D+03 0.000000000000000D+00 0.000000000000000D+00 0.718500971442982D+03
 0.718500971442982D+03 0.000000000000000D+00 0.000000000000000D+00 -.718500971442982D+03
 0.720943212749707D+03 0.180107187778375D+03 -.637438702821208D+03 -.255670524437311D+03
 0.232987941176751D+03 -.824321937858011D+02 0.212737667623066D+03 0.472334514485166D+02
 0.483070788959506D+03 -.976749939925741D+02 0.424701035198142D+03 0.208437072988795D+03
 0.000000000000000D+00 0.000000000000000D+00 -.000000000000000D+00 0.000000000000000D+00
 0.774118208287202D+03 0.000000000000000D+00 0.000000000000000D+00 0.774118208287202D+03
 0.719330928535642D+03 0.000000000000000D+00 0.000000000000000D+00 -.719330928535642D+03
 0.718835009828588D+03 0.173451398210739D+03 -.636903420267120D+03 -.255670524437311D+03
 0.233918300453981D+03 -.845906023819147D+02 0.212911254611409D+03 0.472334514485166D+02
 0.484310449131397D+03 -.102146992423612D+03 0.425060689408618D+03 0.208437072988795D+03
 0.563853774088775D+02 0.132861965947878D+02 -.106852375290740D+01 0.547872797515598D+02
0.418261050361D-04 0.000000000000D+00 0.000000000000D+00 0.116806243536D-04 0.403603982849D-06  6 2 -2 25 3 -3 21 2 0.31682063D+00 0.41600241D-01 0.45658508D+06 0.45658508D+06 0.45658508D+06 0.10713096D+01  1  2  1  1  6  1        2 0.205388279230D-03 0.100000000000D+01
  </mgrwgt>
  </event>
  <event>
  7     66 0.18842058E-05 0.48283940E+02 0.75467711E-02 0.92493666E-01
        2 -1    0    0  501    0 0.00000000E+00 0.00000000E+00 0.51194370E+03 0.51194380E+03 0.32000000E+00 0.0000E+00 0.9000E+01
       21 -1    0    0  503  501 0.00000000E+00 0.00000000E+00 -.92240665E+03 0.92240695E+03 0.75000000E+00 0.0000E+00 0.9000E+01
       23  2    1    2    0    0 0.29009944E+03 -.48495801E+03 0.52332656E+02 0.57147514E+03 0.67105667E+02 0.0000E+00 0.0000E+00
       25  1    1    2    0    0 -.34488242E+03 0.44127300E+03 -.22736680E+03 0.61724097E+03 0.12500000E+03 0.0000E+00 0.9000E+01
        3  1    3    3  502    0 0.22833858E+03 -.32858446E+03 0.50750832E+02 0.40333876E+03 0.50000000E+00 0.0000E+00 0.9000E+01
        2  1    1    2  503    0 0.54782984E+02 0.43685010E+02 -.23542880E+03 0.24563464E+03 0.32000000E+00 0.0000E+00 0.9000E+01
       -3  1    3    3    0  502 0.61760855E+02 -.15637355E+03 0.15818247E+01 0.16813638E+03 0.50000000E+00 0.0000E+00 0.9000E+01
#aMCatNLO 2  0  0  2  1 0.26621130D+01 0.00000000D+00  -5  6  0 0.00000000D+00 0.00000000D+00 0.00000000D+00 0.00000000D+00 0.00000000D+00
  <mgrwgt>
 0.2768228079D-04    1    2    0
 0.586834615401924D+03 0.000000000000000D+00 0.000000000000000D+00 0.586834615401924D+03
 0.586834615401924D+03 0.000000000000000D+00 0.000000000000000D+00 -.586834615401924D+03
 0.591572675074159D+03 -.317326452602968D+03 0.463246662322721D+03 -.137984354981542D+03
 0.414519982734038D+03 0.247698453284553D+03 -.313163464374385D+03 0.111359494015107D+03
 0.000000000000000D+00 0.000000000000000D+00 0.000000000000000D+00 -.000000000000000D+00
 0.167576572995650D+03 0.696279993184144D+02 -.150083197948335D+03 0.266248609664355D+02
 0.593798161166097D+03 0.000000000000000D+00 0.000000000000000D+00 0.593798161166097D+03
 0.795254009346977D+03 0.000000000000000D+00 0.000000000000000D+00 -.795254009346977D+03
 0.590195245209292D+03 -.344882423209523D+03 0.441272998731070D+03 -.137984354981542D+03
 0.415352502917081D+03 0.228347833396084D+03 -.328594022702022D+03 0.111359494015107D+03
 0.213293258675373D+03 0.547829838072748D+02 0.436850101894616D+02 -.201455848180880D+03
 0.170211163711329D+03 0.617516060061641D+02 -.156363986218509D+03 0.266248609664355D+02
0.112037187591D-05 0.000000000000D+00 0.000000000000D+00 0.134799887188D-06 0.708556600708D-11  6 2 21 25 3 2 -3 2 0.78760584D-01 0.14190872D+00 0.36733821D+06 0.36733821D+06 0.36733821D+06 0.10781047D+01  1  2  1  6  5  2       -2 0.276822807884D-04 0.100000000000D+01
  </mgrwgt>
  </event>
  <event>
  7     66 0.18842058E-05 0.59908425E+02 0.75467711E-02 0.93174867E-01
        2 -1    0    0  501    0 0.00000000E+00 0.00000000E+00 0.39552875E+03 0.39552888E+03 0.32000000E+00 0.0000E+00 0.9000E+01
       -2 -1    0    0    0  503 0.00000000E+00 0.00000000E+00 -.11949372E+04 0.11949372E+04 0.32000000E+00 0.0000E+00 0.9000E+01
       23  2    1    2    0    0 0.39695014E+03 0.38424988E+03 -.51267392E+03 0.75825907E+03 0.83095626E+02 0.0000E+00 0.0000E+00
       25  1    1    2    0    0 -.37831880E+03 -.39661619E+03 -.17930166E+02 0.56247312E+03 0.12500000E+03 0.0000E+00 0.9000E+01
        3  1    3    3  502    0 0.18307285E+03 0.14680940E+03 -.17051042E+03 0.29007365E+03 0.50000000E+00 0.0000E+00 0.9000E+01
       -3  1    3    3    0  502 0.21387729E+03 0.23744048E+03 -.34216350E+03 0.46818542E+03 0.50000000E+00 0.0000E+00 0.9000E+01
       21  1    1    2  501  503 -.18631335E+02 0.12366307E+02 -.26880431E+03 0.26973389E+03 0.75000000E+00 0.0000E+00 0.9000E+01
#aMCatNLO 2  0  0  2  1 0.30793553D+02 0.00000000D+00  -5  6  0 0.00000000D+00 0.00000000D+00 0.00000000D+00 0.00000000D+00 0.00000000D+00
  <mgrwgt>
 0.1114471581D-03    1    2    0
 0.604626486627217D+03 0.000000000000000D+00 0.000000000000000D+00 0.604626486627217D+03
 0.604626486627217D+03 0.000000000000000D+00 0.000000000000000D+00 -.604626486627217D+03
 0.608232066791746D+03 -.387674764416046D+03 -.390406288444560D+03 0.227183745130819D+03
 0.240673738385347D+03 0.179354070371751D+03 0.149273666348809D+03 -.589350347776914D+02
 0.360347168077341D+03 0.208320694044295D+03 0.241132622095750D+03 -.168248710353128D+03
 0.000000000000000D+00 -.000000000000000D+00 0.000000000000000D+00 -.000000000000000D+00
 0.605440523745230D+03 0.000000000000000D+00 0.000000000000000D+00 0.605440523745230D+03
 0.780639679028849D+03 0.000000000000000D+00 0.000000000000000D+00 -.780639679028849D+03
 0.606355481377182D+03 -.378318800933212D+03 -.396616188026845D+03 0.227183745130819D+03
 0.241951716955898D+03 0.183071732505589D+03 0.146806116259034D+03 -.589350347776914D+02
 0.361152518039953D+03 0.213878403512308D+03 0.237443764420407D+03 -.168248710353128D+03
 0.176620486401045D+03 -.186313350846858D+02 0.123663073474034D+02 -.175199155283619D+03
0.596332048765D-04 0.000000000000D+00 0.000000000000D+00 0.113554154227D-05 0.146635529116D-07  6 2 -2 25 3 -3 21 2 0.60850511D-01 0.18383626D+00 0.32420555D+06 0.32420555D+06 0.32420555D+06 0.10820674D+01  1  2  1  2  6  2       -2 0.111447158087D-03 0.100000000000D+01
  </mgrwgt>
  </event>
  <event>
  7     66 0.18842058E-05 0.68295819E+02 0.75467711E-02 0.95097957E-01
        2 -1    0    0  503    0 0.00000000E+00 0.00000000E+00 0.14723344E+04 0.14723345E+04 0.32000000E+00 0.0000E+00 0.9000E+01
       -2 -1    0    0    0  501 0.00000000E+00 0.00000000E+00 -.20111599E+03 0.20111624E+03 0.32000000E+00 0.0000E+00 0.9000E+01
       23  2    1    2    0    0 0.46153541E+03 -.78097502E+02 0.70385687E+03 0.85024006E+03 0.91539700E+02 0.0000E+00 0.0000E+00
       25  1    1    2    0    0 -.44927754E+03 0.86974378E+02 0.31286721E+03 0.56826556E+03 0.12500000E+03 0.0000E+00 0.9000E+01
        3  1    3    3  502    0 0.18509644E+03 -.51781327E+02 0.21804268E+03 0.29066279E+03 0.50000000E+00 0.0000E+00 0.9000E+01
       -3  1    3    3    0  502 0.27643897E+03 -.26316175E+02 0.48581419E+03 0.55957727E+03 0.50000000E+00 0.0000E+00 0.9000E+01
       21  1    1    2  503  501 -.12257864E+02 -.88768758E+01 0.25449438E+03 0.25494511E+03 0.75000000E+00 0.0000E+00 0.9000E+01
#aMCatNLO 2  0  0  1  2 0.77721680D+02 0.00000000D+00  -5  6  0 0.00000000D+00 0.00000000D+00 0.00000000D+00 0.00000000D+00 0.00000000D+00
  <mgrwgt>
 0.7653538398D-03    1    2    0
 0.494520293558285D+03 0.000000000000000D+00 0.000000000000000D+00 0.494520293558285D+03
 0.494520293558285D+03 0.000000000000000D+00 0.000000000000000D+00 -.494520293558285D+03
 0.498183178300103D+03 -.455421486003491D+03 0.825250691346788D+02 -.135433977243088D+03
 0.190897231554403D+03 0.182716736078812D+03 -.535034418649797D+02 0.139186594340751D+02
 0.299960177262063D+03 0.272704749924679D+03 -.290216272696991D+02 0.121515317809013D+03
 0.000000000000000D+00 -.000000000000000D+00 -.000000000000000D+00 0.000000000000000D+00
 0.598040169601047D+03 0.000000000000000D+00 0.000000000000000D+00 0.598040169601047D+03
 0.495131662442304D+03 0.000000000000000D+00 0.000000000000000D+00 -.495131662442304D+03
 0.493337830628518D+03 -.449277542892307D+03 0.869743777788747D+02 -.135433977243088D+03
 0.192703909025692D+03 0.185093714038821D+03 -.517820866386788D+02 0.139186594340751D+02
 0.303114636818131D+03 0.276441692779274D+03 -.263154153395220D+02 0.121515317809013D+03
 0.104015455571010D+03 -.122578639257889D+02 -.887687580067386D+01 0.102908507158743D+03
0.402299499226D-04 0.000000000000D+00 0.000000000000D+00 0.311942836328D-04 0.884794594596D-06  6 2 -2 25 3 -3 21 2 0.22651240D+00 0.30940859D-01 0.23011697D+06 0.23011697D+06 0.23011697D+06 0.10931771D+01  1  2  1  1  6  1        2 0.765353839821D-03 0.100000000000D+01
  </mgrwgt>
  </event>
  <event>
  7     66 0.18842058E-05 0.24832827E+02 0.75467711E-02 0.86879271E-01
        2 -1    0    0  503    0 0.00000000E+00 0.00000000E+00 0.10325811E+04 0.10325812E+04 0.32000000E+00 0.0000E+00 0.9000E+01
       -2 -1    0    0    0  501 0.00000000E+00 0.00000000E+00 -.13620460E+04 0.13620461E+04 0.32000000E+00 0.0000E+00 0.9000E+01
       23  2    1    2    0    0 -.81856811E+03 -.64533647E+03 -.26856919E+02 0.10466359E+04 0.90622421E+02 0.0000E+00 0.0000E+00
       25  1    1    2    0    0 0.77619503E+03 0.64673530E+03 -.50837587E+03 0.11378999E+04 0.12500000E+03 0.0000E+00 0.9000E+01
        3  1    3    3  502    0 -.85374023E+02 -.10590521E+03 -.23100234E+01 0.13605229E+03 0.50000000E+00 0.0000E+00 0.9000E+01
       -3  1    3    3    0  502 -.73319409E+03 -.53943125E+03 -.24546896E+02 0.91058357E+03 0.50000000E+00 0.0000E+00 0.9000E+01
       21  1    1    2  503  501 0.42373084E+02 -.13988291E+01 0.20576785E+03 0.21009142E+03 0.75000000E+00 0.0000E+00 0.9000E+01
#aMCatNLO 2  0  0  1  2 0.77721680D+02 0.00000000D+00  -5  6  0 0.00000000D+00 0.00000000D+00 0.00000000D+00 0.00000000D+00 0.00000000D+00
  <mgrwgt>
 0.1634982105D-03    1    2    0
 0.105876403308726D+04 0.000000000000000D+00 0.000000000000000D+00 0.105876403308726D+04
 0.105876403308726D+04 0.000000000000000D+00 0.000000000000000D+00 -.105876403308726D+04
 0.106051432318575D+04 0.797261256867005D+03 0.646039852569375D+03 -.236796593879865D+03
 0.138111482366974D+03 -.825747710962843D+02 -.105983774888281D+03 0.319941901042891D+02
 0.918902260621795D+03 -.714686485770721D+03 -.540056077681095D+03 0.204802403775576D+03
 0.000000000000000D+00 0.000000000000000D+00 -.000000000000000D+00 0.000000000000000D+00
 0.132598840391402D+04 0.000000000000000D+00 0.000000000000000D+00 0.132598840391402D+04
 0.106065913571670D+04 0.000000000000000D+00 0.000000000000000D+00 -.106065913571670D+04
 0.104519992755120D+04 0.776195026644743D+03 0.646735295381262D+03 -.236796593879865D+03
 0.139721522750979D+03 -.853543002024342D+02 -.105892016490271D+03 0.319941901042891D+02
 0.933030991570381D+03 -.733213810754769D+03 -.539444449741605D+03 0.204802403775576D+03
 0.268695097758162D+03 0.423730843124606D+02 -.139882914938610D+01 0.265329268197326D+03
0.494272342788D-03 0.000000000000D+00 0.000000000000D+00 0.168602858533D-04 0.561081848624D-07  6 2 -2 25 3 -3 21 2 0.15885856D+00 0.20954545D+00 0.11095507D+07 0.11095507D+07 0.11095507D+07 0.10448718D+01  1  2  1  1  6  1        2 0.163498210530D-03 0.100000000000D+01
  </mgrwgt>
  </event>
  <event>
  6     66 0.18842058E-05 0.18198108E+02 0.75467711E-02 0.91116968E-01
        2 -1    0    0  501    0 0.00000000E+00 0.00000000E+00 0.83723052E+03 0.83723058E+03 0.32000000E+00 0.0000E+00 0.9000E+01
       -2 -1    0    0    0  501 0.00000000E+00 0.00000000E+00 -.39551408E+03 0.39551421E+03 0.32000000E+00 0.0000E+00 0.9000E+01
       23  2    1    2    0    0 -.24539007E+03 -.50541175E+03 0.15589547E+03 0.59011274E+03 0.90952307E+02 0.0000E+00 0.0000E+00
       25  1    1    2    0    0 0.24539007E+03 0.50541175E+03 0.28582098E+03 0.64263205E+03 0.12500000E+03 0.0000E+00 0.9000E+01
        3  1    3    3  502    0 -.82834561E+01 -.21190850E+02 0.27839181E+02 0.35957444E+02 0.50000000E+00 0.0000E+00 0.9000E+01
       -3  1    3    3    0  502 -.23710661E+03 -.48422090E+03 0.12805629E+03 0.55415529E+03 0.50000000E+00 0.0000E+00 0.9000E+01
#aMCatNLO 1  0  0  2  1 0.93726890D+01 0.00000000D+00  -5  6  0 0.00000000D+00 0.00000000D+00 0.00000000D+00 0.00000000D+00 0.00000000D+00
  <mgrwgt>
 0.1482696688D-03    7    4    0
 0.575444675058921D+03 0.000000000000000D+00 0.000000000000000D+00 0.575444675058921D+03
 0.575444675058921D+03 0.000000000000000D+00 0.000000000000000D+00 -.575444675058921D+03
 0.578639021182391D+03 0.245390070989683D+03 0.505411749288608D+03 0.595045676870505D+02
 0.278144536469598D+02 -.827654015172972D+01 -.211768555887023D+02 0.160213452047863D+02
 0.544435875288491D+03 -.237113530837953D+03 -.484234893699906D+03 -.755259128918367D+02
 0.000000000000000D+00 -.000000000000000D+00 0.000000000000000D+00 -.000000000000000D+00
 0.612915408332051D+03 0.000000000000000D+00 0.000000000000000D+00 0.612915408332051D+03
 0.103755636472502D+04 0.000000000000000D+00 0.000000000000000D+00 -.103755636472502D+04
 0.613536010071815D+03 0.355866239724006D+03 0.480228967789237D+03 0.595045676870505D+02
 0.276764486653668D+02 -.313432350873642D+01 -.223490117163677D+02 0.160213452047863D+02
 0.530659575421115D+03 -.137486862517996D+03 -.506944557227840D+03 -.755259128918367D+02
 0.478599738898771D+03 -.215245053697274D+03 0.490646011549705D+02 -.424640956392967D+03
 0.575444675058921D+03 0.000000000000000D+00 0.000000000000000D+00 0.575444675058921D+03
 0.575444675058921D+03 0.000000000000000D+00 0.000000000000000D+00 -.575444675058921D+03
 0.578639021182391D+03 0.245390070989683D+03 0.505411749288608D+03 0.595045676870505D+02
 0.278144536469598D+02 -.827654015172972D+01 -.211768555887023D+02 0.160213452047863D+02
 0.000000000000000D+00 -.000000000000000D+00 0.000000000000000D+00 -.000000000000000D+00
 0.544435875288491D+03 -.237113530837953D+03 -.484234893699906D+03 -.755259128918367D+02
 0.612915408332051D+03 0.000000000000000D+00 0.000000000000000D+00 0.612915408332051D+03
 0.103755636472502D+04 0.000000000000000D+00 0.000000000000000D+00 -.103755636472502D+04
 0.613536010071815D+03 0.355866239724006D+03 0.480228967789237D+03 0.595045676870505D+02
 0.276764486653668D+02 -.313432350873642D+01 -.223490117163677D+02 0.160213452047863D+02
 0.478599738898771D+03 -.215245053697274D+03 0.490646011549705D+02 -.424640956392967D+03
 0.530659575421115D+03 -.137486862517996D+03 -.506944557227840D+03 -.755259128918367D+02
0.670722780377D-05 0.000000000000D+00 0.000000000000D+00 0.130579162791D-04 0.000000000000D+00  6 2 -2 25 3 -3 21 0 0.12880471D+00 0.60848334D-01 0.32346513D+06 0.32346513D+06 0.32346513D+06 0.10821404D+01  1  2  2  2  6  2       -2 0.688108540610D-04 0.100000000000D+01
0.234074230193D-05 0.000000000000D+00 -.257575208201D-07 0.130579162791D-04 0.000000000000D+00  6 2 -2 25 3 -3 21 2 0.12880471D+00 0.60848334D-01 0.32346513D+06 0.32346513D+06 0.32346513D+06 0.10821404D+01  1  2  3  2  6  2       -2 0.281212551733D-04 0.100000000000D+01
-.180407135186D-05 0.000000000000D+00 0.000000000000D+00 0.130579162791D-04 0.000000000000D+00  6 2 -2 25 3 -3 21 2 0.12880471D+00 0.60848334D-01 0.32346513D+06 0.32346513D+06 0.32346513D+06 0.10821404D+01  1  2 15  2  6  2       -2 -.216737873258D-04 0.100000000000D+01
-.245051607595D-05 0.000000000000D+00 0.000000000000D+00 0.130579162791D-04 0.000000000000D+00  6 2 -2 25 3 -3 21 2 0.12880471D+00 0.60848334D-01 0.32346513D+06 0.32346513D+06 0.32346513D+06 0.10821404D+01  1  2  4  2  6  2       -2 -.294400574644D-04 0.100000000000D+01
-.145085208570D-04 0.000000000000D+00 -.264907045892D-05 0.130579162791D-04 0.000000000000D+00  6 2 -2 25 3 -3 21 2 0.12880471D+00 0.11339373D+00 0.32346513D+06 0.32346513D+06 0.32346513D+06 0.10821404D+01  1  2  5  2  6  2       -2 -.419883791535D-04 0.100000000000D+01
0.138317352820D-04 0.000000000000D+00 0.220741328820D-05 0.130579162791D-04 0.000000000000D+00  6 2 -2 25 3 -3 21 2 0.12880471D+00 0.60848334D-01 0.32346513D+06 0.32346513D+06 0.32346513D+06 0.10821404D+01  1  2  6  2  6  2       -2 0.166171969052D-03 0.100000000000D+01
-.836200187818D-06 0.000000000000D+00 -.179664869552D-06 0.130579162791D-04 0.000000000000D+00  6 2 21 25 3 2 -3 2 0.12880471D+00 0.11339373D+00 0.32346513D+06 0.32346513D+06 0.32346513D+06 0.10821404D+01  3  4  5  6  5  2       -2 -.217321855461D-04 0.100000000000D+01
  </mgrwgt>
  </event>
  <event>
  7     66 0.18842058E-05 0.47469211E+02 0.75467711E-02 0.95028196E-01
        2 -1    0    0  503    0 0.00000000E+00 0.00000000E+00 0.97505115E+03 0.97505121E+03 0.32000000E+00 0.0000E+00 0.9000E+01
       -2 -1    0    0    0  501 0.00000000E+00 0.00000000E+00 -.35713141E+03 0.35713155E+03 0.32000000E+00 0.0000E+00 0.9000E+01
       23  2    1    2    0    0 -.21001554E+03 0.39874348E+03 0.46581164E+02 0.46206562E+03 0.90730059E+02 0.0000E+00 0.0000E+00
       25  1    1    2    0    0 0.23943960E+03 -.39880926E+03 0.24123087E+03 0.53869981E+03 0.12500000E+03 0.0000E+00 0.9000E+01
        3  1    3    3  502    0 -.12008666E+03 0.28437597E+03 -.19391411E+01 0.30869809E+03 0.50000000E+00 0.0000E+00 0.9000E+01
       -3  1    3    3    0  502 -.89928873E+02 0.11436750E+03 0.48520305E+02 0.15336753E+03 0.50000000E+00 0.0000E+00 0.9000E+01
       21  1    1    2  503  501 -.29424067E+02 0.65782508E-01 0.33010772E+03 0.33141733E+03 0.75000000E+00 0.0000E+00 0.9000E+01
#aMCatNLO 2  0  0  1  2 0.77721680D+02 0.00000000D+00  -5  6  0 0.00000000D+00 0.00000000D+00 0.00000000D+00 0.00000000D+00 0.00000000D+00
  <mgrwgt>
 0.5487228439D-03    1    2    0
 0.479017193355124D+03 0.000000000000000D+00 0.000000000000000D+00 0.479017193355124D+03
 0.479017193355124D+03 0.000000000000000D+00 0.000000000000000D+00 -.479017193355124D+03
 0.482875643874739D+03 0.224502785808339D+03 -.398775865502465D+03 0.901121285094237D+02
 0.326762612204668D+03 -.130061797654805D+03 0.284403436309434D+03 -.947228533195896D+02
 0.148396130630842D+03 -.944409881535337D+02 0.114372429193031D+03 0.461072481016585D+01
 0.000000000000000D+00 -.000000000000000D+00 0.000000000000000D+00 0.000000000000000D+00
 0.725274211083532D+03 0.000000000000000D+00 0.000000000000000D+00 0.725274211083532D+03
 0.480122812610292D+03 0.000000000000000D+00 0.000000000000000D+00 -.480122812610292D+03
 0.490025861595659D+03 0.239439604124413D+03 -.398809259301753D+03 0.901121285094237D+02
 0.322902581493501D+03 -.120087580419058D+03 0.284381137249394D+03 -.947228533195896D+02
 0.145557689386457D+03 -.899279570006100D+02 0.114362339543863D+03 0.461072481016585D+01
 0.246910891218206D+03 -.294240667047444D+02 0.657825084960257D-01 0.245151398473240D+03
0.441987730360D-04 0.000000000000D+00 0.000000000000D+00 0.284196346628D-04 0.227327051176D-06  6 2 -2 25 3 -3 21 2 0.15000771D+00 0.54943243D-01 0.23293877D+06 0.23293877D+06 0.23293877D+06 0.10927761D+01  1  2  1  1  6  1        2 0.548722843863D-03 0.100000000000D+01
  </mgrwgt>
  </event>
  <event>
  7     66 0.18842058E-05 0.27034972E+02 0.75467711E-02 0.92587083E-01
        2 -1    0    0  501    0 0.00000000E+00 0.00000000E+00 0.11514795E+04 0.11514796E+04 0.32000000E+00 0.0000E+00 0.9000E+01
       -2 -1    0    0    0  503 0.00000000E+00 0.00000000E+00 -.34480875E+03 0.34480890E+03 0.32000000E+00 0.0000E+00 0.9000E+01
       23  2    1    2    0    0 -.57148675E+03 -.16127830E+03 0.51549514E+03 0.79164039E+03 0.91386321E+02 0.0000E+00 0.0000E+00
       25  1    1    2    0    0 0.52628433E+03 0.15069771E+03 0.32352707E+03 0.64805845E+03 0.12500000E+03 0.0000E+00 0.9000E+01
        3  1    3    3  502    0 -.13413109E+03 -.36497133E+02 0.72655677E+02 0.15685116E+03 0.50000000E+00 0.0000E+00 0.9000E+01
       -3  1    3    3    0  502 -.43735567E+03 -.12478117E+03 0.44283946E+03 0.63478922E+03 0.50000000E+00 0.0000E+00 0.9000E+01
       21  1    1    2  501  503 0.45202427E+02 0.10580592E+02 -.32351440E+02 0.56589632E+02 0.75000000E+00 0.0000E+00 0.9000E+01
#aMCatNLO 2  0  0  2  1 0.60738788D+02 0.00000000D+00  -5  6  0 0.00000000D+00 0.00000000D+00 0.00000000D+00 0.00000000D+00 0.00000000D+00
  <mgrwgt>
 0.1356673810D-03    1    2    0
 0.584512461468535D+03 0.000000000000000D+00 0.000000000000000D+00 0.584512461468535D+03
 0.584512461468535D+03 0.000000000000000D+00 0.000000000000000D+00 -.584512461468535D+03
 0.587623404734737D+03 0.548568633720300D+03 0.155913828337359D+03 -.666303085950837D+02
 0.135496369806931D+03 -.128780403895424D+03 -.352441737332563D+02 -.230807716779180D+02
 0.445905148395402D+03 -.419788229824876D+03 -.120669654604103D+03 0.897110802730017D+02
 0.000000000000000D+00 0.000000000000000D+00 0.000000000000000D+00 -.000000000000000D+00
 0.591193892457151D+03 0.000000000000000D+00 0.000000000000000D+00 0.591193892457151D+03
 0.671587365288931D+03 0.000000000000000D+00 0.000000000000000D+00 -.671587365288931D+03
 0.565464050327993D+03 0.526284328039008D+03 0.150697711496868D+03 -.666303085950837D+02
 0.140901679677871D+03 -.134122009683770D+03 -.364944904497087D+02 -.230807716779180D+02
 0.463580627197271D+03 -.437364744899348D+03 -.124783812684157D+03 0.897110802730017D+02
 0.928349005429457D+02 0.452024265441102D+02 0.105805916369982D+02 -.803934728317792D+02
0.135645675586D-04 0.000000000000D+00 0.000000000000D+00 0.259922988913D-04 0.754197842385D-07  6 2 -2 25 3 -3 21 2 0.17715026D+00 0.53047381D-01 0.36105966D+06 0.36105966D+06 0.36105966D+06 0.10786490D+01  1  2  1  2  6  2       -2 0.135667381007D-03 0.100000000000D+01
  </mgrwgt>
  </event>
  <event>
  7     66 0.18842058E-05 0.30121228E+02 0.75467711E-02 0.95024413E-01
        2 -1    0    0  501    0 0.00000000E+00 0.00000000E+00 0.19669749E+04 0.19669749E+04 0.32000000E+00 0.0000E+00 0.9000E+01
       21 -1    0    0  503  501 0.00000000E+00 0.00000000E+00 -.40823988E+03 0.40824057E+03 0.75000000E+00 0.0000E+00 0.9000E+01
       23  2    1    2    0    0 0.44007859E+03 -.17585652E+03 0.64353437E+03 0.80437900E+03 0.91073679E+02 0.0000E+00 0.0000E+00
       25  1    1    2    0    0 -.42088648E+03 0.16251388E+03 0.11984375E+04 0.12866366E+04 0.12500000E+03 0.0000E+00 0.9000E+01
        3  1    3    3  502    0 0.76183121E+02 -.35131248E+02 0.17936364E+03 0.19801423E+03 0.50000000E+00 0.0000E+00 0.9000E+01
        2  1    1    2  503    0 -.19192108E+02 0.13342646E+02 -.28323688E+03 0.28419992E+03 0.32000000E+00 0.0000E+00 0.9000E+01
       -3  1    3    3    0  502 0.36389547E+03 -.14072527E+03 0.46417073E+03 0.60636477E+03 0.50000000E+00 0.0000E+00 0.9000E+01
#aMCatNLO 2  0  0  2  1 0.60738788D+02 0.00000000D+00  -5  6  0 0.00000000D+00 0.00000000D+00 0.00000000D+00 0.00000000D+00 0.00000000D+00
  <mgrwgt>
 0.1050739617D-02    1    2    0
 0.494706818278050D+03 0.000000000000000D+00 0.000000000000000D+00 0.494706818278050D+03
 0.494706818278050D+03 0.000000000000000D+00 0.000000000000000D+00 -.494706818278050D+03
 0.498411328060020D+03 -.430451299579581D+03 0.169163483990210D+03 0.137419963298991D+03
 0.826019497680221D+02 0.745537102709336D+02 -.340013029473412D+02 0.104277412798581D+02
 0.000000000000000D+00 -.000000000000000D+00 0.000000000000000D+00 -.000000000000000D+00
 0.408400358728059D+03 0.355897589308648D+03 -.135162181042869D+03 -.147847704578849D+03
 0.494965997691859D+03 0.000000000000000D+00 0.000000000000000D+00 0.494965997691859D+03
 0.162233040003741D+04 0.000000000000000D+00 0.000000000000000D+00 -.162233040003741D+04
 0.487919495663926D+03 -.420886479122659D+03 0.162513875184783D+03 0.137419963298991D+03
 0.845296711589152D+02 0.761744483725830D+02 -.351280647512409D+02 0.104277412798581D+02
 0.112760669513042D+04 -.191921084177846D+02 0.133426459706568D+02 -.112736440234555D+04
 0.417240535776002D+03 0.363904139167861D+03 -.140728456404199D+03 -.147847704578849D+03
0.398455947150D-04 0.000000000000D+00 0.000000000000D+00 0.358457779508D-04 0.103542772922D-06  6 2 21 25 3 2 -3 2 0.30261157D+00 0.62806188D-01 0.23309289D+06 0.23309289D+06 0.23309289D+06 0.10927543D+01  1  2  1  6  5  2       -2 0.105073961718D-02 0.100000000000D+01
  </mgrwgt>
  </event>
  <event>
  6     66 0.18842058E-05 0.20617570E+03 0.75467711E-02 0.92031908E-01
        2 -1    0    0  501    0 0.00000000E+00 0.00000000E+00 0.10529971E+04 0.10529972E+04 0.32000000E+00 0.0000E+00 0.9000E+01
       -2 -1    0    0    0  501 0.00000000E+00 0.00000000E+00 -.40610283E+03 0.40610295E+03 0.32000000E+00 0.0000E+00 0.9000E+01
       25  1    1    2    0    0 -.61369426E+03 -.11621472E+03 0.35435527E+03 0.72891643E+03 0.12500000E+03 0.0000E+00 0.9000E+01
        3  1    1    2  502    0 0.29797632E+03 0.90645310E+02 0.26362962E+03 0.40805304E+03 0.50000000E+00 0.0000E+00 0.9000E+01
       -3  1    1    2    0  503 0.86905029E+02 0.47801171E+01 0.30915333E+02 0.92365261E+02 0.50000000E+00 0.0000E+00 0.9000E+01
       21  1    1    2  503  502 0.22881291E+03 0.20789297E+02 -.20059291E+01 0.22976538E+03 0.75000000E+00 0.0000E+00 0.9000E+01
#aMCatNLO 2  0  0  5  4 0.21995481D+02 0.00000000D+00  -5  6  0 0.00000000D+00 0.00000000D+00 0.00000000D+00 0.00000000D+00 0.00000000D+00
  <mgrwgt>
 0.2818078224D-02    2    2    0
 0.653930600224788D+03 0.000000000000000D+00 0.000000000000000D+00 0.653930600224788D+03
 0.653930600224788D+03 -.000000000000000D+00 -.000000000000000D+00 -.653930600224788D+03
 0.639649225377676D+03 -.615409379376678D+03 -.116353804294918D+03 0.354854833357549D+02
 0.324132265010080D+03 0.297114036188548D+03 0.905761470210935D+02 0.926333434089929D+02
 0.344079710061821D+03 0.318295343188130D+03 0.257776572738245D+02 -.128118826744748D+03
 0.000000000000000D+00 0.000000000000000D+00 0.000000000000000D+00 -.000000000000000D+00
 0.653930600224788D+03 0.000000000000000D+00 0.000000000000000D+00 0.653930600224788D+03
 0.653930600224788D+03 -.000000000000000D+00 -.000000000000000D+00 -.653930600224788D+03
 0.637949496255554D+03 -.613707845340597D+03 -.116216002840512D+03 0.348005894187236D+02
 0.324845237631712D+03 0.297978358679403D+03 0.906461455599354D+02 0.922854401618127D+02
 0.871666767806745D+02 0.863268686963166D+02 0.474601836736404D+01 -.110984950210446D+02
 0.257899789781636D+03 0.229402617964877D+03 0.208238389132131D+02 -.115987534559492D+03
-.181464037538D-04 0.000000000000D+00 0.000000000000D+00 0.190011964061D-08 0.000000000000D+00  6 2 -2 25 3 -3 21 2 0.16199957D+00 0.62477371D-01 0.40022289D+06 0.40022289D+06 0.40022289D+06 0.10754102D+01  1  2 13  4  6  5       -3 -.147034193296D-03 0.100000000000D+01
0.365942954502D-03 0.000000000000D+00 0.000000000000D+00 0.190011964061D-08 0.644504295825D-10  6 2 -2 25 3 -3 21 2 0.16199957D+00 0.62477371D-01 0.40022289D+06 0.40022289D+06 0.40022289D+06 0.10754102D+01  1  2  1  4  6  5       -3 0.296511241773D-02 0.100000000000D+01
  </mgrwgt>
  </event>
  <event>
  7     66 0.18842058E-05 0.69381960E+02 0.75467711E-02 0.91146828E-01
        2 -1    0    0  501    0 0.00000000E+00 0.00000000E+00 0.16136279E+04 0.16136279E+04 0.32000000E+00 0.0000E+00 0.9000E+01
       -2 -1    0    0    0  501 0.00000000E+00 0.00000000E+00 -.29772487E+03 0.29772504E+03 0.32000000E+00 0.0000E+00 0.9000E+01
       23  2    1    2    0    0 0.58127836E+03 0.35060259E+03 0.56073285E+03 0.88826270E+03 0.11739928E+03 0.0000E+00 0.0000E+00
       25  1    1    2    0    0 -.58127836E+03 -.35060259E+03 0.75517017E+03 0.10230903E+04 0.12500000E+03 0.0000E+00 0.9000E+01
        3  1    3    3  503    0 0.34268651E+03 0.25058658E+03 0.38002255E+03 0.56977633E+03 0.50000000E+00 0.0000E+00 0.9000E+01
       -3  1    3    3    0  502 0.22873112E+03 0.10204098E+03 0.16539402E+03 0.30014283E+03 0.50000000E+00 0.0000E+00 0.9000E+01
       21  1    3    3  502  503 0.98607265E+01 -.20249685E+01 0.15316291E+02 0.18343546E+02 0.75000000E+00 0.0000E+00 0.9000E+01
#aMCatNLO 2  0  0  4  5 0.98380318D+01 0.00000000D+00  -5  6  0 0.00000000D+00 0.00000000D+00 0.00000000D+00 0.00000000D+00 0.00000000D+00
  <mgrwgt>
 0.5085410295D-03    1    2    0
 0.693121455783450D+03 0.000000000000000D+00 0.000000000000000D+00 0.693121455783450D+03
 0.693121455783450D+03 -.000000000000000D+00 -.000000000000000D+00 -.693121455783450D+03
 0.695778856365617D+03 -.582941883916946D+03 -.351775448254366D+03 0.701142706319294D+02
 0.434317125041885D+03 0.354792409202288D+03 0.250155765398565D+03 -.132591294941670D+02
 0.256146930159397D+03 0.228149474714658D+03 0.101619682855801D+03 -.568551411377624D+02
 0.000000000000000D+00 0.000000000000000D+00 0.000000000000000D+00 0.000000000000000D+00
 0.693121455783450D+03 0.000000000000000D+00 0.000000000000000D+00 0.693121455783450D+03
 0.693121455783450D+03 -.000000000000000D+00 -.000000000000000D+00 -.693121455783450D+03
 0.693782311162996D+03 -.581275308412075D+03 -.350600385146469D+03 0.700519881820862D+02
 0.424880523465031D+03 0.342682630741213D+03 0.250612933085131D+03 -.168888003916267D+02
 0.256872263126340D+03 0.228764766247725D+03 0.102053510413565D+03 -.568781355139159D+02
 0.107078138125321D+02 0.982791142313722D+01 -.206605835222739D+01 0.371494772345637D+01
0.711579222660D-04 0.000000000000D+00 0.000000000000D+00 0.462021442998D-04 0.244828039580D-05  6 2 -2 25 3 -3 21 2 0.24825046D+00 0.45803842D-01 0.47287633D+06 0.47287633D+06 0.47287633D+06 0.10702265D+01  1  2  1  3  6  4        3 0.508541029452D-03 0.100000000000D+01
  </mgrwgt>
  </event>
  <event>
  6     66 0.18842058E-05 0.20027690E+02 0.75467711E-02 0.93309187E-01
        2 -1    0    0  501    0 0.00000000E+00 0.00000000E+00 0.12566958E+04 0.12566958E+04 0.32000000E+00 0.0000E+00 0.9000E+01
       -2 -1    0    0    0  501 0.00000000E+00 0.00000000E+00 -.27994153E+03 0.27994171E+03 0.32000000E+00 0.0000E+00 0.9000E+01
       23  2    1    2    0    0 -.47357033E+03 -.28216363E+03 0.24236485E+03 0.60990242E+03 0.96721601E+02 0.0000E+00 0.0000E+00
       25  1    1    2    0    0 0.47357033E+03 0.28216363E+03 0.73438938E+03 0.92673510E+03 0.12500000E+03 0.0000E+00 0.9000E+01
        3  1    3    3  502    0 -.45349946E+03 -.28977873E+03 0.23425980E+03 0.58695092E+03 0.50000000E+00 0.0000E+00 0.9000E+01
       -3  1    3    3    0  502 -.20070873E+02 0.76151026E+01 0.81050492E+01 0.22951504E+02 0.50000000E+00 0.0000E+00 0.9000E+01
#aMCatNLO 1  0  0  5  1 0.84901128D+00 0.00000000D+00  -5  6  0 0.00000000D+00 0.00000000D+00 0.00000000D+00 0.00000000D+00 0.00000000D+00
  <mgrwgt>
 0.7482543620D-02    7    2    0
 0.593128575930475D+03 0.000000000000000D+00 0.000000000000000D+00 0.593128575930475D+03
 0.593128575930475D+03 -.000000000000000D+00 -.000000000000000D+00 -.593128575930475D+03
 0.595771313895642D+03 0.473570333467583D+03 0.282163632103156D+03 0.188237303525886D+03
 0.567443412255928D+03 -.453511044248203D+03 -.289786680973530D+03 -.179842815780618D+03
 0.230424257093798D+02 -.200592892193797D+02 0.762304887037359D+01 -.839448774526830D+01
 0.000000000000000D+00 0.000000000000000D+00 0.000000000000000D+00 -.000000000000000D+00
 0.593128575930475D+03 0.000000000000000D+00 0.000000000000000D+00 0.593128575930475D+03
 0.593128575930475D+03 -.000000000000000D+00 -.000000000000000D+00 -.593128575930475D+03
 0.595533464668083D+03 0.473251893677551D+03 0.282284647461932D+03 0.188104041629825D+03
 0.567667330211069D+03 -.453814463182633D+03 -.289671373928496D+03 -.179969791691823D+03
 0.221941684090513D+02 -.196142671396327D+02 0.654587456517156D+01 -.806307398710275D+01
 0.862188572746872D+00 0.176836644714607D+00 0.840851901392284D+00 -.711759508988041D-01
0.108000276619D-05 0.000000000000D+00 0.000000000000D+00 0.284806239612D-06 0.000000000000D+00  6 2 -2 25 3 -3 21 0 0.19333783D+00 0.43067945D-01 0.31635076D+06 0.31635076D+06 0.31635076D+06 0.10828508D+01  1  2  2  4  6  5       -3 0.122011448916D-04 0.100000000000D+01
0.396309523078D-06 0.000000000000D+00 -.414749499344D-08 0.284806239612D-06 0.000000000000D+00  6 2 -2 25 3 -3 21 2 0.19333783D+00 0.43067945D-01 0.31635076D+06 0.31635076D+06 0.31635076D+06 0.10828508D+01  1  2  3  4  6  5       -3 0.524985702393D-05 0.100000000000D+01
-.207619083698D-06 0.000000000000D+00 0.000000000000D+00 0.284806239612D-06 0.000000000000D+00  6 2 -2 25 3 -3 21 2 0.19333783D+00 0.43067945D-01 0.31635076D+06 0.31635076D+06 0.31635076D+06 0.10828508D+01  1  2 15  4  6  5       -3 -.275030106869D-05 0.100000000000D+01
-.350988509173D-04 0.000000000000D+00 0.000000000000D+00 0.284806239612D-06 0.000000000000D+00  6 2 -2 25 3 -3 21 2 0.19333783D+00 0.43067945D-01 0.31635076D+06 0.31635076D+06 0.31635076D+06 0.10828508D+01  1  2  4  4  6  5       -3 -.464949586851D-03 0.100000000000D+01
-.160668973237D-04 0.000000000000D+00 0.000000000000D+00 0.284806239612D-06 0.000000000000D+00  6 2 -2 25 3 -3 21 2 0.19333783D+00 0.43067945D-01 0.31635076D+06 0.31635076D+06 0.31635076D+06 0.10828508D+01  1  2  5  4  6  5       -3 -.212835949821D-03 0.100000000000D+01
0.182738418949D-04 0.000000000000D+00 -.000000000000D+00 0.284806239612D-06 0.000000000000D+00  6 2 -2 25 3 -3 21 2 0.19333783D+00 0.43067945D-01 0.31635076D+06 0.31635076D+06 0.31635076D+06 0.10828508D+01  1  2  6  4  6  5       -3 0.242071037004D-03 0.100000000000D+01
0.596642713885D-03 0.000000000000D+00 0.000000000000D+00 0.284806239612D-06 0.522427154860D-04  6 2 -2 25 3 -3 21 2 0.19333783D+00 0.43067945D-01 0.31638753D+06 0.31638753D+06 0.31638753D+06 0.10828471D+01  1  2 11  4  6  5       -3 0.790355741893D-02 0.100000000000D+01
  </mgrwgt>
  </event>
  <event>
  6     66 0.18842058E-05 0.16407217E+02 0.75467711E-02 0.92813945E-01
        2 -1    0    0  501    0 0.00000000E+00 0.00000000E+00 0.65503724E+03 0.65503732E+03 0.32000000E+00 0.0000E+00 0.9000E+01
       -2 -1    0    0    0  501 0.00000000E+00 0.00000000E+00 -.39714350E+03 0.39714363E+03 0.32000000E+00 0.0000E+00 0.9000E+01
       23  2    1    2    0    0 -.46343567E+03 0.14961999E+03 0.23745457E+03 0.54898961E+03 0.88578539E+02 0.0000E+00 0.0000E+00
       25  1    1    2    0    0 0.46343567E+03 -.14961999E+03 0.20439174E+02 0.50319134E+03 0.12500000E+03 0.0000E+00 0.9000E+01
        3  1    3    3  502    0 -.45934036E+03 0.13372461E+03 0.23191481E+03 0.53165832E+03 0.50000000E+00 0.0000E+00 0.9000E+01
       -3  1    3    3    0  502 -.40953073E+01 0.15895382E+02 0.55397638E+01 0.17331292E+02 0.50000000E+00 0.0000E+00 0.9000E+01
#aMCatNLO 1  0  0  1  4 0.16568003D+03 0.00000000D+00  -5  6  0 0.00000000D+00 0.00000000D+00 0.00000000D+00 0.00000000D+00 0.00000000D+00
  <mgrwgt>
 0.7380892801D-04    7    2    0
 0.510043027484089D+03 0.000000000000000D+00 0.000000000000000D+00 0.510043027484089D+03
 0.510043027484089D+03 0.000000000000000D+00 0.000000000000000D+00 -.510043027484089D+03
 0.513855863893501D+03 0.463435668251329D+03 -.149619993677207D+03 -.106132406654203D+03
 0.489769225963022D+03 -.459354867572956D+03 0.133728366286899D+03 0.104803265157566D+03
 0.164609651116538D+02 -.408080067837244D+01 0.158916273903082D+02 0.132914149663793D+01
 0.000000000000000D+00 0.000000000000000D+00 0.000000000000000D+00 0.000000000000000D+00
 0.672815893923408D+03 0.000000000000000D+00 0.000000000000000D+00 0.672815893923408D+03
 0.560691590228666D+03 0.000000000000000D+00 0.000000000000000D+00 -.560691590228666D+03
 0.536278093227322D+03 0.453914893614083D+03 -.233808414922635D+03 -.106132406654203D+03
 0.482988651820015D+03 -.468174131504169D+03 0.557431250428766D+02 0.104803265157566D+03
 0.141864144498142D+02 -.435865741469480D+01 0.134346508464171D+02 0.132914149663793D+01
 0.200054324654922D+03 0.186178953047815D+02 0.164630639033342D+03 0.112124303694742D+03
0.229097917672D-05 0.000000000000D+00 0.000000000000D+00 0.116913926546D-05 0.000000000000D+00  6 2 -2 25 3 -3 21 0 0.10077498D+00 0.61099016D-01 0.24880540D+06 0.24880540D+06 0.24880540D+06 0.10906156D+01  1  2  2  1  6  1        2 0.318967936835D-04 0.100000000000D+01
0.924881939056D-06 0.000000000000D+00 -.879796326727D-08 0.116913926546D-05 0.000000000000D+00  6 2 -2 25 3 -3 21 2 0.10077498D+00 0.61099016D-01 0.24880540D+06 0.24880540D+06 0.24880540D+06 0.10906156D+01  1  2  3  1  6  1        2 0.153163620851D-04 0.100000000000D+01
-.561566363579D-06 0.000000000000D+00 0.000000000000D+00 0.116913926546D-05 0.000000000000D+00  6 2 -2 25 3 -3 21 2 0.10077498D+00 0.61099016D-01 0.24880540D+06 0.24880540D+06 0.24880540D+06 0.10906156D+01  1  2 15  1  6  1        2 -.929973156161D-05 0.100000000000D+01
-.103930930404D-07 0.000000000000D+00 0.000000000000D+00 0.116913926546D-05 0.000000000000D+00  6 2 -2 25 3 -3 21 2 0.10077498D+00 0.61099016D-01 0.24880540D+06 0.24880540D+06 0.24880540D+06 0.10906156D+01  1  2  4  1  6  1        2 -.172113184904D-06 0.100000000000D+01
-.560935835602D-05 0.000000000000D+00 -.167754272274D-05 0.116913926546D-05 0.000000000000D+00  6 2 -2 25 3 -3 21 2 0.14137282D+00 0.61099016D-01 0.24880540D+06 0.24880540D+06 0.24880540D+06 0.10906156D+01  1  2  5  1  6  1        2 -.604192520476D-04 0.100000000000D+01
0.592616154607D-05 0.000000000000D+00 0.158581317414D-05 0.116913926546D-05 0.000000000000D+00  6 2 -2 25 3 -3 21 2 0.10077498D+00 0.61099016D-01 0.24880540D+06 0.24880540D+06 0.24880540D+06 0.10906156D+01  1  2  6  1  6  1        2 0.981392674908D-04 0.100000000000D+01
-.191382753137D-06 0.000000000000D+00 -.707445219525D-07 0.116913926546D-05 0.000000000000D+00  6 21 -2 25 3 -3 -2 2 0.14137282D+00 0.61099016D-01 0.24880540D+06 0.24880540D+06 0.24880540D+06 0.10906156D+01  1  2  5  5  6  1        2 -.165239845756D-05 0.100000000000D+01
  </mgrwgt>
  </event>
  <event>
  7     66 0.18842058E-05 0.75059702E+02 0.75467711E-02 0.94638322E-01
        2 -1    0    0  503    0 0.00000000E+00 0.00000000E+00 0.11799242E+04 0.11799242E+04 0.32000000E+00 0.0000E+00 0.9000E+01
       -2 -1    0    0    0  501 0.00000000E+00 0.00000000E+00 -.21767473E+03 0.21767497E+03 0.32000000E+00 0.0000E+00 0.9000E+01
       23  2    1    2    0    0 0.11840763E+03 -.46783428E+03 0.58918913E+03 0.76752456E+03 0.95188426E+02 0.0000E+00 0.0000E+00
       25  1    1    2    0    0 -.12910044E+03 0.46090033E+03 0.36687898E+03 0.61589060E+03 0.12500000E+03 0.0000E+00 0.9000E+01
        3  1    3    3  502    0 0.49229896E+01 -.20620779E+03 0.23140346E+03 0.30998984E+03 0.50000000E+00 0.0000E+00 0.9000E+01
       -3  1    3    3    0  502 0.11348464E+03 -.26162648E+03 0.35778567E+03 0.45753471E+03 0.50000000E+00 0.0000E+00 0.9000E+01
       21  1    1    2  503  501 0.10692803E+02 0.69339445E+01 0.61813371E+01 0.14184042E+02 0.75000000E+00 0.0000E+00 0.9000E+01
#aMCatNLO 2  0  0  1  4 0.16568003D+03 0.00000000D+00  -5  6  0 0.00000000D+00 0.00000000D+00 0.00000000D+00 0.00000000D+00 0.00000000D+00
  <mgrwgt>
 0.8023543140D-03    1    2    0
 0.499902200059544D+03 0.000000000000000D+00 0.000000000000000D+00 0.499902200059544D+03
 0.499902200059544D+03 0.000000000000000D+00 0.000000000000000D+00 -.499902200059544D+03
 0.503184924774913D+03 -.123729072419385D+03 0.464383493896381D+03 -.812967142974615D+02
 0.206268007854346D+03 0.713319878683037D+01 -.204771073743934D+03 0.237574387724035D+02
 0.290351467489830D+03 0.116595873632554D+03 -.259612420152447D+03 0.575392755250580D+02
 0.000000000000000D+00 0.000000000000000D+00 0.000000000000000D+00 -.000000000000000D+00
 0.504284620933307D+03 0.000000000000000D+00 0.000000000000000D+00 0.504284620933307D+03
 0.509294647433256D+03 0.000000000000000D+00 0.000000000000000D+00 -.509294647433256D+03
 0.501328431763699D+03 -.129100436719524D+03 0.460900334104799D+03 -.812967142974615D+02
 0.207628624533616D+03 0.491999815521579D+01 -.206206264324946D+03 0.237574387724035D+02
 0.290928564223001D+03 0.113487635409137D+03 -.261628014291572D+03 0.575392755250580D+02
 0.136936478462467D+02 0.106928031551706D+02 0.693394451171885D+01 -.501002649994918D+01
0.335231617456D-04 0.000000000000D+00 0.000000000000D+00 0.347249658295D-05 0.135643511031D-06  6 2 -2 25 3 -3 21 2 0.18152314D+00 0.33487763D-01 0.24944225D+06 0.24944225D+06 0.24944225D+06 0.10905321D+01  1  2  1  1  6  1        2 0.802354314018D-03 0.100000000000D+01
  </mgrwgt>
  </event>
  <event>
  7     66 0.18842058E-05 0.93088560E+02 0.75467711E-02 0.92702971E-01
        2 -1    0    0  503    0 0.00000000E+00 0.00000000E+00 0.60594557E+03 0.60594566E+03 0.32000000E+00 0.0000E+00 0.9000E+01
       -2 -1    0    0    0  501 0.00000000E+00 0.00000000E+00 -.66953266E+03 0.66953273E+03 0.32000000E+00 0.0000E+00 0.9000E+01
       23  2    1    2    0    0 0.44887349E+03 0.35840765E+03 -.16033701E+03 0.60324641E+03 0.90856076E+02 0.0000E+00 0.0000E+00
       25  1    1    2    0    0 -.40520847E+03 -.24200892E+03 -.36971569E+02 0.48964693E+03 0.12500000E+03 0.0000E+00 0.9000E+01
        3  1    3    3  502    0 0.29087505E+03 0.26117550E+03 -.14554003E+03 0.41713677E+03 0.50000000E+00 0.0000E+00 0.9000E+01
       -3  1    3    3    0  502 0.15799844E+03 0.97232150E+02 -.14796978E+02 0.18610964E+03 0.50000000E+00 0.0000E+00 0.9000E+01
       21  1    1    2  503  501 -.43665022E+02 -.11639873E+03 0.13372150E+03 0.18258505E+03 0.75000000E+00 0.0000E+00 0.9000E+01
#aMCatNLO 2  0  0  1  4 0.16568003D+03 0.00000000D+00  -5  6  0 0.00000000D+00 0.00000000D+00 0.00000000D+00 0.00000000D+00 0.00000000D+00
  <mgrwgt>
 0.8733662109D-04    1    2    0
 0.533860911862935D+03 0.000000000000000D+00 0.000000000000000D+00 0.533860911862935D+03
 0.533860911862935D+03 0.000000000000000D+00 0.000000000000000D+00 -.533860911862935D+03
 0.537312266572007D+03 -.426165193564364D+03 -.297873676220470D+03 0.522874040080198D+02
 0.359713781851074D+03 0.275449965051353D+03 0.220050775826556D+03 -.714071261495733D+02
 0.170695775302789D+03 0.150715228513011D+03 0.778229003939135D+02 0.191197221415536D+02
 0.000000000000000D+00 -.000000000000000D+00 -.000000000000000D+00 0.000000000000000D+00
 0.727291753454217D+03 0.000000000000000D+00 0.000000000000000D+00 0.727291753454217D+03
 0.557822230178469D+03 0.000000000000000D+00 0.000000000000000D+00 -.557822230178469D+03
 0.491040928357454D+03 -.405208470360773D+03 -.242008917712002D+03 0.522874040080198D+02
 0.397397593201626D+03 0.290879074037937D+03 0.261180461949848D+03 -.714071261495733D+02
 0.186496449057167D+03 0.157994418788586D+03 0.972271843046959D+02 0.191197221415536D+02
 0.210179013016438D+03 -.436650224657496D+02 -.116398728542542D+03 0.169469523275748D+03
0.160743147871D-04 0.000000000000D+00 0.000000000000D+00 0.314259275842D-04 0.130820108218D-07  6 2 -2 25 3 -3 21 2 0.93222300D-01 0.10300492D+00 0.35343724D+06 0.35343724D+06 0.35343724D+06 0.10793238D+01  1  2  1  1  6  1        2 0.873366210931D-04 0.100000000000D+01
  </mgrwgt>
  </event>
  <event>
  7     66 0.18842058E-05 0.48054613E+02 0.75467711E-02 0.94632731E-01
        2 -1    0    0  501    0 0.00000000E+00 0.00000000E+00 0.17439072E+04 0.17439072E+04 0.32000000E+00 0.0000E+00 0.9000E+01
       -2 -1    0    0    0  503 0.00000000E+00 0.00000000E+00 -.16069744E+03 0.16069776E+03 0.32000000E+00 0.0000E+00 0.9000E+01
       23  2    1    2    0    0 0.10963347E+02 -.49098988E+03 0.10743024E+04 0.11848474E+04 0.92447078E+02 0.0000E+00 0.0000E+00
       25  1    1    2    0    0 -.14169163E+02 0.46799660E+03 0.49478264E+03 0.69257233E+03 0.12500000E+03 0.0000E+00 0.9000E+01
        3  1    3    3  502    0 -.62315822E+01 -.14568589E+03 0.42366089E+03 0.44805358E+03 0.50000000E+00 0.0000E+00 0.9000E+01
       -3  1    3    3    0  502 0.17194929E+02 -.34530398E+03 0.65064149E+03 0.73679380E+03 0.50000000E+00 0.0000E+00 0.9000E+01
       21  1    1    2  501  503 0.32058159E+01 0.22993278E+02 0.14124744E+02 0.27185272E+02 0.75000000E+00 0.0000E+00 0.9000E+01
#aMCatNLO 2  0  0  2  5 0.16806179D+03 0.00000000D+00  -5  6  0 0.00000000D+00 0.00000000D+00 0.00000000D+00 0.00000000D+00 0.00000000D+00
  <mgrwgt>
 0.3265734084D-03    1    2    0
 0.515300405648109D+03 0.000000000000000D+00 0.000000000000000D+00 0.515300405648109D+03
 0.515300405648109D+03 0.000000000000000D+00 0.000000000000000D+00 -.515300405648109D+03
 0.518734585975456D+03 -.125721464756762D+02 0.479450980420527D+03 -.153066224863349D+03
 0.167911368023428D+03 -.570500675516923D+01 -.141898347981614D+03 0.895909551769124D+02
 0.343954857297335D+03 0.182771532308454D+02 -.337552632438913D+03 0.634752696864364D+02
 0.000000000000000D+00 0.000000000000000D+00 0.000000000000000D+00 -.000000000000000D+00
 0.521604130869571D+03 0.000000000000000D+00 0.000000000000000D+00 0.521604130869571D+03
 0.537258769110991D+03 0.000000000000000D+00 0.000000000000000D+00 -.537258769110991D+03
 0.508208470568230D+03 -.141691628933922D+02 0.467996597408873D+03 -.153066224863349D+03
 0.171137542207616D+03 -.623226741738169D+01 -.145680053357315D+03 0.895909551769124D+02
 0.351516247834700D+03 0.171956144192572D+02 -.345309822441767D+03 0.634752696864364D+02
 0.280006393700159D+02 0.320581589151670D+01 0.229932783902088D+02 -.156546382414202D+02
0.164180955771D-04 0.000000000000D+00 0.000000000000D+00 0.226846287780D-04 0.266978072675D-06  6 2 -2 25 3 -3 21 2 0.26829088D+00 0.24722473D-01 0.24968831D+06 0.24968831D+06 0.24968831D+06 0.10904999D+01  1  2  1  2  6  2       -2 0.326573408430D-03 0.100000000000D+01
  </mgrwgt>
  </event>
  <event>
  7     66 0.18842058E-05 0.66233183E+02 0.75467711E-02 0.93294055E-01
        2 -1    0    0  501    0 0.00000000E+00 0.00000000E+00 0.14696704E+04 0.14696704E+04 0.32000000E+00 0.0000E+00 0.9000E+01
       -2 -1    0    0    0  503 0.00000000E+00 0.00000000E+00 -.23677945E+03 0.23677967E+03 0.32000000E+00 0.0000E+00 0.9000E+01
       23  2    1    2    0    0 -.48276925E+03 -.24965156E+03 0.69094329E+03 0.88384344E+03 0.91567186E+02 0.0000E+00 0.0000E+00
       25  1    1    2    0    0 0.49414408E+03 0.25091445E+03 0.56224041E+03 0.79929702E+03 0.12500000E+03 0.0000E+00 0.9000E+01
        3  1    3    3  502    0 -.17001932E+03 -.12144271E+03 0.31819981E+03 0.38066556E+03 0.50000000E+00 0.0000E+00 0.9000E+01
       -3  1    3    3    0  502 -.31274993E+03 -.12820885E+03 0.37274349E+03 0.50317788E+03 0.50000000E+00 0.0000E+00 0.9000E+01
       21  1    1    2  501  503 -.11374834E+02 -.12628904E+01 -.20292751E+02 0.23309654E+02 0.75000000E+00 0.0000E+00 0.9000E+01
#aMCatNLO 2  0  0  2  1 0.13540908D+03 0.00000000D+00  -5  6  0 0.00000000D+00 0.00000000D+00 0.00000000D+00 0.00000000D+00 0.00000000D+00
  <mgrwgt>
 0.3296558875D-03    1    2    0
 0.561774290563866D+03 0.000000000000000D+00 0.000000000000000D+00 0.561774290563866D+03
 0.561774290563866D+03 0.000000000000000D+00 0.000000000000000D+00 -.561774290563866D+03
 0.564996425620112D+03 0.488397593149059D+03 0.250276441740940D+03 -.492489053604528D+02
 0.217199278376675D+03 -.172204480271254D+03 -.121685583722014D+03 0.520937828928589D+02
 0.341352877130945D+03 -.316193112877805D+03 -.128590858018925D+03 -.284487753240611D+01
 0.000000000000000D+00 -.000000000000000D+00 -.000000000000000D+00 -.000000000000000D+00
 0.562378213864661D+03 0.000000000000000D+00 0.000000000000000D+00 0.562378213864661D+03
 0.618773876702821D+03 0.000000000000000D+00 0.000000000000000D+00 -.618773876702821D+03
 0.570251601848285D+03 0.494144083965077D+03 0.250914445605763D+03 -.492489053604528D+02
 0.215330366833888D+03 -.170015066527545D+03 -.121442504167047D+03 0.520937828928589D+02
 0.338024900245208D+03 -.312754183178007D+03 -.128209051015387D+03 -.284487753240611D+01
 0.575452216401010D+02 -.113748342595257D+02 -.126289042332945D+01 -.563956628381592D+02
0.239300950773D-04 0.000000000000D+00 0.000000000000D+00 0.477140061623D-04 0.228873579340D-05  6 2 -2 25 3 -3 21 2 0.22610218D+00 0.36427469D-01 0.31725766D+06 0.31725766D+06 0.31725766D+06 0.10827593D+01  1  2  1  2  6  2       -2 0.329655887528D-03 0.100000000000D+01
  </mgrwgt>
  </event>
  <event>
  7     66 0.18842058E-05 0.57478855E+02 0.75467711E-02 0.94475666E-01
        2 -1    0    0  501    0 0.00000000E+00 0.00000000E+00 0.15560493E+04 0.15560494E+04 0.32000000E+00 0.0000E+00 0.9000E+01
       -2 -1    0    0    0  503 0.00000000E+00 0.00000000E+00 -.22091333E+03 0.22091356E+03 0.32000000E+00 0.0000E+00 0.9000E+01
       23  2    1    2    0    0 0.43831477E+02 -.49175262E+03 0.66605569E+03 0.83416227E+03 0.91949294E+02 0.0000E+00 0.0000E+00
       25  1    1    2    0    0 -.36994940E+02 0.48366022E+03 0.72758143E+03 0.88334340E+03 0.12500000E+03 0.0000E+00 0.9000E+01
        3  1    3    3  502    0 0.71776986E+02 -.33599673E+03 0.47071306E+03 0.58276648E+03 0.50000000E+00 0.0000E+00 0.9000E+01
       -3  1    3    3    0  502 -.27945509E+02 -.15575589E+03 0.19534263E+03 0.25139579E+03 0.50000000E+00 0.0000E+00 0.9000E+01
       21  1    1    2  501  503 -.68365367E+01 0.80924040E+01 -.58501097E+02 0.59457263E+02 0.75000000E+00 0.0000E+00 0.9000E+01
#aMCatNLO 2  0  0  2  1 0.40737087D+02 0.00000000D+00  -5  6  0 0.00000000D+00 0.00000000D+00 0.00000000D+00 0.00000000D+00 0.00000000D+00
  <mgrwgt>
 0.1132197964D-02    1    2    0
 0.501868780193813D+03 0.000000000000000D+00 0.000000000000000D+00 0.501868780193813D+03
 0.501868780193813D+03 0.000000000000000D+00 0.000000000000000D+00 -.501868780193813D+03
 0.505440594019597D+03 -.404232079077122D+02 0.487718255113147D+03 0.184949175375364D+02
 0.340424875307130D+03 0.694505128529375D+02 -.333244721870529D+03 -.369828849240301D+01
 0.157872091060899D+03 -.290273049452253D+02 -.154473533242619D+03 -.147966290451334D+02
 0.000000000000000D+00 -.000000000000000D+00 0.000000000000000D+00 -.000000000000000D+00
 0.502050213698889D+03 0.000000000000000D+00 0.000000000000000D+00 0.502050213698889D+03
 0.684694891543135D+03 0.000000000000000D+00 0.000000000000000D+00 -.684694891543135D+03
 0.501261301698423D+03 -.369949398806258D+02 0.483660216504217D+03 0.184949175375364D+02
 0.343603577070440D+03 0.717799341869768D+02 -.336002056371598D+03 -.369828849240301D+01
 0.158928583736336D+03 -.279484576429739D+02 -.155750564084748D+03 -.147966290451334D+02
 0.182951642736824D+03 -.683653666337718D+01 0.809240395212865D+01 -.182644677844246D+03
0.791298917099D-04 0.000000000000D+00 0.000000000000D+00 0.309735959861D-04 0.183383959626D-05  6 2 -2 25 3 -3 21 2 0.23939186D+00 0.33986634D-01 0.25671225D+06 0.25671225D+06 0.25671225D+06 0.10895945D+01  1  2  1  2  6  2       -2 0.113219796414D-02 0.100000000000D+01
  </mgrwgt>
  </event>
</LesHouchesEvents>
