<event>
 5    0  0.1856407E+000  0.2497631E+03  0.7546771E-02  0.1113455E+00
         21   -1    0    0  502  501  0.00000000000E+00  0.00000000000E+00  0.22810520511E+03  0.22810520511E+03  0.00000000000E+00 0.  1.
         21   -1    0    0  503  502 -0.00000000000E+00 -0.00000000000E+00 -0.27070138005E+03  0.27070138005E+03  0.00000000000E+00 0.  1.
         25    1    1    2    0    0 -0.51789618761E+02  0.20993909968E+03  0.52008397478E+02  0.25512048838E+03  0.12500000000E+03 0.  0.
         21    1    1    2  503  504  0.21240894023E+02 -0.12797389739E+03 -0.86325334140E+02  0.15582219774E+03  0.00000000000E+00 0.  1.
         21    1    1    2  504  501  0.30548724738E+02 -0.81965202285E+02 -0.82792382779E+01  0.87863899044E+02  0.00000000000E+00 0.  1.
<mgrwt>
<rscale>  4 0.24976307E+03</rscale>
<asrwt>0</asrwt>
<pdfrwt beam="1">  1       21 0.35093109E-01 0.24976307E+03</pdfrwt>
<pdfrwt beam="2">  1       21 0.41646366E-01 0.24976307E+03</pdfrwt>
<totfact> 0.42319996E+04</totfact>
</mgrwt>
</event>
<event>
 5    0  0.1856407E+000  0.2948207E+03  0.7546771E-02  0.1087859E+00
         21   -1    0    0  502  501  0.00000000000E+00  0.00000000000E+00  0.14245341145E+04  0.14245341145E+04  0.00000000000E+00 0. -1.
         21   -1    0    0  503  502 -0.00000000000E+00 -0.00000000000E+00 -0.12682993788E+03  0.12682993788E+03  0.00000000000E+00 0.  1.
         25    1    1    2    0    0 -0.20239096351E+03 -0.17416117720E+03  0.12351828029E+04  0.12698802205E+04  0.12500000000E+03 0.  0.
         21    1    1    2  503  504  0.55601743476E+02  0.39045970971E+02  0.44381883079E+02  0.81153516697E+02  0.00000000000E+00 0. -1.
         21    1    1    2  504  501  0.14678922004E+03  0.13511520623E+03  0.18139490641E+02  0.20033031521E+03  0.00000000000E+00 0.  1.
<mgrwt>
<rscale>  4 0.29482065E+03</rscale>
<asrwt>0</asrwt>
<pdfrwt beam="1">  1       21 0.21915908E+00 0.29482065E+03</pdfrwt>
<pdfrwt beam="2">  1       21 0.19512299E-01 0.29482065E+03</pdfrwt>
<totfact> 0.22535035E+03</totfact>
</mgrwt>
</event>
<event>
 5    0  0.1856407E+000  0.2763297E+03  0.7546771E-02  0.1097711E+00
         21   -1    0    0  502  501  0.00000000000E+00  0.00000000000E+00  0.75674135828E+03  0.75674135828E+03  0.00000000000E+00 0. -1.
         21   -1    0    0  503  502 -0.00000000000E+00 -0.00000000000E+00 -0.12776310950E+03  0.12776310950E+03  0.00000000000E+00 0. -1.
         25    1    1    2    0    0  0.12547724249E+03  0.21210507535E+03  0.55052863938E+03  0.61598691881E+03  0.12500000000E+03 0.  0.
         21    1    1    2  503  504 -0.10748455328E+03 -0.13059385167E+03  0.29323950419E+02  0.17166122846E+03  0.00000000000E+00 0. -1.
         21    1    1    2  504  501 -0.17992689211E+02 -0.81511223680E+02  0.49125658979E+02  0.96856320501E+02  0.00000000000E+00 0.  1.
<mgrwt>
<rscale>  4 0.27632970E+03</rscale>
<asrwt>0</asrwt>
<pdfrwt beam="1">  1       21 0.11642174E+00 0.27632970E+03</pdfrwt>
<pdfrwt beam="2">  1       21 0.19655864E-01 0.27632970E+03</pdfrwt>
<totfact> 0.12912421E+04</totfact>
</mgrwt>
</event>
<event>
 5    0  0.1856407E+000  0.3189056E+03  0.7546771E-02  0.1076154E+00
         21   -1    0    0  502  501  0.00000000000E+00  0.00000000000E+00  0.86707537715E+03  0.86707537715E+03  0.00000000000E+00 0. -1.
         21   -1    0    0  503  502 -0.00000000000E+00 -0.00000000000E+00 -0.12717593430E+03  0.12717593430E+03  0.00000000000E+00 0.  1.
         25    1    1    2    0    0  0.27247660313E+03  0.10877633953E+03  0.56000814725E+03  0.64444543313E+03  0.12500000000E+03 0.  0.
         21    1    1    2  503  504 -0.73854276758E+02 -0.40790681856E+02  0.83831427898E+02  0.11893713560E+03  0.00000000000E+00 0.  1.
         21    1    1    2  504  501 -0.19862232637E+03 -0.67985657672E+02  0.96059867697E+02  0.23086874272E+03  0.00000000000E+00 0.  1.
<mgrwt>
<rscale>  4 0.31890562E+03</rscale>
<asrwt>0</asrwt>
<pdfrwt beam="1">  1       21 0.13339621E+00 0.31890562E+03</pdfrwt>
<pdfrwt beam="2">  1       21 0.19565529E-01 0.31890562E+03</pdfrwt>
<totfact> 0.90406710E+03</totfact>
</mgrwt>
</event>
<event>
 5    0  0.1856407E+000  0.4406189E+03  0.7546771E-02  0.1030633E+00
         21   -1    0    0  502  501  0.00000000000E+00  0.00000000000E+00  0.19597777042E+03  0.19597777042E+03  0.00000000000E+00 0.  1.
         21   -1    0    0  503  502 -0.00000000000E+00 -0.00000000000E+00 -0.18645172292E+04  0.18645172292E+04  0.00000000000E+00 0. -1.
         25    1    1    2    0    0 -0.33029719654E+03 -0.26182059835E+03 -0.12755923945E+03  0.45775825862E+03  0.12500000000E+03 0.  0.
         21    1    1    2  503  504  0.24922082269E+03  0.25775317630E+03 -0.12943857005E+04  0.13431239928E+04  0.00000000000E+00 0. -1.
         21    1    1    2  504  501  0.81076373850E+02  0.40674220537E+01 -0.24659451882E+03  0.25961274821E+03  0.00000000000E+00 0. -1.
<mgrwt>
<rscale>  4 0.44037054E+03</rscale>
<asrwt>0</asrwt>
<pdfrwt beam="1">  1       21 0.30150426E-01 0.44061891E+03</pdfrwt>
<pdfrwt beam="2">  1       21 0.28684881E+00 0.44061891E+03</pdfrwt>
<totfact> 0.34272720E+02</totfact>
</mgrwt>
</event>
<event>
 5    0  0.1856407E+000  0.2444163E+03  0.7546771E-02  0.1116885E+00
         21   -1    0    0  502  501  0.00000000000E+00  0.00000000000E+00  0.17577746207E+03  0.17577746207E+03  0.00000000000E+00 0. -1.
         21   -1    0    0  503  502 -0.00000000000E+00 -0.00000000000E+00 -0.11022481571E+04  0.11022481571E+04  0.00000000000E+00 0.  1.
         25    1    1    2    0    0 -0.19626505465E+03  0.11635066784E+03  0.44584318556E+02  0.26395115276E+03  0.12500000000E+03 0.  0.
         21    1    1    2  503  504  0.15176173772E+03  0.15945896549E+02 -0.49750548406E+03  0.52038217045E+03  0.00000000000E+00 0.  1.
         21    1    1    2  504  501  0.44503316931E+02 -0.13229656439E+03 -0.47354952956E+03  0.49369229598E+03  0.00000000000E+00 0.  1.
<mgrwt>
<rscale>  4 0.24441630E+03</rscale>
<asrwt>0</asrwt>
<pdfrwt beam="1">  1       21 0.27042687E-01 0.24441630E+03</pdfrwt>
<pdfrwt beam="2">  1       21 0.16957664E+00 0.24441630E+03</pdfrwt>
<totfact> 0.26774912E+03</totfact>
</mgrwt>
</event>
<event>
 5    0  0.1856407E+000  0.3496127E+03  0.7546771E-02  0.1062774E+00
         21   -1    0    0  502  501  0.00000000000E+00  0.00000000000E+00  0.52798125950E+03  0.52798125950E+03  0.00000000000E+00 0.  1.
         21   -1    0    0  503  502 -0.00000000000E+00 -0.00000000000E+00 -0.31452364425E+03  0.31452364425E+03  0.00000000000E+00 0.  1.
         25    1    1    2    0    0  0.32949816362E+03  0.21786090607E+02  0.32340674338E+03  0.47881164902E+03  0.12500000000E+03 0.  0.
         21    1    1    2  503  504 -0.31479392242E+03 -0.38101126962E+02 -0.80851215274E+02  0.32723665516E+03  0.00000000000E+00 0.  1.
         21    1    1    2  504  501 -0.14704241200E+02  0.16315036355E+02 -0.29097912846E+02  0.36456599575E+02  0.00000000000E+00 0. -1.
<mgrwt>
<rscale>  4 0.34961266E+03</rscale>
<asrwt>0</asrwt>
<pdfrwt beam="1">  1       21 0.81227886E-01 0.34961266E+03</pdfrwt>
<pdfrwt beam="2">  1       21 0.48388253E-01 0.34961266E+03</pdfrwt>
<totfact> 0.49470412E+03</totfact>
</mgrwt>
</event>
<event>
 5    0  0.1856407E+000  0.2492860E+03  0.7546771E-02  0.1113757E+00
         21   -1    0    0  502  501  0.00000000000E+00  0.00000000000E+00  0.11327404286E+04  0.11327404286E+04  0.00000000000E+00 0. -1.
         21   -1    0    0  503  502 -0.00000000000E+00 -0.00000000000E+00 -0.94929065877E+02  0.94929065877E+02  0.00000000000E+00 0. -1.
         25    1    1    2    0    0 -0.21547930103E+03 -0.93376739173E+01  0.96255906207E+03  0.99431557833E+03  0.12500000000E+03 0.  0.
         21    1    1    2  503  504  0.12008266031E+03  0.28870396504E+02  0.41158653468E+02  0.13018210268E+03  0.00000000000E+00 0. -1.
         21    1    1    2  504  501  0.95396640715E+02 -0.19532722587E+02  0.34093647137E+02  0.10317181343E+03  0.00000000000E+00 0. -1.
<mgrwt>
<rscale>  4 0.24928602E+03</rscale>
<asrwt>0</asrwt>
<pdfrwt beam="1">  1       21 0.17426775E+00 0.24928602E+03</pdfrwt>
<pdfrwt beam="2">  1       21 0.14604472E-01 0.24928602E+03</pdfrwt>
<totfact> 0.78674111E+03</totfact>
</mgrwt>
</event>
