<event>
 5    0  0.1911311E+001  0.2960160E+03  0.7546771E-02  0.1087249E+00
         21   -1    0    0  502  501  0.00000000000E+00  0.00000000000E+00  0.50568385629E+03  0.50568385629E+03  0.00000000000E+00 0. -1.
         21   -1    0    0  504  502 -0.00000000000E+00 -0.00000000000E+00 -0.96914445510E+03  0.96914445510E+03  0.00000000000E+00 0.  1.
         25    1    1    2    0    0  0.21096278407E+02  0.25832572665E+03  0.39457364745E+03  0.48835499104E+03  0.12500000000E+03 0.  0.
         21    1    1    2  503  501  0.18807604653E+02  0.74562507326E+01  0.42295392438E+02  0.46885199043E+02  0.00000000000E+00 0. -1.
         21    1    1    2  504  503 -0.39903883060E+02 -0.26578197738E+03 -0.90032963870E+03  0.93958812131E+03  0.00000000000E+00 0.  1.
<mgrwt>
<rscale>  4 0.29601604E+03</rscale>
<asrwt>0</asrwt>
<pdfrwt beam="1">  1       21 0.77797517E-01 0.29601604E+03</pdfrwt>
<pdfrwt beam="2">  1       21 0.14909915E+00 0.29601604E+03</pdfrwt>
<totfact> 0.40357684E+02</totfact>
</mgrwt>
</event>
<event>
 5    0  0.1911311E+001  0.2429941E+03  0.7546771E-02  0.1117814E+00
         21   -1    0    0  502  501  0.00000000000E+00  0.00000000000E+00  0.13440152724E+03  0.13440152724E+03  0.00000000000E+00 0.  1.
         21   -1    0    0  504  502 -0.00000000000E+00 -0.00000000000E+00 -0.57954767223E+03  0.57954767223E+03  0.00000000000E+00 0.  1.
         25    1    1    2    0    0  0.18003056088E+03 -0.11300998428E+03 -0.75666762286E+02  0.25793936945E+03  0.12500000000E+03 0.  0.
         21    1    1    2  503  501  0.64518381386E+01  0.22168201355E+02  0.87038684246E+01  0.24674130020E+02  0.00000000000E+00 0.  1.
         21    1    1    2  504  503 -0.18648239902E+03  0.90841782921E+02 -0.37818325112E+03  0.43133570000E+03  0.00000000000E+00 0.  1.
<mgrwt>
<rscale>  4 0.24299409E+03</rscale>
<asrwt>0</asrwt>
<pdfrwt beam="1">  1       21 0.20677158E-01 0.24299409E+03</pdfrwt>
<pdfrwt beam="2">  1       21 0.89161181E-01 0.24299409E+03</pdfrwt>
<totfact> 0.22646265E+04</totfact>
</mgrwt>
</event>
<event>
 5    0  0.1911311E+001  0.2382571E+03  0.7546771E-02  0.1120959E+00
         21   -1    0    0  503  501  0.00000000000E+00  0.00000000000E+00  0.13075907184E+03  0.13075907184E+03  0.00000000000E+00 0.  1.
         21   -1    0    0  504  502 -0.00000000000E+00 -0.00000000000E+00 -0.92715449033E+03  0.92715449033E+03  0.00000000000E+00 0.  1.
         25    1    1    2    0    0 -0.25474564917E+03  0.17232161425E+02 -0.21431554687E+03  0.35601748102E+03  0.12500000000E+03 0.  0.
         21    1    1    2  503  502  0.18789293706E+03 -0.40133821614E+02 -0.59914573413E+03  0.62919797375E+03  0.00000000000E+00 0.  1.
         21    1    1    2  504  501  0.66852712117E+02  0.22901660189E+02  0.17065862510E+02  0.72698107404E+02  0.00000000000E+00 0.  1.
<mgrwt>
<rscale>  4 0.23825707E+03</rscale>
<asrwt>0</asrwt>
<pdfrwt beam="1">  1       21 0.20116779E-01 0.23825707E+03</pdfrwt>
<pdfrwt beam="2">  1       21 0.14263916E+00 0.23825707E+03</pdfrwt>
<totfact> 0.75314607E+03</totfact>
</mgrwt>
</event>
<event>
 5    0  0.1911311E+001  0.4015142E+03  0.7546771E-02  0.1043257E+00
         21   -1    0    0  502  501  0.00000000000E+00  0.00000000000E+00  0.17059378221E+03  0.17059378221E+03  0.00000000000E+00 0.  1.
         21   -1    0    0  504  502 -0.00000000000E+00 -0.00000000000E+00 -0.12603930511E+04  0.12603930511E+04  0.00000000000E+00 0. -1.
         25    1    1    2    0    0 -0.82564303338E+02 -0.34846042025E+03 -0.60741272679E+03  0.71611224632E+03  0.12500000000E+03 0.  0.
         21    1    1    2  503  501  0.63813108730E+02  0.38868479477E+03 -0.22486144695E+03  0.45355336275E+03  0.00000000000E+00 0.  1.
         21    1    1    2  504  503  0.18751194608E+02 -0.40224374516E+02 -0.25752509519E+03  0.26132122427E+03  0.00000000000E+00 0.  1.
<mgrwt>
<rscale>  4 0.40151424E+03</rscale>
<asrwt>0</asrwt>
<pdfrwt beam="1">  1       21 0.26245197E-01 0.40151424E+03</pdfrwt>
<pdfrwt beam="2">  1       21 0.19390662E+00 0.40151424E+03</pdfrwt>
<totfact> 0.17520578E+03</totfact>
</mgrwt>
</event>
