<event>
 5    0  0.1972558E-002  0.4073121E+03  0.7546771E-02  0.1041277E+00
         21   -1    0    0  501  502  0.00000000000E+00  0.00000000000E+00  0.22419909275E+03  0.22419909275E+03  0.00000000000E+00 0.  1.
         21   -1    0    0  502  503 -0.00000000000E+00 -0.00000000000E+00 -0.22556573098E+04  0.22556573098E+04  0.00000000000E+00 0.  1.
         25    1    1    2    0    0 -0.37246034200E+03 -0.84663030396E+02 -0.16496509909E+04  0.16979010357E+04  0.12500000000E+03 0.  0.
          3    1    1    2  501    0 -0.37329501599E+02  0.67905123765E+02  0.11441202086E+03  0.13818360265E+03  0.00000000000E+00 0.  1.
         -3    1    1    2    0  503  0.40978984360E+03  0.16757906631E+02 -0.49621924701E+03  0.64377176425E+03  0.00000000000E+00 0. -1.
<mgrwt>
<rscale>  4 0.40731211E+03</rscale>
<asrwt>0</asrwt>
<pdfrwt beam="1">  1       21 0.34492168E-01 0.40731211E+03</pdfrwt>
<pdfrwt beam="2">  1       21 0.34702420E+00 0.40731211E+03</pdfrwt>
<totfact> 0.11609073E+02</totfact>
</mgrwt>
</event>
<event>
 5    0  0.1972558E-002  0.2713758E+03  0.7546771E-02  0.1100495E+00
         21   -1    0    0  501  502  0.00000000000E+00  0.00000000000E+00  0.98920513491E+03  0.98920513491E+03  0.00000000000E+00 0.  1.
         21   -1    0    0  502  503 -0.00000000000E+00 -0.00000000000E+00 -0.80865885441E+02  0.80865885441E+02  0.00000000000E+00 0. -1.
         25    1    1    2    0    0 -0.24081637517E+03 -0.52236300380E+01  0.25615664784E+03  0.37317695681E+03  0.12500000000E+03 0.  0.
          4    1    1    2  501    0  0.26708827060E+02  0.14758020488E+02  0.10103419567E+03  0.10554178938E+03  0.00000000000E+00 0. -1.
         -4    1    1    2    0  503  0.21410754811E+03 -0.95343904499E+01  0.55114840596E+03  0.59135227415E+03  0.00000000000E+00 0.  1.
<mgrwt>
<rscale>  4 0.27137578E+03</rscale>
<asrwt>0</asrwt>
<pdfrwt beam="1">  1       21 0.15218540E+00 0.27137578E+03</pdfrwt>
<pdfrwt beam="2">  1       21 0.12440906E-01 0.27137578E+03</pdfrwt>
<totfact> 0.15078419E+04</totfact>
</mgrwt>
</event>
<event>
 5    0  0.1972558E-002  0.2360358E+03  0.7546771E-02  0.1122462E+00
         21   -1    0    0  501  502  0.00000000000E+00  0.00000000000E+00  0.10737777395E+04  0.10737777395E+04  0.00000000000E+00 0.  1.
         21   -1    0    0  502  503 -0.00000000000E+00 -0.00000000000E+00 -0.27338611639E+03  0.27338611639E+03  0.00000000000E+00 0. -1.
         25    1    1    2    0    0  0.18227070984E+03 -0.99635676003E+02 -0.20234070848E+03  0.31577941970E+03  0.12500000000E+03 0.  0.
          4    1    1    2  501    0 -0.11915557866E+03  0.95260833412E+01  0.67972744174E+03  0.69015809293E+03  0.00000000000E+00 0.  1.
         -4    1    1    2    0  503 -0.63115131184E+02  0.90109592662E+02  0.32300488984E+03  0.34122634326E+03  0.00000000000E+00 0. -1.
<mgrwt>
<rscale>  4 0.23603575E+03</rscale>
<asrwt>0</asrwt>
<pdfrwt beam="1">  1       21 0.16519657E+00 0.23603575E+03</pdfrwt>
<pdfrwt beam="2">  1       21 0.42059403E-01 0.23603575E+03</pdfrwt>
<totfact> 0.12043058E+03</totfact>
</mgrwt>
</event>
<event>
 5    0  0.1972558E-002  0.2456144E+03  0.7546771E-02  0.1116108E+00
         21   -1    0    0  501  502  0.00000000000E+00  0.00000000000E+00  0.93837531660E+03  0.93837531660E+03  0.00000000000E+00 0.  1.
         21   -1    0    0  502  503 -0.00000000000E+00 -0.00000000000E+00 -0.74312461731E+02  0.74312461731E+02  0.00000000000E+00 0.  1.
         25    1    1    2    0    0 -0.20808245882E+03  0.37458212595E+02  0.20901463562E+03  0.32251131029E+03  0.12500000000E+03 0.  0.
          4    1    1    2  501    0  0.18951624026E+03 -0.18819710747E+02  0.59128683419E+03  0.62120101989E+03  0.00000000000E+00 0.  1.
         -4    1    1    2    0  503  0.18566218561E+02 -0.18638501847E+02  0.63761385063E+02  0.68975448153E+02  0.00000000000E+00 0. -1.
<mgrwt>
<rscale>  4 0.24561439E+03</rscale>
<asrwt>0</asrwt>
<pdfrwt beam="1">  1       21 0.14436542E+00 0.24561439E+03</pdfrwt>
<pdfrwt beam="2">  1       21 0.11432687E-01 0.24561439E+03</pdfrwt>
<totfact> 0.20471887E+04</totfact>
</mgrwt>
</event>
<event>
 5    0  0.1972558E-002  0.2943542E+03  0.7546771E-02  0.1088097E+00
         21   -1    0    0  501  502  0.00000000000E+00  0.00000000000E+00  0.24496565446E+04  0.24496565446E+04  0.00000000000E+00 0.  1.
         21   -1    0    0  502  503 -0.00000000000E+00 -0.00000000000E+00 -0.18067002083E+03  0.18067002083E+03  0.00000000000E+00 0.  1.
         25    1    1    2    0    0 -0.26142867015E+03 -0.28619160383E+02 -0.36710781110E+02  0.29349052347E+03  0.12500000000E+03 0.  0.
          1    1    1    2  501    0  0.30895614682E+03  0.46269432351E+02  0.16592144129E+04  0.16883682149E+04  0.00000000000E+00 0.  1.
         -1    1    1    2    0  503 -0.47527476679E+02 -0.17650271968E+02  0.64648289200E+03  0.64846782710E+03  0.00000000000E+00 0. -1.
<mgrwt>
<rscale>  4 0.29435417E+03</rscale>
<asrwt>0</asrwt>
<pdfrwt beam="1">  1       21 0.37687021E+00 0.29435417E+03</pdfrwt>
<pdfrwt beam="2">  1       21 0.27795390E-01 0.29435417E+03</pdfrwt>
<totfact> 0.12956603E+02</totfact>
</mgrwt>
</event>
<event>
 5    0  0.1972558E-002  0.2576291E+03  0.7546771E-02  0.1108576E+00
         21   -1    0    0  501  502  0.00000000000E+00  0.00000000000E+00  0.23881208611E+03  0.23881208611E+03  0.00000000000E+00 0. -1.
         21   -1    0    0  502  503 -0.00000000000E+00 -0.00000000000E+00 -0.25044063647E+03  0.25044063647E+03  0.00000000000E+00 0.  1.
         25    1    1    2    0    0 -0.12472886879E+03  0.18759126594E+03 -0.57523644632E+01  0.25769335161E+03  0.12500000000E+03 0.  0.
          3    1    1    2  501    0  0.94677897589E+02 -0.17379508313E+03  0.35421452004E+00  0.19791099181E+03  0.00000000000E+00 0. -1.
         -3    1    1    2    0  503  0.30050971203E+02 -0.13796182812E+02 -0.62304004156E+01  0.33648379155E+02  0.00000000000E+00 0.  1.
<mgrwt>
<rscale>  4 0.25762914E+03</rscale>
<asrwt>0</asrwt>
<pdfrwt beam="1">  1       21 0.36740321E-01 0.25762914E+03</pdfrwt>
<pdfrwt beam="2">  1       21 0.38529329E-01 0.25762914E+03</pdfrwt>
<totfact> 0.45079248E+04</totfact>
</mgrwt>
</event>
<event>
 5    0  0.1972558E-002  0.2910566E+03  0.7546771E-02  0.1089799E+00
         21   -1    0    0  501  502  0.00000000000E+00  0.00000000000E+00  0.17160317759E+03  0.17160317759E+03  0.00000000000E+00 0. -1.
         21   -1    0    0  502  503 -0.00000000000E+00 -0.00000000000E+00 -0.76905554958E+03  0.76905554958E+03  0.00000000000E+00 0. -1.
         25    1    1    2    0    0 -0.29127215961E+03  0.16430563559E+02 -0.45693198973E+03  0.55634636480E+03  0.12500000000E+03 0.  0.
          3    1    1    2  501    0  0.23117630076E+03 -0.13557932170E+02 -0.19530947947E+03  0.30293909013E+03  0.00000000000E+00 0.  1.
         -3    1    1    2    0  503  0.60095858854E+02 -0.28726313894E+01  0.54789097204E+02  0.81373272239E+02  0.00000000000E+00 0. -1.
<mgrwt>
<rscale>  4 0.29105662E+03</rscale>
<asrwt>0</asrwt>
<pdfrwt beam="1">  1       21 0.26400489E-01 0.29105662E+03</pdfrwt>
<pdfrwt beam="2">  1       21 0.11831624E+00 0.29105662E+03</pdfrwt>
<totfact> 0.70122803E+03</totfact>
</mgrwt>
</event>
<event>
 5    0  0.1972558E-002  0.2848641E+03  0.7546771E-02  0.1093062E+00
         21   -1    0    0  501  502  0.00000000000E+00  0.00000000000E+00  0.87153817159E+02  0.87153817159E+02  0.00000000000E+00 0.  1.
         21   -1    0    0  502  503 -0.00000000000E+00 -0.00000000000E+00 -0.18615660288E+04  0.18615660288E+04  0.00000000000E+00 0.  1.
         25    1    1    2    0    0 -0.18103514514E+03  0.18782827073E+03 -0.15644245450E+04  0.15909438520E+04  0.12500000000E+03 0.  0.
          2    1    1    2  501    0  0.16387765126E+03 -0.17158750817E+03 -0.22722889995E+03  0.32852873621E+03  0.00000000000E+00 0.  1.
         -2    1    1    2    0  503  0.17157493882E+02 -0.16240762558E+02  0.17241233288E+02  0.29247257822E+02  0.00000000000E+00 0. -1.
<mgrwt>
<rscale>  4 0.28486406E+03</rscale>
<asrwt>0</asrwt>
<pdfrwt beam="1">  1       21 0.13408280E-01 0.28486406E+03</pdfrwt>
<pdfrwt beam="2">  1       21 0.28639476E+00 0.28486406E+03</pdfrwt>
<totfact> 0.17885058E+03</totfact>
</mgrwt>
</event>
<event>
 5    0  0.1972558E-002  0.2566108E+03  0.7546771E-02  0.1109197E+00
         21   -1    0    0  501  502  0.00000000000E+00  0.00000000000E+00  0.12536467091E+04  0.12536467091E+04  0.00000000000E+00 0. -1.
         21   -1    0    0  502  503 -0.00000000000E+00 -0.00000000000E+00 -0.13991303451E+03  0.13991303451E+03  0.00000000000E+00 0.  1.
         25    1    1    2    0    0 -0.18954690439E+03  0.12447947567E+03  0.35005740875E+02  0.26129211760E+03  0.12500000000E+03 0.  0.
          1    1    1    2  501    0 -0.36719843187E+02 -0.95665943008E+02  0.20400188501E+03  0.22829167445E+03  0.00000000000E+00 0.  1.
         -1    1    1    2    0  503  0.22626674758E+03 -0.28813532657E+02  0.87472604868E+03  0.90397595154E+03  0.00000000000E+00 0. -1.
<mgrwt>
<rscale>  4 0.25661078E+03</rscale>
<asrwt>0</asrwt>
<pdfrwt beam="1">  1       21 0.19286872E+00 0.25661078E+03</pdfrwt>
<pdfrwt beam="2">  1       21 0.21525083E-01 0.25661078E+03</pdfrwt>
<totfact> 0.28424290E+03</totfact>
</mgrwt>
</event>
<event>
 5    0  0.1972558E-002  0.2802491E+03  0.7546771E-02  0.1095553E+00
         21   -1    0    0  501  502  0.00000000000E+00  0.00000000000E+00  0.65959409148E+03  0.65959409148E+03  0.00000000000E+00 0. -1.
         21   -1    0    0  502  503 -0.00000000000E+00 -0.00000000000E+00 -0.21849883249E+04  0.21849883249E+04  0.00000000000E+00 0. -1.
         25    1    1    2    0    0 -0.19822020839E+03 -0.15502891405E+03 -0.21205979233E+04  0.21391320127E+04  0.12500000000E+03 0.  0.
          3    1    1    2  501    0  0.15679604464E+03  0.17080387508E+03  0.19545522824E+03  0.30325189134E+03  0.00000000000E+00 0. -1.
         -3    1    1    2    0  503  0.41424163750E+02 -0.15774961032E+02  0.39974846167E+03  0.40219851237E+03  0.00000000000E+00 0.  1.
<mgrwt>
<rscale>  4 0.28024909E+03</rscale>
<asrwt>0</asrwt>
<pdfrwt beam="1">  1       21 0.10147601E+00 0.28024909E+03</pdfrwt>
<pdfrwt beam="2">  1       21 0.33615205E+00 0.28024909E+03</pdfrwt>
<totfact> 0.14501086E+01</totfact>
</mgrwt>
</event>
<event>
 5    0  0.1972558E-002  0.2972520E+03  0.7546771E-02  0.1086622E+00
         21   -1    0    0  501  502  0.00000000000E+00  0.00000000000E+00  0.95924171369E+03  0.95924171369E+03  0.00000000000E+00 0. -1.
         21   -1    0    0  502  503 -0.00000000000E+00 -0.00000000000E+00 -0.19319073200E+03  0.19319073200E+03  0.00000000000E+00 0.  1.
         25    1    1    2    0    0 -0.19532245095E+03 -0.19020718874E+03 -0.33360933835E+02  0.30177406515E+03  0.12500000000E+03 0.  0.
          1    1    1    2  501    0  0.19442233886E+03  0.16201765807E+03  0.76709428776E+03  0.80776445434E+03  0.00000000000E+00 0. -1.
         -1    1    1    2    0  503  0.90011208737E+00  0.28189530666E+02  0.32317627765E+02  0.42893926205E+02  0.00000000000E+00 0.  1.
<mgrwt>
<rscale>  4 0.29725198E+03</rscale>
<asrwt>0</asrwt>
<pdfrwt beam="1">  1       21 0.14757565E+00 0.29725198E+03</pdfrwt>
<pdfrwt beam="2">  1       21 0.29721652E-01 0.29725198E+03</pdfrwt>
<totfact> 0.31368200E+03</totfact>
</mgrwt>
</event>
<event>
 5    0  0.1972558E-002  0.3019399E+03  0.7546771E-02  0.1084275E+00
         21   -1    0    0  501  502  0.00000000000E+00  0.00000000000E+00  0.16539563218E+04  0.16539563218E+04  0.00000000000E+00 0.  1.
         21   -1    0    0  502  503 -0.00000000000E+00 -0.00000000000E+00 -0.65862660068E+02  0.65862660068E+02  0.00000000000E+00 0.  1.
         25    1    1    2    0    0 -0.27022985368E+03 -0.80795946632E+02  0.48941089940E+03  0.57853278840E+03  0.12500000000E+03 0.  0.
          3    1    1    2  501    0  0.89439142244E+01  0.41306988080E+02  0.20702968500E+03  0.21129967188E+03  0.00000000000E+00 0. -1.
         -3    1    1    2    0  503  0.26128593945E+03  0.39488958553E+02  0.89165307732E+03  0.92998652157E+03  0.00000000000E+00 0.  1.
<mgrwt>
<rscale>  4 0.30193992E+03</rscale>
<asrwt>0</asrwt>
<pdfrwt beam="1">  1       21 0.25445479E+00 0.30193992E+03</pdfrwt>
<pdfrwt beam="2">  1       21 0.10132718E-01 0.30193992E+03</pdfrwt>
<totfact> 0.45261095E+03</totfact>
</mgrwt>
</event>
<event>
 5    0  0.1972558E-002  0.2653537E+03  0.7546771E-02  0.1103969E+00
         21   -1    0    0  501  502  0.00000000000E+00  0.00000000000E+00  0.27610532025E+03  0.27610532025E+03  0.00000000000E+00 0. -1.
         21   -1    0    0  502  503 -0.00000000000E+00 -0.00000000000E+00 -0.32325506595E+03  0.32325506595E+03  0.00000000000E+00 0.  1.
         25    1    1    2    0    0 -0.21832530854E+03 -0.63614304721E+02 -0.14695987278E+03  0.29821959078E+03  0.12500000000E+03 0.  0.
          1    1    1    2  501    0  0.24143897173E+03  0.57602925667E+02  0.61048927932E+02  0.25561268692E+03  0.00000000000E+00 0. -1.
         -1    1    1    2    0  503 -0.23113663183E+02  0.60113790534E+01  0.38761199147E+02  0.45528108495E+02  0.00000000000E+00 0.  1.
<mgrwt>
<rscale>  4 0.26535374E+03</rscale>
<asrwt>0</asrwt>
<pdfrwt beam="1">  1       21 0.42477742E-01 0.26535374E+03</pdfrwt>
<pdfrwt beam="2">  1       21 0.49731548E-01 0.26535374E+03</pdfrwt>
<totfact> 0.19771804E+04</totfact>
</mgrwt>
</event>
<event>
 5    0  0.1972558E-002  0.1743158E+03  0.7546771E-02  0.1173420E+00
         21   -1    0    0  501  502  0.00000000000E+00  0.00000000000E+00  0.10782871357E+04  0.10782871357E+04  0.00000000000E+00 0. -1.
         21   -1    0    0  502  503 -0.00000000000E+00 -0.00000000000E+00 -0.19866523173E+03  0.19866523173E+03  0.00000000000E+00 0. -1.
         25    1    1    2    0    0 -0.74258191379E+02  0.19859259536E+03 -0.60369946627E+02  0.25342223339E+03  0.12500000000E+03 0.  0.
          1    1    1    2  501    0  0.77142672827E+02 -0.91288829096E+02  0.90166300760E+03  0.90954979059E+03  0.00000000000E+00 0. -1.
         -1    1    1    2    0  503 -0.28844814472E+01 -0.10730376627E+03  0.38328842994E+02  0.11398034345E+03  0.00000000000E+00 0.  1.
<mgrwt>
<rscale>  4 0.17431577E+03</rscale>
<asrwt>0</asrwt>
<pdfrwt beam="1">  1       21 0.16589032E+00 0.17431577E+03</pdfrwt>
<pdfrwt beam="2">  1       21 0.30563883E-01 0.17431577E+03</pdfrwt>
<totfact> 0.23880493E+03</totfact>
</mgrwt>
</event>
<event>
 5    0  0.1972558E-002  0.2908064E+03  0.7546771E-02  0.1089929E+00
         21   -1    0    0  501  502  0.00000000000E+00  0.00000000000E+00  0.65086858454E+03  0.65086858454E+03  0.00000000000E+00 0.  1.
         21   -1    0    0  502  503 -0.00000000000E+00 -0.00000000000E+00 -0.36135907698E+03  0.36135907698E+03  0.00000000000E+00 0. -1.
         25    1    1    2    0    0  0.32446914416E+02  0.27710994777E+03 -0.19715648029E+03  0.36378345637E+03  0.12500000000E+03 0.  0.
          2    1    1    2  501    0 -0.26253889479E+02 -0.22826993007E+03  0.86900236584E+02  0.24565845967E+03  0.00000000000E+00 0. -1.
         -2    1    1    2    0  503 -0.61930249371E+01 -0.48840017696E+02  0.39976575126E+03  0.40278574549E+03  0.00000000000E+00 0.  1.
<mgrwt>
<rscale>  4 0.29080639E+03</rscale>
<asrwt>0</asrwt>
<pdfrwt beam="1">  1       21 0.10013363E+00 0.29080639E+03</pdfrwt>
<pdfrwt beam="2">  1       21 0.55593704E-01 0.29080639E+03</pdfrwt>
<totfact> 0.23219978E+03</totfact>
</mgrwt>
</event>
<event>
 5    0  0.1972558E-002  0.2766758E+03  0.7546771E-02  0.1097519E+00
         21   -1    0    0  501  502  0.00000000000E+00  0.00000000000E+00  0.28030292645E+03  0.28030292645E+03  0.00000000000E+00 0.  1.
         21   -1    0    0  502  503 -0.00000000000E+00 -0.00000000000E+00 -0.32509016619E+03  0.32509016619E+03  0.00000000000E+00 0.  1.
         25    1    1    2    0    0  0.40989692463E+02 -0.25724305288E+03 -0.11837134668E+03  0.31223535811E+03  0.12500000000E+03 0.  0.
          3    1    1    2  501    0 -0.21400508625E+02  0.22837532101E+03  0.21380659744E+02  0.23037014048E+03  0.00000000000E+00 0.  1.
         -3    1    1    2    0  503 -0.19589183838E+02  0.28867731871E+02  0.52203447190E+02  0.62787594041E+02  0.00000000000E+00 0. -1.
<mgrwt>
<rscale>  4 0.27667578E+03</rscale>
<asrwt>0</asrwt>
<pdfrwt beam="1">  1       21 0.43123527E-01 0.27667578E+03</pdfrwt>
<pdfrwt beam="2">  1       21 0.50013872E-01 0.27667578E+03</pdfrwt>
<totfact> 0.18845424E+04</totfact>
</mgrwt>
</event>
<event>
 5    0  0.1972558E-002  0.2354283E+03  0.7546771E-02  0.1122876E+00
         21   -1    0    0  501  502  0.00000000000E+00  0.00000000000E+00  0.84282006021E+03  0.84282006021E+03  0.00000000000E+00 0.  1.
         21   -1    0    0  502  503 -0.00000000000E+00 -0.00000000000E+00 -0.13575710066E+03  0.13575710066E+03  0.00000000000E+00 0. -1.
         25    1    1    2    0    0  0.47911569419E+02 -0.23511871027E+03  0.85594933945E+02  0.28377423970E+03  0.12500000000E+03 0.  0.
          1    1    1    2  501    0  0.55742401501E+02  0.70261381041E+02  0.82986518901E+02  0.12219099521E+03  0.00000000000E+00 0. -1.
         -1    1    1    2    0  503 -0.10365397092E+03  0.16485732923E+03  0.53848150671E+03  0.57261192596E+03  0.00000000000E+00 0.  1.
<mgrwt>
<rscale>  4 0.23542829E+03</rscale>
<asrwt>0</asrwt>
<pdfrwt beam="1">  1       21 0.12966462E+00 0.23542829E+03</pdfrwt>
<pdfrwt beam="2">  1       21 0.20885708E-01 0.23542829E+03</pdfrwt>
<totfact> 0.89888002E+03</totfact>
</mgrwt>
</event>
<event>
 5    0  0.1972558E-002  0.2799432E+03  0.7546771E-02  0.1095720E+00
         21   -1    0    0  501  502  0.00000000000E+00  0.00000000000E+00  0.17992521091E+03  0.17992521091E+03  0.00000000000E+00 0.  1.
         21   -1    0    0  502  503 -0.00000000000E+00 -0.00000000000E+00 -0.67654478972E+03  0.67654478972E+03  0.00000000000E+00 0.  1.
         25    1    1    2    0    0 -0.27292481166E+02  0.25736337494E+03 -0.50492253561E+03  0.58099273081E+03  0.12500000000E+03 0.  0.
          1    1    1    2  501    0  0.10342107698E+02 -0.22798492989E+03 -0.22931676682E+02  0.22936858818E+03  0.00000000000E+00 0.  1.
         -1    1    1    2    0  503  0.16950373468E+02 -0.29378445052E+02  0.31234633480E+02  0.46108681645E+02  0.00000000000E+00 0. -1.
<mgrwt>
<rscale>  4 0.27994325E+03</rscale>
<asrwt>0</asrwt>
<pdfrwt beam="1">  1       21 0.27680802E-01 0.27994325E+03</pdfrwt>
<pdfrwt beam="2">  1       21 0.10408381E+00 0.27994325E+03</pdfrwt>
<totfact> 0.88083675E+03</totfact>
</mgrwt>
</event>
<event>
 5    0  0.1972558E-002  0.3016807E+03  0.7546771E-02  0.1084403E+00
         21   -1    0    0  501  502  0.00000000000E+00  0.00000000000E+00  0.33172427750E+03  0.33172427750E+03  0.00000000000E+00 0. -1.
         21   -1    0    0  502  503 -0.00000000000E+00 -0.00000000000E+00 -0.76603815297E+03  0.76603815297E+03  0.00000000000E+00 0.  1.
         25    1    1    2    0    0 -0.11855883036E+03  0.25528342717E+03 -0.60782624822E+03  0.68139824806E+03  0.12500000000E+03 0.  0.
          1    1    1    2  501    0  0.79272055077E+02 -0.23808925567E+03  0.14156014407E+02  0.25133830811E+03  0.00000000000E+00 0. -1.
         -1    1    1    2    0  503  0.39286775287E+02 -0.17194171499E+02  0.15935635833E+03  0.16502587430E+03  0.00000000000E+00 0.  1.
<mgrwt>
<rscale>  4 0.30168067E+03</rscale>
<asrwt>0</asrwt>
<pdfrwt beam="1">  1       21 0.51034504E-01 0.30168067E+03</pdfrwt>
<pdfrwt beam="2">  1       21 0.11785202E+00 0.30168067E+03</pdfrwt>
<totfact> 0.18579132E+03</totfact>
</mgrwt>
</event>
<event>
 5    0  0.1972558E-002  0.2185612E+03  0.7546771E-02  0.1134960E+00
         21   -1    0    0  501  502  0.00000000000E+00  0.00000000000E+00  0.37794745130E+03  0.37794745130E+03  0.00000000000E+00 0.  1.
         21   -1    0    0  502  503 -0.00000000000E+00 -0.00000000000E+00 -0.44046646028E+03  0.44046646028E+03  0.00000000000E+00 0.  1.
         25    1    1    2    0    0  0.47172896676E+02  0.28386545929E+03 -0.15908446025E+03  0.35176376540E+03  0.12500000000E+03 0.  0.
          3    1    1    2  501    0  0.47898877904E+02 -0.14367320561E+03 -0.11892061909E+03  0.19255753987E+03  0.00000000000E+00 0. -1.
         -3    1    1    2    0  503 -0.95071774579E+02 -0.14019225368E+03  0.21548607037E+03  0.27409260631E+03  0.00000000000E+00 0.  1.
<mgrwt>
<rscale>  4 0.21856119E+03</rscale>
<asrwt>0</asrwt>
<pdfrwt beam="1">  1       21 0.58145761E-01 0.21856119E+03</pdfrwt>
<pdfrwt beam="2">  1       21 0.67764071E-01 0.21856119E+03</pdfrwt>
<totfact> 0.54096947E+03</totfact>
</mgrwt>
</event>
<event>
 5    0  0.1972558E-002  0.3644048E+03  0.7546771E-02  0.1056853E+00
         21   -1    0    0  501  502  0.00000000000E+00  0.00000000000E+00  0.68332968035E+03  0.68332968035E+03  0.00000000000E+00 0. -1.
         21   -1    0    0  502  503 -0.00000000000E+00 -0.00000000000E+00 -0.29416132636E+03  0.29416132636E+03  0.00000000000E+00 0. -1.
         25    1    1    2    0    0  0.28929909788E+03 -0.18683215472E+03  0.24859298201E+02  0.36721003088E+03  0.12500000000E+03 0.  0.
          4    1    1    2  501    0  0.82108327266E+01  0.21840354261E+02  0.25045138190E+03  0.25153590906E+03  0.00000000000E+00 0.  1.
         -4    1    1    2    0  503 -0.29750993061E+03  0.16499180046E+03  0.11385767389E+03  0.35874506677E+03  0.00000000000E+00 0. -1.
<mgrwt>
<rscale>  4 0.36440481E+03</rscale>
<asrwt>0</asrwt>
<pdfrwt beam="1">  1       21 0.10512764E+00 0.36440481E+03</pdfrwt>
<pdfrwt beam="2">  1       21 0.45255589E-01 0.36440481E+03</pdfrwt>
<totfact> 0.30681161E+03</totfact>
</mgrwt>
</event>
<event>
 5    0  0.1972558E-002  0.2523243E+03  0.7546771E-02  0.1111845E+00
         21   -1    0    0  501  502  0.00000000000E+00  0.00000000000E+00  0.57978750929E+03  0.57978750929E+03  0.00000000000E+00 0. -1.
         21   -1    0    0  502  503 -0.00000000000E+00 -0.00000000000E+00 -0.29213943492E+03  0.29213943492E+03  0.00000000000E+00 0.  1.
         25    1    1    2    0    0  0.82936747971E+02  0.20747156193E+03 -0.19735908233E+03  0.32326237107E+03  0.12500000000E+03 0.  0.
          3    1    1    2  501    0 -0.16695881786E+02 -0.20940153618E+02  0.19927230597E+03  0.20106390633E+03  0.00000000000E+00 0.  1.
         -3    1    1    2    0  503 -0.66240866185E+02 -0.18653140831E+03  0.28573485073E+03  0.34760066680E+03  0.00000000000E+00 0. -1.
<mgrwt>
<rscale>  4 0.25232430E+03</rscale>
<asrwt>0</asrwt>
<pdfrwt beam="1">  1       21 0.89198078E-01 0.25232430E+03</pdfrwt>
<pdfrwt beam="2">  1       21 0.44944528E-01 0.25232430E+03</pdfrwt>
<totfact> 0.48849367E+03</totfact>
</mgrwt>
</event>
<event>
 5    0  0.1972558E-002  0.2698433E+03  0.7546771E-02  0.1101369E+00
         21   -1    0    0  501  502  0.00000000000E+00  0.00000000000E+00  0.83270195392E+03  0.83270195392E+03  0.00000000000E+00 0.  1.
         21   -1    0    0  502  503 -0.00000000000E+00 -0.00000000000E+00 -0.47759496117E+03  0.47759496117E+03  0.00000000000E+00 0.  1.
         25    1    1    2    0    0  0.17527693455E+03 -0.16873413904E+03 -0.41375395430E+03  0.49599450416E+03  0.12500000000E+03 0.  0.
          2    1    1    2  501    0 -0.18188372206E+02  0.55216987947E+02  0.32223538830E+03  0.32743759423E+03  0.00000000000E+00 0. -1.
         -2    1    1    2    0  503 -0.15708856235E+03  0.11351715109E+03  0.44662555874E+03  0.48686481669E+03  0.00000000000E+00 0.  1.
<mgrwt>
<rscale>  4 0.26984327E+03</rscale>
<asrwt>0</asrwt>
<pdfrwt beam="1">  1       21 0.12810799E+00 0.26984327E+03</pdfrwt>
<pdfrwt beam="2">  1       21 0.73476148E-01 0.26984327E+03</pdfrwt>
<totfact> 0.69558037E+02</totfact>
</mgrwt>
</event>
<event>
 5    0  0.1972558E-002  0.2672239E+03  0.7546771E-02  0.1102879E+00
         21   -1    0    0  501  502  0.00000000000E+00  0.00000000000E+00  0.48876084600E+03  0.48876084600E+03  0.00000000000E+00 0. -1.
         21   -1    0    0  502  503 -0.00000000000E+00 -0.00000000000E+00 -0.39084877293E+03  0.39084877293E+03  0.00000000000E+00 0.  1.
         25    1    1    2    0    0  0.11474310298E+03 -0.20669648860E+03 -0.29775981796E+03  0.40021909908E+03  0.12500000000E+03 0.  0.
          4    1    1    2  501    0 -0.13956038234E+03  0.19038077021E+03  0.37533772987E+03  0.44339637961E+03  0.00000000000E+00 0. -1.
         -4    1    1    2    0  503  0.24817279366E+02  0.16315718386E+02  0.20334161154E+02  0.35994140237E+02  0.00000000000E+00 0.  1.
<mgrwt>
<rscale>  4 0.26722386E+03</rscale>
<asrwt>0</asrwt>
<pdfrwt beam="1">  1       21 0.75193976E-01 0.26722386E+03</pdfrwt>
<pdfrwt beam="2">  1       21 0.60130581E-01 0.26722386E+03</pdfrwt>
<totfact> 0.38680532E+03</totfact>
</mgrwt>
</event>
<event>
 5    0  0.1972558E-002  0.3120608E+03  0.7546771E-02  0.1079362E+00
         21   -1    0    0  503  502  0.00000000000E+00  0.00000000000E+00  0.10748914367E+04  0.10748914367E+04  0.00000000000E+00 0. -1.
         21   -1    0    0  501  503 -0.00000000000E+00 -0.00000000000E+00 -0.12233320835E+04  0.12233320835E+04  0.00000000000E+00 0.  1.
         25    1    1    2    0    0 -0.77933201740E+02  0.27531097931E+03 -0.11605687145E+04  0.12018379509E+04  0.12500000000E+03 0.  0.
          2    1    1    2  501    0  0.75066695606E+02  0.11036501584E+02  0.46038918883E+02  0.88749057507E+02  0.00000000000E+00 0.  1.
         -2    1    1    2    0  502  0.28665061344E+01 -0.28634748089E+03  0.96608914874E+03  0.10076365118E+04  0.00000000000E+00 0. -1.
<mgrwt>
<rscale>  4 0.31206083E+03</rscale>
<asrwt>0</asrwt>
<pdfrwt beam="1">  1       21 0.16536791E+00 0.31206083E+03</pdfrwt>
<pdfrwt beam="2">  1       21 0.18820493E+00 0.31206083E+03</pdfrwt>
<totfact> 0.31730912E+01</totfact>
</mgrwt>
</event>
<event>
 5    0  0.1972558E-002  0.2432923E+03  0.7546771E-02  0.1117619E+00
         21   -1    0    0  501  502  0.00000000000E+00  0.00000000000E+00  0.46504151278E+03  0.46504151278E+03  0.00000000000E+00 0. -1.
         21   -1    0    0  502  503 -0.00000000000E+00 -0.00000000000E+00 -0.21820489377E+03  0.21820489377E+03  0.00000000000E+00 0. -1.
         25    1    1    2    0    0 -0.81590645692E+02 -0.21743092629E+03 -0.18070428179E+02  0.26435729902E+03  0.12500000000E+03 0.  0.
          1    1    1    2  501    0  0.39317629156E+02  0.18296083946E+03  0.45208942054E+02  0.19252114995E+03  0.00000000000E+00 0.  1.
         -1    1    1    2    0  503  0.42273016537E+02  0.34470086833E+02  0.21969810514E+03  0.22636795758E+03  0.00000000000E+00 0. -1.
<mgrwt>
<rscale>  4 0.24329232E+03</rscale>
<asrwt>0</asrwt>
<pdfrwt beam="1">  1       21 0.71544848E-01 0.24329232E+03</pdfrwt>
<pdfrwt beam="2">  1       21 0.33569984E-01 0.24329232E+03</pdfrwt>
<totfact> 0.14645325E+04</totfact>
</mgrwt>
</event>
<event>
 5    0  0.1972558E-002  0.2562710E+03  0.7546771E-02  0.1109405E+00
         21   -1    0    0  501  502  0.00000000000E+00  0.00000000000E+00  0.12036871384E+04  0.12036871384E+04  0.00000000000E+00 0.  1.
         21   -1    0    0  502  503 -0.00000000000E+00 -0.00000000000E+00 -0.88976793291E+02  0.88976793291E+02  0.00000000000E+00 0. -1.
         25    1    1    2    0    0 -0.10417658302E+03 -0.18627540300E+03  0.18050207461E+03  0.30619811422E+03  0.12500000000E+03 0.  0.
          2    1    1    2  501    0 -0.29298073506E+02 -0.25704565426E+02  0.33134727495E+03  0.33363171074E+03  0.00000000000E+00 0. -1.
         -2    1    1    2    0  503  0.13347465653E+03  0.21197996843E+03  0.60286099550E+03  0.65283410668E+03  0.00000000000E+00 0.  1.
<mgrwt>
<rscale>  4 0.25627104E+03</rscale>
<asrwt>0</asrwt>
<pdfrwt beam="1">  1       21 0.18518263E+00 0.25627104E+03</pdfrwt>
<pdfrwt beam="2">  1       21 0.13688738E-01 0.25627104E+03</pdfrwt>
<totfact> 0.74111739E+03</totfact>
</mgrwt>
</event>
<event>
 5    0  0.1972558E-002  0.3197181E+03  0.7546771E-02  0.1075779E+00
         21   -1    0    0  501  502  0.00000000000E+00  0.00000000000E+00  0.53749824811E+03  0.53749824811E+03  0.00000000000E+00 0.  1.
         21   -1    0    0  502  503 -0.00000000000E+00 -0.00000000000E+00 -0.51218287654E+03  0.51218287654E+03  0.00000000000E+00 0. -1.
         25    1    1    2    0    0  0.78297332913E+02  0.30105355465E+03 -0.35879954933E+03  0.49104565135E+03  0.12500000000E+03 0.  0.
          3    1    1    2  501    0 -0.90529417545E+02 -0.23126565384E+03  0.10323141584E+03  0.26895371963E+03  0.00000000000E+00 0. -1.
         -3    1    1    2    0  503  0.12232084632E+02 -0.69787900816E+02  0.28088350506E+03  0.28968175367E+03  0.00000000000E+00 0.  1.
<mgrwt>
<rscale>  4 0.31971808E+03</rscale>
<asrwt>0</asrwt>
<pdfrwt beam="1">  1       21 0.82692037E-01 0.31971808E+03</pdfrwt>
<pdfrwt beam="2">  1       21 0.78797366E-01 0.31971808E+03</pdfrwt>
<totfact> 0.16566124E+03</totfact>
</mgrwt>
</event>
<event>
 5    0  0.1972558E-002  0.2943529E+03  0.7546771E-02  0.1088098E+00
         21   -1    0    0  503  502  0.00000000000E+00  0.00000000000E+00  0.36986074963E+03  0.36986074963E+03  0.00000000000E+00 0.  1.
         21   -1    0    0  501  503 -0.00000000000E+00 -0.00000000000E+00 -0.43206065913E+03  0.43206065913E+03  0.00000000000E+00 0.  1.
         25    1    1    2    0    0 -0.30218490865E+03 -0.16988785066E+03  0.18710641053E+02  0.36898873819E+03  0.12500000000E+03 0.  0.
          2    1    1    2  501    0  0.77214299338E+02  0.83488615389E+02  0.83601283634E+02  0.14114379741E+03  0.00000000000E+00 0. -1.
         -2    1    1    2    0  502  0.22497060932E+03  0.86399235274E+02 -0.16451183418E+03  0.29178887316E+03  0.00000000000E+00 0.  1.
<mgrwt>
<rscale>  4 0.29435292E+03</rscale>
<asrwt>0</asrwt>
<pdfrwt beam="1">  1       21 0.56901654E-01 0.29435292E+03</pdfrwt>
<pdfrwt beam="2">  1       21 0.66470871E-01 0.29435292E+03</pdfrwt>
<totfact> 0.56518094E+03</totfact>
</mgrwt>
</event>
<event>
 5    0  0.1972558E-002  0.2659380E+03  0.7546771E-02  0.1103627E+00
         21   -1    0    0  501  502  0.00000000000E+00  0.00000000000E+00  0.56988641602E+03  0.56988641602E+03  0.00000000000E+00 0. -1.
         21   -1    0    0  502  503 -0.00000000000E+00 -0.00000000000E+00 -0.20687200851E+03  0.20687200851E+03  0.00000000000E+00 0. -1.
         25    1    1    2    0    0  0.77663056611E+02  0.22715642503E+03  0.10880892074E+02  0.27087817484E+03  0.12500000000E+03 0.  0.
          1    1    1    2  501    0 -0.13422356673E+03 -0.19318973415E+03  0.36916136660E+03  0.43774233727E+03  0.00000000000E+00 0. -1.
         -1    1    1    2    0  503  0.56560510115E+02 -0.33966690875E+02 -0.17027851163E+02  0.68137912418E+02  0.00000000000E+00 0.  1.
<mgrwt>
<rscale>  4 0.26593799E+03</rscale>
<asrwt>0</asrwt>
<pdfrwt beam="1">  1       21 0.87674833E-01 0.26593799E+03</pdfrwt>
<pdfrwt beam="2">  1       21 0.31826463E-01 0.26593799E+03</pdfrwt>
<totfact> 0.10132280E+04</totfact>
</mgrwt>
</event>
<event>
 5    0  0.1972558E-002  0.2458391E+03  0.7546771E-02  0.1115963E+00
         21   -1    0    0  501  502  0.00000000000E+00  0.00000000000E+00  0.14038199416E+03  0.14038199416E+03  0.00000000000E+00 0.  1.
         21   -1    0    0  502  503 -0.00000000000E+00 -0.00000000000E+00 -0.84597660213E+03  0.84597660213E+03  0.00000000000E+00 0.  1.
         25    1    1    2    0    0  0.26985336868E+02  0.21156394625E+03 -0.67324973486E+03  0.71720130874E+03  0.12500000000E+03 0.  0.
          4    1    1    2  501    0 -0.55007219122E+02 -0.20051036179E+03 -0.71398304474E+02  0.21983611446E+03  0.00000000000E+00 0.  1.
         -4    1    1    2    0  503  0.28021882254E+02 -0.11053584461E+02  0.39053431366E+02  0.49321173100E+02  0.00000000000E+00 0. -1.
<mgrwt>
<rscale>  4 0.24583915E+03</rscale>
<asrwt>0</asrwt>
<pdfrwt beam="1">  1       21 0.21597230E-01 0.24583915E+03</pdfrwt>
<pdfrwt beam="2">  1       21 0.13015025E+00 0.24583915E+03</pdfrwt>
<totfact> 0.83046196E+03</totfact>
</mgrwt>
</event>
<event>
 5    0  0.1972558E-002  0.2279901E+03  0.7546771E-02  0.1128062E+00
         21   -1    0    0  501  502  0.00000000000E+00  0.00000000000E+00  0.27900170282E+03  0.27900170282E+03  0.00000000000E+00 0. -1.
         21   -1    0    0  502  503 -0.00000000000E+00 -0.00000000000E+00 -0.49324740582E+03  0.49324740582E+03  0.00000000000E+00 0. -1.
         25    1    1    2    0    0 -0.13854273559E+03 -0.24825814827E+03 -0.79108498081E+02  0.32048299836E+03  0.12500000000E+03 0.  0.
          2    1    1    2  501    0  0.32045667922E+02  0.16615973613E+03  0.88385339758E+02  0.19091346476E+03  0.00000000000E+00 0.  1.
         -2    1    1    2    0  503  0.10649706767E+03  0.82098412140E+02 -0.22352254467E+03  0.26085264552E+03  0.00000000000E+00 0. -1.
<mgrwt>
<rscale>  4 0.22799014E+03</rscale>
<asrwt>0</asrwt>
<pdfrwt beam="1">  1       21 0.42923339E-01 0.22799014E+03</pdfrwt>
<pdfrwt beam="2">  1       21 0.75884216E-01 0.22799014E+03</pdfrwt>
<totfact> 0.78907183E+03</totfact>
</mgrwt>
</event>
<event>
 5    0  0.1972558E-002  0.2444432E+03  0.7546771E-02  0.1116868E+00
         21   -1    0    0  501  502  0.00000000000E+00  0.00000000000E+00  0.97297110975E+02  0.97297110975E+02  0.00000000000E+00 0.  1.
         21   -1    0    0  502  503 -0.00000000000E+00 -0.00000000000E+00 -0.10208711136E+04  0.10208711136E+04  0.00000000000E+00 0.  1.
         25    1    1    2    0    0 -0.20912209138E+03  0.39655569166E+02 -0.71246233689E+03  0.75401073915E+03  0.12500000000E+03 0.  0.
          1    1    1    2  501    0  0.29377613708E+02  0.76994101433E+02 -0.61078287881E+02  0.10257530450E+03  0.00000000000E+00 0. -1.
         -1    1    1    2    0  503  0.17974447767E+03 -0.11664967060E+03 -0.15003337783E+03  0.26158218091E+03  0.00000000000E+00 0.  1.
<mgrwt>
<rscale>  4 0.24444319E+03</rscale>
<asrwt>0</asrwt>
<pdfrwt beam="1">  1       21 0.14968786E-01 0.24444319E+03</pdfrwt>
<pdfrwt beam="2">  1       21 0.15705709E+00 0.24444319E+03</pdfrwt>
<totfact> 0.10047179E+04</totfact>
</mgrwt>
</event>
<event>
 5    0  0.1972558E-002  0.2507067E+03  0.7546771E-02  0.1112859E+00
         21   -1    0    0  501  502  0.00000000000E+00  0.00000000000E+00  0.41153727565E+03  0.41153727565E+03  0.00000000000E+00 0.  1.
         21   -1    0    0  502  503 -0.00000000000E+00 -0.00000000000E+00 -0.76497799484E+03  0.76497799484E+03  0.00000000000E+00 0.  1.
         25    1    1    2    0    0 -0.20518770709E+03  0.79382794680E+02 -0.69536130590E+03  0.73997024871E+03  0.12500000000E+03 0.  0.
          3    1    1    2  501    0  0.59416953449E+02  0.32167170150E+02  0.28500371377E+02  0.73330569078E+02  0.00000000000E+00 0. -1.
         -3    1    1    2    0  503  0.14577075364E+03 -0.11154996483E+03  0.31342021534E+03  0.36321445270E+03  0.00000000000E+00 0.  1.
<mgrwt>
<rscale>  4 0.25070671E+03</rscale>
<asrwt>0</asrwt>
<pdfrwt beam="1">  1       21 0.63313427E-01 0.25070671E+03</pdfrwt>
<pdfrwt beam="2">  1       21 0.11768892E+00 0.25070671E+03</pdfrwt>
<totfact> 0.12147568E+03</totfact>
</mgrwt>
</event>
<event>
 5    0  0.1972558E-002  0.2588520E+03  0.7546771E-02  0.1107835E+00
         21   -1    0    0  501  502  0.00000000000E+00  0.00000000000E+00  0.13534882876E+03  0.13534882876E+03  0.00000000000E+00 0.  1.
         21   -1    0    0  502  503 -0.00000000000E+00 -0.00000000000E+00 -0.10242512063E+04  0.10242512063E+04  0.00000000000E+00 0. -1.
         25    1    1    2    0    0  0.29844919449E+02 -0.22230789224E+03 -0.63012371643E+03  0.68043546070E+03  0.12500000000E+03 0.  0.
          3    1    1    2  501    0  0.24089677122E+02  0.23290427364E+03 -0.32024051112E+03  0.39670984130E+03  0.00000000000E+00 0. -1.
         -3    1    1    2    0  503 -0.53934596571E+02 -0.10596381397E+02  0.61461849981E+02  0.82454733091E+02  0.00000000000E+00 0.  1.
<mgrwt>
<rscale>  4 0.25885204E+03</rscale>
<asrwt>0</asrwt>
<pdfrwt beam="1">  1       21 0.20822897E-01 0.25885204E+03</pdfrwt>
<pdfrwt beam="2">  1       21 0.15757711E+00 0.25885204E+03</pdfrwt>
<totfact> 0.53434744E+03</totfact>
</mgrwt>
</event>
<event>
 5    0  0.1972558E-002  0.4244899E+03  0.7546771E-02  0.1035615E+00
         21   -1    0    0  501  502  0.00000000000E+00  0.00000000000E+00  0.28598196764E+03  0.28598196764E+03  0.00000000000E+00 0. -1.
         21   -1    0    0  502  503 -0.00000000000E+00 -0.00000000000E+00 -0.94638967223E+03  0.94638967223E+03  0.00000000000E+00 0. -1.
         25    1    1    2    0    0 -0.36357189442E+03  0.17281871966E+03 -0.33405479849E+03  0.53783681603E+03  0.12500000000E+03 0.  0.
          1    1    1    2  501    0 -0.19999586930E+02 -0.31092379018E+02  0.98290733324E+02  0.10501327425E+03  0.00000000000E+00 0.  1.
         -1    1    1    2    0  503  0.38357148135E+03 -0.14172634065E+03 -0.42464363942E+03  0.58952154960E+03  0.00000000000E+00 0. -1.
<mgrwt>
<rscale>  4 0.42448988E+03</rscale>
<asrwt>0</asrwt>
<pdfrwt beam="1">  1       21 0.43997226E-01 0.42448988E+03</pdfrwt>
<pdfrwt beam="2">  1       21 0.14559841E+00 0.42448988E+03</pdfrwt>
<totfact> 0.13789795E+03</totfact>
</mgrwt>
</event>
<event>
 5    0  0.1972558E-002  0.2752704E+03  0.7546771E-02  0.1098301E+00
         21   -1    0    0  501  502  0.00000000000E+00  0.00000000000E+00  0.95509535928E+03  0.95509535928E+03  0.00000000000E+00 0.  1.
         21   -1    0    0  502  503 -0.00000000000E+00 -0.00000000000E+00 -0.27547869946E+03  0.27547869946E+03  0.00000000000E+00 0.  1.
         25    1    1    2    0    0 -0.20454886930E+03  0.16281865319E+03 -0.16168497926E+03  0.33183909697E+03  0.12500000000E+03 0.  0.
          1    1    1    2  501    0  0.14724880445E+03 -0.10951693948E+03  0.29905666066E+03  0.35087185229E+03  0.00000000000E+00 0. -1.
         -1    1    1    2    0  503  0.57300064852E+02 -0.53301713719E+02  0.54224497842E+03  0.54786310949E+03  0.00000000000E+00 0.  1.
<mgrwt>
<rscale>  4 0.27527040E+03</rscale>
<asrwt>0</asrwt>
<pdfrwt beam="1">  1       21 0.14693775E+00 0.27527040E+03</pdfrwt>
<pdfrwt beam="2">  1       21 0.42381339E-01 0.27527040E+03</pdfrwt>
<totfact> 0.15778349E+03</totfact>
</mgrwt>
</event>
<event>
 5    0  0.1972558E-002  0.2344001E+03  0.7546771E-02  0.1123581E+00
         21   -1    0    0  501  502  0.00000000000E+00  0.00000000000E+00  0.87254366893E+03  0.87254366893E+03  0.00000000000E+00 0. -1.
         21   -1    0    0  502  503 -0.00000000000E+00 -0.00000000000E+00 -0.29231139255E+03  0.29231139255E+03  0.00000000000E+00 0. -1.
         25    1    1    2    0    0  0.45173876107E+02 -0.21262108011E+03 -0.11184286826E+03  0.27455824513E+03  0.12500000000E+03 0.  0.
          1    1    1    2  501    0 -0.10446536156E+03  0.31278591628E+02  0.69095202457E+03  0.69950415461E+03  0.00000000000E+00 0. -1.
         -1    1    1    2    0  503  0.59291485456E+02  0.18134248848E+03  0.11231200641E+01  0.19079266174E+03  0.00000000000E+00 0.  1.
<mgrwt>
<rscale>  4 0.23440011E+03</rscale>
<asrwt>0</asrwt>
<pdfrwt beam="1">  1       21 0.13423749E+00 0.23440011E+03</pdfrwt>
<pdfrwt beam="2">  1       21 0.44970984E-01 0.23440011E+03</pdfrwt>
<totfact> 0.18225368E+03</totfact>
</mgrwt>
</event>
<event>
 5    0  0.1972558E-002  0.3081755E+03  0.7546771E-02  0.1081224E+00
         21   -1    0    0  501  502  0.00000000000E+00  0.00000000000E+00  0.27719710575E+03  0.27719710575E+03  0.00000000000E+00 0. -1.
         21   -1    0    0  502  503 -0.00000000000E+00 -0.00000000000E+00 -0.17653021973E+04  0.17653021973E+04  0.00000000000E+00 0. -1.
         25    1    1    2    0    0 -0.15625724281E+03  0.23437321012E+03 -0.16734033307E+04  0.17015436623E+04  0.12500000000E+03 0.  0.
          3    1    1    2  501    0  0.20014523469E+02 -0.10664983450E+02  0.25511507091E+02  0.34134440317E+02  0.00000000000E+00 0.  1.
         -3    1    1    2    0  503  0.13624271934E+03 -0.22370822667E+03  0.15978673209E+03  0.30682120038E+03  0.00000000000E+00 0. -1.
<mgrwt>
<rscale>  4 0.30817548E+03</rscale>
<asrwt>0</asrwt>
<pdfrwt beam="1">  1       21 0.42645708E-01 0.30817548E+03</pdfrwt>
<pdfrwt beam="2">  1       21 0.27158496E+00 0.30817548E+03</pdfrwt>
<totfact> 0.23075092E+02</totfact>
</mgrwt>
</event>
<event>
 5    0  0.1972558E-002  0.2795763E+03  0.7546771E-02  0.1095921E+00
         21   -1    0    0  501  502  0.00000000000E+00  0.00000000000E+00  0.14544864513E+04  0.14544864513E+04  0.00000000000E+00 0. -1.
         21   -1    0    0  502  503 -0.00000000000E+00 -0.00000000000E+00 -0.49371460635E+03  0.49371460635E+03  0.00000000000E+00 0.  1.
         25    1    1    2    0    0 -0.24778006510E+03 -0.29304544532E+02 -0.39597073522E+03  0.48442908681E+03  0.12500000000E+03 0.  0.
          4    1    1    2  501    0 -0.26071090354E+00 -0.33896144696E+02  0.11024221317E+04  0.11029431414E+04  0.00000000000E+00 0. -1.
         -4    1    1    2    0  503  0.24804077600E+03  0.63200689228E+02  0.25432044844E+03  0.36082882947E+03  0.00000000000E+00 0.  1.
<mgrwt>
<rscale>  4 0.27957625E+03</rscale>
<asrwt>0</asrwt>
<pdfrwt beam="1">  1       21 0.22376714E+00 0.27957625E+03</pdfrwt>
<pdfrwt beam="2">  1       21 0.75956094E-01 0.27957625E+03</pdfrwt>
<totfact> 0.13294467E+02</totfact>
</mgrwt>
</event>
<event>
 5    0  0.1972558E-002  0.3070770E+03  0.7546771E-02  0.1081755E+00
         21   -1    0    0  501  502  0.00000000000E+00  0.00000000000E+00  0.19363755587E+04  0.19363755587E+04  0.00000000000E+00 0. -1.
         21   -1    0    0  502  503 -0.00000000000E+00 -0.00000000000E+00 -0.16419543690E+03  0.16419543690E+03  0.00000000000E+00 0. -1.
         25    1    1    2    0    0 -0.22619836797E+03 -0.17785361261E+03  0.63509522578E+02  0.32008759528E+03  0.12500000000E+03 0.  0.
          4    1    1    2  501    0  0.35704117312E+02 -0.34515433473E+01  0.12593452159E+04  0.12598559720E+04  0.00000000000E+00 0. -1.
         -4    1    1    2    0  503  0.19049425066E+03  0.18130515596E+03  0.44932538326E+03  0.52062742835E+03  0.00000000000E+00 0.  1.
<mgrwt>
<rscale>  4 0.30707700E+03</rscale>
<asrwt>0</asrwt>
<pdfrwt beam="1">  1       21 0.29790392E+00 0.30707700E+03</pdfrwt>
<pdfrwt beam="2">  1       21 0.25260838E-01 0.30707700E+03</pdfrwt>
<totfact> 0.45839603E+02</totfact>
</mgrwt>
</event>
<event>
 5    0  0.1972558E-002  0.2887207E+03  0.7546771E-02  0.1091019E+00
         21   -1    0    0  501  502  0.00000000000E+00  0.00000000000E+00  0.53660637634E+03  0.53660637634E+03  0.00000000000E+00 0. -1.
         21   -1    0    0  502  503 -0.00000000000E+00 -0.00000000000E+00 -0.58790554931E+03  0.58790554931E+03  0.00000000000E+00 0.  1.
         25    1    1    2    0    0 -0.25162318446E+03  0.97105823285E+02 -0.39821092462E+03  0.49693129139E+03  0.12500000000E+03 0.  0.
          3    1    1    2  501    0  0.22950967067E+03 -0.72592838113E+02 -0.35873093436E+02  0.24337478897E+03  0.00000000000E+00 0.  1.
         -3    1    1    2    0  503  0.22113513795E+02 -0.24512985172E+02  0.38278484508E+03  0.38420584529E+03  0.00000000000E+00 0. -1.
<mgrwt>
<rscale>  4 0.28872069E+03</rscale>
<asrwt>0</asrwt>
<pdfrwt beam="1">  1       21 0.82554828E-01 0.28872069E+03</pdfrwt>
<pdfrwt beam="2">  1       21 0.90447007E-01 0.28872069E+03</pdfrwt>
<totfact> 0.12315602E+03</totfact>
</mgrwt>
</event>
<event>
 5    0  0.1972558E-002  0.3006200E+03  0.7546771E-02  0.1084931E+00
         21   -1    0    0  501  502  0.00000000000E+00  0.00000000000E+00  0.51898915515E+03  0.51898915515E+03  0.00000000000E+00 0.  1.
         21   -1    0    0  502  503 -0.00000000000E+00 -0.00000000000E+00 -0.19686323876E+03  0.19686323876E+03  0.00000000000E+00 0.  1.
         25    1    1    2    0    0  0.25948454392E+03 -0.12294008117E+03  0.93079861862E+02  0.32670376915E+03  0.12500000000E+03 0.  0.
          1    1    1    2  501    0 -0.22771657202E+03  0.12419510097E+03  0.14033404197E+03  0.29491168782E+03  0.00000000000E+00 0.  1.
         -1    1    1    2    0  503 -0.31767971903E+02 -0.12550198057E+01  0.88712012551E+02  0.94236936943E+02  0.00000000000E+00 0. -1.
<mgrwt>
<rscale>  4 0.30062003E+03</rscale>
<asrwt>0</asrwt>
<pdfrwt beam="1">  1       21 0.79844485E-01 0.30062003E+03</pdfrwt>
<pdfrwt beam="2">  1       21 0.30286652E-01 0.30062003E+03</pdfrwt>
<totfact> 0.13637905E+04</totfact>
</mgrwt>
</event>
<event>
 5    0  0.1972558E-002  0.2305693E+03  0.7546771E-02  0.1126240E+00
         21   -1    0    0  501  502  0.00000000000E+00  0.00000000000E+00  0.18508471646E+03  0.18508471646E+03  0.00000000000E+00 0.  1.
         21   -1    0    0  502  503 -0.00000000000E+00 -0.00000000000E+00 -0.74572410163E+03  0.74572410163E+03  0.00000000000E+00 0. -1.
         25    1    1    2    0    0 -0.17244757756E+03 -0.12113255436E+03 -0.22011243066E+03  0.32937174267E+03  0.12500000000E+03 0.  0.
          3    1    1    2  501    0 -0.17611132040E+02  0.88587241776E+02  0.91353588775E+02  0.12846528543E+03  0.00000000000E+00 0.  1.
         -3    1    1    2    0  503  0.19005870960E+03  0.32545312588E+02 -0.43188054329E+03  0.47297179000E+03  0.00000000000E+00 0. -1.
<mgrwt>
<rscale>  4 0.23056931E+03</rscale>
<asrwt>0</asrwt>
<pdfrwt beam="1">  1       21 0.28474572E-01 0.23056931E+03</pdfrwt>
<pdfrwt beam="2">  1       21 0.11472679E+00 0.23056931E+03</pdfrwt>
<totfact> 0.67662930E+03</totfact>
</mgrwt>
</event>
<event>
 5    0  0.1972558E-002  0.2885328E+03  0.7546771E-02  0.1091118E+00
         21   -1    0    0  501  502  0.00000000000E+00  0.00000000000E+00  0.36820386158E+03  0.36820386158E+03  0.00000000000E+00 0. -1.
         21   -1    0    0  502  503 -0.00000000000E+00 -0.00000000000E+00 -0.23449041110E+03  0.23449041110E+03  0.00000000000E+00 0. -1.
         25    1    1    2    0    0 -0.13598148663E+03 -0.22166467201E+03  0.15919648170E+03  0.32953711674E+03  0.12500000000E+03 0.  0.
          3    1    1    2  501    0  0.12677180618E+03  0.19459480278E+03 -0.47519023450E+02  0.23705755778E+03  0.00000000000E+00 0. -1.
         -3    1    1    2    0  503  0.92096804472E+01  0.27069869233E+02  0.22035992220E+02  0.36099598160E+02  0.00000000000E+00 0.  1.
<mgrwt>
<rscale>  4 0.28853283E+03</rscale>
<asrwt>0</asrwt>
<pdfrwt beam="1">  1       21 0.56646748E-01 0.28853283E+03</pdfrwt>
<pdfrwt beam="2">  1       21 0.36075448E-01 0.28853283E+03</pdfrwt>
<totfact> 0.20692554E+04</totfact>
</mgrwt>
</event>
<event>
 5    0  0.1972558E-002  0.2368362E+03  0.7546771E-02  0.1121919E+00
         21   -1    0    0  503  502  0.00000000000E+00  0.00000000000E+00  0.37824215552E+03  0.37824215552E+03  0.00000000000E+00 0.  1.
         21   -1    0    0  501  503 -0.00000000000E+00 -0.00000000000E+00 -0.11828873543E+04  0.11828873543E+04  0.00000000000E+00 0.  1.
         25    1    1    2    0    0  0.19070101514E+03  0.61248000173E+02 -0.11160066648E+04  0.11407077061E+04  0.12500000000E+03 0.  0.
          3    1    1    2  501    0 -0.22038148101E+03 -0.27263621877E+02  0.19466535513E+03  0.29530645563E+03  0.00000000000E+00 0.  1.
         -3    1    1    2    0  502  0.29680465871E+02 -0.33984378296E+02  0.11669611095E+03  0.12511534811E+03  0.00000000000E+00 0. -1.
<mgrwt>
<rscale>  4 0.23683620E+03</rscale>
<asrwt>0</asrwt>
<pdfrwt beam="1">  1       21 0.58191102E-01 0.23683620E+03</pdfrwt>
<pdfrwt beam="2">  1       21 0.18198267E+00 0.23683620E+03</pdfrwt>
<totfact> 0.46504653E+02</totfact>
</mgrwt>
</event>
<event>
 5    0  0.1972558E-002  0.2416844E+03  0.7546771E-02  0.1118676E+00
         21   -1    0    0  501  502  0.00000000000E+00  0.00000000000E+00  0.22557366139E+03  0.22557366139E+03  0.00000000000E+00 0. -1.
         21   -1    0    0  502  503 -0.00000000000E+00 -0.00000000000E+00 -0.36669273120E+03  0.36669273120E+03  0.00000000000E+00 0. -1.
         25    1    1    2    0    0 -0.54677020424E+02 -0.22128413581E+03 -0.16002131115E+03  0.30526720320E+03  0.12500000000E+03 0.  0.
          2    1    1    2  501    0  0.22508661931E+02  0.18618048489E+03 -0.58217927948E+02  0.19636481342E+03  0.00000000000E+00 0. -1.
         -2    1    1    2    0  503  0.32168358493E+02  0.35103650922E+02  0.77120169288E+02  0.90634375968E+02  0.00000000000E+00 0.  1.
<mgrwt>
<rscale>  4 0.24168444E+03</rscale>
<asrwt>0</asrwt>
<pdfrwt beam="1">  1       21 0.34703640E-01 0.24168444E+03</pdfrwt>
<pdfrwt beam="2">  1       21 0.56414266E-01 0.24168444E+03</pdfrwt>
<totfact> 0.23037513E+04</totfact>
</mgrwt>
</event>
<event>
 5    0  0.1972558E-002  0.3198969E+03  0.7546771E-02  0.1075697E+00
         21   -1    0    0  501  502  0.00000000000E+00  0.00000000000E+00  0.34721710619E+03  0.34721710619E+03  0.00000000000E+00 0.  1.
         21   -1    0    0  502  503 -0.00000000000E+00 -0.00000000000E+00 -0.41141473655E+03  0.41141473655E+03  0.00000000000E+00 0.  1.
         25    1    1    2    0    0  0.37037645176E+02 -0.29912320655E+03 -0.22116523265E+03  0.39418972588E+03  0.12500000000E+03 0.  0.
          4    1    1    2  501    0  0.16012859145E+02  0.24874194246E+02  0.63217269799E+02  0.69796564372E+02  0.00000000000E+00 0. -1.
         -4    1    1    2    0  503 -0.53050504320E+02  0.27424901230E+03  0.93750332494E+02  0.29464555249E+03  0.00000000000E+00 0.  1.
<mgrwt>
<rscale>  4 0.31989688E+03</rscale>
<asrwt>0</asrwt>
<pdfrwt beam="1">  1       21 0.53418017E-01 0.31989688E+03</pdfrwt>
<pdfrwt beam="2">  1       21 0.63294574E-01 0.31989688E+03</pdfrwt>
<totfact> 0.71196981E+03</totfact>
</mgrwt>
</event>
<event>
 5    0  0.1972558E-002  0.2956888E+03  0.7546771E-02  0.1087416E+00
         21   -1    0    0  501  502  0.00000000000E+00  0.00000000000E+00  0.17340736753E+04  0.17340736753E+04  0.00000000000E+00 0.  1.
         21   -1    0    0  502  503 -0.00000000000E+00 -0.00000000000E+00 -0.37037839031E+03  0.37037839031E+03  0.00000000000E+00 0. -1.
         25    1    1    2    0    0  0.22920392824E+03 -0.14751227666E+03 -0.24517559878E+03  0.38733756172E+03  0.12500000000E+03 0.  0.
          2    1    1    2  501    0 -0.54710537725E+01  0.35256427098E+02  0.13720859193E+04  0.13725497142E+04  0.00000000000E+00 0.  1.
         -2    1    1    2    0  503 -0.22373287446E+03  0.11225584956E+03  0.23678496447E+03  0.34456478967E+03  0.00000000000E+00 0. -1.
<mgrwt>
<rscale>  4 0.29568884E+03</rscale>
<asrwt>0</asrwt>
<pdfrwt beam="1">  1       21 0.26678056E+00 0.29568884E+03</pdfrwt>
<pdfrwt beam="2">  1       21 0.56981292E-01 0.29568884E+03</pdfrwt>
<totfact> 0.13547021E+02</totfact>
</mgrwt>
</event>
<event>
 5    0  0.1972558E-002  0.2502405E+03  0.7546771E-02  0.1113153E+00
         21   -1    0    0  501  502  0.00000000000E+00  0.00000000000E+00  0.18806303337E+03  0.18806303337E+03  0.00000000000E+00 0. -1.
         21   -1    0    0  502  503 -0.00000000000E+00 -0.00000000000E+00 -0.39983360382E+03  0.39983360382E+03  0.00000000000E+00 0. -1.
         25    1    1    2    0    0  0.21670082828E+03  0.21932295149E+02 -0.18975691224E+03  0.31475857461E+03  0.12500000000E+03 0.  0.
          4    1    1    2  501    0 -0.21618844552E+03  0.19556440551E+01 -0.63441897982E+02  0.22531343266E+03  0.00000000000E+00 0. -1.
         -4    1    1    2    0  503 -0.51238276118E+00 -0.23887939204E+02  0.41428239781E+02  0.47824629918E+02  0.00000000000E+00 0.  1.
<mgrwt>
<rscale>  4 0.25024053E+03</rscale>
<asrwt>0</asrwt>
<pdfrwt beam="1">  1       21 0.28932774E-01 0.25024053E+03</pdfrwt>
<pdfrwt beam="2">  1       21 0.61512863E-01 0.25024053E+03</pdfrwt>
<totfact> 0.27265236E+04</totfact>
</mgrwt>
</event>
<event>
 5    0  0.1972558E-002  0.2304210E+03  0.7546771E-02  0.1126344E+00
         21   -1    0    0  501  502  0.00000000000E+00  0.00000000000E+00  0.40357066867E+03  0.40357066867E+03  0.00000000000E+00 0.  1.
         21   -1    0    0  502  503 -0.00000000000E+00 -0.00000000000E+00 -0.11009842087E+04  0.11009842087E+04  0.00000000000E+00 0. -1.
         25    1    1    2    0    0  0.17155367242E+03 -0.11013112574E+03 -0.67276383898E+03  0.71399979721E+03  0.12500000000E+03 0.  0.
          4    1    1    2  501    0 -0.63760785358E+02 -0.46890060337E+02  0.35611952461E+03  0.36480848581E+03  0.00000000000E+00 0.  1.
         -4    1    1    2    0  503 -0.10779288707E+03  0.15702118608E+03 -0.38076922566E+03  0.42574659433E+03  0.00000000000E+00 0. -1.
<mgrwt>
<rscale>  4 0.23042099E+03</rscale>
<asrwt>0</asrwt>
<pdfrwt beam="1">  1       21 0.62087796E-01 0.23042099E+03</pdfrwt>
<pdfrwt beam="2">  1       21 0.16938218E+00 0.23042099E+03</pdfrwt>
<totfact> 0.49795035E+02</totfact>
</mgrwt>
</event>
<event>
 5    0  0.1972558E-002  0.3696782E+03  0.7546771E-02  0.1054816E+00
         21   -1    0    0  503  502  0.00000000000E+00  0.00000000000E+00  0.50681479656E+03  0.50681479656E+03  0.00000000000E+00 0. -1.
         21   -1    0    0  501  503 -0.00000000000E+00 -0.00000000000E+00 -0.34002460533E+03  0.34002460533E+03  0.00000000000E+00 0.  1.
         25    1    1    2    0    0  0.11317695216E+03  0.32898012249E+03 -0.12108558922E+03  0.38900342339E+03  0.12500000000E+03 0.  0.
          1    1    1    2  501    0  0.10054388935E+02 -0.34106068481E+02  0.38977145256E+02  0.52759193477E+02  0.00000000000E+00 0.  1.
         -1    1    1    2    0  502 -0.12323134110E+03 -0.29487405401E+03  0.24889863519E+03  0.40507678501E+03  0.00000000000E+00 0. -1.
<mgrwt>
<rscale>  4 0.36967816E+03</rscale>
<asrwt>0</asrwt>
<pdfrwt beam="1">  1       21 0.77971508E-01 0.36967816E+03</pdfrwt>
<pdfrwt beam="2">  1       21 0.52311477E-01 0.36967816E+03</pdfrwt>
<totfact> 0.45681228E+03</totfact>
</mgrwt>
</event>
<event>
 5    0  0.1972558E-002  0.4018794E+03  0.7546771E-02  0.1043131E+00
         21   -1    0    0  501  502  0.00000000000E+00  0.00000000000E+00  0.36867924118E+03  0.36867924118E+03  0.00000000000E+00 0.  1.
         21   -1    0    0  502  503 -0.00000000000E+00 -0.00000000000E+00 -0.58388823807E+03  0.58388823807E+03  0.00000000000E+00 0.  1.
         25    1    1    2    0    0  0.19828014245E+03 -0.34637670615E+03 -0.22610773698E+03  0.47543826747E+03  0.12500000000E+03 0.  0.
          2    1    1    2  501    0 -0.14911628676E+03  0.33081170667E+03 -0.80957021087E+02  0.37178769682E+03  0.00000000000E+00 0.  1.
         -2    1    1    2    0  503 -0.49163855687E+02  0.15564999480E+02  0.91855761165E+02  0.10534151496E+03  0.00000000000E+00 0. -1.
<mgrwt>
<rscale>  4 0.40187938E+03</rscale>
<asrwt>0</asrwt>
<pdfrwt beam="1">  1       21 0.56719884E-01 0.40187938E+03</pdfrwt>
<pdfrwt beam="2">  1       21 0.89828959E-01 0.40187938E+03</pdfrwt>
<totfact> 0.27268499E+03</totfact>
</mgrwt>
</event>
<event>
 5    0  0.1972558E-002  0.3084518E+03  0.7546771E-02  0.1081090E+00
         21   -1    0    0  501  502  0.00000000000E+00  0.00000000000E+00  0.65608451363E+03  0.65608451363E+03  0.00000000000E+00 0.  1.
         21   -1    0    0  502  503 -0.00000000000E+00 -0.00000000000E+00 -0.38094248962E+03  0.38094248962E+03  0.00000000000E+00 0.  1.
         25    1    1    2    0    0 -0.26481070396E+03  0.94322537488E+02 -0.26038939868E+03  0.40304973509E+03  0.12500000000E+03 0.  0.
          4    1    1    2  501    0 -0.14123309853E+02 -0.21614191980E+02  0.15211712637E+03  0.15429277790E+03  0.00000000000E+00 0. -1.
         -4    1    1    2    0  503  0.27893401381E+03 -0.72708345509E+02  0.38341429633E+03  0.47968449026E+03  0.00000000000E+00 0.  1.
<mgrwt>
<rscale>  4 0.30845178E+03</rscale>
<asrwt>0</asrwt>
<pdfrwt beam="1">  1       21 0.10093608E+00 0.30845178E+03</pdfrwt>
<pdfrwt beam="2">  1       21 0.58606537E-01 0.30845178E+03</pdfrwt>
<totfact> 0.20124700E+03</totfact>
</mgrwt>
</event>
<event>
 5    0  0.1972558E-002  0.2848209E+03  0.7546771E-02  0.1093085E+00
         21   -1    0    0  503  502  0.00000000000E+00  0.00000000000E+00  0.48670582741E+03  0.48670582741E+03  0.00000000000E+00 0. -1.
         21   -1    0    0  501  503 -0.00000000000E+00 -0.00000000000E+00 -0.33604196304E+03  0.33604196304E+03  0.00000000000E+00 0.  1.
         25    1    1    2    0    0 -0.56367401108E+02 -0.26496706134E+03 -0.18986757555E+03  0.35363755986E+03  0.12500000000E+03 0.  0.
          4    1    1    2  501    0 -0.75607752318E+01  0.54440815863E+02  0.20146177576E+03  0.20882484250E+03  0.00000000000E+00 0.  1.
         -4    1    1    2    0  502  0.63928176340E+02  0.21052624547E+03  0.13906966415E+03  0.26028538809E+03  0.00000000000E+00 0. -1.
<mgrwt>
<rscale>  4 0.28482091E+03</rscale>
<asrwt>0</asrwt>
<pdfrwt beam="1">  1       21 0.74877820E-01 0.28482091E+03</pdfrwt>
<pdfrwt beam="2">  1       21 0.51698763E-01 0.28482091E+03</pdfrwt>
<totfact> 0.53420158E+03</totfact>
</mgrwt>
</event>
<event>
 5    0  0.1972558E-002  0.2478029E+03  0.7546771E-02  0.1114701E+00
         21   -1    0    0  501  502  0.00000000000E+00  0.00000000000E+00  0.19637951983E+04  0.19637951983E+04  0.00000000000E+00 0.  1.
         21   -1    0    0  502  503 -0.00000000000E+00 -0.00000000000E+00 -0.35412212774E+03  0.35412212774E+03  0.00000000000E+00 0. -1.
         25    1    1    2    0    0  0.20376864039E+03 -0.63504159647E+02 -0.29672426093E+03  0.38629616115E+03  0.12500000000E+03 0.  0.
          4    1    1    2  501    0 -0.20888107890E+03  0.11800892349E+03  0.17397112154E+04  0.17561755391E+04  0.00000000000E+00 0.  1.
         -4    1    1    2    0  503  0.51124385123E+01 -0.54504763845E+02  0.16668611610E+03  0.17544562579E+03  0.00000000000E+00 0. -1.
<mgrwt>
<rscale>  4 0.24780294E+03</rscale>
<asrwt>0</asrwt>
<pdfrwt beam="1">  1       21 0.30212233E+00 0.24780294E+03</pdfrwt>
<pdfrwt beam="2">  1       21 0.54480329E-01 0.24780294E+03</pdfrwt>
<totfact> 0.97487993E+01</totfact>
</mgrwt>
</event>
<event>
 5    0  0.1972558E-002  0.1854367E+03  0.7546771E-02  0.1162643E+00
         21   -1    0    0  501  502  0.00000000000E+00  0.00000000000E+00  0.19704776174E+03  0.19704776174E+03  0.00000000000E+00 0.  1.
         21   -1    0    0  502  503 -0.00000000000E+00 -0.00000000000E+00 -0.32170157892E+03  0.32170157892E+03  0.00000000000E+00 0. -1.
         25    1    1    2    0    0  0.55506104323E+02  0.19540967989E+03 -0.15000802972E+03  0.28176813091E+03  0.12500000000E+03 0.  0.
          2    1    1    2  501    0 -0.64242582575E+01 -0.79417769956E+02 -0.46223045478E+02  0.92114185727E+02  0.00000000000E+00 0. -1.
         -2    1    1    2    0  503 -0.49081846066E+02 -0.11599190994E+03  0.71577258023E+02  0.14486702403E+03  0.00000000000E+00 0.  1.
<mgrwt>
<rscale>  4 0.18543673E+03</rscale>
<asrwt>0</asrwt>
<pdfrwt beam="1">  1       21 0.30315041E-01 0.18543673E+03</pdfrwt>
<pdfrwt beam="2">  1       21 0.49492550E-01 0.18543673E+03</pdfrwt>
<totfact> 0.40785981E+04</totfact>
</mgrwt>
</event>
<event>
 5    0  0.1972558E-002  0.2398853E+03  0.7546771E-02  0.1119869E+00
         21   -1    0    0  501  502  0.00000000000E+00  0.00000000000E+00  0.44400463259E+03  0.44400463259E+03  0.00000000000E+00 0.  1.
         21   -1    0    0  502  503 -0.00000000000E+00 -0.00000000000E+00 -0.41239353222E+03  0.41239353222E+03  0.00000000000E+00 0.  1.
         25    1    1    2    0    0  0.19712932047E+03 -0.44200263566E+02 -0.30217638217E+03  0.38438157894E+03  0.12500000000E+03 0.  0.
          2    1    1    2  501    0  0.30847576018E+02  0.70359013264E+02  0.18018737341E+03  0.19588122225E+03  0.00000000000E+00 0.  1.
         -2    1    1    2    0  503 -0.22797689648E+03 -0.26158749698E+02  0.15360010913E+03  0.27613536362E+03  0.00000000000E+00 0. -1.
<mgrwt>
<rscale>  4 0.23988534E+03</rscale>
<asrwt>0</asrwt>
<pdfrwt beam="1">  1       21 0.68308405E-01 0.23988534E+03</pdfrwt>
<pdfrwt beam="2">  1       21 0.63445159E-01 0.23988534E+03</pdfrwt>
<totfact> 0.43383701E+03</totfact>
</mgrwt>
</event>
<event>
 5    0  0.1972558E-002  0.2514932E+03  0.7546771E-02  0.1112365E+00
         21   -1    0    0  501  502  0.00000000000E+00  0.00000000000E+00  0.22686936023E+03  0.22686936023E+03  0.00000000000E+00 0.  1.
         21   -1    0    0  502  503 -0.00000000000E+00 -0.00000000000E+00 -0.11574187675E+04  0.11574187675E+04  0.00000000000E+00 0. -1.
         25    1    1    2    0    0  0.12433221690E+02 -0.21079814648E+03 -0.85030309569E+03  0.88500327575E+03  0.12500000000E+03 0.  0.
          1    1    1    2  501    0 -0.84210067843E+01  0.23816010055E+03 -0.23937301887E+03  0.33777298443E+03  0.00000000000E+00 0. -1.
         -1    1    1    2    0  503 -0.40122149055E+01 -0.27361954072E+02  0.15912670727E+03  0.16151186757E+03  0.00000000000E+00 0.  1.
<mgrwt>
<rscale>  4 0.25149325E+03</rscale>
<asrwt>0</asrwt>
<pdfrwt beam="1">  1       21 0.34902979E-01 0.25149325E+03</pdfrwt>
<pdfrwt beam="2">  1       21 0.17806442E+00 0.25149325E+03</pdfrwt>
<totfact> 0.14054946E+03</totfact>
</mgrwt>
</event>
<event>
 5    0  0.1972558E-002  0.2997648E+03  0.7546771E-02  0.1085358E+00
         21   -1    0    0  501  502  0.00000000000E+00  0.00000000000E+00  0.17359559000E+03  0.17359559000E+03  0.00000000000E+00 0.  1.
         21   -1    0    0  502  503 -0.00000000000E+00 -0.00000000000E+00 -0.90172193269E+03  0.90172193269E+03  0.00000000000E+00 0. -1.
         25    1    1    2    0    0 -0.91306517396E+02  0.27603567624E+03 -0.63389562433E+03  0.70850634240E+03  0.12500000000E+03 0.  0.
          2    1    1    2  501    0  0.53060404994E+02 -0.23490730672E+03 -0.15316162926E+03  0.28540380868E+03  0.00000000000E+00 0.  1.
         -2    1    1    2    0  503  0.38246112403E+02 -0.41128369514E+02  0.58930910897E+02  0.81407371607E+02  0.00000000000E+00 0. -1.
<mgrwt>
<rscale>  4 0.29976477E+03</rscale>
<asrwt>0</asrwt>
<pdfrwt beam="1">  1       21 0.26707015E-01 0.29976477E+03</pdfrwt>
<pdfrwt beam="2">  1       21 0.13872645E+00 0.29976477E+03</pdfrwt>
<totfact> 0.45459161E+03</totfact>
</mgrwt>
</event>
<event>
 5    0  0.1972558E-002  0.2400443E+03  0.7546771E-02  0.1119763E+00
         21   -1    0    0  501  502  0.00000000000E+00  0.00000000000E+00  0.19979877029E+03  0.19979877029E+03  0.00000000000E+00 0.  1.
         21   -1    0    0  502  503 -0.00000000000E+00 -0.00000000000E+00 -0.22850301064E+04  0.22850301064E+04  0.00000000000E+00 0.  1.
         25    1    1    2    0    0 -0.22706324497E+02  0.20493564691E+03 -0.21761978861E+04  0.21895151144E+04  0.12500000000E+03 0.  0.
          1    1    1    2  501    0  0.31678918257E+02 -0.16703102960E+03  0.14856863476E+03  0.22577767371E+03  0.00000000000E+00 0.  1.
         -1    1    1    2    0  503 -0.89725937602E+01 -0.37904617311E+02 -0.57602084820E+02  0.69536088672E+02  0.00000000000E+00 0. -1.
<mgrwt>
<rscale>  4 0.24004434E+03</rscale>
<asrwt>0</asrwt>
<pdfrwt beam="1">  1       21 0.30738271E-01 0.24004434E+03</pdfrwt>
<pdfrwt beam="2">  1       21 0.35154311E+00 0.24004434E+03</pdfrwt>
<totfact> 0.16196679E+02</totfact>
</mgrwt>
</event>
<event>
 5    0  0.1972558E-002  0.2249410E+03  0.7546771E-02  0.1130252E+00
         21   -1    0    0  501  502  0.00000000000E+00  0.00000000000E+00  0.12933127857E+04  0.12933127857E+04  0.00000000000E+00 0.  1.
         21   -1    0    0  502  503 -0.00000000000E+00 -0.00000000000E+00 -0.10966897328E+03  0.10966897328E+03  0.00000000000E+00 0.  1.
         25    1    1    2    0    0  0.40092093147E+02 -0.20742390925E+03  0.12583237695E+03  0.27584568358E+03  0.12500000000E+03 0.  0.
          4    1    1    2  501    0 -0.37774369670E+02  0.15896770439E+03  0.16226662317E+03  0.23027829042E+03  0.00000000000E+00 0. -1.
         -4    1    1    2    0  503 -0.23177234773E+01  0.48456204862E+02  0.89554481227E+03  0.89685778494E+03  0.00000000000E+00 0.  1.
<mgrwt>
<rscale>  4 0.22494101E+03</rscale>
<asrwt>0</asrwt>
<pdfrwt beam="1">  1       21 0.19897119E+00 0.22494101E+03</pdfrwt>
<pdfrwt beam="2">  1       21 0.16872151E-01 0.22494101E+03</pdfrwt>
<totfact> 0.41894537E+03</totfact>
</mgrwt>
</event>
<event>
 5    0  0.1972558E-002  0.4422221E+03  0.7546771E-02  0.1030067E+00
         21   -1    0    0  501  502  0.00000000000E+00  0.00000000000E+00  0.49826472898E+03  0.49826472898E+03  0.00000000000E+00 0.  1.
         21   -1    0    0  502  503 -0.00000000000E+00 -0.00000000000E+00 -0.42943649999E+03  0.42943649999E+03  0.00000000000E+00 0.  1.
         25    1    1    2    0    0 -0.14883568480E+03 -0.41394777407E+03  0.24766301660E+02  0.45797728156E+03  0.12500000000E+03 0.  0.
          4    1    1    2  501    0  0.12243840994E+03  0.39245428720E+03 -0.36341088945E+01  0.41112618321E+03  0.00000000000E+00 0.  1.
         -4    1    1    2    0  503  0.26397274860E+02  0.21493486863E+02  0.47696036226E+02  0.58597764200E+02  0.00000000000E+00 0. -1.
<mgrwt>
<rscale>  4 0.44222205E+03</rscale>
<asrwt>0</asrwt>
<pdfrwt beam="1">  1       21 0.76656112E-01 0.44222205E+03</pdfrwt>
<pdfrwt beam="2">  1       21 0.66067154E-01 0.44222205E+03</pdfrwt>
<totfact> 0.27767195E+03</totfact>
</mgrwt>
</event>
<event>
 5    0  0.1972558E-002  0.3447373E+03  0.7546771E-02  0.1064796E+00
         21   -1    0    0  501  502  0.00000000000E+00  0.00000000000E+00  0.28259659799E+03  0.28259659799E+03  0.00000000000E+00 0.  1.
         21   -1    0    0  502  503 -0.00000000000E+00 -0.00000000000E+00 -0.70331594345E+03  0.70331594345E+03  0.00000000000E+00 0.  1.
         25    1    1    2    0    0  0.15969282526E+03 -0.28881409168E+03 -0.38837019955E+03  0.52475879210E+03  0.12500000000E+03 0.  0.
          1    1    1    2  501    0 -0.12094083288E+03  0.28506689748E+03 -0.14502690673E+03  0.34193950455E+03  0.00000000000E+00 0.  1.
         -1    1    1    2    0  503 -0.38751992376E+02  0.37471942063E+01  0.11267776082E+03  0.11921424479E+03  0.00000000000E+00 0. -1.
<mgrwt>
<rscale>  4 0.34473730E+03</rscale>
<asrwt>0</asrwt>
<pdfrwt beam="1">  1       21 0.43476400E-01 0.34473730E+03</pdfrwt>
<pdfrwt beam="2">  1       21 0.10820245E+00 0.34473730E+03</pdfrwt>
<totfact> 0.31356583E+03</totfact>
</mgrwt>
</event>
<event>
 5    0  0.1972558E-002  0.3526461E+03  0.7546771E-02  0.1061998E+00
         21   -1    0    0  501  502  0.00000000000E+00  0.00000000000E+00  0.83354271288E+03  0.83354271288E+03  0.00000000000E+00 0.  1.
         21   -1    0    0  502  503 -0.00000000000E+00 -0.00000000000E+00 -0.15998678816E+03  0.15998678816E+03  0.00000000000E+00 0.  1.
         25    1    1    2    0    0  0.11493435115E+03 -0.30388983789E+03  0.19479152785E+03  0.39890810718E+03  0.12500000000E+03 0.  0.
          1    1    1    2  501    0 -0.99139154949E+01  0.20900584006E+03  0.25509074131E+03  0.32992880020E+03  0.00000000000E+00 0.  1.
         -1    1    1    2    0  503 -0.10502043565E+03  0.94883997831E+02  0.22367365556E+03  0.26469259366E+03  0.00000000000E+00 0. -1.
<mgrwt>
<rscale>  4 0.35150777E+03</rscale>
<asrwt>0</asrwt>
<pdfrwt beam="1">  1       21 0.12823734E+00 0.35264608E+03</pdfrwt>
<pdfrwt beam="2">  1       21 0.24613352E-01 0.35264608E+03</pdfrwt>
<totfact> 0.63605497E+03</totfact>
</mgrwt>
</event>
<event>
 5    0  0.1972558E-002  0.2598342E+03  0.7546771E-02  0.1107243E+00
         21   -1    0    0  501  502  0.00000000000E+00  0.00000000000E+00  0.79163279152E+02  0.79163279152E+02  0.00000000000E+00 0.  1.
         21   -1    0    0  502  503 -0.00000000000E+00 -0.00000000000E+00 -0.94432869868E+03  0.94432869868E+03  0.00000000000E+00 0.  1.
         25    1    1    2    0    0 -0.55379101180E+02 -0.22369113804E+03 -0.62615105833E+03  0.67881861932E+03  0.12500000000E+03 0.  0.
          3    1    1    2  501    0  0.32249090405E+02  0.22150635210E+03 -0.22578902347E+03  0.31793985433E+03  0.00000000000E+00 0.  1.
         -3    1    1    2    0  503  0.23130010775E+02  0.21847859407E+01 -0.13225337735E+02  0.26733504189E+02  0.00000000000E+00 0. -1.
<mgrwt>
<rscale>  4 0.25983418E+03</rscale>
<asrwt>0</asrwt>
<pdfrwt beam="1">  1       21 0.12178966E-01 0.25983418E+03</pdfrwt>
<pdfrwt beam="2">  1       21 0.14528134E+00 0.25983418E+03</pdfrwt>
<totfact> 0.17834804E+04</totfact>
</mgrwt>
</event>
<event>
 5    0  0.1972558E-002  0.2462420E+03  0.7546771E-02  0.1115703E+00
         21   -1    0    0  501  502  0.00000000000E+00  0.00000000000E+00  0.11495311687E+04  0.11495311687E+04  0.00000000000E+00 0.  1.
         21   -1    0    0  502  503 -0.00000000000E+00 -0.00000000000E+00 -0.61118049149E+02  0.61118049149E+02  0.00000000000E+00 0.  1.
         25    1    1    2    0    0  0.24215599744E+02  0.21076931780E+03  0.27648719939E+03  0.37024353070E+03  0.12500000000E+03 0.  0.
          1    1    1    2  501    0 -0.19251213011E+02 -0.19056487305E+03  0.66567510168E+03  0.69268240994E+03  0.00000000000E+00 0.  1.
         -1    1    1    2    0  503 -0.49643867331E+01 -0.20204444745E+02  0.14625081848E+03  0.14772327721E+03  0.00000000000E+00 0. -1.
<mgrwt>
<rscale>  4 0.24624196E+03</rscale>
<asrwt>0</asrwt>
<pdfrwt beam="1">  1       21 0.17685093E+00 0.24624196E+03</pdfrwt>
<pdfrwt beam="2">  1       21 0.94027777E-02 0.24624196E+03</pdfrwt>
<totfact> 0.16683232E+04</totfact>
</mgrwt>
</event>
<event>
 5    0  0.1972558E-002  0.2340431E+03  0.7546771E-02  0.1123826E+00
         21   -1    0    0  501  502  0.00000000000E+00  0.00000000000E+00  0.13954063017E+03  0.13954063017E+03  0.00000000000E+00 0.  1.
         21   -1    0    0  502  503 -0.00000000000E+00 -0.00000000000E+00 -0.66013139874E+03  0.66013139874E+03  0.00000000000E+00 0.  1.
         25    1    1    2    0    0 -0.15952505618E+03  0.16481100217E+03 -0.39945727175E+03  0.47728610072E+03  0.12500000000E+03 0.  0.
          4    1    1    2  501    0  0.12355668679E+03  0.41442211540E+01 -0.30595395470E+02  0.12735583082E+03  0.00000000000E+00 0. -1.
         -4    1    1    2    0  503  0.35968369395E+02 -0.16895522332E+03 -0.90538101354E+02  0.19503009737E+03  0.00000000000E+00 0.  1.
<mgrwt>
<rscale>  4 0.23404313E+03</rscale>
<asrwt>0</asrwt>
<pdfrwt beam="1">  1       21 0.21467789E-01 0.23404313E+03</pdfrwt>
<pdfrwt beam="2">  1       21 0.10155868E+00 0.23404313E+03</pdfrwt>
<totfact> 0.15593560E+04</totfact>
</mgrwt>
</event>
<event>
 5    0  0.1972558E-002  0.2719662E+03  0.7546771E-02  0.1100160E+00
         21   -1    0    0  501  502  0.00000000000E+00  0.00000000000E+00  0.18168953949E+03  0.18168953949E+03  0.00000000000E+00 0.  1.
         21   -1    0    0  502  503 -0.00000000000E+00 -0.00000000000E+00 -0.66954825441E+03  0.66954825441E+03  0.00000000000E+00 0.  1.
         25    1    1    2    0    0  0.21717558297E+03 -0.12503185208E+03 -0.18764673779E+03  0.33709716118E+03  0.12500000000E+03 0.  0.
          4    1    1    2  501    0  0.24735457634E+01  0.33579477652E+02  0.67923431813E+02  0.75810898538E+02  0.00000000000E+00 0. -1.
         -4    1    1    2    0  503 -0.21964912873E+03  0.91452374433E+02 -0.36813540894E+03  0.43832973417E+03  0.00000000000E+00 0.  1.
<mgrwt>
<rscale>  4 0.27196621E+03</rscale>
<asrwt>0</asrwt>
<pdfrwt beam="1">  1       21 0.27952237E-01 0.27196621E+03</pdfrwt>
<pdfrwt beam="2">  1       21 0.10300742E+00 0.27196621E+03</pdfrwt>
<totfact> 0.88997209E+03</totfact>
</mgrwt>
</event>
<event>
 5    0  0.1972558E-002  0.2358976E+03  0.7546771E-02  0.1122556E+00
         21   -1    0    0  501  502  0.00000000000E+00  0.00000000000E+00  0.55831546708E+02  0.55831546708E+02  0.00000000000E+00 0.  1.
         21   -1    0    0  502  503 -0.00000000000E+00 -0.00000000000E+00 -0.25947061280E+04  0.25947061280E+04  0.00000000000E+00 0. -1.
         25    1    1    2    0    0 -0.31720560849E+02 -0.20145894292E+03 -0.22892686613E+04  0.23017315011E+04  0.12500000000E+03 0.  0.
          1    1    1    2  501    0  0.91450281117E+01  0.18264299613E+03 -0.25979306447E+03  0.31770195454E+03  0.00000000000E+00 0.  1.
         -1    1    1    2    0  503  0.22575532737E+02  0.18815946794E+02  0.10187144445E+02  0.31104219072E+02  0.00000000000E+00 0. -1.
<mgrwt>
<rscale>  4 0.23589764E+03</rscale>
<asrwt>0</asrwt>
<pdfrwt beam="1">  1       21 0.85894694E-02 0.23589764E+03</pdfrwt>
<pdfrwt beam="2">  1       21 0.39918553E+00 0.23589764E+03</pdfrwt>
<totfact> 0.87881243E+02</totfact>
</mgrwt>
</event>
<event>
 5    0  0.1972558E-002  0.4402727E+03  0.7546771E-02  0.1030663E+00
         21   -1    0    0  501  502  0.00000000000E+00  0.00000000000E+00  0.17060878871E+04  0.17060878871E+04  0.00000000000E+00 0. -1.
         21   -1    0    0  502  503 -0.00000000000E+00 -0.00000000000E+00 -0.33703607083E+03  0.33703607083E+03  0.00000000000E+00 0. -1.
         25    1    1    2    0    0 -0.14930995696E+03 -0.42007317199E+03  0.32638934545E+03  0.56648913308E+03  0.12500000000E+03 0.  0.
          4    1    1    2  501    0  0.63966456734E+01  0.33870819048E+02  0.10637407503E+04  0.10642990808E+04  0.00000000000E+00 0.  1.
         -4    1    1    2    0  503  0.14291331129E+03  0.38620235294E+03 -0.21078279509E+02  0.41233574406E+03  0.00000000000E+00 0. -1.
<mgrwt>
<rscale>  4 0.44027266E+03</rscale>
<asrwt>0</asrwt>
<pdfrwt beam="1">  1       21 0.26247506E+00 0.44027266E+03</pdfrwt>
<pdfrwt beam="2">  1       21 0.51851704E-01 0.44027266E+03</pdfrwt>
<totfact> 0.15760172E+02</totfact>
</mgrwt>
</event>
<event>
 5    0  0.1972558E-002  0.2541099E+03  0.7546771E-02  0.1110735E+00
         21   -1    0    0  503  502  0.00000000000E+00  0.00000000000E+00  0.22181658491E+03  0.22181658491E+03  0.00000000000E+00 0. -1.
         21   -1    0    0  501  503 -0.00000000000E+00 -0.00000000000E+00 -0.75245963293E+03  0.75245963293E+03  0.00000000000E+00 0.  1.
         25    1    1    2    0    0  0.20406055899E+03 -0.85475930965E+02 -0.65661159290E+03  0.70406720591E+03  0.12500000000E+03 0.  0.
          2    1    1    2  501    0 -0.24165431278E+02  0.39197509632E+02  0.49730193304E+00  0.46050625831E+02  0.00000000000E+00 0.  1.
         -2    1    1    2    0  502 -0.17989512771E+03  0.46278421333E+02  0.12547124293E+03  0.22415838610E+03  0.00000000000E+00 0. -1.
<mgrwt>
<rscale>  4 0.25410991E+03</rscale>
<asrwt>0</asrwt>
<pdfrwt beam="1">  1       21 0.34125628E-01 0.25410991E+03</pdfrwt>
<pdfrwt beam="2">  1       21 0.11576302E+00 0.25410991E+03</pdfrwt>
<totfact> 0.45645287E+03</totfact>
</mgrwt>
</event>
<event>
 5    0  0.1972558E-002  0.2371468E+03  0.7546771E-02  0.1121708E+00
         21   -1    0    0  501  502  0.00000000000E+00  0.00000000000E+00  0.86286555116E+03  0.86286555116E+03  0.00000000000E+00 0.  1.
         21   -1    0    0  502  503 -0.00000000000E+00 -0.00000000000E+00 -0.78240373450E+02  0.78240373450E+02  0.00000000000E+00 0.  1.
         25    1    1    2    0    0  0.12641559212E+03 -0.15694803220E+03  0.17075963504E+03  0.29222840331E+03  0.12500000000E+03 0.  0.
          4    1    1    2  501    0 -0.41359060613E+02  0.53011250225E+02  0.30074880012E+03  0.30817301199E+03  0.00000000000E+00 0. -1.
         -4    1    1    2    0  503 -0.85056531505E+02  0.10393678197E+03  0.31311674255E+03  0.34070450931E+03  0.00000000000E+00 0.  1.
<mgrwt>
<rscale>  4 0.23714676E+03</rscale>
<asrwt>0</asrwt>
<pdfrwt beam="1">  1       21 0.13274854E+00 0.23714676E+03</pdfrwt>
<pdfrwt beam="2">  1       21 0.12036981E-01 0.23714676E+03</pdfrwt>
<totfact> 0.23303362E+04</totfact>
</mgrwt>
</event>
<event>
 5    0  0.1972558E-002  0.2761248E+03  0.7546771E-02  0.1097824E+00
         21   -1    0    0  501  502  0.00000000000E+00  0.00000000000E+00  0.84497848431E+03  0.84497848431E+03  0.00000000000E+00 0.  1.
         21   -1    0    0  502  503 -0.00000000000E+00 -0.00000000000E+00 -0.20344942604E+03  0.20344942604E+03  0.00000000000E+00 0. -1.
         25    1    1    2    0    0 -0.24778813907E+03 -0.18778989490E+02 -0.70417319613E+02  0.28694112848E+03  0.12500000000E+03 0.  0.
          4    1    1    2  501    0  0.13071001059E+02  0.27445810671E+02  0.13861769475E+03  0.14191190538E+03  0.00000000000E+00 0. -1.
         -4    1    1    2    0  503  0.23471713801E+03 -0.86668211810E+01  0.57332868314E+03  0.61957487649E+03  0.00000000000E+00 0.  1.
<mgrwt>
<rscale>  4 0.27612484E+03</rscale>
<asrwt>0</asrwt>
<pdfrwt beam="1">  1       21 0.12999669E+00 0.27612484E+03</pdfrwt>
<pdfrwt beam="2">  1       21 0.31299912E-01 0.27612484E+03</pdfrwt>
<totfact> 0.39929228E+03</totfact>
</mgrwt>
</event>
<event>
 5    0  0.1972558E-002  0.2447361E+03  0.7546771E-02  0.1116677E+00
         21   -1    0    0  501  502  0.00000000000E+00  0.00000000000E+00  0.42778070859E+03  0.42778070859E+03  0.00000000000E+00 0. -1.
         21   -1    0    0  502  503 -0.00000000000E+00 -0.00000000000E+00 -0.26635518020E+03  0.26635518020E+03  0.00000000000E+00 0.  1.
         25    1    1    2    0    0 -0.12379288910E+03  0.16041308126E+03 -0.11520511521E+03  0.26448866630E+03  0.12500000000E+03 0.  0.
          2    1    1    2  501    0 -0.19810270705E+02  0.17254869510E+02  0.17949474729E+03  0.18140711577E+03  0.00000000000E+00 0.  1.
         -2    1    1    2    0  503  0.14360315980E+03 -0.17766795077E+03  0.97135896310E+02  0.24824010673E+03  0.00000000000E+00 0. -1.
<mgrwt>
<rscale>  4 0.24473609E+03</rscale>
<asrwt>0</asrwt>
<pdfrwt beam="1">  1       21 0.65812417E-01 0.24473609E+03</pdfrwt>
<pdfrwt beam="2">  1       21 0.40977720E-01 0.24473609E+03</pdfrwt>
<totfact> 0.11786037E+04</totfact>
</mgrwt>
</event>
<event>
 5    0  0.1972558E-002  0.3324930E+03  0.7546771E-02  0.1070039E+00
         21   -1    0    0  501  502  0.00000000000E+00  0.00000000000E+00  0.53204434254E+03  0.53204434254E+03  0.00000000000E+00 0. -1.
         21   -1    0    0  502  503 -0.00000000000E+00 -0.00000000000E+00 -0.30066350917E+03  0.30066350917E+03  0.00000000000E+00 0. -1.
         25    1    1    2    0    0 -0.32422608674E+03  0.82016206657E+02 -0.21583311905E+02  0.35768708788E+03  0.12500000000E+03 0.  0.
          4    1    1    2  501    0  0.66301940037E+02  0.27760064205E+02  0.16701610526E+03  0.18182669725E+03  0.00000000000E+00 0. -1.
         -4    1    1    2    0  503  0.25792414671E+03 -0.10977627086E+03  0.85948040008E+02  0.29319406658E+03  0.00000000000E+00 0.  1.
<mgrwt>
<rscale>  4 0.33249296E+03</rscale>
<asrwt>0</asrwt>
<pdfrwt beam="1">  1       21 0.81852975E-01 0.33249296E+03</pdfrwt>
<pdfrwt beam="2">  1       21 0.46255925E-01 0.33249296E+03</pdfrwt>
<totfact> 0.53826712E+03</totfact>
</mgrwt>
</event>
<event>
 5    0  0.1972558E-002  0.2401612E+03  0.7546771E-02  0.1119686E+00
         21   -1    0    0  503  502  0.00000000000E+00  0.00000000000E+00  0.92672048375E+02  0.92672048375E+02  0.00000000000E+00 0. -1.
         21   -1    0    0  501  503 -0.00000000000E+00 -0.00000000000E+00 -0.82647210799E+03  0.82647210799E+03  0.00000000000E+00 0.  1.
         25    1    1    2    0    0 -0.19674840443E+03  0.85357172584E+02 -0.56222939124E+03  0.61459146588E+03  0.12500000000E+03 0.  0.
          2    1    1    2  501    0  0.33557475342E+02  0.15122859487E+02  0.12456464641E+02  0.38858313676E+02  0.00000000000E+00 0. -1.
         -2    1    1    2    0  502  0.16319092909E+03 -0.10048003207E+03 -0.18402713302E+03  0.26569437682E+03  0.00000000000E+00 0.  1.
<mgrwt>
<rscale>  4 0.24016116E+03</rscale>
<asrwt>0</asrwt>
<pdfrwt beam="1">  1       21 0.14257238E-01 0.24016116E+03</pdfrwt>
<pdfrwt beam="2">  1       21 0.12714956E+00 0.24016116E+03</pdfrwt>
<totfact> 0.19107063E+04</totfact>
</mgrwt>
</event>
<event>
 5    0  0.1972558E-002  0.4410557E+03  0.7546771E-02  0.1030423E+00
         21   -1    0    0  501  502  0.00000000000E+00  0.00000000000E+00  0.22033208222E+03  0.22033208222E+03  0.00000000000E+00 0.  1.
         21   -1    0    0  502  503 -0.00000000000E+00 -0.00000000000E+00 -0.14632794831E+04  0.14632794831E+04  0.00000000000E+00 0.  1.
         25    1    1    2    0    0  0.21798510021E+03  0.36247830724E+03 -0.88115840940E+03  0.98537970833E+03  0.12500000000E+03 0.  0.
          1    1    1    2  501    0 -0.13412412442E+03  0.71624729111E+02 -0.12407452053E+03  0.19624950756E+03  0.00000000000E+00 0. -1.
         -1    1    1    2    0  503 -0.83860975785E+02 -0.43410303635E+03 -0.23771447094E+03  0.50198234942E+03  0.00000000000E+00 0.  1.
<mgrwt>
<rscale>  4 0.44105566E+03</rscale>
<asrwt>0</asrwt>
<pdfrwt beam="1">  1       21 0.33897243E-01 0.44105566E+03</pdfrwt>
<pdfrwt beam="2">  1       21 0.22511992E+00 0.44105566E+03</pdfrwt>
<totfact> 0.64749023E+02</totfact>
</mgrwt>
</event>
<event>
 5    0  0.1972558E-002  0.3341495E+03  0.7546771E-02  0.1069315E+00
         21   -1    0    0  501  502  0.00000000000E+00  0.00000000000E+00  0.29598486485E+04  0.29598486485E+04  0.00000000000E+00 0.  1.
         21   -1    0    0  502  503 -0.00000000000E+00 -0.00000000000E+00 -0.86754358451E+02  0.86754358451E+02  0.00000000000E+00 0. -1.
         25    1    1    2    0    0  0.30070804797E+03 -0.17109784633E+03  0.40060435018E+03  0.54388293641E+03  0.12500000000E+03 0.  0.
          2    1    1    2  501    0 -0.12179457753E+03  0.25982161531E+02  0.14128724292E+04  0.14183502717E+04  0.00000000000E+00 0.  1.
         -2    1    1    2    0  503 -0.17891347044E+03  0.14511568480E+03  0.10596175106E+04  0.10843697989E+04  0.00000000000E+00 0. -1.
<mgrwt>
<rscale>  4 0.33414949E+03</rscale>
<asrwt>0</asrwt>
<pdfrwt beam="1">  1       21 0.45536125E+00 0.33414949E+03</pdfrwt>
<pdfrwt beam="2">  1       21 0.13346827E-01 0.33414949E+03</pdfrwt>
<totfact> 0.15401729E+02</totfact>
</mgrwt>
</event>
<event>
 5    0  0.1972558E-002  0.2599304E+03  0.7546771E-02  0.1107185E+00
         21   -1    0    0  501  502  0.00000000000E+00  0.00000000000E+00  0.19816226541E+04  0.19816226541E+04  0.00000000000E+00 0. -1.
         21   -1    0    0  502  503 -0.00000000000E+00 -0.00000000000E+00 -0.14750465125E+03  0.14750465125E+03  0.00000000000E+00 0.  1.
         25    1    1    2    0    0  0.18850960925E+03 -0.18476933102E+03  0.55918387469E+02  0.29736752432E+03  0.12500000000E+03 0.  0.
          4    1    1    2  501    0 -0.17121772603E+03  0.30095676918E+01  0.14142572870E+04  0.14245870423E+04  0.00000000000E+00 0.  1.
         -4    1    1    2    0  503 -0.17291883226E+02  0.18175976333E+03  0.36394232838E+03  0.40717273875E+03  0.00000000000E+00 0. -1.
<mgrwt>
<rscale>  4 0.25993036E+03</rscale>
<asrwt>0</asrwt>
<pdfrwt beam="1">  1       21 0.30486500E+00 0.25993036E+03</pdfrwt>
<pdfrwt beam="2">  1       21 0.22693025E-01 0.25993036E+03</pdfrwt>
<totfact> 0.53618200E+02</totfact>
</mgrwt>
</event>
<event>
 5    0  0.1972558E-002  0.3145201E+03  0.7546771E-02  0.1078199E+00
         21   -1    0    0  501  502  0.00000000000E+00  0.00000000000E+00  0.11416761951E+03  0.11416761951E+03  0.00000000000E+00 0. -1.
         21   -1    0    0  502  503 -0.00000000000E+00 -0.00000000000E+00 -0.12861770189E+04  0.12861770189E+04  0.00000000000E+00 0.  1.
         25    1    1    2    0    0 -0.24295079363E+03  0.15740479633E+03 -0.88020890644E+03  0.93498346349E+03  0.12500000000E+03 0.  0.
          2    1    1    2  501    0 -0.16870025828E+02 -0.32317341588E+02  0.19234906364E+02  0.41218805921E+02  0.00000000000E+00 0.  1.
         -2    1    1    2    0  503  0.25982081945E+03 -0.12508745475E+03 -0.31103539931E+03  0.42414236900E+03  0.00000000000E+00 0. -1.
<mgrwt>
<rscale>  4 0.31452014E+03</rscale>
<asrwt>0</asrwt>
<pdfrwt beam="1">  1       21 0.17564249E-01 0.31452014E+03</pdfrwt>
<pdfrwt beam="2">  1       21 0.19787339E+00 0.31452014E+03</pdfrwt>
<totfact> 0.37147547E+03</totfact>
</mgrwt>
</event>
<event>
 5    0  0.1972558E-002  0.2850535E+03  0.7546771E-02  0.1092960E+00
         21   -1    0    0  501  502  0.00000000000E+00  0.00000000000E+00  0.18144702278E+03  0.18144702278E+03  0.00000000000E+00 0. -1.
         21   -1    0    0  502  503 -0.00000000000E+00 -0.00000000000E+00 -0.65260353198E+03  0.65260353198E+03  0.00000000000E+00 0.  1.
         25    1    1    2    0    0 -0.15079035462E+03  0.21938527072E+03 -0.32395855380E+03  0.43754059542E+03  0.12500000000E+03 0.  0.
          2    1    1    2  501    0  0.34806964369E+02 -0.13759023037E+01  0.63152169387E+02  0.72122218311E+02  0.00000000000E+00 0. -1.
         -2    1    1    2    0  503  0.11598339025E+03 -0.21800936842E+03 -0.21035012479E+03  0.32438774103E+03  0.00000000000E+00 0.  1.
<mgrwt>
<rscale>  4 0.28505345E+03</rscale>
<asrwt>0</asrwt>
<pdfrwt beam="1">  1       21 0.27914926E-01 0.28505345E+03</pdfrwt>
<pdfrwt beam="2">  1       21 0.10040054E+00 0.28505345E+03</pdfrwt>
<totfact> 0.94290028E+03</totfact>
</mgrwt>
</event>
<event>
 5    0  0.1972558E-002  0.2393418E+03  0.7546771E-02  0.1120232E+00
         21   -1    0    0  501  502  0.00000000000E+00  0.00000000000E+00  0.10084193233E+04  0.10084193233E+04  0.00000000000E+00 0.  1.
         21   -1    0    0  502  503 -0.00000000000E+00 -0.00000000000E+00 -0.76749121769E+02  0.76749121769E+02  0.00000000000E+00 0.  1.
         25    1    1    2    0    0 -0.10137484497E+03 -0.17305681688E+03  0.22571609001E+03  0.32680005256E+03  0.12500000000E+03 0.  0.
          2    1    1    2  501    0  0.13652654665E+03  0.16182872805E+03  0.42311763302E+03  0.47313482913E+03  0.00000000000E+00 0.  1.
         -2    1    1    2    0  503 -0.35151701677E+02  0.11228088826E+02  0.28283647848E+03  0.28523356337E+03  0.00000000000E+00 0. -1.
<mgrwt>
<rscale>  4 0.23934184E+03</rscale>
<asrwt>0</asrwt>
<pdfrwt beam="1">  1       21 0.15514142E+00 0.23934184E+03</pdfrwt>
<pdfrwt beam="2">  1       21 0.11807558E-01 0.23934184E+03</pdfrwt>
<totfact> 0.16016211E+04</totfact>
</mgrwt>
</event>
<event>
 5    0  0.1972558E-002  0.2656441E+03  0.7546771E-02  0.1103799E+00
         21   -1    0    0  501  502  0.00000000000E+00  0.00000000000E+00  0.47297167443E+03  0.47297167443E+03  0.00000000000E+00 0. -1.
         21   -1    0    0  502  503 -0.00000000000E+00 -0.00000000000E+00 -0.24701169559E+03  0.24701169559E+03  0.00000000000E+00 0.  1.
         25    1    1    2    0    0 -0.10469855874E+03 -0.22533990872E+03 -0.59201707568E+02  0.28437599203E+03  0.12500000000E+03 0.  0.
          1    1    1    2  501    0  0.67208692140E+02  0.20467966275E+03  0.86107738329E+02  0.23200283456E+03  0.00000000000E+00 0. -1.
         -1    1    1    2    0  503  0.37489866600E+02  0.20660245967E+02  0.19905394808E+03  0.20360454343E+03  0.00000000000E+00 0.  1.
<mgrwt>
<rscale>  4 0.26564405E+03</rscale>
<asrwt>0</asrwt>
<pdfrwt beam="1">  1       21 0.72764873E-01 0.26564405E+03</pdfrwt>
<pdfrwt beam="2">  1       21 0.38001799E-01 0.26564405E+03</pdfrwt>
<totfact> 0.10873938E+04</totfact>
</mgrwt>
</event>
<event>
 5    0  0.1972558E-002  0.2388520E+03  0.7546771E-02  0.1120560E+00
         21   -1    0    0  503  502  0.00000000000E+00  0.00000000000E+00  0.51946030659E+02  0.51946030659E+02  0.00000000000E+00 0. -1.
         21   -1    0    0  501  503 -0.00000000000E+00 -0.00000000000E+00 -0.13194781758E+04  0.13194781758E+04  0.00000000000E+00 0.  1.
         25    1    1    2    0    0 -0.19789366693E+03  0.47575175179E+02 -0.10227260752E+04  0.10502470783E+04  0.12500000000E+03 0.  0.
          2    1    1    2  501    0  0.22679332180E+02 -0.12843552857E+02 -0.53097467804E+02  0.59149387531E+02  0.00000000000E+00 0.  1.
         -2    1    1    2    0  502  0.17521433475E+03 -0.34731622322E+02 -0.19170860211E+03  0.26202774054E+03  0.00000000000E+00 0. -1.
<mgrwt>
<rscale>  4 0.23885205E+03</rscale>
<asrwt>0</asrwt>
<pdfrwt beam="1">  1       21 0.79916978E-02 0.23885205E+03</pdfrwt>
<pdfrwt beam="2">  1       21 0.20299662E+00 0.23885205E+03</pdfrwt>
<totfact> 0.14925750E+04</totfact>
</mgrwt>
</event>
<event>
 5    0  0.1972558E-002  0.2659486E+03  0.7546771E-02  0.1103621E+00
         21   -1    0    0  501  502  0.00000000000E+00  0.00000000000E+00  0.12056304097E+04  0.12056304097E+04  0.00000000000E+00 0.  1.
         21   -1    0    0  502  503 -0.00000000000E+00 -0.00000000000E+00 -0.55527024525E+03  0.55527024525E+03  0.00000000000E+00 0. -1.
         25    1    1    2    0    0  0.19307091483E+03 -0.13546080292E+03 -0.49840263250E+03  0.56538145650E+03  0.12500000000E+03 0.  0.
          2    1    1    2  501    0 -0.47496111043E+02 -0.32729746324E+02  0.60889250083E+03  0.61161850399E+03  0.00000000000E+00 0.  1.
         -2    1    1    2    0  503 -0.14557480378E+03  0.16819054925E+03  0.53987029616E+03  0.58390069449E+03  0.00000000000E+00 0. -1.
<mgrwt>
<rscale>  4 0.26594865E+03</rscale>
<asrwt>0</asrwt>
<pdfrwt beam="1">  1       21 0.18548160E+00 0.26594865E+03</pdfrwt>
<pdfrwt beam="2">  1       21 0.85426192E-01 0.26594865E+03</pdfrwt>
<totfact> 0.18217723E+02</totfact>
</mgrwt>
</event>
<event>
 5    0  0.1972558E-002  0.2531507E+03  0.7546771E-02  0.1111330E+00
         21   -1    0    0  503  502  0.00000000000E+00  0.00000000000E+00  0.11780487560E+04  0.11780487560E+04  0.00000000000E+00 0.  1.
         21   -1    0    0  501  503 -0.00000000000E+00 -0.00000000000E+00 -0.74536393297E+02  0.74536393297E+02  0.00000000000E+00 0. -1.
         25    1    1    2    0    0  0.20441280912E+03  0.13100704970E+03  0.32202138731E+03  0.42222057918E+03  0.12500000000E+03 0.  0.
          4    1    1    2  501    0 -0.29563960830E+02 -0.44308982477E+02  0.38259283066E+03  0.38628304102E+03  0.00000000000E+00 0.  1.
         -4    1    1    2    0  502 -0.17484884829E+03 -0.86698067219E+02  0.39889814475E+03  0.44408152911E+03  0.00000000000E+00 0. -1.
<mgrwt>
<rscale>  4 0.25315068E+03</rscale>
<asrwt>0</asrwt>
<pdfrwt beam="1">  1       21 0.18123826E+00 0.25315068E+03</pdfrwt>
<pdfrwt beam="2">  1       21 0.11467138E-01 0.25315068E+03</pdfrwt>
<totfact> 0.10878858E+04</totfact>
</mgrwt>
</event>
<event>
 5    0  0.1972558E-002  0.2431297E+03  0.7546771E-02  0.1117725E+00
         21   -1    0    0  501  502  0.00000000000E+00  0.00000000000E+00  0.67052478883E+02  0.67052478883E+02  0.00000000000E+00 0.  1.
         21   -1    0    0  502  503 -0.00000000000E+00 -0.00000000000E+00 -0.28444447644E+04  0.28444447644E+04  0.00000000000E+00 0.  1.
         25    1    1    2    0    0 -0.40492146089E+02  0.20784544337E+03 -0.25581998781E+04  0.25699904588E+04  0.12500000000E+03 0.  0.
          1    1    1    2  501    0  0.32521641109E+02 -0.18782864577E+03 -0.24335983435E+03  0.30912985344E+03  0.00000000000E+00 0.  1.
         -1    1    1    2    0  503  0.79705049794E+01 -0.20016797605E+02  0.24167426939E+02  0.32376930997E+02  0.00000000000E+00 0. -1.
<mgrwt>
<rscale>  4 0.24312967E+03</rscale>
<asrwt>0</asrwt>
<pdfrwt beam="1">  1       21 0.10315765E-01 0.24312967E+03</pdfrwt>
<pdfrwt beam="2">  1       21 0.43760691E+00 0.24312967E+03</pdfrwt>
<totfact> 0.35713270E+02</totfact>
</mgrwt>
</event>
<event>
 5    0  0.1972558E-002  0.4178079E+03  0.7546771E-02  0.1037782E+00
         21   -1    0    0  501  502  0.00000000000E+00  0.00000000000E+00  0.11731683350E+04  0.11731683350E+04  0.00000000000E+00 0.  1.
         21   -1    0    0  502  503 -0.00000000000E+00 -0.00000000000E+00 -0.17001976216E+03  0.17001976216E+03  0.00000000000E+00 0.  1.
         25    1    1    2    0    0 -0.39381033323E+03  0.62063318979E+02  0.26062669370E+03  0.49243243962E+03  0.12500000000E+03 0.  0.
          4    1    1    2  501    0  0.32412243401E+03 -0.81685556612E+02  0.66740284380E+03  0.74642778506E+03  0.00000000000E+00 0.  1.
         -4    1    1    2    0  503  0.69687899216E+02  0.19622237634E+02  0.75119035333E+02  0.10432787248E+03  0.00000000000E+00 0. -1.
<mgrwt>
<rscale>  4 0.41780789E+03</rscale>
<asrwt>0</asrwt>
<pdfrwt beam="1">  1       21 0.18048743E+00 0.41780789E+03</pdfrwt>
<pdfrwt beam="2">  1       21 0.26156887E-01 0.41780789E+03</pdfrwt>
<totfact> 0.21643638E+03</totfact>
</mgrwt>
</event>
<event>
 5    0  0.1972558E-002  0.2692025E+03  0.7546771E-02  0.1101737E+00
         21   -1    0    0  501  502  0.00000000000E+00  0.00000000000E+00  0.20205585747E+03  0.20205585747E+03  0.00000000000E+00 0. -1.
         21   -1    0    0  502  503 -0.00000000000E+00 -0.00000000000E+00 -0.82542573316E+03  0.82542573316E+03  0.00000000000E+00 0.  1.
         25    1    1    2    0    0  0.15308086732E+03 -0.19415661940E+03 -0.66766887146E+03  0.72286739220E+03  0.12500000000E+03 0.  0.
          1    1    1    2  501    0 -0.17270512503E+02  0.33405608101E+02  0.82561967781E+02  0.90723116011E+02  0.00000000000E+00 0. -1.
         -1    1    1    2    0  503 -0.13581035482E+03  0.16075101130E+03 -0.38262972007E+02  0.21389108242E+03  0.00000000000E+00 0.  1.
<mgrwt>
<rscale>  4 0.26920247E+03</rscale>
<asrwt>0</asrwt>
<pdfrwt beam="1">  1       21 0.31085517E-01 0.26920247E+03</pdfrwt>
<pdfrwt beam="2">  1       21 0.12698857E+00 0.26920247E+03</pdfrwt>
<totfact> 0.43143193E+03</totfact>
</mgrwt>
</event>
<event>
 5    0  0.1972558E-002  0.3287024E+03  0.7546771E-02  0.1071712E+00
         21   -1    0    0  501  502  0.00000000000E+00  0.00000000000E+00  0.13310574071E+04  0.13310574071E+04  0.00000000000E+00 0.  1.
         21   -1    0    0  502  503 -0.00000000000E+00 -0.00000000000E+00 -0.64127396538E+03  0.64127396538E+03  0.00000000000E+00 0. -1.
         25    1    1    2    0    0  0.43936876455E+02  0.28394134945E+03 -0.35952357885E+03  0.47690181672E+03  0.12500000000E+03 0.  0.
          2    1    1    2  501    0 -0.16152836981E+02  0.56913806315E+02  0.11400704650E+04  0.11416044677E+04  0.00000000000E+00 0.  1.
         -2    1    1    2    0  503 -0.27784039474E+02 -0.34085515577E+03 -0.90763444470E+02  0.35382508802E+03  0.00000000000E+00 0. -1.
<mgrwt>
<rscale>  4 0.32870243E+03</rscale>
<asrwt>0</asrwt>
<pdfrwt beam="1">  1       21 0.20477806E+00 0.32870243E+03</pdfrwt>
<pdfrwt beam="2">  1       21 0.98657533E-01 0.32870243E+03</pdfrwt>
<totfact> 0.91413178E+01</totfact>
</mgrwt>
</event>
<event>
 5    0  0.1972558E-002  0.2503401E+03  0.7546771E-02  0.1113090E+00
         21   -1    0    0  501  502  0.00000000000E+00  0.00000000000E+00  0.30635825059E+03  0.30635825059E+03  0.00000000000E+00 0.  1.
         21   -1    0    0  502  503 -0.00000000000E+00 -0.00000000000E+00 -0.34098822175E+03  0.34098822175E+03  0.00000000000E+00 0. -1.
         25    1    1    2    0    0 -0.21638380243E+03  0.14940601821E+02 -0.22320269241E+03  0.33539471289E+03  0.12500000000E+03 0.  0.
          4    1    1    2  501    0  0.88940752979E+02 -0.64671372209E+02  0.65888683523E+02  0.12819579767E+03  0.00000000000E+00 0. -1.
         -4    1    1    2    0  503  0.12744304945E+03  0.49730770387E+02  0.12268403772E+03  0.18375596178E+03  0.00000000000E+00 0.  1.
<mgrwt>
<rscale>  4 0.25034011E+03</rscale>
<asrwt>0</asrwt>
<pdfrwt beam="1">  1       21 0.47132039E-01 0.25034011E+03</pdfrwt>
<pdfrwt beam="2">  1       21 0.52459726E-01 0.25034011E+03</pdfrwt>
<totfact> 0.14354748E+04</totfact>
</mgrwt>
</event>
<event>
 5    0  0.1972558E-002  0.3727105E+03  0.7546771E-02  0.1053661E+00
         21   -1    0    0  501  502  0.00000000000E+00  0.00000000000E+00  0.21925568749E+04  0.21925568749E+04  0.00000000000E+00 0.  1.
         21   -1    0    0  502  503 -0.00000000000E+00 -0.00000000000E+00 -0.14847405174E+03  0.14847405174E+03  0.00000000000E+00 0. -1.
         25    1    1    2    0    0 -0.14274241410E+03  0.31626360003E+03  0.18339357553E+03  0.41189351176E+03  0.12500000000E+03 0.  0.
          2    1    1    2  501    0  0.21209892497E+02  0.28840423946E+02  0.90648847015E+03  0.90719511469E+03  0.00000000000E+00 0. -1.
         -2    1    1    2    0  503  0.12153252161E+03 -0.34510402397E+03  0.95420077752E+03  0.10219423002E+04  0.00000000000E+00 0.  1.
<mgrwt>
<rscale>  4 0.37271048E+03</rscale>
<asrwt>0</asrwt>
<pdfrwt beam="1">  1       21 0.33731642E+00 0.37271048E+03</pdfrwt>
<pdfrwt beam="2">  1       21 0.22842164E-01 0.37271048E+03</pdfrwt>
<totfact> 0.30705932E+02</totfact>
</mgrwt>
</event>
<event>
 5    0  0.1972558E-002  0.2982314E+03  0.7546771E-02  0.1086128E+00
         21   -1    0    0  501  502  0.00000000000E+00  0.00000000000E+00  0.16457254183E+03  0.16457254183E+03  0.00000000000E+00 0.  1.
         21   -1    0    0  502  503 -0.00000000000E+00 -0.00000000000E+00 -0.64471082316E+03  0.64471082316E+03  0.00000000000E+00 0.  1.
         25    1    1    2    0    0 -0.13192374463E+03  0.23535735009E+03 -0.17482900600E+03  0.34494512313E+03  0.12500000000E+03 0.  0.
          2    1    1    2  501    0  0.49315495721E+02  0.26490280096E+02 -0.12191734436E+03  0.13415510394E+03  0.00000000000E+00 0. -1.
         -2    1    1    2    0  503  0.82608248911E+02 -0.26184763018E+03 -0.18339193097E+03  0.33018313792E+03  0.00000000000E+00 0.  1.
<mgrwt>
<rscale>  4 0.29823144E+03</rscale>
<asrwt>0</asrwt>
<pdfrwt beam="1">  1       21 0.25318853E-01 0.29823144E+03</pdfrwt>
<pdfrwt beam="2">  1       21 0.99186279E-01 0.29823144E+03</pdfrwt>
<totfact> 0.11660726E+04</totfact>
</mgrwt>
</event>
<event>
 5    0  0.1972558E-002  0.2217710E+03  0.7546771E-02  0.1132570E+00
         21   -1    0    0  501  502  0.00000000000E+00  0.00000000000E+00  0.89035354725E+02  0.89035354725E+02  0.00000000000E+00 0. -1.
         21   -1    0    0  502  503 -0.00000000000E+00 -0.00000000000E+00 -0.73144015955E+03  0.73144015955E+03  0.00000000000E+00 0. -1.
         25    1    1    2    0    0  0.27451297780E+01  0.20288272533E+03 -0.29676740315E+03  0.38061112378E+03  0.12500000000E+03 0.  0.
          4    1    1    2  501    0 -0.68835918812E+01 -0.28953172909E+02  0.19373854495E+02  0.35510791271E+02  0.00000000000E+00 0.  1.
         -4    1    1    2    0  503  0.41384621031E+01 -0.17392955242E+03 -0.36501125616E+03  0.40435359922E+03  0.00000000000E+00 0. -1.
<mgrwt>
<rscale>  4 0.22177098E+03</rscale>
<asrwt>0</asrwt>
<pdfrwt beam="1">  1       21 0.13697747E-01 0.22177098E+03</pdfrwt>
<pdfrwt beam="2">  1       21 0.11252926E+00 0.22177098E+03</pdfrwt>
<totfact> 0.28117622E+04</totfact>
</mgrwt>
</event>
<event>
 5    0  0.1972558E-002  0.2883461E+03  0.7546771E-02  0.1091216E+00
         21   -1    0    0  501  502  0.00000000000E+00  0.00000000000E+00  0.54077512768E+03  0.54077512768E+03  0.00000000000E+00 0.  1.
         21   -1    0    0  502  503 -0.00000000000E+00 -0.00000000000E+00 -0.35433545534E+03  0.35433545534E+03  0.00000000000E+00 0. -1.
         25    1    1    2    0    0  0.26481800798E+03 -0.15949174779E+02 -0.24322221085E+03  0.38100524587E+03  0.12500000000E+03 0.  0.
          3    1    1    2  501    0 -0.23168428102E+03  0.26267691776E+02  0.30044095118E+03  0.38030561769E+03  0.00000000000E+00 0.  1.
         -3    1    1    2    0  503 -0.33133726957E+02 -0.10318516997E+02  0.12922093202E+03  0.13379971946E+03  0.00000000000E+00 0. -1.
<mgrwt>
<rscale>  4 0.28834613E+03</rscale>
<asrwt>0</asrwt>
<pdfrwt beam="1">  1       21 0.83196173E-01 0.28834613E+03</pdfrwt>
<pdfrwt beam="2">  1       21 0.54513147E-01 0.28834613E+03</pdfrwt>
<totfact> 0.37473597E+03</totfact>
</mgrwt>
</event>
<event>
 5    0  0.1972558E-002  0.2357970E+03  0.7546771E-02  0.1122625E+00
         21   -1    0    0  501  502  0.00000000000E+00  0.00000000000E+00  0.45089553280E+03  0.45089553280E+03  0.00000000000E+00 0.  1.
         21   -1    0    0  502  503 -0.00000000000E+00 -0.00000000000E+00 -0.66173715393E+03  0.66173715393E+03  0.00000000000E+00 0. -1.
         25    1    1    2    0    0  0.20283133757E+03  0.59302509236E+01 -0.60788291922E+03  0.65293365885E+03  0.12500000000E+03 0.  0.
          4    1    1    2  501    0 -0.16827027764E+03 -0.71625568255E+01  0.20857124117E+03  0.26808235899E+03  0.00000000000E+00 0.  1.
         -4    1    1    2    0  503 -0.34561059928E+02  0.12323059019E+01  0.18847005693E+03  0.19161666890E+03  0.00000000000E+00 0. -1.
<mgrwt>
<rscale>  4 0.23579699E+03</rscale>
<asrwt>0</asrwt>
<pdfrwt beam="1">  1       21 0.69368543E-01 0.23579699E+03</pdfrwt>
<pdfrwt beam="2">  1       21 0.10180572E+00 0.23579699E+03</pdfrwt>
<totfact> 0.14312859E+03</totfact>
</mgrwt>
</event>
<event>
 5    0  0.1972558E-002  0.3068379E+03  0.7546771E-02  0.1081871E+00
         21   -1    0    0  503  502  0.00000000000E+00  0.00000000000E+00  0.41938292281E+03  0.41938292281E+03  0.00000000000E+00 0.  1.
         21   -1    0    0  501  503 -0.00000000000E+00 -0.00000000000E+00 -0.64920254746E+03  0.64920254746E+03  0.00000000000E+00 0. -1.
         25    1    1    2    0    0  0.16846107536E+03 -0.22464309122E+03 -0.32684095577E+03  0.44865762304E+03  0.12500000000E+03 0.  0.
          1    1    1    2  501    0  0.38172088155E+02  0.34606790093E+02 -0.20277009472E+03  0.20921388470E+03  0.00000000000E+00 0. -1.
         -1    1    1    2    0  502 -0.20663316351E+03  0.19003630113E+03  0.29979142585E+03  0.41071396254E+03  0.00000000000E+00 0.  1.
<mgrwt>
<rscale>  4 0.30683792E+03</rscale>
<asrwt>0</asrwt>
<pdfrwt beam="1">  1       21 0.64520450E-01 0.30683792E+03</pdfrwt>
<pdfrwt beam="2">  1       21 0.99877315E-01 0.30683792E+03</pdfrwt>
<totfact> 0.16753108E+03</totfact>
</mgrwt>
</event>
<event>
 5    0  0.1972558E-002  0.7587245E+03  0.7546771E-02  0.9621762E-01
         21   -1    0    0  501  502  0.00000000000E+00  0.00000000000E+00  0.60839349459E+03  0.60839349459E+03  0.00000000000E+00 0.  1.
         21   -1    0    0  502  503 -0.00000000000E+00 -0.00000000000E+00 -0.12455840288E+04  0.12455840288E+04  0.00000000000E+00 0.  1.
         25    1    1    2    0    0 -0.75968132037E+03  0.62183661532E+02 -0.10772077320E+03  0.77987901707E+03  0.12500000000E+03 0.  0.
          3    1    1    2  501    0  0.21242965462E+02  0.26900375427E+01  0.99596392860E+02  0.10187218145E+03  0.00000000000E+00 0. -1.
         -3    1    1    2    0  503  0.73843835491E+03 -0.64873699074E+02 -0.62906615388E+03  0.97222632488E+03  0.00000000000E+00 0.  1.
<mgrwt>
<rscale>  4 0.75872447E+03</rscale>
<asrwt>0</asrwt>
<pdfrwt beam="1">  1       21 0.93599001E-01 0.75872447E+03</pdfrwt>
<pdfrwt beam="2">  1       21 0.19162831E+00 0.75872447E+03</pdfrwt>
<totfact> 0.10264204E+02</totfact>
</mgrwt>
</event>
<event>
 5    0  0.1972558E-002  0.2619093E+03  0.7546771E-02  0.1106002E+00
         21   -1    0    0  501  502  0.00000000000E+00  0.00000000000E+00  0.79693473953E+02  0.79693473953E+02  0.00000000000E+00 0.  1.
         21   -1    0    0  502  503 -0.00000000000E+00 -0.00000000000E+00 -0.13692419757E+04  0.13692419757E+04  0.00000000000E+00 0.  1.
         25    1    1    2    0    0  0.18180738773E+03 -0.17065037328E+03 -0.92973339611E+03  0.97067227423E+03  0.12500000000E+03 0.  0.
          2    1    1    2  501    0 -0.12494846288E+03  0.16444086607E+03 -0.36649260548E+03  0.42067772306E+03  0.00000000000E+00 0.  1.
         -2    1    1    2    0  503 -0.56858924850E+02  0.62095072095E+01  0.66774998696E+01  0.57585452324E+02  0.00000000000E+00 0. -1.
<mgrwt>
<rscale>  4 0.26190927E+03</rscale>
<asrwt>0</asrwt>
<pdfrwt beam="1">  1       21 0.12260534E-01 0.26190927E+03</pdfrwt>
<pdfrwt beam="2">  1       21 0.21065261E+00 0.26190927E+03</pdfrwt>
<totfact> 0.61395992E+03</totfact>
</mgrwt>
</event>
<event>
 5    0  0.1972558E-002  0.4059096E+03  0.7546771E-02  0.1041752E+00
         21   -1    0    0  501  502  0.00000000000E+00  0.00000000000E+00  0.45422767530E+03  0.45422767530E+03  0.00000000000E+00 0. -1.
         21   -1    0    0  502  503 -0.00000000000E+00 -0.00000000000E+00 -0.74844226001E+03  0.74844226001E+03  0.00000000000E+00 0. -1.
         25    1    1    2    0    0 -0.30777981242E+03  0.25147037524E+03 -0.46072942906E+03  0.62117821063E+03  0.12500000000E+03 0.  0.
          3    1    1    2  501    0 -0.51005596867E+01 -0.62393384257E+02  0.20457784956E+03  0.21394168981E+03  0.00000000000E+00 0. -1.
         -3    1    1    2    0  503  0.31288037211E+03 -0.18907699098E+03 -0.38063005205E+02  0.36755003487E+03  0.00000000000E+00 0.  1.
<mgrwt>
<rscale>  4 0.40590961E+03</rscale>
<asrwt>0</asrwt>
<pdfrwt beam="1">  1       21 0.69881182E-01 0.40590961E+03</pdfrwt>
<pdfrwt beam="2">  1       21 0.11514496E+00 0.40590961E+03</pdfrwt>
<totfact> 0.93957520E+02</totfact>
</mgrwt>
</event>
<event>
 5    0  0.1972558E-002  0.2697010E+03  0.7546771E-02  0.1101451E+00
         21   -1    0    0  501  502  0.00000000000E+00  0.00000000000E+00  0.30162857917E+03  0.30162857917E+03  0.00000000000E+00 0. -1.
         21   -1    0    0  502  503 -0.00000000000E+00 -0.00000000000E+00 -0.32352862132E+03  0.32352862132E+03  0.00000000000E+00 0.  1.
         25    1    1    2    0    0  0.51528724333E+02  0.23336332098E+03 -0.18986085529E+03  0.32982691428E+03  0.12500000000E+03 0.  0.
          3    1    1    2  501    0 -0.89998527957E+01 -0.30274214023E+02  0.42162253056E+02  0.52679986407E+02  0.00000000000E+00 0.  1.
         -3    1    1    2    0  503 -0.42528871537E+02 -0.20308910696E+03  0.12579856009E+03  0.24265029981E+03  0.00000000000E+00 0. -1.
<mgrwt>
<rscale>  4 0.26970104E+03</rscale>
<asrwt>0</asrwt>
<pdfrwt beam="1">  1       21 0.46404397E-01 0.26970104E+03</pdfrwt>
<pdfrwt beam="2">  1       21 0.49773634E-01 0.26970104E+03</pdfrwt>
<totfact> 0.16408415E+04</totfact>
</mgrwt>
</event>
<event>
 5    0  0.1972558E-002  0.3790113E+03  0.7546771E-02  0.1051300E+00
         21   -1    0    0  501  502  0.00000000000E+00  0.00000000000E+00  0.81196004713E+03  0.81196004713E+03  0.00000000000E+00 0.  1.
         21   -1    0    0  502  503 -0.00000000000E+00 -0.00000000000E+00 -0.27982779572E+03  0.27982779572E+03  0.00000000000E+00 0. -1.
         25    1    1    2    0    0  0.79652863066E+00  0.38770515516E+03  0.41775900816E+02  0.40949499103E+03  0.12500000000E+03 0.  0.
          4    1    1    2  501    0  0.12229106708E+03 -0.29793308932E+03  0.33008616945E+03  0.46116820148E+03  0.00000000000E+00 0.  1.
         -4    1    1    2    0  503 -0.12308759571E+03 -0.89772065838E+02  0.16027018115E+03  0.22112465034E+03  0.00000000000E+00 0. -1.
<mgrwt>
<rscale>  4 0.37901130E+03</rscale>
<asrwt>0</asrwt>
<pdfrwt beam="1">  1       21 0.12491693E+00 0.37901130E+03</pdfrwt>
<pdfrwt beam="2">  1       21 0.43050431E-01 0.37901130E+03</pdfrwt>
<totfact> 0.21990115E+03</totfact>
</mgrwt>
</event>
<event>
 5    0  0.1972558E-002  0.3065769E+03  0.7546771E-02  0.1081998E+00
         21   -1    0    0  501  502  0.00000000000E+00  0.00000000000E+00  0.50520957537E+03  0.50520957537E+03  0.00000000000E+00 0.  1.
         21   -1    0    0  502  503 -0.00000000000E+00 -0.00000000000E+00 -0.50927081774E+03  0.50927081774E+03  0.00000000000E+00 0. -1.
         25    1    1    2    0    0 -0.24792262408E+03  0.16349694606E+03 -0.37877470337E+03  0.49728478241E+03  0.12500000000E+03 0.  0.
          1    1    1    2  501    0  0.10271395570E+03 -0.68991329275E+02  0.24024824586E+02  0.12604424781E+03  0.00000000000E+00 0. -1.
         -1    1    1    2    0  503  0.14520866839E+03 -0.94505616786E+02  0.35068863642E+03  0.39115136289E+03  0.00000000000E+00 0.  1.
<mgrwt>
<rscale>  4 0.30657690E+03</rscale>
<asrwt>0</asrwt>
<pdfrwt beam="1">  1       21 0.77724550E-01 0.30657690E+03</pdfrwt>
<pdfrwt beam="2">  1       21 0.78349356E-01 0.30657690E+03</pdfrwt>
<totfact> 0.19486243E+03</totfact>
</mgrwt>
</event>
<event>
 5    0  0.1972558E-002  0.2583966E+03  0.7546771E-02  0.1108110E+00
         21   -1    0    0  503  502  0.00000000000E+00  0.00000000000E+00  0.53899219270E+03  0.53899219270E+03  0.00000000000E+00 0. -1.
         21   -1    0    0  501  503 -0.00000000000E+00 -0.00000000000E+00 -0.14416959917E+03  0.14416959917E+03  0.00000000000E+00 0.  1.
         25    1    1    2    0    0 -0.13652512769E+03  0.18029064009E+03  0.63436216598E+02  0.26606950027E+03  0.12500000000E+03 0.  0.
          2    1    1    2  501    0  0.87895062436E+01 -0.95872399220E+02  0.16457130789E+03  0.19066328365E+03  0.00000000000E+00 0. -1.
         -2    1    1    2    0  502  0.12773562145E+03 -0.84418240872E+02  0.16681506905E+03  0.22642900795E+03  0.00000000000E+00 0.  1.
<mgrwt>
<rscale>  4 0.25839664E+03</rscale>
<asrwt>0</asrwt>
<pdfrwt beam="1">  1       21 0.82921875E-01 0.25839664E+03</pdfrwt>
<pdfrwt beam="2">  1       21 0.22179939E-01 0.25839664E+03</pdfrwt>
<totfact> 0.23278665E+04</totfact>
</mgrwt>
</event>
<event>
 5    0  0.1972558E-002  0.2473347E+03  0.7546771E-02  0.1115001E+00
         21   -1    0    0  501  502  0.00000000000E+00  0.00000000000E+00  0.15833365563E+03  0.15833365563E+03  0.00000000000E+00 0. -1.
         21   -1    0    0  502  503 -0.00000000000E+00 -0.00000000000E+00 -0.74373855989E+03  0.74373855989E+03  0.00000000000E+00 0. -1.
         25    1    1    2    0    0 -0.20420270191E+03  0.73437827653E+02 -0.60962157837E+03  0.65905639122E+03  0.12500000000E+03 0.  0.
          2    1    1    2  501    0  0.30424862471E+02  0.26646690938E+02  0.11629351845E+02  0.42082778172E+02  0.00000000000E+00 0.  1.
         -2    1    1    2    0  503  0.17377783944E+03 -0.10008451859E+03  0.12587322266E+02  0.20093304612E+03  0.00000000000E+00 0. -1.
<mgrwt>
<rscale>  4 0.24733469E+03</rscale>
<asrwt>0</asrwt>
<pdfrwt beam="1">  1       21 0.24359024E-01 0.24733469E+03</pdfrwt>
<pdfrwt beam="2">  1       21 0.11442132E+00 0.24733469E+03</pdfrwt>
<totfact> 0.91103454E+03</totfact>
</mgrwt>
</event>
<event>
 5    0  0.1972558E-002  0.3571593E+03  0.7546771E-02  0.1059714E+00
         21   -1    0    0  501  502  0.00000000000E+00  0.00000000000E+00  0.21072550032E+04  0.21072550032E+04  0.00000000000E+00 0. -1.
         21   -1    0    0  502  503 -0.00000000000E+00 -0.00000000000E+00 -0.29231845857E+03  0.29231845857E+03  0.00000000000E+00 0.  1.
         25    1    1    2    0    0 -0.12857077876E+03  0.31223421217E+03 -0.14181966860E+03  0.38698639098E+03  0.12500000000E+03 0.  0.
          1    1    1    2  501    0  0.94003324505E+02 -0.29869869205E+03  0.86056173173E+03  0.91576417695E+03  0.00000000000E+00 0.  1.
         -1    1    1    2    0  503  0.34567454254E+02 -0.13535520117E+02  0.10961944815E+04  0.10968228939E+04  0.00000000000E+00 0. -1.
<mgrwt>
<rscale>  4 0.35715931E+03</rscale>
<asrwt>0</asrwt>
<pdfrwt beam="1">  1       21 0.32419307E+00 0.35715931E+03</pdfrwt>
<pdfrwt beam="2">  1       21 0.44972072E-01 0.35715931E+03</pdfrwt>
<totfact> 0.96442511E+01</totfact>
</mgrwt>
</event>
<event>
 5    0  0.1972558E-002  0.2295797E+03  0.7546771E-02  0.1126936E+00
         21   -1    0    0  501  502  0.00000000000E+00  0.00000000000E+00  0.85878341604E+03  0.85878341604E+03  0.00000000000E+00 0. -1.
         21   -1    0    0  502  503 -0.00000000000E+00 -0.00000000000E+00 -0.42233139765E+03  0.42233139765E+03  0.00000000000E+00 0. -1.
         25    1    1    2    0    0 -0.26665168231E+02  0.19991095058E+03 -0.36884535222E+03  0.43857418211E+03  0.12500000000E+03 0.  0.
          1    1    1    2  501    0  0.23107673092E+02 -0.72638822066E+02  0.56937210239E+03  0.57445187266E+03  0.00000000000E+00 0. -1.
         -1    1    1    2    0  503  0.35574951390E+01 -0.12727212851E+03  0.23592526822E+03  0.26808875891E+03  0.00000000000E+00 0.  1.
<mgrwt>
<rscale>  4 0.22957968E+03</rscale>
<asrwt>0</asrwt>
<pdfrwt beam="1">  1       21 0.13212052E+00 0.22957968E+03</pdfrwt>
<pdfrwt beam="2">  1       21 0.64974062E-01 0.22957968E+03</pdfrwt>
<totfact> 0.87296984E+02</totfact>
</mgrwt>
</event>
<event>
 5    0  0.1972558E-002  0.2220077E+03  0.7546771E-02  0.1132395E+00
         21   -1    0    0  501  502  0.00000000000E+00  0.00000000000E+00  0.16033435057E+04  0.16033435057E+04  0.00000000000E+00 0. -1.
         21   -1    0    0  502  503 -0.00000000000E+00 -0.00000000000E+00 -0.89440618028E+02  0.89440618028E+02  0.00000000000E+00 0.  1.
         25    1    1    2    0    0  0.20474602812E+03  0.46374227212E+02  0.22265237817E+03  0.33056101779E+03  0.12500000000E+03 0.  0.
          4    1    1    2  501    0 -0.69243246704E+02  0.57117792785E+02  0.11090867169E+04  0.11127130874E+04  0.00000000000E+00 0. -1.
         -4    1    1    2    0  503 -0.13550278141E+03 -0.10349202000E+03  0.18216379263E+03  0.24951001847E+03  0.00000000000E+00 0.  1.
<mgrwt>
<rscale>  4 0.22200773E+03</rscale>
<asrwt>0</asrwt>
<pdfrwt beam="1">  1       21 0.24666821E+00 0.22200773E+03</pdfrwt>
<pdfrwt beam="2">  1       21 0.13760096E-01 0.22200773E+03</pdfrwt>
<totfact> 0.30965551E+03</totfact>
</mgrwt>
</event>
<event>
 5    0  0.1972558E-002  0.3780243E+03  0.7546771E-02  0.1051666E+00
         21   -1    0    0  501  502  0.00000000000E+00  0.00000000000E+00  0.23193340127E+03  0.23193340127E+03  0.00000000000E+00 0. -1.
         21   -1    0    0  502  503 -0.00000000000E+00 -0.00000000000E+00 -0.25427066479E+04  0.25427066479E+04  0.00000000000E+00 0. -1.
         25    1    1    2    0    0 -0.30643150402E+03  0.15103116811E+03 -0.18918100905E+04  0.19264685564E+04  0.12500000000E+03 0.  0.
          1    1    1    2  501    0 -0.54574881815E+02  0.62641578214E+02  0.13182492003E+03  0.15582103384E+03  0.00000000000E+00 0.  1.
         -1    1    1    2    0  503  0.36100638583E+03 -0.21367274632E+03 -0.55078807621E+03  0.69235045896E+03  0.00000000000E+00 0. -1.
<mgrwt>
<rscale>  4 0.37802425E+03</rscale>
<asrwt>0</asrwt>
<pdfrwt beam="1">  1       21 0.35682061E-01 0.37802425E+03</pdfrwt>
<pdfrwt beam="2">  1       21 0.39118565E+00 0.37802425E+03</pdfrwt>
<totfact> 0.59124929E+01</totfact>
</mgrwt>
</event>
<event>
 5    0  0.1972558E-002  0.2404733E+03  0.7546771E-02  0.1119478E+00
         21   -1    0    0  503  502  0.00000000000E+00  0.00000000000E+00  0.17095416739E+04  0.17095416739E+04  0.00000000000E+00 0. -1.
         21   -1    0    0  501  503 -0.00000000000E+00 -0.00000000000E+00 -0.54330107359E+02  0.54330107359E+02  0.00000000000E+00 0. -1.
         25    1    1    2    0    0 -0.19727521983E+03 -0.10030064242E+03  0.34473667281E+03  0.42830608776E+03  0.12500000000E+03 0.  0.
          4    1    1    2  501    0  0.30386777596E+02  0.37923846725E+02  0.63936263204E+03  0.64120679165E+03  0.00000000000E+00 0.  1.
         -4    1    1    2    0  502  0.16688844224E+03  0.62376795695E+02  0.67111226165E+03  0.69435890181E+03  0.00000000000E+00 0. -1.
<mgrwt>
<rscale>  4 0.24047327E+03</rscale>
<asrwt>0</asrwt>
<pdfrwt beam="1">  1       21 0.26300637E+00 0.24047327E+03</pdfrwt>
<pdfrwt beam="2">  1       21 0.83584794E-02 0.24047327E+03</pdfrwt>
<totfact> 0.59288282E+03</totfact>
</mgrwt>
</event>
<event>
 5    0  0.1972558E-002  0.2416083E+03  0.7546771E-02  0.1118726E+00
         21   -1    0    0  501  502  0.00000000000E+00  0.00000000000E+00  0.37324063102E+03  0.37324063102E+03  0.00000000000E+00 0. -1.
         21   -1    0    0  502  503 -0.00000000000E+00 -0.00000000000E+00 -0.96267789302E+03  0.96267789302E+03  0.00000000000E+00 0.  1.
         25    1    1    2    0    0  0.17301746164E+03  0.12008464926E+03 -0.89174313424E+03  0.92476277092E+03  0.12500000000E+03 0.  0.
          2    1    1    2  501    0 -0.58943617267E+02  0.13908941929E+02  0.19695484813E+03  0.20605586835E+03  0.00000000000E+00 0.  1.
         -2    1    1    2    0  503 -0.11407384437E+03 -0.13399359119E+03  0.10535102411E+03  0.20509988476E+03  0.00000000000E+00 0. -1.
<mgrwt>
<rscale>  4 0.24160831E+03</rscale>
<asrwt>0</asrwt>
<pdfrwt beam="1">  1       21 0.57421636E-01 0.24160831E+03</pdfrwt>
<pdfrwt beam="2">  1       21 0.14810429E+00 0.24160831E+03</pdfrwt>
<totfact> 0.83892459E+02</totfact>
</mgrwt>
</event>
<event>
 5    0  0.1972558E-002  0.3069174E+03  0.7546771E-02  0.1081833E+00
         21   -1    0    0  501  502  0.00000000000E+00  0.00000000000E+00  0.53650847859E+03  0.53650847859E+03  0.00000000000E+00 0. -1.
         21   -1    0    0  502  503 -0.00000000000E+00 -0.00000000000E+00 -0.34957016972E+03  0.34957016972E+03  0.00000000000E+00 0. -1.
         25    1    1    2    0    0  0.18394503891E+03 -0.20742906444E+03 -0.18249111557E+03  0.35466970744E+03  0.12500000000E+03 0.  0.
          1    1    1    2  501    0  0.33980696090E+02  0.13949843871E+02  0.18028215433E+03  0.18398625226E+03  0.00000000000E+00 0.  1.
         -1    1    1    2    0  503 -0.21792573500E+03  0.19347922057E+03  0.18914727011E+03  0.34742268861E+03  0.00000000000E+00 0. -1.
<mgrwt>
<rscale>  4 0.30691736E+03</rscale>
<asrwt>0</asrwt>
<pdfrwt beam="1">  1       21 0.82539766E-01 0.30691736E+03</pdfrwt>
<pdfrwt beam="2">  1       21 0.53780026E-01 0.30691736E+03</pdfrwt>
<totfact> 0.38895122E+03</totfact>
</mgrwt>
</event>
<event>
 5    0  0.1972558E-002  0.2838592E+03  0.7546771E-02  0.1093600E+00
         21   -1    0    0  501  502  0.00000000000E+00  0.00000000000E+00  0.21864665925E+04  0.21864665925E+04  0.00000000000E+00 0. -1.
         21   -1    0    0  502  503 -0.00000000000E+00 -0.00000000000E+00 -0.80481623791E+02  0.80481623791E+02  0.00000000000E+00 0. -1.
         25    1    1    2    0    0  0.23644588339E+03  0.11277374702E+03  0.24198075819E+03  0.37789451057E+03  0.12500000000E+03 0.  0.
          1    1    1    2  501    0 -0.36268308257E+02  0.93917682359E+00  0.78137891496E+03  0.78222073673E+03  0.00000000000E+00 0.  1.
         -1    1    1    2    0  503 -0.20017757513E+03 -0.11371292384E+03  0.10826252955E+04  0.11068329689E+04  0.00000000000E+00 0. -1.
<mgrwt>
<rscale>  4 0.28385922E+03</rscale>
<asrwt>0</asrwt>
<pdfrwt beam="1">  1       21 0.33637943E+00 0.28385922E+03</pdfrwt>
<pdfrwt beam="2">  1       21 0.12381790E-01 0.28385922E+03</pdfrwt>
<totfact> 0.10487730E+03</totfact>
</mgrwt>
</event>
<event>
 5    0  0.1972558E-002  0.2325073E+03  0.7546771E-02  0.1124887E+00
         21   -1    0    0  501  502  0.00000000000E+00  0.00000000000E+00  0.86924387071E+02  0.86924387071E+02  0.00000000000E+00 0.  1.
         21   -1    0    0  502  503 -0.00000000000E+00 -0.00000000000E+00 -0.24983367221E+04  0.24983367221E+04  0.00000000000E+00 0. -1.
         25    1    1    2    0    0 -0.51584245466E+02  0.20324460724E+03 -0.20401226469E+04  0.20546763052E+04  0.12500000000E+03 0.  0.
          4    1    1    2  501    0  0.67566483611E+01 -0.42664344412E+02  0.56694023087E+02  0.71274896246E+02  0.00000000000E+00 0.  1.
         -4    1    1    2    0  503  0.44827597105E+02 -0.16058026283E+03 -0.42798371125E+03  0.45930990776E+03  0.00000000000E+00 0. -1.
<mgrwt>
<rscale>  4 0.23250732E+03</rscale>
<asrwt>0</asrwt>
<pdfrwt beam="1">  1       21 0.13372981E-01 0.23250732E+03</pdfrwt>
<pdfrwt beam="2">  1       21 0.38435955E+00 0.23250732E+03</pdfrwt>
<totfact> 0.49543939E+02</totfact>
</mgrwt>
</event>
<event>
 5    0  0.1972558E-002  0.2657352E+03  0.7546771E-02  0.1103746E+00
         21   -1    0    0  501  502  0.00000000000E+00  0.00000000000E+00  0.54560212656E+02  0.54560212656E+02  0.00000000000E+00 0. -1.
         21   -1    0    0  502  503 -0.00000000000E+00 -0.00000000000E+00 -0.24956146687E+04  0.24956146687E+04  0.00000000000E+00 0. -1.
         25    1    1    2    0    0  0.11318713739E+03 -0.21279755103E+03 -0.20392752597E+04  0.20572706946E+04  0.12500000000E+03 0.  0.
          1    1    1    2  501    0  0.37281129226E+01  0.31594136335E+02  0.52827005118E+01  0.32248956595E+02  0.00000000000E+00 0.  1.
         -1    1    1    2    0  503 -0.11691525031E+03  0.18120341469E+03 -0.40706189678E+03  0.46065523015E+03  0.00000000000E+00 0. -1.
<mgrwt>
<rscale>  4 0.26573519E+03</rscale>
<asrwt>0</asrwt>
<pdfrwt beam="1">  1       21 0.83938806E-02 0.26573519E+03</pdfrwt>
<pdfrwt beam="2">  1       21 0.38394064E+00 0.26573519E+03</pdfrwt>
<totfact> 0.11001323E+03</totfact>
</mgrwt>
</event>
<event>
 5    0  0.1972558E-002  0.2428358E+03  0.7546771E-02  0.1117918E+00
         21   -1    0    0  501  502  0.00000000000E+00  0.00000000000E+00  0.40339076535E+03  0.40339076535E+03  0.00000000000E+00 0.  1.
         21   -1    0    0  502  503 -0.00000000000E+00 -0.00000000000E+00 -0.22380658283E+03  0.22380658283E+03  0.00000000000E+00 0. -1.
         25    1    1    2    0    0  0.21339951581E+03  0.64409637620E+02 -0.27534717685E+02  0.25704302255E+03  0.12500000000E+03 0.  0.
          1    1    1    2  501    0 -0.19735994828E+03  0.11827189354E+02  0.65073574686E+02  0.20814754794E+03  0.00000000000E+00 0.  1.
         -1    1    1    2    0  503 -0.16039567526E+02 -0.76236826974E+02  0.14204532552E+03  0.16200677768E+03  0.00000000000E+00 0. -1.
<mgrwt>
<rscale>  4 0.24283585E+03</rscale>
<asrwt>0</asrwt>
<pdfrwt beam="1">  1       21 0.62060118E-01 0.24283585E+03</pdfrwt>
<pdfrwt beam="2">  1       21 0.34431782E-01 0.24283585E+03</pdfrwt>
<totfact> 0.19043305E+04</totfact>
</mgrwt>
</event>
<event>
 5    0  0.1972558E-002  0.3328184E+03  0.7546771E-02  0.1069897E+00
         21   -1    0    0  503  502  0.00000000000E+00  0.00000000000E+00  0.51794739260E+03  0.51794739260E+03  0.00000000000E+00 0. -1.
         21   -1    0    0  501  503 -0.00000000000E+00 -0.00000000000E+00 -0.20664769978E+03  0.20664769978E+03  0.00000000000E+00 0.  1.
         25    1    1    2    0    0 -0.30295685408E+03 -0.57967707733E+02  0.14227181889E+03  0.36195218058E+03  0.12500000000E+03 0.  0.
          2    1    1    2  501    0  0.27700932504E+02 -0.10904672283E+02  0.42692070719E+02  0.52046771672E+02  0.00000000000E+00 0.  1.
         -2    1    1    2    0  502  0.27525592158E+03  0.68872380016E+02  0.12633580321E+03  0.31059614013E+03  0.00000000000E+00 0. -1.
<mgrwt>
<rscale>  4 0.33281843E+03</rscale>
<asrwt>0</asrwt>
<pdfrwt beam="1">  1       21 0.79684214E-01 0.33281843E+03</pdfrwt>
<pdfrwt beam="2">  1       21 0.31791954E-01 0.33281843E+03</pdfrwt>
<totfact> 0.12282042E+04</totfact>
</mgrwt>
</event>
<event>
 5    0  0.1972558E-002  0.5327666E+03  0.7546771E-02  0.1005563E+00
         21   -1    0    0  501  502  0.00000000000E+00  0.00000000000E+00  0.79016132337E+03  0.79016132337E+03  0.00000000000E+00 0.  1.
         21   -1    0    0  502  503 -0.00000000000E+00 -0.00000000000E+00 -0.14383314776E+04  0.14383314776E+04  0.00000000000E+00 0. -1.
         25    1    1    2    0    0 -0.35842236042E+03  0.22445018012E+03 -0.52346597415E+03  0.68446044290E+03  0.12500000000E+03 0.  0.
          2    1    1    2  501    0 -0.25184248694E+03  0.11464666839E+03  0.52300829014E+03  0.59169770014E+03  0.00000000000E+00 0.  1.
         -2    1    1    2    0  503  0.61026484736E+03 -0.33909684851E+03 -0.64771247019E+03  0.95233465790E+03  0.00000000000E+00 0. -1.
<mgrwt>
<rscale>  4 0.53276658E+03</rscale>
<asrwt>0</asrwt>
<pdfrwt beam="1">  1       21 0.12156328E+00 0.53276658E+03</pdfrwt>
<pdfrwt beam="2">  1       21 0.22128176E+00 0.53276658E+03</pdfrwt>
<totfact> 0.37264112E+01</totfact>
</mgrwt>
</event>
<event>
 5    0  0.1972558E-002  0.3139302E+03  0.7546771E-02  0.1078477E+00
         21   -1    0    0  503  502  0.00000000000E+00  0.00000000000E+00  0.27616717027E+03  0.27616717027E+03  0.00000000000E+00 0. -1.
         21   -1    0    0  501  503 -0.00000000000E+00 -0.00000000000E+00 -0.45160547010E+03  0.45160547010E+03  0.00000000000E+00 0. -1.
         25    1    1    2    0    0 -0.17238437218E+03 -0.21024502880E+03 -0.86837302055E+02  0.31158475723E+03  0.12500000000E+03 0.  0.
          4    1    1    2  501    0 -0.51366194460E+02  0.61438797230E+01  0.59679876710E+02  0.78980509466E+02  0.00000000000E+00 0.  1.
         -4    1    1    2    0  502  0.22375056664E+03  0.20410114908E+03 -0.14828087448E+03  0.33720737368E+03  0.00000000000E+00 0. -1.
<mgrwt>
<rscale>  4 0.31393024E+03</rscale>
<asrwt>0</asrwt>
<pdfrwt beam="1">  1       21 0.42487257E-01 0.31393024E+03</pdfrwt>
<pdfrwt beam="2">  1       21 0.69477765E-01 0.31393024E+03</pdfrwt>
<totfact> 0.93858448E+03</totfact>
</mgrwt>
</event>
<event>
 5    0  0.1972558E-002  0.3024454E+03  0.7546771E-02  0.1084025E+00
         21   -1    0    0  503  502  0.00000000000E+00  0.00000000000E+00  0.60498098795E+03  0.60498098795E+03  0.00000000000E+00 0.  1.
         21   -1    0    0  501  503 -0.00000000000E+00 -0.00000000000E+00 -0.36730938228E+03  0.36730938228E+03  0.00000000000E+00 0.  1.
         25    1    1    2    0    0 -0.26036570720E+03  0.12130022270E+03 -0.21878264848E+03  0.38209278034E+03  0.12500000000E+03 0.  0.
          1    1    1    2  501    0  0.62827964206E+02  0.22903659839E+02  0.28189891048E+03  0.28972215388E+03  0.00000000000E+00 0.  1.
         -1    1    1    2    0  502  0.19753774299E+03 -0.14420388254E+03  0.17455534366E+03  0.30047543601E+03  0.00000000000E+00 0. -1.
<mgrwt>
<rscale>  4 0.30244543E+03</rscale>
<asrwt>0</asrwt>
<pdfrwt beam="1">  1       21 0.93073998E-01 0.30244543E+03</pdfrwt>
<pdfrwt beam="2">  1       21 0.56509136E-01 0.30244543E+03</pdfrwt>
<totfact> 0.26502995E+03</totfact>
</mgrwt>
</event>
<event>
 5    0  0.1972558E-002  0.2822987E+03  0.7546771E-02  0.1094440E+00
         21   -1    0    0  501  502  0.00000000000E+00  0.00000000000E+00  0.28734071334E+03  0.28734071334E+03  0.00000000000E+00 0. -1.
         21   -1    0    0  502  503 -0.00000000000E+00 -0.00000000000E+00 -0.62212111705E+03  0.62212111705E+03  0.00000000000E+00 0.  1.
         25    1    1    2    0    0 -0.26778926665E+03 -0.12875841514E+03 -0.41226331994E+03  0.52333150657E+03  0.12500000000E+03 0.  0.
          2    1    1    2  501    0  0.63194854426E+02 -0.96014429843E+01 -0.72907170848E+02  0.96959955107E+02  0.00000000000E+00 0.  1.
         -2    1    1    2    0  503  0.20459441222E+03  0.13835985813E+03  0.15039008707E+03  0.28917036872E+03  0.00000000000E+00 0. -1.
<mgrwt>
<rscale>  4 0.28229866E+03</rscale>
<asrwt>0</asrwt>
<pdfrwt beam="1">  1       21 0.44206264E-01 0.28229866E+03</pdfrwt>
<pdfrwt beam="2">  1       21 0.95710941E-01 0.28229866E+03</pdfrwt>
<totfact> 0.42084467E+03</totfact>
</mgrwt>
</event>
<event>
 5    0  0.1972558E-002  0.2510823E+03  0.7546771E-02  0.1112623E+00
         21   -1    0    0  501  502  0.00000000000E+00  0.00000000000E+00  0.10696496258E+03  0.10696496258E+03  0.00000000000E+00 0. -1.
         21   -1    0    0  502  503 -0.00000000000E+00 -0.00000000000E+00 -0.21026439716E+04  0.21026439716E+04  0.00000000000E+00 0.  1.
         25    1    1    2    0    0  0.75168348447E+02 -0.20771998863E+03 -0.18075733430E+04  0.18253066221E+04  0.12500000000E+03 0.  0.
          4    1    1    2  501    0 -0.18535431810E+02  0.10679746145E+02  0.59270360568E+02  0.63012656284E+02  0.00000000000E+00 0. -1.
         -4    1    1    2    0  503 -0.56632916637E+02  0.19704024249E+03 -0.24737602660E+03  0.32128965583E+03  0.00000000000E+00 0.  1.
<mgrwt>
<rscale>  4 0.25108230E+03</rscale>
<asrwt>0</asrwt>
<pdfrwt beam="1">  1       21 0.16456150E-01 0.25108230E+03</pdfrwt>
<pdfrwt beam="2">  1       21 0.32348365E+00 0.25108230E+03</pdfrwt>
<totfact> 0.76884548E+02</totfact>
</mgrwt>
</event>
<event>
 5    0  0.1972558E-002  0.2918941E+03  0.7546771E-02  0.1089364E+00
         21   -1    0    0  501  502  0.00000000000E+00  0.00000000000E+00  0.28515508223E+04  0.28515508223E+04  0.00000000000E+00 0.  1.
         21   -1    0    0  502  503 -0.00000000000E+00 -0.00000000000E+00 -0.26597705746E+03  0.26597705746E+03  0.00000000000E+00 0. -1.
         25    1    1    2    0    0 -0.98837023600E+02  0.26287159704E+03 -0.92896953587E+02  0.32113093552E+03  0.12500000000E+03 0.  0.
          4    1    1    2  501    0  0.95873261455E+02 -0.25300198072E+02  0.24930397504E+04  0.24950108175E+04  0.00000000000E+00 0.  1.
         -4    1    1    2    0  503  0.29637621447E+01 -0.23757139897E+03  0.18543096799E+03  0.30138612673E+03  0.00000000000E+00 0. -1.
<mgrwt>
<rscale>  4 0.29189412E+03</rscale>
<asrwt>0</asrwt>
<pdfrwt beam="1">  1       21 0.43870011E+00 0.29189412E+03</pdfrwt>
<pdfrwt beam="2">  1       21 0.40919549E-01 0.29189412E+03</pdfrwt>
<totfact> 0.24193409E+01</totfact>
</mgrwt>
</event>
<event>
 5    0  0.1972558E-002  0.2502789E+03  0.7546771E-02  0.1113129E+00
         21   -1    0    0  501  502  0.00000000000E+00  0.00000000000E+00  0.10563441249E+04  0.10563441249E+04  0.00000000000E+00 0. -1.
         21   -1    0    0  502  503 -0.00000000000E+00 -0.00000000000E+00 -0.68824187962E+02  0.68824187962E+02  0.00000000000E+00 0. -1.
         25    1    1    2    0    0 -0.43612602890E+02  0.21310239740E+03  0.36499800194E+03  0.44290318618E+03  0.12500000000E+03 0.  0.
          3    1    1    2  501    0 -0.76297548083E+01 -0.21915097209E+03  0.42655539781E+03  0.47961950454E+03  0.00000000000E+00 0. -1.
         -3    1    1    2    0  503  0.51242357698E+02  0.60485746932E+01  0.19596653719E+03  0.20264562215E+03  0.00000000000E+00 0.  1.
<mgrwt>
<rscale>  4 0.25027891E+03</rscale>
<asrwt>0</asrwt>
<pdfrwt beam="1">  1       21 0.16251447E+00 0.25027891E+03</pdfrwt>
<pdfrwt beam="2">  1       21 0.10588337E-01 0.25027891E+03</pdfrwt>
<totfact> 0.17051778E+04</totfact>
</mgrwt>
</event>
<event>
 5    0  0.1972558E-002  0.3015409E+03  0.7546771E-02  0.1084473E+00
         21   -1    0    0  501  502  0.00000000000E+00  0.00000000000E+00  0.17414450655E+04  0.17414450655E+04  0.00000000000E+00 0. -1.
         21   -1    0    0  502  503 -0.00000000000E+00 -0.00000000000E+00 -0.13165991524E+03  0.13165991524E+03  0.00000000000E+00 0. -1.
         25    1    1    2    0    0  0.32402297474E+03 -0.43229349230E+02  0.62587976127E+03  0.71708447227E+03  0.12500000000E+03 0.  0.
          1    1    1    2  501    0 -0.25707180249E+03 -0.50530481517E+02  0.12654096602E+03  0.29094992229E+03  0.00000000000E+00 0. -1.
         -1    1    1    2    0  503 -0.66951172243E+02  0.93759830747E+02  0.85736442297E+03  0.86507058619E+03  0.00000000000E+00 0.  1.
<mgrwt>
<rscale>  4 0.30154090E+03</rscale>
<asrwt>0</asrwt>
<pdfrwt beam="1">  1       21 0.26791461E+00 0.30154090E+03</pdfrwt>
<pdfrwt beam="2">  1       21 0.20255373E-01 0.30154090E+03</pdfrwt>
<totfact> 0.10563142E+03</totfact>
</mgrwt>
</event>
<event>
 5    0  0.1972558E-002  0.2441154E+03  0.7546771E-02  0.1117081E+00
         21   -1    0    0  501  502  0.00000000000E+00  0.00000000000E+00  0.11253843843E+03  0.11253843843E+03  0.00000000000E+00 0.  1.
         21   -1    0    0  502  503 -0.00000000000E+00 -0.00000000000E+00 -0.15408041037E+04  0.15408041037E+04  0.00000000000E+00 0. -1.
         25    1    1    2    0    0 -0.14442665566E+03  0.16321094179E+03 -0.79622472098E+03  0.83492255730E+03  0.12500000000E+03 0.  0.
          3    1    1    2  501    0  0.24228761785E+02  0.15574770432E+01  0.76943719443E+02  0.80683298111E+02  0.00000000000E+00 0. -1.
         -3    1    1    2    0  503  0.12019789387E+03 -0.16476841884E+03 -0.70898466371E+03  0.73773668671E+03  0.00000000000E+00 0.  1.
<mgrwt>
<rscale>  4 0.24411537E+03</rscale>
<asrwt>0</asrwt>
<pdfrwt beam="1">  1       21 0.17313606E-01 0.24411537E+03</pdfrwt>
<pdfrwt beam="2">  1       21 0.23704678E+00 0.24411537E+03</pdfrwt>
<totfact> 0.22740459E+03</totfact>
</mgrwt>
</event>
<event>
 5    0  0.1972558E-002  0.2534705E+03  0.7546771E-02  0.1111131E+00
         21   -1    0    0  501  502  0.00000000000E+00  0.00000000000E+00  0.11449359795E+04  0.11449359795E+04  0.00000000000E+00 0. -1.
         21   -1    0    0  502  503 -0.00000000000E+00 -0.00000000000E+00 -0.19190304002E+03  0.19190304002E+03  0.00000000000E+00 0. -1.
         25    1    1    2    0    0 -0.43122376770E+02 -0.22023342737E+03 -0.72863806797E+02  0.26701392520E+03  0.12500000000E+03 0.  0.
          4    1    1    2  501    0 -0.22786872219E+02  0.28484538802E+02  0.56649389272E+03  0.56766710402E+03  0.00000000000E+00 0. -1.
         -4    1    1    2    0  503  0.65909248989E+02  0.19174888857E+03  0.45940285360E+03  0.50215799034E+03  0.00000000000E+00 0.  1.
<mgrwt>
<rscale>  4 0.25347049E+03</rscale>
<asrwt>0</asrwt>
<pdfrwt beam="1">  1       21 0.17614399E+00 0.25347049E+03</pdfrwt>
<pdfrwt beam="2">  1       21 0.29523545E-01 0.25347049E+03</pdfrwt>
<totfact> 0.20148714E+03</totfact>
</mgrwt>
</event>
<event>
 5    0  0.1972558E-002  0.3008564E+03  0.7546771E-02  0.1084813E+00
         21   -1    0    0  501  502  0.00000000000E+00  0.00000000000E+00  0.16908197995E+03  0.16908197995E+03  0.00000000000E+00 0.  1.
         21   -1    0    0  502  503 -0.00000000000E+00 -0.00000000000E+00 -0.61582299628E+03  0.61582299628E+03  0.00000000000E+00 0.  1.
         25    1    1    2    0    0 -0.34331319291E+02  0.28482345048E+03 -0.23264967705E+03  0.38994090534E+03  0.12500000000E+03 0.  0.
          3    1    1    2  501    0  0.19585440824E+02 -0.21170382150E+02  0.25430947964E+02  0.38451367817E+02  0.00000000000E+00 0. -1.
         -3    1    1    2    0  503  0.14745878468E+02 -0.26365306833E+03 -0.23952228723E+03  0.35651270307E+03  0.00000000000E+00 0.  1.
<mgrwt>
<rscale>  4 0.30085643E+03</rscale>
<asrwt>0</asrwt>
<pdfrwt beam="1">  1       21 0.26012612E-01 0.30085643E+03</pdfrwt>
<pdfrwt beam="2">  1       21 0.94742002E-01 0.30085643E+03</pdfrwt>
<totfact> 0.12328915E+04</totfact>
</mgrwt>
</event>
<event>
 5    0  0.1972558E-002  0.3109423E+03  0.7546771E-02  0.1079895E+00
         21   -1    0    0  501  502  0.00000000000E+00  0.00000000000E+00  0.26372497118E+03  0.26372497118E+03  0.00000000000E+00 0. -1.
         21   -1    0    0  502  503 -0.00000000000E+00 -0.00000000000E+00 -0.97464417926E+03  0.97464417926E+03  0.00000000000E+00 0.  1.
         25    1    1    2    0    0  0.27481947003E+02  0.25304871834E+03 -0.47284017735E+03  0.55135446364E+03  0.12500000000E+03 0.  0.
          2    1    1    2  501    0 -0.12970954964E+03  0.92893709071E+02  0.10353923661E+03  0.19019511553E+03  0.00000000000E+00 0. -1.
         -2    1    1    2    0  503  0.10222760264E+03 -0.34594242741E+03 -0.34161826734E+03  0.49681957127E+03  0.00000000000E+00 0.  1.
<mgrwt>
<rscale>  4 0.31094227E+03</rscale>
<asrwt>0</asrwt>
<pdfrwt beam="1">  1       21 0.40573072E-01 0.31094227E+03</pdfrwt>
<pdfrwt beam="2">  1       21 0.14994526E+00 0.31094227E+03</pdfrwt>
<totfact> 0.15974148E+03</totfact>
</mgrwt>
</event>
<event>
 5    0  0.1972558E-002  0.2486931E+03  0.7546771E-02  0.1114134E+00
         21   -1    0    0  501  502  0.00000000000E+00  0.00000000000E+00  0.24909760361E+03  0.24909760361E+03  0.00000000000E+00 0. -1.
         21   -1    0    0  502  503 -0.00000000000E+00 -0.00000000000E+00 -0.20490610976E+04  0.20490610976E+04  0.00000000000E+00 0.  1.
         25    1    1    2    0    0  0.18634152675E+03  0.10205624873E+03 -0.18430325897E+04  0.18594442098E+04  0.12500000000E+03 0.  0.
          4    1    1    2  501    0 -0.17342800431E+02  0.91825632444E+02  0.13619859930E+03  0.16517499191E+03  0.00000000000E+00 0. -1.
         -4    1    1    2    0  503 -0.16899872632E+03 -0.19388188118E+03 -0.93129503503E+02  0.27353949947E+03  0.00000000000E+00 0.  1.
<mgrwt>
<rscale>  4 0.24869309E+03</rscale>
<asrwt>0</asrwt>
<pdfrwt beam="1">  1       21 0.38322710E-01 0.24869309E+03</pdfrwt>
<pdfrwt beam="2">  1       21 0.31524016E+00 0.24869309E+03</pdfrwt>
<totfact> 0.16916377E+02</totfact>
</mgrwt>
</event>
<event>
 5    0  0.1972558E-002  0.2501410E+03  0.7546771E-02  0.1113216E+00
         21   -1    0    0  501  502  0.00000000000E+00  0.00000000000E+00  0.30513845093E+03  0.30513845093E+03  0.00000000000E+00 0. -1.
         21   -1    0    0  502  503 -0.00000000000E+00 -0.00000000000E+00 -0.62489604239E+03  0.62489604239E+03  0.00000000000E+00 0.  1.
         25    1    1    2    0    0 -0.94761270182E+01 -0.22677088854E+03 -0.46555837015E+03  0.53280806008E+03  0.12500000000E+03 0.  0.
          2    1    1    2  501    0 -0.86292102890E+02  0.47044069378E+02  0.16564943613E+03  0.19261154476E+03  0.00000000000E+00 0. -1.
         -2    1    1    2    0  503  0.95768229909E+02  0.17972681917E+03 -0.19848657448E+02  0.20461488849E+03  0.00000000000E+00 0.  1.
<mgrwt>
<rscale>  4 0.25014096E+03</rscale>
<asrwt>0</asrwt>
<pdfrwt beam="1">  1       21 0.46944378E-01 0.25014096E+03</pdfrwt>
<pdfrwt beam="2">  1       21 0.96137851E-01 0.25014096E+03</pdfrwt>
<totfact> 0.37490211E+03</totfact>
</mgrwt>
</event>
<event>
 5    0  0.1972558E-002  0.3605109E+03  0.7546771E-02  0.1058382E+00
         21   -1    0    0  503  502  0.00000000000E+00  0.00000000000E+00  0.51508312931E+03  0.51508312931E+03  0.00000000000E+00 0.  1.
         21   -1    0    0  501  503 -0.00000000000E+00 -0.00000000000E+00 -0.35739675704E+03  0.35739675704E+03  0.00000000000E+00 0. -1.
         25    1    1    2    0    0  0.29910174340E+03  0.10932348913E+03  0.12086162634E+03  0.36283055398E+03  0.12500000000E+03 0.  0.
          2    1    1    2  501    0  0.43687069017E+02 -0.67581077357E+01 -0.11330631412E+03  0.12162463911E+03  0.00000000000E+00 0. -1.
         -2    1    1    2    0  502 -0.34278881242E+03 -0.10256538140E+03  0.15013106005E+03  0.38802469325E+03  0.00000000000E+00 0.  1.
<mgrwt>
<rscale>  4 0.36051092E+03</rscale>
<asrwt>0</asrwt>
<pdfrwt beam="1">  1       21 0.79243559E-01 0.36051092E+03</pdfrwt>
<pdfrwt beam="2">  1       21 0.54984116E-01 0.36051092E+03</pdfrwt>
<totfact> 0.39719384E+03</totfact>
</mgrwt>
</event>
<event>
 5    0  0.1972558E-002  0.2781874E+03  0.7546771E-02  0.1096683E+00
         21   -1    0    0  501  502  0.00000000000E+00  0.00000000000E+00  0.83586309390E+03  0.83586309390E+03  0.00000000000E+00 0.  1.
         21   -1    0    0  502  503 -0.00000000000E+00 -0.00000000000E+00 -0.11821930279E+03  0.11821930279E+03  0.00000000000E+00 0. -1.
         25    1    1    2    0    0  0.23198394860E+03  0.48707144973E+02  0.20219776110E+03  0.33570503865E+03  0.12500000000E+03 0.  0.
          3    1    1    2  501    0 -0.25966219008E+03 -0.43401614035E+02  0.29198216105E+03  0.39314340314E+03  0.00000000000E+00 0.  1.
         -3    1    1    2    0  503  0.27678241479E+02 -0.53055309383E+01  0.22346386896E+03  0.22523395490E+03  0.00000000000E+00 0. -1.
<mgrwt>
<rscale>  4 0.27818743E+03</rscale>
<asrwt>0</asrwt>
<pdfrwt beam="1">  1       21 0.12859432E+00 0.27818743E+03</pdfrwt>
<pdfrwt beam="2">  1       21 0.18187586E-01 0.27818743E+03</pdfrwt>
<totfact> 0.11615791E+04</totfact>
</mgrwt>
</event>
<event>
 5    0  0.1972558E-002  0.2368651E+03  0.7546771E-02  0.1121899E+00
         21   -1    0    0  501  502  0.00000000000E+00  0.00000000000E+00  0.27985635548E+03  0.27985635548E+03  0.00000000000E+00 0. -1.
         21   -1    0    0  502  503 -0.00000000000E+00 -0.00000000000E+00 -0.14221620320E+04  0.14221620320E+04  0.00000000000E+00 0. -1.
         25    1    1    2    0    0 -0.74401438754E+02 -0.20050536751E+03 -0.13564483807E+04  0.13788818608E+04  0.12500000000E+03 0.  0.
          1    1    1    2  501    0  0.37941160445E+02  0.93227107406E+02  0.17750405899E+03  0.20405517923E+03  0.00000000000E+00 0. -1.
         -1    1    1    2    0  503  0.36460278309E+02  0.10727826010E+03  0.36638645222E+02  0.11908134744E+03  0.00000000000E+00 0.  1.
<mgrwt>
<rscale>  4 0.23686511E+03</rscale>
<asrwt>0</asrwt>
<pdfrwt beam="1">  1       21 0.43054824E-01 0.23686511E+03</pdfrwt>
<pdfrwt beam="2">  1       21 0.21879416E+00 0.23686511E+03</pdfrwt>
<totfact> 0.50460798E+02</totfact>
</mgrwt>
</event>
<event>
 5    0  0.1972558E-002  0.2870441E+03  0.7546771E-02  0.1091903E+00
         21   -1    0    0  501  502  0.00000000000E+00  0.00000000000E+00  0.98741523479E+03  0.98741523479E+03  0.00000000000E+00 0. -1.
         21   -1    0    0  502  503 -0.00000000000E+00 -0.00000000000E+00 -0.35456340785E+03  0.35456340785E+03  0.00000000000E+00 0. -1.
         25    1    1    2    0    0 -0.25982369052E+03  0.40751004085E+02 -0.17061880315E+03  0.33749780811E+03  0.12500000000E+03 0.  0.
          2    1    1    2  501    0  0.63246726197E+02  0.17709004163E+03  0.64323126942E+03  0.67015483075E+03  0.00000000000E+00 0.  1.
         -2    1    1    2    0  503  0.19657696432E+03 -0.21784104572E+03  0.16023936067E+03  0.33432600379E+03  0.00000000000E+00 0. -1.
<mgrwt>
<rscale>  4 0.28704411E+03</rscale>
<asrwt>0</asrwt>
<pdfrwt beam="1">  1       21 0.15191004E+00 0.28704411E+03</pdfrwt>
<pdfrwt beam="2">  1       21 0.54548217E-01 0.28704411E+03</pdfrwt>
<totfact> 0.84429310E+02</totfact>
</mgrwt>
</event>
<event>
 5    0  0.1972558E-002  0.3044650E+03  0.7546771E-02  0.1083030E+00
         21   -1    0    0  501  502  0.00000000000E+00  0.00000000000E+00  0.12817213751E+03  0.12817213751E+03  0.00000000000E+00 0. -1.
         21   -1    0    0  502  503 -0.00000000000E+00 -0.00000000000E+00 -0.80595760936E+03  0.80595760936E+03  0.00000000000E+00 0. -1.
         25    1    1    2    0    0  0.18600641694E+03 -0.18396916357E+03 -0.38554546757E+03  0.48240371873E+03  0.12500000000E+03 0.  0.
          4    1    1    2  501    0 -0.22642470060E+03  0.19675724182E+03 -0.27124092797E+03  0.40441710925E+03  0.00000000000E+00 0. -1.
         -4    1    1    2    0  503  0.40418283661E+02 -0.12788078258E+02 -0.20999076323E+02  0.47308918885E+02  0.00000000000E+00 0.  1.
<mgrwt>
<rscale>  4 0.30446502E+03</rscale>
<asrwt>0</asrwt>
<pdfrwt beam="1">  1       21 0.19718790E-01 0.30446502E+03</pdfrwt>
<pdfrwt beam="2">  1       21 0.12399348E+00 0.30446502E+03</pdfrwt>
<totfact> 0.10812590E+04</totfact>
</mgrwt>
</event>
<event>
 5    0  0.2512554E-002  0.2060947E+03  0.7546771E-02  0.1144696E+00
         21   -1    0    0  501  502  0.00000000000E+00  0.00000000000E+00  0.11218403353E+03  0.11218403353E+03  0.00000000000E+00 0.  1.
         21   -1    0    0  502  503 -0.00000000000E+00 -0.00000000000E+00 -0.77396508857E+03  0.77396508857E+03  0.00000000000E+00 0.  1.
         25    1    1    2    0    0  0.20367882380E+03  0.16588229016E+02 -0.37127279530E+03  0.44184694311E+03  0.12500000000E+03 0.  0.
          3    1    1    2  501    0 -0.14969985179E+03 -0.45030643187E+02 -0.93560346599E+01  0.15660568264E+03  0.00000000000E+00 0.  1.
         -3    1    1    2    0  503 -0.53978972017E+02  0.28442414171E+02 -0.28115222508E+03  0.28769649635E+03  0.00000000000E+00 0. -1.
<mgrwt>
<rscale>  4 0.20609470E+03</rscale>
<asrwt>0</asrwt>
<pdfrwt beam="1">  1       21 0.17259083E-01 0.20609470E+03</pdfrwt>
<pdfrwt beam="2">  1       21 0.11907155E+00 0.20609470E+03</pdfrwt>
<totfact> 0.16189986E+04</totfact>
</mgrwt>
</event>
<event>
 5    0  0.1972558E-002  0.2557542E+03  0.7546771E-02  0.1109721E+00
         21   -1    0    0  501  502  0.00000000000E+00  0.00000000000E+00  0.31584597968E+03  0.31584597968E+03  0.00000000000E+00 0.  1.
         21   -1    0    0  502  503 -0.00000000000E+00 -0.00000000000E+00 -0.35809050261E+03  0.35809050261E+03  0.00000000000E+00 0.  1.
         25    1    1    2    0    0 -0.19406364798E+03  0.15789080473E+03 -0.63472109288E+02  0.28678199794E+03  0.12500000000E+03 0.  0.
          3    1    1    2  501    0  0.12576856759E+03  0.54732567442E+02 -0.59740402041E+02  0.14960715948E+03  0.00000000000E+00 0. -1.
         -3    1    1    2    0  503  0.68295080395E+02 -0.21262337218E+03  0.80967988399E+02  0.23754732486E+03  0.00000000000E+00 0.  1.
<mgrwt>
<rscale>  4 0.25575416E+03</rscale>
<asrwt>0</asrwt>
<pdfrwt beam="1">  1       21 0.48591689E-01 0.25575416E+03</pdfrwt>
<pdfrwt beam="2">  1       21 0.55090846E-01 0.25575416E+03</pdfrwt>
<totfact> 0.12107378E+04</totfact>
</mgrwt>
</event>
<event>
 5    0  0.1972558E-002  0.2648095E+03  0.7546771E-02  0.1104288E+00
         21   -1    0    0  501  502  0.00000000000E+00  0.00000000000E+00  0.16159483750E+03  0.16159483750E+03  0.00000000000E+00 0.  1.
         21   -1    0    0  502  503 -0.00000000000E+00 -0.00000000000E+00 -0.79459928586E+03  0.79459928586E+03  0.00000000000E+00 0. -1.
         25    1    1    2    0    0 -0.22491116888E+03 -0.62562208905E+02 -0.66067099028E+03  0.71176556623E+03  0.12500000000E+03 0.  0.
          4    1    1    2  501    0  0.64263382368E+02  0.10347080423E+02  0.37681760381E+02  0.75211431658E+02  0.00000000000E+00 0. -1.
         -4    1    1    2    0  503  0.16064778652E+03  0.52215128482E+02 -0.10015218466E+02  0.16921712548E+03  0.00000000000E+00 0.  1.
<mgrwt>
<rscale>  4 0.26480949E+03</rscale>
<asrwt>0</asrwt>
<pdfrwt beam="1">  1       21 0.24860744E-01 0.26480949E+03</pdfrwt>
<pdfrwt beam="2">  1       21 0.12224604E+00 0.26480949E+03</pdfrwt>
<totfact> 0.73584325E+03</totfact>
</mgrwt>
</event>
<event>
 5    0  0.1972558E-002  0.2451886E+03  0.7546771E-02  0.1116384E+00
         21   -1    0    0  503  502  0.00000000000E+00  0.00000000000E+00  0.68357228925E+03  0.68357228925E+03  0.00000000000E+00 0. -1.
         21   -1    0    0  501  503 -0.00000000000E+00 -0.00000000000E+00 -0.19196782828E+03  0.19196782828E+03  0.00000000000E+00 0. -1.
         25    1    1    2    0    0 -0.36389810591E+02 -0.22509533261E+03  0.50667551213E+03  0.56950610328E+03  0.12500000000E+03 0.  0.
          1    1    1    2  501    0 -0.24023633520E+02  0.25071913860E+02  0.71793344108E+02  0.79749734108E+02  0.00000000000E+00 0.  1.
         -1    1    1    2    0  502  0.60413444111E+02  0.20002341875E+03 -0.86864395267E+02  0.22628428015E+03  0.00000000000E+00 0. -1.
<mgrwt>
<rscale>  4 0.24518860E+03</rscale>
<asrwt>0</asrwt>
<pdfrwt beam="1">  1       21 0.10516497E+00 0.24518860E+03</pdfrwt>
<pdfrwt beam="2">  1       21 0.29533512E-01 0.24518860E+03</pdfrwt>
<totfact> 0.77172941E+03</totfact>
</mgrwt>
</event>
<event>
 5    0  0.1972558E-002  0.3304649E+03  0.7546771E-02  0.1070931E+00
         21   -1    0    0  501  502  0.00000000000E+00  0.00000000000E+00  0.13745646917E+04  0.13745646917E+04  0.00000000000E+00 0. -1.
         21   -1    0    0  502  503 -0.00000000000E+00 -0.00000000000E+00 -0.25515150866E+03  0.25515150866E+03  0.00000000000E+00 0.  1.
         25    1    1    2    0    0  0.26704428644E+03 -0.16395915918E+03 -0.82879519940E+02  0.34740361487E+03  0.12500000000E+03 0.  0.
          2    1    1    2  501    0 -0.28151405675E+03  0.58365581572E+02  0.54255854544E+03  0.61402482074E+03  0.00000000000E+00 0. -1.
         -2    1    1    2    0  503  0.14469770310E+02  0.10559357760E+03  0.65973415753E+03  0.66828776474E+03  0.00000000000E+00 0.  1.
<mgrwt>
<rscale>  4 0.33046493E+03</rscale>
<asrwt>0</asrwt>
<pdfrwt beam="1">  1       21 0.21147149E+00 0.33046493E+03</pdfrwt>
<pdfrwt beam="2">  1       21 0.39254079E-01 0.33046493E+03</pdfrwt>
<totfact> 0.62708601E+02</totfact>
</mgrwt>
</event>
<event>
 5    0  0.1972558E-002  0.3355609E+03  0.7546771E-02  0.1068702E+00
         21   -1    0    0  503  502  0.00000000000E+00  0.00000000000E+00  0.42926764405E+03  0.42926764405E+03  0.00000000000E+00 0. -1.
         21   -1    0    0  501  503 -0.00000000000E+00 -0.00000000000E+00 -0.55881986150E+03  0.55881986150E+03  0.00000000000E+00 0. -1.
         25    1    1    2    0    0 -0.30665774672E+03  0.60495029196E+02 -0.37984819521E+03  0.50755125217E+03  0.12500000000E+03 0.  0.
          3    1    1    2  501    0 -0.59390099519E+01 -0.74549529217E+02 -0.74264901975E+01  0.75153555487E+02  0.00000000000E+00 0.  1.
         -3    1    1    2    0  502  0.31259675667E+03  0.14054500021E+02  0.25772246796E+03  0.40538269788E+03  0.00000000000E+00 0. -1.
<mgrwt>
<rscale>  4 0.33556091E+03</rscale>
<asrwt>0</asrwt>
<pdfrwt beam="1">  1       21 0.66041176E-01 0.33556091E+03</pdfrwt>
<pdfrwt beam="2">  1       21 0.85972286E-01 0.33556091E+03</pdfrwt>
<totfact> 0.22323739E+03</totfact>
</mgrwt>
</event>
<event>
 5    0  0.1972558E-002  0.2171896E+03  0.7546771E-02  0.1135996E+00
         21   -1    0    0  501  502  0.00000000000E+00  0.00000000000E+00  0.19907325808E+03  0.19907325808E+03  0.00000000000E+00 0.  1.
         21   -1    0    0  502  503 -0.00000000000E+00 -0.00000000000E+00 -0.56568626869E+03  0.56568626869E+03  0.00000000000E+00 0. -1.
         25    1    1    2    0    0  0.22285136779E+03  0.36336814024E+02 -0.25301089248E+03  0.36141749805E+03  0.12500000000E+03 0.  0.
          1    1    1    2  501    0 -0.15405371840E+03 -0.23738144329E+02 -0.22385447871E+03  0.27277623666E+03  0.00000000000E+00 0. -1.
         -1    1    1    2    0  503 -0.68797649390E+02 -0.12598669695E+02  0.11025236059E+03  0.13056579205E+03  0.00000000000E+00 0.  1.
<mgrwt>
<rscale>  4 0.21718964E+03</rscale>
<asrwt>0</asrwt>
<pdfrwt beam="1">  1       21 0.30626655E-01 0.21718964E+03</pdfrwt>
<pdfrwt beam="2">  1       21 0.87028656E-01 0.21718964E+03</pdfrwt>
<totfact> 0.11430844E+04</totfact>
</mgrwt>
</event>
<event>
 5    0  0.1972558E-002  0.4822351E+03  0.7546771E-02  0.1018523E+00
         21   -1    0    0  503  502  0.00000000000E+00  0.00000000000E+00  0.12437735355E+04  0.12437735355E+04  0.00000000000E+00 0.  1.
         21   -1    0    0  501  503 -0.00000000000E+00 -0.00000000000E+00 -0.44658562863E+03  0.44658562863E+03  0.00000000000E+00 0. -1.
         25    1    1    2    0    0 -0.30818704727E+01 -0.46559408810E+03 -0.22574266756E+03  0.53232706559E+03  0.12500000000E+03 0.  0.
          4    1    1    2  501    0 -0.53734887128E+02 -0.40390222686E+00  0.34702572564E+02  0.63967724473E+02  0.00000000000E+00 0. -1.
         -4    1    1    2    0  502  0.56816757601E+02  0.46599799033E+03  0.98822800188E+03  0.10940643741E+04  0.00000000000E+00 0.  1.
<mgrwt>
<rscale>  4 0.48223510E+03</rscale>
<asrwt>0</asrwt>
<pdfrwt beam="1">  1       21 0.19134977E+00 0.48223510E+03</pdfrwt>
<pdfrwt beam="2">  1       21 0.68705482E-01 0.48223510E+03</pdfrwt>
<totfact> 0.23599671E+02</totfact>
</mgrwt>
</event>
<event>
 5    0  0.1972558E-002  0.2577634E+03  0.7546771E-02  0.1108495E+00
         21   -1    0    0  503  502  0.00000000000E+00  0.00000000000E+00  0.20002370663E+03  0.20002370663E+03  0.00000000000E+00 0. -1.
         21   -1    0    0  501  503 -0.00000000000E+00 -0.00000000000E+00 -0.76270289602E+03  0.76270289602E+03  0.00000000000E+00 0. -1.
         25    1    1    2    0    0  0.26516613578E+02 -0.22193752328E+03 -0.23262499295E+03  0.34597511815E+03  0.12500000000E+03 0.  0.
          2    1    1    2  501    0 -0.15806596739E+03  0.12183325492E+02  0.47283529246E+02  0.16543583531E+03  0.00000000000E+00 0.  1.
         -2    1    1    2    0  502  0.13154935381E+03  0.20975419779E+03 -0.37733772568E+03  0.45131564918E+03  0.00000000000E+00 0. -1.
<mgrwt>
<rscale>  4 0.25776337E+03</rscale>
<asrwt>0</asrwt>
<pdfrwt beam="1">  1       21 0.30772878E-01 0.25776337E+03</pdfrwt>
<pdfrwt beam="2">  1       21 0.11733891E+00 0.25776337E+03</pdfrwt>
<totfact> 0.54057742E+03</totfact>
</mgrwt>
</event>
<event>
 5    0  0.1972558E-002  0.2683533E+03  0.7546771E-02  0.1102226E+00
         21   -1    0    0  501  502  0.00000000000E+00  0.00000000000E+00  0.77088581867E+03  0.77088581867E+03  0.00000000000E+00 0.  1.
         21   -1    0    0  502  503 -0.00000000000E+00 -0.00000000000E+00 -0.94538285184E+02  0.94538285184E+02  0.00000000000E+00 0.  1.
         25    1    1    2    0    0 -0.19100939306E+03  0.14108122617E+03  0.23624596172E+03  0.35752713889E+03  0.12500000000E+03 0.  0.
          1    1    1    2  501    0  0.16764559940E+03 -0.10177435819E+03  0.28327418571E+03  0.34453930295E+03  0.00000000000E+00 0.  1.
         -1    1    1    2    0  503  0.23363793661E+02 -0.39306867978E+02  0.15682738605E+03  0.16335766202E+03  0.00000000000E+00 0. -1.
<mgrwt>
<rscale>  4 0.26835331E+03</rscale>
<asrwt>0</asrwt>
<pdfrwt beam="1">  1       21 0.11859781E+00 0.26835331E+03</pdfrwt>
<pdfrwt beam="2">  1       21 0.14544352E-01 0.26835331E+03</pdfrwt>
<totfact> 0.21642015E+04</totfact>
</mgrwt>
</event>
<event>
 5    0  0.1972558E-002  0.2884955E+03  0.7546771E-02  0.1091137E+00
         21   -1    0    0  501  502  0.00000000000E+00  0.00000000000E+00  0.10664906269E+04  0.10664906269E+04  0.00000000000E+00 0.  1.
         21   -1    0    0  502  503 -0.00000000000E+00 -0.00000000000E+00 -0.58566249177E+03  0.58566249177E+03  0.00000000000E+00 0.  1.
         25    1    1    2    0    0 -0.21248872291E+03 -0.15110538813E+03 -0.51224403151E+03  0.58822040385E+03  0.12500000000E+03 0.  0.
          1    1    1    2  501    0 -0.46536650634E+01  0.22877520916E+02  0.57653328945E+03  0.57700578108E+03  0.00000000000E+00 0. -1.
         -1    1    1    2    0  503  0.21714238797E+03  0.12822786721E+03  0.41653887719E+03  0.48692693373E+03  0.00000000000E+00 0.  1.
<mgrwt>
<rscale>  4 0.28849554E+03</rscale>
<asrwt>0</asrwt>
<pdfrwt beam="1">  1       21 0.16407548E+00 0.28849554E+03</pdfrwt>
<pdfrwt beam="2">  1       21 0.90101922E-01 0.28849554E+03</pdfrwt>
<totfact> 0.22306624E+02</totfact>
</mgrwt>
</event>
<event>
 5    0  0.1972558E-002  0.3795425E+03  0.7546771E-02  0.1051103E+00
         21   -1    0    0  501  502  0.00000000000E+00  0.00000000000E+00  0.17491807248E+03  0.17491807248E+03  0.00000000000E+00 0.  1.
         21   -1    0    0  502  503 -0.00000000000E+00 -0.00000000000E+00 -0.11655512525E+04  0.11655512525E+04  0.00000000000E+00 0. -1.
         25    1    1    2    0    0 -0.19974228009E+02 -0.34571431507E+03 -0.45027861163E+03  0.58162976671E+03  0.12500000000E+03 0.  0.
          1    1    1    2  501    0  0.74539963171E+02 -0.22314607758E+02  0.25280614859E+02  0.81812329857E+02  0.00000000000E+00 0. -1.
         -1    1    1    2    0  503 -0.54565735162E+02  0.36802892283E+03 -0.56563518330E+03  0.67702722846E+03  0.00000000000E+00 0.  1.
<mgrwt>
<rscale>  4 0.37954250E+03</rscale>
<asrwt>0</asrwt>
<pdfrwt beam="1">  1       21 0.26910473E-01 0.37954250E+03</pdfrwt>
<pdfrwt beam="2">  1       21 0.17931558E+00 0.37954250E+03</pdfrwt>
<totfact> 0.21247099E+03</totfact>
</mgrwt>
</event>
<event>
 5    0  0.1972558E-002  0.2474101E+03  0.7546771E-02  0.1114953E+00
         21   -1    0    0  501  502  0.00000000000E+00  0.00000000000E+00  0.22052774719E+03  0.22052774719E+03  0.00000000000E+00 0.  1.
         21   -1    0    0  502  503 -0.00000000000E+00 -0.00000000000E+00 -0.35591799035E+03  0.35591799035E+03  0.00000000000E+00 0. -1.
         25    1    1    2    0    0  0.15452482207E+03 -0.16416276266E+03 -0.13911014231E+03  0.29292313833E+03  0.12500000000E+03 0.  0.
          3    1    1    2  501    0 -0.36100697572E+02 -0.25295623229E+00  0.62820111689E+02  0.72454749911E+02  0.00000000000E+00 0. -1.
         -3    1    1    2    0  503 -0.11842412449E+03  0.16441571889E+03 -0.59100212539E+02  0.21106784929E+03  0.00000000000E+00 0.  1.
<mgrwt>
<rscale>  4 0.24741012E+03</rscale>
<asrwt>0</asrwt>
<pdfrwt beam="1">  1       21 0.33927346E-01 0.24741012E+03</pdfrwt>
<pdfrwt beam="2">  1       21 0.54756613E-01 0.24741012E+03</pdfrwt>
<totfact> 0.25611834E+04</totfact>
</mgrwt>
</event>
<event>
 5    0  0.1972558E-002  0.2839388E+03  0.7546771E-02  0.1093557E+00
         21   -1    0    0  503  502  0.00000000000E+00  0.00000000000E+00  0.77949575874E+03  0.77949575874E+03  0.00000000000E+00 0.  1.
         21   -1    0    0  501  503 -0.00000000000E+00 -0.00000000000E+00 -0.30689787424E+03  0.30689787424E+03  0.00000000000E+00 0.  1.
         25    1    1    2    0    0 -0.11938961717E+03 -0.21936097549E+03 -0.17219019927E+03  0.32809691096E+03  0.12500000000E+03 0.  0.
          1    1    1    2  501    0  0.37687254815E+02 -0.54078445593E+02  0.31656423768E+03  0.32335386812E+03  0.00000000000E+00 0. -1.
         -1    1    1    2    0  502  0.81702362356E+02  0.27343942109E+03  0.32822384608E+03  0.43494285390E+03  0.00000000000E+00 0.  1.
<mgrwt>
<rscale>  4 0.28393884E+03</rscale>
<asrwt>0</asrwt>
<pdfrwt beam="1">  1       21 0.11992242E+00 0.28393884E+03</pdfrwt>
<pdfrwt beam="2">  1       21 0.47215058E-01 0.28393884E+03</pdfrwt>
<totfact> 0.21170983E+03</totfact>
</mgrwt>
</event>
<event>
 5    0  0.1972558E-002  0.3055258E+03  0.7546771E-02  0.1082511E+00
         21   -1    0    0  503  502  0.00000000000E+00  0.00000000000E+00  0.41299976483E+02  0.41299976483E+02  0.00000000000E+00 0.  1.
         21   -1    0    0  501  503 -0.00000000000E+00 -0.00000000000E+00 -0.32379213074E+04  0.32379213074E+04  0.00000000000E+00 0. -1.
         25    1    1    2    0    0 -0.22528518583E+03 -0.18976750311E+03 -0.21986049760E+04  0.22217682058E+04  0.12500000000E+03 0.  0.
          3    1    1    2  501    0  0.16443227478E+02  0.40569202568E+02 -0.23458356192E+02  0.49664216516E+02  0.00000000000E+00 0. -1.
         -3    1    1    2    0  502  0.20884195835E+03  0.14919830054E+03 -0.97455799878E+03  0.10077888615E+04  0.00000000000E+00 0.  1.
<mgrwt>
<rscale>  4 0.30552576E+03</rscale>
<asrwt>0</asrwt>
<pdfrwt beam="1">  1       21 0.63538418E-02 0.30552576E+03</pdfrwt>
<pdfrwt beam="2">  1       21 0.49814180E+00 0.30552576E+03</pdfrwt>
<totfact> 0.29995506E+02</totfact>
</mgrwt>
</event>
<event>
 5    0  0.1972558E-002  0.2469994E+03  0.7546771E-02  0.1115216E+00
         21   -1    0    0  503  502  0.00000000000E+00  0.00000000000E+00  0.73292055601E+03  0.73292055601E+03  0.00000000000E+00 0. -1.
         21   -1    0    0  501  503 -0.00000000000E+00 -0.00000000000E+00 -0.96188295955E+02  0.96188295955E+02  0.00000000000E+00 0. -1.
         25    1    1    2    0    0  0.20008137124E+03 -0.50010864841E+01  0.18868794278E+03  0.30213524411E+03  0.12500000000E+03 0.  0.
          2    1    1    2  501    0  0.33254507087E+02  0.22887470113E+02  0.97117184797E+02  0.10517340972E+03  0.00000000000E+00 0.  1.
         -2    1    1    2    0  502 -0.23333587833E+03 -0.17886383629E+02  0.35092713248E+03  0.42180019813E+03  0.00000000000E+00 0. -1.
<mgrwt>
<rscale>  4 0.24699940E+03</rscale>
<asrwt>0</asrwt>
<pdfrwt beam="1">  1       21 0.11275700E+00 0.24699940E+03</pdfrwt>
<pdfrwt beam="2">  1       21 0.14798200E-01 0.24699940E+03</pdfrwt>
<totfact> 0.23991176E+04</totfact>
</mgrwt>
</event>
<event>
 5    0  0.1972558E-002  0.2566748E+03  0.7546771E-02  0.1109158E+00
         21   -1    0    0  501  502  0.00000000000E+00  0.00000000000E+00  0.15543626114E+03  0.15543626114E+03  0.00000000000E+00 0. -1.
         21   -1    0    0  502  503 -0.00000000000E+00 -0.00000000000E+00 -0.69579529764E+03  0.69579529764E+03  0.00000000000E+00 0. -1.
         25    1    1    2    0    0 -0.23017672872E+03  0.13526213228E+02 -0.36128267210E+03  0.44644647389E+03  0.12500000000E+03 0.  0.
          2    1    1    2  501    0  0.12514437211E+02 -0.47944146553E+02  0.61208386759E+02  0.78750993244E+02  0.00000000000E+00 0.  1.
         -2    1    1    2    0  503  0.21766229151E+03  0.34417933325E+02 -0.24028475115E+03  0.32603409165E+03  0.00000000000E+00 0. -1.
<mgrwt>
<rscale>  4 0.25667480E+03</rscale>
<asrwt>0</asrwt>
<pdfrwt beam="1">  1       21 0.23913271E-01 0.25667480E+03</pdfrwt>
<pdfrwt beam="2">  1       21 0.10704543E+00 0.25667480E+03</pdfrwt>
<totfact> 0.11048381E+04</totfact>
</mgrwt>
</event>
<event>
 5    0  0.1972558E-002  0.2456455E+03  0.7546771E-02  0.1116088E+00
         21   -1    0    0  501  502  0.00000000000E+00  0.00000000000E+00  0.62049618286E+03  0.62049618286E+03  0.00000000000E+00 0. -1.
         21   -1    0    0  502  503 -0.00000000000E+00 -0.00000000000E+00 -0.89902591028E+03  0.89902591028E+03  0.00000000000E+00 0.  1.
         25    1    1    2    0    0  0.16745895776E+03  0.12472320382E+03 -0.80539670131E+03  0.84136034289E+03  0.12500000000E+03 0.  0.
          4    1    1    2  501    0 -0.12137015867E+02  0.74304882857E+02  0.37726295964E+03  0.38470230502E+03  0.00000000000E+00 0.  1.
         -4    1    1    2    0  503 -0.15532194190E+03 -0.19902808667E+03  0.14960401424E+03  0.29345944523E+03  0.00000000000E+00 0. -1.
<mgrwt>
<rscale>  4 0.24564548E+03</rscale>
<asrwt>0</asrwt>
<pdfrwt beam="1">  1       21 0.95460952E-01 0.24564548E+03</pdfrwt>
<pdfrwt beam="2">  1       21 0.13831168E+00 0.24564548E+03</pdfrwt>
<totfact> 0.31951060E+02</totfact>
</mgrwt>
</event>
<event>
 5    0  0.1972558E-002  0.2339839E+03  0.7546771E-02  0.1123867E+00
         21   -1    0    0  501  502  0.00000000000E+00  0.00000000000E+00  0.44701334829E+03  0.44701334829E+03  0.00000000000E+00 0. -1.
         21   -1    0    0  502  503 -0.00000000000E+00 -0.00000000000E+00 -0.62754450840E+03  0.62754450840E+03  0.00000000000E+00 0.  1.
         25    1    1    2    0    0  0.36411912038E+02 -0.24439610956E+03 -0.49376899898E+03  0.56611669297E+03  0.12500000000E+03 0.  0.
          2    1    1    2  501    0 -0.36005539079E+02  0.11276084931E+03  0.35187577102E+03  0.37125189052E+03  0.00000000000E+00 0. -1.
         -2    1    1    2    0  503 -0.40637295924E+00  0.13163526026E+03 -0.38637932145E+02  0.13718927320E+03  0.00000000000E+00 0.  1.
<mgrwt>
<rscale>  4 0.23398388E+03</rscale>
<asrwt>0</asrwt>
<pdfrwt beam="1">  1       21 0.68771285E-01 0.23398388E+03</pdfrwt>
<pdfrwt beam="2">  1       21 0.96545308E-01 0.23398388E+03</pdfrwt>
<totfact> 0.16576782E+03</totfact>
</mgrwt>
</event>
<event>
 5    0  0.1972558E-002  0.3420276E+03  0.7546771E-02  0.1065936E+00
         21   -1    0    0  501  502  0.00000000000E+00  0.00000000000E+00  0.74513635669E+03  0.74513635669E+03  0.00000000000E+00 0.  1.
         21   -1    0    0  502  503 -0.00000000000E+00 -0.00000000000E+00 -0.16989814271E+04  0.16989814271E+04  0.00000000000E+00 0. -1.
         25    1    1    2    0    0  0.29120406090E+03 -0.91286590820E+02 -0.13208845624E+04  0.13614308921E+04  0.12500000000E+03 0.  0.
          3    1    1    2  501    0 -0.41154885569E+03  0.51085056059E+01 -0.22731277070E+03  0.47018044746E+03  0.00000000000E+00 0.  1.
         -3    1    1    2    0  503  0.12034479479E+03  0.86178085214E+02  0.59435226272E+03  0.61250644422E+03  0.00000000000E+00 0. -1.
<mgrwt>
<rscale>  4 0.34202757E+03</rscale>
<asrwt>0</asrwt>
<pdfrwt beam="1">  1       21 0.11463636E+00 0.34202757E+03</pdfrwt>
<pdfrwt beam="2">  1       21 0.26138176E+00 0.34202757E+03</pdfrwt>
<totfact> 0.27879193E+01</totfact>
</mgrwt>
</event>
<event>
 5    0  0.1972558E-002  0.2565424E+03  0.7546771E-02  0.1109239E+00
         21   -1    0    0  501  502  0.00000000000E+00  0.00000000000E+00  0.21780864077E+03  0.21780864077E+03  0.00000000000E+00 0. -1.
         21   -1    0    0  502  503 -0.00000000000E+00 -0.00000000000E+00 -0.34705727079E+03  0.34705727079E+03  0.00000000000E+00 0. -1.
         25    1    1    2    0    0  0.65316718303E+02  0.21429594673E+03 -0.17749635914E+03  0.31195990765E+03  0.12500000000E+03 0.  0.
          4    1    1    2  501    0 -0.66126774298E+02 -0.11430275013E+03  0.71606212175E+02  0.15021757084E+03  0.00000000000E+00 0. -1.
         -4    1    1    2    0  503  0.81005599539E+00 -0.99993196594E+02 -0.23358483057E+02  0.10268843307E+03  0.00000000000E+00 0.  1.
<mgrwt>
<rscale>  4 0.25654245E+03</rscale>
<asrwt>0</asrwt>
<pdfrwt beam="1">  1       21 0.33509022E-01 0.25654245E+03</pdfrwt>
<pdfrwt beam="2">  1       21 0.53393426E-01 0.25654245E+03</pdfrwt>
<totfact> 0.27582163E+04</totfact>
</mgrwt>
</event>
<event>
 5    0  0.1972558E-002  0.2570018E+03  0.7546771E-02  0.1108958E+00
         21   -1    0    0  501  502  0.00000000000E+00  0.00000000000E+00  0.46623274074E+03  0.46623274074E+03  0.00000000000E+00 0.  1.
         21   -1    0    0  502  503 -0.00000000000E+00 -0.00000000000E+00 -0.27163971242E+03  0.27163971242E+03  0.00000000000E+00 0.  1.
         25    1    1    2    0    0 -0.83775302185E+02 -0.21334906186E+03 -0.15941109647E+03  0.30589707604E+03  0.12500000000E+03 0.  0.
          4    1    1    2  501    0  0.91979490916E+02  0.18520582105E+03  0.25275433411E+03  0.32656726155E+03  0.00000000000E+00 0.  1.
         -4    1    1    2    0  503 -0.82041887307E+01  0.28143240806E+02  0.10124979068E+03  0.10540811558E+03  0.00000000000E+00 0. -1.
<mgrwt>
<rscale>  4 0.25700177E+03</rscale>
<asrwt>0</asrwt>
<pdfrwt beam="1">  1       21 0.71728114E-01 0.25700177E+03</pdfrwt>
<pdfrwt beam="2">  1       21 0.41790725E-01 0.25700177E+03</pdfrwt>
<totfact> 0.92967761E+03</totfact>
</mgrwt>
</event>
<event>
 5    0  0.1972558E-002  0.3478327E+03  0.7546771E-02  0.1063508E+00
         21   -1    0    0  501  502  0.00000000000E+00  0.00000000000E+00  0.11249215456E+04  0.11249215456E+04  0.00000000000E+00 0.  1.
         21   -1    0    0  502  503 -0.00000000000E+00 -0.00000000000E+00 -0.29360511563E+03  0.29360511563E+03  0.00000000000E+00 0.  1.
         25    1    1    2    0    0 -0.32734050161E+03 -0.19489016073E+02 -0.13135712635E+03  0.37471498554E+03  0.12500000000E+03 0.  0.
          4    1    1    2  501    0  0.30526338537E+03  0.51547595421E+02  0.56516903067E+03  0.64440586766E+03  0.00000000000E+00 0.  1.
         -4    1    1    2    0  503  0.22077116238E+02 -0.32058579348E+02  0.39750452561E+03  0.39940580798E+03  0.00000000000E+00 0. -1.
<mgrwt>
<rscale>  4 0.34783266E+03</rscale>
<asrwt>0</asrwt>
<pdfrwt beam="1">  1       21 0.17306485E+00 0.34783266E+03</pdfrwt>
<pdfrwt beam="2">  1       21 0.45170019E-01 0.34783266E+03</pdfrwt>
<totfact> 0.84255967E+02</totfact>
</mgrwt>
</event>
<event>
 5    0  0.1972558E-002  0.2471875E+03  0.7546771E-02  0.1115095E+00
         21   -1    0    0  501  502  0.00000000000E+00  0.00000000000E+00  0.98195662027E+03  0.98195662027E+03  0.00000000000E+00 0.  1.
         21   -1    0    0  502  503 -0.00000000000E+00 -0.00000000000E+00 -0.77559188197E+02  0.77559188197E+02  0.00000000000E+00 0.  1.
         25    1    1    2    0    0 -0.18265172456E+03 -0.87170072833E+02  0.28371467643E+03  0.37024220681E+03  0.12500000000E+03 0.  0.
          3    1    1    2  501    0 -0.30068754363E+02  0.92573866739E+01  0.26971086520E+03  0.27153964720E+03  0.00000000000E+00 0. -1.
         -3    1    1    2    0  503  0.21272047893E+03  0.77912686159E+02  0.35097189044E+03  0.41773395445E+03  0.00000000000E+00 0.  1.
<mgrwt>
<rscale>  4 0.24718752E+03</rscale>
<asrwt>0</asrwt>
<pdfrwt beam="1">  1       21 0.15107024E+00 0.24718752E+03</pdfrwt>
<pdfrwt beam="2">  1       21 0.11932183E-01 0.24718752E+03</pdfrwt>
<totfact> 0.16798534E+04</totfact>
</mgrwt>
</event>
<event>
 5    0  0.1972558E-002  0.2303877E+03  0.7546771E-02  0.1126367E+00
         21   -1    0    0  501  502  0.00000000000E+00  0.00000000000E+00  0.83381287051E+03  0.83381287051E+03  0.00000000000E+00 0. -1.
         21   -1    0    0  502  503 -0.00000000000E+00 -0.00000000000E+00 -0.21140429958E+03  0.21140429958E+03  0.00000000000E+00 0.  1.
         25    1    1    2    0    0  0.26050255779E+03  0.25527159055E+02  0.30242869942E+02  0.29163821705E+03  0.12500000000E+03 0.  0.
          1    1    1    2  501    0 -0.10324260938E+03 -0.56705792930E+02  0.58105451604E+03  0.59287345527E+03  0.00000000000E+00 0. -1.
         -1    1    1    2    0  503 -0.15725994841E+03  0.31178633875E+02  0.11111184938E+02  0.16070549777E+03  0.00000000000E+00 0.  1.
<mgrwt>
<rscale>  4 0.23038773E+03</rscale>
<asrwt>0</asrwt>
<pdfrwt beam="1">  1       21 0.12827890E+00 0.23038773E+03</pdfrwt>
<pdfrwt beam="2">  1       21 0.32523739E-01 0.23038773E+03</pdfrwt>
<totfact> 0.39462195E+03</totfact>
</mgrwt>
</event>
<event>
 5    0  0.1972558E-002  0.3983590E+03  0.7546771E-02  0.1044349E+00
         21   -1    0    0  501  502  0.00000000000E+00  0.00000000000E+00  0.43293824211E+03  0.43293824211E+03  0.00000000000E+00 0. -1.
         21   -1    0    0  502  503 -0.00000000000E+00 -0.00000000000E+00 -0.53072785410E+03  0.53072785410E+03  0.00000000000E+00 0. -1.
         25    1    1    2    0    0  0.31706623950E+03 -0.22874491345E+03  0.72300352105E+02  0.41678240915E+03  0.12500000000E+03 0.  0.
          3    1    1    2  501    0  0.67923934676E+00  0.32578753795E+02  0.87410698533E+02  0.93287012938E+02  0.00000000000E+00 0.  1.
         -3    1    1    2    0  503 -0.31774547885E+03  0.19616615965E+03 -0.25750066263E+03  0.45359667412E+03  0.00000000000E+00 0. -1.
<mgrwt>
<rscale>  4 0.39835897E+03</rscale>
<asrwt>0</asrwt>
<pdfrwt beam="1">  1       21 0.66605883E-01 0.39835897E+03</pdfrwt>
<pdfrwt beam="2">  1       21 0.81650440E-01 0.39835897E+03</pdfrwt>
<totfact> 0.23988639E+03</totfact>
</mgrwt>
</event>
<event>
 5    0  0.1972558E-002  0.3507761E+03  0.7546771E-02  0.1062297E+00
         21   -1    0    0  503  502  0.00000000000E+00  0.00000000000E+00  0.67289756521E+03  0.67289756521E+03  0.00000000000E+00 0.  1.
         21   -1    0    0  501  503 -0.00000000000E+00 -0.00000000000E+00 -0.17786841607E+03  0.17786841607E+03  0.00000000000E+00 0.  1.
         25    1    1    2    0    0 -0.27312575249E+03 -0.18116612446E+03  0.18923349314E+03  0.39856386722E+03  0.12500000000E+03 0.  0.
          3    1    1    2  501    0  0.95391159479E+01  0.24989774610E+02  0.24898695899E+02  0.36543516875E+02  0.00000000000E+00 0. -1.
         -3    1    1    2    0  502  0.26358663655E+03  0.15617634985E+03  0.28089696011E+03  0.41565859719E+03  0.00000000000E+00 0.  1.
<mgrwt>
<rscale>  4 0.35077606E+03</rscale>
<asrwt>0</asrwt>
<pdfrwt beam="1">  1       21 0.10352270E+00 0.35077606E+03</pdfrwt>
<pdfrwt beam="2">  1       21 0.27364372E-01 0.35077606E+03</pdfrwt>
<totfact> 0.88403665E+03</totfact>
</mgrwt>
</event>
<event>
 5    0  0.1972558E-002  0.2986143E+03  0.7546771E-02  0.1085935E+00
         21   -1    0    0  503  502  0.00000000000E+00  0.00000000000E+00  0.74236590124E+03  0.74236590124E+03  0.00000000000E+00 0.  1.
         21   -1    0    0  501  503 -0.00000000000E+00 -0.00000000000E+00 -0.18906468429E+03  0.18906468429E+03  0.00000000000E+00 0.  1.
         25    1    1    2    0    0  0.16740426177E+03  0.21890187836E+03  0.11832985808E+02  0.30283203061E+03  0.12500000000E+03 0.  0.
          4    1    1    2  501    0 -0.54397152897E+02  0.17198621983E+02  0.84069191687E+02  0.10159956610E+03  0.00000000000E+00 0. -1.
         -4    1    1    2    0  502 -0.11300710887E+03 -0.23610050034E+03  0.45739903946E+03  0.52699898882E+03  0.00000000000E+00 0.  1.
<mgrwt>
<rscale>  4 0.29861430E+03</rscale>
<asrwt>0</asrwt>
<pdfrwt beam="1">  1       21 0.11421014E+00 0.29861430E+03</pdfrwt>
<pdfrwt beam="2">  1       21 0.29086875E-01 0.29861430E+03</pdfrwt>
<totfact> 0.63105919E+03</totfact>
</mgrwt>
</event>
<event>
 5    0  0.1972558E-002  0.2461790E+03  0.7546771E-02  0.1115744E+00
         21   -1    0    0  501  502  0.00000000000E+00  0.00000000000E+00  0.26715273693E+03  0.26715273693E+03  0.00000000000E+00 0.  1.
         21   -1    0    0  502  503 -0.00000000000E+00 -0.00000000000E+00 -0.57947490870E+03  0.57947490870E+03  0.00000000000E+00 0. -1.
         25    1    1    2    0    0 -0.33882945489E+02  0.22969454984E+03 -0.44593638761E+03  0.51806553834E+03  0.12500000000E+03 0.  0.
          4    1    1    2  501    0  0.59269827322E+02 -0.15875259164E+03 -0.63832988761E+01  0.16957607228E+03  0.00000000000E+00 0. -1.
         -4    1    1    2    0  503 -0.25386881833E+02 -0.70941958200E+02  0.13999751472E+03  0.15898603502E+03  0.00000000000E+00 0.  1.
<mgrwt>
<rscale>  4 0.24617899E+03</rscale>
<asrwt>0</asrwt>
<pdfrwt beam="1">  1       21 0.41100421E-01 0.24617899E+03</pdfrwt>
<pdfrwt beam="2">  1       21 0.89149985E-01 0.24617899E+03</pdfrwt>
<totfact> 0.58990661E+03</totfact>
</mgrwt>
</event>
<event>
 5    0  0.1972558E-002  0.3408079E+03  0.7546771E-02  0.1066452E+00
         21   -1    0    0  501  502  0.00000000000E+00  0.00000000000E+00  0.17914483923E+04  0.17914483923E+04  0.00000000000E+00 0.  1.
         21   -1    0    0  502  503 -0.00000000000E+00 -0.00000000000E+00 -0.19743995272E+03  0.19743995272E+03  0.00000000000E+00 0. -1.
         25    1    1    2    0    0 -0.44010306868E+02  0.31136574094E+03  0.10090236897E+03  0.35311728902E+03  0.12500000000E+03 0.  0.
          2    1    1    2  501    0  0.12392388685E+03  0.16178660560E+02  0.11426628035E+04  0.11494769077E+04  0.00000000000E+00 0. -1.
         -2    1    1    2    0  503 -0.79913579979E+02 -0.32754440150E+03  0.35044326706E+03  0.48629414827E+03  0.00000000000E+00 0.  1.
<mgrwt>
<rscale>  4 0.34080790E+03</rscale>
<asrwt>0</asrwt>
<pdfrwt beam="1">  1       21 0.27560743E+00 0.34080790E+03</pdfrwt>
<pdfrwt beam="2">  1       21 0.30375379E-01 0.34080790E+03</pdfrwt>
<totfact> 0.42140980E+02</totfact>
</mgrwt>
</event>
<event>
 5    0  0.1972558E-002  0.1970984E+03  0.7546771E-02  0.1152210E+00
         21   -1    0    0  501  502  0.00000000000E+00  0.00000000000E+00  0.32938095991E+03  0.32938095991E+03  0.00000000000E+00 0. -1.
         21   -1    0    0  502  503 -0.00000000000E+00 -0.00000000000E+00 -0.38098672200E+03  0.38098672200E+03  0.00000000000E+00 0. -1.
         25    1    1    2    0    0 -0.70000921811E+02 -0.20466117731E+03 -0.10794997107E+03  0.27214797961E+03  0.12500000000E+03 0.  0.
          4    1    1    2  501    0 -0.23825044106E+02  0.14521594509E+03  0.20518704345E+03  0.25250153710E+03  0.00000000000E+00 0. -1.
         -4    1    1    2    0  503  0.93825965917E+02  0.59445232215E+02 -0.14884283447E+03  0.18571816520E+03  0.00000000000E+00 0.  1.
<mgrwt>
<rscale>  4 0.19709840E+03</rscale>
<asrwt>0</asrwt>
<pdfrwt beam="1">  1       21 0.50673994E-01 0.19709840E+03</pdfrwt>
<pdfrwt beam="2">  1       21 0.58613342E-01 0.19709840E+03</pdfrwt>
<totfact> 0.10064066E+04</totfact>
</mgrwt>
</event>
<event>
 5    0  0.1972558E-002  0.2965682E+03  0.7546771E-02  0.1086969E+00
         21   -1    0    0  503  502  0.00000000000E+00  0.00000000000E+00  0.29737148626E+03  0.29737148626E+03  0.00000000000E+00 0.  1.
         21   -1    0    0  501  503 -0.00000000000E+00 -0.00000000000E+00 -0.36243835887E+03  0.36243835887E+03  0.00000000000E+00 0.  1.
         25    1    1    2    0    0  0.13754759226E+03 -0.19765998095E+03  0.18851902562E+02  0.27197279723E+03  0.12500000000E+03 0.  0.
          3    1    1    2  501    0  0.27720679945E+02 -0.36216598500E+02  0.53411502171E+02  0.70234369562E+02  0.00000000000E+00 0. -1.
         -3    1    1    2    0  502 -0.16526827220E+03  0.23387657945E+03 -0.13733027734E+03  0.31760267834E+03  0.00000000000E+00 0.  1.
<mgrwt>
<rscale>  4 0.29656819E+03</rscale>
<asrwt>0</asrwt>
<pdfrwt beam="1">  1       21 0.45749460E-01 0.29656819E+03</pdfrwt>
<pdfrwt beam="2">  1       21 0.55759747E-01 0.29656819E+03</pdfrwt>
<totfact> 0.13123085E+04</totfact>
</mgrwt>
</event>
<event>
 5    0  0.1972558E-002  0.3179872E+03  0.7546771E-02  0.1076579E+00
         21   -1    0    0  501  502  0.00000000000E+00  0.00000000000E+00  0.30741048329E+04  0.30741048329E+04  0.00000000000E+00 0. -1.
         21   -1    0    0  502  503 -0.00000000000E+00 -0.00000000000E+00 -0.23656624764E+03  0.23656624764E+03  0.00000000000E+00 0. -1.
         25    1    1    2    0    0 -0.19077490152E+03 -0.14249449072E+03 -0.64841608618E+02  0.27663907378E+03  0.12500000000E+03 0.  0.
          3    1    1    2  501    0  0.26011667608E+03  0.13882771067E+03  0.29402104060E+04  0.29549570302E+04  0.00000000000E+00 0. -1.
         -3    1    1    2    0  503 -0.69341774556E+02  0.36667800495E+01 -0.37830212138E+02  0.79074976604E+02  0.00000000000E+00 0.  1.
<mgrwt>
<rscale>  4 0.31798724E+03</rscale>
<asrwt>0</asrwt>
<pdfrwt beam="1">  1       21 0.47293918E+00 0.31798724E+03</pdfrwt>
<pdfrwt beam="2">  1       21 0.36394809E-01 0.31798724E+03</pdfrwt>
<totfact> 0.17454016E+01</totfact>
</mgrwt>
</event>
<event>
 5    0  0.1972558E-002  0.2777577E+03  0.7546771E-02  0.1096920E+00
         21   -1    0    0  501  502  0.00000000000E+00  0.00000000000E+00  0.25952895128E+03  0.25952895128E+03  0.00000000000E+00 0.  1.
         21   -1    0    0  502  503 -0.00000000000E+00 -0.00000000000E+00 -0.80528604134E+03  0.80528604134E+03  0.00000000000E+00 0. -1.
         25    1    1    2    0    0 -0.23342734609E+03  0.10153557222E+03 -0.49517027484E+03  0.57062807450E+03  0.12500000000E+03 0.  0.
          2    1    1    2  501    0  0.48785928816E+01 -0.29352839981E+02  0.16751029174E+03  0.17013255927E+03  0.00000000000E+00 0.  1.
         -2    1    1    2    0  503  0.22854875320E+03 -0.72182732236E+02 -0.21809710696E+03  0.32405435885E+03  0.00000000000E+00 0. -1.
<mgrwt>
<rscale>  4 0.27775769E+03</rscale>
<asrwt>0</asrwt>
<pdfrwt beam="1">  1       21 0.39927531E-01 0.27775769E+03</pdfrwt>
<pdfrwt beam="2">  1       21 0.12389016E+00 0.27775769E+03</pdfrwt>
<totfact> 0.27666585E+03</totfact>
</mgrwt>
</event>
<event>
 5    0  0.1972558E-002  0.3121253E+03  0.7546771E-02  0.1079332E+00
         21   -1    0    0  501  502  0.00000000000E+00  0.00000000000E+00  0.26008677887E+04  0.26008677887E+04  0.00000000000E+00 0. -1.
         21   -1    0    0  502  503 -0.00000000000E+00 -0.00000000000E+00 -0.79305656687E+02  0.79305656687E+02  0.00000000000E+00 0. -1.
         25    1    1    2    0    0 -0.26647421536E+03 -0.11752736753E+03  0.31470761324E+03  0.44663975573E+03  0.12500000000E+03 0.  0.
          3    1    1    2  501    0  0.25958649336E+02  0.60827969733E+00  0.85967790804E+03  0.86006995474E+03  0.00000000000E+00 0.  1.
         -3    1    1    2    0  503  0.24051556603E+03  0.11691908783E+03  0.13471766107E+04  0.13734637349E+04  0.00000000000E+00 0. -1.
<mgrwt>
<rscale>  4 0.31212526E+03</rscale>
<asrwt>0</asrwt>
<pdfrwt beam="1">  1       21 0.40013344E+00 0.31212526E+03</pdfrwt>
<pdfrwt beam="2">  1       21 0.12200872E-01 0.31212526E+03</pdfrwt>
<totfact> 0.42625558E+02</totfact>
</mgrwt>
</event>
<event>
 5    0  0.1972558E-002  0.2896708E+03  0.7546771E-02  0.1090521E+00
         21   -1    0    0  501  502  0.00000000000E+00  0.00000000000E+00  0.12175765234E+03  0.12175765234E+03  0.00000000000E+00 0. -1.
         21   -1    0    0  502  503 -0.00000000000E+00 -0.00000000000E+00 -0.85064050179E+03  0.85064050179E+03  0.00000000000E+00 0. -1.
         25    1    1    2    0    0 -0.25402857403E+03 -0.14802621088E+03 -0.31028298393E+03  0.44535694185E+03  0.12500000000E+03 0.  0.
          1    1    1    2  501    0  0.21799213448E+03  0.11172434389E+03 -0.40630518067E+03  0.47443313496E+03  0.00000000000E+00 0. -1.
         -1    1    1    2    0  503  0.36036439556E+02  0.36301866997E+02 -0.12294684847E+02  0.52608077315E+02  0.00000000000E+00 0.  1.
<mgrwt>
<rscale>  4 0.28967080E+03</rscale>
<asrwt>0</asrwt>
<pdfrwt beam="1">  1       21 0.18731946E-01 0.28967080E+03</pdfrwt>
<pdfrwt beam="2">  1       21 0.13086777E+00 0.28967080E+03</pdfrwt>
<totfact> 0.10451156E+04</totfact>
</mgrwt>
</event>
<event>
 5    0  0.1972558E-002  0.3065994E+03  0.7546771E-02  0.1081987E+00
         21   -1    0    0  501  502  0.00000000000E+00  0.00000000000E+00  0.50938882887E+03  0.50938882887E+03  0.00000000000E+00 0. -1.
         21   -1    0    0  502  503 -0.00000000000E+00 -0.00000000000E+00 -0.26364174356E+03  0.26364174356E+03  0.00000000000E+00 0. -1.
         25    1    1    2    0    0  0.62019653673E+02 -0.27380460227E+03 -0.83430127067E+02  0.31843521126E+03  0.12500000000E+03 0.  0.
          1    1    1    2  501    0  0.19957558806E+02  0.76976100547E+01  0.73568639093E+02  0.76615285759E+02  0.00000000000E+00 0.  1.
         -1    1    1    2    0  503 -0.81977212478E+02  0.26610699222E+03  0.25560857328E+03  0.37798007541E+03  0.00000000000E+00 0. -1.
<mgrwt>
<rscale>  4 0.30659939E+03</rscale>
<asrwt>0</asrwt>
<pdfrwt beam="1">  1       21 0.78367512E-01 0.30659939E+03</pdfrwt>
<pdfrwt beam="2">  1       21 0.40560268E-01 0.30659939E+03</pdfrwt>
<totfact> 0.78968511E+03</totfact>
</mgrwt>
</event>
<event>
 5    0  0.1972558E-002  0.2162532E+03  0.7546771E-02  0.1136708E+00
         21   -1    0    0  501  502  0.00000000000E+00  0.00000000000E+00  0.14925591467E+04  0.14925591467E+04  0.00000000000E+00 0. -1.
         21   -1    0    0  502  503 -0.00000000000E+00 -0.00000000000E+00 -0.91828307827E+02  0.91828307827E+02  0.00000000000E+00 0.  1.
         25    1    1    2    0    0 -0.60607494755E+02  0.19597353494E+03  0.22709969922E+03  0.33057248555E+03  0.12500000000E+03 0.  0.
          2    1    1    2  501    0  0.76624693491E+02 -0.14146283960E+03  0.12523266388E+03  0.20387814680E+03  0.00000000000E+00 0.  1.
         -2    1    1    2    0  503 -0.16017198736E+02 -0.54510695341E+02  0.10483984758E+04  0.10499368222E+04  0.00000000000E+00 0. -1.
<mgrwt>
<rscale>  4 0.21625317E+03</rscale>
<asrwt>0</asrwt>
<pdfrwt beam="1">  1       21 0.22962447E+00 0.21625317E+03</pdfrwt>
<pdfrwt beam="2">  1       21 0.14127433E-01 0.21625317E+03</pdfrwt>
<totfact> 0.37570473E+03</totfact>
</mgrwt>
</event>
<event>
 5    0  0.1972558E-002  0.2494199E+03  0.7546771E-02  0.1113672E+00
         21   -1    0    0  501  502  0.00000000000E+00  0.00000000000E+00  0.78397702766E+03  0.78397702766E+03  0.00000000000E+00 0. -1.
         21   -1    0    0  502  503 -0.00000000000E+00 -0.00000000000E+00 -0.25320301413E+03  0.25320301413E+03  0.00000000000E+00 0. -1.
         25    1    1    2    0    0 -0.20818869234E+03  0.62728725693E+02 -0.91785263133E+02  0.26707107514E+03  0.12500000000E+03 0.  0.
          3    1    1    2  501    0  0.21193854718E+03 -0.32199745276E+02  0.83320468668E+02  0.22999363442E+03  0.00000000000E+00 0. -1.
         -3    1    1    2    0  503 -0.37498548323E+01 -0.30528980417E+02  0.53923880799E+03  0.54011533222E+03  0.00000000000E+00 0.  1.
<mgrwt>
<rscale>  4 0.24941988E+03</rscale>
<asrwt>0</asrwt>
<pdfrwt beam="1">  1       21 0.12061185E+00 0.24941988E+03</pdfrwt>
<pdfrwt beam="2">  1       21 0.38954310E-01 0.24941988E+03</pdfrwt>
<totfact> 0.31702705E+03</totfact>
</mgrwt>
</event>
<event>
 5    0  0.1972558E-002  0.2342076E+03  0.7546771E-02  0.1123713E+00
         21   -1    0    0  501  502  0.00000000000E+00  0.00000000000E+00  0.13886178210E+03  0.13886178210E+03  0.00000000000E+00 0. -1.
         21   -1    0    0  502  503 -0.00000000000E+00 -0.00000000000E+00 -0.71391555324E+03  0.71391555324E+03  0.00000000000E+00 0. -1.
         25    1    1    2    0    0  0.12763748022E+03  0.17507729597E+03 -0.47212173536E+03  0.53429141760E+03  0.12500000000E+03 0.  0.
          2    1    1    2  501    0 -0.27987881361E+02 -0.30540946981E+02  0.63996575905E+02  0.76234065044E+02  0.00000000000E+00 0.  1.
         -2    1    1    2    0  503 -0.99649598859E+02 -0.14453634899E+03 -0.16692861169E+03  0.24225185269E+03  0.00000000000E+00 0. -1.
<mgrwt>
<rscale>  4 0.23420760E+03</rscale>
<asrwt>0</asrwt>
<pdfrwt beam="1">  1       21 0.21363351E-01 0.23420760E+03</pdfrwt>
<pdfrwt beam="2">  1       21 0.10983316E+00 0.23420760E+03</pdfrwt>
<totfact> 0.13021566E+04</totfact>
</mgrwt>
</event>
<event>
 5    0  0.1972558E-002  0.2425693E+03  0.7546771E-02  0.1118093E+00
         21   -1    0    0  501  502  0.00000000000E+00  0.00000000000E+00  0.13953824480E+03  0.13953824480E+03  0.00000000000E+00 0.  1.
         21   -1    0    0  502  503 -0.00000000000E+00 -0.00000000000E+00 -0.10147799965E+04  0.10147799965E+04  0.00000000000E+00 0. -1.
         25    1    1    2    0    0  0.11823410758E+03 -0.17014481300E+03 -0.42403486456E+03  0.48822036822E+03  0.12500000000E+03 0.  0.
          1    1    1    2  501    0 -0.16304301976E+02 -0.11937135989E+02  0.86757860278E+02  0.89080030302E+02  0.00000000000E+00 0.  1.
         -1    1    1    2    0  503 -0.10192980561E+03  0.18208194899E+03 -0.53796474742E+03  0.57701784278E+03  0.00000000000E+00 0. -1.
<mgrwt>
<rscale>  4 0.24256929E+03</rscale>
<asrwt>0</asrwt>
<pdfrwt beam="1">  1       21 0.21467422E-01 0.24256929E+03</pdfrwt>
<pdfrwt beam="2">  1       21 0.15612000E+00 0.24256929E+03</pdfrwt>
<totfact> 0.52290879E+03</totfact>
</mgrwt>
</event>
<event>
 5    0  0.1972558E-002  0.2465135E+03  0.7546771E-02  0.1115528E+00
         21   -1    0    0  501  502  0.00000000000E+00  0.00000000000E+00  0.17747585619E+04  0.17747585619E+04  0.00000000000E+00 0.  1.
         21   -1    0    0  502  503 -0.00000000000E+00 -0.00000000000E+00 -0.12549143560E+03  0.12549143560E+03  0.00000000000E+00 0. -1.
         25    1    1    2    0    0 -0.18444338566E+03 -0.11135708273E+03  0.23117066258E+02  0.25015827218E+03  0.12500000000E+03 0.  0.
          2    1    1    2  501    0  0.27188880990E+02 -0.47082854015E+01  0.82442928030E+03  0.82489092698E+03  0.00000000000E+00 0.  1.
         -2    1    1    2    0  503  0.15725450467E+03  0.11606536813E+03  0.80172077974E+03  0.82520079834E+03  0.00000000000E+00 0. -1.
<mgrwt>
<rscale>  4 0.24651351E+03</rscale>
<asrwt>0</asrwt>
<pdfrwt beam="1">  1       21 0.27303976E+00 0.24651351E+03</pdfrwt>
<pdfrwt beam="2">  1       21 0.19306376E-01 0.24651351E+03</pdfrwt>
<totfact> 0.11323178E+03</totfact>
</mgrwt>
</event>
<event>
 5    0  0.1972558E-002  0.5079874E+03  0.7546771E-02  0.1032801E+00
         21   -1    0    0  501  502  0.00000000000E+00  0.00000000000E+00  0.75893894534E+03  0.75893894534E+03  0.00000000000E+00 0.  1.
         21   -1    0    0  502  503 -0.00000000000E+00 -0.00000000000E+00 -0.75958474822E+03  0.75958474822E+03  0.00000000000E+00 0. -1.
         25    1    1    2    0    0  0.73968872376E+02 -0.22650866895E+03 -0.11049106153E+03  0.29087943528E+03  0.12500000000E+03 0.  0.
          4    1    1    2  501    0 -0.55605441288E+03  0.26634218942E+03 -0.20585833359E+03  0.65000948105E+03  0.00000000000E+00 0.  1.
         -4    1    1    2    0  503  0.48208554050E+03 -0.39833520471E+02  0.31570359224E+03  0.57763477723E+03  0.00000000000E+00 0. -1.
<mgrwt>
<rscale>  4 0.43337013E+03</rscale>
<asrwt>0</asrwt>
<pdfrwt beam="1">  1       21 0.11675984E+00 0.50798744E+03</pdfrwt>
<pdfrwt beam="2">  1       21 0.11685919E+00 0.50798744E+03</pdfrwt>
<totfact> 0.25533168E+02</totfact>
</mgrwt>
</event>
<event>
 5    0  0.1972558E-002  0.2415965E+03  0.7546771E-02  0.1118734E+00
         21   -1    0    0  501  502  0.00000000000E+00  0.00000000000E+00  0.11340859704E+04  0.11340859704E+04  0.00000000000E+00 0.  1.
         21   -1    0    0  502  503 -0.00000000000E+00 -0.00000000000E+00 -0.96422377882E+02  0.96422377882E+02  0.00000000000E+00 0. -1.
         25    1    1    2    0    0 -0.20204160179E+03 -0.13664223342E+03  0.18698261885E+03  0.33178217035E+03  0.12500000000E+03 0.  0.
          4    1    1    2  501    0  0.68903114984E+02  0.14057365285E+03  0.44442522562E+03  0.47119250025E+03  0.00000000000E+00 0. -1.
         -4    1    1    2    0  503  0.13313848681E+03 -0.39314194213E+01  0.40625574809E+03  0.42753367772E+03  0.00000000000E+00 0.  1.
<mgrwt>
<rscale>  4 0.24159652E+03</rscale>
<asrwt>0</asrwt>
<pdfrwt beam="1">  1       21 0.17447476E+00 0.24159652E+03</pdfrwt>
<pdfrwt beam="2">  1       21 0.14834213E-01 0.24159652E+03</pdfrwt>
<totfact> 0.76593584E+03</totfact>
</mgrwt>
</event>
<event>
 5    0  0.1972558E-002  0.2379002E+03  0.7546771E-02  0.1121200E+00
         21   -1    0    0  501  502  0.00000000000E+00  0.00000000000E+00  0.36026146455E+03  0.36026146455E+03  0.00000000000E+00 0. -1.
         21   -1    0    0  502  503 -0.00000000000E+00 -0.00000000000E+00 -0.53016223092E+03  0.53016223092E+03  0.00000000000E+00 0.  1.
         25    1    1    2    0    0 -0.78420541513E+02  0.18849210108E+03 -0.43884902027E+03  0.49989250454E+03  0.12500000000E+03 0.  0.
          1    1    1    2  501    0  0.15064355156E+01 -0.20085563438E+03  0.22284963773E+03  0.30001202683E+03  0.00000000000E+00 0.  1.
         -1    1    1    2    0  503  0.76914105997E+02  0.12363533292E+02  0.46098616162E+02  0.90519164097E+02  0.00000000000E+00 0. -1.
<mgrwt>
<rscale>  4 0.23790020E+03</rscale>
<asrwt>0</asrwt>
<pdfrwt beam="1">  1       21 0.55424840E-01 0.23790020E+03</pdfrwt>
<pdfrwt beam="2">  1       21 0.81563420E-01 0.23790020E+03</pdfrwt>
<totfact> 0.39041650E+03</totfact>
</mgrwt>
</event>
<event>
 5    0  0.1972558E-002  0.3412365E+03  0.7546771E-02  0.1066270E+00
         21   -1    0    0  501  502  0.00000000000E+00  0.00000000000E+00  0.61891350823E+03  0.61891350823E+03  0.00000000000E+00 0. -1.
         21   -1    0    0  502  503 -0.00000000000E+00 -0.00000000000E+00 -0.23910570355E+03  0.23910570355E+03  0.00000000000E+00 0. -1.
         25    1    1    2    0    0  0.11881164186E+03 -0.30371865031E+03  0.87955615385E+02  0.36016998079E+03  0.12500000000E+03 0.  0.
          3    1    1    2  501    0 -0.49696022815E+02  0.31169744799E+03  0.28940869875E+03  0.42823169976E+03  0.00000000000E+00 0. -1.
         -3    1    1    2    0  503 -0.69115619048E+02 -0.79787976800E+01  0.24434905413E+01  0.69617531231E+02  0.00000000000E+00 0.  1.
<mgrwt>
<rscale>  4 0.34123653E+03</rscale>
<asrwt>0</asrwt>
<pdfrwt beam="1">  1       21 0.95217462E-01 0.34123653E+03</pdfrwt>
<pdfrwt beam="2">  1       21 0.36785493E-01 0.34123653E+03</pdfrwt>
<totfact> 0.60266491E+03</totfact>
</mgrwt>
</event>
<event>
 5    0  0.1972558E-002  0.2123357E+03  0.7546771E-02  0.1139730E+00
         21   -1    0    0  501  502  0.00000000000E+00  0.00000000000E+00  0.22996472995E+03  0.22996472995E+03  0.00000000000E+00 0.  1.
         21   -1    0    0  502  503 -0.00000000000E+00 -0.00000000000E+00 -0.64196864619E+03  0.64196864619E+03  0.00000000000E+00 0. -1.
         25    1    1    2    0    0 -0.20051808945E+03 -0.66974747789E+02 -0.28483204726E+03  0.37609495634E+03  0.12500000000E+03 0.  0.
          2    1    1    2  501    0  0.46473716430E+02  0.46345905433E+02  0.15798581114E+03  0.17107678332E+03  0.00000000000E+00 0.  1.
         -2    1    1    2    0  503  0.15404437302E+03  0.20628842357E+02 -0.28515768012E+03  0.32476163648E+03  0.00000000000E+00 0. -1.
<mgrwt>
<rscale>  4 0.21233566E+03</rscale>
<asrwt>0</asrwt>
<pdfrwt beam="1">  1       21 0.35379190E-01 0.21233566E+03</pdfrwt>
<pdfrwt beam="2">  1       21 0.98764406E-01 0.21233566E+03</pdfrwt>
<totfact> 0.64175521E+03</totfact>
</mgrwt>
</event>
<event>
 5    0  0.1972558E-002  0.2819188E+03  0.7546771E-02  0.1094646E+00
         21   -1    0    0  501  502  0.00000000000E+00  0.00000000000E+00  0.43646356973E+03  0.43646356973E+03  0.00000000000E+00 0.  1.
         21   -1    0    0  502  503 -0.00000000000E+00 -0.00000000000E+00 -0.53871681982E+03  0.53871681982E+03  0.00000000000E+00 0. -1.
         25    1    1    2    0    0  0.68036560156E+02  0.21791359975E+03 -0.13947982666E+03  0.29528788075E+03  0.12500000000E+03 0.  0.
          2    1    1    2  501    0 -0.52636608600E+02  0.56249927507E+02  0.29401277697E+03  0.30393778958E+03  0.00000000000E+00 0.  1.
         -2    1    1    2    0  503 -0.15399951555E+02 -0.27416352726E+03 -0.25678620040E+03  0.37595471922E+03  0.00000000000E+00 0. -1.
<mgrwt>
<rscale>  4 0.28191880E+03</rscale>
<asrwt>0</asrwt>
<pdfrwt beam="1">  1       21 0.67148242E-01 0.28191880E+03</pdfrwt>
<pdfrwt beam="2">  1       21 0.82879510E-01 0.28191880E+03</pdfrwt>
<totfact> 0.24128864E+03</totfact>
</mgrwt>
</event>
<event>
 5    0  0.1972558E-002  0.2378069E+03  0.7546771E-02  0.1121263E+00
         21   -1    0    0  503  502  0.00000000000E+00  0.00000000000E+00  0.60057594283E+03  0.60057594283E+03  0.00000000000E+00 0. -1.
         21   -1    0    0  501  503 -0.00000000000E+00 -0.00000000000E+00 -0.44728040918E+03  0.44728040918E+03  0.00000000000E+00 0. -1.
         25    1    1    2    0    0 -0.79877502210E+02 -0.19135941445E+03 -0.27627512045E+03  0.36735784058E+03  0.12500000000E+03 0.  0.
          1    1    1    2  501    0 -0.63247065657E+02  0.21643057783E+03 -0.16149728682E+01  0.22548834664E+03  0.00000000000E+00 0.  1.
         -1    1    1    2    0  502  0.14312456787E+03 -0.25071163379E+02  0.43118562696E+03  0.45501016479E+03  0.00000000000E+00 0. -1.
<mgrwt>
<rscale>  4 0.23780686E+03</rscale>
<asrwt>0</asrwt>
<pdfrwt beam="1">  1       21 0.92396299E-01 0.23780686E+03</pdfrwt>
<pdfrwt beam="2">  1       21 0.68812371E-01 0.23780686E+03</pdfrwt>
<totfact> 0.18303156E+03</totfact>
</mgrwt>
</event>
<event>
 5    0  0.1972558E-002  0.2072301E+03  0.7546771E-02  0.1143778E+00
         21   -1    0    0  501  502  0.00000000000E+00  0.00000000000E+00  0.11956821060E+03  0.11956821060E+03  0.00000000000E+00 0. -1.
         21   -1    0    0  502  503 -0.00000000000E+00 -0.00000000000E+00 -0.68245823080E+03  0.68245823080E+03  0.00000000000E+00 0.  1.
         25    1    1    2    0    0  0.27764012773E+01 -0.20975625425E+03 -0.40572203680E+03  0.47354066958E+03  0.12500000000E+03 0.  0.
          4    1    1    2  501    0  0.27129622742E+02  0.74995519627E+02  0.38873246152E+02  0.88721325851E+02  0.00000000000E+00 0. -1.
         -4    1    1    2    0  503 -0.29906024020E+02  0.13476073462E+03 -0.19604122954E+03  0.23976444597E+03  0.00000000000E+00 0.  1.
<mgrwt>
<rscale>  4 0.20723006E+03</rscale>
<asrwt>0</asrwt>
<pdfrwt beam="1">  1       21 0.18395109E-01 0.20723006E+03</pdfrwt>
<pdfrwt beam="2">  1       21 0.10499357E+00 0.20723006E+03</pdfrwt>
<totfact> 0.19528904E+04</totfact>
</mgrwt>
</event>
<event>
 5    0  0.1972558E-002  0.2911575E+03  0.7546771E-02  0.1089746E+00
         21   -1    0    0  501  502  0.00000000000E+00  0.00000000000E+00  0.12844709738E+04  0.12844709738E+04  0.00000000000E+00 0. -1.
         21   -1    0    0  502  503 -0.00000000000E+00 -0.00000000000E+00 -0.10972156313E+03  0.10972156313E+03  0.00000000000E+00 0.  1.
         25    1    1    2    0    0  0.21792730382E+03  0.29029593024E+02  0.14819040850E+03  0.29312185895E+03  0.12500000000E+03 0.  0.
          2    1    1    2  501    0 -0.27326979393E+03  0.52759845286E+02  0.89030264810E+03  0.93279085907E+03  0.00000000000E+00 0. -1.
         -2    1    1    2    0  503  0.55342490111E+02 -0.81789438309E+02  0.13625635409E+03  0.16827981894E+03  0.00000000000E+00 0.  1.
<mgrwt>
<rscale>  4 0.29115747E+03</rscale>
<asrwt>0</asrwt>
<pdfrwt beam="1">  1       21 0.19761091E+00 0.29115747E+03</pdfrwt>
<pdfrwt beam="2">  1       21 0.16880241E-01 0.29115747E+03</pdfrwt>
<totfact> 0.40728770E+03</totfact>
</mgrwt>
</event>
<event>
 5    0  0.1972558E-002  0.4413053E+03  0.7546771E-02  0.1030347E+00
         21   -1    0    0  501  502  0.00000000000E+00  0.00000000000E+00  0.12681125789E+04  0.12681125789E+04  0.00000000000E+00 0.  1.
         21   -1    0    0  502  503 -0.00000000000E+00 -0.00000000000E+00 -0.84456855309E+03  0.84456855309E+03  0.00000000000E+00 0.  1.
         25    1    1    2    0    0 -0.42048852480E+03 -0.81794348280E+02 -0.59918643109E+03  0.74709456838E+03  0.12500000000E+03 0.  0.
          3    1    1    2  501    0  0.17728623443E+02  0.24327555161E+02  0.95220419689E+03  0.95267988675E+03  0.00000000000E+00 0.  1.
         -3    1    1    2    0  503  0.40275990136E+03  0.57466793119E+02  0.70526260014E+02  0.41290667687E+03  0.00000000000E+00 0. -1.
<mgrwt>
<rscale>  4 0.44130532E+03</rscale>
<asrwt>0</asrwt>
<pdfrwt beam="1">  1       21 0.19509424E+00 0.44130532E+03</pdfrwt>
<pdfrwt beam="2">  1       21 0.12993362E+00 0.44130532E+03</pdfrwt>
<totfact> 0.49190965E+01</totfact>
</mgrwt>
</event>
<event>
 5    0  0.1972558E-002  0.2716544E+03  0.7546771E-02  0.1100336E+00
         21   -1    0    0  501  502  0.00000000000E+00  0.00000000000E+00  0.21723883963E+03  0.21723883963E+03  0.00000000000E+00 0.  1.
         21   -1    0    0  502  503 -0.00000000000E+00 -0.00000000000E+00 -0.10489095380E+04  0.10489095380E+04  0.00000000000E+00 0.  1.
         25    1    1    2    0    0 -0.24697581413E+03 -0.51503696559E+02 -0.82579480549E+03  0.87247449493E+03  0.12500000000E+03 0.  0.
          2    1    1    2  501    0  0.21684437280E+03 -0.10690131418E+02 -0.12895665329E+03  0.25251847329E+03  0.00000000000E+00 0.  1.
         -2    1    1    2    0  503  0.30131441327E+02  0.62193827977E+02  0.12308076047E+03  0.14115540936E+03  0.00000000000E+00 0. -1.
<mgrwt>
<rscale>  4 0.27165444E+03</rscale>
<asrwt>0</asrwt>
<pdfrwt beam="1">  1       21 0.33421360E-01 0.27165444E+03</pdfrwt>
<pdfrwt beam="2">  1       21 0.16137070E+00 0.27165444E+03</pdfrwt>
<totfact> 0.19859437E+03</totfact>
</mgrwt>
</event>
<event>
 5    0  0.1972558E-002  0.2293831E+03  0.7546771E-02  0.1127075E+00
         21   -1    0    0  501  502  0.00000000000E+00  0.00000000000E+00  0.18150775620E+03  0.18150775620E+03  0.00000000000E+00 0. -1.
         21   -1    0    0  502  503 -0.00000000000E+00 -0.00000000000E+00 -0.54901155662E+03  0.54901155662E+03  0.00000000000E+00 0.  1.
         25    1    1    2    0    0 -0.31284719793E+02 -0.21224882466E+03 -0.37871524235E+03  0.45285597275E+03  0.12500000000E+03 0.  0.
          1    1    1    2  501    0  0.45348464996E+02  0.15521519956E+03 -0.71014212492E+02  0.17661047486E+03  0.00000000000E+00 0.  1.
         -1    1    1    2    0  503 -0.14063745203E+02  0.57033625099E+02  0.82225654431E+02  0.10105286521E+03  0.00000000000E+00 0. -1.
<mgrwt>
<rscale>  4 0.22938314E+03</rscale>
<asrwt>0</asrwt>
<pdfrwt beam="1">  1       21 0.27924271E-01 0.22938314E+03</pdfrwt>
<pdfrwt beam="2">  1       21 0.84463315E-01 0.22938314E+03</pdfrwt>
<totfact> 0.14555896E+04</totfact>
</mgrwt>
</event>
<event>
 5    0  0.1972558E-002  0.2403628E+03  0.7546771E-02  0.1119551E+00
         21   -1    0    0  501  502  0.00000000000E+00  0.00000000000E+00  0.12275134163E+03  0.12275134163E+03  0.00000000000E+00 0.  1.
         21   -1    0    0  502  503 -0.00000000000E+00 -0.00000000000E+00 -0.64124750395E+03  0.64124750395E+03  0.00000000000E+00 0.  1.
         25    1    1    2    0    0  0.19276898162E+03  0.10839590177E+03 -0.34446233993E+03  0.42800567219E+03  0.12500000000E+03 0.  0.
          4    1    1    2  501    0 -0.19273710061E+03 -0.16846840094E+02 -0.97414842469E+02  0.21661269008E+03  0.00000000000E+00 0.  1.
         -4    1    1    2    0  503 -0.31881013011E-01 -0.91549061676E+02 -0.76618979925E+02  0.11938048331E+03  0.00000000000E+00 0. -1.
<mgrwt>
<rscale>  4 0.24036277E+03</rscale>
<asrwt>0</asrwt>
<pdfrwt beam="1">  1       21 0.18884822E-01 0.24036277E+03</pdfrwt>
<pdfrwt beam="2">  1       21 0.98653460E-01 0.24036277E+03</pdfrwt>
<totfact> 0.21192040E+04</totfact>
</mgrwt>
</event>
<event>
 5    0  0.1972558E-002  0.2343738E+03  0.7546771E-02  0.1123599E+00
         21   -1    0    0  501  502  0.00000000000E+00  0.00000000000E+00  0.25988405918E+03  0.25988405918E+03  0.00000000000E+00 0. -1.
         21   -1    0    0  502  503 -0.00000000000E+00 -0.00000000000E+00 -0.76863275425E+03  0.76863275425E+03  0.00000000000E+00 0.  1.
         25    1    1    2    0    0 -0.10701325597E+03 -0.17238578984E+03 -0.26091392878E+03  0.35336917766E+03  0.12500000000E+03 0.  0.
          3    1    1    2  501    0  0.14128840036E+03 -0.29719691442E+02 -0.39646974296E+03  0.42194067026E+03  0.00000000000E+00 0.  1.
         -3    1    1    2    0  503 -0.34275144392E+02  0.20210548128E+03  0.14863497667E+03  0.25320696550E+03  0.00000000000E+00 0. -1.
<mgrwt>
<rscale>  4 0.23437378E+03</rscale>
<asrwt>0</asrwt>
<pdfrwt beam="1">  1       21 0.39982164E-01 0.23437378E+03</pdfrwt>
<pdfrwt beam="2">  1       21 0.11825119E+00 0.23437378E+03</pdfrwt>
<totfact> 0.31926904E+03</totfact>
</mgrwt>
</event>
<event>
 5    0  0.1972558E-002  0.2524808E+03  0.7546771E-02  0.1111747E+00
         21   -1    0    0  501  502  0.00000000000E+00  0.00000000000E+00  0.22070529124E+03  0.22070529124E+03  0.00000000000E+00 0.  1.
         21   -1    0    0  502  503 -0.00000000000E+00 -0.00000000000E+00 -0.88578579605E+03  0.88578579605E+03  0.00000000000E+00 0.  1.
         25    1    1    2    0    0  0.17410006263E+03  0.14900274143E+03 -0.77528488713E+03  0.81804908470E+03  0.12500000000E+03 0.  0.
          3    1    1    2  501    0 -0.19814984580E+02 -0.62936934263E+02  0.88583599361E+02  0.11045698432E+03  0.00000000000E+00 0.  1.
         -3    1    1    2    0  503 -0.15428507805E+03 -0.86065807170E+02  0.21620782956E+02  0.17798501827E+03  0.00000000000E+00 0. -1.
<mgrwt>
<rscale>  4 0.25248079E+03</rscale>
<asrwt>0</asrwt>
<pdfrwt beam="1">  1       21 0.33954660E-01 0.25248079E+03</pdfrwt>
<pdfrwt beam="2">  1       21 0.13627474E+00 0.25248079E+03</pdfrwt>
<totfact> 0.30570579E+03</totfact>
</mgrwt>
</event>
<event>
 5    0  0.1972558E-002  0.3123587E+03  0.7546771E-02  0.1079221E+00
         21   -1    0    0  501  502  0.00000000000E+00  0.00000000000E+00  0.95647120798E+02  0.95647120798E+02  0.00000000000E+00 0. -1.
         21   -1    0    0  502  503 -0.00000000000E+00 -0.00000000000E+00 -0.11279164425E+04  0.11279164425E+04  0.00000000000E+00 0. -1.
         25    1    1    2    0    0  0.99383161943E+02 -0.26845105859E+03 -0.73736742545E+03  0.80079879112E+03  0.12500000000E+03 0.  0.
          3    1    1    2  501    0 -0.43034685463E+02  0.61811750108E+02 -0.27549419889E+02  0.80197550714E+02  0.00000000000E+00 0.  1.
         -3    1    1    2    0  503 -0.56348476480E+02  0.20663930849E+03 -0.26735247640E+03  0.34256722151E+03  0.00000000000E+00 0. -1.
<mgrwt>
<rscale>  4 0.31235874E+03</rscale>
<asrwt>0</asrwt>
<pdfrwt beam="1">  1       21 0.14714942E-01 0.31235874E+03</pdfrwt>
<pdfrwt beam="2">  1       21 0.17352560E+00 0.31235874E+03</pdfrwt>
<totfact> 0.75719188E+03</totfact>
</mgrwt>
</event>
<event>
 5    0  0.1972558E-002  0.2451769E+03  0.7546771E-02  0.1116391E+00
         21   -1    0    0  501  502  0.00000000000E+00  0.00000000000E+00  0.10771544446E+04  0.10771544446E+04  0.00000000000E+00 0.  1.
         21   -1    0    0  502  503 -0.00000000000E+00 -0.00000000000E+00 -0.14524244451E+03  0.14524244451E+03  0.00000000000E+00 0.  1.
         25    1    1    2    0    0 -0.11330802775E+03 -0.28202916006E+03  0.15049916124E+03  0.36146113735E+03  0.12500000000E+03 0.  0.
          2    1    1    2  501    0  0.34008164519E+02  0.19603017431E+03  0.67174015551E+03  0.70058491350E+03  0.00000000000E+00 0.  1.
         -2    1    1    2    0  503  0.79299863235E+02  0.85998985752E+02  0.10967268333E+03  0.16035083825E+03  0.00000000000E+00 0. -1.
<mgrwt>
<rscale>  4 0.24517689E+03</rscale>
<asrwt>0</asrwt>
<pdfrwt beam="1">  1       21 0.16571606E+00 0.24517689E+03</pdfrwt>
<pdfrwt beam="2">  1       21 0.22344992E-01 0.24517689E+03</pdfrwt>
<totfact> 0.41114982E+03</totfact>
</mgrwt>
</event>
<event>
 5    0  0.1972558E-002  0.2083280E+03  0.7546771E-02  0.1142897E+00
         21   -1    0    0  501  502  0.00000000000E+00  0.00000000000E+00  0.17493306250E+03  0.17493306250E+03  0.00000000000E+00 0.  1.
         21   -1    0    0  502  503 -0.00000000000E+00 -0.00000000000E+00 -0.57847878558E+03  0.57847878558E+03  0.00000000000E+00 0.  1.
         25    1    1    2    0    0 -0.98636997255E+02 -0.19481087816E+03 -0.40655862401E+02  0.25486944624E+03  0.12500000000E+03 0.  0.
          1    1    1    2  501    0  0.63312007157E+02  0.38923162795E+02  0.25479997586E+02  0.78566234027E+02  0.00000000000E+00 0. -1.
         -1    1    1    2    0  503  0.35324990098E+02  0.15588771537E+03 -0.38836985827E+03  0.41997616782E+03  0.00000000000E+00 0.  1.
<mgrwt>
<rscale>  4 0.20832800E+03</rscale>
<asrwt>0</asrwt>
<pdfrwt beam="1">  1       21 0.26912779E-01 0.20832800E+03</pdfrwt>
<pdfrwt beam="2">  1       21 0.88996736E-01 0.20832800E+03</pdfrwt>
<totfact> 0.14034840E+04</totfact>
</mgrwt>
</event>
<event>
 5    0  0.1972558E-002  0.3283990E+03  0.7546771E-02  0.1071847E+00
         21   -1    0    0  501  502  0.00000000000E+00  0.00000000000E+00  0.64699840450E+03  0.64699840450E+03  0.00000000000E+00 0. -1.
         21   -1    0    0  502  503 -0.00000000000E+00 -0.00000000000E+00 -0.47099871569E+03  0.47099871569E+03  0.00000000000E+00 0. -1.
         25    1    1    2    0    0  0.31092836940E+03 -0.78232764957E+01 -0.24562973768E+03  0.41556783151E+03  0.12500000000E+03 0.  0.
          4    1    1    2  501    0 -0.28990050510E+03  0.24578295152E+02  0.11237414573E+02  0.29115747446E+03  0.00000000000E+00 0.  1.
         -4    1    1    2    0  503 -0.21027864299E+02 -0.16755018656E+02  0.41039201192E+03  0.41127181422E+03  0.00000000000E+00 0. -1.
<mgrwt>
<rscale>  4 0.32839899E+03</rscale>
<asrwt>0</asrwt>
<pdfrwt beam="1">  1       21 0.99538216E-01 0.32839899E+03</pdfrwt>
<pdfrwt beam="2">  1       21 0.72461341E-01 0.32839899E+03</pdfrwt>
<totfact> 0.12886103E+03</totfact>
</mgrwt>
</event>
<event>
 5    0  0.1972558E-002  0.3285853E+03  0.7546771E-02  0.1071765E+00
         21   -1    0    0  501  502  0.00000000000E+00  0.00000000000E+00  0.32718725402E+03  0.32718725402E+03  0.00000000000E+00 0. -1.
         21   -1    0    0  502  503 -0.00000000000E+00 -0.00000000000E+00 -0.43465886777E+03  0.43465886777E+03  0.00000000000E+00 0. -1.
         25    1    1    2    0    0  0.66552345922E+02 -0.30790305367E+03 -0.21993052945E+03  0.40401478066E+03  0.12500000000E+03 0.  0.
          1    1    1    2  501    0 -0.63928469197E+02  0.27615462480E+03  0.50162252591E+02  0.28786190710E+03  0.00000000000E+00 0. -1.
         -1    1    1    2    0  503 -0.26238767246E+01  0.31748428869E+02  0.62296663105E+02  0.69969434032E+02  0.00000000000E+00 0.  1.
<mgrwt>
<rscale>  4 0.32858531E+03</rscale>
<asrwt>0</asrwt>
<pdfrwt beam="1">  1       21 0.50336501E-01 0.32858531E+03</pdfrwt>
<pdfrwt beam="2">  1       21 0.66870595E-01 0.32858531E+03</pdfrwt>
<totfact> 0.71274784E+03</totfact>
</mgrwt>
</event>
<event>
 5    0  0.1972558E-002  0.2647273E+03  0.7546771E-02  0.1104336E+00
         21   -1    0    0  501  502  0.00000000000E+00  0.00000000000E+00  0.14558493685E+04  0.14558493685E+04  0.00000000000E+00 0. -1.
         21   -1    0    0  502  503 -0.00000000000E+00 -0.00000000000E+00 -0.11056643884E+03  0.11056643884E+03  0.00000000000E+00 0.  1.
         25    1    1    2    0    0 -0.29646436688E+03 -0.12788613058E+03  0.38240764974E+03  0.51585520624E+03  0.12500000000E+03 0.  0.
          1    1    1    2  501    0  0.78600779554E+02  0.12248156250E+03  0.15007414042E+03  0.20905038465E+03  0.00000000000E+00 0.  1.
         -1    1    1    2    0  503  0.21786358733E+03  0.54045680815E+01  0.81280113951E+03  0.84151021647E+03  0.00000000000E+00 0. -1.
<mgrwt>
<rscale>  4 0.26472734E+03</rscale>
<asrwt>0</asrwt>
<pdfrwt beam="1">  1       21 0.22397681E+00 0.26472734E+03</pdfrwt>
<pdfrwt beam="2">  1       21 0.17010222E-01 0.26472734E+03</pdfrwt>
<totfact> 0.27774346E+03</totfact>
</mgrwt>
</event>
<event>
 5    0  0.1972558E-002  0.3086298E+03  0.7546771E-02  0.1081005E+00
         21   -1    0    0  501  502  0.00000000000E+00  0.00000000000E+00  0.12134119875E+04  0.12134119875E+04  0.00000000000E+00 0. -1.
         21   -1    0    0  502  503 -0.00000000000E+00 -0.00000000000E+00 -0.81748130767E+03  0.81748130767E+03  0.00000000000E+00 0. -1.
         25    1    1    2    0    0  0.11298052522E+03  0.27404238885E+03 -0.56700478933E+03  0.65190740223E+03  0.12500000000E+03 0.  0.
          4    1    1    2  501    0 -0.47343748840E+02 -0.25539300283E+02  0.10906522092E+04  0.10919779887E+04  0.00000000000E+00 0. -1.
         -4    1    1    2    0  503 -0.65636776378E+02 -0.24850308857E+03 -0.12771673998E+03  0.28700790427E+03  0.00000000000E+00 0.  1.
<mgrwt>
<rscale>  4 0.30862980E+03</rscale>
<asrwt>0</asrwt>
<pdfrwt beam="1">  1       21 0.18667877E+00 0.30862980E+03</pdfrwt>
<pdfrwt beam="2">  1       21 0.12576636E+00 0.30862980E+03</pdfrwt>
<totfact> 0.67390277E+01</totfact>
</mgrwt>
</event>
<event>
 5    0  0.1972558E-002  0.2431745E+03  0.7546771E-02  0.1117696E+00
         21   -1    0    0  501  502  0.00000000000E+00  0.00000000000E+00  0.40634804392E+03  0.40634804392E+03  0.00000000000E+00 0. -1.
         21   -1    0    0  502  503 -0.00000000000E+00 -0.00000000000E+00 -0.26939971577E+03  0.26939971577E+03  0.00000000000E+00 0. -1.
         25    1    1    2    0    0  0.15068258233E+03  0.16626302337E+03 -0.13863945851E+03  0.29188102545E+03  0.12500000000E+03 0.  0.
          1    1    1    2  501    0 -0.61629580890E+02 -0.16557124081E+03  0.16358479386E+03  0.24077380631E+03  0.00000000000E+00 0. -1.
         -1    1    1    2    0  503 -0.89053001444E+02 -0.69178256244E+00  0.11200299280E+03  0.14309292793E+03  0.00000000000E+00 0.  1.
<mgrwt>
<rscale>  4 0.24317454E+03</rscale>
<asrwt>0</asrwt>
<pdfrwt beam="1">  1       21 0.62515083E-01 0.24317454E+03</pdfrwt>
<pdfrwt beam="2">  1       21 0.41446110E-01 0.24317454E+03</pdfrwt>
<totfact> 0.12895307E+04</totfact>
</mgrwt>
</event>
<event>
 5    0  0.1972558E-002  0.2184819E+03  0.7546771E-02  0.1135020E+00
         21   -1    0    0  501  502  0.00000000000E+00  0.00000000000E+00  0.22915779505E+03  0.22915779505E+03  0.00000000000E+00 0.  1.
         21   -1    0    0  502  503 -0.00000000000E+00 -0.00000000000E+00 -0.16290943375E+04  0.16290943375E+04  0.00000000000E+00 0. -1.
         25    1    1    2    0    0  0.56669433750E+02 -0.24387334897E+03 -0.90819282302E+03  0.95032880565E+03  0.12500000000E+03 0.  0.
          1    1    1    2  501    0  0.11598465006E+02  0.10774157883E+03  0.18492112312E+03  0.21433290455E+03  0.00000000000E+00 0.  1.
         -1    1    1    2    0  503 -0.68267898756E+02  0.13613177014E+03 -0.67666484250E+03  0.69359042230E+03  0.00000000000E+00 0. -1.
<mgrwt>
<rscale>  4 0.21848192E+03</rscale>
<asrwt>0</asrwt>
<pdfrwt beam="1">  1       21 0.35255045E-01 0.21848192E+03</pdfrwt>
<pdfrwt beam="2">  1       21 0.25062990E+00 0.21848192E+03</pdfrwt>
<totfact> 0.49505033E+02</totfact>
</mgrwt>
</event>
<event>
 5    0  0.1972558E-002  0.2269984E+03  0.7546771E-02  0.1128770E+00
         21   -1    0    0  501  502  0.00000000000E+00  0.00000000000E+00  0.75672799041E+02  0.75672799041E+02  0.00000000000E+00 0. -1.
         21   -1    0    0  502  503 -0.00000000000E+00 -0.00000000000E+00 -0.10624442169E+04  0.10624442169E+04  0.00000000000E+00 0.  1.
         25    1    1    2    0    0  0.20261446013E+03 -0.47808369579E+02 -0.68253037341E+03  0.72443838267E+03  0.12500000000E+03 0.  0.
          1    1    1    2  501    0 -0.34817394134E+02  0.15596157269E+02  0.22978287553E+02  0.44536420542E+02  0.00000000000E+00 0. -1.
         -1    1    1    2    0  503 -0.16779706600E+03  0.32212212310E+02 -0.32721933196E+03  0.36914221269E+03  0.00000000000E+00 0.  1.
<mgrwt>
<rscale>  4 0.22699835E+03</rscale>
<asrwt>0</asrwt>
<pdfrwt beam="1">  1       21 0.11641970E-01 0.22699835E+03</pdfrwt>
<pdfrwt beam="2">  1       21 0.16345294E+00 0.22699835E+03</pdfrwt>
<totfact> 0.14366884E+04</totfact>
</mgrwt>
</event>
<event>
 5    0  0.1972558E-002  0.5286471E+03  0.7546771E-02  0.1006561E+00
         21   -1    0    0  503  502  0.00000000000E+00  0.00000000000E+00  0.39265812250E+03  0.39265812250E+03  0.00000000000E+00 0. -1.
         21   -1    0    0  501  503 -0.00000000000E+00 -0.00000000000E+00 -0.10903181052E+04  0.10903181052E+04  0.00000000000E+00 0. -1.
         25    1    1    2    0    0 -0.14115864831E+03 -0.51413734635E+03 -0.56401309225E+03  0.78612896088E+03  0.12500000000E+03 0.  0.
          4    1    1    2  501    0  0.17211238976E+03  0.16352643632E+02  0.22227764366E+02  0.17431051939E+03  0.00000000000E+00 0.  1.
         -4    1    1    2    0  502 -0.30953741449E+02  0.49778470272E+03 -0.15587465477E+03  0.52253674738E+03  0.00000000000E+00 0. -1.
<mgrwt>
<rscale>  4 0.52864709E+03</rscale>
<asrwt>0</asrwt>
<pdfrwt beam="1">  1       21 0.60408943E-01 0.52864709E+03</pdfrwt>
<pdfrwt beam="2">  1       21 0.16774124E+00 0.52864709E+03</pdfrwt>
<totfact> 0.45275521E+02</totfact>
</mgrwt>
</event>
<event>
 5    0  0.1972558E-002  0.3002019E+03  0.7546771E-02  0.1085140E+00
         21   -1    0    0  501  502  0.00000000000E+00  0.00000000000E+00  0.19189707881E+03  0.19189707881E+03  0.00000000000E+00 0. -1.
         21   -1    0    0  502  503 -0.00000000000E+00 -0.00000000000E+00 -0.55163120757E+03  0.55163120757E+03  0.00000000000E+00 0. -1.
         25    1    1    2    0    0  0.54377306899E+02  0.27874961172E+03 -0.27743403722E+03  0.41623657041E+03  0.12500000000E+03 0.  0.
          4    1    1    2  501    0 -0.40958395148E+02 -0.25636798588E+03 -0.11626117564E+03  0.28446229149E+03  0.00000000000E+00 0. -1.
         -4    1    1    2    0  503 -0.13418911751E+02 -0.22381625839E+02  0.33961084101E+02  0.42829424478E+02  0.00000000000E+00 0.  1.
<mgrwt>
<rscale>  4 0.30020193E+03</rscale>
<asrwt>0</asrwt>
<pdfrwt beam="1">  1       21 0.29522627E-01 0.30020193E+03</pdfrwt>
<pdfrwt beam="2">  1       21 0.84866341E-01 0.30020193E+03</pdfrwt>
<totfact> 0.12466193E+04</totfact>
</mgrwt>
</event>
<event>
 5    0  0.1972558E-002  0.2890472E+03  0.7546771E-02  0.1090848E+00
         21   -1    0    0  501  502  0.00000000000E+00  0.00000000000E+00  0.12189097139E+04  0.12189097139E+04  0.00000000000E+00 0. -1.
         21   -1    0    0  502  503 -0.00000000000E+00 -0.00000000000E+00 -0.46558396183E+03  0.46558396183E+03  0.00000000000E+00 0. -1.
         25    1    1    2    0    0 -0.27514765927E+03 -0.61943137063E+01 -0.28464936475E+03  0.41520460592E+03  0.12500000000E+03 0.  0.
          3    1    1    2  501    0  0.20909808042E+03 -0.17309683579E+03  0.66868373401E+02  0.27956376939E+03  0.00000000000E+00 0.  1.
         -3    1    1    2    0  503  0.66049578849E+02  0.17929114950E+03  0.97110674347E+03  0.98972530046E+03  0.00000000000E+00 0. -1.
<mgrwt>
<rscale>  4 0.28904719E+03</rscale>
<asrwt>0</asrwt>
<pdfrwt beam="1">  1       21 0.18752457E+00 0.28904719E+03</pdfrwt>
<pdfrwt beam="2">  1       21 0.71628302E-01 0.28904719E+03</pdfrwt>
<totfact> 0.25792488E+02</totfact>
</mgrwt>
</event>
<event>
 5    0  0.1972558E-002  0.2803052E+03  0.7546771E-02  0.1095522E+00
         21   -1    0    0  501  502  0.00000000000E+00  0.00000000000E+00  0.27223261067E+03  0.27223261067E+03  0.00000000000E+00 0.  1.
         21   -1    0    0  502  503 -0.00000000000E+00 -0.00000000000E+00 -0.56995909603E+03  0.56995909603E+03  0.00000000000E+00 0. -1.
         25    1    1    2    0    0 -0.23964126042E+03 -0.53620396322E+02 -0.31226737674E+03  0.41646007633E+03  0.12500000000E+03 0.  0.
          2    1    1    2  501    0 -0.70257412405E+01 -0.29256482091E+02  0.13548159247E+03  0.13878243650E+03  0.00000000000E+00 0.  1.
         -2    1    1    2    0  503  0.24666700166E+03  0.82876878413E+02 -0.12094070108E+03  0.28694919387E+03  0.00000000000E+00 0. -1.
<mgrwt>
<rscale>  4 0.28030523E+03</rscale>
<asrwt>0</asrwt>
<pdfrwt beam="1">  1       21 0.41881941E-01 0.28030523E+03</pdfrwt>
<pdfrwt beam="2">  1       21 0.87686014E-01 0.28030523E+03</pdfrwt>
<totfact> 0.57839553E+03</totfact>
</mgrwt>
</event>
<event>
 5    0  0.1972558E-002  0.2712744E+03  0.7546771E-02  0.1100552E+00
         21   -1    0    0  501  502  0.00000000000E+00  0.00000000000E+00  0.15917198426E+03  0.15917198426E+03  0.00000000000E+00 0.  1.
         21   -1    0    0  502  503 -0.00000000000E+00 -0.00000000000E+00 -0.48623943717E+03  0.48623943717E+03  0.00000000000E+00 0. -1.
         25    1    1    2    0    0 -0.18741178889E+03  0.15113442108E+03 -0.29004700760E+03  0.39713607047E+03  0.12500000000E+03 0.  0.
          4    1    1    2  501    0  0.12716769940E+03 -0.10355248659E+03 -0.47640670722E+02  0.17077580261E+03  0.00000000000E+00 0. -1.
         -4    1    1    2    0  503  0.60244089489E+02 -0.47581934496E+02  0.10620225413E+02  0.77499548363E+02  0.00000000000E+00 0.  1.
<mgrwt>
<rscale>  4 0.27127438E+03</rscale>
<asrwt>0</asrwt>
<pdfrwt beam="1">  1       21 0.24487998E-01 0.27127438E+03</pdfrwt>
<pdfrwt beam="2">  1       21 0.74806067E-01 0.27127438E+03</pdfrwt>
<totfact> 0.24211692E+04</totfact>
</mgrwt>
</event>
<event>
 5    0  0.1972558E-002  0.2417885E+03  0.7546771E-02  0.1118607E+00
         21   -1    0    0  501  502  0.00000000000E+00  0.00000000000E+00  0.10130289074E+03  0.10130289074E+03  0.00000000000E+00 0.  1.
         21   -1    0    0  502  503 -0.00000000000E+00 -0.00000000000E+00 -0.66351763455E+03  0.66351763455E+03  0.00000000000E+00 0.  1.
         25    1    1    2    0    0  0.61552122859E+02 -0.19297328848E+03 -0.42774102409E+03  0.48950458382E+03  0.12500000000E+03 0.  0.
          4    1    1    2  501    0 -0.82368500881E+02  0.20058619605E+03 -0.11326693005E+03  0.24464012227E+03  0.00000000000E+00 0.  1.
         -4    1    1    2    0  503  0.20816378022E+02 -0.76129075678E+01 -0.21206789671E+02  0.30675819203E+02  0.00000000000E+00 0. -1.
<mgrwt>
<rscale>  4 0.24178853E+03</rscale>
<asrwt>0</asrwt>
<pdfrwt beam="1">  1       21 0.15585060E-01 0.24178853E+03</pdfrwt>
<pdfrwt beam="2">  1       21 0.10207964E+00 0.24178853E+03</pdfrwt>
<totfact> 0.27847919E+04</totfact>
</mgrwt>
</event>
<event>
 5    0  0.1972558E-002  0.2286834E+03  0.7546771E-02  0.1127570E+00
         21   -1    0    0  501  502  0.00000000000E+00  0.00000000000E+00  0.53514862597E+02  0.53514862597E+02  0.00000000000E+00 0. -1.
         21   -1    0    0  502  503 -0.00000000000E+00 -0.00000000000E+00 -0.12915858840E+04  0.12915858840E+04  0.00000000000E+00 0. -1.
         25    1    1    2    0    0  0.12701734115E+03  0.17219322111E+03 -0.73698540623E+03  0.77753224972E+03  0.12500000000E+03 0.  0.
          1    1    1    2  501    0 -0.47601879491E+02 -0.15634787808E+02 -0.17445486660E+02  0.53054034019E+02  0.00000000000E+00 0.  1.
         -1    1    1    2    0  503 -0.79415461662E+02 -0.15655843330E+03 -0.48364012851E+03  0.51451446286E+03  0.00000000000E+00 0. -1.
<mgrwt>
<rscale>  4 0.22868340E+03</rscale>
<asrwt>0</asrwt>
<pdfrwt beam="1">  1       21 0.82330562E-02 0.22868340E+03</pdfrwt>
<pdfrwt beam="2">  1       21 0.19870551E+00 0.22868340E+03</pdfrwt>
<totfact> 0.15207260E+04</totfact>
</mgrwt>
</event>
<event>
 5    0  0.1972558E-002  0.3407768E+03  0.7546771E-02  0.1066466E+00
         21   -1    0    0  501  502  0.00000000000E+00  0.00000000000E+00  0.11007604828E+03  0.11007604828E+03  0.00000000000E+00 0.  1.
         21   -1    0    0  502  503 -0.00000000000E+00 -0.00000000000E+00 -0.13296153873E+04  0.13296153873E+04  0.00000000000E+00 0.  1.
         25    1    1    2    0    0 -0.17727959694E+03 -0.25875099627E+03 -0.87394631837E+03  0.93690303711E+03  0.12500000000E+03 0.  0.
          3    1    1    2  501    0  0.19860367491E+03  0.25616348396E+03 -0.35376588470E+03  0.47980563917E+03  0.00000000000E+00 0.  1.
         -3    1    1    2    0  503 -0.21324077967E+02  0.25875123097E+01  0.81728640071E+01  0.22982759347E+02  0.00000000000E+00 0. -1.
<mgrwt>
<rscale>  4 0.34077678E+03</rscale>
<asrwt>0</asrwt>
<pdfrwt beam="1">  1       21 0.16934778E-01 0.34077678E+03</pdfrwt>
<pdfrwt beam="2">  1       21 0.20455620E+00 0.34077678E+03</pdfrwt>
<totfact> 0.35409104E+03</totfact>
</mgrwt>
</event>
<event>
 5    0  0.1972558E-002  0.2493932E+03  0.7546771E-02  0.1113689E+00
         21   -1    0    0  501  502  0.00000000000E+00  0.00000000000E+00  0.26298936966E+03  0.26298936966E+03  0.00000000000E+00 0. -1.
         21   -1    0    0  502  503 -0.00000000000E+00 -0.00000000000E+00 -0.41258837322E+03  0.41258837322E+03  0.00000000000E+00 0.  1.
         25    1    1    2    0    0 -0.20659732265E+03  0.12681114414E+02 -0.21035478565E+03  0.32049555416E+03  0.12500000000E+03 0.  0.
          1    1    1    2  501    0 -0.22964466861E+02  0.71063729664E+01  0.11573126564E+03  0.11820149374E+03  0.00000000000E+00 0.  1.
         -1    1    1    2    0  503  0.22956178951E+03 -0.19787487380E+02 -0.54975483550E+02  0.23688069498E+03  0.00000000000E+00 0. -1.
<mgrwt>
<rscale>  4 0.24939323E+03</rscale>
<asrwt>0</asrwt>
<pdfrwt beam="1">  1       21 0.40459903E-01 0.24939323E+03</pdfrwt>
<pdfrwt beam="2">  1       21 0.63475134E-01 0.24939323E+03</pdfrwt>
<totfact> 0.13059030E+04</totfact>
</mgrwt>
</event>
<event>
 5    0  0.1972558E-002  0.2586891E+03  0.7546771E-02  0.1107933E+00
         21   -1    0    0  501  502  0.00000000000E+00  0.00000000000E+00  0.14193222703E+03  0.14193222703E+03  0.00000000000E+00 0. -1.
         21   -1    0    0  502  503 -0.00000000000E+00 -0.00000000000E+00 -0.64887954472E+03  0.64887954472E+03  0.00000000000E+00 0.  1.
         25    1    1    2    0    0 -0.23346140095E+03  0.71350258549E+02 -0.41558645270E+03  0.49792789116E+03  0.12500000000E+03 0.  0.
          3    1    1    2  501    0  0.17444411818E+03 -0.10374242272E+03 -0.97722061269E+02  0.22526171867E+03  0.00000000000E+00 0. -1.
         -3    1    1    2    0  503  0.59017282765E+02  0.32392164169E+02  0.63611962817E+01  0.67622161919E+02  0.00000000000E+00 0.  1.
<mgrwt>
<rscale>  4 0.25868914E+03</rscale>
<asrwt>0</asrwt>
<pdfrwt beam="1">  1       21 0.21835727E-01 0.25868914E+03</pdfrwt>
<pdfrwt beam="2">  1       21 0.99827623E-01 0.25868914E+03</pdfrwt>
<totfact> 0.15532405E+04</totfact>
</mgrwt>
</event>
<event>
 5    0  0.1972558E-002  0.2691706E+03  0.7546771E-02  0.1101755E+00
         21   -1    0    0  501  502  0.00000000000E+00  0.00000000000E+00  0.12191136820E+04  0.12191136820E+04  0.00000000000E+00 0. -1.
         21   -1    0    0  502  503 -0.00000000000E+00 -0.00000000000E+00 -0.93815630339E+02  0.93815630339E+02  0.00000000000E+00 0.  1.
         25    1    1    2    0    0 -0.17349199222E+03  0.18014151726E+03  0.28966525831E+03  0.40259334256E+03  0.12500000000E+03 0.  0.
          1    1    1    2  501    0  0.22447523958E+02 -0.11048823503E+02  0.52585159381E+03  0.52644645174E+03  0.00000000000E+00 0.  1.
         -1    1    1    2    0  503  0.15104446826E+03 -0.16909269376E+03  0.30978119953E+03  0.38388951804E+03  0.00000000000E+00 0. -1.
<mgrwt>
<rscale>  4 0.26917056E+03</rscale>
<asrwt>0</asrwt>
<pdfrwt beam="1">  1       21 0.18755594E+00 0.26917056E+03</pdfrwt>
<pdfrwt beam="2">  1       21 0.14433175E-01 0.26917056E+03</pdfrwt>
<totfact> 0.64307711E+03</totfact>
</mgrwt>
</event>
<event>
 5    0  0.1972558E-002  0.2510616E+03  0.7546771E-02  0.1112636E+00
         21   -1    0    0  501  502  0.00000000000E+00  0.00000000000E+00  0.60317331034E+03  0.60317331034E+03  0.00000000000E+00 0.  1.
         21   -1    0    0  502  503 -0.00000000000E+00 -0.00000000000E+00 -0.39761159638E+03  0.39761159638E+03  0.00000000000E+00 0.  1.
         25    1    1    2    0    0 -0.27329715308E+03 -0.33533537211E+02 -0.22403431378E+03  0.37634054492E+03  0.12500000000E+03 0.  0.
          3    1    1    2  501    0  0.19868525000E+03  0.79452138473E+02  0.47845926607E+03  0.52412950706E+03  0.00000000000E+00 0.  1.
         -3    1    1    2    0  503  0.74611903083E+02 -0.45918601262E+02 -0.48863238335E+02  0.10031485475E+03  0.00000000000E+00 0. -1.
<mgrwt>
<rscale>  4 0.25106161E+03</rscale>
<asrwt>0</asrwt>
<pdfrwt beam="1">  1       21 0.92795894E-01 0.25106161E+03</pdfrwt>
<pdfrwt beam="2">  1       21 0.61171015E-01 0.25106161E+03</pdfrwt>
<totfact> 0.23221423E+03</totfact>
</mgrwt>
</event>
<event>
 5    0  0.1972558E-002  0.2126110E+03  0.7546771E-02  0.1139515E+00
         21   -1    0    0  501  502  0.00000000000E+00  0.00000000000E+00  0.30712853302E+03  0.30712853302E+03  0.00000000000E+00 0. -1.
         21   -1    0    0  502  503 -0.00000000000E+00 -0.00000000000E+00 -0.19355463714E+03  0.19355463714E+03  0.00000000000E+00 0. -1.
         25    1    1    2    0    0 -0.92550584505E+02 -0.17810319487E+03 -0.17725091034E+01  0.23646247166E+03  0.12500000000E+03 0.  0.
          1    1    1    2  501    0  0.94262638199E+02  0.11913767569E+03  0.21582741003E+02  0.15344394885E+03  0.00000000000E+00 0. -1.
         -1    1    1    2    0  503 -0.17120536939E+01  0.58965519182E+02  0.93763663982E+02  0.11077674965E+03  0.00000000000E+00 0.  1.
<mgrwt>
<rscale>  4 0.21261096E+03</rscale>
<asrwt>0</asrwt>
<pdfrwt beam="1">  1       21 0.47250544E-01 0.21261096E+03</pdfrwt>
<pdfrwt beam="2">  1       21 0.29777636E-01 0.21261096E+03</pdfrwt>
<totfact> 0.45879302E+04</totfact>
</mgrwt>
</event>
<event>
 5    0  0.1972558E-002  0.2360367E+03  0.7546771E-02  0.1122462E+00
         21   -1    0    0  501  502  0.00000000000E+00  0.00000000000E+00  0.23786542650E+02  0.23786542650E+02  0.00000000000E+00 0.  1.
         21   -1    0    0  502  503 -0.00000000000E+00 -0.00000000000E+00 -0.21948898277E+04  0.21948898277E+04  0.00000000000E+00 0. -1.
         25    1    1    2    0    0 -0.70961958645E+02 -0.18722372274E+03 -0.14571514280E+04  0.14761448459E+04  0.12500000000E+03 0.  0.
          3    1    1    2  501    0  0.52222080935E+02  0.17220451957E+03 -0.63551044600E+03  0.66049607817E+03  0.00000000000E+00 0.  1.
         -3    1    1    2    0  503  0.18739877710E+02  0.15019203177E+02 -0.78441411031E+02  0.82035446273E+02  0.00000000000E+00 0. -1.
<mgrwt>
<rscale>  4 0.23603670E+03</rscale>
<asrwt>0</asrwt>
<pdfrwt beam="1">  1       21 0.36594683E-02 0.23603670E+03</pdfrwt>
<pdfrwt beam="2">  1       21 0.33767534E+00 0.23603670E+03</pdfrwt>
<totfact> 0.89651466E+03</totfact>
</mgrwt>
</event>
<event>
 5    0  0.1972558E-002  0.3407717E+03  0.7546771E-02  0.1066468E+00
         21   -1    0    0  501  502  0.00000000000E+00  0.00000000000E+00  0.21316820005E+04  0.21316820005E+04  0.00000000000E+00 0. -1.
         21   -1    0    0  502  503 -0.00000000000E+00 -0.00000000000E+00 -0.11449394553E+03  0.11449394553E+03  0.00000000000E+00 0.  1.
         25    1    1    2    0    0  0.32366851384E+03 -0.10164003538E+02  0.24600458793E+03  0.42545019815E+03  0.12500000000E+03 0.  0.
          1    1    1    2  501    0 -0.24893260048E+02  0.27643961845E+02  0.87693895863E+03  0.87772763440E+03  0.00000000000E+00 0. -1.
         -1    1    1    2    0  503 -0.29877525380E+03 -0.17479958307E+02  0.89424450842E+03  0.94299811350E+03  0.00000000000E+00 0.  1.
<mgrwt>
<rscale>  4 0.34077167E+03</rscale>
<asrwt>0</asrwt>
<pdfrwt beam="1">  1       21 0.32795105E+00 0.34077167E+03</pdfrwt>
<pdfrwt beam="2">  1       21 0.17614455E-01 0.34077167E+03</pdfrwt>
<totfact> 0.58617012E+02</totfact>
</mgrwt>
</event>
<event>
 5    0  0.1972558E-002  0.3385306E+03  0.7546771E-02  0.1067423E+00
         21   -1    0    0  501  502  0.00000000000E+00  0.00000000000E+00  0.12041345886E+04  0.12041345886E+04  0.00000000000E+00 0.  1.
         21   -1    0    0  502  503 -0.00000000000E+00 -0.00000000000E+00 -0.20445951645E+03  0.20445951645E+03  0.00000000000E+00 0. -1.
         25    1    1    2    0    0  0.26762852279E+03  0.16600073386E+03  0.15153611237E+02  0.33916942933E+03  0.12500000000E+03 0.  0.
          4    1    1    2  501    0 -0.25454723526E+03 -0.18410668257E+03  0.54290970513E+03  0.62724836666E+03  0.00000000000E+00 0. -1.
         -4    1    1    2    0  503 -0.13081287531E+02  0.18105948707E+02  0.44161175577E+03  0.44217630906E+03  0.00000000000E+00 0.  1.
<mgrwt>
<rscale>  4 0.33853061E+03</rscale>
<asrwt>0</asrwt>
<pdfrwt beam="1">  1       21 0.18525147E+00 0.33853061E+03</pdfrwt>
<pdfrwt beam="2">  1       21 0.31455311E-01 0.33853061E+03</pdfrwt>
<totfact> 0.14525559E+03</totfact>
</mgrwt>
</event>
<event>
 5    0  0.1972558E-002  0.4219580E+03  0.7546771E-02  0.1036431E+00
         21   -1    0    0  501  502  0.00000000000E+00  0.00000000000E+00  0.85670771476E+03  0.85670771476E+03  0.00000000000E+00 0.  1.
         21   -1    0    0  502  503 -0.00000000000E+00 -0.00000000000E+00 -0.29628010431E+03  0.29628010431E+03  0.00000000000E+00 0.  1.
         25    1    1    2    0    0  0.40305951088E+03 -0.98738027288E+02  0.16973098248E+03  0.46544577961E+03  0.12500000000E+03 0.  0.
          4    1    1    2  501    0 -0.37539358729E+03  0.11801579621E+03  0.11524755142E+03  0.41003667110E+03  0.00000000000E+00 0.  1.
         -4    1    1    2    0  503 -0.27665923584E+02 -0.19277768924E+02  0.27544907654E+03  0.27750536836E+03  0.00000000000E+00 0. -1.
<mgrwt>
<rscale>  4 0.42195797E+03</rscale>
<asrwt>0</asrwt>
<pdfrwt beam="1">  1       21 0.13180119E+00 0.42195797E+03</pdfrwt>
<pdfrwt beam="2">  1       21 0.45581555E-01 0.42195797E+03</pdfrwt>
<totfact> 0.16679605E+03</totfact>
</mgrwt>
</event>
<event>
 5    0  0.1972558E-002  0.3826983E+03  0.7546771E-02  0.1049941E+00
         21   -1    0    0  501  502  0.00000000000E+00  0.00000000000E+00  0.19214922718E+03  0.19214922718E+03  0.00000000000E+00 0. -1.
         21   -1    0    0  502  503 -0.00000000000E+00 -0.00000000000E+00 -0.17803203151E+04  0.17803203151E+04  0.00000000000E+00 0. -1.
         25    1    1    2    0    0 -0.35658649499E+03 -0.92652565947E+02 -0.14928240946E+04  0.15426883042E+04  0.12500000000E+03 0.  0.
          2    1    1    2  501    0  0.31122169736E+03  0.11992010309E+03 -0.13884434037E+03  0.36127209536E+03  0.00000000000E+00 0. -1.
         -2    1    1    2    0  503  0.45364797628E+02 -0.27267537145E+02  0.43497347026E+02  0.68509142777E+02  0.00000000000E+00 0.  1.
<mgrwt>
<rscale>  4 0.38269827E+03</rscale>
<asrwt>0</asrwt>
<pdfrwt beam="1">  1       21 0.29561420E-01 0.38269827E+03</pdfrwt>
<pdfrwt beam="2">  1       21 0.27389543E+00 0.38269827E+03</pdfrwt>
<totfact> 0.44201118E+02</totfact>
</mgrwt>
</event>
<event>
 5    0  0.1972558E-002  0.2449465E+03  0.7546771E-02  0.1116541E+00
         21   -1    0    0  501  502  0.00000000000E+00  0.00000000000E+00  0.79768050988E+03  0.79768050988E+03  0.00000000000E+00 0. -1.
         21   -1    0    0  502  503 -0.00000000000E+00 -0.00000000000E+00 -0.34172735851E+03  0.34172735851E+03  0.00000000000E+00 0.  1.
         25    1    1    2    0    0 -0.10929359545E+03 -0.22186686633E+03  0.73010100002E+02  0.28657541954E+03  0.12500000000E+03 0.  0.
          1    1    1    2  501    0  0.84895708972E+02  0.18306340278E+03 -0.19053216113E+03  0.27752836839E+03  0.00000000000E+00 0.  1.
         -1    1    1    2    0  503  0.24397886481E+02  0.38803463547E+02  0.57347521250E+03  0.57530408046E+03  0.00000000000E+00 0. -1.
<mgrwt>
<rscale>  4 0.24494652E+03</rscale>
<asrwt>0</asrwt>
<pdfrwt beam="1">  1       21 0.12272008E+00 0.24494652E+03</pdfrwt>
<pdfrwt beam="2">  1       21 0.52573440E-01 0.24494652E+03</pdfrwt>
<totfact> 0.16378443E+03</totfact>
</mgrwt>
</event>
<event>
 5    0  0.1972558E-002  0.2598163E+03  0.7546771E-02  0.1107254E+00
         21   -1    0    0  501  502  0.00000000000E+00  0.00000000000E+00  0.24483418345E+03  0.24483418345E+03  0.00000000000E+00 0. -1.
         21   -1    0    0  502  503 -0.00000000000E+00 -0.00000000000E+00 -0.38343150854E+03  0.38343150854E+03  0.00000000000E+00 0.  1.
         25    1    1    2    0    0  0.16746223414E+03  0.15848454781E+03 -0.10675437174E+03  0.28316505371E+03  0.12500000000E+03 0.  0.
          3    1    1    2  501    0 -0.14395101872E+03 -0.17468595021E+03 -0.11733968526E+03  0.25496211234E+03  0.00000000000E+00 0. -1.
         -3    1    1    2    0  503 -0.23511215417E+02  0.16201402394E+02  0.85496731917E+02  0.90138525939E+02  0.00000000000E+00 0.  1.
<mgrwt>
<rscale>  4 0.25981627E+03</rscale>
<asrwt>0</asrwt>
<pdfrwt beam="1">  1       21 0.37666797E-01 0.25981627E+03</pdfrwt>
<pdfrwt beam="2">  1       21 0.58989463E-01 0.25981627E+03</pdfrwt>
<totfact> 0.17606690E+04</totfact>
</mgrwt>
</event>
<event>
 5    0  0.1972558E-002  0.2596484E+03  0.7546771E-02  0.1107355E+00
         21   -1    0    0  501  502  0.00000000000E+00  0.00000000000E+00  0.53937956451E+03  0.53937956451E+03  0.00000000000E+00 0.  1.
         21   -1    0    0  502  503 -0.00000000000E+00 -0.00000000000E+00 -0.67948022393E+03  0.67948022393E+03  0.00000000000E+00 0. -1.
         25    1    1    2    0    0 -0.85572603125E+02 -0.21391165282E+03 -0.60437133983E+03  0.65876443592E+03  0.12500000000E+03 0.  0.
          2    1    1    2  501    0 -0.63837640825E+02  0.62366923292E+02  0.21219697883E+03  0.23020085866E+03  0.00000000000E+00 0. -1.
         -2    1    1    2    0  503  0.14941024395E+03  0.15154472953E+03  0.25207370159E+03  0.32989449386E+03  0.00000000000E+00 0.  1.
<mgrwt>
<rscale>  4 0.25964835E+03</rscale>
<asrwt>0</asrwt>
<pdfrwt beam="1">  1       21 0.82981471E-01 0.25964835E+03</pdfrwt>
<pdfrwt beam="2">  1       21 0.10453542E+00 0.25964835E+03</pdfrwt>
<totfact> 0.88027020E+02</totfact>
</mgrwt>
</event>
<event>
 5    0  0.1972558E-002  0.6807726E+03  0.7546771E-02  0.9750691E-01
         21   -1    0    0  501  502  0.00000000000E+00  0.00000000000E+00  0.10104431480E+04  0.10104431480E+04  0.00000000000E+00 0. -1.
         21   -1    0    0  502  503 -0.00000000000E+00 -0.00000000000E+00 -0.15864131491E+04  0.15864131491E+04  0.00000000000E+00 0. -1.
         25    1    1    2    0    0  0.12624830202E+03 -0.62877162993E+03 -0.81103913777E+03  0.10414902205E+04  0.12500000000E+03 0.  0.
          3    1    1    2  501    0 -0.66447780295E+03  0.59256449001E+03 -0.13596475707E+03  0.90063857379E+03  0.00000000000E+00 0. -1.
         -3    1    1    2    0  503  0.53822950092E+03  0.36207139917E+02  0.37103389376E+03  0.65472750283E+03  0.00000000000E+00 0.  1.
<mgrwt>
<rscale>  4 0.68077258E+03</rscale>
<asrwt>0</asrwt>
<pdfrwt beam="1">  1       21 0.15545279E+00 0.68077258E+03</pdfrwt>
<pdfrwt beam="2">  1       21 0.24406356E+00 0.68077258E+03</pdfrwt>
<totfact> 0.12875176E+01</totfact>
</mgrwt>
</event>
<event>
 5    0  0.1972558E-002  0.2445945E+03  0.7546771E-02  0.1116769E+00
         21   -1    0    0  501  502  0.00000000000E+00  0.00000000000E+00  0.12105427489E+04  0.12105427489E+04  0.00000000000E+00 0.  1.
         21   -1    0    0  502  503 -0.00000000000E+00 -0.00000000000E+00 -0.55248542620E+02  0.55248542620E+02  0.00000000000E+00 0.  1.
         25    1    1    2    0    0  0.16862177257E+03  0.15132278619E+03  0.49386908899E+03  0.55755140110E+03  0.12500000000E+03 0.  0.
          1    1    1    2  501    0 -0.44904791881E+01 -0.42003407365E+02  0.23044210747E+03  0.23428191464E+03  0.00000000000E+00 0. -1.
         -1    1    1    2    0  503 -0.16413129338E+03 -0.10931937882E+03  0.43098300982E+03  0.47395797578E+03  0.00000000000E+00 0.  1.
<mgrwt>
<rscale>  4 0.24459445E+03</rscale>
<asrwt>0</asrwt>
<pdfrwt beam="1">  1       21 0.18623733E+00 0.24459445E+03</pdfrwt>
<pdfrwt beam="2">  1       21 0.84997767E-02 0.24459445E+03</pdfrwt>
<totfact> 0.17209599E+04</totfact>
</mgrwt>
</event>
<event>
 5    0  0.1972558E-002  0.2538482E+03  0.7546771E-02  0.1110897E+00
         21   -1    0    0  501  502  0.00000000000E+00  0.00000000000E+00  0.12204755070E+03  0.12204755070E+03  0.00000000000E+00 0. -1.
         21   -1    0    0  502  503 -0.00000000000E+00 -0.00000000000E+00 -0.92366546619E+03  0.92366546619E+03  0.00000000000E+00 0. -1.
         25    1    1    2    0    0  0.77453959968E+02  0.19310757121E+03 -0.19061282572E+03  0.30862258392E+03  0.12500000000E+03 0.  0.
          2    1    1    2  501    0  0.31040495795E+02  0.45350594785E+01  0.38443805128E+02  0.49618598291E+02  0.00000000000E+00 0.  1.
         -2    1    1    2    0  503 -0.10849445576E+03 -0.19764263069E+03 -0.64944889490E+03  0.68747183468E+03  0.00000000000E+00 0. -1.
<mgrwt>
<rscale>  4 0.25384822E+03</rscale>
<asrwt>0</asrwt>
<pdfrwt beam="1">  1       21 0.18776546E-01 0.25384822E+03</pdfrwt>
<pdfrwt beam="2">  1       21 0.14210238E+00 0.25384822E+03</pdfrwt>
<totfact> 0.85717696E+03</totfact>
</mgrwt>
</event>
<event>
 5    0  0.1972558E-002  0.2471408E+03  0.7546771E-02  0.1115125E+00
         21   -1    0    0  503  502  0.00000000000E+00  0.00000000000E+00  0.28100746972E+03  0.28100746972E+03  0.00000000000E+00 0. -1.
         21   -1    0    0  501  503 -0.00000000000E+00 -0.00000000000E+00 -0.26640324115E+03  0.26640324115E+03  0.00000000000E+00 0.  1.
         25    1    1    2    0    0  0.20032180199E+02 -0.22924625798E+03 -0.97513453999E+02  0.27944410667E+03  0.12500000000E+03 0.  0.
          4    1    1    2  501    0 -0.53824183496E+01  0.21848127454E+02 -0.12324950469E+02  0.25655710955E+02  0.00000000000E+00 0.  1.
         -4    1    1    2    0  502 -0.14649761850E+02  0.20739813053E+03  0.12444263304E+03  0.24231089325E+03  0.00000000000E+00 0. -1.
<mgrwt>
<rscale>  4 0.24714085E+03</rscale>
<asrwt>0</asrwt>
<pdfrwt beam="1">  1       21 0.43231918E-01 0.24714085E+03</pdfrwt>
<pdfrwt beam="2">  1       21 0.40985114E-01 0.24714085E+03</pdfrwt>
<totfact> 0.28691515E+04</totfact>
</mgrwt>
</event>
<event>
 5    0  0.1972558E-002  0.2916156E+03  0.7546771E-02  0.1089509E+00
         21   -1    0    0  501  502  0.00000000000E+00  0.00000000000E+00  0.14722090508E+04  0.14722090508E+04  0.00000000000E+00 0.  1.
         21   -1    0    0  502  503 -0.00000000000E+00 -0.00000000000E+00 -0.99311352744E+02  0.99311352744E+02  0.00000000000E+00 0. -1.
         25    1    1    2    0    0 -0.26344044102E+03 -0.37132986084E+01  0.16994276781E+03  0.33752066438E+03  0.12500000000E+03 0.  0.
          4    1    1    2  501    0  0.24138459815E+03 -0.13878923961E+02  0.98569352541E+03  0.10149142204E+04  0.00000000000E+00 0.  1.
         -4    1    1    2    0  503  0.22055842871E+02  0.17592222570E+02  0.21726140481E+03  0.21908551874E+03  0.00000000000E+00 0. -1.
<mgrwt>
<rscale>  4 0.29161559E+03</rscale>
<asrwt>0</asrwt>
<pdfrwt beam="1">  1       21 0.22649368E+00 0.29161559E+03</pdfrwt>
<pdfrwt beam="2">  1       21 0.15278671E-01 0.29161559E+03</pdfrwt>
<totfact> 0.32040344E+03</totfact>
</mgrwt>
</event>
<event>
 5    0  0.1972558E-002  0.2321967E+03  0.7546771E-02  0.1125103E+00
         21   -1    0    0  503  502  0.00000000000E+00  0.00000000000E+00  0.20080086596E+03  0.20080086596E+03  0.00000000000E+00 0.  1.
         21   -1    0    0  501  503 -0.00000000000E+00 -0.00000000000E+00 -0.30561789025E+03  0.30561789025E+03  0.00000000000E+00 0.  1.
         25    1    1    2    0    0 -0.19875668479E+03 -0.71989850638E+02 -0.12171378262E+03  0.27409123157E+03  0.12500000000E+03 0.  0.
          4    1    1    2  501    0  0.40288714325E+02 -0.12449299273E+02  0.30815713813E+02  0.52228093706E+02  0.00000000000E+00 0. -1.
         -4    1    1    2    0  502  0.15846797047E+03  0.84439149911E+02 -0.13918955479E+02  0.18009943094E+03  0.00000000000E+00 0.  1.
<mgrwt>
<rscale>  4 0.23219672E+03</rscale>
<asrwt>0</asrwt>
<pdfrwt beam="1">  1       21 0.30892441E-01 0.23219672E+03</pdfrwt>
<pdfrwt beam="2">  1       21 0.47018137E-01 0.23219672E+03</pdfrwt>
<totfact> 0.42747748E+04</totfact>
</mgrwt>
</event>
<event>
 5    0  0.1972558E-002  0.2591926E+03  0.7546771E-02  0.1107629E+00
         21   -1    0    0  501  502  0.00000000000E+00  0.00000000000E+00  0.13336166722E+04  0.13336166722E+04  0.00000000000E+00 0.  1.
         21   -1    0    0  502  503 -0.00000000000E+00 -0.00000000000E+00 -0.33942926657E+03  0.33942926657E+03  0.00000000000E+00 0. -1.
         25    1    1    2    0    0 -0.15662377220E+03 -0.17184959409E+03 -0.27040941034E+03  0.37790149273E+03  0.12500000000E+03 0.  0.
          1    1    1    2  501    0  0.50152558885E+02  0.12930156791E+03  0.95462046386E+03  0.96464211221E+03  0.00000000000E+00 0.  1.
         -1    1    1    2    0  503  0.10647121331E+03  0.42548026188E+02  0.30997635209E+03  0.33050233381E+03  0.00000000000E+00 0. -1.
<mgrwt>
<rscale>  4 0.25919261E+03</rscale>
<asrwt>0</asrwt>
<pdfrwt beam="1">  1       21 0.20517179E+00 0.25919261E+03</pdfrwt>
<pdfrwt beam="2">  1       21 0.52219888E-01 0.25919261E+03</pdfrwt>
<totfact> 0.40281517E+02</totfact>
</mgrwt>
</event>
<event>
 5    0  0.1972558E-002  0.4215335E+03  0.7546771E-02  0.1036568E+00
         21   -1    0    0  501  502  0.00000000000E+00  0.00000000000E+00  0.75810252831E+03  0.75810252831E+03  0.00000000000E+00 0.  1.
         21   -1    0    0  502  503 -0.00000000000E+00 -0.00000000000E+00 -0.26476779130E+03  0.26476779130E+03  0.00000000000E+00 0.  1.
         25    1    1    2    0    0  0.40405850381E+03  0.29887490664E+02  0.15978410648E+03  0.45311422101E+03  0.12500000000E+03 0.  0.
          3    1    1    2  501    0 -0.42203686230E+01 -0.20304822779E+02  0.10924923586E+03  0.11120023775E+03  0.00000000000E+00 0. -1.
         -3    1    1    2    0  503 -0.39983813518E+03 -0.95826678849E+01  0.22430139467E+03  0.45855586085E+03  0.00000000000E+00 0.  1.
<mgrwt>
<rscale>  4 0.42153346E+03</rscale>
<asrwt>0</asrwt>
<pdfrwt beam="1">  1       21 0.11663116E+00 0.42153346E+03</pdfrwt>
<pdfrwt beam="2">  1       21 0.40733507E-01 0.42153346E+03</pdfrwt>
<totfact> 0.28820204E+03</totfact>
</mgrwt>
</event>
<event>
 5    0  0.1972558E-002  0.4399726E+03  0.7546771E-02  0.1030755E+00
         21   -1    0    0  501  502  0.00000000000E+00  0.00000000000E+00  0.17494448419E+04  0.17494448419E+04  0.00000000000E+00 0. -1.
         21   -1    0    0  502  503 -0.00000000000E+00 -0.00000000000E+00 -0.22866262224E+03  0.22866262224E+03  0.00000000000E+00 0. -1.
         25    1    1    2    0    0 -0.32421063094E+03 -0.25082671775E+03  0.12914616104E+03  0.44758273700E+03  0.12500000000E+03 0.  0.
          3    1    1    2  501    0  0.35572509175E+03  0.27992949860E+03  0.67572507046E+03  0.81332972153E+03  0.00000000000E+00 0. -1.
         -3    1    1    2    0  503 -0.31514460804E+02 -0.29102780851E+02  0.71591098817E+03  0.71719500561E+03  0.00000000000E+00 0.  1.
<mgrwt>
<rscale>  4 0.43997261E+03</rscale>
<asrwt>0</asrwt>
<pdfrwt beam="1">  1       21 0.26914535E+00 0.43997261E+03</pdfrwt>
<pdfrwt beam="2">  1       21 0.35178866E-01 0.43997261E+03</pdfrwt>
<totfact> 0.32172225E+02</totfact>
</mgrwt>
</event>
<event>
 5    0  0.1972558E-002  0.3313755E+03  0.7546771E-02  0.1070530E+00
         21   -1    0    0  503  502  0.00000000000E+00  0.00000000000E+00  0.29917576803E+03  0.29917576803E+03  0.00000000000E+00 0. -1.
         21   -1    0    0  501  503 -0.00000000000E+00 -0.00000000000E+00 -0.63120428888E+03  0.63120428888E+03  0.00000000000E+00 0.  1.
         25    1    1    2    0    0 -0.24572968761E+03  0.20107903809E+03 -0.32756368781E+03  0.47301038942E+03  0.12500000000E+03 0.  0.
          2    1    1    2  501    0  0.34309134290E+01 -0.35033499450E+02  0.12973875583E+03  0.13442939416E+03  0.00000000000E+00 0.  1.
         -2    1    1    2    0  502  0.24229877418E+03 -0.16604553864E+03 -0.13420358887E+03  0.32294027333E+03  0.00000000000E+00 0. -1.
<mgrwt>
<rscale>  4 0.33137555E+03</rscale>
<asrwt>0</asrwt>
<pdfrwt beam="1">  1       21 0.46027041E-01 0.33137555E+03</pdfrwt>
<pdfrwt beam="2">  1       21 0.97108352E-01 0.33137555E+03</pdfrwt>
<totfact> 0.36444235E+03</totfact>
</mgrwt>
</event>
<event>
 5    0  0.1972558E-002  0.2419863E+03  0.7546771E-02  0.1118477E+00
         21   -1    0    0  501  502  0.00000000000E+00  0.00000000000E+00  0.55372274568E+03  0.55372274568E+03  0.00000000000E+00 0. -1.
         21   -1    0    0  502  503 -0.00000000000E+00 -0.00000000000E+00 -0.13652488217E+03  0.13652488217E+03  0.00000000000E+00 0.  1.
         25    1    1    2    0    0  0.19389553399E+03  0.73053879954E+02  0.32818418608E+02  0.24420154807E+03  0.12500000000E+03 0.  0.
          3    1    1    2  501    0 -0.17105743679E+03 -0.28558410527E+02  0.26607183688E+03  0.31760108923E+03  0.00000000000E+00 0. -1.
         -3    1    1    2    0  503 -0.22838097199E+02 -0.44495469428E+02  0.11830760802E+03  0.12844499055E+03  0.00000000000E+00 0.  1.
<mgrwt>
<rscale>  4 0.24198625E+03</rscale>
<asrwt>0</asrwt>
<pdfrwt beam="1">  1       21 0.85188113E-01 0.24198625E+03</pdfrwt>
<pdfrwt beam="2">  1       21 0.21003828E-01 0.24198625E+03</pdfrwt>
<totfact> 0.24445005E+04</totfact>
</mgrwt>
</event>
<event>
 5    0  0.1972558E-002  0.3493566E+03  0.7546771E-02  0.1062879E+00
         21   -1    0    0  501  502  0.00000000000E+00  0.00000000000E+00  0.24856775519E+03  0.24856775519E+03  0.00000000000E+00 0. -1.
         21   -1    0    0  502  503 -0.00000000000E+00 -0.00000000000E+00 -0.63687909115E+03  0.63687909115E+03  0.00000000000E+00 0. -1.
         25    1    1    2    0    0 -0.15893112935E+02 -0.32406436334E+03 -0.39595225911E+03  0.52694733524E+03  0.12500000000E+03 0.  0.
          2    1    1    2  501    0  0.38534810285E+02  0.32891062583E+03 -0.67649053460E+01  0.33122936967E+03  0.00000000000E+00 0. -1.
         -2    1    1    2    0  503 -0.22641697350E+02 -0.48462624986E+01  0.14405828497E+02  0.27270141433E+02  0.00000000000E+00 0.  1.
<mgrwt>
<rscale>  4 0.34935659E+03</rscale>
<asrwt>0</asrwt>
<pdfrwt beam="1">  1       21 0.38241194E-01 0.34935659E+03</pdfrwt>
<pdfrwt beam="2">  1       21 0.97981397E-01 0.34935659E+03</pdfrwt>
<totfact> 0.51839167E+03</totfact>
</mgrwt>
</event>
<event>
 5    0  0.1972558E-002  0.2578180E+03  0.7546771E-02  0.1108461E+00
         21   -1    0    0  501  502  0.00000000000E+00  0.00000000000E+00  0.46524518663E+02  0.46524518663E+02  0.00000000000E+00 0. -1.
         21   -1    0    0  502  503 -0.00000000000E+00 -0.00000000000E+00 -0.20414081964E+04  0.20414081964E+04  0.00000000000E+00 0.  1.
         25    1    1    2    0    0  0.15952173034E+03 -0.18446014264E+03 -0.11559981562E+04  0.11880359690E+04  0.12500000000E+03 0.  0.
          2    1    1    2  501    0 -0.19569593552E+03  0.91972205775E+02 -0.66941518865E+03  0.70347173405E+03  0.00000000000E+00 0. -1.
         -2    1    1    2    0  503  0.36174205177E+02  0.92487936869E+02 -0.16947033291E+03  0.19642501196E+03  0.00000000000E+00 0.  1.
<mgrwt>
<rscale>  4 0.25781799E+03</rscale>
<asrwt>0</asrwt>
<pdfrwt beam="1">  1       21 0.71576193E-02 0.25781799E+03</pdfrwt>
<pdfrwt beam="2">  1       21 0.31406275E+00 0.25781799E+03</pdfrwt>
<totfact> 0.38483194E+03</totfact>
</mgrwt>
</event>
<event>
 5    0  0.1972558E-002  0.2838072E+03  0.7546771E-02  0.1093806E+00
         21   -1    0    0  503  502  0.00000000000E+00  0.00000000000E+00  0.15826370673E+04  0.15826370673E+04  0.00000000000E+00 0. -1.
         21   -1    0    0  501  503 -0.00000000000E+00 -0.00000000000E+00 -0.62641342283E+02  0.62641342283E+02  0.00000000000E+00 0. -1.
         25    1    1    2    0    0 -0.23129566762E+03 -0.10331068442E+03  0.39873053493E+03  0.48865307004E+03  0.12500000000E+03 0.  0.
          3    1    1    2  501    0  0.96406280064E+02  0.11153700389E+03  0.63875697149E+03  0.65554949676E+03  0.00000000000E+00 0.  1.
         -3    1    1    2    0  502  0.13488938756E+03 -0.82263194664E+01  0.48250821857E+03  0.50107584276E+03  0.00000000000E+00 0. -1.
<mgrwt>
<rscale>  4 0.28347522E+03</rscale>
<asrwt>0</asrwt>
<pdfrwt beam="1">  1       21 0.24348260E+00 0.28380724E+03</pdfrwt>
<pdfrwt beam="2">  1       21 0.96371308E-02 0.28380724E+03</pdfrwt>
<totfact> 0.58324777E+03</totfact>
</mgrwt>
</event>
<event>
 5    0  0.1972558E-002  0.2402143E+03  0.7546771E-02  0.1119650E+00
         21   -1    0    0  501  502  0.00000000000E+00  0.00000000000E+00  0.13619382247E+04  0.13619382247E+04  0.00000000000E+00 0. -1.
         21   -1    0    0  502  503 -0.00000000000E+00 -0.00000000000E+00 -0.82545889563E+02  0.82545889563E+02  0.00000000000E+00 0.  1.
         25    1    1    2    0    0 -0.20512455535E+03 -0.13506580718E+01  0.12417368606E+03  0.27041082041E+03  0.12500000000E+03 0.  0.
          1    1    1    2  501    0  0.46714615514E+02 -0.14116657492E+02  0.21416712996E+03  0.21965676606E+03  0.00000000000E+00 0. -1.
         -1    1    1    2    0  503  0.15840993983E+03  0.15467315564E+02  0.94105151916E+03  0.95441652784E+03  0.00000000000E+00 0.  1.
<mgrwt>
<rscale>  4 0.24021429E+03</rscale>
<asrwt>0</asrwt>
<pdfrwt beam="1">  1       21 0.20952894E+00 0.24021429E+03</pdfrwt>
<pdfrwt beam="2">  1       21 0.12699369E-01 0.24021429E+03</pdfrwt>
<totfact> 0.59494822E+03</totfact>
</mgrwt>
</event>
