<event>
 5    0  0.1911311E+001  0.3559082E+03  0.7546771E-02  0.1060216E+00
         21   -1    0    0  502  501  0.00000000000E+00  0.00000000000E+00  0.23595867459E+03  0.23595867459E+03  0.00000000000E+00 0. -1.
         21   -1    0    0  504  502 -0.00000000000E+00 -0.00000000000E+00 -0.14483927794E+04  0.14483927794E+04  0.00000000000E+00 0. -1.
         25    1    1    2    0    0  0.14895225355E+03 -0.46273552168E+03 -0.38043520824E+03  0.62981496054E+03  0.12500000000E+03 0.  0.
         21    1    1    2  503  501 -0.26830960730E+01  0.27595034091E+03 -0.11439654238E+03  0.29873459552E+03  0.00000000000E+00 0. -1.
         21    1    1    2  504  503 -0.14626915747E+03  0.18678518077E+03 -0.71760235420E+03  0.75580189795E+03  0.00000000000E+00 0. -1.
<mgrwt>
<rscale>  4 0.35590822E+03</rscale>
<asrwt>0</asrwt>
<pdfrwt beam="1">  1       21 0.36301335E-01 0.35590822E+03</pdfrwt>
<pdfrwt beam="2">  1       21 0.22282966E+00 0.35590822E+03</pdfrwt>
<totfact> 0.61206243E+02</totfact>
</mgrwt>
</event>
<event>
 5    0  0.1911311E+001  0.2390796E+03  0.7546771E-02  0.1120407E+00
         21   -1    0    0  502  501  0.00000000000E+00  0.00000000000E+00  0.63551535386E+03  0.63551535386E+03  0.00000000000E+00 0. -1.
         21   -1    0    0  504  502 -0.00000000000E+00 -0.00000000000E+00 -0.13761062239E+03  0.13761062239E+03  0.00000000000E+00 0. -1.
         25    1    1    2    0    0 -0.85248609008E+01 -0.25510610332E+03  0.29934979457E+03  0.41277971936E+03  0.12500000000E+03 0.  0.
         21    1    1    2  503  501 -0.54790491055E+02  0.78767783876E+02  0.12838172505E+03  0.16027547852E+03  0.00000000000E+00 0. -1.
         21    1    1    2  504  503  0.63315351956E+02  0.17633831944E+03  0.70173211853E+02  0.20007077838E+03  0.00000000000E+00 0. -1.
<mgrwt>
<rscale>  4 0.23907961E+03</rscale>
<asrwt>0</asrwt>
<pdfrwt beam="1">  1       21 0.97771591E-01 0.23907961E+03</pdfrwt>
<pdfrwt beam="2">  1       21 0.21170865E-01 0.23907961E+03</pdfrwt>
<totfact> 0.17480000E+04</totfact>
</mgrwt>
</event>
<event>
 5    0  0.1911311E+001  0.1971132E+03  0.7546771E-02  0.1152198E+00
         21   -1    0    0  502  501  0.00000000000E+00  0.00000000000E+00  0.77894678015E+03  0.77894678015E+03  0.00000000000E+00 0.  1.
         21   -1    0    0  504  502 -0.00000000000E+00 -0.00000000000E+00 -0.22687330252E+03  0.22687330252E+03  0.00000000000E+00 0.  1.
         25    1    1    2    0    0  0.20715552630E+03 -0.68892347957E+02  0.21860293150E+02  0.25251225733E+03  0.12500000000E+03 0.  0.
         21    1    1    2  503  501 -0.14170001575E+03  0.40899636370E+02  0.62080933607E+03  0.63808769496E+03  0.00000000000E+00 0.  1.
         21    1    1    2  504  503 -0.65455510550E+02  0.27992711587E+02 -0.90596151578E+02  0.11522013038E+03  0.00000000000E+00 0.  1.
<mgrwt>
<rscale>  4 0.19711324E+03</rscale>
<asrwt>0</asrwt>
<pdfrwt beam="1">  1       21 0.11983796E+00 0.19711324E+03</pdfrwt>
<pdfrwt beam="2">  1       21 0.34903585E-01 0.19711324E+03</pdfrwt>
<totfact> 0.41771844E+03</totfact>
</mgrwt>
</event>
