<event>
 5    0  0.1856407E+000  0.2431120E+03  0.7546771E-02  0.1117737E+00
         21   -1    0    0  502  501  0.00000000000E+00  0.00000000000E+00  0.19780612373E+04  0.19780612373E+04  0.00000000000E+00 0.  1.
         21   -1    0    0  503  502 -0.00000000000E+00 -0.00000000000E+00 -0.55356694517E+02  0.55356694517E+02  0.00000000000E+00 0.  1.
         25    1    1    2    0    0  0.22668789017E+02  0.21680011665E+03  0.15664882978E+04  0.15865140250E+04  0.12500000000E+03 0.  0.
         21    1    1    2  503  504  0.25167678900E+02 -0.18750569574E+03  0.33901776125E+03  0.38823297186E+03  0.00000000000E+00 0.  1.
         21    1    1    2  504  501 -0.47836467917E+02 -0.29294420903E+02  0.17198483737E+02  0.58670934897E+02  0.00000000000E+00 0.  1.
<mgrwt>
<rscale>  4 0.24311199E+03</rscale>
<asrwt>0</asrwt>
<pdfrwt beam="1">  1       21 0.30431706E+00 0.24311199E+03</pdfrwt>
<pdfrwt beam="2">  1       21 0.85164161E-02 0.24311199E+03</pdfrwt>
<totfact> 0.32827162E+03</totfact>
</mgrwt>
</event>
<event>
 5    0  0.2183550E+000  0.2429583E+03  0.7546771E-02  0.1117838E+00
         21   -1    0    0  502  501  0.00000000000E+00  0.00000000000E+00  0.24142028073E+04  0.24142028073E+04  0.00000000000E+00 0. -1.
         21   -1    0    0  503  502 -0.00000000000E+00 -0.00000000000E+00 -0.48273756428E+02  0.48273756428E+02  0.00000000000E+00 0. -1.
         25    1    1    2    0    0  0.21260456710E+03 -0.76499583572E+00  0.20348643762E+04  0.20497559164E+04  0.12500000000E+03 0.  0.
         21    1    1    2  503  504 -0.19342353814E+03 -0.12924354631E+02  0.33667517078E+03  0.38849694294E+03  0.00000000000E+00 0. -1.
         21    1    1    2  504  501 -0.19181028959E+02  0.13689350466E+02 -0.56104961291E+01  0.24223704401E+02  0.00000000000E+00 0. -1.
<mgrwt>
<rscale>  4 0.24295830E+03</rscale>
<asrwt>0</asrwt>
<pdfrwt beam="1">  1       21 0.37141572E+00 0.24295830E+03</pdfrwt>
<pdfrwt beam="2">  1       21 0.74267336E-02 0.24295830E+03</pdfrwt>
<totfact> 0.16683272E+03</totfact>
</mgrwt>
</event>
<event>
 5    0  0.1856407E+000  0.4457291E+03  0.7546771E-02  0.1029003E+00
         21   -1    0    0  502  501  0.00000000000E+00  0.00000000000E+00  0.36251608549E+03  0.36251608549E+03  0.00000000000E+00 0.  1.
         21   -1    0    0  503  502 -0.00000000000E+00 -0.00000000000E+00 -0.56820070023E+03  0.56820070023E+03  0.00000000000E+00 0.  1.
         25    1    1    2    0    0  0.42573815535E+03 -0.42384670334E+02  0.17818578844E+02  0.44608512523E+03  0.12500000000E+03 0.  0.
         21    1    1    2  503  504 -0.40069920141E+03  0.46551348609E+02 -0.20094251439E+03  0.45067146810E+03  0.00000000000E+00 0.  1.
         21    1    1    2  504  501 -0.25038953936E+02 -0.41666782743E+01 -0.22560679195E+02  0.33960192399E+02  0.00000000000E+00 0.  1.
<mgrwt>
<rscale>  4 0.44572911E+03</rscale>
<asrwt>0</asrwt>
<pdfrwt beam="1">  1       21 0.55771706E-01 0.44572911E+03</pdfrwt>
<pdfrwt beam="2">  1       21 0.87415492E-01 0.44572911E+03</pdfrwt>
<totfact> 0.29656682E+03</totfact>
</mgrwt>
</event>
<event>
 5    0  0.1856407E+000  0.2936229E+03  0.7546771E-02  0.1088473E+00
         21   -1    0    0  502  501  0.00000000000E+00  0.00000000000E+00  0.13973381752E+03  0.13973381752E+03  0.00000000000E+00 0. -1.
         21   -1    0    0  503  502 -0.00000000000E+00 -0.00000000000E+00 -0.15662547888E+04  0.15662547888E+04  0.00000000000E+00 0. -1.
         25    1    1    2    0    0 -0.25391569372E+02  0.26447060138E+03 -0.46889826219E+02  0.29734338162E+03  0.12500000000E+03 0.  0.
         21    1    1    2  503  504  0.55655078445E+02 -0.22406080026E+03 -0.10427427658E+04  0.10679949465E+04  0.00000000000E+00 0. -1.
         21    1    1    2  504  501 -0.30263509073E+02 -0.40409801120E+02 -0.33688837927E+03  0.34065027828E+03  0.00000000000E+00 0. -1.
<mgrwt>
<rscale>  4 0.29362294E+03</rscale>
<asrwt>0</asrwt>
<pdfrwt beam="1">  1       21 0.21497511E-01 0.29362294E+03</pdfrwt>
<pdfrwt beam="2">  1       21 0.24096227E+00 0.29362294E+03</pdfrwt>
<totfact> 0.13777088E+03</totfact>
</mgrwt>
</event>
<event>
 5    0  0.1856407E+000  0.2663759E+03  0.7546771E-02  0.1103372E+00
         21   -1    0    0  502  501  0.00000000000E+00  0.00000000000E+00  0.23487720378E+03  0.23487720378E+03  0.00000000000E+00 0.  1.
         21   -1    0    0  503  502 -0.00000000000E+00 -0.00000000000E+00 -0.20697177109E+04  0.20697177109E+04  0.00000000000E+00 0.  1.
         25    1    1    2    0    0 -0.22570440267E+03 -0.66246947589E+02  0.14979045901E+03  0.30560320198E+03  0.12500000000E+03 0.  0.
         21    1    1    2  503  504  0.20436282129E+03  0.45872176161E+02 -0.17094173053E+04  0.17222009009E+04  0.00000000000E+00 0.  1.
         21    1    1    2  504  501  0.21341581377E+02  0.20374771428E+02 -0.27521366085E+03  0.27679081185E+03  0.00000000000E+00 0. -1.
<mgrwt>
<rscale>  4 0.26637593E+03</rscale>
<asrwt>0</asrwt>
<pdfrwt beam="1">  1       21 0.36134957E-01 0.26637593E+03</pdfrwt>
<pdfrwt beam="2">  1       21 0.31841809E+00 0.26637593E+03</pdfrwt>
<totfact> 0.17862445E+02</totfact>
</mgrwt>
</event>
<event>
 5    0  0.1856407E+000  0.3511787E+03  0.7546771E-02  0.1062132E+00
         21   -1    0    0  502  501  0.00000000000E+00  0.00000000000E+00  0.22661239446E+04  0.22661239446E+04  0.00000000000E+00 0.  1.
         21   -1    0    0  503  502 -0.00000000000E+00 -0.00000000000E+00 -0.64656378510E+02  0.64656378510E+02  0.00000000000E+00 0.  1.
         25    1    1    2    0    0 -0.15864956987E+03  0.30331384861E+03  0.93098519723E+03  0.99976367919E+03  0.12500000000E+03 0.  0.
         21    1    1    2  503  504  0.12309900262E+03 -0.29135661659E+03  0.81860689778E+03  0.87758720112E+03  0.00000000000E+00 0.  1.
         21    1    1    2  504  501  0.35550567247E+02 -0.11957232010E+02  0.45187547105E+03  0.45342944276E+03  0.00000000000E+00 0.  1.
<mgrwt>
<rscale>  4 0.35117869E+03</rscale>
<asrwt>0</asrwt>
<pdfrwt beam="1">  1       21 0.34863439E+00 0.35117869E+03</pdfrwt>
<pdfrwt beam="2">  1       21 0.99471369E-02 0.35117869E+03</pdfrwt>
<totfact> 0.12405194E+03</totfact>
</mgrwt>
</event>
<event>
 5    0  0.1856407E+000  0.3798787E+03  0.7546771E-02  0.1050979E+00
         21   -1    0    0  502  501  0.00000000000E+00  0.00000000000E+00  0.11991976764E+03  0.11991976764E+03  0.00000000000E+00 0. -1.
         21   -1    0    0  503  502 -0.00000000000E+00 -0.00000000000E+00 -0.12507196138E+04  0.12507196138E+04  0.00000000000E+00 0. -1.
         25    1    1    2    0    0 -0.35142101677E+03 -0.72014495531E+02 -0.41476083451E+03  0.56243610165E+03  0.12500000000E+03 0.  0.
         21    1    1    2  503  504  0.21721982634E+03  0.97669770037E+02 -0.45240075437E+03  0.51126341498E+03  0.00000000000E+00 0. -1.
         21    1    1    2  504  501  0.13420119043E+03 -0.25655274506E+02 -0.26363825726E+03  0.29693986481E+03  0.00000000000E+00 0.  1.
<mgrwt>
<rscale>  4 0.37987869E+03</rscale>
<asrwt>0</asrwt>
<pdfrwt beam="1">  1       21 0.18449195E-01 0.37987869E+03</pdfrwt>
<pdfrwt beam="2">  1       21 0.19241840E+00 0.37987869E+03</pdfrwt>
<totfact> 0.35597687E+03</totfact>
</mgrwt>
</event>
<event>
 5    0  0.1856407E+000  0.3370546E+03  0.7546771E-02  0.1068057E+00
         21   -1    0    0  502  501  0.00000000000E+00  0.00000000000E+00  0.30501723468E+03  0.30501723468E+03  0.00000000000E+00 0. -1.
         21   -1    0    0  503  502 -0.00000000000E+00 -0.00000000000E+00 -0.77021240245E+03  0.77021240245E+03  0.00000000000E+00 0. -1.
         25    1    1    2    0    0  0.15259684998E+03  0.29808995051E+03  0.13412565893E+03  0.38178280422E+03  0.12500000000E+03 0.  0.
         21    1    1    2  503  504 -0.13555690586E+03 -0.27855364013E+03 -0.58908802995E+03  0.66557682666E+03  0.00000000000E+00 0. -1.
         21    1    1    2  504  501 -0.17039944125E+02 -0.19536310373E+02 -0.10232796742E+02  0.27870006242E+02  0.00000000000E+00 0.  1.
<mgrwt>
<rscale>  4 0.33705458E+03</rscale>
<asrwt>0</asrwt>
<pdfrwt beam="1">  1       21 0.46925730E-01 0.33705458E+03</pdfrwt>
<pdfrwt beam="2">  1       21 0.11849421E+00 0.33705458E+03</pdfrwt>
<totfact> 0.21441274E+03</totfact>
</mgrwt>
</event>
<event>
 5    0  0.1856407E+000  0.2474298E+03  0.7546771E-02  0.1114940E+00
         21   -1    0    0  502  501  0.00000000000E+00  0.00000000000E+00  0.11116613607E+04  0.11116613607E+04  0.00000000000E+00 0.  1.
         21   -1    0    0  503  502 -0.00000000000E+00 -0.00000000000E+00 -0.10133431141E+03  0.10133431141E+03  0.00000000000E+00 0.  1.
         25    1    1    2    0    0  0.18271178786E+03 -0.11051198493E+03  0.93622636544E+03  0.96837043717E+03  0.12500000000E+03 0.  0.
         21    1    1    2  503  504 -0.72854250232E+02  0.50982285767E+02  0.79894597566E+02  0.11954113083E+03  0.00000000000E+00 0.  1.
         21    1    1    2  504  501 -0.10985753762E+03  0.59529699165E+02 -0.57939137537E+01  0.12508410407E+03  0.00000000000E+00 0.  1.
<mgrwt>
<rscale>  4 0.24742978E+03</rscale>
<asrwt>0</asrwt>
<pdfrwt beam="1">  1       21 0.17102482E+00 0.24742978E+03</pdfrwt>
<pdfrwt beam="2">  1       21 0.15589895E-01 0.24742978E+03</pdfrwt>
<totfact> 0.73659425E+03</totfact>
</mgrwt>
</event>
<event>
 5    0  0.1856407E+000  0.2583175E+03  0.7546771E-02  0.1108158E+00
         21   -1    0    0  502  501  0.00000000000E+00  0.00000000000E+00  0.50706602518E+03  0.50706602518E+03  0.00000000000E+00 0. -1.
         21   -1    0    0  503  502 -0.00000000000E+00 -0.00000000000E+00 -0.18964195687E+03  0.18964195687E+03  0.00000000000E+00 0. -1.
         25    1    1    2    0    0 -0.61332835764E+02 -0.21498104999E+03 -0.82069035315E+01  0.25626338377E+03  0.12500000000E+03 0.  0.
         21    1    1    2  503  504  0.11926040000E+03  0.20494128037E+03  0.24870298637E+03  0.34362355396E+03  0.00000000000E+00 0. -1.
         21    1    1    2  504  501 -0.57927564235E+02  0.10039769620E+02  0.76927985478E+02  0.96821044314E+02  0.00000000000E+00 0. -1.
<mgrwt>
<rscale>  4 0.25831752E+03</rscale>
<asrwt>0</asrwt>
<pdfrwt beam="1">  1       21 0.78010157E-01 0.25831752E+03</pdfrwt>
<pdfrwt beam="2">  1       21 0.29175686E-01 0.25831752E+03</pdfrwt>
<totfact> 0.15778107E+04</totfact>
</mgrwt>
</event>
<event>
 5    0  0.1856407E+000  0.2857279E+03  0.7546771E-02  0.1092601E+00
         21   -1    0    0  502  501  0.00000000000E+00  0.00000000000E+00  0.55499871052E+03  0.55499871052E+03  0.00000000000E+00 0.  1.
         21   -1    0    0  503  502 -0.00000000000E+00 -0.00000000000E+00 -0.71865207209E+03  0.71865207209E+03  0.00000000000E+00 0.  1.
         25    1    1    2    0    0  0.12216639937E+03  0.22340523716E+03  0.47253000432E+03  0.55112987046E+03  0.12500000000E+03 0.  0.
         21    1    1    2  503  504  0.51443161236E+01  0.32574402384E+02 -0.18833259335E+03  0.19119812080E+03  0.00000000000E+00 0. -1.
         21    1    1    2  504  501 -0.12731071550E+03 -0.25597963955E+03 -0.44785077254E+03  0.53132279135E+03  0.00000000000E+00 0.  1.
<mgrwt>
<rscale>  4 0.28572791E+03</rscale>
<asrwt>0</asrwt>
<pdfrwt beam="1">  1       21 0.85384417E-01 0.28572791E+03</pdfrwt>
<pdfrwt beam="2">  1       21 0.11056186E+00 0.28572791E+03</pdfrwt>
<totfact> 0.70516656E+02</totfact>
</mgrwt>
</event>
<event>
 5    0  0.1856407E+000  0.3332852E+03  0.7546771E-02  0.1069692E+00
         21   -1    0    0  502  501  0.00000000000E+00  0.00000000000E+00  0.63816075994E+02  0.63816075994E+02  0.00000000000E+00 0. -1.
         21   -1    0    0  503  502 -0.00000000000E+00 -0.00000000000E+00 -0.16426725433E+04  0.16426725433E+04  0.00000000000E+00 0. -1.
         25    1    1    2    0    0 -0.25890820062E+03  0.16858400388E+03 -0.81595175229E+03  0.88139451143E+03  0.12500000000E+03 0.  0.
         21    1    1    2  503  504  0.49872375887E+02 -0.44349938559E+02 -0.11366086196E+03  0.13180653424E+03  0.00000000000E+00 0. -1.
         21    1    1    2  504  501  0.20903582473E+03 -0.12423406532E+03 -0.64924385302E+03  0.69328757359E+03  0.00000000000E+00 0. -1.
<mgrwt>
<rscale>  4 0.33328520E+03</rscale>
<asrwt>0</asrwt>
<pdfrwt beam="1">  1       21 0.98178589E-02 0.33328520E+03</pdfrwt>
<pdfrwt beam="2">  1       21 0.25271882E+00 0.33328520E+03</pdfrwt>
<totfact> 0.48082633E+03</totfact>
</mgrwt>
</event>
<event>
 5    0  0.1856407E+000  0.3401305E+03  0.7546771E-02  0.1066740E+00
         21   -1    0    0  502  501  0.00000000000E+00  0.00000000000E+00  0.18894342062E+04  0.18894342062E+04  0.00000000000E+00 0.  1.
         21   -1    0    0  503  502 -0.00000000000E+00 -0.00000000000E+00 -0.58238263522E+02  0.58238263522E+02  0.00000000000E+00 0.  1.
         25    1    1    2    0    0  0.27454449198E+03 -0.15712767346E+03  0.88028110623E+03  0.94370737511E+03  0.12500000000E+03 0.  0.
         21    1    1    2  503  504 -0.23583763232E+03  0.11682126248E+03  0.72666986254E+03  0.77286200923E+03  0.00000000000E+00 0.  1.
         21    1    1    2  504  501 -0.38706859658E+02  0.40306410986E+02  0.22424497390E+03  0.23110308538E+03  0.00000000000E+00 0.  1.
<mgrwt>
<rscale>  4 0.34013054E+03</rscale>
<asrwt>0</asrwt>
<pdfrwt beam="1">  1       21 0.29068214E+00 0.34013054E+03</pdfrwt>
<pdfrwt beam="2">  1       21 0.89597343E-02 0.34013054E+03</pdfrwt>
<totfact> 0.33430314E+03</totfact>
</mgrwt>
</event>
