<event>
 5    0  0.2349231E+000  0.4343944E+03  0.7546771E-02  0.1032481E+00
         21   -1    0    0  502  501  0.00000000000E+00  0.00000000000E+00  0.41888657576E+03  0.41888657576E+03  0.00000000000E+00 0. -1.
         21   -1    0    0  503  502 -0.00000000000E+00 -0.00000000000E+00 -0.15142931802E+03  0.15142931802E+03  0.00000000000E+00 0. -1.
         25    1    1    2    0    0  0.58867181227E+02  0.19246884122E+03  0.16275008001E+03  0.28744075635E+03  0.12500000000E+03 0.  0.
         21    1    1    2  503  504 -0.56246994305E+02 -0.16791207759E+03  0.18472900108E+01  0.17709207393E+03  0.00000000000E+00 0. -1.
         21    1    1    2  504  501 -0.26201869218E+01 -0.24556763635E+02  0.10285988773E+03  0.10578306350E+03  0.00000000000E+00 0. -1.
<mgrwt>
<rscale>  4 0.43439436E+03</rscale>
<asrwt>0</asrwt>
<pdfrwt beam="1">  1       21 0.64444088E-01 0.43439436E+03</pdfrwt>
<pdfrwt beam="2">  1       21 0.23296818E-01 0.43439436E+03</pdfrwt>
<totfact> 0.35293827E+04</totfact>
</mgrwt>
</event>
<event>
 5    0  0.2349231E+000  0.3171645E+03  0.7546771E-02  0.1076962E+00
         21   -1    0    0  504  501  0.00000000000E+00  0.00000000000E+00  0.19493634764E+03  0.19493634764E+03  0.00000000000E+00 0. -1.
         21   -1    0    0  501  502 -0.00000000000E+00 -0.00000000000E+00 -0.88399305386E+03  0.88399305386E+03  0.00000000000E+00 0.  1.
         25    1    1    2    0    0 -0.19656041958E+03  0.50407158203E+02 -0.61781975386E+03  0.66219568740E+03  0.12500000000E+03 0.  0.
         21    1    1    2  503  502  0.53701648524E+02  0.57467398420E+02 -0.18746644901E+03  0.20329790565E+03  0.00000000000E+00 0. -1.
         21    1    1    2  504  503  0.14285877106E+03 -0.10787455662E+03  0.11622949666E+03  0.21343580845E+03  0.00000000000E+00 0. -1.
<mgrwt>
<rscale>  4 0.31716445E+03</rscale>
<asrwt>0</asrwt>
<pdfrwt beam="1">  1       21 0.29990208E-01 0.31716445E+03</pdfrwt>
<pdfrwt beam="2">  1       21 0.13599893E+00 0.31716445E+03</pdfrwt>
<totfact> 0.37802505E+03</totfact>
</mgrwt>
</event>
<event>
 5    0  0.2349231E+000  0.7824593E+03  0.7546771E-02  0.9585759E-01
         21   -1    0    0  503  501  0.00000000000E+00  0.00000000000E+00  0.47741428139E+03  0.47741428139E+03  0.00000000000E+00 0.  1.
         21   -1    0    0  504  502 -0.00000000000E+00 -0.00000000000E+00 -0.25085991420E+04  0.25085991420E+04  0.00000000000E+00 0. -1.
         25    1    1    2    0    0 -0.38747522084E+02 -0.25800807732E+03 -0.35570159333E+03  0.45849554188E+03  0.12500000000E+03 0.  0.
         21    1    1    2  503  502 -0.15763941649E+03  0.24464612518E+03 -0.20680165567E+04  0.20883951712E+04  0.00000000000E+00 0. -1.
         21    1    1    2  504  501  0.19638693857E+03  0.13361952144E+02  0.39253328943E+03  0.43912271032E+03  0.00000000000E+00 0.  1.
<mgrwt>
<rscale>  4 0.78245935E+03</rscale>
<asrwt>0</asrwt>
<pdfrwt beam="1">  1       21 0.73448352E-01 0.78245935E+03</pdfrwt>
<pdfrwt beam="2">  1       21 0.38593833E+00 0.78245935E+03</pdfrwt>
<totfact> 0.10602453E+01</totfact>
</mgrwt>
</event>
