<event>
 5    0  0.4169559E+000  0.3364728E+03  0.7546771E-02  0.1068308E+00
         21   -1    0    0  502  501  0.00000000000E+00  0.00000000000E+00  0.21839825610E+03  0.21839825610E+03  0.00000000000E+00 0.  1.
         21   -1    0    0  503  502 -0.00000000000E+00 -0.00000000000E+00 -0.67761504464E+03  0.67761504464E+03  0.00000000000E+00 0.  1.
         25    1    1    2    0    0 -0.26917451720E+03  0.17599230930E+03 -0.41140857581E+02  0.34748494040E+03  0.12500000000E+03 0.  0.
         21    1    1    2  503  504  0.14881860059E+02 -0.24009857181E+02 -0.13794290365E+03  0.14080549587E+03  0.00000000000E+00 0.  1.
         21    1    1    2  504  501  0.25429265714E+03 -0.15198245212E+03 -0.28013302731E+03  0.40772286447E+03  0.00000000000E+00 0.  1.
<mgrwt>
<rscale>  4 0.33647276E+03</rscale>
<asrwt>0</asrwt>
<pdfrwt beam="1">  1       21 0.33599732E-01 0.33647276E+03</pdfrwt>
<pdfrwt beam="2">  1       21 0.10424847E+00 0.33647276E+03</pdfrwt>
<totfact> 0.58256442E+03</totfact>
</mgrwt>
</event>
<event>
 5    0  0.1856407E+000  0.3332224E+03  0.7546771E-02  0.1069720E+00
         21   -1    0    0  502  501  0.00000000000E+00  0.00000000000E+00  0.14383284778E+03  0.14383284778E+03  0.00000000000E+00 0. -1.
         21   -1    0    0  503  502 -0.00000000000E+00 -0.00000000000E+00 -0.14995689478E+04  0.14995689478E+04  0.00000000000E+00 0. -1.
         25    1    1    2    0    0  0.83083962102E+02 -0.29820655422E+03 -0.10696968540E+03  0.35056755031E+03  0.12500000000E+03 0.  0.
         21    1    1    2  503  504 -0.10748220201E+03  0.28685021077E+03 -0.11763152804E+04  0.12155464228E+04  0.00000000000E+00 0. -1.
         21    1    1    2  504  501  0.24398239912E+02  0.11356343448E+02 -0.72451134233E+02  0.77287822450E+02  0.00000000000E+00 0. -1.
<mgrwt>
<rscale>  4 0.33322243E+03</rscale>
<asrwt>0</asrwt>
<pdfrwt beam="1">  1       21 0.22128130E-01 0.33322243E+03</pdfrwt>
<pdfrwt beam="2">  1       21 0.23070292E+00 0.33322243E+03</pdfrwt>
<totfact> 0.14658696E+03</totfact>
</mgrwt>
</event>
<event>
 5    0  0.1856407E+000  0.3701879E+03  0.7546771E-02  0.1054621E+00
         21   -1    0    0  502  501  0.00000000000E+00  0.00000000000E+00  0.66010749374E+03  0.66010749374E+03  0.00000000000E+00 0.  1.
         21   -1    0    0  503  502 -0.00000000000E+00 -0.00000000000E+00 -0.97131990517E+03  0.97131990517E+03  0.00000000000E+00 0. -1.
         25    1    1    2    0    0  0.16105601663E+03 -0.30899034033E+03  0.57084507150E+03  0.68036987483E+03  0.12500000000E+03 0.  0.
         21    1    1    2  503  504 -0.15386701527E+03  0.26325099756E+03 -0.70640228893E+03  0.76940258637E+03  0.00000000000E+00 0. -1.
         21    1    1    2  504  501 -0.71890013661E+01  0.45739342777E+02 -0.17565519400E+03  0.18165493772E+03  0.00000000000E+00 0.  1.
<mgrwt>
<rscale>  4 0.37018789E+03</rscale>
<asrwt>0</asrwt>
<pdfrwt beam="1">  1       21 0.10155500E+00 0.37018789E+03</pdfrwt>
<pdfrwt beam="2">  1       21 0.14943383E+00 0.37018789E+03</pdfrwt>
<totfact> 0.20399747E+02</totfact>
</mgrwt>
</event>
<event>
 5    0  0.1856407E+000  0.2898425E+03  0.7546771E-02  0.1090431E+00
         21   -1    0    0  502  501  0.00000000000E+00  0.00000000000E+00  0.60632980451E+02  0.60632980451E+02  0.00000000000E+00 0.  1.
         21   -1    0    0  503  502 -0.00000000000E+00 -0.00000000000E+00 -0.12952469127E+04  0.12952469127E+04  0.00000000000E+00 0.  1.
         25    1    1    2    0    0  0.57805537514E+02 -0.25503374166E+03 -0.66261589244E+03  0.72323475474E+03  0.12500000000E+03 0.  0.
         21    1    1    2  503  504 -0.50752187588E+02  0.19320082970E+03 -0.49402030948E+03  0.53287748247E+03  0.00000000000E+00 0.  1.
         21    1    1    2  504  501 -0.70533499263E+01  0.61832911964E+02 -0.77977730367E+02  0.99767655983E+02  0.00000000000E+00 0.  1.
<mgrwt>
<rscale>  4 0.28984253E+03</rscale>
<asrwt>0</asrwt>
<pdfrwt beam="1">  1       21 0.93281519E-02 0.28984253E+03</pdfrwt>
<pdfrwt beam="2">  1       21 0.19926873E+00 0.28984253E+03</pdfrwt>
<totfact> 0.11652059E+04</totfact>
</mgrwt>
</event>
<event>
 5    0  0.1856407E+000  0.2394583E+03  0.7546771E-02  0.1120154E+00
         21   -1    0    0  502  501  0.00000000000E+00  0.00000000000E+00  0.94853848544E+02  0.94853848544E+02  0.00000000000E+00 0. -1.
         21   -1    0    0  503  502 -0.00000000000E+00 -0.00000000000E+00 -0.56763031858E+03  0.56763031858E+03  0.00000000000E+00 0. -1.
         25    1    1    2    0    0 -0.18218392404E+03 -0.92327156627E+02 -0.23745256448E+03  0.33722990141E+03  0.12500000000E+03 0.  0.
         21    1    1    2  503  504  0.57048832869E+02  0.69525472413E+02 -0.57952660498E+02  0.10699005330E+03  0.00000000000E+00 0. -1.
         21    1    1    2  504  501  0.12513509117E+03  0.22801684214E+02 -0.17737124506E+03  0.21826421242E+03  0.00000000000E+00 0. -1.
<mgrwt>
<rscale>  4 0.23945832E+03</rscale>
<asrwt>0</asrwt>
<pdfrwt beam="1">  1       21 0.14592899E-01 0.23945832E+03</pdfrwt>
<pdfrwt beam="2">  1       21 0.87327744E-01 0.23945832E+03</pdfrwt>
<totfact> 0.45415704E+04</totfact>
</mgrwt>
</event>
<event>
 5    0  0.1856407E+000  0.2516928E+03  0.7546771E-02  0.1112240E+00
         21   -1    0    0  502  501  0.00000000000E+00  0.00000000000E+00  0.14166102887E+03  0.14166102887E+03  0.00000000000E+00 0. -1.
         21   -1    0    0  503  502 -0.00000000000E+00 -0.00000000000E+00 -0.11173366659E+04  0.11173366659E+04  0.00000000000E+00 0. -1.
         25    1    1    2    0    0 -0.27575869777E+02  0.21671139007E+03  0.66636168919E+01  0.25178097420E+03  0.12500000000E+03 0.  0.
         21    1    1    2  503  504  0.27696593229E+02 -0.17359469704E+03 -0.70727362552E+03  0.72879228967E+03  0.00000000000E+00 0. -1.
         21    1    1    2  504  501 -0.12072345196E+00 -0.43116693035E+02 -0.27506562838E+03  0.27842443088E+03  0.00000000000E+00 0. -1.
<mgrwt>
<rscale>  4 0.25169278E+03</rscale>
<asrwt>0</asrwt>
<pdfrwt beam="1">  1       21 0.21794005E-01 0.25169278E+03</pdfrwt>
<pdfrwt beam="2">  1       21 0.17189795E+00 0.25169278E+03</pdfrwt>
<totfact> 0.38764651E+03</totfact>
</mgrwt>
</event>
<event>
 5    0  0.1856407E+000  0.2570035E+03  0.7546771E-02  0.1108957E+00
         21   -1    0    0  502  501  0.00000000000E+00  0.00000000000E+00  0.11623752652E+03  0.11623752652E+03  0.00000000000E+00 0. -1.
         21   -1    0    0  503  502 -0.00000000000E+00 -0.00000000000E+00 -0.98662888392E+03  0.98662888392E+03  0.00000000000E+00 0. -1.
         25    1    1    2    0    0  0.17052720160E+03  0.14610363442E+03 -0.74427418373E+02  0.26756352345E+03  0.12500000000E+03 0.  0.
         21    1    1    2  503  504 -0.15305614326E+02 -0.85063731759E+02 -0.28294596062E+03  0.29585218763E+03  0.00000000000E+00 0. -1.
         21    1    1    2  504  501 -0.15522158728E+03 -0.61039902657E+02 -0.51301797841E+03  0.53945069936E+03  0.00000000000E+00 0. -1.
<mgrwt>
<rscale>  4 0.25700350E+03</rscale>
<asrwt>0</asrwt>
<pdfrwt beam="1">  1       21 0.17882696E-01 0.25700350E+03</pdfrwt>
<pdfrwt beam="2">  1       21 0.15178906E+00 0.25700350E+03</pdfrwt>
<totfact> 0.78698948E+03</totfact>
</mgrwt>
</event>
<event>
 5    0  0.1856407E+000  0.2408272E+03  0.7546771E-02  0.1119243E+00
         21   -1    0    0  502  501  0.00000000000E+00  0.00000000000E+00  0.22282603495E+04  0.22282603495E+04  0.00000000000E+00 0. -1.
         21   -1    0    0  503  502 -0.00000000000E+00 -0.00000000000E+00 -0.42721531050E+03  0.42721531050E+03  0.00000000000E+00 0.  1.
         25    1    1    2    0    0 -0.20274780355E+03  0.33903267005E+02  0.21856717221E+04  0.21988728886E+04  0.12500000000E+03 0.  0.
         21    1    1    2  503  504 -0.14099197351E+02  0.17996527733E+02 -0.30288373528E+02  0.37947963679E+02  0.00000000000E+00 0. -1.
         21    1    1    2  504  501  0.21684700090E+03 -0.51899794738E+02 -0.35433830952E+03  0.41865480779E+03  0.00000000000E+00 0.  1.
<mgrwt>
<rscale>  4 0.24082720E+03</rscale>
<asrwt>0</asrwt>
<pdfrwt beam="1">  1       21 0.34280928E+00 0.24082720E+03</pdfrwt>
<pdfrwt beam="2">  1       21 0.65725434E-01 0.24082720E+03</pdfrwt>
<totfact> 0.37851988E+01</totfact>
</mgrwt>
</event>
<event>
 5    0  0.1856407E+000  0.3250500E+03  0.7546771E-02  0.1073348E+00
         21   -1    0    0  502  501  0.00000000000E+00  0.00000000000E+00  0.15400189888E+03  0.15400189888E+03  0.00000000000E+00 0. -1.
         21   -1    0    0  503  502 -0.00000000000E+00 -0.00000000000E+00 -0.23262642978E+04  0.23262642978E+04  0.00000000000E+00 0. -1.
         25    1    1    2    0    0  0.29266773779E+03 -0.71566538330E+02 -0.46056834614E+02  0.32942739134E+03  0.12500000000E+03 0.  0.
         21    1    1    2  503  504 -0.20424783620E+02 -0.21442807737E+02 -0.99417256133E+02  0.10373406676E+03  0.00000000000E+00 0.  1.
         21    1    1    2  504  501 -0.27224295417E+03  0.93009346067E+02 -0.20267883081E+04  0.20471047385E+04  0.00000000000E+00 0. -1.
<mgrwt>
<rscale>  4 0.32505002E+03</rscale>
<asrwt>0</asrwt>
<pdfrwt beam="1">  1       21 0.23692600E-01 0.32505002E+03</pdfrwt>
<pdfrwt beam="2">  1       21 0.35788681E+00 0.32505002E+03</pdfrwt>
<totfact> 0.22363270E+02</totfact>
</mgrwt>
</event>
