<event>
 5    0  0.2159162E+000  0.2483391E+03  0.7546771E-02  0.1114359E+00
         21   -1    0    0  502  501  0.00000000000E+00  0.00000000000E+00  0.74105955065E+02  0.74105955065E+02  0.00000000000E+00 0. -1.
         21   -1    0    0  503  502 -0.00000000000E+00 -0.00000000000E+00 -0.21119430567E+04  0.21119430567E+04  0.00000000000E+00 0. -1.
         25    1    1    2    0    0 -0.32437346950E+02  0.21335918917E+03 -0.18158452019E+03  0.30850002116E+03  0.12500000000E+03 0.  0.
         21    1    1    2  503  504 -0.62943181494E+02 -0.19584586227E+02 -0.41428409441E+03  0.41949578186E+03  0.00000000000E+00 0. -1.
         21    1    1    2  504  501  0.95380528444E+02 -0.19377460294E+03 -0.14419684870E+04  0.14580532087E+04  0.00000000000E+00 0. -1.
<mgrwt>
<rscale>  4 0.24833912E+03</rscale>
<asrwt>0</asrwt>
<pdfrwt beam="1">  1       21 0.11400917E-01 0.24833912E+03</pdfrwt>
<pdfrwt beam="2">  1       21 0.32491429E+00 0.24833912E+03</pdfrwt>
<totfact> 0.14743080E+03</totfact>
</mgrwt>
</event>
<event>
 5    0  0.2223507E+000  0.2644170E+03  0.7546771E-02  0.1104518E+00
         21   -1    0    0  502  501  0.00000000000E+00  0.00000000000E+00  0.96250490725E+02  0.96250490725E+02  0.00000000000E+00 0. -1.
         21   -1    0    0  503  502 -0.00000000000E+00 -0.00000000000E+00 -0.13318468565E+04  0.13318468565E+04  0.00000000000E+00 0.  1.
         25    1    1    2    0    0 -0.11409792186E+03  0.20315757912E+03 -0.13034291731E+03  0.29479758110E+03  0.12500000000E+03 0.  0.
         21    1    1    2  503  504  0.96991157605E+02 -0.14482802455E+03 -0.96230498378E+03  0.97796386598E+03  0.00000000000E+00 0.  1.
         21    1    1    2  504  501  0.17106764257E+02 -0.58329554574E+02 -0.14294846471E+03  0.15533590018E+03  0.00000000000E+00 0.  1.
<mgrwt>
<rscale>  4 0.26441698E+03</rscale>
<asrwt>0</asrwt>
<pdfrwt beam="1">  1       21 0.14807768E-01 0.26441698E+03</pdfrwt>
<pdfrwt beam="2">  1       21 0.20489951E+00 0.26441698E+03</pdfrwt>
<totfact> 0.47322945E+03</totfact>
</mgrwt>
</event>
<event>
 5    0  0.2159162E+000  0.2409893E+03  0.7546771E-02  0.1119136E+00
         21   -1    0    0  502  501  0.00000000000E+00  0.00000000000E+00  0.50481858116E+03  0.50481858116E+03  0.00000000000E+00 0. -1.
         21   -1    0    0  503  502 -0.00000000000E+00 -0.00000000000E+00 -0.12105221744E+03  0.12105221744E+03  0.00000000000E+00 0. -1.
         25    1    1    2    0    0 -0.20237247533E+03 -0.38681338227E+02  0.32967170974E+03  0.40836172801E+03  0.12500000000E+03 0.  0.
         21    1    1    2  503  504  0.11477652986E+03  0.82514229233E+00  0.36751740564E+02  0.12051980377E+03  0.00000000000E+00 0. -1.
         21    1    1    2  504  501  0.87595945466E+02  0.37856195934E+02  0.17342913405E+02  0.96989266819E+02  0.00000000000E+00 0. -1.
<mgrwt>
<rscale>  4 0.24098935E+03</rscale>
<asrwt>0</asrwt>
<pdfrwt beam="1">  1       21 0.77664396E-01 0.24098935E+03</pdfrwt>
<pdfrwt beam="2">  1       21 0.18623418E-01 0.24098935E+03</pdfrwt>
<totfact> 0.37845583E+04</totfact>
</mgrwt>
</event>
<event>
 5    0  0.2159162E+000  0.2333726E+03  0.7546771E-02  0.1124288E+00
         21   -1    0    0  502  501  0.00000000000E+00  0.00000000000E+00  0.20847961470E+04  0.20847961470E+04  0.00000000000E+00 0. -1.
         21   -1    0    0  503  502 -0.00000000000E+00 -0.00000000000E+00 -0.35296189121E+02  0.35296189121E+02  0.00000000000E+00 0. -1.
         25    1    1    2    0    0 -0.31772373232E+02  0.19926535954E+03  0.15365219718E+04  0.15547478692E+04  0.12500000000E+03 0.  0.
         21    1    1    2  503  504 -0.14631924872E+02 -0.18954948880E+03  0.41719753100E+03  0.45847233483E+03  0.00000000000E+00 0. -1.
         21    1    1    2  504  501  0.46404298105E+02 -0.97158707469E+01  0.95780455135E+02  0.10687213207E+03  0.00000000000E+00 0. -1.
<mgrwt>
<rscale>  4 0.23337257E+03</rscale>
<asrwt>0</asrwt>
<pdfrwt beam="1">  1       21 0.32073777E+00 0.23337257E+03</pdfrwt>
<pdfrwt beam="2">  1       21 0.54301846E-02 0.23337257E+03</pdfrwt>
<totfact> 0.57944023E+03</totfact>
</mgrwt>
</event>
<event>
 5    0  0.2159162E+000  0.2428118E+03  0.7546771E-02  0.1117934E+00
         21   -1    0    0  502  501  0.00000000000E+00  0.00000000000E+00  0.94008820648E+02  0.94008820648E+02  0.00000000000E+00 0.  1.
         21   -1    0    0  503  502 -0.00000000000E+00 -0.00000000000E+00 -0.15009168140E+04  0.15009168140E+04  0.00000000000E+00 0.  1.
         25    1    1    2    0    0 -0.83214031423E+02  0.21134629348E+03 -0.13273293179E+03  0.29126424768E+03  0.12500000000E+03 0.  0.
         21    1    1    2  503  504  0.10311941285E+03 -0.52977082893E+02 -0.55768916295E+03  0.56961161074E+03  0.00000000000E+00 0.  1.
         21    1    1    2  504  501 -0.19905381423E+02 -0.15836921059E+03 -0.71648589866E+03  0.73404977627E+03  0.00000000000E+00 0.  1.
<mgrwt>
<rscale>  4 0.24281181E+03</rscale>
<asrwt>0</asrwt>
<pdfrwt beam="1">  1       21 0.14462895E-01 0.24281181E+03</pdfrwt>
<pdfrwt beam="2">  1       21 0.23091028E+00 0.24281181E+03</pdfrwt>
<totfact> 0.34532860E+03</totfact>
</mgrwt>
</event>
<event>
 5    0  0.2159162E+000  0.2365542E+03  0.7546771E-02  0.1122110E+00
         21   -1    0    0  502  501  0.00000000000E+00  0.00000000000E+00  0.53999684199E+03  0.53999684199E+03  0.00000000000E+00 0.  1.
         21   -1    0    0  503  502 -0.00000000000E+00 -0.00000000000E+00 -0.93869686989E+02  0.93869686989E+02  0.00000000000E+00 0. -1.
         25    1    1    2    0    0 -0.98181806670E+02 -0.17519476454E+03  0.27544381949E+03  0.36308011565E+03  0.12500000000E+03 0.  0.
         21    1    1    2  503  504  0.10032177891E+03  0.12941546678E+03  0.12429402842E+03  0.20557681743E+03  0.00000000000E+00 0. -1.
         21    1    1    2  504  501 -0.21399722378E+01  0.45779297765E+02  0.46389307082E+02  0.65209595893E+02  0.00000000000E+00 0. -1.
<mgrwt>
<rscale>  4 0.23655416E+03</rscale>
<asrwt>0</asrwt>
<pdfrwt beam="1">  1       21 0.83076436E-01 0.23655416E+03</pdfrwt>
<pdfrwt beam="2">  1       21 0.14441491E-01 0.23655416E+03</pdfrwt>
<totfact> 0.51989041E+04</totfact>
</mgrwt>
</event>
<event>
 5    0  0.2159162E+000  0.2512978E+03  0.7546771E-02  0.1112487E+00
         21   -1    0    0  502  501  0.00000000000E+00  0.00000000000E+00  0.35637717423E+03  0.35637717423E+03  0.00000000000E+00 0.  1.
         21   -1    0    0  503  502 -0.00000000000E+00 -0.00000000000E+00 -0.73942256240E+03  0.73942256240E+03  0.00000000000E+00 0. -1.
         25    1    1    2    0    0  0.16603153581E+03 -0.14346268232E+03  0.28942547719E+03  0.38410951426E+03  0.12500000000E+03 0.  0.
         21    1    1    2  503  504 -0.16704642615E+03  0.11337530358E+03 -0.56080438314E+03  0.59603693183E+03  0.00000000000E+00 0. -1.
         21    1    1    2  504  501  0.10148903420E+01  0.30087378733E+02 -0.11166648222E+03  0.11565329054E+03  0.00000000000E+00 0. -1.
<mgrwt>
<rscale>  4 0.25129779E+03</rscale>
<asrwt>0</asrwt>
<pdfrwt beam="1">  1       21 0.54827259E-01 0.25129779E+03</pdfrwt>
<pdfrwt beam="2">  1       21 0.11375732E+00 0.25129779E+03</pdfrwt>
<totfact> 0.18000934E+03</totfact>
</mgrwt>
</event>
<event>
 5    0  0.4813023E+000  0.2432628E+03  0.7546771E-02  0.1117638E+00
         21   -1    0    0  502  501  0.00000000000E+00  0.00000000000E+00  0.27332744800E+03  0.27332744800E+03  0.00000000000E+00 0. -1.
         21   -1    0    0  503  502 -0.00000000000E+00 -0.00000000000E+00 -0.23104415518E+03  0.23104415518E+03  0.00000000000E+00 0.  1.
         25    1    1    2    0    0  0.11996478072E+03 -0.17076373063E+03  0.12624165537E+03  0.27406888890E+03  0.12500000000E+03 0.  0.
         21    1    1    2  503  504 -0.19452953056E+02  0.10725698858E+02 -0.22397314514E+02  0.31545169139E+02  0.00000000000E+00 0. -1.
         21    1    1    2  504  501 -0.10051182767E+03  0.16003803177E+03 -0.61561048035E+02  0.19875754514E+03  0.00000000000E+00 0.  1.
<mgrwt>
<rscale>  4 0.24326282E+03</rscale>
<asrwt>0</asrwt>
<pdfrwt beam="1">  1       21 0.42050377E-01 0.24326282E+03</pdfrwt>
<pdfrwt beam="2">  1       21 0.35545255E-01 0.24326282E+03</pdfrwt>
<totfact> 0.40553726E+04</totfact>
</mgrwt>
</event>
<event>
 5    0  0.2159162E+000  0.3067561E+03  0.7546771E-02  0.1081911E+00
         21   -1    0    0  502  501  0.00000000000E+00  0.00000000000E+00  0.20228378064E+04  0.20228378064E+04  0.00000000000E+00 0.  1.
         21   -1    0    0  503  502 -0.00000000000E+00 -0.00000000000E+00 -0.54227264196E+02  0.54227264196E+02  0.00000000000E+00 0.  1.
         25    1    1    2    0    0 -0.29155250326E+03  0.76559599824E+02  0.10872181463E+04  0.11351354686E+04  0.12500000000E+03 0.  0.
         21    1    1    2  503  504  0.25238856778E+03 -0.72670956673E+02  0.85528024222E+03  0.89469846866E+03  0.00000000000E+00 0.  1.
         21    1    1    2  504  501  0.39163935478E+02 -0.38886431518E+01  0.26112153771E+02  0.47231133401E+02  0.00000000000E+00 0. -1.
<mgrwt>
<rscale>  4 0.30675608E+03</rscale>
<asrwt>0</asrwt>
<pdfrwt beam="1">  1       21 0.31120576E+00 0.30675608E+03</pdfrwt>
<pdfrwt beam="2">  1       21 0.83426576E-02 0.30675608E+03</pdfrwt>
<totfact> 0.29364620E+03</totfact>
</mgrwt>
</event>
<event>
 5    0  0.2159162E+000  0.2424276E+03  0.7546771E-02  0.1118186E+00
         21   -1    0    0  502  501  0.00000000000E+00  0.00000000000E+00  0.59563719946E+03  0.59563719946E+03  0.00000000000E+00 0. -1.
         21   -1    0    0  503  502 -0.00000000000E+00 -0.00000000000E+00 -0.62700703896E+03  0.62700703896E+03  0.00000000000E+00 0.  1.
         25    1    1    2    0    0  0.12332774721E+03  0.17186525656E+03  0.51402306604E+03  0.56972985885E+03  0.12500000000E+03 0.  0.
         21    1    1    2  503  504 -0.87887192285E+01 -0.91827727821E+02 -0.24510870489E+01  0.92279905777E+02  0.00000000000E+00 0. -1.
         21    1    1    2  504  501 -0.11453902798E+03 -0.80037528736E+02 -0.54294181849E+03  0.56063447379E+03  0.00000000000E+00 0.  1.
<mgrwt>
<rscale>  4 0.24242760E+03</rscale>
<asrwt>0</asrwt>
<pdfrwt beam="1">  1       21 0.91636492E-01 0.24242760E+03</pdfrwt>
<pdfrwt beam="2">  1       21 0.96462622E-01 0.24242760E+03</pdfrwt>
<totfact> 0.85962235E+02</totfact>
</mgrwt>
</event>
<event>
 5    0  0.2159162E+000  0.2489456E+03  0.7546771E-02  0.1113973E+00
         21   -1    0    0  502  501  0.00000000000E+00  0.00000000000E+00  0.96341313278E+03  0.96341313278E+03  0.00000000000E+00 0. -1.
         21   -1    0    0  503  502 -0.00000000000E+00 -0.00000000000E+00 -0.10110285351E+04  0.10110285351E+04  0.00000000000E+00 0. -1.
         25    1    1    2    0    0  0.19605360080E+03 -0.89752459477E+02  0.93220919385E+03  0.96495155291E+03  0.12500000000E+03 0.  0.
         21    1    1    2  503  504 -0.14765698441E+02  0.16030539354E+02 -0.18927630570E+02  0.28866230121E+02  0.00000000000E+00 0.  1.
         21    1    1    2  504  501 -0.18128790236E+03  0.73721920124E+02 -0.96089696564E+03  0.98062388489E+03  0.00000000000E+00 0. -1.
<mgrwt>
<rscale>  4 0.24894559E+03</rscale>
<asrwt>0</asrwt>
<pdfrwt beam="1">  1       21 0.14821740E+00 0.24894559E+03</pdfrwt>
<pdfrwt beam="2">  1       21 0.15554285E+00 0.24894559E+03</pdfrwt>
<totfact> 0.77932419E+01</totfact>
</mgrwt>
</event>
<event>
 5    0  0.2159162E+000  0.4004936E+03  0.7546771E-02  0.1043609E+00
         21   -1    0    0  502  501  0.00000000000E+00  0.00000000000E+00  0.28080994188E+03  0.28080994188E+03  0.00000000000E+00 0.  1.
         21   -1    0    0  503  502 -0.00000000000E+00 -0.00000000000E+00 -0.10046620528E+04  0.10046620528E+04  0.00000000000E+00 0.  1.
         25    1    1    2    0    0 -0.34869261345E+03 -0.15226144149E+03  0.64737410438E+02  0.40569202303E+03  0.12500000000E+03 0.  0.
         21    1    1    2  503  504  0.27079856799E+03  0.12982029810E+03 -0.68731955109E+03  0.75006222378E+03  0.00000000000E+00 0.  1.
         21    1    1    2  504  501  0.77894045459E+02  0.22441143390E+02 -0.10126997029E+03  0.12971774789E+03  0.00000000000E+00 0. -1.
<mgrwt>
<rscale>  4 0.40049355E+03</rscale>
<asrwt>0</asrwt>
<pdfrwt beam="1">  1       21 0.43201529E-01 0.40049355E+03</pdfrwt>
<pdfrwt beam="2">  1       21 0.15456340E+00 0.40049355E+03</pdfrwt>
<totfact> 0.12318843E+03</totfact>
</mgrwt>
</event>
<event>
 5    0  0.2159162E+000  0.2838782E+03  0.7546771E-02  0.1093589E+00
         21   -1    0    0  502  501  0.00000000000E+00  0.00000000000E+00  0.74492623123E+03  0.74492623123E+03  0.00000000000E+00 0.  1.
         21   -1    0    0  503  502 -0.00000000000E+00 -0.00000000000E+00 -0.11664143866E+04  0.11664143866E+04  0.00000000000E+00 0.  1.
         25    1    1    2    0    0 -0.44757742393E+02  0.25091549449E+03  0.70173381812E+03  0.75697899071E+03  0.12500000000E+03 0.  0.
         21    1    1    2  503  504  0.19604855311E+02 -0.22530297077E+02 -0.23552594121E+03  0.23741194919E+03  0.00000000000E+00 0.  1.
         21    1    1    2  504  501  0.25152887083E+02 -0.22838519741E+03 -0.88769603229E+03  0.91694967793E+03  0.00000000000E+00 0.  1.
<mgrwt>
<rscale>  4 0.28387821E+03</rscale>
<asrwt>0</asrwt>
<pdfrwt beam="1">  1       21 0.11460404E+00 0.28387821E+03</pdfrwt>
<pdfrwt beam="2">  1       21 0.17944837E+00 0.28387821E+03</pdfrwt>
<totfact> 0.97575843E+01</totfact>
</mgrwt>
</event>
