<LesHouchesEvents version="3.0">
  <!--
  <scalesfunctionalform>
    muR  H_T/2 := sum_i mT(i)/2, i=final state
    muF1 H_T/2 := sum_i mT(i)/2, i=final state
    muF2 H_T/2 := sum_i mT(i)/2, i=final state
    QES  H_T/2 := sum_i mT(i)/2, i=final state
  </scalesfunctionalform>
HERWIG6   
  -->
  <header>
       14
  </header>
  <init>
   2212   2212 0.65000000D+04 0.65000000D+04 -1 -1   244800   244800 -4   1
 0.39204166D-04 0.15771865D-05 0.31466189D-05     66
  </init>
  <event>
  7     66 0.31466189E-05 0.57624776E+02 0.75467711E-02 0.92448177E-01
        1 -1    0    0  503    0 0.00000000E+00 0.00000000E+00 0.21919549E+04 0.21919549E+04 0.32000000E+00 0.0000E+00 0.9000E+01
       -1 -1    0    0    0  501 0.00000000E+00 0.00000000E+00 -.28755043E+03 0.28755061E+03 0.32000000E+00 0.0000E+00 0.9000E+01
       23  2    1    2    0    0 0.32493297E+03 -.50398415E+03 0.28389781E+03 0.66782959E+03 0.76268775E+02 0.0000E+00 0.0000E+00
       25  1    1    2    0    0 -.31313254E+03 0.49653611E+03 0.84726377E+03 0.10383068E+04 0.12500000E+03 0.0000E+00 0.9000E+01
        2  1    3    3  502    0 0.21651287E+03 -.27694167E+03 0.18734880E+03 0.39833929E+03 0.32000000E+00 0.0000E+00 0.9000E+01
       -2  1    3    3    0  502 0.10842010E+03 -.22704249E+03 0.96549008E+02 0.26949030E+03 0.32000000E+00 0.0000E+00 0.9000E+01
       21  1    1    2  503  501 -.11800435E+02 0.74480452E+01 0.77324288E+03 0.77336915E+03 0.75000000E+00 0.0000E+00 0.9000E+01
#aMCatNLO 2  0  0  1  2 0.12677730D+03 0.00000000D+00  -5  6  0 0.00000000D+00 0.00000000D+00 0.00000000D+00 0.00000000D+00 0.00000000D+00
  <mgrwgt>
 0.3989561303D-03    1    2    0
 0.638588305673684D+03 0.000000000000000D+00 0.000000000000000D+00 0.638588305673684D+03
 0.638588305673684D+03 0.000000000000000D+00 0.000000000000000D+00 -.638588305673684D+03
 0.642428054184028D+03 -.319041139938365D+03 0.500265422242202D+03 0.212217018964872D+03
 0.362583992298474D+03 0.213148189826380D+03 -.274817669404998D+03 -.102519506571397D+03
 0.272164564864865D+03 0.105892950111986D+03 -.225447752837204D+03 -.109697512393475D+03
 0.000000000000000D+00 -.000000000000000D+00 0.000000000000000D+00 0.000000000000000D+00
 0.986741265909855D+03 0.000000000000000D+00 0.000000000000000D+00 0.986741265909855D+03
 0.638766262097409D+03 0.000000000000000D+00 0.000000000000000D+00 -.638766262097409D+03
 0.636601255084731D+03 -.313132539804549D+03 0.496536108810497D+03 0.212217018964872D+03
 0.366177649929299D+03 0.216514775021561D+03 -.276942546889177D+03 -.102519506571397D+03
 0.274473936131903D+03 0.108418199765558D+03 -.227041607090020D+03 -.109697512393475D+03
 0.348254686861332D+03 -.118004349825701D+02 0.744804516869985D+01 0.347975003812446D+03
0.249057051172D-03 0.000000000000D+00 0.000000000000D+00 0.364772460343D-06 0.126624031291D-07  6 1 -1 25 2 -2 21 2 0.33722363D+00 0.44238516D-01 0.37043967D+06 0.37043967D+06 0.37043967D+06 0.10778395D+01  1  2  1  1  6  1        1 0.398956130309D-03 0.100000000000D+01
  </mgrwgt>
  </event>
  <event>
  7     66 0.31466189E-05 0.69018671E+02 0.75467711E-02 0.91694574E-01
        1 -1    0    0  503    0 0.00000000E+00 0.00000000E+00 0.21063480E+04 0.21063480E+04 0.32000000E+00 0.0000E+00 0.9000E+01
       -1 -1    0    0    0  501 0.00000000E+00 0.00000000E+00 -.27401650E+03 0.27401668E+03 0.32000000E+00 0.0000E+00 0.9000E+01
       23  2    1    2    0    0 0.51963851E+03 0.32830439E+03 0.35444521E+03 0.71580848E+03 0.94564397E+02 0.0000E+00 0.0000E+00
       25  1    1    2    0    0 -.55191756E+03 -.29166978E+03 0.10084981E+04 0.11926348E+04 0.12500000E+03 0.0000E+00 0.9000E+01
        2  1    3    3  502    0 0.28612371E+03 0.13092777E+03 0.15508184E+03 0.35079815E+03 0.32000000E+00 0.0000E+00 0.9000E+01
       -2  1    3    3    0  502 0.23351479E+03 0.19737662E+03 0.19936336E+03 0.36501033E+03 0.32000000E+00 0.0000E+00 0.9000E+01
       21  1    1    2  503  501 0.32279053E+02 -.36634607E+02 0.46938814E+03 0.47192141E+03 0.75000000E+00 0.0000E+00 0.9000E+01
#aMCatNLO 2  0  0  1  2 0.12677730D+03 0.00000000D+00  -5  6  0 0.00000000D+00 0.00000000D+00 0.00000000D+00 0.00000000D+00 0.00000000D+00
  <mgrwgt>
 0.2771761459D-03    1    2    0
 0.667487288811475D+03 0.000000000000000D+00 0.000000000000000D+00 0.667487288811475D+03
 0.667487288811475D+03 0.000000000000000D+00 0.000000000000000D+00 -.667487288811475D+03
 0.669990173558496D+03 -.535663832673737D+03 -.310116697788803D+03 0.223950273013440D+03
 0.346486253931483D+03 0.294456429255686D+03 0.121470607740911D+03 -.136356249906327D+03
 0.318498150132972D+03 0.241207403418051D+03 0.188646090047892D+03 -.875940231071127D+02
 0.000000000000000D+00 0.000000000000000D+00 -.000000000000000D+00 0.000000000000000D+00
 0.860124050105097D+03 0.000000000000000D+00 0.000000000000000D+00 0.860124050105097D+03
 0.671034727702475D+03 0.000000000000000D+00 0.000000000000000D+00 -.671034727702475D+03
 0.674879975129283D+03 -.551917560294547D+03 -.291669783635916D+03 0.223950273013440D+03
 0.342931528469319D+03 0.286124317145815D+03 0.130927008167250D+03 -.136356249906327D+03
 0.318055688361613D+03 0.233514190272553D+03 0.197377382079214D+03 -.875940231071127D+02
 0.195291585847357D+03 0.322790528761793D+02 -.366346066105486D+02 0.189089322402622D+03
0.141340684696D-03 0.000000000000D+00 0.000000000000D+00 0.427180271807D-05 0.114038725209D-07  6 1 -1 25 2 -2 21 2 0.32405320D+00 0.42156356D-01 0.42632967D+06 0.42632967D+06 0.42632967D+06 0.10734375D+01  1  2  1  1  6  1        1 0.277176145949D-03 0.100000000000D+01
  </mgrwgt>
  </event>
  <event>
  7     66 0.31466189E-05 0.81987326E+02 0.75467711E-02 0.89859103E-01
        1 -1    0    0  501    0 0.00000000E+00 0.00000000E+00 0.86594653E+03 0.86594659E+03 0.32000000E+00 0.0000E+00 0.9000E+01
       -1 -1    0    0    0  503 0.00000000E+00 0.00000000E+00 -.71353372E+03 0.71353379E+03 0.32000000E+00 0.0000E+00 0.9000E+01
       23  2    1    2    0    0 -.76806709E+03 0.57721752E+02 -.17222418E+01 0.77557162E+03 0.90826872E+02 0.0000E+00 0.0000E+00
       25  1    1    2    0    0 0.66325127E+03 -.55876138E+02 0.16905435E+03 0.69801774E+03 0.12500000E+03 0.0000E+00 0.9000E+01
        2  1    3    3  502    0 -.61416176E+03 0.81716780E+02 0.61994134E+01 0.61960538E+03 0.32000000E+00 0.0000E+00 0.9000E+01
       -2  1    3    3    0  502 -.15390533E+03 -.23995027E+02 -.79216552E+01 0.15596623E+03 0.32000000E+00 0.0000E+00 0.9000E+01
       21  1    1    2  501  503 0.10481582E+03 -.18456137E+01 -.14919291E+02 0.10589103E+03 0.75000000E+00 0.0000E+00 0.9000E+01
#aMCatNLO 2  0  0  2  1 0.19928374D+02 0.00000000D+00  -5  6  0 0.00000000D+00 0.00000000D+00 0.00000000D+00 0.00000000D+00 0.00000000D+00
  <mgrwgt>
 0.5506808634D-04    1    2    0
 0.730149948641750D+03 0.000000000000000D+00 0.000000000000000D+00 0.730149948641750D+03
 0.730149948641750D+03 0.000000000000000D+00 0.000000000000000D+00 -.730149948641750D+03
 0.732675279008201D+03 0.714000989156540D+03 -.567697476324794D+02 0.903761456744678D+02
 0.580353189603771D+03 -.571038759661250D+03 0.809586745475309D+02 -.645774934734939D+02
 0.147271428671526D+03 -.142962229495290D+03 -.241889269150515D+02 -.257986522009738D+02
 0.000000000000000D+00 0.000000000000000D+00 -.000000000000000D+00 -.000000000000000D+00
 0.772610933349419D+03 0.000000000000000D+00 0.000000000000000D+00 0.772610933349419D+03
 0.799729950073595D+03 0.000000000000000D+00 0.000000000000000D+00 -.799729950073595D+03
 0.683240246335068D+03 0.663251267364998D+03 -.558761384112800D+02 0.903761456744678D+02
 0.622936419241136D+03 -.614167471643364D+03 0.817180918086535D+02 -.645774934734939D+02
 0.157881240429074D+03 -.153899614377095D+03 -.239963396920844D+02 -.257986522009738D+02
 0.108282977417735D+03 0.104815818655461D+03 -.184561370528913D+01 -.271190167241753D+02
0.266041206022D-04 0.000000000000D+00 0.000000000000D+00 0.287004866751D-04 0.157457321098D-07  6 1 -1 25 2 -2 21 2 0.13322233D+00 0.10977425D+00 0.60637987D+06 0.60637987D+06 0.60637987D+06 0.10626395D+01  1  2  1  2  6  2       -1 0.550680863447D-04 0.100000000000D+01
  </mgrwgt>
  </event>
  <event>
  7     66 0.31466189E-05 0.69670168E+02 0.75467711E-02 0.93878681E-01
        1 -1    0    0  501    0 0.00000000E+00 0.00000000E+00 0.99101409E+03 0.99101414E+03 0.32000000E+00 0.0000E+00 0.9000E+01
       -1 -1    0    0    0  503 0.00000000E+00 0.00000000E+00 -.32386317E+03 0.32386333E+03 0.32000000E+00 0.0000E+00 0.9000E+01
       23  2    1    2    0    0 -.28799049E+03 0.42402572E+03 0.19699147E+03 0.55662641E+03 0.91054833E+02 0.0000E+00 0.0000E+00
       25  1    1    2    0    0 0.28763312E+03 -.43640341E+03 0.49490320E+03 0.73057164E+03 0.12500000E+03 0.0000E+00 0.9000E+01
        2  1    3    3  502    0 -.20379866E+03 0.22964295E+03 0.13877577E+03 0.33694004E+03 0.32000000E+00 0.0000E+00 0.9000E+01
       -2  1    3    3    0  502 -.84191829E+02 0.19438278E+03 0.58215699E+02 0.21968636E+03 0.32000000E+00 0.0000E+00 0.9000E+01
       21  1    1    2  501  503 0.35737312E+00 0.12377685E+02 -.24743752E+02 0.27679425E+02 0.75000000E+00 0.0000E+00 0.9000E+01
#aMCatNLO 2  0  0  2  1 0.19928374D+02 0.00000000D+00  -5  6  0 0.00000000D+00 0.00000000D+00 0.00000000D+00 0.00000000D+00 0.00000000D+00
  <mgrwgt>
 0.4049949234D-03    1    2    0
 0.542680211248909D+03 0.000000000000000D+00 0.000000000000000D+00 0.542680211248909D+03
 0.542680211248909D+03 0.000000000000000D+00 0.000000000000000D+00 -.542680211248909D+03
 0.546058820462697D+03 0.287813708948437D+03 -.430148603683665D+03 0.121205128173065D+03
 0.313684874801383D+03 -.203697279565081D+03 0.233205928635763D+03 -.502057150738427D+02
 0.225616727233737D+03 -.841164293833561D+02 0.196942675047902D+03 -.709994130992225D+02
 0.000000000000000D+00 0.000000000000000D+00 0.000000000000000D+00 -.000000000000000D+00
 0.543517672371839D+03 0.000000000000000D+00 0.000000000000000D+00 0.543517672371839D+03
 0.590504612612189D+03 0.000000000000000D+00 0.000000000000000D+00 -.590504612612189D+03
 0.550905098149473D+03 0.287633117941500D+03 -.436403406878181D+03 0.121205128173065D+03
 0.311112829430626D+03 -.203800138779159D+03 0.229643380579214D+03 -.502057150738427D+02
 0.223413130349489D+03 -.841903522834171D+02 0.194382341622170D+03 -.709994130992225D+02
 0.485912270544395D+02 0.357373121076331D+00 0.123776846767964D+02 -.469869402403500D+02
0.457685391928D-04 0.000000000000D+00 0.000000000000D+00 0.478071679431D-04 0.196834274116D-05  6 1 -1 25 2 -2 21 2 0.15246291D+00 0.49824855D-01 0.28550631D+06 0.28550631D+06 0.28550631D+06 0.10861465D+01  1  2  1  2  6  2       -1 0.404994923446D-03 0.100000000000D+01
  </mgrwgt>
  </event>
  <event>
  7     66 0.31466189E-05 0.29367940E+02 0.75467711E-02 0.93139528E-01
        1 -1    0    0  503    0 0.00000000E+00 0.00000000E+00 0.80858800E+03 0.80858806E+03 0.32000000E+00 0.0000E+00 0.9000E+01
       -1 -1    0    0    0  501 0.00000000E+00 0.00000000E+00 -.84091856E+03 0.84091862E+03 0.32000000E+00 0.0000E+00 0.9000E+01
       23  2    1    2    0    0 -.53418684E+03 -.16878042E+03 -.45573121E+03 0.72798286E+03 0.91791596E+02 0.0000E+00 0.0000E+00
       25  1    1    2    0    0 0.49213041E+03 0.15574683E+03 0.36753388E+02 0.53237696E+03 0.12500000E+03 0.0000E+00 0.9000E+01
        2  1    3    3  502    0 -.39998813E+03 -.16605378E+03 -.35895952E+03 0.56250902E+03 0.32000000E+00 0.0000E+00 0.9000E+01
       -2  1    3    3    0  502 -.13419871E+03 -.27266452E+01 -.96771686E+02 0.16547383E+03 0.32000000E+00 0.0000E+00 0.9000E+01
       21  1    1    2  503  501 0.42056428E+02 0.13033588E+02 0.38664726E+03 0.38914687E+03 0.75000000E+00 0.0000E+00 0.9000E+01
#aMCatNLO 2  0  0  1  5 0.58158447D+03 0.00000000D+00  -5  6  0 0.00000000D+00 0.00000000D+00 0.00000000D+00 0.00000000D+00 0.00000000D+00
  <mgrwgt>
 0.1652004731D-03    1    2    0
 0.593933041423934D+03 0.000000000000000D+00 0.000000000000000D+00 0.593933041423934D+03
 0.593933041423934D+03 0.000000000000000D+00 0.000000000000000D+00 -.593933041423934D+03
 0.596963392690952D+03 0.512913057900764D+03 0.162187524699461D+03 0.226617947391290D+03
 0.454248112221211D+03 -.383637068995773D+03 -.160987449197094D+03 -.182337565931651D+03
 0.136654577935705D+03 -.129275988904990D+03 -.120007550236688D+01 -.442803814596388D+02
 0.000000000000000D+00 0.000000000000000D+00 0.000000000000000D+00 0.000000000000000D+00
 0.114235093480002D+04 0.000000000000000D+00 0.000000000000000D+00 0.114235093480002D+04
 0.595225295220748D+03 0.000000000000000D+00 0.000000000000000D+00 -.595225295220748D+03
 0.577434073164256D+03 0.492130408362630D+03 0.155746832828323D+03 0.226617947391290D+03
 0.469909129937096D+03 -.399991358442335D+03 -.166055760574016D+03 -.182337565931651D+03
 0.141338608107334D+03 -.134195477517234D+03 -.272466024103989D+01 -.442803814596388D+02
 0.548894418812079D+03 0.420564275969387D+02 0.130335879867327D+02 0.547125639579270D+03
0.999307998946D-04 0.000000000000D+00 0.000000000000D+00 0.220421241353D-04 0.851442507594D-07  6 1 -1 25 2 -2 21 2 0.12439811D+00 0.12937204D+00 0.32629823D+06 0.32629823D+06 0.32629823D+06 0.10818622D+01  1  2  1  1  6  1        1 0.165200473069D-03 0.100000000000D+01
  </mgrwgt>
  </event>
  <event>
  7     66 0.31466189E-05 0.61466768E+02 0.75467711E-02 0.94509042E-01
        1 -1    0    0  501    0 0.00000000E+00 0.00000000E+00 0.10107811E+04 0.10107812E+04 0.32000000E+00 0.0000E+00 0.9000E+01
       -1 -1    0    0    0  503 0.00000000E+00 0.00000000E+00 -.54137484E+03 0.54137494E+03 0.32000000E+00 0.0000E+00 0.9000E+01
       23  2    1    2    0    0 -.37006924E+03 0.24021480E+03 0.77634728E+03 0.89772422E+03 0.92408267E+02 0.0000E+00 0.0000E+00
       25  1    1    2    0    0 0.42893200E+03 -.22839644E+03 -.21790423E+03 0.54704191E+03 0.12500000E+03 0.0000E+00 0.9000E+01
        2  1    3    3  502    0 -.20439116E+03 0.84486933E+02 0.33828342E+03 0.40416526E+03 0.32000000E+00 0.0000E+00 0.9000E+01
       -2  1    3    3    0  502 -.16567808E+03 0.15572786E+03 0.43806386E+03 0.49355895E+03 0.32000000E+00 0.0000E+00 0.9000E+01
       21  1    1    2  501  503 -.58862764E+02 -.11818358E+02 -.89036774E+02 0.10738998E+03 0.75000000E+00 0.0000E+00 0.9000E+01
#aMCatNLO 2  0  0  2  1 0.19928374D+02 0.00000000D+00  -5  6  0 0.00000000D+00 0.00000000D+00 0.00000000D+00 0.00000000D+00 0.00000000D+00
  <mgrwgt>
 0.1483788053D-03    1    2    0
 0.665561045446201D+03 0.000000000000000D+00 0.000000000000000D+00 0.665561045446201D+03
 0.665561045446201D+03 0.000000000000000D+00 0.000000000000000D+00 -.665561045446201D+03
 0.668222601535869D+03 0.399038966046389D+03 -.234398307444742D+03 -.465533867991399D+03
 0.305038848077949D+03 -.217683895555049D+03 0.818172816984737D+02 0.197404034579269D+03
 0.357860641278583D+03 -.181355070491339D+03 0.152581025746268D+03 0.268129833412131D+03
 0.000000000000000D+00 -.000000000000000D+00 -.000000000000000D+00 -.000000000000000D+00
 0.672340765487258D+03 0.000000000000000D+00 0.000000000000000D+00 0.672340765487258D+03
 0.813888037809836D+03 0.000000000000000D+00 0.000000000000000D+00 -.813888037809836D+03
 0.684466492502545D+03 0.428932004090192D+03 -.228396438192182D+03 -.465533867991399D+03
 0.296449299566116D+03 -.204391625986481D+03 0.844860791590537D+02 0.197404034579269D+03
 0.351559543331620D+03 -.165677613889481D+03 0.155728716676817D+03 0.268129833412131D+03
 0.153753467896812D+03 -.588627642142293D+02 -.118183576436886D+02 -.141547272322578D+03
0.462372623563D-04 0.000000000000D+00 0.000000000000D+00 0.104133649773D-04 0.188916498288D-07  6 1 -1 25 2 -2 21 2 0.15550459D+00 0.83288336D-01 0.25520133D+06 0.25520133D+06 0.25520133D+06 0.10897870D+01  1  2  1  2  6  2       -1 0.148378805331D-03 0.100000000000D+01
  </mgrwgt>
  </event>
  <event>
  7     66 0.31466189E-05 0.73741596E+02 0.75467711E-02 0.94831324E-01
        1 -1    0    0  503    0 0.00000000E+00 0.00000000E+00 0.10042803E+04 0.10042803E+04 0.32000000E+00 0.0000E+00 0.9000E+01
       -1 -1    0    0    0  501 0.00000000E+00 0.00000000E+00 -.34630216E+03 0.34630231E+03 0.32000000E+00 0.0000E+00 0.9000E+01
       23  2    1    2    0    0 0.43081182E+03 -.18785143E+03 0.56409647E+03 0.73932397E+03 0.86649388E+02 0.0000E+00 0.0000E+00
       25  1    1    2    0    0 -.44010157E+03 0.17881228E+03 -.24830970E+02 0.49183818E+03 0.12500000E+03 0.0000E+00 0.9000E+01
        2  1    3    3  502    0 0.25100889E+03 -.62391180E+02 0.30797322E+03 0.40217624E+03 0.32000000E+00 0.0000E+00 0.9000E+01
       -2  1    3    3    0  502 0.17980293E+03 -.12546025E+03 0.25612325E+03 0.33714773E+03 0.32000000E+00 0.0000E+00 0.9000E+01
       21  1    1    2  503  501 0.92897447E+01 0.90391499E+01 0.11871262E+03 0.11942049E+03 0.75000000E+00 0.0000E+00 0.9000E+01
#aMCatNLO 2  0  0  1  5 0.58158447D+03 0.00000000D+00  -5  6  0 0.00000000D+00 0.00000000D+00 0.00000000D+00 0.00000000D+00 0.00000000D+00
  <mgrwgt>
 0.4822693894D-03    1    2    0
 0.553350015969845D+03 0.000000000000000D+00 0.000000000000000D+00 0.553350015969845D+03
 0.553350015969845D+03 0.000000000000000D+00 0.000000000000000D+00 -.553350015969845D+03
 0.557017172085101D+03 -.435416861213942D+03 0.183370612149356D+03 -.267264860331942D+03
 0.298936835902469D+03 0.253512289978361D+03 -.599553959974325D+02 0.146629128007016D+03
 0.250746023952121D+03 0.181904571235581D+03 -.123415216151923D+03 0.120635732324926D+03
 0.000000000000000D+00 0.000000000000000D+00 0.000000000000000D+00 0.000000000000000D+00
 0.627819836604104D+03 0.000000000000000D+00 0.000000000000000D+00 0.627819836604104D+03
 0.553952259777290D+03 0.000000000000000D+00 0.000000000000000D+00 -.553952259777290D+03
 0.559212595636351D+03 -.440101569659300D+03 0.178812275679031D+03 -.267264860331942D+03
 0.297319027188441D+03 0.251009861752390D+03 -.623903201725158D+02 0.146629128007016D+03
 0.250244310362620D+03 0.179801963225943D+03 -.125461105428689D+03 0.120635732324926D+03
 0.749961631939824D+02 0.928974468096683D+01 0.903914992217375D+01 0.738675768268145D+02
0.620473625694D-04 0.000000000000D+00 0.000000000000D+00 0.258944056797D-05 0.988019506166D-07  6 1 -1 25 2 -2 21 2 0.15450415D+00 0.53277091D-01 0.24111394D+06 0.24111394D+06 0.24111394D+06 0.10916435D+01  1  2  1  1  6  1        1 0.482269389442D-03 0.100000000000D+01
  </mgrwgt>
  </event>
  <event>
  7     66 0.31466189E-05 0.45613599E+02 0.75467711E-02 0.93810341E-01
        1 -1    0    0  503    0 0.00000000E+00 0.00000000E+00 0.69262820E+03 0.69262827E+03 0.32000000E+00 0.0000E+00 0.9000E+01
       -1 -1    0    0    0  501 0.00000000E+00 0.00000000E+00 -.66642958E+03 0.66642965E+03 0.32000000E+00 0.0000E+00 0.9000E+01
       23  2    1    2    0    0 0.45531388E+03 -.25114044E+03 -.97651264E+02 0.53767173E+03 0.95775128E+02 0.0000E+00 0.0000E+00
       25  1    1    2    0    0 -.46570428E+03 0.24781983E+03 -.13790057E+03 0.55940747E+03 0.12500000E+03 0.0000E+00 0.9000E+01
        2  1    3    3  502    0 0.10994105E+03 -.37980672E+02 0.12893944E+02 0.11702958E+03 0.32000000E+00 0.0000E+00 0.9000E+01
       -2  1    3    3    0  502 0.34537283E+03 -.21315977E+03 -.11054521E+03 0.42064216E+03 0.32000000E+00 0.0000E+00 0.9000E+01
       21  1    1    2  503  501 0.10390405E+02 0.33206109E+01 0.26175045E+03 0.26197872E+03 0.75000000E+00 0.0000E+00 0.9000E+01
#aMCatNLO 2  0  0  1  5 0.58158447D+03 0.00000000D+00  -5  6  0 0.00000000D+00 0.00000000D+00 0.00000000D+00 0.00000000D+00 0.00000000D+00
  <mgrwgt>
 0.1513532867D-02    1    2    0
 0.535718938166825D+03 0.000000000000000D+00 0.000000000000000D+00 0.535718938166825D+03
 0.535718938166825D+03 0.000000000000000D+00 0.000000000000000D+00 -.535718938166825D+03
 0.538729904159042D+03 -.460461979190489D+03 0.249495191042806D+03 -.182160643856456D+02
 0.123610252531684D+03 0.111132487440869D+03 -.375971128638971D+02 0.389297042173610D+02
 0.409097719642924D+03 0.349329491749620D+03 -.211898078178909D+03 -.207136398317154D+02
 0.000000000000000D+00 0.000000000000000D+00 0.000000000000000D+00 0.000000000000000D+00
 0.861430584509430D+03 0.000000000000000D+00 0.000000000000000D+00 0.861430584509430D+03
 0.535838037071732D+03 0.000000000000000D+00 0.000000000000000D+00 -.535838037071732D+03
 0.542449973299266D+03 -.465704282819069D+03 0.247819832730655D+03 -.182160643856456D+02
 0.122655458370156D+03 0.109938421904900D+03 -.379787175481492D+02 0.389297042173610D+02
 0.406387969993853D+03 0.345375456275071D+03 -.213161726122288D+03 -.207136398317154D+02
 0.325775219917886D+03 0.103904046390971D+02 0.332061093978252D+01 0.325592547437698D+03
0.404642883226D-03 0.000000000000D+00 0.000000000000D+00 0.260387018942D-05 0.153053348803D-06  6 1 -1 25 2 -2 21 2 0.10655811D+00 0.10252756D+00 0.28902743D+06 0.28902743D+06 0.28902743D+06 0.10857511D+01  1  2  1  1  6  1        1 0.151353286742D-02 0.100000000000D+01
  </mgrwgt>
  </event>
  <event>
  7     66 0.31466189E-05 0.36840363E+02 0.75467711E-02 0.89263808E-01
        1 -1    0    0  503    0 0.00000000E+00 0.00000000E+00 0.10938659E+04 0.10938659E+04 0.32000000E+00 0.0000E+00 0.9000E+01
       -1 -1    0    0    0  501 0.00000000E+00 0.00000000E+00 -.82410506E+03 0.82410512E+03 0.32000000E+00 0.0000E+00 0.9000E+01
       23  2    1    2    0    0 0.24128091E+03 -.77350123E+03 -.30307582E+03 0.86926699E+03 0.85144118E+02 0.0000E+00 0.0000E+00
       25  1    1    2    0    0 -.24062263E+03 0.78456007E+03 0.48752541E+03 0.96267325E+03 0.12500000E+03 0.0000E+00 0.9000E+01
        2  1    3    3  502    0 0.42113543E+02 -.15602296E+03 -.97181662E+02 0.18857649E+03 0.32000000E+00 0.0000E+00 0.9000E+01
       -2  1    3    3    0  502 0.19916737E+03 -.61747826E+03 -.20589416E+03 0.68069050E+03 0.32000000E+00 0.0000E+00 0.9000E+01
       21  1    1    2  503  501 -.65828519E+00 -.11058849E+02 0.85311212E+02 0.86030790E+02 0.75000000E+00 0.0000E+00 0.9000E+01
#aMCatNLO 2  0  0  1  5 0.58158447D+03 0.00000000D+00  -5  6  0 0.00000000D+00 0.00000000D+00 0.00000000D+00 0.00000000D+00 0.00000000D+00
  <mgrwgt>
 0.3215315201D-03    1    2    0
 0.911298613887762D+03 0.000000000000000D+00 0.000000000000000D+00 0.911298613887762D+03
 0.911298613887762D+03 0.000000000000000D+00 0.000000000000000D+00 -.911298613887762D+03
 0.913596290796481D+03 -.240953436905827D+03 0.779002632776317D+03 0.392593328939660D+03
 0.200302401725650D+03 0.420391490137025D+02 -.157228955626566D+03 -.116759657415764D+03
 0.708698535253394D+03 0.198914287892124D+03 -.621773677149751D+03 -.275833671523896D+03
 0.000000000000000D+00 -.000000000000000D+00 -.000000000000000D+00 0.000000000000000D+00
 0.988752193168169D+03 0.000000000000000D+00 0.000000000000000D+00 0.988752193168169D+03
 0.911711679812906D+03 0.000000000000000D+00 0.000000000000000D+00 -.911711679812906D+03
 0.918252841358044D+03 -.240622626568097D+03 0.784560074384153D+03 0.392593328939660D+03
 0.199367278230505D+03 0.421113246418620D+02 -.156016442614555D+03 -.116759657415764D+03
 0.705010777266231D+03 0.199169587112413D+03 -.617484783038946D+03 -.275833671523896D+03
 0.778329761262941D+02 -.658285186178561D+00 -.110588487306525D+02 0.770405133552631D+02
0.339016072878D-03 0.000000000000D+00 0.000000000000D+00 0.881920873522D-06 0.431695366655D-07  6 1 -1 25 2 -2 21 2 0.16828673D+00 0.12678515D+00 0.68193330D+06 0.68193330D+06 0.68193330D+06 0.10591138D+01  1  2  1  1  6  1        1 0.321531520115D-03 0.100000000000D+01
  </mgrwgt>
  </event>
  <event>
  7     66 0.31466189E-05 0.49340603E+02 0.75467711E-02 0.91045599E-01
        1 -1    0    0  503    0 0.00000000E+00 0.00000000E+00 0.15246526E+04 0.15246527E+04 0.32000000E+00 0.0000E+00 0.9000E+01
       -1 -1    0    0    0  501 0.00000000E+00 0.00000000E+00 -.39128302E+03 0.39128315E+03 0.32000000E+00 0.0000E+00 0.9000E+01
       23  2    1    2    0    0 0.67531867E+03 -.54662779E+02 0.25927523E+03 0.73110436E+03 0.90810889E+02 0.0000E+00 0.0000E+00
       25  1    1    2    0    0 -.67679752E+03 0.71535171E+02 0.61671745E+03 0.92689674E+03 0.12500000E+03 0.0000E+00 0.9000E+01
        2  1    3    3  502    0 0.19206220E+03 -.40555588E+02 0.11053235E+03 0.22527793E+03 0.32000000E+00 0.0000E+00 0.9000E+01
       -2  1    3    3    0  502 0.48325647E+03 -.14107190E+02 0.14874288E+03 0.50582643E+03 0.32000000E+00 0.0000E+00 0.9000E+01
       21  1    1    2  503  501 0.14788494E+01 -.16872392E+02 0.25737695E+03 0.25793472E+03 0.75000000E+00 0.0000E+00 0.9000E+01
#aMCatNLO 2  0  0  1  5 0.58158447D+03 0.00000000D+00  -5  6  0 0.00000000D+00 0.00000000D+00 0.00000000D+00 0.00000000D+00 0.00000000D+00
  <mgrwgt>
 0.5071220604D-03    1    2    0
 0.703796422699729D+03 0.000000000000000D+00 0.000000000000000D+00 0.703796422699729D+03
 0.703796422699729D+03 0.000000000000000D+00 0.000000000000000D+00 -.703796422699729D+03
 0.706417344816819D+03 -.676054568666982D+03 0.630587718012079D+02 0.149580334741799D+03
 0.197250556962481D+03 0.192265443570101D+03 -.429160064377319D+02 -.999989111130764D+01
 0.503924943620157D+03 0.483789125096881D+03 -.201427653634760D+02 -.139580443630491D+03
 0.000000000000000D+00 0.000000000000000D+00 -.000000000000000D+00 0.000000000000000D+00
 0.846980231843128D+03 0.000000000000000D+00 0.000000000000000D+00 0.846980231843128D+03
 0.704348416405288D+03 0.000000000000000D+00 0.000000000000000D+00 -.704348416405288D+03
 0.707934627229580D+03 -.676797517137872D+03 0.715351709666483D+02 0.149580334741799D+03
 0.196548416116687D+03 0.192058583926483D+03 -.405559169036325D+02 -.999989111130764D+01
 0.503211697369150D+03 0.483260083781714D+03 -.141068617469142D+02 -.139580443630491D+03
 0.143633907533000D+03 0.147884942967395D+01 -.168723923161016D+02 0.142631815437841D+03
0.205506746507D-03 0.000000000000D+00 0.000000000000D+00 0.396107441615D-04 0.857547655322D-06  6 1 -1 25 2 -2 21 2 0.23456163D+00 0.60197316D-01 0.48208622D+06 0.48208622D+06 0.48208622D+06 0.10696321D+01  1  2  1  1  6  1        1 0.507122060357D-03 0.100000000000D+01
  </mgrwgt>
  </event>
  <event>
  7     66 0.31466189E-05 0.77967879E+02 0.75467711E-02 0.95035986E-01
        1 -1    0    0  501    0 0.00000000E+00 0.00000000E+00 0.31805614E+03 0.31805630E+03 0.32000000E+00 0.0000E+00 0.9000E+01
       -1 -1    0    0    0  503 0.00000000E+00 0.00000000E+00 -.89152633E+03 0.89152639E+03 0.32000000E+00 0.0000E+00 0.9000E+01
       23  2    1    2    0    0 -.39423334E+03 0.21513768E+03 -.39316233E+03 0.60773880E+03 0.11430522E+03 0.0000E+00 0.0000E+00
       25  1    1    2    0    0 0.41533035E+03 -.21406409E+03 -.69037477E+02 0.48858357E+03 0.12500000E+03 0.0000E+00 0.9000E+01
        2  1    3    3  502    0 -.22706502E+03 0.17812431E+03 -.28265613E+03 0.40395715E+03 0.32000000E+00 0.0000E+00 0.9000E+01
       -2  1    3    3    0  502 -.16716832E+03 0.37013375E+02 -.11050620E+03 0.20378165E+03 0.32000000E+00 0.0000E+00 0.9000E+01
       21  1    1    2  501  503 -.21097008E+02 -.10735952E+01 -.11127039E+03 0.11326031E+03 0.75000000E+00 0.0000E+00 0.9000E+01
#aMCatNLO 2  0  0  2  4 0.11866048D+03 0.00000000D+00  -5  6  0 0.00000000D+00 0.00000000D+00 0.00000000D+00 0.00000000D+00 0.00000000D+00
  <mgrwgt>
 0.1633757819D-03    1    2    0
 0.496952674783483D+03 0.000000000000000D+00 0.000000000000000D+00 0.496952674783483D+03
 0.496952674783483D+03 0.000000000000000D+00 0.000000000000000D+00 -.496952674783483D+03
 0.498240202216726D+03 0.404665843524151D+03 -.214606797261868D+03 0.151022437931768D+03
 0.318766683903191D+03 -.233781187891207D+03 0.177783602013673D+03 -.123901355157468D+03
 0.176898463447049D+03 -.170884655632944D+03 0.368231952481950D+02 -.271210827742996D+02
 0.000000000000000D+00 -.000000000000000D+00 -.000000000000000D+00 -.000000000000000D+00
 0.498622815240892D+03 0.000000000000000D+00 0.000000000000000D+00 0.498622815240892D+03
 0.568673079316855D+03 0.000000000000000D+00 0.000000000000000D+00 -.568673079316855D+03
 0.506710498878872D+03 0.415330369651051D+03 -.214064095449801D+03 0.151022437931768D+03
 0.314068384149625D+03 -.227065548895274D+03 0.178125350855479D+03 -.123901355157468D+03
 0.173350927533482D+03 -.167167812829640D+03 0.370123398290715D+02 -.271210827742996D+02
 0.731660839957677D+02 -.210970079261375D+02 -.107359523474865D+01 -.700502640759630D+02
0.293845747763D-04 0.000000000000D+00 0.000000000000D+00 0.714225613696D-07 0.102710712738D-08  6 1 -1 25 2 -2 21 2 0.48931542D-01 0.13715739D+00 0.23262175D+06 0.23262175D+06 0.23262175D+06 0.10928209D+01  1  2  1  2  6  2       -1 0.163375781898D-03 0.100000000000D+01
  </mgrwgt>
  </event>
  <event>
  7     66 0.31466189E-05 0.50588857E+02 0.75467711E-02 0.89265780E-01
        1 -1    0    0  501    0 0.00000000E+00 0.00000000E+00 0.71670471E+03 0.71670478E+03 0.32000000E+00 0.0000E+00 0.9000E+01
       -1 -1    0    0    0  501 -.00000000E+00 -.00000000E+00 -.11599702E+04 0.11599702E+04 0.32000000E+00 0.0000E+00 0.9000E+01
       23  2    1    2    0    0 0.24928125E+03 0.78028022E+03 0.17009413E+03 0.84574661E+03 0.12400382E+03 0.0000E+00 0.0000E+00
       25  1    1    2    0    0 -.24928125E+03 -.78028022E+03 -.61335959E+03 0.10309284E+04 0.12500000E+03 0.0000E+00 0.9000E+01
        2  1    3    3  503    0 0.43239269E+02 0.21040627E+03 0.80074961E+02 0.22924340E+03 0.32000000E+00 0.0000E+00 0.9000E+01
       -2  1    3    3    0  502 0.20829611E+03 0.55496749E+03 0.95561255E+02 0.60042338E+03 0.32000000E+00 0.0000E+00 0.9000E+01
       21  1    3    3  502  503 -.22541220E+01 0.14906452E+02 -.55420903E+01 0.16079821E+02 0.75000000E+00 0.0000E+00 0.9000E+01
#aMCatNLO 2  0  0  4  1 0.33723008D+01 0.00000000D+00  -5  6  0 0.00000000D+00 0.00000000D+00 0.00000000D+00 0.00000000D+00 0.00000000D+00
  <mgrwgt>
 0.1000389673D-03    1    2    0
 0.911787361117374D+03 0.000000000000000D+00 0.000000000000000D+00 0.911787361117374D+03
 0.911787361117374D+03 -.000000000000000D+00 -.000000000000000D+00 -.911787361117374D+03
 0.913848182559713D+03 -.249594273059502D+03 -.782001023130036D+03 -.381668179767670D+03
 0.269898721633304D+03 0.414889169735495D+02 0.228165497336684D+03 0.138074239207600D+03
 0.639827818041731D+03 0.208105356085952D+03 0.553835525793352D+03 0.243593940560070D+03
 0.000000000000000D+00 0.000000000000000D+00 0.000000000000000D+00 0.000000000000000D+00
 0.911787361117374D+03 0.000000000000000D+00 0.000000000000000D+00 0.911787361117374D+03
 0.911787361117374D+03 -.000000000000000D+00 -.000000000000000D+00 -.911787361117374D+03
 0.911849698020207D+03 -.249280477281828D+03 -.780275324439930D+03 -.380623874048711D+03
 0.255311701900796D+03 0.432260498105603D+02 0.210324883791839D+03 0.138126814931805D+03
 0.641226630362826D+03 0.208325540094027D+03 0.555046412877728D+03 0.244326708287413D+03
 0.151866919509206D+02 -.227111262275992D+01 0.149040277703633D+02 -.182964917050752D+01
0.140302434346D-03 0.000000000000D+00 0.000000000000D+00 0.189198195148D-04 0.697162634463D-06  6 1 -1 25 2 -2 21 2 0.11026227D+00 0.17845696D+00 0.68166620D+06 0.68166620D+06 0.68166620D+06 0.10591255D+01  1  2  1  3  6  4        2 0.100038967257D-03 0.100000000000D+01
  </mgrwgt>
  </event>
  <event>
  7     66 0.31466189E-05 0.25239733E+02 0.75467711E-02 0.94108961E-01
       21 -1    0    0  501  503 0.00000000E+00 0.00000000E+00 0.17695292E+03 0.17695451E+03 0.75000000E+00 0.0000E+00 0.9000E+01
       -1 -1    0    0    0  501 0.00000000E+00 0.00000000E+00 -.19905830E+04 0.19905831E+04 0.32000000E+00 0.0000E+00 0.9000E+01
       23  2    1    2    0    0 0.26398324E+03 -.42805763E+03 -.12535247E+04 0.13536942E+04 0.90793886E+02 0.0000E+00 0.0000E+00
       25  1    1    2    0    0 -.28348275E+03 0.39092258E+03 -.58201797E+03 0.76651996E+03 0.12500000E+03 0.0000E+00 0.9000E+01
        2  1    3    3  502    0 0.21803583E+03 -.38850284E+03 -.10326844E+04 0.11246827E+04 0.32000000E+00 0.0000E+00 0.9000E+01
       -2  1    3    3    0  502 0.45947409E+02 -.39554789E+02 -.22084025E+03 0.22901150E+03 0.32000000E+00 0.0000E+00 0.9000E+01
       -1  1    1    2    0  503 0.19499505E+02 0.37135053E+02 0.21912504E+02 0.47323388E+02 0.32000000E+00 0.0000E+00 0.9000E+01
#aMCatNLO 2  0  0  1  2 0.16743318D+01 0.00000000D+00  -5  6  0 0.00000000D+00 0.00000000D+00 0.00000000D+00 0.00000000D+00 0.00000000D+00
  <mgrwgt>
 0.6602900656D-05    1    2    0
 0.530172672574449D+03 0.000000000000000D+00 0.000000000000000D+00 0.530172672574449D+03
 0.530172672574449D+03 0.000000000000000D+00 0.000000000000000D+00 -.530172672574449D+03
 0.533653364212680D+03 -.273754513082192D+03 0.409449124933885D+03 0.163005502341237D+03
 0.451609036662506D+03 0.226424601881682D+03 -.372535592884500D+03 -.117897640740403D+03
 0.750829442737112D+02 0.473299112005103D+02 -.369135320493856D+02 -.451078616008342D+02
 0.000000000000000D+00 0.000000000000000D+00 0.000000000000000D+00 0.000000000000000D+00
 0.659632903308072D+03 0.000000000000000D+00 0.000000000000000D+00 0.659632903308072D+03
 0.533995471293784D+03 0.000000000000000D+00 0.000000000000000D+00 -.533995471293784D+03
 0.524765399320563D+03 -.283482746834624D+03 0.390922579007209D+03 0.163005502341237D+03
 0.460845133335955D+03 0.218037971032003D+03 -.388507176787673D+03 -.117897640740403D+03
 0.755640494890597D+02 0.459452709995627D+02 -.395504547352088D+02 -.451078616008342D+02
 0.132453792456279D+03 0.194995048030580D+02 0.371350525156730D+02 0.125637432014287D+03
0.211896654496D-05 0.000000000000D+00 0.000000000000D+00 0.224288381599D-04 0.256490510599D-08  6 21 -1 25 2 -2 -1 2 0.27223641D-01 0.30624356D+00 0.27399071D+06 0.27399071D+06 0.27399071D+06 0.10874779D+01  1  2  1  5  6  1        1 0.660290065582D-05 0.100000000000D+01
  </mgrwgt>
  </event>
  <event>
  6     66 0.31466189E-05 0.74615529E+02 0.75467711E-02 0.94726597E-01
        1 -1    0    0  501    0 0.00000000E+00 0.00000000E+00 0.68361044E+03 0.68361052E+03 0.32000000E+00 0.0000E+00 0.9000E+01
       -1 -1    0    0    0  501 0.00000000E+00 0.00000000E+00 -.39161334E+03 0.39161347E+03 0.32000000E+00 0.0000E+00 0.9000E+01
       25  1    1    2    0    0 0.39297885E+03 0.28278576E+03 0.26879872E+03 0.56769527E+03 0.12500000E+03 0.0000E+00 0.9000E+01
        2  1    1    2  502    0 -.19496690E+03 -.15409469E+03 0.46056254E+02 0.25274206E+03 0.32000000E+00 0.0000E+00 0.9000E+01
       -2  1    1    2    0  503 -.18111382E+03 -.13357213E+03 -.41839015E+02 0.22889809E+03 0.32000000E+00 0.0000E+00 0.9000E+01
       21  1    1    2  503  502 -.16898128E+02 0.48810658E+01 0.18981139E+02 0.25888563E+02 0.75000000E+00 0.0000E+00 0.9000E+01
#aMCatNLO 2  0  0  5  4 0.39527647D+00 0.00000000D+00  -5  6  0 0.00000000D+00 0.00000000D+00 0.00000000D+00 0.00000000D+00 0.00000000D+00
  <mgrwgt>
 0.2251400920D-02    1    2    0
 0.517408039120739D+03 0.000000000000000D+00 0.000000000000000D+00 0.517408039120739D+03
 0.517408039120739D+03 -.000000000000000D+00 -.000000000000000D+00 -.517408039120739D+03
 0.521952737041790D+03 0.399406983960050D+03 0.286963504613681D+03 0.122211570193605D+03
 0.245884863358584D+03 -.191924516794112D+03 -.152122441511539D+03 -.219797331827382D+02
 0.266978477841104D+03 -.207482467165937D+03 -.134841063102142D+03 -.100231837010867D+03
 0.000000000000000D+00 -.000000000000000D+00 0.000000000000000D+00 0.000000000000000D+00
 0.517408039120739D+03 0.000000000000000D+00 0.000000000000000D+00 0.517408039120739D+03
 0.517408039120739D+03 -.000000000000000D+00 -.000000000000000D+00 -.517408039120739D+03
 0.513994143620938D+03 0.392961850437722D+03 0.282774868012927D+03 0.119098017605055D+03
 0.249667007416631D+03 -.195007587976626D+03 -.154126102840365D+03 -.234691211415358D+02
 0.249566232898734D+03 -.181014559890440D+03 -.133547643205912D+03 -.108083582032990D+03
 0.215886943051758D+02 -.169397025706564D+02 0.489887803334941D+01 0.124546855694712D+02
0.195520442148D-03 0.000000000000D+00 0.000000000000D+00 0.641454786174D-06 0.171096463183D-06  6 1 -1 25 2 -2 21 2 0.10517085D+00 0.60248222D-01 0.24559368D+06 0.24559368D+06 0.24559368D+06 0.10910406D+01  1  2  1  4  6  5       -2 0.225140091987D-02 0.100000000000D+01
  </mgrwgt>
  </event>
</LesHouchesEvents>
