<event>
 5    0  0.2754780E-002  0.7198137E+03  0.7546771E-02  0.9683936E-01
          2   -1    0    0  503    0  0.00000000000E+00  0.00000000000E+00  0.27807532214E+04  0.27807532214E+04  0.00000000000E+00 0.  1.
         -2   -1    0    0    0  501 -0.00000000000E+00 -0.00000000000E+00 -0.83580519205E+02  0.83580519205E+02  0.00000000000E+00 0. -1.
         25    1    1    2    0    0 -0.48393341240E+02 -0.29402201522E+03  0.12903094305E+04  0.13301557380E+04  0.12500000000E+03 0.  0.
         21    1    1    2  502  501  0.42881436625E+01  0.47448712997E+02  0.12218345235E+04  0.12227630070E+04  0.00000000000E+00 0. -1.
         21    1    1    2  503  502  0.44105197578E+02  0.24657330222E+03  0.18502874825E+03  0.31141499563E+03  0.00000000000E+00 0. -1.
<mgrwt>
<rscale>  4 0.71981368E+03</rscale>
<asrwt>0</asrwt>
<pdfrwt beam="1">  1        2 0.42780812E+00 0.71981368E+03</pdfrwt>
<pdfrwt beam="2">  1       -2 0.12858544E-01 0.71981368E+03</pdfrwt>
<totfact> 0.11327309E+02</totfact>
</mgrwt>
</event>
<event>
 5    0  0.2754780E-002  0.4916096E+03  0.7546771E-02  0.1015992E+00
          1   -1    0    0  503    0  0.00000000000E+00  0.00000000000E+00  0.16702660610E+04  0.16702660610E+04  0.00000000000E+00 0. -1.
         -1   -1    0    0    0  501 -0.00000000000E+00 -0.00000000000E+00 -0.76443164036E+02  0.76443164036E+02  0.00000000000E+00 0.  1.
         25    1    1    2    0    0  0.17231732783E+03 -0.18270071122E+03  0.11467102209E+04  0.11805262141E+04  0.12500000000E+03 0.  0.
         21    1    1    2  502  501 -0.11646390917E+03  0.15702615055E+03  0.46309208825E+03  0.50266821692E+03  0.00000000000E+00 0.  1.
         21    1    1    2  503  502 -0.55853418663E+02  0.25674560672E+02 -0.15979412248E+02  0.63514794008E+02  0.00000000000E+00 0.  1.
<mgrwt>
<rscale>  4 0.49160962E+03</rscale>
<asrwt>0</asrwt>
<pdfrwt beam="1">  1        1 0.25696398E+00 0.49160962E+03</pdfrwt>
<pdfrwt beam="2">  1       -1 0.11760488E-01 0.49160962E+03</pdfrwt>
<totfact> 0.25433573E+02</totfact>
</mgrwt>
</event>
<event>
 5    0  0.2754780E-002  0.5758610E+03  0.7546771E-02  0.9956792E-01
         -1   -1    0    0    0  501 -0.00000000000E+00  0.00000000000E+00  0.83463636739E+02  0.83463636739E+02  0.00000000000E+00 0.  1.
          1   -1    0    0  502    0  0.00000000000E+00 -0.00000000000E+00 -0.11480777818E+04  0.11480777818E+04  0.00000000000E+00 0. -1.
         25    1    1    2    0    0 -0.26915961276E+03  0.82265327911E+02 -0.41864442387E+03  0.51971399342E+03  0.12500000000E+03 0.  0.
         21    1    1    2  502  503  0.24294338369E+03 -0.95394438539E+02 -0.51200673876E+03  0.57469338531E+03  0.00000000000E+00 0. -1.
         21    1    1    2  503  501  0.26216229068E+02  0.13129110628E+02 -0.13396298241E+03  0.13713403978E+03  0.00000000000E+00 0. -1.
<mgrwt>
<rscale>  4 0.57586103E+03</rscale>
<asrwt>0</asrwt>
<pdfrwt beam="1">  1        1 0.17662735E+00 0.57586103E+03</pdfrwt>
<pdfrwt beam="2">  1       -1 0.12840559E-01 0.57586103E+03</pdfrwt>
<totfact> 0.50358997E+02</totfact>
</mgrwt>
</event>
<event>
 5    0  0.2754780E-002  0.4529161E+03  0.7546771E-02  0.1026856E+00
         -2   -1    0    0    0  501 -0.00000000000E+00  0.00000000000E+00  0.42273587229E+03  0.42273587229E+03  0.00000000000E+00 0. -1.
          2   -1    0    0  502    0  0.00000000000E+00 -0.00000000000E+00 -0.19919366185E+03  0.19919366185E+03  0.00000000000E+00 0.  1.
         25    1    1    2    0    0  0.92379933816E+02  0.21234504934E+03  0.15236869085E+03  0.30408171616E+03  0.12500000000E+03 0.  0.
         21    1    1    2  502  503  0.13144099333E+02 -0.16339395147E+03 -0.26380657822E+02  0.16603099057E+03  0.00000000000E+00 0.  1.
         21    1    1    2  503  501 -0.10552403315E+03 -0.48951097874E+02  0.97554177410E+02  0.15181682741E+03  0.00000000000E+00 0.  1.
<mgrwt>
<rscale>  4 0.45291608E+03</rscale>
<asrwt>0</asrwt>
<pdfrwt beam="1">  1        2 0.30645179E-01 0.45291608E+03</pdfrwt>
<pdfrwt beam="2">  1       -2 0.65036288E-01 0.45291608E+03</pdfrwt>
<totfact> 0.38323291E+02</totfact>
</mgrwt>
</event>
<event>
 5    0  0.2754780E-002  0.4376737E+03  0.7546771E-02  0.1031463E+00
          2   -1    0    0  503    0  0.00000000000E+00  0.00000000000E+00  0.56207155936E+03  0.56207155936E+03  0.00000000000E+00 0.  1.
         -2   -1    0    0    0  501 -0.00000000000E+00 -0.00000000000E+00 -0.14741196323E+03  0.14741196323E+03  0.00000000000E+00 0. -1.
         25    1    1    2    0    0 -0.13813705533E+03  0.15396766109E+03  0.18681329622E+03  0.30547028392E+03  0.12500000000E+03 0.  0.
         21    1    1    2  502  501  0.28404193234E+02 -0.25842125259E+02  0.23211088526E+03  0.23526597011E+03  0.00000000000E+00 0.  1.
         21    1    1    2  503  502  0.10973286210E+03 -0.12812553583E+03 -0.42645853482E+01  0.16874726856E+03  0.00000000000E+00 0.  1.
<mgrwt>
<rscale>  4 0.43767369E+03</rscale>
<asrwt>0</asrwt>
<pdfrwt beam="1">  1        2 0.86472547E-01 0.43767369E+03</pdfrwt>
<pdfrwt beam="2">  1       -2 0.22678764E-01 0.43767369E+03</pdfrwt>
<totfact> 0.92103573E+02</totfact>
</mgrwt>
</event>
<event>
 5    0  0.2754780E-002  0.5543261E+03  0.7546771E-02  0.1000498E+00
         -2   -1    0    0    0  501 -0.00000000000E+00  0.00000000000E+00  0.60814529073E+02  0.60814529073E+02  0.00000000000E+00 0. -1.
          2   -1    0    0  503    0  0.00000000000E+00 -0.00000000000E+00 -0.13912416274E+04  0.13912416274E+04  0.00000000000E+00 0.  1.
         25    1    1    2    0    0 -0.21342756442E+03  0.16478529272E+03 -0.68810914758E+03  0.74954967609E+03  0.12500000000E+03 0.  0.
         21    1    1    2  502  501  0.21561608565E+02  0.62539565524E+01 -0.23855564187E+02  0.32758249025E+02  0.00000000000E+00 0.  1.
         21    1    1    2  503  502  0.19186595586E+03 -0.17103924927E+03 -0.61846238652E+03  0.66974823131E+03  0.00000000000E+00 0.  1.
<mgrwt>
<rscale>  4 0.55432606E+03</rscale>
<asrwt>0</asrwt>
<pdfrwt beam="1">  1        2 0.21403719E+00 0.55432606E+03</pdfrwt>
<pdfrwt beam="2">  1       -2 0.93560806E-02 0.55432606E+03</pdfrwt>
<totfact> 0.11389996E+03</totfact>
</mgrwt>
</event>
<event>
 5    0  0.2754780E-002  0.3767528E+03  0.7546771E-02  0.1052141E+00
         -2   -1    0    0    0  501 -0.00000000000E+00  0.00000000000E+00  0.32242095964E+03  0.32242095964E+03  0.00000000000E+00 0. -1.
          2   -1    0    0  503    0  0.00000000000E+00 -0.00000000000E+00 -0.32646474222E+03  0.32646474222E+03  0.00000000000E+00 0.  1.
         25    1    1    2    0    0  0.70922904523E+02  0.20942402790E+03 -0.10711427627E+03  0.27565730542E+03  0.12500000000E+03 0.  0.
         21    1    1    2  502  501 -0.72793968192E+02 -0.94820271853E+02 -0.89360101758E+02  0.14924836195E+03  0.00000000000E+00 0.  1.
         21    1    1    2  503  502  0.18710636694E+01 -0.11460375605E+03  0.19243059546E+03  0.22398003449E+03  0.00000000000E+00 0.  1.
<mgrwt>
<rscale>  4 0.37675276E+03</rscale>
<asrwt>0</asrwt>
<pdfrwt beam="1">  1        2 0.50225345E-01 0.37675276E+03</pdfrwt>
<pdfrwt beam="2">  1       -2 0.49603225E-01 0.37675276E+03</pdfrwt>
<totfact> 0.39028106E+02</totfact>
</mgrwt>
</event>
<event>
 5    0  0.2754780E-002  0.4940112E+03  0.7546771E-02  0.1015354E+00
         -2   -1    0    0    0  501 -0.00000000000E+00  0.00000000000E+00  0.49024062855E+02  0.49024062855E+02  0.00000000000E+00 0. -1.
          2   -1    0    0  502    0  0.00000000000E+00 -0.00000000000E+00 -0.25511827109E+04  0.25511827109E+04  0.00000000000E+00 0.  1.
         25    1    1    2    0    0 -0.13440135782E+03 -0.20490088387E+03 -0.10544878763E+04  0.10897787750E+04  0.12500000000E+03 0.  0.
         21    1    1    2  502  503  0.96293212304E+02  0.12656360854E+03 -0.18170851805E+03  0.24147197617E+03  0.00000000000E+00 0. -1.
         21    1    1    2  503  501  0.38108145512E+02  0.78337275323E+02 -0.12659622537E+04  0.12689560226E+04  0.00000000000E+00 0. -1.
<mgrwt>
<rscale>  4 0.49401117E+03</rscale>
<asrwt>0</asrwt>
<pdfrwt beam="1">  1        2 0.39248973E+00 0.49401117E+03</pdfrwt>
<pdfrwt beam="2">  1       -2 0.75421619E-02 0.49401117E+03</pdfrwt>
<totfact> 0.37543293E+02</totfact>
</mgrwt>
</event>
<event>
 5    0  0.2754780E-002  0.4625950E+03  0.7546771E-02  0.1024031E+00
          1   -1    0    0  503    0  0.00000000000E+00  0.00000000000E+00  0.72557494584E+03  0.72557494584E+03  0.00000000000E+00 0.  1.
         -1   -1    0    0    0  501 -0.00000000000E+00 -0.00000000000E+00 -0.10260585493E+03  0.10260585493E+03  0.00000000000E+00 0. -1.
         25    1    1    2    0    0 -0.21504472070E+03 -0.29715632064E+02  0.19133833007E+03  0.31521834852E+03  0.12500000000E+03 0.  0.
         21    1    1    2  502  501  0.12402174149E+02 -0.19122680408E+02  0.20022359598E+03  0.20151669712E+03  0.00000000000E+00 0.  1.
         21    1    1    2  503  502  0.20264254655E+03  0.48838312472E+02  0.23140716486E+03  0.31144575512E+03  0.00000000000E+00 0.  1.
<mgrwt>
<rscale>  4 0.46259501E+03</rscale>
<asrwt>0</asrwt>
<pdfrwt beam="1">  1        1 0.11162691E+00 0.46259501E+03</pdfrwt>
<pdfrwt beam="2">  1       -1 0.15785517E-01 0.46259501E+03</pdfrwt>
<totfact> 0.78928464E+02</totfact>
</mgrwt>
</event>
<event>
 5    0  0.2754780E-002  0.4599070E+03  0.7546771E-02  0.1024808E+00
          2   -1    0    0  503    0  0.00000000000E+00  0.00000000000E+00  0.78065723026E+03  0.78065723026E+03  0.00000000000E+00 0. -1.
         -2   -1    0    0    0  501 -0.00000000000E+00 -0.00000000000E+00 -0.67736012280E+02  0.67736012280E+02  0.00000000000E+00 0.  1.
         25    1    1    2    0    0 -0.16588086813E+03  0.11287758301E+03  0.30052348559E+03  0.38235739374E+03  0.12500000000E+03 0.  0.
         21    1    1    2  502  501  0.40156397668E+02 -0.67962753584E+02  0.10918516544E+03  0.13473259628E+03  0.00000000000E+00 0.  1.
         21    1    1    2  503  502  0.12572447046E+03 -0.44914829426E+02  0.30321256696E+03  0.33130325253E+03  0.00000000000E+00 0. -1.
<mgrwt>
<rscale>  4 0.45990698E+03</rscale>
<asrwt>0</asrwt>
<pdfrwt beam="1">  1        2 0.12010111E+00 0.45990698E+03</pdfrwt>
<pdfrwt beam="2">  1       -2 0.10420926E-01 0.45990698E+03</pdfrwt>
<totfact> 0.22823918E+03</totfact>
</mgrwt>
</event>
<event>
 5    0  0.2754780E-002  0.5080736E+03  0.7546771E-02  0.1011693E+00
         -2   -1    0    0    0  501 -0.00000000000E+00  0.00000000000E+00  0.79074150831E+02  0.79074150831E+02  0.00000000000E+00 0. -1.
          2   -1    0    0  502    0  0.00000000000E+00 -0.00000000000E+00 -0.11359778537E+04  0.11359778537E+04  0.00000000000E+00 0.  1.
         25    1    1    2    0    0 -0.21519233465E+02 -0.24278570491E+03 -0.37844452404E+03  0.46717580598E+03  0.12500000000E+03 0.  0.
         21    1    1    2  502  503  0.47943438380E+02  0.22845945736E+03 -0.36686667116E+03  0.43483726997E+03  0.00000000000E+00 0.  1.
         21    1    1    2  503  501 -0.26424204915E+02  0.14326247552E+02 -0.31159250764E+03  0.31303892855E+03  0.00000000000E+00 0.  1.
<mgrwt>
<rscale>  4 0.50807363E+03</rscale>
<asrwt>0</asrwt>
<pdfrwt beam="1">  1        2 0.17476582E+00 0.50807363E+03</pdfrwt>
<pdfrwt beam="2">  1       -2 0.12165254E-01 0.50807363E+03</pdfrwt>
<totfact> 0.10440278E+03</totfact>
</mgrwt>
</event>
<event>
 5    0  0.2754780E-002  0.1404572E+04  0.7546771E-02  0.8950516E-01
          2   -1    0    0  502    0  0.00000000000E+00  0.00000000000E+00  0.26917993030E+04  0.26917993030E+04  0.00000000000E+00 0.  1.
         -2   -1    0    0    0  501 -0.00000000000E+00 -0.00000000000E+00 -0.43764757318E+03  0.43764757318E+03  0.00000000000E+00 0. -1.
         25    1    1    2    0    0 -0.25428988604E+03  0.14966263677E+03 -0.35412402282E+03  0.47758881323E+03  0.12500000000E+03 0.  0.
         21    1    1    2  502  503  0.28289149453E+03 -0.10486364592E+03  0.10450396272E+04  0.10877186237E+04  0.00000000000E+00 0.  1.
         21    1    1    2  503  501 -0.28601608494E+02 -0.44798990851E+02  0.15632361255E+04  0.15641394393E+04  0.00000000000E+00 0.  1.
<mgrwt>
<rscale>  4 0.14045722E+04</rscale>
<asrwt>0</asrwt>
<pdfrwt beam="1">  1        2 0.41412296E+00 0.14045722E+04</pdfrwt>
<pdfrwt beam="2">  1       -2 0.67330397E-01 0.14045722E+04</pdfrwt>
<totfact> 0.52716823E+00</totfact>
</mgrwt>
</event>
<event>
 5    0  0.2754780E-002  0.4973824E+03  0.7546771E-02  0.1014464E+00
         -3   -1    0    0    0  501 -0.00000000000E+00  0.00000000000E+00  0.11108329123E+04  0.11108329123E+04  0.00000000000E+00 0. -1.
          3   -1    0    0  502    0  0.00000000000E+00 -0.00000000000E+00 -0.55676526829E+02  0.55676526829E+02  0.00000000000E+00 0.  1.
         25    1    1    2    0    0  0.44424462635E+02 -0.19880432219E+03  0.77502273447E+03  0.81103756408E+03  0.12500000000E+03 0.  0.
         21    1    1    2  502  503 -0.51228452357E+02  0.88344379214E+02  0.93324842340E+02  0.13834236469E+03  0.00000000000E+00 0.  1.
         21    1    1    2  503  501  0.68039897221E+01  0.11045994297E+03  0.18680880866E+03  0.21712951037E+03  0.00000000000E+00 0.  1.
<mgrwt>
<rscale>  4 0.49738242E+03</rscale>
<asrwt>0</asrwt>
<pdfrwt beam="1">  1        3 0.85656203E-02 0.49738242E+03</pdfrwt>
<pdfrwt beam="2">  1       -3 0.17089735E+00 0.49738242E+03</pdfrwt>
<totfact> 0.60039206E+01</totfact>
</mgrwt>
</event>
<event>
 5    0  0.2754780E-002  0.5955437E+03  0.7546771E-02  0.9914695E-01
          2   -1    0    0  503    0  0.00000000000E+00  0.00000000000E+00  0.35803865701E+04  0.35803865701E+04  0.00000000000E+00 0. -1.
         -2   -1    0    0    0  501 -0.00000000000E+00 -0.00000000000E+00 -0.26967010988E+02  0.26967010988E+02  0.00000000000E+00 0.  1.
         25    1    1    2    0    0 -0.17220562596E+03  0.11238806129E+03  0.28920733146E+04  0.29020680404E+04  0.12500000000E+03 0.  0.
         21    1    1    2  502  501 -0.29787584218E+01 -0.21365293515E+02  0.22881922325E+03  0.22983382192E+03  0.00000000000E+00 0. -1.
         21    1    1    2  503  502  0.17518438439E+03 -0.91022767771E+02  0.43252702125E+03  0.47545171879E+03  0.00000000000E+00 0.  1.
<mgrwt>
<rscale>  4 0.59554373E+03</rscale>
<asrwt>0</asrwt>
<pdfrwt beam="1">  1        2 0.55082833E+00 0.59554373E+03</pdfrwt>
<pdfrwt beam="2">  1       -2 0.41487738E-02 0.59554373E+03</pdfrwt>
<totfact> 0.21695315E+02</totfact>
</mgrwt>
</event>
<event>
 5    0  0.2754780E-002  0.6184492E+03  0.7546771E-02  0.9867852E-01
          2   -1    0    0  502    0  0.00000000000E+00  0.00000000000E+00  0.92378605701E+03  0.92378605701E+03  0.00000000000E+00 0.  1.
         -2   -1    0    0    0  501 -0.00000000000E+00 -0.00000000000E+00 -0.12013986939E+03  0.12013986939E+03  0.00000000000E+00 0. -1.
         25    1    1    2    0    0  0.32968687523E+02  0.29976955583E+03  0.33042544887E+03  0.46449402388E+03  0.12500000000E+03 0.  0.
         21    1    1    2  502  503 -0.66215422305E+02 -0.28185429797E+03  0.37197803355E+03  0.47137456961E+03  0.00000000000E+00 0. -1.
         21    1    1    2  503  501  0.33246734782E+02 -0.17915257864E+02  0.10124270521E+03  0.10805733291E+03  0.00000000000E+00 0.  1.
<mgrwt>
<rscale>  4 0.61844917E+03</rscale>
<asrwt>0</asrwt>
<pdfrwt beam="1">  1        2 0.14212093E+00 0.61844917E+03</pdfrwt>
<pdfrwt beam="2">  1       -2 0.18483057E-01 0.61844917E+03</pdfrwt>
<totfact> 0.69789722E+02</totfact>
</mgrwt>
</event>
<event>
 5    0  0.2754780E-002  0.5115467E+03  0.7546771E-02  0.1010808E+00
         -1   -1    0    0    0  501 -0.00000000000E+00  0.00000000000E+00  0.14601483038E+03  0.14601483038E+03  0.00000000000E+00 0. -1.
          1   -1    0    0  503    0  0.00000000000E+00 -0.00000000000E+00 -0.59915027403E+03  0.59915027403E+03  0.00000000000E+00 0.  1.
         25    1    1    2    0    0 -0.15038925996E+03 -0.13817628786E+03 -0.30713681945E+03  0.38944530027E+03  0.12500000000E+03 0.  0.
         21    1    1    2  502  501 -0.16468575689E+02  0.16494298156E+02 -0.14736936644E+03  0.14920122661E+03  0.00000000000E+00 0. -1.
         21    1    1    2  503  502  0.16685783565E+03  0.12168198970E+03  0.13707422456E+01  0.20651857754E+03  0.00000000000E+00 0. -1.
<mgrwt>
<rscale>  4 0.51154672E+03</rscale>
<asrwt>0</asrwt>
<pdfrwt beam="1">  1        1 0.92176964E-01 0.51154672E+03</pdfrwt>
<pdfrwt beam="2">  1       -1 0.22463820E-01 0.51154672E+03</pdfrwt>
<totfact> 0.58392490E+02</totfact>
</mgrwt>
</event>
<event>
 5    0  0.2754780E-002  0.5536987E+03  0.7546771E-02  0.1000641E+00
          1   -1    0    0  503    0  0.00000000000E+00  0.00000000000E+00  0.21027999281E+03  0.21027999281E+03  0.00000000000E+00 0. -1.
         -1   -1    0    0    0  501 -0.00000000000E+00 -0.00000000000E+00 -0.58971526624E+03  0.58971526624E+03  0.00000000000E+00 0.  1.
         25    1    1    2    0    0 -0.95056363061E+02 -0.21624079964E+03 -0.13815104465E+03  0.30084299348E+03  0.12500000000E+03 0.  0.
         21    1    1    2  502  501  0.17659524569E+03  0.21423151827E+03 -0.38135910492E+02  0.28024163126E+03  0.00000000000E+00 0. -1.
         21    1    1    2  503  502 -0.81538882627E+02  0.20092813643E+01 -0.20314831829E+03  0.21891063432E+03  0.00000000000E+00 0.  1.
<mgrwt>
<rscale>  4 0.55369870E+03</rscale>
<asrwt>0</asrwt>
<pdfrwt beam="1">  1        1 0.32350768E-01 0.55369870E+03</pdfrwt>
<pdfrwt beam="2">  1       -1 0.90725426E-01 0.55369870E+03</pdfrwt>
<totfact> 0.16923534E+02</totfact>
</mgrwt>
</event>
<event>
 5    0  0.2754780E-002  0.9700023E+03  0.7546771E-02  0.9342072E-01
         -2   -1    0    0    0  501 -0.00000000000E+00  0.00000000000E+00  0.30558950169E+03  0.30558950169E+03  0.00000000000E+00 0. -1.
          2   -1    0    0  503    0  0.00000000000E+00 -0.00000000000E+00 -0.97155599405E+03  0.97155599405E+03  0.00000000000E+00 0.  1.
         25    1    1    2    0    0 -0.49413030859E+03 -0.75477608699E+02 -0.20551297274E+03  0.55472715207E+03  0.12500000000E+03 0.  0.
         21    1    1    2  502  501  0.49323919089E+02  0.14764023338E+01 -0.19067598922E+03  0.19695776609E+03  0.00000000000E+00 0. -1.
         21    1    1    2  503  502  0.44480638950E+03  0.74001206365E+02 -0.26977753040E+03  0.52546057758E+03  0.00000000000E+00 0. -1.
<mgrwt>
<rscale>  4 0.97000230E+03</rscale>
<asrwt>0</asrwt>
<pdfrwt beam="1">  1        2 0.14947015E+00 0.97000230E+03</pdfrwt>
<pdfrwt beam="2">  1       -2 0.47013770E-01 0.97000230E+03</pdfrwt>
<totfact> 0.11261737E+02</totfact>
</mgrwt>
</event>
<event>
 5    0  0.2754780E-002  0.5513063E+03  0.7546771E-02  0.1001192E+00
          2   -1    0    0  503    0  0.00000000000E+00  0.00000000000E+00  0.20418538109E+04  0.20418538109E+04  0.00000000000E+00 0.  1.
         -2   -1    0    0    0  501 -0.00000000000E+00 -0.00000000000E+00 -0.42979989496E+02  0.42979989496E+02  0.00000000000E+00 0. -1.
         25    1    1    2    0    0  0.22949455415E+03 -0.13331939642E+03  0.92367276815E+03  0.96914302065E+03  0.12500000000E+03 0.  0.
         21    1    1    2  502  501  0.40561841656E+01  0.23891217650E+02  0.24880769584E+03  0.24998502440E+03  0.00000000000E+00 0. -1.
         21    1    1    2  503  502 -0.23355073832E+03  0.10942817877E+03  0.82639335740E+03  0.86570575534E+03  0.00000000000E+00 0. -1.
<mgrwt>
<rscale>  4 0.55130626E+03</rscale>
<asrwt>0</asrwt>
<pdfrwt beam="1">  1        2 0.31413128E+00 0.55130626E+03</pdfrwt>
<pdfrwt beam="2">  1       -2 0.66123077E-02 0.55130626E+03</pdfrwt>
<totfact> 0.87556074E+02</totfact>
</mgrwt>
</event>
<event>
 5    0  0.2754780E-002  0.6148782E+03  0.7546771E-02  0.9875010E-01
          2   -1    0    0  502    0  0.00000000000E+00  0.00000000000E+00  0.19492212768E+04  0.19492212768E+04  0.00000000000E+00 0. -1.
         -2   -1    0    0    0  501 -0.00000000000E+00 -0.00000000000E+00 -0.48490542780E+02  0.48490542780E+02  0.00000000000E+00 0.  1.
         25    1    1    2    0    0 -0.20709154731E+03 -0.51978058847E+02  0.34169030516E+03  0.42186003865E+03  0.12500000000E+03 0.  0.
         21    1    1    2  502  503  0.12686704027E+03  0.70259674018E+02  0.10966583940E+04  0.11062058130E+04  0.00000000000E+00 0. -1.
         21    1    1    2  503  501  0.80224507044E+02 -0.18281615171E+02  0.46238203494E+03  0.46964596796E+03  0.00000000000E+00 0.  1.
<mgrwt>
<rscale>  4 0.61487819E+03</rscale>
<asrwt>0</asrwt>
<pdfrwt beam="1">  1        2 0.29988013E+00 0.61487819E+03</pdfrwt>
<pdfrwt beam="2">  1       -2 0.74600850E-02 0.61487819E+03</pdfrwt>
<totfact> 0.80857378E+02</totfact>
</mgrwt>
</event>
<event>
 5    0  0.2754780E-002  0.4844234E+03  0.7546771E-02  0.1017927E+00
          2   -1    0    0  503    0  0.00000000000E+00  0.00000000000E+00  0.79824465692E+03  0.79824465692E+03  0.00000000000E+00 0. -1.
         -2   -1    0    0    0  501 -0.00000000000E+00 -0.00000000000E+00 -0.10947773521E+03  0.10947773521E+03  0.00000000000E+00 0.  1.
         25    1    1    2    0    0 -0.13684243255E+03  0.15744171108E+03  0.30511042003E+03  0.39016805628E+03  0.12500000000E+03 0.  0.
         21    1    1    2  502  501 -0.21701423855E+02  0.23290272821E+01  0.25966017877E+03  0.26057587111E+03  0.00000000000E+00 0.  1.
         21    1    1    2  503  502  0.15854385641E+03 -0.15977073837E+03  0.12399632291E+03  0.25697846473E+03  0.00000000000E+00 0. -1.
<mgrwt>
<rscale>  4 0.48442339E+03</rscale>
<asrwt>0</asrwt>
<pdfrwt beam="1">  1        2 0.12280687E+00 0.48442339E+03</pdfrwt>
<pdfrwt beam="2">  1       -2 0.16842729E-01 0.48442339E+03</pdfrwt>
<totfact> 0.10006445E+03</totfact>
</mgrwt>
</event>
<event>
 5    0  0.2754780E-002  0.4804088E+03  0.7546771E-02  0.1019023E+00
         -2   -1    0    0    0  501 -0.00000000000E+00  0.00000000000E+00  0.53772128382E+02  0.53772128382E+02  0.00000000000E+00 0.  1.
          2   -1    0    0  502    0  0.00000000000E+00 -0.00000000000E+00 -0.10730124424E+04  0.10730124424E+04  0.00000000000E+00 0. -1.
         25    1    1    2    0    0 -0.15936945376E+03 -0.15035526283E+03 -0.62450079405E+03  0.67352176626E+03  0.12500000000E+03 0.  0.
         21    1    1    2  502  503  0.14724906078E+03  0.12239439731E+03 -0.32602892121E+03  0.37809725186E+03  0.00000000000E+00 0.  1.
         21    1    1    2  503  501  0.12120392975E+02  0.27960865521E+02 -0.68710598769E+02  0.75165552680E+02  0.00000000000E+00 0.  1.
<mgrwt>
<rscale>  4 0.48040884E+03</rscale>
<asrwt>0</asrwt>
<pdfrwt beam="1">  1        2 0.16507884E+00 0.48040884E+03</pdfrwt>
<pdfrwt beam="2">  1       -2 0.82726352E-02 0.48040884E+03</pdfrwt>
<totfact> 0.21264229E+03</totfact>
</mgrwt>
</event>
<event>
 5    0  0.2754780E-002  0.7044723E+03  0.7546771E-02  0.9709614E-01
          2   -1    0    0  503    0  0.00000000000E+00  0.00000000000E+00  0.92339238330E+03  0.92339238330E+03  0.00000000000E+00 0. -1.
         -2   -1    0    0    0  501 -0.00000000000E+00 -0.00000000000E+00 -0.15969002909E+03  0.15969002909E+03  0.00000000000E+00 0.  1.
         25    1    1    2    0    0  0.23038086550E+03  0.24047629737E+03  0.43929074835E+03  0.56524822367E+03  0.12500000000E+03 0.  0.
         21    1    1    2  502  501  0.26408483921E+02 -0.33224563903E+02  0.12560920006E+03  0.13258563575E+03  0.00000000000E+00 0. -1.
         21    1    1    2  503  502 -0.25678934942E+03 -0.20725173347E+03  0.19880240582E+03  0.38524855296E+03  0.00000000000E+00 0.  1.
<mgrwt>
<rscale>  4 0.70447232E+03</rscale>
<asrwt>0</asrwt>
<pdfrwt beam="1">  1        2 0.14206036E+00 0.70447232E+03</pdfrwt>
<pdfrwt beam="2">  1       -2 0.24567697E-01 0.70447232E+03</pdfrwt>
<totfact> 0.42161585E+02</totfact>
</mgrwt>
</event>
<event>
 5    0  0.2754780E-002  0.4925742E+03  0.7546771E-02  0.1015736E+00
         -1   -1    0    0    0  501 -0.00000000000E+00  0.00000000000E+00  0.52014227635E+03  0.52014227635E+03  0.00000000000E+00 0. -1.
          1   -1    0    0  502    0  0.00000000000E+00 -0.00000000000E+00 -0.15052319604E+03  0.15052319604E+03  0.00000000000E+00 0.  1.
         25    1    1    2    0    0  0.22837524091E+03  0.51070116209E+02  0.18512105754E+03  0.32350921683E+03  0.12500000000E+03 0.  0.
         21    1    1    2  502  503 -0.20976670253E+03 -0.83071653711E+02  0.20499880367E+03  0.30484008701E+03  0.00000000000E+00 0.  1.
         21    1    1    2  503  501 -0.18608538375E+02  0.32001537502E+02 -0.20500780910E+02  0.42316168551E+02  0.00000000000E+00 0.  1.
<mgrwt>
<rscale>  4 0.49257420E+03</rscale>
<asrwt>0</asrwt>
<pdfrwt beam="1">  1        1 0.23157415E-01 0.49257420E+03</pdfrwt>
<pdfrwt beam="2">  1       -1 0.80021888E-01 0.49257420E+03</pdfrwt>
<totfact> 0.34265864E+02</totfact>
</mgrwt>
</event>
<event>
 5    0  0.2754780E-002  0.5866191E+03  0.7546771E-02  0.9933563E-01
         -2   -1    0    0    0  501 -0.00000000000E+00  0.00000000000E+00  0.11010809124E+03  0.11010809124E+03  0.00000000000E+00 0. -1.
          2   -1    0    0  502    0  0.00000000000E+00 -0.00000000000E+00 -0.19936847316E+04  0.19936847316E+04  0.00000000000E+00 0.  1.
         25    1    1    2    0    0  0.73890912475E+02  0.20832617307E+03 -0.16520295867E+03  0.30294666014E+03  0.12500000000E+03 0.  0.
         21    1    1    2  502  503 -0.12698627595E+03 -0.26965536820E+03 -0.51721434705E+03  0.59695076235E+03  0.00000000000E+00 0.  1.
         21    1    1    2  503  501  0.53095363475E+02  0.61329195126E+02 -0.12011593346E+04  0.12038954003E+04  0.00000000000E+00 0.  1.
<mgrwt>
<rscale>  4 0.58661912E+03</rscale>
<asrwt>0</asrwt>
<pdfrwt beam="1">  1        2 0.30672071E+00 0.58661912E+03</pdfrwt>
<pdfrwt beam="2">  1       -2 0.16939707E-01 0.58661912E+03</pdfrwt>
<totfact> 0.19961138E+02</totfact>
</mgrwt>
</event>
<event>
 5    0  0.2754780E-002  0.4860994E+03  0.7546771E-02  0.1017472E+00
          2   -1    0    0  503    0  0.00000000000E+00  0.00000000000E+00  0.25363313226E+03  0.25363313226E+03  0.00000000000E+00 0.  1.
         -2   -1    0    0    0  501 -0.00000000000E+00 -0.00000000000E+00 -0.28156018414E+03  0.28156018414E+03  0.00000000000E+00 0. -1.
         25    1    1    2    0    0  0.25136279367E+02  0.22073455014E+03  0.84938626027E+02  0.26869154128E+03  0.12500000000E+03 0.  0.
         21    1    1    2  502  501 -0.25721350895E+02 -0.39092687259E+02  0.91508300300E+01  0.47681902010E+02  0.00000000000E+00 0.  1.
         21    1    1    2  503  502  0.58507152796E+00 -0.18164186288E+03 -0.12201650793E+03  0.21881987311E+03  0.00000000000E+00 0. -1.
<mgrwt>
<rscale>  4 0.48609938E+03</rscale>
<asrwt>0</asrwt>
<pdfrwt beam="1">  1        2 0.39020482E-01 0.48609938E+03</pdfrwt>
<pdfrwt beam="2">  1       -2 0.43316951E-01 0.48609938E+03</pdfrwt>
<totfact> 0.67318203E+02</totfact>
</mgrwt>
</event>
<event>
 5    0  0.2754780E-002  0.5284218E+03  0.7546771E-02  0.1006616E+00
         -4   -1    0    0    0  501 -0.00000000000E+00  0.00000000000E+00  0.55963371043E+03  0.55963371043E+03  0.00000000000E+00 0.  1.
          4   -1    0    0  502    0  0.00000000000E+00 -0.00000000000E+00 -0.68719267330E+03  0.68719267330E+03  0.00000000000E+00 0. -1.
         25    1    1    2    0    0 -0.22889557515E+03 -0.63925970610E+02  0.68610007909E+02  0.27714986420E+03  0.12500000000E+03 0.  0.
         21    1    1    2  502  503  0.15856414067E+03  0.84546509738E+02  0.36336119221E+03  0.40536656870E+03  0.00000000000E+00 0.  1.
         21    1    1    2  503  501  0.70331434484E+02 -0.20620539129E+02 -0.55953016299E+03  0.56430995083E+03  0.00000000000E+00 0. -1.
<mgrwt>
<rscale>  4 0.52842177E+03</rscale>
<asrwt>0</asrwt>
<pdfrwt beam="1">  1        4 0.10572195E+00 0.52842177E+03</pdfrwt>
<pdfrwt beam="2">  1       -4 0.86097495E-01 0.52842177E+03</pdfrwt>
<totfact> 0.16529730E+00</totfact>
</mgrwt>
</event>
<event>
 5    0  0.2754780E-002  0.4523067E+03  0.7546771E-02  0.1027036E+00
          2   -1    0    0  503    0  0.00000000000E+00  0.00000000000E+00  0.96183760353E+03  0.96183760353E+03  0.00000000000E+00 0.  1.
         -2   -1    0    0    0  501 -0.00000000000E+00 -0.00000000000E+00 -0.68557401505E+02  0.68557401505E+02  0.00000000000E+00 0. -1.
         25    1    1    2    0    0 -0.48823208256E+02 -0.19697478802E+03  0.29624979920E+03  0.38022587538E+03  0.12500000000E+03 0.  0.
         21    1    1    2  502  501  0.20231359186E+02 -0.85456790330E+01  0.20892362648E+03  0.21007479198E+03  0.00000000000E+00 0.  1.
         21    1    1    2  503  502  0.28591849070E+02  0.20552046705E+03  0.38810677634E+03  0.44009433767E+03  0.00000000000E+00 0.  1.
<mgrwt>
<rscale>  4 0.45230668E+03</rscale>
<asrwt>0</asrwt>
<pdfrwt beam="1">  1        2 0.14797501E+00 0.45230668E+03</pdfrwt>
<pdfrwt beam="2">  1       -2 0.10547293E-01 0.45230668E+03</pdfrwt>
<totfact> 0.16888096E+03</totfact>
</mgrwt>
</event>
<event>
 5    0  0.2754780E-002  0.7582219E+03  0.7546771E-02  0.9622539E-01
          2   -1    0    0  502    0  0.00000000000E+00  0.00000000000E+00  0.11751618311E+04  0.11751618311E+04  0.00000000000E+00 0.  1.
         -2   -1    0    0    0  501 -0.00000000000E+00 -0.00000000000E+00 -0.17508246653E+03  0.17508246653E+03  0.00000000000E+00 0. -1.
         25    1    1    2    0    0 -0.72075318871E+02  0.30150114374E+03  0.12431591837E+03  0.35661917899E+03  0.12500000000E+03 0.  0.
         21    1    1    2  502  503  0.44589365213E+02 -0.20293339359E+03  0.86629105397E+03  0.89085934014E+03  0.00000000000E+00 0. -1.
         21    1    1    2  503  501  0.27485953658E+02 -0.98567750142E+02  0.94723922249E+01  0.10276577850E+03  0.00000000000E+00 0. -1.
<mgrwt>
<rscale>  4 0.75822192E+03</rscale>
<asrwt>0</asrwt>
<pdfrwt beam="1">  1        2 0.18079412E+00 0.75822192E+03</pdfrwt>
<pdfrwt beam="2">  1       -2 0.26935765E-01 0.75822192E+03</pdfrwt>
<totfact> 0.24763044E+02</totfact>
</mgrwt>
</event>
<event>
 5    0  0.2754780E-002  0.8169959E+03  0.7546771E-02  0.9535737E-01
         -2   -1    0    0    0  501 -0.00000000000E+00  0.00000000000E+00  0.65093273712E+02  0.65093273712E+02  0.00000000000E+00 0. -1.
          2   -1    0    0  503    0  0.00000000000E+00 -0.00000000000E+00 -0.31564606172E+04  0.31564606172E+04  0.00000000000E+00 0.  1.
         25    1    1    2    0    0 -0.21309961044E+03 -0.35057481533E+03 -0.11429577871E+04  0.12207750195E+04  0.12500000000E+03 0.  0.
         21    1    1    2  502  501  0.76398371069E+01  0.31443091051E+02 -0.57438462229E+03  0.57529534102E+03  0.00000000000E+00 0. -1.
         21    1    1    2  503  502  0.20545977333E+03  0.31913172428E+03 -0.13740249341E+04  0.14254835304E+04  0.00000000000E+00 0. -1.
<mgrwt>
<rscale>  4 0.81699590E+03</rscale>
<asrwt>0</asrwt>
<pdfrwt beam="1">  1        2 0.48560934E+00 0.81699590E+03</pdfrwt>
<pdfrwt beam="2">  1       -2 0.10014350E-01 0.81699590E+03</pdfrwt>
<totfact> 0.99737424E+01</totfact>
</mgrwt>
</event>
<event>
 5    0  0.2754780E-002  0.5313324E+03  0.7546771E-02  0.1005910E+00
         -1   -1    0    0    0  501 -0.00000000000E+00  0.00000000000E+00  0.30214455848E+02  0.30214455848E+02  0.00000000000E+00 0.  1.
          1   -1    0    0  503    0  0.00000000000E+00 -0.00000000000E+00 -0.31503184245E+04  0.31503184245E+04  0.00000000000E+00 0. -1.
         25    1    1    2    0    0 -0.13103410842E+03 -0.16529437258E+03 -0.22166266129E+04  0.22301458940E+04  0.12500000000E+03 0.  0.
         21    1    1    2  502  501 -0.51423639941E+02  0.22641287185E+02 -0.10615717238E+03  0.12010979926E+03  0.00000000000E+00 0.  1.
         21    1    1    2  503  502  0.18245774836E+03  0.14265308539E+03 -0.79732018331E+03  0.83027718710E+03  0.00000000000E+00 0.  1.
<mgrwt>
<rscale>  4 0.53133242E+03</rscale>
<asrwt>0</asrwt>
<pdfrwt beam="1">  1        1 0.48466394E+00 0.53133242E+03</pdfrwt>
<pdfrwt beam="2">  1       -1 0.46483820E-02 0.53133242E+03</pdfrwt>
<totfact> 0.10520738E+02</totfact>
</mgrwt>
</event>
<event>
 5    0  0.2754780E-002  0.5394817E+03  0.7546771E-02  0.1003958E+00
          2   -1    0    0  502    0  0.00000000000E+00  0.00000000000E+00  0.28362692560E+04  0.28362692560E+04  0.00000000000E+00 0. -1.
         -2   -1    0    0    0  501 -0.00000000000E+00 -0.00000000000E+00 -0.25653466937E+02  0.25653466937E+02  0.00000000000E+00 0.  1.
         25    1    1    2    0    0 -0.24065561817E+03  0.25613673411E+02  0.13866512910E+04  0.14131517929E+04  0.12500000000E+03 0.  0.
         21    1    1    2  502  503  0.12917776822E+03 -0.47401885390E+01  0.44915488981E+03  0.46738579378E+03  0.00000000000E+00 0.  1.
         21    1    1    2  503  501  0.11147784995E+03 -0.20873484872E+02  0.97480960826E+03  0.98138513631E+03  0.00000000000E+00 0.  1.
<mgrwt>
<rscale>  4 0.53948175E+03</rscale>
<asrwt>0</asrwt>
<pdfrwt beam="1">  1        2 0.43634887E+00 0.53948175E+03</pdfrwt>
<pdfrwt beam="2">  1       -2 0.39466895E-02 0.53948175E+03</pdfrwt>
<totfact> 0.70068998E+02</totfact>
</mgrwt>
</event>
<event>
 5    0  0.2754780E-002  0.6041814E+03  0.7546771E-02  0.9896769E-01
         -2   -1    0    0    0  501 -0.00000000000E+00  0.00000000000E+00  0.86850067943E+02  0.86850067943E+02  0.00000000000E+00 0.  1.
          2   -1    0    0  503    0  0.00000000000E+00 -0.00000000000E+00 -0.18972443689E+04  0.18972443689E+04  0.00000000000E+00 0. -1.
         25    1    1    2    0    0 -0.25374233612E+03 -0.77207521106E+02 -0.64209816676E+03  0.70587621451E+03  0.12500000000E+03 0.  0.
         21    1    1    2  502  501 -0.20644878315E+02 -0.10698860602E+02 -0.84438193695E+03  0.84470203745E+03  0.00000000000E+00 0. -1.
         21    1    1    2  503  502  0.27438721444E+03  0.87906381708E+02 -0.32391419729E+03  0.43351618493E+03  0.00000000000E+00 0. -1.
<mgrwt>
<rscale>  4 0.60418139E+03</rscale>
<asrwt>0</asrwt>
<pdfrwt beam="1">  1        2 0.29188372E+00 0.60418139E+03</pdfrwt>
<pdfrwt beam="2">  1       -2 0.13361550E-01 0.60418139E+03</pdfrwt>
<totfact> 0.33518063E+02</totfact>
</mgrwt>
</event>
<event>
 5    0  0.2754780E-002  0.4035783E+03  0.7546771E-02  0.1042548E+00
          2   -1    0    0  503    0  0.00000000000E+00  0.00000000000E+00  0.14887034090E+04  0.14887034090E+04  0.00000000000E+00 0. -1.
         -2   -1    0    0    0  501 -0.00000000000E+00 -0.00000000000E+00 -0.48357249456E+02  0.48357249456E+02  0.00000000000E+00 0.  1.
         25    1    1    2    0    0  0.18360025294E+03 -0.92379244039E+02  0.43641234996E+03  0.49832089742E+03  0.12500000000E+03 0.  0.
         21    1    1    2  502  501 -0.30530360052E+02  0.44946778107E+02  0.62442358360E+03  0.62678315828E+03  0.00000000000E+00 0.  1.
         21    1    1    2  503  502 -0.15306989288E+03  0.47432465932E+02  0.37951022602E+03  0.41195660279E+03  0.00000000000E+00 0. -1.
<mgrwt>
<rscale>  4 0.40357834E+03</rscale>
<asrwt>0</asrwt>
<pdfrwt beam="1">  1        2 0.22903126E+00 0.40357834E+03</pdfrwt>
<pdfrwt beam="2">  1       -2 0.74395780E-02 0.40357834E+03</pdfrwt>
<totfact> 0.14583509E+03</totfact>
</mgrwt>
</event>
<event>
 5    0  0.2754780E-002  0.6496432E+03  0.7546771E-02  0.9807449E-01
         -1   -1    0    0    0  501 -0.00000000000E+00  0.00000000000E+00  0.15908668159E+04  0.15908668159E+04  0.00000000000E+00 0.  1.
          1   -1    0    0  502    0  0.00000000000E+00 -0.00000000000E+00 -0.10577848444E+03  0.10577848444E+03  0.00000000000E+00 0. -1.
         25    1    1    2    0    0 -0.10326165638E+02  0.27798484072E+03  0.48134572195E+03  0.56982532886E+03  0.12500000000E+03 0.  0.
         21    1    1    2  502  503  0.81041339030E+01 -0.30744667757E+03  0.10374027856E+04  0.10820321974E+04  0.00000000000E+00 0. -1.
         21    1    1    2  503  501  0.22220317349E+01  0.29461836842E+02 -0.33660176100E+02  0.44787774116E+02  0.00000000000E+00 0.  1.
<mgrwt>
<rscale>  4 0.64964318E+03</rscale>
<asrwt>0</asrwt>
<pdfrwt beam="1">  1        1 0.16273614E-01 0.64964318E+03</pdfrwt>
<pdfrwt beam="2">  1       -1 0.24474872E+00 0.64964318E+03</pdfrwt>
<totfact> 0.27133640E+01</totfact>
</mgrwt>
</event>
<event>
 5    0  0.2754780E-002  0.4664913E+03  0.7546771E-02  0.1022915E+00
         -2   -1    0    0    0  501 -0.00000000000E+00  0.00000000000E+00  0.10542917805E+03  0.10542917805E+03  0.00000000000E+00 0. -1.
          2   -1    0    0  502    0  0.00000000000E+00 -0.00000000000E+00 -0.14058180555E+04  0.14058180555E+04  0.00000000000E+00 0.  1.
         25    1    1    2    0    0  0.12613049016E+03  0.17408717671E+03 -0.22273035508E+03  0.33383986688E+03  0.12500000000E+03 0.  0.
         21    1    1    2  502  503 -0.65746302556E+02 -0.20765423640E+03 -0.19591059665E+03  0.29295702769E+03  0.00000000000E+00 0.  1.
         21    1    1    2  503  501 -0.60384187602E+02  0.33567059691E+02 -0.88174792568E+03  0.88445033894E+03  0.00000000000E+00 0.  1.
<mgrwt>
<rscale>  4 0.46649127E+03</rscale>
<asrwt>0</asrwt>
<pdfrwt beam="1">  1        2 0.21627970E+00 0.46649127E+03</pdfrwt>
<pdfrwt beam="2">  1       -2 0.16219873E-01 0.46649127E+03</pdfrwt>
<totfact> 0.45374585E+02</totfact>
</mgrwt>
</event>
<event>
 5    0  0.2754780E-002  0.4850676E+03  0.7546771E-02  0.1017752E+00
          1   -1    0    0  502    0  0.00000000000E+00  0.00000000000E+00  0.50338084488E+03  0.50338084488E+03  0.00000000000E+00 0.  1.
         -1   -1    0    0    0  501 -0.00000000000E+00 -0.00000000000E+00 -0.11685514458E+03  0.11685514458E+03  0.00000000000E+00 0. -1.
         25    1    1    2    0    0  0.19646293503E+03 -0.46727686239E+02  0.10454278444E+03  0.25949056877E+03  0.12500000000E+03 0.  0.
         21    1    1    2  502  503 -0.85665989875E+02  0.72349180870E+01  0.47030977027E+02  0.97994482810E+02  0.00000000000E+00 0.  1.
         21    1    1    2  503  501 -0.11079694516E+03  0.39492768152E+02  0.23495193883E+03  0.26275093787E+03  0.00000000000E+00 0.  1.
<mgrwt>
<rscale>  4 0.48506759E+03</rscale>
<asrwt>0</asrwt>
<pdfrwt beam="1">  1        1 0.77443206E-01 0.48506759E+03</pdfrwt>
<pdfrwt beam="2">  1       -1 0.17977715E-01 0.48506759E+03</pdfrwt>
<totfact> 0.10758610E+03</totfact>
</mgrwt>
</event>
<event>
 5    0  0.2754780E-002  0.6887124E+03  0.7546771E-02  0.9736733E-01
         -2   -1    0    0    0  501 -0.00000000000E+00  0.00000000000E+00  0.15577735724E+03  0.15577735724E+03  0.00000000000E+00 0.  1.
          2   -1    0    0  502    0  0.00000000000E+00 -0.00000000000E+00 -0.83915088849E+03  0.83915088849E+03  0.00000000000E+00 0. -1.
         25    1    1    2    0    0  0.26787992202E+03 -0.14802575288E+02 -0.61010583707E+03  0.67810980032E+03  0.12500000000E+03 0.  0.
         21    1    1    2  502  503 -0.24623804179E+03  0.73585799892E+01 -0.67138024276E+01  0.24643943894E+03  0.00000000000E+00 0.  1.
         21    1    1    2  503  501 -0.21641880235E+02  0.74439952986E+01 -0.66553891747E+02  0.70379006477E+02  0.00000000000E+00 0.  1.
<mgrwt>
<rscale>  4 0.68871244E+03</rscale>
<asrwt>0</asrwt>
<pdfrwt beam="1">  1        2 0.12910014E+00 0.68871244E+03</pdfrwt>
<pdfrwt beam="2">  1       -2 0.23965747E-01 0.68871244E+03</pdfrwt>
<totfact> 0.50319746E+02</totfact>
</mgrwt>
</event>
<event>
 5    0  0.2754780E-002  0.5298642E+03  0.7546771E-02  0.1006265E+00
         -1   -1    0    0    0  501 -0.00000000000E+00  0.00000000000E+00  0.62418578664E+03  0.62418578664E+03  0.00000000000E+00 0.  1.
          1   -1    0    0  503    0  0.00000000000E+00 -0.00000000000E+00 -0.18396051945E+03  0.18396051945E+03  0.00000000000E+00 0. -1.
         25    1    1    2    0    0  0.22515196870E+03  0.70773035180E+02  0.20282528006E+03  0.33535850332E+03  0.12500000000E+03 0.  0.
         21    1    1    2  502  501  0.17773993028E+02  0.11030113168E+02 -0.69698543085E+02  0.72769946632E+02  0.00000000000E+00 0.  1.
         21    1    1    2  503  502 -0.24292596173E+03 -0.81803148348E+02  0.30709853022E+03  0.40001785613E+03  0.00000000000E+00 0. -1.
<mgrwt>
<rscale>  4 0.52986423E+03</rscale>
<asrwt>0</asrwt>
<pdfrwt beam="1">  1        1 0.28301619E-01 0.52986423E+03</pdfrwt>
<pdfrwt beam="2">  1       -1 0.96028582E-01 0.52986423E+03</pdfrwt>
<totfact> 0.17760008E+02</totfact>
</mgrwt>
</event>
<event>
 5    0  0.2754780E-002  0.6802985E+03  0.7546771E-02  0.9751530E-01
          1   -1    0    0  502    0  0.00000000000E+00  0.00000000000E+00  0.15952130338E+04  0.15952130338E+04  0.00000000000E+00 0.  1.
         -1   -1    0    0    0  501 -0.00000000000E+00 -0.00000000000E+00 -0.14289268077E+03  0.14289268077E+03  0.00000000000E+00 0. -1.
         25    1    1    2    0    0 -0.12083060388E+03 -0.25321108276E+03  0.31139778322E+03  0.43738937648E+03  0.12500000000E+03 0.  0.
         21    1    1    2  502  503  0.44416750590E+02  0.45005700830E+02 -0.55363861117E+02  0.84044737836E+02  0.00000000000E+00 0. -1.
         21    1    1    2  503  501  0.76413853290E+02  0.20820538193E+03  0.11962864310E+04  0.12166716003E+04  0.00000000000E+00 0.  1.
<mgrwt>
<rscale>  4 0.68029848E+03</rscale>
<asrwt>0</asrwt>
<pdfrwt beam="1">  1        1 0.24541738E+00 0.68029848E+03</pdfrwt>
<pdfrwt beam="2">  1       -1 0.21983490E-01 0.68029848E+03</pdfrwt>
<totfact> 0.10104155E+02</totfact>
</mgrwt>
</event>
<event>
 5    0  0.2754780E-002  0.7155833E+03  0.7546771E-02  0.9690948E-01
          3   -1    0    0  502    0  0.00000000000E+00  0.00000000000E+00  0.47311895471E+03  0.47311895471E+03  0.00000000000E+00 0.  1.
         -3   -1    0    0    0  501 -0.00000000000E+00 -0.00000000000E+00 -0.32539710900E+03  0.32539710900E+03  0.00000000000E+00 0. -1.
         25    1    1    2    0    0 -0.19967209513E+03  0.29353561678E+03  0.61127563406E+02  0.38130523586E+03  0.12500000000E+03 0.  0.
         21    1    1    2  502  503  0.13976156669E+03 -0.30897063928E+03  0.43669410825E+02  0.34191105408E+03  0.00000000000E+00 0.  1.
         21    1    1    2  503  501  0.59910528437E+02  0.15435022500E+02  0.42924871481E+02  0.75299773764E+02  0.00000000000E+00 0. -1.
<mgrwt>
<rscale>  4 0.71558326E+03</rscale>
<asrwt>0</asrwt>
<pdfrwt beam="1">  1        3 0.72787532E-01 0.71558326E+03</pdfrwt>
<pdfrwt beam="2">  1       -3 0.50061093E-01 0.71558326E+03</pdfrwt>
<totfact> 0.18663606E+01</totfact>
</mgrwt>
</event>
<event>
 5    0  0.2754780E-002  0.6554793E+03  0.7546771E-02  0.9796552E-01
         -2   -1    0    0    0  501 -0.00000000000E+00  0.00000000000E+00  0.82411694733E+02  0.82411694733E+02  0.00000000000E+00 0.  1.
          2   -1    0    0  502    0  0.00000000000E+00 -0.00000000000E+00 -0.14418860239E+04  0.14418860239E+04  0.00000000000E+00 0. -1.
         25    1    1    2    0    0  0.13854776106E+02  0.28074803103E+03 -0.91287087685E+03  0.96331181325E+03  0.12500000000E+03 0.  0.
         21    1    1    2  502  503  0.80841659351E+01 -0.30574007332E+03 -0.39445692654E+03  0.49913786980E+03  0.00000000000E+00 0.  1.
         21    1    1    2  503  501 -0.21938942041E+02  0.24992042286E+02 -0.52146525803E+02  0.61848035610E+02  0.00000000000E+00 0. -1.
<mgrwt>
<rscale>  4 0.65547928E+03</rscale>
<asrwt>0</asrwt>
<pdfrwt beam="1">  1        2 0.22182860E+00 0.65547928E+03</pdfrwt>
<pdfrwt beam="2">  1       -2 0.12678724E-01 0.65547928E+03</pdfrwt>
<totfact> 0.64635955E+02</totfact>
</mgrwt>
</event>
<event>
 5    0  0.2754780E-002  0.4775697E+03  0.7546771E-02  0.1019805E+00
         -1   -1    0    0    0  501 -0.00000000000E+00  0.00000000000E+00  0.29978629416E+03  0.29978629416E+03  0.00000000000E+00 0.  1.
          1   -1    0    0  502    0  0.00000000000E+00 -0.00000000000E+00 -0.23741434399E+03  0.23741434399E+03  0.00000000000E+00 0. -1.
         25    1    1    2    0    0  0.22798426443E+03 -0.26298320619E+02 -0.13216860636E+02  0.26166412040E+03  0.12500000000E+03 0.  0.
         21    1    1    2  502  503 -0.19792594106E+03  0.74909268658E+00  0.10710075026E+03  0.22504623968E+03  0.00000000000E+00 0. -1.
         21    1    1    2  503  501 -0.30058323372E+02  0.25549227932E+02 -0.31511939457E+02  0.50490278077E+02  0.00000000000E+00 0.  1.
<mgrwt>
<rscale>  4 0.47756967E+03</rscale>
<asrwt>0</asrwt>
<pdfrwt beam="1">  1        1 0.36525284E-01 0.47756967E+03</pdfrwt>
<pdfrwt beam="2">  1       -1 0.46120968E-01 0.47756967E+03</pdfrwt>
<totfact> 0.56247305E+02</totfact>
</mgrwt>
</event>
<event>
 5    0  0.2754780E-002  0.4926914E+03  0.7546771E-02  0.1015704E+00
          2   -1    0    0  503    0  0.00000000000E+00  0.00000000000E+00  0.51833932956E+03  0.51833932956E+03  0.00000000000E+00 0. -1.
         -2   -1    0    0    0  501 -0.00000000000E+00 -0.00000000000E+00 -0.15549812719E+03  0.15549812719E+03  0.00000000000E+00 0.  1.
         25    1    1    2    0    0 -0.58859002646E+02 -0.23105974145E+03  0.25890440972E+03  0.37350967817E+03  0.12500000000E+03 0.  0.
         21    1    1    2  502  501  0.70135756577E+02  0.26673780042E+02  0.44224071965E+02  0.87099273438E+02  0.00000000000E+00 0. -1.
         21    1    1    2  503  502 -0.11276753931E+02  0.20438596141E+03  0.59712720685E+02  0.21322850516E+03  0.00000000000E+00 0. -1.
<mgrwt>
<rscale>  4 0.49269140E+03</rscale>
<asrwt>0</asrwt>
<pdfrwt beam="1">  1        2 0.79744512E-01 0.49269140E+03</pdfrwt>
<pdfrwt beam="2">  1       -2 0.23922789E-01 0.49269140E+03</pdfrwt>
<totfact> 0.92021869E+02</totfact>
</mgrwt>
</event>
<event>
 5    0  0.2754780E-002  0.6424183E+03  0.7546771E-02  0.9821111E-01
          2   -1    0    0  503    0  0.00000000000E+00  0.00000000000E+00  0.77642038864E+03  0.77642038864E+03  0.00000000000E+00 0.  1.
         -2   -1    0    0    0  501 -0.00000000000E+00 -0.00000000000E+00 -0.30429539919E+03  0.30429539919E+03  0.00000000000E+00 0. -1.
         25    1    1    2    0    0 -0.11021414438E+03  0.31059441896E+03 -0.50329106379E+02  0.35605346461E+03  0.12500000000E+03 0.  0.
         21    1    1    2  502  501 -0.10970266795E+01 -0.61058541695E+02  0.43280841728E+03  0.43709549878E+03  0.00000000000E+00 0.  1.
         21    1    1    2  503  502  0.11131117106E+03 -0.24953587726E+03  0.89645678543E+02  0.28756682445E+03  0.00000000000E+00 0.  1.
<mgrwt>
<rscale>  4 0.64241831E+03</rscale>
<asrwt>0</asrwt>
<pdfrwt beam="1">  1        2 0.11944929E+00 0.64241831E+03</pdfrwt>
<pdfrwt beam="2">  1       -2 0.46814677E-01 0.64241831E+03</pdfrwt>
<totfact> 0.15768437E+02</totfact>
</mgrwt>
</event>
<event>
 5    0  0.2754780E-002  0.5203220E+03  0.7546771E-02  0.1008607E+00
          2   -1    0    0  502    0  0.00000000000E+00  0.00000000000E+00  0.29434451288E+03  0.29434451288E+03  0.00000000000E+00 0. -1.
         -2   -1    0    0    0  501 -0.00000000000E+00 -0.00000000000E+00 -0.28624261945E+03  0.28624261945E+03  0.00000000000E+00 0.  1.
         25    1    1    2    0    0 -0.81522429623E+02  0.22625405159E+03  0.35091141293E+02  0.27330054993E+03  0.12500000000E+03 0.  0.
         21    1    1    2  502  503  0.10002616346E+03 -0.21328729590E+03 -0.80700262708E+02  0.24901653835E+03  0.00000000000E+00 0. -1.
         21    1    1    2  503  501 -0.18503733835E+02 -0.12966755690E+02  0.53711014842E+02  0.58270044056E+02  0.00000000000E+00 0. -1.
<mgrwt>
<rscale>  4 0.52032197E+03</rscale>
<asrwt>0</asrwt>
<pdfrwt beam="1">  1        2 0.45283771E-01 0.52032197E+03</pdfrwt>
<pdfrwt beam="2">  1       -2 0.44037326E-01 0.52032197E+03</pdfrwt>
<totfact> 0.55296744E+02</totfact>
</mgrwt>
</event>
<event>
 5    0  0.2754780E-002  0.7123169E+03  0.7546771E-02  0.9696397E-01
         -1   -1    0    0    0  501 -0.00000000000E+00  0.00000000000E+00  0.14570033841E+03  0.14570033841E+03  0.00000000000E+00 0.  1.
          1   -1    0    0  503    0  0.00000000000E+00 -0.00000000000E+00 -0.87061463712E+03  0.87061463712E+03  0.00000000000E+00 0. -1.
         25    1    1    2    0    0 -0.19079915959E+03  0.10990396497E+03  0.34145455634E+01  0.25321899600E+03  0.12500000000E+03 0.  0.
         21    1    1    2  502  501  0.14357909584E+02 -0.30061854194E+02 -0.13024795287E+03  0.13444104237E+03  0.00000000000E+00 0. -1.
         21    1    1    2  503  502  0.17644125000E+03 -0.79842110774E+02 -0.59808089140E+03  0.62865493716E+03  0.00000000000E+00 0. -1.
<mgrwt>
<rscale>  4 0.71231692E+03</rscale>
<asrwt>0</asrwt>
<pdfrwt beam="1">  1        1 0.13394071E+00 0.71231692E+03</pdfrwt>
<pdfrwt beam="2">  1       -1 0.22415437E-01 0.71231692E+03</pdfrwt>
<totfact> 0.32842826E+02</totfact>
</mgrwt>
</event>
<event>
 5    0  0.2754780E-002  0.4684921E+03  0.7546771E-02  0.1022347E+00
         -1   -1    0    0    0  501 -0.00000000000E+00  0.00000000000E+00  0.61779175332E+02  0.61779175332E+02  0.00000000000E+00 0. -1.
          1   -1    0    0  503    0  0.00000000000E+00 -0.00000000000E+00 -0.10889270618E+04  0.10889270618E+04  0.00000000000E+00 0.  1.
         25    1    1    2    0    0 -0.89428490018E+02  0.20890046028E+03 -0.40701033367E+03  0.48261710377E+03  0.12500000000E+03 0.  0.
         21    1    1    2  502  501  0.87967926736E+01 -0.19784902067E+02 -0.19126330548E+03  0.19248500703E+03  0.00000000000E+00 0. -1.
         21    1    1    2  503  502  0.80631697344E+02 -0.18911555821E+03 -0.42887424736E+03  0.47560412637E+03  0.00000000000E+00 0. -1.
<mgrwt>
<rscale>  4 0.46849215E+03</rscale>
<asrwt>0</asrwt>
<pdfrwt beam="1">  1        1 0.16752723E+00 0.46849215E+03</pdfrwt>
<pdfrwt beam="2">  1       -1 0.95044893E-02 0.46849215E+03</pdfrwt>
<totfact> 0.90046779E+02</totfact>
</mgrwt>
</event>
<event>
 5    0  0.2754780E-002  0.5918413E+03  0.7546771E-02  0.9922479E-01
          2   -1    0    0  502    0  0.00000000000E+00  0.00000000000E+00  0.16907747601E+04  0.16907747601E+04  0.00000000000E+00 0.  1.
         -2   -1    0    0    0  501 -0.00000000000E+00 -0.00000000000E+00 -0.92968782831E+02  0.92968782831E+02  0.00000000000E+00 0. -1.
         25    1    1    2    0    0  0.24183144902E+03 -0.79607688642E+02  0.48638955242E+03  0.56304496315E+03  0.12500000000E+03 0.  0.
         21    1    1    2  502  503 -0.27384546290E+03  0.12970843534E+03  0.37607564061E+03  0.48295807604E+03  0.00000000000E+00 0.  1.
         21    1    1    2  503  501  0.32014013882E+02 -0.50100746694E+02  0.73534078423E+03  0.73774050374E+03  0.00000000000E+00 0.  1.
<mgrwt>
<rscale>  4 0.59184132E+03</rscale>
<asrwt>0</asrwt>
<pdfrwt beam="1">  1        2 0.26011917E+00 0.59184132E+03</pdfrwt>
<pdfrwt beam="2">  1       -2 0.14302891E-01 0.59184132E+03</pdfrwt>
<totfact> 0.38740035E+02</totfact>
</mgrwt>
</event>
<event>
 5    0  0.2754780E-002  0.4660568E+03  0.7546771E-02  0.1023039E+00
          2   -1    0    0  502    0  0.00000000000E+00  0.00000000000E+00  0.34514246922E+04  0.34514246922E+04  0.00000000000E+00 0. -1.
         -2   -1    0    0    0  501 -0.00000000000E+00 -0.00000000000E+00 -0.23868139951E+02  0.23868139951E+02  0.00000000000E+00 0.  1.
         25    1    1    2    0    0 -0.16292548242E+03 -0.18407086548E+03  0.20152133359E+04  0.20339952275E+04  0.12500000000E+03 0.  0.
         21    1    1    2  502  503  0.48121463257E+02  0.32566892327E+02  0.10326461563E+03  0.11848990903E+03  0.00000000000E+00 0.  1.
         21    1    1    2  503  501  0.11480401916E+03  0.15150397315E+03  0.13090786007E+04  0.13228076955E+04  0.00000000000E+00 0. -1.
<mgrwt>
<rscale>  4 0.46605685E+03</rscale>
<asrwt>0</asrwt>
<pdfrwt beam="1">  1        2 0.53098802E+00 0.46605685E+03</pdfrwt>
<pdfrwt beam="2">  1       -2 0.36720243E-02 0.46605685E+03</pdfrwt>
<totfact> 0.32674168E+02</totfact>
</mgrwt>
</event>
<event>
 5    0  0.2754780E-002  0.9674221E+03  0.7546771E-02  0.9345015E-01
          2   -1    0    0  502    0  0.00000000000E+00  0.00000000000E+00  0.12352436465E+04  0.12352436465E+04  0.00000000000E+00 0.  1.
         -2   -1    0    0    0  501 -0.00000000000E+00 -0.00000000000E+00 -0.91737886931E+03  0.91737886931E+03  0.00000000000E+00 0. -1.
         25    1    1    2    0    0 -0.28826481110E+03  0.47258486404E+02  0.92066216787E+02  0.33080380005E+03  0.12500000000E+03 0.  0.
         21    1    1    2  502  503  0.36278461464E+03 -0.95022467931E+02 -0.75183984566E+03  0.84018158725E+03  0.00000000000E+00 0. -1.
         21    1    1    2  503  501 -0.74519803537E+02  0.47763981527E+02  0.97763840605E+03  0.98163712849E+03  0.00000000000E+00 0.  1.
<mgrwt>
<rscale>  4 0.96742211E+03</rscale>
<asrwt>0</asrwt>
<pdfrwt beam="1">  1        2 0.19003748E+00 0.96742211E+03</pdfrwt>
<pdfrwt beam="2">  1       -2 0.14113521E+00 0.96742211E+03</pdfrwt>
<totfact> 0.63155825E+00</totfact>
</mgrwt>
</event>
<event>
 5    0  0.2754780E-002  0.5817635E+03  0.7546771E-02  0.9943980E-01
         -1   -1    0    0    0  501 -0.00000000000E+00  0.00000000000E+00  0.19456831554E+03  0.19456831554E+03  0.00000000000E+00 0.  1.
          1   -1    0    0  503    0  0.00000000000E+00 -0.00000000000E+00 -0.43487134678E+03  0.43487134678E+03  0.00000000000E+00 0. -1.
         25    1    1    2    0    0 -0.23720990188E+03 -0.10618167743E+03 -0.36210791744E+02  0.29065324290E+03  0.12500000000E+03 0.  0.
         21    1    1    2  502  501  0.22009620634E+02  0.11109368497E+02 -0.54958546804E+02  0.60235233341E+02  0.00000000000E+00 0. -1.
         21    1    1    2  503  502  0.21520028124E+03  0.95072308935E+02 -0.14913369269E+03  0.27855118608E+03  0.00000000000E+00 0. -1.
<mgrwt>
<rscale>  4 0.58176348E+03</rscale>
<asrwt>0</asrwt>
<pdfrwt beam="1">  1        1 0.66903283E-01 0.58176348E+03</pdfrwt>
<pdfrwt beam="2">  1       -1 0.29933587E-01 0.58176348E+03</pdfrwt>
<totfact> 0.55475647E+02</totfact>
</mgrwt>
</event>
<event>
 5    0  0.2754780E-002  0.4669613E+03  0.7546771E-02  0.1022781E+00
         -2   -1    0    0    0  501 -0.00000000000E+00  0.00000000000E+00  0.54776560807E+02  0.54776560807E+02  0.00000000000E+00 0. -1.
          2   -1    0    0  502    0  0.00000000000E+00 -0.00000000000E+00 -0.99519244040E+03  0.99519244040E+03  0.00000000000E+00 0.  1.
         25    1    1    2    0    0  0.21115831467E+03  0.17596037499E+02 -0.47773793108E+03  0.53736020060E+03  0.12500000000E+03 0.  0.
         21    1    1    2  502  503 -0.10631000438E+03  0.78239640652E+01 -0.29030742237E+03  0.30925948801E+03  0.00000000000E+00 0. -1.
         21    1    1    2  503  501 -0.10484831029E+03 -0.25420001564E+02 -0.17237052615E+03  0.20334931260E+03  0.00000000000E+00 0.  1.
<mgrwt>
<rscale>  4 0.46696132E+03</rscale>
<asrwt>0</asrwt>
<pdfrwt beam="1">  1        2 0.15310653E+00 0.46696132E+03</pdfrwt>
<pdfrwt beam="2">  1       -2 0.84271633E-02 0.46696132E+03</pdfrwt>
<totfact> 0.23066416E+03</totfact>
</mgrwt>
</event>
<event>
 5    0  0.2754780E-002  0.6346469E+03  0.7546771E-02  0.9836022E-01
          2   -1    0    0  502    0  0.00000000000E+00  0.00000000000E+00  0.15196893768E+03  0.15196893768E+03  0.00000000000E+00 0.  1.
         -2   -1    0    0    0  501 -0.00000000000E+00 -0.00000000000E+00 -0.66259716677E+03  0.66259716677E+03  0.00000000000E+00 0. -1.
         25    1    1    2    0    0  0.95760708939E+02  0.19821885897E+03 -0.52678716236E+03  0.58445747822E+03  0.12500000000E+03 0.  0.
         21    1    1    2  502  503 -0.76750166113E+02 -0.18633753137E+03 -0.15644606533E+01  0.20153091856E+03  0.00000000000E+00 0. -1.
         21    1    1    2  503  501 -0.19010542826E+02 -0.11881327591E+02  0.17723393917E+02  0.28577707672E+02  0.00000000000E+00 0.  1.
<mgrwt>
<rscale>  4 0.63464695E+03</rscale>
<asrwt>0</asrwt>
<pdfrwt beam="1">  1        2 0.23379837E-01 0.63464695E+03</pdfrwt>
<pdfrwt beam="2">  1       -2 0.10193802E+00 0.63464695E+03</pdfrwt>
<totfact> 0.18904690E+02</totfact>
</mgrwt>
</event>
<event>
 5    0  0.2754780E-002  0.5584687E+03  0.7546771E-02  0.9995526E-01
          2   -1    0    0  503    0  0.00000000000E+00  0.00000000000E+00  0.38307598276E+04  0.38307598276E+04  0.00000000000E+00 0. -1.
         -2   -1    0    0    0  501 -0.00000000000E+00 -0.00000000000E+00 -0.39987008191E+02  0.39987008191E+02  0.00000000000E+00 0.  1.
         25    1    1    2    0    0 -0.18958700256E+03  0.16700474659E+03  0.11806090050E+04  0.12137942328E+04  0.12500000000E+03 0.  0.
         21    1    1    2  502  501  0.66668749517E+01  0.25669499372E+02  0.18761565887E+04  0.18763440291E+04  0.00000000000E+00 0. -1.
         21    1    1    2  503  502  0.18292012761E+03 -0.19267424596E+03  0.73400722578E+03  0.78060857389E+03  0.00000000000E+00 0.  1.
<mgrwt>
<rscale>  4 0.55846866E+03</rscale>
<asrwt>0</asrwt>
<pdfrwt beam="1">  1        2 0.58934738E+00 0.55846866E+03</pdfrwt>
<pdfrwt beam="2">  1       -2 0.61518504E-02 0.55846866E+03</pdfrwt>
<totfact> 0.78454223E+01</totfact>
</mgrwt>
</event>
<event>
 5    0  0.2754780E-002  0.7905522E+03  0.7546771E-02  0.9573794E-01
         -1   -1    0    0    0  501 -0.00000000000E+00  0.00000000000E+00  0.16365566264E+03  0.16365566264E+03  0.00000000000E+00 0. -1.
          1   -1    0    0  503    0  0.00000000000E+00 -0.00000000000E+00 -0.10750938717E+04  0.10750938717E+04  0.00000000000E+00 0.  1.
         25    1    1    2    0    0  0.18272357035E+03 -0.17438976536E+03 -0.10368511727E+02  0.28201453767E+03  0.12500000000E+03 0.  0.
         21    1    1    2  502  501  0.17807772906E+02  0.43519034372E+02 -0.36239752654E+02  0.59366175563E+02  0.00000000000E+00 0. -1.
         21    1    1    2  503  502 -0.20053134326E+03  0.13087073098E+03 -0.86482994463E+03  0.89736882105E+03  0.00000000000E+00 0.  1.
<mgrwt>
<rscale>  4 0.79055219E+03</rscale>
<asrwt>0</asrwt>
<pdfrwt beam="1">  1        1 0.16539905E+00 0.79055219E+03</pdfrwt>
<pdfrwt beam="2">  1       -1 0.25177795E-01 0.79055219E+03</pdfrwt>
<totfact> 0.18538346E+02</totfact>
</mgrwt>
</event>
<event>
 5    0  0.2754780E-002  0.1462296E+04  0.7546771E-02  0.8909920E-01
         -1   -1    0    0    0  501 -0.00000000000E+00  0.00000000000E+00  0.33041352797E+03  0.33041352797E+03  0.00000000000E+00 0.  1.
          1   -1    0    0  503    0  0.00000000000E+00 -0.00000000000E+00 -0.18325904497E+04  0.18325904497E+04  0.00000000000E+00 0. -1.
         25    1    1    2    0    0  0.52853659069E+03  0.19994717486E+02 -0.12859532676E+04  0.13960843538E+04  0.12500000000E+03 0.  0.
         21    1    1    2  502  501  0.45933400268E+02  0.55108446455E+02 -0.17142522915E+03  0.18583171775E+03  0.00000000000E+00 0. -1.
         21    1    1    2  503  502 -0.57446999096E+03 -0.75103163941E+02 -0.44798424955E+02  0.58108790611E+03  0.00000000000E+00 0.  1.
<mgrwt>
<rscale>  4 0.14622962E+04</rscale>
<asrwt>0</asrwt>
<pdfrwt beam="1">  1        1 0.28193699E+00 0.14622962E+04</pdfrwt>
<pdfrwt beam="2">  1       -1 0.50832852E-01 0.14622962E+04</pdfrwt>
<totfact> 0.14596228E+01</totfact>
</mgrwt>
</event>
<event>
 5    0  0.2754780E-002  0.1040402E+04  0.7546771E-02  0.9265309E-01
         -2   -1    0    0    0  501 -0.00000000000E+00  0.00000000000E+00  0.38764089985E+03  0.38764089985E+03  0.00000000000E+00 0. -1.
          2   -1    0    0  503    0  0.00000000000E+00 -0.00000000000E+00 -0.12892493624E+04  0.12892493624E+04  0.00000000000E+00 0.  1.
         25    1    1    2    0    0  0.39699713431E+03 -0.26359886413E+03  0.70795428365E+02  0.49772289328E+03  0.12500000000E+03 0.  0.
         21    1    1    2  502  501 -0.34530448761E+02  0.20292316023E+01 -0.58973613564E+03  0.59074967571E+03  0.00000000000E+00 0.  1.
         21    1    1    2  503  502 -0.36246668555E+03  0.26156963253E+03 -0.38266775526E+03  0.58841769323E+03  0.00000000000E+00 0.  1.
<mgrwt>
<rscale>  4 0.10404023E+04</rscale>
<asrwt>0</asrwt>
<pdfrwt beam="1">  1        2 0.19834606E+00 0.10404023E+04</pdfrwt>
<pdfrwt beam="2">  1       -2 0.59637062E-01 0.10404023E+04</pdfrwt>
<totfact> 0.43762459E+01</totfact>
</mgrwt>
</event>
<event>
 5    0  0.2754780E-002  0.7384735E+03  0.7546771E-02  0.9653609E-01
         -2   -1    0    0    0  501 -0.00000000000E+00  0.00000000000E+00  0.21456071843E+03  0.21456071843E+03  0.00000000000E+00 0. -1.
          2   -1    0    0  503    0  0.00000000000E+00 -0.00000000000E+00 -0.93276120201E+03  0.93276120201E+03  0.00000000000E+00 0.  1.
         25    1    1    2    0    0 -0.19156934530E+03  0.25252971416E+03 -0.19822823315E+02  0.34130340595E+03  0.12500000000E+03 0.  0.
         21    1    1    2  502  501  0.21885255114E+02  0.93145428660E+01 -0.29544649443E+03  0.29640235521E+03  0.00000000000E+00 0.  1.
         21    1    1    2  503  502  0.16968409019E+03 -0.26184425702E+03 -0.40293116583E+03  0.50961615928E+03  0.00000000000E+00 0.  1.
<mgrwt>
<rscale>  4 0.73847354E+03</rscale>
<asrwt>0</asrwt>
<pdfrwt beam="1">  1        2 0.14350172E+00 0.73847354E+03</pdfrwt>
<pdfrwt beam="2">  1       -2 0.33009342E-01 0.73847354E+03</pdfrwt>
<totfact> 0.24097006E+02</totfact>
</mgrwt>
</event>
<event>
 5    0  0.2754780E-002  0.8809832E+03  0.7546771E-02  0.9449671E-01
          2   -1    0    0  502    0  0.00000000000E+00  0.00000000000E+00  0.32051370322E+03  0.32051370322E+03  0.00000000000E+00 0.  1.
         -2   -1    0    0    0  501 -0.00000000000E+00 -0.00000000000E+00 -0.10730751271E+04  0.10730751271E+04  0.00000000000E+00 0. -1.
         25    1    1    2    0    0 -0.83003060599E+02  0.20545600218E+03 -0.10034354346E+04  0.10351856588E+04  0.12500000000E+03 0.  0.
         21    1    1    2  502  503  0.52338413830E+02 -0.17502927598E+03  0.11509977882E+03  0.21592247706E+03  0.00000000000E+00 0.  1.
         21    1    1    2  503  501  0.30664646768E+02 -0.30426726194E+02  0.13577423191E+03  0.14248069441E+03  0.00000000000E+00 0.  1.
<mgrwt>
<rscale>  4 0.88098316E+03</rscale>
<asrwt>0</asrwt>
<pdfrwt beam="1">  1        2 0.49309801E-01 0.88098316E+03</pdfrwt>
<pdfrwt beam="2">  1       -2 0.16508848E+00 0.88098316E+03</pdfrwt>
<totfact> 0.23665665E+01</totfact>
</mgrwt>
</event>
<event>
 5    0  0.2754780E-002  0.4543783E+03  0.7546771E-02  0.1026424E+00
          2   -1    0    0  503    0  0.00000000000E+00  0.00000000000E+00  0.32186818242E+03  0.32186818242E+03  0.00000000000E+00 0. -1.
         -2   -1    0    0    0  501 -0.00000000000E+00 -0.00000000000E+00 -0.31019679197E+03  0.31019679197E+03  0.00000000000E+00 0.  1.
         25    1    1    2    0    0 -0.19134549934E+03 -0.66367614606E+02 -0.64883313853E+02  0.24668320738E+03  0.12500000000E+03 0.  0.
         21    1    1    2  502  501  0.32378156503E+01 -0.39999869088E+02  0.15144692344E+03  0.15667368508E+03  0.00000000000E+00 0. -1.
         21    1    1    2  503  502  0.18810768369E+03  0.10636748369E+03 -0.74892219133E+02  0.22870808192E+03  0.00000000000E+00 0.  1.
<mgrwt>
<rscale>  4 0.45437834E+03</rscale>
<asrwt>0</asrwt>
<pdfrwt beam="1">  1        2 0.49518182E-01 0.45437834E+03</pdfrwt>
<pdfrwt beam="2">  1       -2 0.47722583E-01 0.45437834E+03</pdfrwt>
<totfact> 0.42759266E+02</totfact>
</mgrwt>
</event>
<event>
 5    0  0.2754780E-002  0.1193060E+04  0.7546771E-02  0.9118953E-01
          2   -1    0    0  502    0  0.00000000000E+00  0.00000000000E+00  0.79244503509E+03  0.79244503509E+03  0.00000000000E+00 0.  1.
         -2   -1    0    0    0  501 -0.00000000000E+00 -0.00000000000E+00 -0.54516481820E+03  0.54516481820E+03  0.00000000000E+00 0. -1.
         25    1    1    2    0    0  0.32461627564E+03  0.84090517405E+02  0.53437801161E+03  0.64314213112E+03  0.12500000000E+03 0.  0.
         21    1    1    2  502  503 -0.34794033069E+03 -0.81323230585E+02 -0.42461797470E+03  0.55495618385E+03  0.00000000000E+00 0. -1.
         21    1    1    2  503  501  0.23324055050E+02 -0.27672868205E+01  0.13752017999E+03  0.13951153832E+03  0.00000000000E+00 0. -1.
<mgrwt>
<rscale>  4 0.11930601E+04</rscale>
<asrwt>0</asrwt>
<pdfrwt beam="1">  1        2 0.12191462E+00 0.11930601E+04</pdfrwt>
<pdfrwt beam="2">  1       -2 0.83871510E-01 0.11930601E+04</pdfrwt>
<totfact> 0.42697838E+01</totfact>
</mgrwt>
</event>
<event>
 5    0  0.2754780E-002  0.4895436E+03  0.7546771E-02  0.1016545E+00
          2   -1    0    0  503    0  0.00000000000E+00  0.00000000000E+00  0.12605686996E+04  0.12605686996E+04  0.00000000000E+00 0.  1.
         -2   -1    0    0    0  501 -0.00000000000E+00 -0.00000000000E+00 -0.54870607626E+02  0.54870607626E+02  0.00000000000E+00 0. -1.
         25    1    1    2    0    0  0.20638754228E+03 -0.23596109533E+02  0.46600503883E+03  0.52529828689E+03  0.12500000000E+03 0.  0.
         21    1    1    2  502  501  0.34280333738E+02 -0.61507760503E+01  0.10927731150E+03  0.11469308669E+03  0.00000000000E+00 0. -1.
         21    1    1    2  503  502 -0.24066787602E+03  0.29746885584E+02  0.63041574169E+03  0.67544793368E+03  0.00000000000E+00 0.  1.
<mgrwt>
<rscale>  4 0.48954362E+03</rscale>
<asrwt>0</asrwt>
<pdfrwt beam="1">  1        2 0.19393362E+00 0.48954362E+03</pdfrwt>
<pdfrwt beam="2">  1       -2 0.84416329E-02 0.48954362E+03</pdfrwt>
<totfact> 0.15959852E+03</totfact>
</mgrwt>
</event>
<event>
 5    0  0.2754780E-002  0.5164824E+03  0.7546771E-02  0.1009564E+00
         -2   -1    0    0    0  501 -0.00000000000E+00  0.00000000000E+00  0.75001568074E+02  0.75001568074E+02  0.00000000000E+00 0.  1.
          2   -1    0    0  503    0  0.00000000000E+00 -0.00000000000E+00 -0.11738869505E+04  0.11738869505E+04  0.00000000000E+00 0. -1.
         25    1    1    2    0    0 -0.50968298021E+02  0.23194343568E+03 -0.28974968709E+03  0.39493721770E+03  0.12500000000E+03 0.  0.
         21    1    1    2  502  501 -0.37554289567E+02 -0.37771281976E+02 -0.24689052009E+03  0.25257063035E+03  0.00000000000E+00 0.  1.
         21    1    1    2  503  502  0.88522587587E+02 -0.19417215370E+03 -0.56224517524E+03  0.60138067051E+03  0.00000000000E+00 0. -1.
<mgrwt>
<rscale>  4 0.51648242E+03</rscale>
<asrwt>0</asrwt>
<pdfrwt beam="1">  1        2 0.18059799E+00 0.51648242E+03</pdfrwt>
<pdfrwt beam="2">  1       -2 0.11538703E-01 0.51648242E+03</pdfrwt>
<totfact> 0.10809670E+03</totfact>
</mgrwt>
</event>
<event>
 5    0  0.2754780E-002  0.4243551E+03  0.7546771E-02  0.1035658E+00
         -2   -1    0    0    0  501 -0.00000000000E+00  0.00000000000E+00  0.10646311246E+03  0.10646311246E+03  0.00000000000E+00 0.  1.
          2   -1    0    0  503    0  0.00000000000E+00 -0.00000000000E+00 -0.75743584208E+03  0.75743584208E+03  0.00000000000E+00 0. -1.
         25    1    1    2    0    0  0.20274584467E+03 -0.10286087703E+03 -0.26731615474E+03  0.37251733401E+03  0.12500000000E+03 0.  0.
         21    1    1    2  502  501 -0.49285492265E+02  0.12792127079E+03 -0.10653297603E+03  0.17361505191E+03  0.00000000000E+00 0. -1.
         21    1    1    2  503  502 -0.15346035241E+03 -0.25060393763E+02 -0.27712359884E+03  0.31776656862E+03  0.00000000000E+00 0. -1.
<mgrwt>
<rscale>  4 0.42435506E+03</rscale>
<asrwt>0</asrwt>
<pdfrwt beam="1">  1        2 0.11652859E+00 0.42435506E+03</pdfrwt>
<pdfrwt beam="2">  1       -2 0.16378940E-01 0.42435506E+03</pdfrwt>
<totfact> 0.11236187E+03</totfact>
</mgrwt>
</event>
<event>
 5    0  0.2754780E-002  0.4384337E+03  0.7546771E-02  0.1031228E+00
          2   -1    0    0  502    0  0.00000000000E+00  0.00000000000E+00  0.11107165650E+03  0.11107165650E+03  0.00000000000E+00 0.  1.
         -2   -1    0    0    0  501 -0.00000000000E+00 -0.00000000000E+00 -0.62415877299E+03  0.62415877299E+03  0.00000000000E+00 0. -1.
         25    1    1    2    0    0  0.76970816035E+02 -0.19528820992E+03 -0.20928681306E+03  0.32169544848E+03  0.12500000000E+03 0.  0.
         21    1    1    2  502  503 -0.60838445381E+02  0.16424849114E+03 -0.32742016340E+03  0.37132579587E+03  0.00000000000E+00 0. -1.
         21    1    1    2  503  501 -0.16132370654E+02  0.31039718781E+02  0.23619859973E+02  0.42209185138E+02  0.00000000000E+00 0. -1.
<mgrwt>
<rscale>  4 0.43843365E+03</rscale>
<asrwt>0</asrwt>
<pdfrwt beam="1">  1        2 0.17087948E-01 0.43843365E+03</pdfrwt>
<pdfrwt beam="2">  1       -2 0.96024423E-01 0.43843365E+03</pdfrwt>
<totfact> 0.31523477E+02</totfact>
</mgrwt>
</event>
<event>
 5    0  0.2754780E-002  0.9427121E+03  0.7546771E-02  0.9373710E-01
          1   -1    0    0  503    0  0.00000000000E+00  0.00000000000E+00  0.40874777478E+04  0.40874777478E+04  0.00000000000E+00 0.  1.
         -1   -1    0    0    0  501 -0.00000000000E+00 -0.00000000000E+00 -0.78707127826E+02  0.78707127826E+02  0.00000000000E+00 0. -1.
         25    1    1    2    0    0  0.30080201544E+03 -0.14669712088E+03  0.41782070566E+03  0.54972815086E+03  0.12500000000E+03 0.  0.
         21    1    1    2  502  501  0.18371731972E+02  0.18501941929E+02  0.12596699245E+04  0.12599397450E+04  0.00000000000E+00 0.  1.
         21    1    1    2  503  502 -0.31917374741E+03  0.12819517895E+03  0.23312799898E+04  0.23565169797E+04  0.00000000000E+00 0.  1.
<mgrwt>
<rscale>  4 0.94271211E+03</rscale>
<asrwt>0</asrwt>
<pdfrwt beam="1">  1        1 0.62884256E+00 0.94271211E+03</pdfrwt>
<pdfrwt beam="2">  1       -1 0.12108792E-01 0.94271211E+03</pdfrwt>
<totfact> 0.39708664E+00</totfact>
</mgrwt>
</event>
<event>
 5    0  0.2754780E-002  0.4972028E+03  0.7546771E-02  0.1014512E+00
         -1   -1    0    0    0  501 -0.00000000000E+00  0.00000000000E+00  0.11669213267E+03  0.11669213267E+03  0.00000000000E+00 0.  1.
          1   -1    0    0  502    0  0.00000000000E+00 -0.00000000000E+00 -0.65099596120E+03  0.65099596120E+03  0.00000000000E+00 0. -1.
         25    1    1    2    0    0 -0.23546031014E+03  0.83958314616E+02 -0.22665033913E+03  0.35984153801E+03  0.12500000000E+03 0.  0.
         21    1    1    2  502  503  0.20977652301E+03 -0.55747668619E+02 -0.20591663172E+03  0.29919166329E+03  0.00000000000E+00 0. -1.
         21    1    1    2  503  501  0.25683787135E+02 -0.28210645996E+02 -0.10173685768E+03  0.10865489257E+03  0.00000000000E+00 0. -1.
<mgrwt>
<rscale>  4 0.49720275E+03</rscale>
<asrwt>0</asrwt>
<pdfrwt beam="1">  1        1 0.10015323E+00 0.49720275E+03</pdfrwt>
<pdfrwt beam="2">  1       -1 0.17952636E-01 0.49720275E+03</pdfrwt>
<totfact> 0.75125566E+02</totfact>
</mgrwt>
</event>
<event>
 5    0  0.2754780E-002  0.4841532E+03  0.7546771E-02  0.1018000E+00
          2   -1    0    0  503    0  0.00000000000E+00  0.00000000000E+00  0.98501107885E+03  0.98501107885E+03  0.00000000000E+00 0. -1.
         -2   -1    0    0    0  501 -0.00000000000E+00 -0.00000000000E+00 -0.82424652121E+02  0.82424652121E+02  0.00000000000E+00 0.  1.
         25    1    1    2    0    0  0.53451369540E+02 -0.19476330271E+03  0.60326326003E+03  0.64833737659E+03  0.12500000000E+03 0.  0.
         21    1    1    2  502  501 -0.23519246657E+02  0.41875415064E+02  0.25162799616E+03  0.25617055607E+03  0.00000000000E+00 0. -1.
         21    1    1    2  503  502 -0.29932122882E+02  0.15288788764E+03  0.47695170548E+02  0.16292779831E+03  0.00000000000E+00 0.  1.
<mgrwt>
<rscale>  4 0.48415318E+03</rscale>
<asrwt>0</asrwt>
<pdfrwt beam="1">  1        2 0.15154016E+00 0.48415318E+03</pdfrwt>
<pdfrwt beam="2">  1       -2 0.12680716E-01 0.48415318E+03</pdfrwt>
<totfact> 0.12075041E+03</totfact>
</mgrwt>
</event>
<event>
 5    0  0.2754780E-002  0.4665061E+03  0.7546771E-02  0.1022911E+00
          2   -1    0    0  502    0  0.00000000000E+00  0.00000000000E+00  0.14632991551E+03  0.14632991551E+03  0.00000000000E+00 0.  1.
         -2   -1    0    0    0  501 -0.00000000000E+00 -0.00000000000E+00 -0.52840385708E+03  0.52840385708E+03  0.00000000000E+00 0. -1.
         25    1    1    2    0    0  0.22652934979E+03 -0.70941571955E+02 -0.15013867503E+03  0.30743271571E+03  0.12500000000E+03 0.  0.
         21    1    1    2  502  503 -0.15298580699E+03  0.11023053283E+03 -0.20757898124E+03  0.28043619767E+03  0.00000000000E+00 0. -1.
         21    1    1    2  503  501 -0.73543542796E+02 -0.39288960871E+02 -0.24356285302E+02  0.86864859219E+02  0.00000000000E+00 0. -1.
<mgrwt>
<rscale>  4 0.46650610E+03</rscale>
<asrwt>0</asrwt>
<pdfrwt beam="1">  1        2 0.22512295E-01 0.46650610E+03</pdfrwt>
<pdfrwt beam="2">  1       -2 0.81292901E-01 0.46650610E+03</pdfrwt>
<totfact> 0.33377938E+02</totfact>
</mgrwt>
</event>
<event>
 5    0  0.2754780E-002  0.6915545E+03  0.7546771E-02  0.9731785E-01
         -2   -1    0    0    0  501 -0.00000000000E+00  0.00000000000E+00  0.68370539180E+02  0.68370539180E+02  0.00000000000E+00 0. -1.
          2   -1    0    0  502    0  0.00000000000E+00 -0.00000000000E+00 -0.17487342469E+04  0.17487342469E+04  0.00000000000E+00 0.  1.
         25    1    1    2    0    0 -0.25600696721E+03 -0.19285871865E+03 -0.88892757103E+03  0.95317956291E+03  0.12500000000E+03 0.  0.
         21    1    1    2  502  503  0.48429304342E+02  0.53634553953E+02 -0.34307556868E+03  0.35060363478E+03  0.00000000000E+00 0.  1.
         21    1    1    2  503  501  0.20757766286E+03  0.13922416470E+03 -0.44836056801E+03  0.51332158838E+03  0.00000000000E+00 0.  1.
<mgrwt>
<rscale>  4 0.69155449E+03</rscale>
<asrwt>0</asrwt>
<pdfrwt beam="1">  1        2 0.26903608E+00 0.69155449E+03</pdfrwt>
<pdfrwt beam="2">  1       -2 0.10518543E-01 0.69155449E+03</pdfrwt>
<totfact> 0.59463087E+02</totfact>
</mgrwt>
</event>
<event>
 5    0  0.2754780E-002  0.6545420E+03  0.7546771E-02  0.9798294E-01
          2   -1    0    0  502    0  0.00000000000E+00  0.00000000000E+00  0.73190568819E+03  0.73190568819E+03  0.00000000000E+00 0. -1.
         -2   -1    0    0    0  501 -0.00000000000E+00 -0.00000000000E+00 -0.24914059573E+03  0.24914059573E+03  0.00000000000E+00 0.  1.
         25    1    1    2    0    0  0.22109124858E+03  0.19329432722E+03  0.24299633788E+03  0.40114368667E+03  0.12500000000E+03 0.  0.
         21    1    1    2  502  503 -0.20793008930E+03 -0.17448430667E+03 -0.61040419480E+02  0.27821866961E+03  0.00000000000E+00 0.  1.
         21    1    1    2  503  501 -0.13161159282E+02 -0.18810020551E+02  0.30080917406E+03  0.30168392763E+03  0.00000000000E+00 0.  1.
<mgrwt>
<rscale>  4 0.65454202E+03</rscale>
<asrwt>0</asrwt>
<pdfrwt beam="1">  1        2 0.11260087E+00 0.65454202E+03</pdfrwt>
<pdfrwt beam="2">  1       -2 0.38329323E-01 0.65454202E+03</pdfrwt>
<totfact> 0.25199492E+02</totfact>
</mgrwt>
</event>
<event>
 5    0  0.2754780E-002  0.4929488E+03  0.7546771E-02  0.1015636E+00
          2   -1    0    0  503    0  0.00000000000E+00  0.00000000000E+00  0.15848536095E+04  0.15848536095E+04  0.00000000000E+00 0.  1.
         -2   -1    0    0    0  501 -0.00000000000E+00 -0.00000000000E+00 -0.34938482860E+03  0.34938482860E+03  0.00000000000E+00 0. -1.
         25    1    1    2    0    0  0.40022530532E+02 -0.20742083578E+03 -0.24306544905E+03  0.34544322050E+03  0.12500000000E+03 0.  0.
         21    1    1    2  502  501  0.29765549526E+02  0.59484954966E+02  0.14098023714E+04  0.14113706722E+04  0.00000000000E+00 0.  1.
         21    1    1    2  503  502 -0.69788080058E+02  0.14793588082E+03  0.68731858549E+02  0.17742454546E+03  0.00000000000E+00 0.  1.
<mgrwt>
<rscale>  4 0.49294878E+03</rscale>
<asrwt>0</asrwt>
<pdfrwt beam="1">  1        2 0.24382363E+00 0.49294878E+03</pdfrwt>
<pdfrwt beam="2">  1       -2 0.53751513E-01 0.49294878E+03</pdfrwt>
<totfact> 0.39350843E+01</totfact>
</mgrwt>
</event>
<event>
 5    0  0.2754780E-002  0.5184550E+03  0.7546771E-02  0.1009071E+00
          1   -1    0    0  502    0  0.00000000000E+00  0.00000000000E+00  0.28616531933E+03  0.28616531933E+03  0.00000000000E+00 0. -1.
         -1   -1    0    0    0  501 -0.00000000000E+00 -0.00000000000E+00 -0.23482543167E+03  0.23482543167E+03  0.00000000000E+00 0.  1.
         25    1    1    2    0    0  0.67609477151E+02  0.22359700932E+03 -0.32065178846E+02  0.26687045485E+03  0.12500000000E+03 0.  0.
         21    1    1    2  502  503 -0.46556979117E+02 -0.19176322584E+03  0.50413295574E+02  0.20367176402E+03  0.00000000000E+00 0. -1.
         21    1    1    2  503  501 -0.21052498034E+02 -0.31833783486E+02  0.32991770929E+02  0.50448532125E+02  0.00000000000E+00 0. -1.
<mgrwt>
<rscale>  4 0.51845499E+03</rscale>
<asrwt>0</asrwt>
<pdfrwt beam="1">  1        1 0.44025434E-01 0.51845499E+03</pdfrwt>
<pdfrwt beam="2">  1       -1 0.36126990E-01 0.51845499E+03</pdfrwt>
<totfact> 0.68867636E+02</totfact>
</mgrwt>
</event>
<event>
 5    0  0.2754780E-002  0.6419423E+03  0.7546771E-02  0.9822018E-01
         -1   -1    0    0    0  501 -0.00000000000E+00  0.00000000000E+00  0.16460797228E+03  0.16460797228E+03  0.00000000000E+00 0.  1.
          1   -1    0    0  502    0  0.00000000000E+00 -0.00000000000E+00 -0.77260012686E+03  0.77260012686E+03  0.00000000000E+00 0. -1.
         25    1    1    2    0    0  0.30515087678E+03 -0.24787679181E+02 -0.12797319284E+03  0.35458937480E+03  0.12500000000E+03 0.  0.
         21    1    1    2  502  503 -0.27848423567E+03  0.18388938885E+02 -0.33969957164E+03  0.43964465374E+03  0.00000000000E+00 0. -1.
         21    1    1    2  503  501 -0.26666641105E+02  0.63987402955E+01 -0.14031939010E+03  0.14297407060E+03  0.00000000000E+00 0. -1.
<mgrwt>
<rscale>  4 0.64194227E+03</rscale>
<asrwt>0</asrwt>
<pdfrwt beam="1">  1        1 0.11886156E+00 0.64194227E+03</pdfrwt>
<pdfrwt beam="2">  1       -1 0.25324303E-01 0.64194227E+03</pdfrwt>
<totfact> 0.32489849E+02</totfact>
</mgrwt>
</event>
<event>
 5    0  0.2754780E-002  0.5177786E+03  0.7546771E-02  0.1009240E+00
          3   -1    0    0  503    0  0.00000000000E+00  0.00000000000E+00  0.36549701196E+03  0.36549701196E+03  0.00000000000E+00 0. -1.
         -3   -1    0    0    0  501 -0.00000000000E+00 -0.00000000000E+00 -0.10210908194E+04  0.10210908194E+04  0.00000000000E+00 0.  1.
         25    1    1    2    0    0 -0.23147800006E+02 -0.23368203790E+03 -0.29704217802E+03  0.39875076301E+03  0.12500000000E+03 0.  0.
         21    1    1    2  502  501  0.81719599029E+01  0.34415316411E+02  0.29874719554E+03  0.30083397710E+03  0.00000000000E+00 0. -1.
         21    1    1    2  503  502  0.14975840104E+02  0.19926672149E+03 -0.65729882492E+03  0.68700309120E+03  0.00000000000E+00 0.  1.
<mgrwt>
<rscale>  4 0.51777860E+03</rscale>
<asrwt>0</asrwt>
<pdfrwt beam="1">  1        3 0.56230310E-01 0.51777860E+03</pdfrwt>
<pdfrwt beam="2">  1       -3 0.15709089E+00 0.51777860E+03</pdfrwt>
<totfact> 0.23366213E+00</totfact>
</mgrwt>
</event>
<event>
 5    0  0.2754780E-002  0.4433428E+03  0.7546771E-02  0.1029726E+00
         -1   -1    0    0    0  501 -0.00000000000E+00  0.00000000000E+00  0.64800984041E+03  0.64800984041E+03  0.00000000000E+00 0.  1.
          1   -1    0    0  503    0  0.00000000000E+00 -0.00000000000E+00 -0.13108121083E+03  0.13108121083E+03  0.00000000000E+00 0. -1.
         25    1    1    2    0    0 -0.20476914688E+03  0.26313851450E+02  0.41159045509E+03  0.47713155944E+03  0.12500000000E+03 0.  0.
         21    1    1    2  502  501  0.26995421559E+02  0.27783934406E+02 -0.47544671344E+02  0.61328586886E+02  0.00000000000E+00 0.  1.
         21    1    1    2  503  502  0.17777372533E+03 -0.54097785856E+02  0.15288284583E+03  0.24063090491E+03  0.00000000000E+00 0. -1.
<mgrwt>
<rscale>  4 0.44334281E+03</rscale>
<asrwt>0</asrwt>
<pdfrwt beam="1">  1        1 0.20166341E-01 0.44334281E+03</pdfrwt>
<pdfrwt beam="2">  1       -1 0.99693820E-01 0.44334281E+03</pdfrwt>
<totfact> 0.25497148E+02</totfact>
</mgrwt>
</event>
<event>
 5    0  0.2754780E-002  0.7418101E+03  0.7546771E-02  0.9648287E-01
         -2   -1    0    0    0  501 -0.00000000000E+00  0.00000000000E+00  0.10401411454E+03  0.10401411454E+03  0.00000000000E+00 0. -1.
          2   -1    0    0  503    0  0.00000000000E+00 -0.00000000000E+00 -0.25627747213E+04  0.25627747213E+04  0.00000000000E+00 0.  1.
         25    1    1    2    0    0  0.23535644528E+03  0.20659924559E+03 -0.26714643422E+03  0.43019544620E+03  0.12500000000E+03 0.  0.
         21    1    1    2  502  501 -0.20822599780E+02 -0.32703285097E+01 -0.12389298507E+04  0.12391091359E+04  0.00000000000E+00 0.  1.
         21    1    1    2  503  502 -0.21453384550E+03 -0.20332891708E+03 -0.95268432189E+03  0.99748425379E+03  0.00000000000E+00 0.  1.
<mgrwt>
<rscale>  4 0.74181012E+03</rscale>
<asrwt>0</asrwt>
<pdfrwt beam="1">  1        2 0.39427304E+00 0.74181012E+03</pdfrwt>
<pdfrwt beam="2">  1       -2 0.16002171E-01 0.74181012E+03</pdfrwt>
<totfact> 0.10456794E+02</totfact>
</mgrwt>
</event>
<event>
 5    0  0.2754780E-002  0.7423650E+03  0.7546771E-02  0.9647405E-01
         -1   -1    0    0    0  501 -0.00000000000E+00  0.00000000000E+00  0.10015305024E+03  0.10015305024E+03  0.00000000000E+00 0. -1.
          1   -1    0    0  503    0  0.00000000000E+00 -0.00000000000E+00 -0.15789273834E+04  0.15789273834E+04  0.00000000000E+00 0.  1.
         25    1    1    2    0    0  0.10405373102E+03 -0.27985918437E+03 -0.31675833889E+03  0.45288981803E+03  0.12500000000E+03 0.  0.
         21    1    1    2  502  501  0.14115217618E+02 -0.44192999470E+02 -0.14980111497E+03  0.15682038967E+03  0.00000000000E+00 0. -1.
         21    1    1    2  503  502 -0.11816894864E+03  0.32405218384E+03 -0.10122148793E+04  0.10693702260E+04  0.00000000000E+00 0.  1.
<mgrwt>
<rscale>  4 0.74236502E+03</rscale>
<asrwt>0</asrwt>
<pdfrwt beam="1">  1        1 0.24291189E+00 0.74236502E+03</pdfrwt>
<pdfrwt beam="2">  1       -1 0.15408163E-01 0.74236502E+03</pdfrwt>
<totfact> 0.18546133E+02</totfact>
</mgrwt>
</event>
<event>
 5    0  0.2754780E-002  0.4521066E+03  0.7546771E-02  0.1027096E+00
          2   -1    0    0  502    0  0.00000000000E+00  0.00000000000E+00  0.29063664628E+03  0.29063664628E+03  0.00000000000E+00 0. -1.
         -2   -1    0    0    0  501 -0.00000000000E+00 -0.00000000000E+00 -0.22741304776E+03  0.22741304776E+03  0.00000000000E+00 0.  1.
         25    1    1    2    0    0  0.20209012156E+03 -0.65617646149E+02  0.11633847379E+03  0.27259077974E+03  0.12500000000E+03 0.  0.
         21    1    1    2  502  503 -0.16005544412E+03  0.25070111181E+02 -0.80555988611E+02  0.18092960777E+03  0.00000000000E+00 0.  1.
         21    1    1    2  503  501 -0.42034677440E+02  0.40547534968E+02  0.27441113340E+02  0.64529306526E+02  0.00000000000E+00 0.  1.
<mgrwt>
<rscale>  4 0.45210658E+03</rscale>
<asrwt>0</asrwt>
<pdfrwt beam="1">  1        2 0.44713330E-01 0.45210658E+03</pdfrwt>
<pdfrwt beam="2">  1       -2 0.34986623E-01 0.45210658E+03</pdfrwt>
<totfact> 0.87436693E+02</totfact>
</mgrwt>
</event>
<event>
 5    0  0.2754780E-002  0.1049300E+04  0.7546771E-02  0.9256067E-01
          2   -1    0    0  502    0  0.00000000000E+00  0.00000000000E+00  0.41131588060E+03  0.41131588060E+03  0.00000000000E+00 0.  1.
         -2   -1    0    0    0  501 -0.00000000000E+00 -0.00000000000E+00 -0.10394697832E+04  0.10394697832E+04  0.00000000000E+00 0. -1.
         25    1    1    2    0    0 -0.39719524743E+03 -0.17821604084E+03 -0.61646696689E+02  0.45711085856E+03  0.12500000000E+03 0.  0.
         21    1    1    2  502  503  0.41785797528E+03  0.18748499960E+03 -0.71191731006E+03  0.84651176539E+03  0.00000000000E+00 0. -1.
         21    1    1    2  503  501 -0.20662727844E+02 -0.92689587556E+01  0.14541010414E+03  0.14716303987E+03  0.00000000000E+00 0.  1.
<mgrwt>
<rscale>  4 0.10493001E+04</rscale>
<asrwt>0</asrwt>
<pdfrwt beam="1">  1        2 0.63279367E-01 0.10493001E+04</pdfrwt>
<pdfrwt beam="2">  1       -2 0.15991843E+00 0.10493001E+04</pdfrwt>
<totfact> 0.19285995E+01</totfact>
</mgrwt>
</event>
<event>
 5    0  0.2754780E-002  0.1647146E+04  0.7546771E-02  0.8792097E-01
          2   -1    0    0  502    0  0.00000000000E+00  0.00000000000E+00  0.12399342715E+04  0.12399342715E+04  0.00000000000E+00 0. -1.
         -2   -1    0    0    0  501 -0.00000000000E+00 -0.00000000000E+00 -0.69253665256E+03  0.69253665256E+03  0.00000000000E+00 0.  1.
         25    1    1    2    0    0  0.17708151599E+03  0.11068022040E+03 -0.54802906556E+03  0.59964058501E+03  0.12500000000E+03 0.  0.
         21    1    1    2  502  503  0.10892182017E+02 -0.18234406319E+03 -0.33846724769E+02  0.18577835662E+03  0.00000000000E+00 0. -1.
         21    1    1    2  503  501 -0.18797369801E+03  0.71663842796E+02  0.11292734093E+04  0.11470519824E+04  0.00000000000E+00 0. -1.
<mgrwt>
<rscale>  4 0.16471460E+04</rscale>
<asrwt>0</asrwt>
<pdfrwt beam="1">  1        2 0.19075912E+00 0.16471460E+04</pdfrwt>
<pdfrwt beam="2">  1       -2 0.10654410E+00 0.16471460E+04</pdfrwt>
<totfact> 0.12092202E+01</totfact>
</mgrwt>
</event>
<event>
 5    0  0.2754780E-002  0.5137516E+03  0.7546771E-02  0.1010251E+00
         -2   -1    0    0    0  501 -0.00000000000E+00  0.00000000000E+00  0.21612177856E+03  0.21612177856E+03  0.00000000000E+00 0.  1.
          2   -1    0    0  502    0  0.00000000000E+00 -0.00000000000E+00 -0.42306618732E+03  0.42306618732E+03  0.00000000000E+00 0. -1.
         25    1    1    2    0    0 -0.65176910357E+02  0.26315837565E+03 -0.11889014050E+03  0.32134129182E+03  0.12500000000E+03 0.  0.
         21    1    1    2  502  503  0.74873681724E+02 -0.19252578766E+03 -0.26425343778E+01  0.20658952083E+03  0.00000000000E+00 0.  1.
         21    1    1    2  503  501 -0.96967713663E+01 -0.70632587993E+02 -0.85411733882E+02  0.11125715324E+03  0.00000000000E+00 0. -1.
<mgrwt>
<rscale>  4 0.51375164E+03</rscale>
<asrwt>0</asrwt>
<pdfrwt beam="1">  1        2 0.65087105E-01 0.51375164E+03</pdfrwt>
<pdfrwt beam="2">  1       -2 0.33249505E-01 0.51375164E+03</pdfrwt>
<totfact> 0.63519343E+02</totfact>
</mgrwt>
</event>
<event>
 5    0  0.2754780E-002  0.4104895E+03  0.7546771E-02  0.1040207E+00
         -2   -1    0    0    0  501 -0.00000000000E+00  0.00000000000E+00  0.17451020146E+03  0.17451020146E+03  0.00000000000E+00 0. -1.
          2   -1    0    0  503    0  0.00000000000E+00 -0.00000000000E+00 -0.52129304983E+03  0.52129304983E+03  0.00000000000E+00 0.  1.
         25    1    1    2    0    0  0.21015907308E+03 -0.44490499678E+02 -0.24685384698E+03  0.35029710579E+03  0.12500000000E+03 0.  0.
         21    1    1    2  502  501 -0.16020424729E+03  0.20116861829E+02 -0.18395188596E+03  0.24476189517E+03  0.00000000000E+00 0.  1.
         21    1    1    2  503  502 -0.49954825783E+02  0.24373637849E+02  0.84022884572E+02  0.10074425032E+03  0.00000000000E+00 0. -1.
<mgrwt>
<rscale>  4 0.41048951E+03</rscale>
<asrwt>0</asrwt>
<pdfrwt beam="1">  1        2 0.80198931E-01 0.41048951E+03</pdfrwt>
<pdfrwt beam="2">  1       -2 0.26847723E-01 0.41048951E+03</pdfrwt>
<totfact> 0.74409540E+02</totfact>
</mgrwt>
</event>
<event>
 5    0  0.2754780E-002  0.7171491E+03  0.7546771E-02  0.9688346E-01
          2   -1    0    0  503    0  0.00000000000E+00  0.00000000000E+00  0.86008112740E+03  0.86008112740E+03  0.00000000000E+00 0.  1.
         -2   -1    0    0    0  501 -0.00000000000E+00 -0.00000000000E+00 -0.19001907930E+03  0.19001907930E+03  0.00000000000E+00 0. -1.
         25    1    1    2    0    0 -0.14959414452E+03 -0.14402688413E+03 -0.74364297975E+02  0.25352948594E+03  0.12500000000E+03 0.  0.
         21    1    1    2  502  501  0.11089982913E+03  0.61489654415E+02  0.66082776113E+03  0.67288415019E+03  0.00000000000E+00 0.  1.
         21    1    1    2  503  502  0.38694315389E+02  0.82537229718E+02  0.83598584949E+02  0.12368657057E+03  0.00000000000E+00 0.  1.
<mgrwt>
<rscale>  4 0.71714910E+03</rscale>
<asrwt>0</asrwt>
<pdfrwt beam="1">  1        2 0.13232017E+00 0.71714910E+03</pdfrwt>
<pdfrwt beam="2">  1       -2 0.29233705E-01 0.71714910E+03</pdfrwt>
<totfact> 0.33871451E+02</totfact>
</mgrwt>
</event>
<event>
 5    0  0.2754780E-002  0.6091202E+03  0.7546771E-02  0.9886663E-01
          2   -1    0    0  502    0  0.00000000000E+00  0.00000000000E+00  0.39513649417E+03  0.39513649417E+03  0.00000000000E+00 0.  1.
         -2   -1    0    0    0  501 -0.00000000000E+00 -0.00000000000E+00 -0.33047278307E+03  0.33047278307E+03  0.00000000000E+00 0. -1.
         25    1    1    2    0    0  0.17895474825E+03 -0.22517093786E+03 -0.65218426633E+02  0.32032045884E+03  0.12500000000E+03 0.  0.
         21    1    1    2  502  503 -0.20704409722E+03  0.20258659970E+03  0.20810527917E+02  0.29041636773E+03  0.00000000000E+00 0. -1.
         21    1    1    2  503  501  0.28089348974E+02  0.22584338162E+02  0.10907160982E+03  0.11487245067E+03  0.00000000000E+00 0.  1.
<mgrwt>
<rscale>  4 0.60912019E+03</rscale>
<asrwt>0</asrwt>
<pdfrwt beam="1">  1        2 0.60790230E-01 0.60912019E+03</pdfrwt>
<pdfrwt beam="2">  1       -2 0.50841967E-01 0.60912019E+03</pdfrwt>
<totfact> 0.29851976E+02</totfact>
</mgrwt>
</event>
<event>
 5    0  0.2754780E-002  0.5299120E+03  0.7546771E-02  0.1006253E+00
         -1   -1    0    0    0  501 -0.00000000000E+00  0.00000000000E+00  0.77592838281E+02  0.77592838281E+02  0.00000000000E+00 0.  1.
          1   -1    0    0  503    0  0.00000000000E+00 -0.00000000000E+00 -0.10642149629E+04  0.10642149629E+04  0.00000000000E+00 0. -1.
         25    1    1    2    0    0  0.16239273686E+03 -0.13024668936E+03 -0.64823613368E+03  0.69222155853E+03  0.12500000000E+03 0.  0.
         21    1    1    2  502  501  0.22887481082E+02 -0.38128084117E+02 -0.66413867330E+02  0.79927400573E+02  0.00000000000E+00 0.  1.
         21    1    1    2  503  502 -0.18528021795E+03  0.16837477348E+03 -0.27197212359E+03  0.36965884206E+03  0.00000000000E+00 0.  1.
<mgrwt>
<rscale>  4 0.52991202E+03</rscale>
<asrwt>0</asrwt>
<pdfrwt beam="1">  1        1 0.16372538E+00 0.52991202E+03</pdfrwt>
<pdfrwt beam="2">  1       -1 0.11937360E-01 0.52991202E+03</pdfrwt>
<totfact> 0.65392785E+02</totfact>
</mgrwt>
</event>
<event>
 5    0  0.2754780E-002  0.7600872E+03  0.7546771E-02  0.9619657E-01
          1   -1    0    0  502    0  0.00000000000E+00  0.00000000000E+00  0.65968356096E+03  0.65968356096E+03  0.00000000000E+00 0.  1.
         -1   -1    0    0    0  501 -0.00000000000E+00 -0.00000000000E+00 -0.25934903842E+03  0.25934903842E+03  0.00000000000E+00 0. -1.
         25    1    1    2    0    0  0.15005748753E+03  0.19156166889E+03  0.44785658561E+03  0.52479866980E+03  0.12500000000E+03 0.  0.
         21    1    1    2  502  503 -0.17932909020E+03 -0.25201698884E+03 -0.80201920959E+02  0.31953690457E+03  0.00000000000E+00 0. -1.
         21    1    1    2  503  501  0.29271602672E+02  0.60455319951E+02  0.32679857887E+02  0.74697025007E+02  0.00000000000E+00 0.  1.
<mgrwt>
<rscale>  4 0.76008724E+03</rscale>
<asrwt>0</asrwt>
<pdfrwt beam="1">  1        1 0.10148978E+00 0.76008724E+03</pdfrwt>
<pdfrwt beam="2">  1       -1 0.39899852E-01 0.76008724E+03</pdfrwt>
<totfact> 0.18473043E+02</totfact>
</mgrwt>
</event>
<event>
 5    0  0.2754780E-002  0.6572880E+03  0.7546771E-02  0.9793199E-01
          2   -1    0    0  502    0  0.00000000000E+00  0.00000000000E+00  0.11620423124E+04  0.11620423124E+04  0.00000000000E+00 0. -1.
         -2   -1    0    0    0  501 -0.00000000000E+00 -0.00000000000E+00 -0.13945287294E+03  0.13945287294E+03  0.00000000000E+00 0.  1.
         25    1    1    2    0    0  0.97754079059E+02  0.19982025311E+03  0.65455771002E+03  0.70253454668E+03  0.12500000000E+03 0.  0.
         21    1    1    2  502  503 -0.12614664863E+03 -0.17454063879E+03 -0.13275584862E+02  0.21576295489E+03  0.00000000000E+00 0.  1.
         21    1    1    2  503  501  0.28392569569E+02 -0.25279614324E+02  0.38130731429E+03  0.38319768376E+03  0.00000000000E+00 0. -1.
<mgrwt>
<rscale>  4 0.65728802E+03</rscale>
<asrwt>0</asrwt>
<pdfrwt beam="1">  1        2 0.17877573E+00 0.65728802E+03</pdfrwt>
<pdfrwt beam="2">  1       -2 0.21454289E-01 0.65728802E+03</pdfrwt>
<totfact> 0.38136991E+02</totfact>
</mgrwt>
</event>
<event>
 5    0  0.2754780E-002  0.4661347E+03  0.7546771E-02  0.1023017E+00
         -2   -1    0    0    0  501 -0.00000000000E+00  0.00000000000E+00  0.19608599498E+03  0.19608599498E+03  0.00000000000E+00 0. -1.
          2   -1    0    0  503    0  0.00000000000E+00 -0.00000000000E+00 -0.27702327308E+03  0.27702327308E+03  0.00000000000E+00 0.  1.
         25    1    1    2    0    0 -0.12008919555E+03  0.16795933519E+03 -0.92089304380E+02  0.25833542759E+03  0.12500000000E+03 0.  0.
         21    1    1    2  502  501  0.92901976669E+01 -0.20349046194E+02 -0.16967462424E+02  0.28076435578E+02  0.00000000000E+00 0. -1.
         21    1    1    2  503  502  0.11079899789E+03 -0.14761028899E+03  0.28119488711E+02  0.18669740489E+03  0.00000000000E+00 0.  1.
<mgrwt>
<rscale>  4 0.46613468E+03</rscale>
<asrwt>0</asrwt>
<pdfrwt beam="1">  1        2 0.42618965E-01 0.46613468E+03</pdfrwt>
<pdfrwt beam="2">  1       -2 0.30167076E-01 0.46613468E+03</pdfrwt>
<totfact> 0.12154717E+03</totfact>
</mgrwt>
</event>
<event>
 5    0  0.2754780E-002  0.6198284E+03  0.7546771E-02  0.9865101E-01
          1   -1    0    0  502    0  0.00000000000E+00  0.00000000000E+00  0.83880064463E+02  0.83880064463E+02  0.00000000000E+00 0.  1.
         -1   -1    0    0    0  501 -0.00000000000E+00 -0.00000000000E+00 -0.12608266492E+04  0.12608266492E+04  0.00000000000E+00 0. -1.
         25    1    1    2    0    0 -0.26034208152E+03  0.12139781053E+03 -0.81002561010E+03  0.86849405112E+03  0.12500000000E+03 0.  0.
         21    1    1    2  502  503  0.25851739836E+03 -0.92451197064E+02 -0.33128038031E+03  0.43026173369E+03  0.00000000000E+00 0. -1.
         21    1    1    2  503  501  0.18246831580E+01 -0.28946613465E+02 -0.35640594350E+02  0.45950928884E+02  0.00000000000E+00 0. -1.
<mgrwt>
<rscale>  4 0.61982838E+03</rscale>
<asrwt>0</asrwt>
<pdfrwt beam="1">  1        1 0.12904626E-01 0.61982838E+03</pdfrwt>
<pdfrwt beam="2">  1       -1 0.19397332E+00 0.61982838E+03</pdfrwt>
<totfact> 0.80787916E+01</totfact>
</mgrwt>
</event>
<event>
 5    0  0.2754780E-002  0.5715294E+03  0.7546771E-02  0.9966300E-01
         -1   -1    0    0    0  501 -0.00000000000E+00  0.00000000000E+00  0.28668351923E+03  0.28668351923E+03  0.00000000000E+00 0. -1.
          1   -1    0    0  502    0  0.00000000000E+00 -0.00000000000E+00 -0.28484882290E+03  0.28484882290E+03  0.00000000000E+00 0.  1.
         25    1    1    2    0    0  0.17288389411E+03 -0.14041894040E+03  0.15204288079E+03  0.29723451560E+03  0.12500000000E+03 0.  0.
         21    1    1    2  502  503 -0.16431754113E+03  0.11557173034E+03 -0.11897723499E+03  0.23347946724E+03  0.00000000000E+00 0.  1.
         21    1    1    2  503  501 -0.85663529757E+01  0.24847210059E+02 -0.31230949460E+02  0.40818359291E+02  0.00000000000E+00 0.  1.
<mgrwt>
<rscale>  4 0.57152940E+03</rscale>
<asrwt>0</asrwt>
<pdfrwt beam="1">  1        1 0.43822896E-01 0.57152940E+03</pdfrwt>
<pdfrwt beam="2">  1       -1 0.44105157E-01 0.57152940E+03</pdfrwt>
<totfact> 0.48249311E+02</totfact>
</mgrwt>
</event>
<event>
 5    0  0.2754780E-002  0.5464111E+03  0.7546771E-02  0.1002328E+00
         -2   -1    0    0    0  501 -0.00000000000E+00  0.00000000000E+00  0.49239382604E+02  0.49239382604E+02  0.00000000000E+00 0. -1.
          2   -1    0    0  503    0  0.00000000000E+00 -0.00000000000E+00 -0.15158854623E+04  0.15158854623E+04  0.00000000000E+00 0.  1.
         25    1    1    2    0    0 -0.32594749431E+02 -0.22602040284E+03 -0.44973832887E+03  0.51965104122E+03  0.12500000000E+03 0.  0.
         21    1    1    2  502  501  0.26563953367E+02  0.25040538545E+02 -0.24973754927E+03  0.25239159198E+03  0.00000000000E+00 0. -1.
         21    1    1    2  503  502  0.60307960644E+01  0.20097986429E+03 -0.76717020157E+03  0.79308221171E+03  0.00000000000E+00 0.  1.
<mgrwt>
<rscale>  4 0.54641107E+03</rscale>
<asrwt>0</asrwt>
<pdfrwt beam="1">  1        2 0.23321313E+00 0.54641107E+03</pdfrwt>
<pdfrwt beam="2">  1       -2 0.75752901E-02 0.54641107E+03</pdfrwt>
<totfact> 0.13616285E+03</totfact>
</mgrwt>
</event>
<event>
 5    0  0.2754780E-002  0.4271572E+03  0.7546771E-02  0.1034762E+00
          1   -1    0    0  502    0  0.00000000000E+00  0.00000000000E+00  0.43995167856E+03  0.43995167856E+03  0.00000000000E+00 0. -1.
         -1   -1    0    0    0  501 -0.00000000000E+00 -0.00000000000E+00 -0.31079074568E+03  0.31079074568E+03  0.00000000000E+00 0.  1.
         25    1    1    2    0    0  0.36876853790E+02  0.21538188514E+03 -0.14500494152E+03  0.29051797166E+03  0.12500000000E+03 0.  0.
         21    1    1    2  502  503 -0.39174577559E+02 -0.16026754008E+03 -0.15165655833E+02  0.16568140828E+03  0.00000000000E+00 0. -1.
         21    1    1    2  503  501  0.22977237684E+01 -0.55114345054E+02  0.28933153023E+03  0.29454304431E+03  0.00000000000E+00 0. -1.
<mgrwt>
<rscale>  4 0.42715718E+03</rscale>
<asrwt>0</asrwt>
<pdfrwt beam="1">  1        1 0.67684874E-01 0.42715718E+03</pdfrwt>
<pdfrwt beam="2">  1       -1 0.47813960E-01 0.42715718E+03</pdfrwt>
<totfact> 0.23776082E+02</totfact>
</mgrwt>
</event>
<event>
 5    0  0.2754780E-002  0.8353246E+03  0.7546771E-02  0.9510248E-01
          2   -1    0    0  503    0  0.00000000000E+00  0.00000000000E+00  0.15797049178E+04  0.15797049178E+04  0.00000000000E+00 0.  1.
         -2   -1    0    0    0  501 -0.00000000000E+00 -0.00000000000E+00 -0.17572231772E+03  0.17572231772E+03  0.00000000000E+00 0. -1.
         25    1    1    2    0    0 -0.47125405943E+02 -0.25956866527E+03  0.87846683809E+03  0.92570280409E+03  0.12500000000E+03 0.  0.
         21    1    1    2  502  501  0.43382467120E+02  0.18596775295E+02  0.58059427906E+03  0.58250973845E+03  0.00000000000E+00 0.  1.
         21    1    1    2  503  502  0.37429388230E+01  0.24097188998E+03 -0.55078517119E+02  0.24721469293E+03  0.00000000000E+00 0. -1.
<mgrwt>
<rscale>  4 0.83532456E+03</rscale>
<asrwt>0</asrwt>
<pdfrwt beam="1">  1        2 0.24303152E+00 0.83532456E+03</pdfrwt>
<pdfrwt beam="2">  1       -2 0.27034204E-01 0.83532456E+03</pdfrwt>
<totfact> 0.14376169E+02</totfact>
</mgrwt>
</event>
