<event>
 5    0  0.1911311E+001  0.2533157E+03  0.7546771E-02  0.1111227E+00
         21   -1    0    0  502  501  0.00000000000E+00  0.00000000000E+00  0.27162313379E+03  0.27162313379E+03  0.00000000000E+00 0. -1.
         21   -1    0    0  504  502 -0.00000000000E+00 -0.00000000000E+00 -0.51344522581E+03  0.51344522581E+03  0.00000000000E+00 0. -1.
         25    1    1    2    0    0  0.34700770537E+02 -0.24126471574E+03 -0.34013549468E+03  0.43672641468E+03  0.12500000000E+03 0.  0.
         21    1    1    2  503  501 -0.55276444395E+02  0.21011130963E+03  0.16439145174E+03  0.27244595270E+03  0.00000000000E+00 0. -1.
         21    1    1    2  504  503  0.20575673857E+02  0.31153406108E+02 -0.66078049067E+02  0.75895992222E+02  0.00000000000E+00 0. -1.
<mgrwt>
<rscale>  4 0.25331566E+03</rscale>
<asrwt>0</asrwt>
<pdfrwt beam="1">  1       21 0.41788175E-01 0.25331566E+03</pdfrwt>
<pdfrwt beam="2">  1       21 0.78991572E-01 0.25331566E+03</pdfrwt>
<totfact> 0.74985505E+03</totfact>
</mgrwt>
</event>
<event>
 5    0  0.1911311E+001  0.2320183E+03  0.7546771E-02  0.1125227E+00
         21   -1    0    0  502  501  0.00000000000E+00  0.00000000000E+00  0.14517745286E+04  0.14517745286E+04  0.00000000000E+00 0. -1.
         21   -1    0    0  504  502 -0.00000000000E+00 -0.00000000000E+00 -0.19699714358E+03  0.19699714358E+03  0.00000000000E+00 0.  1.
         25    1    1    2    0    0 -0.22853830360E+03 -0.61161638871E+02 -0.31581842460E-01  0.26757336055E+03  0.12500000000E+03 0.  0.
         21    1    1    2  503  501  0.97599470266E+02 -0.43733321557E+02  0.11999162945E+04  0.12046731398E+04  0.00000000000E+00 0. -1.
         21    1    1    2  504  503  0.13093883333E+03  0.10489496043E+03  0.54892672349E+02  0.17652517179E+03  0.00000000000E+00 0.  1.
<mgrwt>
<rscale>  4 0.23201828E+03</rscale>
<asrwt>0</asrwt>
<pdfrwt beam="1">  1       21 0.22334992E+00 0.23201828E+03</pdfrwt>
<pdfrwt beam="2">  1       21 0.30307254E-01 0.23201828E+03</pdfrwt>
<totfact> 0.96018766E+02</totfact>
</mgrwt>
</event>
<event>
 5    0  0.1911311E+001  0.3158967E+03  0.7546771E-02  0.1077553E+00
         21   -1    0    0  504  501  0.00000000000E+00  0.00000000000E+00  0.21090661253E+03  0.21090661253E+03  0.00000000000E+00 0.  1.
         21   -1    0    0  503  502 -0.00000000000E+00 -0.00000000000E+00 -0.69358529245E+03  0.69358529245E+03  0.00000000000E+00 0.  1.
         25    1    1    2    0    0 -0.29143708079E+03  0.19592655365E+02 -0.41087374851E+03  0.51938586948E+03  0.12500000000E+03 0.  0.
         21    1    1    2  503  501  0.56820724975E+01  0.29101355732E+02 -0.89904053994E+02  0.94667384974E+02  0.00000000000E+00 0.  1.
         21    1    1    2  504  502  0.28575500829E+03 -0.48694011098E+02  0.18099122581E+02  0.29043865053E+03  0.00000000000E+00 0.  1.
<mgrwt>
<rscale>  4 0.31589666E+03</rscale>
<asrwt>0</asrwt>
<pdfrwt beam="1">  1       21 0.32447171E-01 0.31589666E+03</pdfrwt>
<pdfrwt beam="2">  1       21 0.10670543E+00 0.31589666E+03</pdfrwt>
<totfact> 0.59574393E+03</totfact>
</mgrwt>
</event>
