<event>
 5    0  0.2396052E+000  0.5895188E+03  0.7546771E-02  0.9927393E-01
         21   -1    0    0  501  502  0.00000000000E+00  0.00000000000E+00  0.78272546978E+03  0.78272546978E+03  0.00000000000E+00 0. -1.
         -1   -1    0    0    0  501 -0.00000000000E+00 -0.00000000000E+00 -0.20843817867E+03  0.20843817867E+03  0.00000000000E+00 0. -1.
         25    1    1    2    0    0  0.15077015257E+03 -0.16319314597E+03  0.11946018546E+03  0.28153042057E+03  0.12500000000E+03 0.  0.
         21    1    1    2  503  502 -0.22931588344E+03  0.14414233353E+03  0.53256975695E+03  0.59748919047E+03  0.00000000000E+00 0. -1.
         -1    1    1    2    0  503  0.78545730871E+02  0.19050812443E+02 -0.77742651303E+02  0.11214403740E+03  0.00000000000E+00 0. -1.
<mgrwt>
<rscale>  4 0.58951881E+03</rscale>
<asrwt>0</asrwt>
<pdfrwt beam="1">  1       21 0.12041930E+00 0.58951881E+03</pdfrwt>
<pdfrwt beam="2">  1       -1 0.32067412E-01 0.58951881E+03</pdfrwt>
<totfact> 0.38603461E+02</totfact>
</mgrwt>
</event>
<event>
 5    0  0.2396052E+000  0.6314294E+03  0.7546771E-02  0.9842263E-01
         21   -1    0    0  501  502  0.00000000000E+00  0.00000000000E+00  0.33880203580E+03  0.33880203580E+03  0.00000000000E+00 0. -1.
         -1   -1    0    0    0  501 -0.00000000000E+00 -0.00000000000E+00 -0.20071516412E+04  0.20071516412E+04  0.00000000000E+00 0.  1.
         25    1    1    2    0    0  0.18760010487E+03 -0.27921373777E+03  0.21186687226E+03  0.41673334672E+03  0.12500000000E+03 0.  0.
         21    1    1    2  503  502 -0.19731460627E+02  0.11213875492E+03 -0.18280435695E+03  0.21536449060E+03  0.00000000000E+00 0.  1.
         -1    1    1    2    0  503 -0.16786864425E+03  0.16707498284E+03 -0.16974121207E+04  0.17138558397E+04  0.00000000000E+00 0.  1.
<mgrwt>
<rscale>  4 0.63142937E+03</rscale>
<asrwt>0</asrwt>
<pdfrwt beam="1">  1       21 0.52123391E-01 0.63142937E+03</pdfrwt>
<pdfrwt beam="2">  1       -1 0.30879255E+00 0.63142937E+03</pdfrwt>
<totfact> 0.92390813E+00</totfact>
</mgrwt>
</event>
<event>
 5    0  0.2396052E+000  0.5986964E+03  0.7546771E-02  0.9908114E-01
          1   -1    0    0  503    0 -0.00000000000E+00  0.00000000000E+00  0.94467908449E+03  0.94467908449E+03  0.00000000000E+00 0. -1.
         21   -1    0    0  501  502  0.00000000000E+00 -0.00000000000E+00 -0.25827831610E+03  0.25827831610E+03  0.00000000000E+00 0. -1.
         25    1    1    2    0    0  0.27471226675E+03 -0.22350187510E+02  0.10792608889E+03  0.32130888729E+03  0.12500000000E+03 0.  0.
         21    1    1    2  503  502 -0.28222268482E+03 -0.30427472347E+02 -0.16455427019E+02  0.28433476042E+03  0.00000000000E+00 0. -1.
          1    1    1    2  501    0  0.75104180710E+01  0.52777659857E+02  0.59493010651E+03  0.59731375289E+03  0.00000000000E+00 0. -1.
<mgrwt>
<rscale>  4 0.59869637E+03</rscale>
<asrwt>0</asrwt>
<pdfrwt beam="1">  1       21 0.39735126E-01 0.59869637E+03</pdfrwt>
<pdfrwt beam="2">  1        1 0.14533524E+00 0.59869637E+03</pdfrwt>
<totfact> 0.10688177E+03</totfact>
</mgrwt>
</event>
<event>
 5    0  0.2396052E+000  0.3559477E+03  0.7546771E-02  0.1060200E+00
         21   -1    0    0  501  502  0.00000000000E+00  0.00000000000E+00  0.85127344499E+03  0.85127344499E+03  0.00000000000E+00 0. -1.
          3   -1    0    0  503    0 -0.00000000000E+00 -0.00000000000E+00 -0.18893781384E+03  0.18893781384E+03  0.00000000000E+00 0. -1.
         25    1    1    2    0    0 -0.18702816035E+03  0.12243086329E+03  0.60937841203E+03  0.66101126927E+03  0.12500000000E+03 0.  0.
         21    1    1    2  503  502 -0.73781807396E+02 -0.23718782694E+02  0.63414508627E+02  0.10013858227E+03  0.00000000000E+00 0.  1.
          3    1    1    2  501    0  0.26080996775E+03 -0.98712080600E+02 -0.10457289504E+02  0.27906140729E+03  0.00000000000E+00 0. -1.
<mgrwt>
<rscale>  4 0.35594772E+03</rscale>
<asrwt>0</asrwt>
<pdfrwt beam="1">  1       21 0.13096514E+00 0.35594772E+03</pdfrwt>
<pdfrwt beam="2">  1        3 0.29067357E-01 0.35594772E+03</pdfrwt>
<totfact> 0.22759211E+02</totfact>
</mgrwt>
</event>
<event>
 5    0  0.2396052E+000  0.6235021E+03  0.7546771E-02  0.9857812E-01
         21   -1    0    0  501  502  0.00000000000E+00  0.00000000000E+00  0.40496277398E+03  0.40496277398E+03  0.00000000000E+00 0. -1.
          1   -1    0    0  503    0 -0.00000000000E+00 -0.00000000000E+00 -0.24634398620E+04  0.24634398620E+04  0.00000000000E+00 0.  1.
         25    1    1    2    0    0 -0.25417379294E+03  0.92894997937E+02 -0.10857450898E+03  0.31724946282E+03  0.12500000000E+03 0.  0.
         21    1    1    2  503  502  0.93511013532E+02  0.17427109328E+03  0.25590585313E+03  0.32342314275E+03  0.00000000000E+00 0. -1.
          1    1    1    2  501    0  0.16066277941E+03 -0.26716609122E+03 -0.22058084322E+04  0.22277300304E+04  0.00000000000E+00 0.  1.
<mgrwt>
<rscale>  4 0.62350210E+03</rscale>
<asrwt>0</asrwt>
<pdfrwt beam="1">  1       21 0.62301963E-01 0.62350210E+03</pdfrwt>
<pdfrwt beam="2">  1        1 0.37899076E+00 0.62350210E+03</pdfrwt>
<totfact> 0.36469494E+01</totfact>
</mgrwt>
</event>
<event>
 5    0  0.2396052E+000  0.3325578E+03  0.7546771E-02  0.1070011E+00
         21   -1    0    0  501  502  0.00000000000E+00  0.00000000000E+00  0.49191663906E+02  0.49191663906E+02  0.00000000000E+00 0. -1.
          1   -1    0    0  503    0 -0.00000000000E+00 -0.00000000000E+00 -0.26987107840E+04  0.26987107840E+04  0.00000000000E+00 0. -1.
         25    1    1    2    0    0 -0.10914398218E+03  0.20542508612E+03 -0.41897563990E+03  0.49525494614E+03  0.12500000000E+03 0.  0.
         21    1    1    2  503  502  0.59877229879E+02 -0.27534122011E+02 -0.14886420224E+03  0.16280037236E+03  0.00000000000E+00 0.  1.
          1    1    1    2  501    0  0.49266752303E+02 -0.17789096410E+03 -0.20816792779E+04  0.20898471294E+04  0.00000000000E+00 0. -1.
<mgrwt>
<rscale>  4 0.33255784E+03</rscale>
<asrwt>0</asrwt>
<pdfrwt beam="1">  1       21 0.75679488E-02 0.33255784E+03</pdfrwt>
<pdfrwt beam="2">  1        1 0.41518625E+00 0.33255784E+03</pdfrwt>
<totfact> 0.16675038E+03</totfact>
</mgrwt>
</event>
<event>
 5    0  0.2396052E+000  0.5868510E+03  0.7546771E-02  0.9933068E-01
         21   -1    0    0  501  502  0.00000000000E+00  0.00000000000E+00  0.60978154618E+03  0.60978154618E+03  0.00000000000E+00 0. -1.
          2   -1    0    0  503    0 -0.00000000000E+00 -0.00000000000E+00 -0.24747310280E+03  0.24747310280E+03  0.00000000000E+00 0. -1.
         25    1    1    2    0    0 -0.13921582711E+03 -0.21347415044E+03  0.13383909174E+03  0.31383142274E+03  0.12500000000E+03 0.  0.
         21    1    1    2  503  502  0.12072544130E+03  0.25538154519E+03  0.32859155528E+03  0.43332063879E+03  0.00000000000E+00 0. -1.
          2    1    1    2  501    0  0.18490385808E+02 -0.41907394755E+02 -0.10012220364E+03  0.11010258745E+03  0.00000000000E+00 0. -1.
<mgrwt>
<rscale>  4 0.58685100E+03</rscale>
<asrwt>0</asrwt>
<pdfrwt beam="1">  1       21 0.93812545E-01 0.58685100E+03</pdfrwt>
<pdfrwt beam="2">  1        2 0.38072785E-01 0.58685100E+03</pdfrwt>
<totfact> 0.14360004E+03</totfact>
</mgrwt>
</event>
<event>
 5    0  0.2396052E+000  0.7152518E+03  0.7546771E-02  0.9691499E-01
         21   -1    0    0  501  502  0.00000000000E+00  0.00000000000E+00  0.27265495184E+03  0.27265495184E+03  0.00000000000E+00 0.  1.
         -1   -1    0    0    0  501 -0.00000000000E+00 -0.00000000000E+00 -0.81653650253E+03  0.81653650253E+03  0.00000000000E+00 0.  1.
         25    1    1    2    0    0 -0.32905194691E+03 -0.64706554224E+02 -0.13310589210E+03  0.38184329303E+03  0.12500000000E+03 0.  0.
         21    1    1    2  503  502  0.34962174920E+03  0.57745851307E+02 -0.64241896040E+02  0.36013465824E+03  0.00000000000E+00 0.  1.
         -1    1    1    2    0  503 -0.20569802293E+02  0.69607029167E+01 -0.34653376255E+03  0.34721350311E+03  0.00000000000E+00 0.  1.
<mgrwt>
<rscale>  4 0.71525180E+03</rscale>
<asrwt>0</asrwt>
<pdfrwt beam="1">  1       21 0.41946916E-01 0.71525180E+03</pdfrwt>
<pdfrwt beam="2">  1       -1 0.12562100E+00 0.71525180E+03</pdfrwt>
<totfact> 0.26524940E+02</totfact>
</mgrwt>
</event>
<event>
 5    0  0.2396052E+000  0.4344752E+03  0.7546771E-02  0.1032456E+00
          1   -1    0    0  503    0 -0.00000000000E+00  0.00000000000E+00  0.91204539156E+02  0.91204539156E+02  0.00000000000E+00 0. -1.
         21   -1    0    0  501  502  0.00000000000E+00 -0.00000000000E+00 -0.13031709976E+04  0.13031709976E+04  0.00000000000E+00 0. -1.
         25    1    1    2    0    0  0.73345987983E+02 -0.29940002875E+03 -0.55732422050E+03  0.64904183064E+03  0.12500000000E+03 0.  0.
         21    1    1    2  503  502  0.21372501057E+02  0.84306057590E+02 -0.59261328322E+02  0.10524352798E+03  0.00000000000E+00 0. -1.
          1    1    1    2  501    0 -0.94718489040E+02  0.21509397116E+03 -0.59538090966E+03  0.64009017817E+03  0.00000000000E+00 0. -1.
<mgrwt>
<rscale>  4 0.43447516E+03</rscale>
<asrwt>0</asrwt>
<pdfrwt beam="1">  1       21 0.20048782E+00 0.43447516E+03</pdfrwt>
<pdfrwt beam="2">  1        1 0.14031469E-01 0.43447516E+03</pdfrwt>
<totfact> 0.51985205E+02</totfact>
</mgrwt>
</event>
<event>
 5    0  0.2396052E+000  0.7561182E+03  0.7546771E-02  0.9625800E-01
         21   -1    0    0  501  502  0.00000000000E+00  0.00000000000E+00  0.15068143167E+04  0.15068143167E+04  0.00000000000E+00 0. -1.
          2   -1    0    0  503    0 -0.00000000000E+00 -0.00000000000E+00 -0.42543185662E+03  0.42543185662E+03  0.00000000000E+00 0.  1.
         25    1    1    2    0    0  0.33660658238E+03  0.13447937827E+03  0.50575192644E+03  0.63466424634E+03  0.12500000000E+03 0.  0.
         21    1    1    2  503  502 -0.22734285285E+03 -0.25383983793E+03  0.88506026008E+03  0.94839395824E+03  0.00000000000E+00 0.  1.
          2    1    1    2  501    0 -0.10926372953E+03  0.11936045966E+03 -0.30942972643E+03  0.34918796875E+03  0.00000000000E+00 0.  1.
<mgrwt>
<rscale>  4 0.75611821E+03</rscale>
<asrwt>0</asrwt>
<pdfrwt beam="1">  1       21 0.23181758E+00 0.75611821E+03</pdfrwt>
<pdfrwt beam="2">  1        2 0.65451056E-01 0.75611821E+03</pdfrwt>
<totfact> 0.60618671E+01</totfact>
</mgrwt>
</event>
<event>
 5    0  0.2396052E+000  0.7020517E+03  0.7546771E-02  0.9713730E-01
         21   -1    0    0  501  502  0.00000000000E+00  0.00000000000E+00  0.15453970691E+03  0.15453970691E+03  0.00000000000E+00 0. -1.
          1   -1    0    0  503    0 -0.00000000000E+00 -0.00000000000E+00 -0.18196751462E+04  0.18196751462E+04  0.00000000000E+00 0. -1.
         25    1    1    2    0    0  0.10333173778E+03  0.22957439309E+03 -0.52346926949E+03  0.59416069046E+03  0.12500000000E+03 0.  0.
         21    1    1    2  503  502 -0.16199741455E+03 -0.30105994819E+03 -0.13249381251E+03  0.36665360367E+03  0.00000000000E+00 0. -1.
          1    1    1    2  501    0  0.58665676772E+02  0.71485555104E+02 -0.10091723573E+04  0.10134005589E+04  0.00000000000E+00 0. -1.
<mgrwt>
<rscale>  4 0.70205167E+03</rscale>
<asrwt>0</asrwt>
<pdfrwt beam="1">  1       21 0.23775339E-01 0.70205167E+03</pdfrwt>
<pdfrwt beam="2">  1        1 0.27995003E+00 0.70205167E+03</pdfrwt>
<totfact> 0.71143435E+02</totfact>
</mgrwt>
</event>
<event>
 5    0  0.2396052E+000  0.4794849E+03  0.7546771E-02  0.1019277E+00
          2   -1    0    0  503    0 -0.00000000000E+00  0.00000000000E+00  0.14159351944E+04  0.14159351944E+04  0.00000000000E+00 0. -1.
         21   -1    0    0  501  502  0.00000000000E+00 -0.00000000000E+00 -0.25814626034E+03  0.25814626034E+03  0.00000000000E+00 0.  1.
         25    1    1    2    0    0  0.71075559645E+02  0.21890430571E+03  0.54600648541E+02  0.26753889635E+03  0.12500000000E+03 0.  0.
         21    1    1    2  503  502 -0.76235416164E+02 -0.17790102672E+03 -0.89429188402E+02  0.21320927214E+03  0.00000000000E+00 0.  1.
          2    1    1    2  501    0  0.51598565184E+01 -0.41003278986E+02  0.11926174739E+04  0.11933332862E+04  0.00000000000E+00 0. -1.
<mgrwt>
<rscale>  4 0.47948491E+03</rscale>
<asrwt>0</asrwt>
<pdfrwt beam="1">  1       21 0.39714810E-01 0.47948491E+03</pdfrwt>
<pdfrwt beam="2">  1        2 0.21783618E+00 0.47948491E+03</pdfrwt>
<totfact> 0.10638149E+03</totfact>
</mgrwt>
</event>
<event>
 5    0  0.2396052E+000  0.9406234E+03  0.7546771E-02  0.9376178E-01
          1   -1    0    0  503    0 -0.00000000000E+00  0.00000000000E+00  0.60692484319E+03  0.60692484319E+03  0.00000000000E+00 0. -1.
         21   -1    0    0  501  502  0.00000000000E+00 -0.00000000000E+00 -0.72596484159E+03  0.72596484159E+03  0.00000000000E+00 0.  1.
         25    1    1    2    0    0  0.34539401633E+03  0.11663731542E+03  0.11018536823E+03  0.40083301416E+03  0.12500000000E+03 0.  0.
         21    1    1    2  503  502 -0.32989564484E+03 -0.80051261154E+02 -0.52960341738E+03  0.62906209598E+03  0.00000000000E+00 0.  1.
          1    1    1    2  501    0 -0.15498371490E+02 -0.36586054266E+02  0.30037805075E+03  0.30299457464E+03  0.00000000000E+00 0. -1.
<mgrwt>
<rscale>  4 0.94062343E+03</rscale>
<asrwt>0</asrwt>
<pdfrwt beam="1">  1       21 0.11168690E+00 0.94062343E+03</pdfrwt>
<pdfrwt beam="2">  1        1 0.93373053E-01 0.94062343E+03</pdfrwt>
<totfact> 0.19352887E+02</totfact>
</mgrwt>
</event>
<event>
 5    0  0.2396052E+000  0.4324157E+03  0.7546771E-02  0.1033100E+00
          2   -1    0    0  503    0 -0.00000000000E+00  0.00000000000E+00  0.44094298926E+03  0.44094298926E+03  0.00000000000E+00 0. -1.
         21   -1    0    0  501  502  0.00000000000E+00 -0.00000000000E+00 -0.77733531743E+03  0.77733531743E+03  0.00000000000E+00 0. -1.
         25    1    1    2    0    0 -0.25217960498E+03  0.16442057298E+03 -0.55378406166E+03  0.64259665805E+03  0.12500000000E+03 0.  0.
         21    1    1    2  503  502  0.57486211358E+02 -0.86842302579E+02 -0.13206996584E+03  0.16819252626E+03  0.00000000000E+00 0.  1.
          2    1    1    2  501    0  0.19469339362E+03 -0.77578270399E+02  0.34946169933E+03  0.40748912238E+03  0.00000000000E+00 0. -1.
<mgrwt>
<rscale>  4 0.43241572E+03</rscale>
<asrwt>0</asrwt>
<pdfrwt beam="1">  1       21 0.11959005E+00 0.43241572E+03</pdfrwt>
<pdfrwt beam="2">  1        2 0.67837383E-01 0.43241572E+03</pdfrwt>
<totfact> 0.42997956E+02</totfact>
</mgrwt>
</event>
<event>
 5    0  0.2396052E+000  0.6163281E+03  0.7546771E-02  0.9872098E-01
         21   -1    0    0  501  502  0.00000000000E+00  0.00000000000E+00  0.26609739376E+03  0.26609739376E+03  0.00000000000E+00 0.  1.
          1   -1    0    0  503    0 -0.00000000000E+00 -0.00000000000E+00 -0.58793245008E+03  0.58793245008E+03  0.00000000000E+00 0. -1.
         25    1    1    2    0    0 -0.62407262031E+02  0.23177684018E+03 -0.16462396611E+03  0.31676682310E+03  0.12500000000E+03 0.  0.
         21    1    1    2  503  502  0.99668835514E+02 -0.28445515174E+03  0.62887131824E+02  0.30790161005E+03  0.00000000000E+00 0.  1.
          1    1    1    2  501    0 -0.37261573483E+02  0.52678311556E+02 -0.22009822204E+03  0.22936141068E+03  0.00000000000E+00 0. -1.
<mgrwt>
<rscale>  4 0.61632805E+03</rscale>
<asrwt>0</asrwt>
<pdfrwt beam="1">  1       21 0.40938061E-01 0.61632805E+03</pdfrwt>
<pdfrwt beam="2">  1        1 0.90451145E-01 0.61632805E+03</pdfrwt>
<totfact> 0.20892068E+03</totfact>
</mgrwt>
</event>
<event>
 5    0  0.2396052E+000  0.4958237E+03  0.7546771E-02  0.1014875E+00
         21   -1    0    0  501  502  0.00000000000E+00  0.00000000000E+00  0.14592036472E+03  0.14592036472E+03  0.00000000000E+00 0.  1.
          2   -1    0    0  503    0 -0.00000000000E+00 -0.00000000000E+00 -0.15675755105E+04  0.15675755105E+04  0.00000000000E+00 0.  1.
         25    1    1    2    0    0 -0.19105676669E+03  0.77001930587E+02 -0.23403451488E+03  0.33590049057E+03  0.12500000000E+03 0.  0.
         21    1    1    2  503  502  0.20879317986E+03 -0.90684467170E+02 -0.41661400521E+02  0.23141723539E+03  0.00000000000E+00 0.  1.
          2    1    1    2  501    0 -0.17736413166E+02  0.13682536583E+02 -0.11459592304E+04  0.11461781493E+04  0.00000000000E+00 0.  1.
<mgrwt>
<rscale>  4 0.49582372E+03</rscale>
<asrwt>0</asrwt>
<pdfrwt beam="1">  1       21 0.22449289E-01 0.49582372E+03</pdfrwt>
<pdfrwt beam="2">  1        2 0.24116544E+00 0.49582372E+03</pdfrwt>
<totfact> 0.27232146E+03</totfact>
</mgrwt>
</event>
<event>
 5    0  0.2396052E+000  0.7053956E+03  0.7546771E-02  0.9708049E-01
         21   -1    0    0  501  502  0.00000000000E+00  0.00000000000E+00  0.15792681717E+03  0.15792681717E+03  0.00000000000E+00 0. -1.
          2   -1    0    0  503    0 -0.00000000000E+00 -0.00000000000E+00 -0.20092755762E+04  0.20092755762E+04  0.00000000000E+00 0. -1.
         25    1    1    2    0    0  0.80498779789E+02 -0.24268128205E+03 -0.17166091062E+02  0.28512090924E+03  0.12500000000E+03 0.  0.
         21    1    1    2  503  502  0.75795038798E+02  0.20894896930E+03 -0.64557592303E+03  0.68276850548E+03  0.00000000000E+00 0.  1.
          2    1    1    2  501    0 -0.15629381859E+03  0.33732312748E+02 -0.11886067449E+04  0.11993129787E+04  0.00000000000E+00 0. -1.
<mgrwt>
<rscale>  4 0.70539559E+03</rscale>
<asrwt>0</asrwt>
<pdfrwt beam="1">  1       21 0.24296436E-01 0.70539559E+03</pdfrwt>
<pdfrwt beam="2">  1        2 0.30911929E+00 0.70539559E+03</pdfrwt>
<totfact> 0.12925729E+03</totfact>
</mgrwt>
</event>
<event>
 5    0  0.2396052E+000  0.8088708E+03  0.7546771E-02  0.9547265E-01
          1   -1    0    0  503    0 -0.00000000000E+00  0.00000000000E+00  0.98560396059E+03  0.98560396059E+03  0.00000000000E+00 0. -1.
         21   -1    0    0  501  502  0.00000000000E+00 -0.00000000000E+00 -0.23640303208E+03  0.23640303208E+03  0.00000000000E+00 0. -1.
         25    1    1    2    0    0 -0.32551038655E+03 -0.28506685231E+03  0.36978951006E+03  0.58274299978E+03  0.12500000000E+03 0.  0.
         21    1    1    2  503  502  0.26762572089E+03  0.21289827906E+03  0.11767464992E+03  0.36165802485E+03  0.00000000000E+00 0. -1.
          1    1    1    2  501    0  0.57884665660E+02  0.72168573258E+02  0.26173676853E+03  0.27760596803E+03  0.00000000000E+00 0. -1.
<mgrwt>
<rscale>  4 0.80887081E+03</rscale>
<asrwt>0</asrwt>
<pdfrwt beam="1">  1       21 0.36369698E-01 0.80887081E+03</pdfrwt>
<pdfrwt beam="2">  1        1 0.15163138E+00 0.80887081E+03</pdfrwt>
<totfact> 0.11547909E+03</totfact>
</mgrwt>
</event>
<event>
 5    0  0.2396052E+000  0.5902578E+03  0.7546771E-02  0.9925827E-01
         21   -1    0    0  501  502  0.00000000000E+00  0.00000000000E+00  0.10563683297E+04  0.10563683297E+04  0.00000000000E+00 0.  1.
          2   -1    0    0  503    0 -0.00000000000E+00 -0.00000000000E+00 -0.10459611063E+03  0.10459611063E+03  0.00000000000E+00 0. -1.
         25    1    1    2    0    0  0.15332353296E+03 -0.17441586304E+03  0.17444424098E+03  0.31620371954E+03  0.12500000000E+03 0.  0.
         21    1    1    2  503  502 -0.10184567983E+03  0.18591752429E+03  0.76035109292E+03  0.78934887904E+03  0.00000000000E+00 0.  1.
          2    1    1    2  501    0 -0.51477853129E+02 -0.11501661250E+02  0.16976885156E+02  0.55411841730E+02  0.00000000000E+00 0. -1.
<mgrwt>
<rscale>  4 0.59025777E+03</rscale>
<asrwt>0</asrwt>
<pdfrwt beam="1">  1       21 0.16251820E+00 0.59025777E+03</pdfrwt>
<pdfrwt beam="2">  1        2 0.16091710E-01 0.59025777E+03</pdfrwt>
<totfact> 0.93000280E+02</totfact>
</mgrwt>
</event>
<event>
 5    0  0.2396052E+000  0.4976141E+03  0.7546771E-02  0.1014404E+00
         21   -1    0    0  501  502  0.00000000000E+00  0.00000000000E+00  0.14502932811E+03  0.14502932811E+03  0.00000000000E+00 0. -1.
          2   -1    0    0  503    0 -0.00000000000E+00 -0.00000000000E+00 -0.25930979379E+04  0.25930979379E+04  0.00000000000E+00 0.  1.
         25    1    1    2    0    0  0.90504472102E+02 -0.22671487163E+03 -0.25264483690E+03  0.37288752473E+03  0.12500000000E+03 0.  0.
         21    1    1    2  503  502 -0.88421378358E+02  0.17631073006E+03 -0.30330574304E+02  0.19955890715E+03  0.00000000000E+00 0. -1.
          2    1    1    2  501    0 -0.20830937446E+01  0.50404141569E+02 -0.21650931985E+04  0.21656808341E+04  0.00000000000E+00 0.  1.
<mgrwt>
<rscale>  4 0.49761414E+03</rscale>
<asrwt>0</asrwt>
<pdfrwt beam="1">  1       21 0.22312206E-01 0.49761414E+03</pdfrwt>
<pdfrwt beam="2">  1        2 0.39893811E+00 0.49761414E+03</pdfrwt>
<totfact> 0.76039271E+02</totfact>
</mgrwt>
</event>
<event>
 5    0  0.2396052E+000  0.5671118E+03  0.7546771E-02  0.9976090E-01
          2   -1    0    0  503    0 -0.00000000000E+00  0.00000000000E+00  0.35387695045E+03  0.35387695045E+03  0.00000000000E+00 0.  1.
         21   -1    0    0  501  502  0.00000000000E+00 -0.00000000000E+00 -0.77102483860E+03  0.77102483860E+03  0.00000000000E+00 0.  1.
         25    1    1    2    0    0 -0.23299543102E+03  0.13432855192E+03 -0.40725999353E+03  0.50380227577E+03  0.12500000000E+03 0.  0.
         21    1    1    2  503  502  0.26193752415E+03 -0.38791477023E+02 -0.24807111857E+03  0.36284338924E+03  0.00000000000E+00 0.  1.
          2    1    1    2  501    0 -0.28942093124E+02 -0.95537074900E+02  0.23818322395E+03  0.25825612404E+03  0.00000000000E+00 0.  1.
<mgrwt>
<rscale>  4 0.56711184E+03</rscale>
<asrwt>0</asrwt>
<pdfrwt beam="1">  1       21 0.11861920E+00 0.56711184E+03</pdfrwt>
<pdfrwt beam="2">  1        2 0.54442609E-01 0.56711184E+03</pdfrwt>
<totfact> 0.54285612E+02</totfact>
</mgrwt>
</event>
<event>
 5    0  0.2396052E+000  0.5386185E+03  0.7546771E-02  0.1004163E+00
          2   -1    0    0  503    0 -0.00000000000E+00  0.00000000000E+00  0.47481252723E+03  0.47481252723E+03  0.00000000000E+00 0. -1.
         21   -1    0    0  501  502  0.00000000000E+00 -0.00000000000E+00 -0.43616809925E+03  0.43616809925E+03  0.00000000000E+00 0. -1.
         25    1    1    2    0    0  0.24560494235E+03 -0.89627208155E+02 -0.16284563297E+03  0.33241318314E+03  0.12500000000E+03 0.  0.
         21    1    1    2  503  502 -0.22639293138E+03  0.10096447771E+03 -0.10648179022E+03  0.26978872621E+03  0.00000000000E+00 0. -1.
          2    1    1    2  501    0 -0.19212010968E+02 -0.11337269560E+02  0.30797185117E+03  0.30877871714E+03  0.00000000000E+00 0. -1.
<mgrwt>
<rscale>  4 0.53861849E+03</rscale>
<asrwt>0</asrwt>
<pdfrwt beam="1">  1       21 0.67102785E-01 0.53861849E+03</pdfrwt>
<pdfrwt beam="2">  1        2 0.73048081E-01 0.53861849E+03</pdfrwt>
<totfact> 0.15249771E+03</totfact>
</mgrwt>
</event>
<event>
 5    0  0.2396052E+000  0.4157049E+03  0.7546771E-02  0.1038473E+00
         -2   -1    0    0    0  501 -0.00000000000E+00  0.00000000000E+00  0.82105498916E+02  0.82105498916E+02  0.00000000000E+00 0.  1.
         21   -1    0    0  501  502  0.00000000000E+00 -0.00000000000E+00 -0.13819950847E+04  0.13819950847E+04  0.00000000000E+00 0. -1.
         25    1    1    2    0    0  0.17870140195E+03 -0.18278196279E+03 -0.93687393866E+03  0.97913288880E+03  0.12500000000E+03 0.  0.
         21    1    1    2  503  502 -0.70428829731E+02 -0.29488260901E+02 -0.48798179826E+02  0.90614788763E+02  0.00000000000E+00 0.  1.
         -2    1    1    2    0  503 -0.10827257222E+03  0.21227022369E+03 -0.31421746729E+03  0.39435290605E+03  0.00000000000E+00 0.  1.
<mgrwt>
<rscale>  4 0.41570491E+03</rscale>
<asrwt>0</asrwt>
<pdfrwt beam="1">  1       21 0.21261462E+00 0.41570491E+03</pdfrwt>
<pdfrwt beam="2">  1       -2 0.12631615E-01 0.41570491E+03</pdfrwt>
<totfact> 0.36037231E+02</totfact>
</mgrwt>
</event>
<event>
 5    0  0.2396052E+000  0.5610919E+03  0.7546771E-02  0.9989587E-01
          1   -1    0    0  503    0 -0.00000000000E+00  0.00000000000E+00  0.12959736275E+04  0.12959736275E+04  0.00000000000E+00 0. -1.
         21   -1    0    0  501  502  0.00000000000E+00 -0.00000000000E+00 -0.11815122395E+03  0.11815122395E+03  0.00000000000E+00 0.  1.
         25    1    1    2    0    0 -0.44126783914E+02 -0.25521138404E+03  0.13597113295E+03  0.31810874335E+03  0.12500000000E+03 0.  0.
         21    1    1    2  503  502  0.45855847917E+02  0.21109792065E+03  0.41722504297E+03  0.46983170111E+03  0.00000000000E+00 0. -1.
          1    1    1    2  501    0 -0.17290640027E+01  0.44113463389E+02  0.62462622758E+03  0.62618440694E+03  0.00000000000E+00 0. -1.
<mgrwt>
<rscale>  4 0.56109191E+03</rscale>
<asrwt>0</asrwt>
<pdfrwt beam="1">  1       21 0.18177112E-01 0.56109191E+03</pdfrwt>
<pdfrwt beam="2">  1        1 0.19938055E+00 0.56109191E+03</pdfrwt>
<totfact> 0.27735197E+03</totfact>
</mgrwt>
</event>
<event>
 5    0  0.2396052E+000  0.7297957E+03  0.7546771E-02  0.9667592E-01
         21   -1    0    0  501  502  0.00000000000E+00  0.00000000000E+00  0.11415127732E+04  0.11415127732E+04  0.00000000000E+00 0.  1.
          2   -1    0    0  503    0 -0.00000000000E+00 -0.00000000000E+00 -0.10723654233E+04  0.10723654233E+04  0.00000000000E+00 0.  1.
         25    1    1    2    0    0 -0.15107751047E+03  0.25173604588E+03  0.35972379602E+03  0.48085513451E+03  0.12500000000E+03 0.  0.
         21    1    1    2  503  502  0.10802060379E+03 -0.38792145744E+03  0.65925753704E+03  0.77251019937E+03  0.00000000000E+00 0.  1.
          2    1    1    2  501    0  0.43056906678E+02  0.13618541156E+03 -0.94983398319E+03  0.96051286257E+03  0.00000000000E+00 0.  1.
<mgrwt>
<rscale>  4 0.72979566E+03</rscale>
<asrwt>0</asrwt>
<pdfrwt beam="1">  1       21 0.17561735E+00 0.72979566E+03</pdfrwt>
<pdfrwt beam="2">  1        2 0.16497930E+00 0.72979566E+03</pdfrwt>
<totfact> 0.45134215E+01</totfact>
</mgrwt>
</event>
<event>
 5    0  0.2396052E+000  0.4296104E+03  0.7546771E-02  0.1033983E+00
         -3   -1    0    0    0  501 -0.00000000000E+00  0.00000000000E+00  0.65083077138E+03  0.65083077138E+03  0.00000000000E+00 0.  1.
         21   -1    0    0  501  502  0.00000000000E+00 -0.00000000000E+00 -0.25082508964E+04  0.25082508964E+04  0.00000000000E+00 0. -1.
         25    1    1    2    0    0 -0.25063190407E+03  0.16480439405E+03 -0.16381526939E+04  0.16700736775E+04  0.12500000000E+03 0.  0.
         21    1    1    2  503  502  0.83642965915E+02 -0.39774018286E+02 -0.83436936315E+03  0.83949410507E+03  0.00000000000E+00 0. -1.
         -3    1    1    2    0  503  0.16698893815E+03 -0.12503037577E+03  0.61510193203E+03  0.64951388524E+03  0.00000000000E+00 0.  1.
<mgrwt>
<rscale>  4 0.42961044E+03</rscale>
<asrwt>0</asrwt>
<pdfrwt beam="1">  1       21 0.38588475E+00 0.42961044E+03</pdfrwt>
<pdfrwt beam="2">  1       -3 0.10012781E+00 0.42961044E+03</pdfrwt>
<totfact> 0.37446431E-01</totfact>
</mgrwt>
</event>
<event>
 5    0  0.2396052E+000  0.5396704E+03  0.7546771E-02  0.1003913E+00
         21   -1    0    0  501  502  0.00000000000E+00  0.00000000000E+00  0.17223050397E+03  0.17223050397E+03  0.00000000000E+00 0. -1.
         -3   -1    0    0    0  501 -0.00000000000E+00 -0.00000000000E+00 -0.19583053557E+04  0.19583053557E+04  0.00000000000E+00 0.  1.
         25    1    1    2    0    0  0.71565469724E+02 -0.30745773260E+03 -0.36498491141E+03  0.49848857495E+03  0.12500000000E+03 0.  0.
         21    1    1    2  503  502  0.13777642501E+03  0.21215592363E+00  0.24041149825E+02  0.13985837545E+03  0.00000000000E+00 0. -1.
         -3    1    1    2    0  503 -0.20934189473E+03  0.30724557668E+03 -0.14451310901E+04  0.14921889092E+04  0.00000000000E+00 0.  1.
<mgrwt>
<rscale>  4 0.53967044E+03</rscale>
<asrwt>0</asrwt>
<pdfrwt beam="1">  1       21 0.26496999E-01 0.53967044E+03</pdfrwt>
<pdfrwt beam="2">  1       -3 0.30127777E+00 0.53967044E+03</pdfrwt>
<totfact> 0.25970742E+01</totfact>
</mgrwt>
</event>
<event>
 5    0  0.2396052E+000  0.7489989E+03  0.7546771E-02  0.9636922E-01
         21   -1    0    0  501  502  0.00000000000E+00  0.00000000000E+00  0.59540555197E+02  0.59540555197E+02  0.00000000000E+00 0.  1.
          2   -1    0    0  503    0 -0.00000000000E+00 -0.00000000000E+00 -0.32697928951E+04  0.32697928951E+04  0.00000000000E+00 0.  1.
         25    1    1    2    0    0  0.16823189431E+03  0.28244011888E+03 -0.74107421967E+03  0.82029896384E+03  0.12500000000E+03 0.  0.
         21    1    1    2  503  502 -0.14942559199E+03 -0.31891247048E+03 -0.15741360774E+04  0.16130522501E+04  0.00000000000E+00 0.  1.
          2    1    1    2  501    0 -0.18806302323E+02  0.36472351601E+02 -0.89504204287E+03  0.89598223640E+03  0.00000000000E+00 0.  1.
<mgrwt>
<rscale>  4 0.74899894E+03</rscale>
<asrwt>0</asrwt>
<pdfrwt beam="1">  1       21 0.91600855E-02 0.74899894E+03</pdfrwt>
<pdfrwt beam="2">  1        2 0.50304506E+00 0.74899894E+03</pdfrwt>
<totfact> 0.14713030E+03</totfact>
</mgrwt>
</event>
<event>
 5    0  0.2396052E+000  0.4989834E+03  0.7546771E-02  0.1014045E+00
         21   -1    0    0  501  502  0.00000000000E+00  0.00000000000E+00  0.12940594350E+03  0.12940594350E+03  0.00000000000E+00 0. -1.
          2   -1    0    0  503    0 -0.00000000000E+00 -0.00000000000E+00 -0.84147740452E+03  0.84147740452E+03  0.00000000000E+00 0.  1.
         25    1    1    2    0    0 -0.10413825424E+03 -0.26243127017E+03 -0.18409612987E+03  0.35948759727E+03  0.12500000000E+03 0.  0.
         21    1    1    2  503  502  0.11118291128E+03  0.12991805371E+03 -0.24409866557E+03  0.29803439227E+03  0.00000000000E+00 0. -1.
          2    1    1    2  501    0 -0.70446570372E+01  0.13251321645E+03 -0.28387666558E+03  0.31336135848E+03  0.00000000000E+00 0.  1.
<mgrwt>
<rscale>  4 0.49898335E+03</rscale>
<asrwt>0</asrwt>
<pdfrwt beam="1">  1       21 0.19908607E-01 0.49898335E+03</pdfrwt>
<pdfrwt beam="2">  1        2 0.12945806E+00 0.49898335E+03</pdfrwt>
<totfact> 0.92440502E+03</totfact>
</mgrwt>
</event>
<event>
 5    0  0.2396052E+000  0.1121636E+04  0.7546771E-02  0.9184357E-01
         21   -1    0    0  501  502  0.00000000000E+00  0.00000000000E+00  0.38713606273E+03  0.38713606273E+03  0.00000000000E+00 0. -1.
          1   -1    0    0  503    0 -0.00000000000E+00 -0.00000000000E+00 -0.31055996429E+04  0.31055996429E+04  0.00000000000E+00 0. -1.
         25    1    1    2    0    0 -0.56475340171E+03  0.88426642621E+02 -0.26657319114E+03  0.64300228779E+03  0.12500000000E+03 0.  0.
         21    1    1    2  503  502  0.52097908199E+03 -0.11493890171E+03 -0.15959508218E+03  0.55686690084E+03  0.00000000000E+00 0. -1.
          1    1    1    2  501    0  0.43774319725E+02  0.26512259092E+02 -0.22922953068E+04  0.22928665170E+04  0.00000000000E+00 0. -1.
<mgrwt>
<rscale>  4 0.11216357E+04</rscale>
<asrwt>0</asrwt>
<pdfrwt beam="1">  1       21 0.59559394E-01 0.11216357E+04</pdfrwt>
<pdfrwt beam="2">  1        1 0.47778456E+00 0.11216357E+04</pdfrwt>
<totfact> 0.12696972E+01</totfact>
</mgrwt>
</event>
<event>
 5    0  0.2396052E+000  0.3917567E+03  0.7546771E-02  0.1046672E+00
         21   -1    0    0  501  502  0.00000000000E+00  0.00000000000E+00  0.36446990861E+03  0.36446990861E+03  0.00000000000E+00 0. -1.
         -1   -1    0    0    0  501 -0.00000000000E+00 -0.00000000000E+00 -0.27583692036E+03  0.27583692036E+03  0.00000000000E+00 0. -1.
         25    1    1    2    0    0  0.21250034590E+03  0.49705021259E+01  0.15725341648E+03  0.29246322828E+03  0.12500000000E+03 0.  0.
         21    1    1    2  503  502 -0.48297197714E+02  0.12056727067E+03  0.55152126320E+00  0.12988221680E+03  0.00000000000E+00 0.  1.
         -1    1    1    2    0  503 -0.16420314819E+03 -0.12553777280E+03 -0.69171949488E+02  0.21796138389E+03  0.00000000000E+00 0. -1.
<mgrwt>
<rscale>  4 0.39175665E+03</rscale>
<asrwt>0</asrwt>
<pdfrwt beam="1">  1       21 0.56072293E-01 0.39175665E+03</pdfrwt>
<pdfrwt beam="2">  1       -1 0.42436450E-01 0.39175665E+03</pdfrwt>
<totfact> 0.14528424E+03</totfact>
</mgrwt>
</event>
<event>
 5    0  0.2396052E+000  0.6830948E+03  0.7546771E-02  0.9746587E-01
         21   -1    0    0  501  502  0.00000000000E+00  0.00000000000E+00  0.43100086252E+03  0.43100086252E+03  0.00000000000E+00 0.  1.
          2   -1    0    0  503    0 -0.00000000000E+00 -0.00000000000E+00 -0.21864644705E+04  0.21864644705E+04  0.00000000000E+00 0.  1.
         25    1    1    2    0    0 -0.58272642751E+03 -0.14584048701E+03  0.11834806419E+03  0.62487662884E+03  0.12500000000E+03 0.  0.
         21    1    1    2  503  502  0.30510808609E+02  0.48545727829E+02 -0.28624341003E+02  0.64085490013E+02  0.00000000000E+00 0. -1.
          2    1    1    2  501    0  0.55221561890E+03  0.97294759186E+02 -0.18451873312E+04  0.19285032142E+04  0.00000000000E+00 0.  1.
<mgrwt>
<rscale>  4 0.68309476E+03</rscale>
<asrwt>0</asrwt>
<pdfrwt beam="1">  1       21 0.66307825E-01 0.68309476E+03</pdfrwt>
<pdfrwt beam="2">  1        2 0.33637915E+00 0.68309476E+03</pdfrwt>
<totfact> 0.12776085E+02</totfact>
</mgrwt>
</event>
<event>
 5    0  0.2396052E+000  0.4435706E+03  0.7546771E-02  0.1029657E+00
          2   -1    0    0  503    0 -0.00000000000E+00  0.00000000000E+00  0.38475582603E+04  0.38475582603E+04  0.00000000000E+00 0. -1.
         21   -1    0    0  501  502  0.00000000000E+00 -0.00000000000E+00 -0.33084367480E+02  0.33084367480E+02  0.00000000000E+00 0.  1.
         25    1    1    2    0    0 -0.16556654803E+03  0.13421129171E+03  0.15964665614E+04  0.16154737492E+04  0.12500000000E+03 0.  0.
         21    1    1    2  503  502  0.27986787569E+02 -0.43712791300E+02  0.12324900545E+02  0.53347648262E+02  0.00000000000E+00 0.  1.
          2    1    1    2  501    0  0.13757976047E+03 -0.90498500410E+02  0.22056824309E+04  0.22118212303E+04  0.00000000000E+00 0. -1.
<mgrwt>
<rscale>  4 0.44357061E+03</rscale>
<asrwt>0</asrwt>
<pdfrwt beam="1">  1       21 0.50899057E-02 0.44357061E+03</pdfrwt>
<pdfrwt beam="2">  1        2 0.59193169E+00 0.44357061E+03</pdfrwt>
<totfact> 0.17885930E+03</totfact>
</mgrwt>
</event>
<event>
 5    0  0.2589598E+000  0.8339582E+03  0.7546771E-02  0.9512124E-01
         21   -1    0    0  501  502  0.00000000000E+00  0.00000000000E+00  0.77158834642E+03  0.77158834642E+03  0.00000000000E+00 0. -1.
          2   -1    0    0  503    0 -0.00000000000E+00 -0.00000000000E+00 -0.38499303210E+03  0.38499303210E+03  0.00000000000E+00 0.  1.
         25    1    1    2    0    0  0.22439567182E+02  0.20271890377E+03 -0.14637999265E+03  0.28044712580E+03  0.12500000000E+03 0.  0.
         21    1    1    2  503  502 -0.35507417074E+02 -0.18191077943E+03  0.69140194399E+03  0.71581349281E+03  0.00000000000E+00 0. -1.
          2    1    1    2  501    0  0.13067849892E+02 -0.20808124341E+02 -0.15842663702E+03  0.16032075990E+03  0.00000000000E+00 0.  1.
<mgrwt>
<rscale>  4 0.83395821E+03</rscale>
<asrwt>0</asrwt>
<pdfrwt beam="1">  1       21 0.11870590E+00 0.83395821E+03</pdfrwt>
<pdfrwt beam="2">  1        2 0.59229698E-01 0.83395821E+03</pdfrwt>
<totfact> 0.47157049E+02</totfact>
</mgrwt>
</event>
<event>
 5    0  0.2396052E+000  0.4527921E+03  0.7546771E-02  0.1026893E+00
          1   -1    0    0  503    0 -0.00000000000E+00  0.00000000000E+00  0.25599406692E+04  0.25599406692E+04  0.00000000000E+00 0. -1.
         21   -1    0    0  501  502  0.00000000000E+00 -0.00000000000E+00 -0.11449581001E+03  0.11449581001E+03  0.00000000000E+00 0. -1.
         25    1    1    2    0    0 -0.19154764073E+03  0.14846541212E+03  0.39759495667E+03  0.48211951510E+03  0.12500000000E+03 0.  0.
         21    1    1    2  503  502 -0.69365445714E+02 -0.81079859796E+02 -0.18650609064E+02  0.10832060719E+03  0.00000000000E+00 0. -1.
          1    1    1    2  501    0  0.26091308644E+03 -0.67385552328E+02  0.20665005116E+04  0.20839963569E+04  0.00000000000E+00 0. -1.
<mgrwt>
<rscale>  4 0.45279214E+03</rscale>
<asrwt>0</asrwt>
<pdfrwt beam="1">  1       21 0.17614742E-01 0.45279214E+03</pdfrwt>
<pdfrwt beam="2">  1        1 0.39383698E+00 0.45279214E+03</pdfrwt>
<totfact> 0.42928452E+02</totfact>
</mgrwt>
</event>
<event>
 5    0  0.2396052E+000  0.7258448E+03  0.7546771E-02  0.9674027E-01
         21   -1    0    0  501  502  0.00000000000E+00  0.00000000000E+00  0.16206516122E+04  0.16206516122E+04  0.00000000000E+00 0. -1.
         -3   -1    0    0    0  501 -0.00000000000E+00 -0.00000000000E+00 -0.14204042204E+03  0.14204042204E+03  0.00000000000E+00 0. -1.
         25    1    1    2    0    0 -0.26784698329E+03  0.12819740051E+02  0.23776666212E+03  0.37955808226E+03  0.12500000000E+03 0.  0.
         21    1    1    2  503  502  0.23602107479E+03  0.77522063438E+01  0.12953774971E+04  0.13167265869E+04  0.00000000000E+00 0. -1.
         -3    1    1    2    0  503  0.31825908498E+02 -0.20571946394E+02 -0.54532969072E+02  0.66407365148E+02  0.00000000000E+00 0. -1.
<mgrwt>
<rscale>  4 0.72584479E+03</rscale>
<asrwt>0</asrwt>
<pdfrwt beam="1">  1       21 0.24933100E+00 0.72584479E+03</pdfrwt>
<pdfrwt beam="2">  1       -3 0.21852374E-01 0.72584479E+03</pdfrwt>
<totfact> 0.52290755E+01</totfact>
</mgrwt>
</event>
<event>
 5    0  0.2396052E+000  0.7110741E+03  0.7546771E-02  0.9698479E-01
         21   -1    0    0  501  502  0.00000000000E+00  0.00000000000E+00  0.35764703999E+03  0.35764703999E+03  0.00000000000E+00 0.  1.
          2   -1    0    0  503    0 -0.00000000000E+00 -0.00000000000E+00 -0.20248842038E+04  0.20248842038E+04  0.00000000000E+00 0.  1.
         25    1    1    2    0    0  0.12178750738E+03  0.41556690359E+03 -0.41312716424E+02  0.45261439311E+03  0.12500000000E+03 0.  0.
         21    1    1    2  503  502 -0.11371984811E+03  0.22690835955E+03 -0.97434738098E+02  0.27186970349E+03  0.00000000000E+00 0. -1.
          2    1    1    2  501    0 -0.80676592721E+01 -0.64247526314E+03 -0.15284897092E+04  0.16580471471E+04  0.00000000000E+00 0.  1.
<mgrwt>
<rscale>  4 0.71107408E+03</rscale>
<asrwt>0</asrwt>
<pdfrwt beam="1">  1       21 0.55022621E-01 0.71107408E+03</pdfrwt>
<pdfrwt beam="2">  1        2 0.31152065E+00 0.71107408E+03</pdfrwt>
<totfact> 0.23515750E+02</totfact>
</mgrwt>
</event>
<event>
 5    0  0.2396052E+000  0.3712007E+03  0.7546771E-02  0.1054235E+00
          1   -1    0    0  503    0 -0.00000000000E+00  0.00000000000E+00  0.35278723101E+04  0.35278723101E+04  0.00000000000E+00 0. -1.
         21   -1    0    0  501  502  0.00000000000E+00 -0.00000000000E+00 -0.37864092630E+02  0.37864092630E+02  0.00000000000E+00 0. -1.
         25    1    1    2    0    0  0.13281231357E+03  0.16972427940E+03  0.46665720176E+03  0.52899847410E+03  0.12500000000E+03 0.  0.
         21    1    1    2  503  502 -0.12698879943E+01  0.36526153655E+02  0.58693857837E+03  0.58807539253E+03  0.00000000000E+00 0.  1.
          1    1    1    2  501    0 -0.13154242557E+03 -0.20625043306E+03  0.24364124374E+04  0.24486625361E+04  0.00000000000E+00 0. -1.
<mgrwt>
<rscale>  4 0.37120069E+03</rscale>
<asrwt>0</asrwt>
<pdfrwt beam="1">  1       21 0.58252478E-02 0.37120069E+03</pdfrwt>
<pdfrwt beam="2">  1        1 0.54274933E+00 0.37120069E+03</pdfrwt>
<totfact> 0.65876965E+02</totfact>
</mgrwt>
</event>
<event>
 5    0  0.2396052E+000  0.4410344E+03  0.7546771E-02  0.1030430E+00
         -1   -1    0    0    0  501 -0.00000000000E+00  0.00000000000E+00  0.12057236954E+04  0.12057236954E+04  0.00000000000E+00 0. -1.
         21   -1    0    0  501  502  0.00000000000E+00 -0.00000000000E+00 -0.91174739439E+02  0.91174739439E+02  0.00000000000E+00 0. -1.
         25    1    1    2    0    0 -0.33012306107E+02 -0.20652789547E+03  0.30741022223E+03  0.39226219382E+03  0.12500000000E+03 0.  0.
         21    1    1    2  503  502  0.16513981538E+02  0.18867976161E+03  0.13627318962E+03  0.23333055144E+03  0.00000000000E+00 0. -1.
         -1    1    1    2    0  503  0.16498324569E+02  0.17848133863E+02  0.67086554407E+03  0.67130568955E+03  0.00000000000E+00 0. -1.
<mgrwt>
<rscale>  4 0.44103437E+03</rscale>
<asrwt>0</asrwt>
<pdfrwt beam="1">  1       21 0.14026884E-01 0.44103437E+03</pdfrwt>
<pdfrwt beam="2">  1       -1 0.18549594E+00 0.44103437E+03</pdfrwt>
<totfact> 0.82410955E+02</totfact>
</mgrwt>
</event>
<event>
 5    0  0.2396052E+000  0.5927351E+03  0.7546771E-02  0.9920594E-01
         21   -1    0    0  501  502  0.00000000000E+00  0.00000000000E+00  0.29081464602E+03  0.29081464602E+03  0.00000000000E+00 0.  1.
         -1   -1    0    0    0  501 -0.00000000000E+00 -0.00000000000E+00 -0.16508556527E+04  0.16508556527E+04  0.00000000000E+00 0. -1.
         25    1    1    2    0    0 -0.21613831809E+03 -0.84144045678E+02 -0.20031843662E+03  0.33098107049E+03  0.12500000000E+03 0.  0.
         21    1    1    2  503  502  0.17937034723E+03  0.34558194224E+02  0.18766427318E+03  0.26188904078E+03  0.00000000000E+00 0.  1.
         -1    1    1    2    0  503  0.36767970862E+02  0.49585851454E+02 -0.13473868433E+04  0.13488001875E+04  0.00000000000E+00 0. -1.
<mgrwt>
<rscale>  4 0.59273505E+03</rscale>
<asrwt>0</asrwt>
<pdfrwt beam="1">  1       21 0.44740715E-01 0.59273505E+03</pdfrwt>
<pdfrwt beam="2">  1       -1 0.25397779E+00 0.59273505E+03</pdfrwt>
<totfact> 0.28883625E+01</totfact>
</mgrwt>
</event>
<event>
 5    0  0.2396052E+000  0.6828810E+03  0.7546771E-02  0.9746964E-01
         -1   -1    0    0    0  501 -0.00000000000E+00  0.00000000000E+00  0.10084306398E+04  0.10084306398E+04  0.00000000000E+00 0. -1.
         21   -1    0    0  501  502  0.00000000000E+00 -0.00000000000E+00 -0.30697620739E+03  0.30697620739E+03  0.00000000000E+00 0. -1.
         25    1    1    2    0    0  0.74864565037E+02 -0.27495284094E+03  0.22432397663E+03  0.38360137425E+03  0.12500000000E+03 0.  0.
         21    1    1    2  503  502 -0.71192087433E+02  0.25304559005E+03 -0.15108678315E+03  0.30319564640E+03  0.00000000000E+00 0. -1.
         -1    1    1    2    0  503 -0.36724776044E+01  0.21907250894E+02  0.62821723897E+03  0.62860982658E+03  0.00000000000E+00 0. -1.
<mgrwt>
<rscale>  4 0.68288100E+03</rscale>
<asrwt>0</asrwt>
<pdfrwt beam="1">  1       21 0.47227109E-01 0.68288100E+03</pdfrwt>
<pdfrwt beam="2">  1       -1 0.15514317E+00 0.68288100E+03</pdfrwt>
<totfact> 0.12002412E+02</totfact>
</mgrwt>
</event>
<event>
 5    0  0.2396052E+000  0.4761125E+03  0.7546771E-02  0.1020209E+00
         21   -1    0    0  501  502  0.00000000000E+00  0.00000000000E+00  0.39534126178E+03  0.39534126178E+03  0.00000000000E+00 0.  1.
          2   -1    0    0  503    0 -0.00000000000E+00 -0.00000000000E+00 -0.45007776186E+03  0.45007776186E+03  0.00000000000E+00 0.  1.
         25    1    1    2    0    0  0.14346353950E+03  0.14324519855E+03  0.14298967823E+02  0.23860099445E+03  0.12500000000E+03 0.  0.
         21    1    1    2  503  502 -0.18790901212E+03 -0.34636238966E+02  0.22206456146E+03  0.29295415228E+03  0.00000000000E+00 0. -1.
          2    1    1    2  501    0  0.44445472618E+02 -0.10860895958E+03 -0.29110002936E+03  0.31386387691E+03  0.00000000000E+00 0.  1.
<mgrwt>
<rscale>  4 0.47611255E+03</rscale>
<asrwt>0</asrwt>
<pdfrwt beam="1">  1       21 0.60821733E-01 0.47611255E+03</pdfrwt>
<pdfrwt beam="2">  1        2 0.69242732E-01 0.47611255E+03</pdfrwt>
<totfact> 0.20378559E+03</totfact>
</mgrwt>
</event>
<event>
 5    0  0.2396052E+000  0.6933993E+03  0.7546771E-02  0.9728587E-01
         21   -1    0    0  501  502  0.00000000000E+00  0.00000000000E+00  0.48563128356E+03  0.48563128356E+03  0.00000000000E+00 0. -1.
          2   -1    0    0  503    0 -0.00000000000E+00 -0.00000000000E+00 -0.46886328845E+03  0.46886328845E+03  0.00000000000E+00 0. -1.
         25    1    1    2    0    0  0.30999412750E+03  0.77351253967E+02  0.13497568964E+03  0.36867738250E+03  0.12500000000E+03 0.  0.
         21    1    1    2  503  502 -0.34555720631E+03 -0.51806641460E+02  0.99850777250E+02  0.36340595571E+03  0.00000000000E+00 0. -1.
          2    1    1    2  501    0  0.35563078811E+02 -0.25544612507E+02 -0.21805847179E+03  0.22241123380E+03  0.00000000000E+00 0. -1.
<mgrwt>
<rscale>  4 0.69339927E+03</rscale>
<asrwt>0</asrwt>
<pdfrwt beam="1">  1       21 0.74712506E-01 0.69339927E+03</pdfrwt>
<pdfrwt beam="2">  1        2 0.72132813E-01 0.69339927E+03</pdfrwt>
<totfact> 0.11835689E+03</totfact>
</mgrwt>
</event>
<event>
 5    0  0.2396052E+000  0.6191391E+03  0.7546771E-02  0.9866475E-01
          1   -1    0    0  503    0 -0.00000000000E+00  0.00000000000E+00  0.99789855643E+03  0.99789855643E+03  0.00000000000E+00 0. -1.
         21   -1    0    0  501  502  0.00000000000E+00 -0.00000000000E+00 -0.14037748094E+03  0.14037748094E+03  0.00000000000E+00 0. -1.
         25    1    1    2    0    0 -0.18662766105E+03 -0.19262965059E+03  0.60740433754E+03  0.67564864790E+03  0.12500000000E+03 0.  0.
         21    1    1    2  503  502  0.10997495728E+03  0.14094118783E+03 -0.17371654499E+02  0.17961259431E+03  0.00000000000E+00 0. -1.
          1    1    1    2  501    0  0.76652703769E+02  0.51688462760E+02  0.26748839246E+03  0.28301479516E+03  0.00000000000E+00 0. -1.
<mgrwt>
<rscale>  4 0.61913910E+03</rscale>
<asrwt>0</asrwt>
<pdfrwt beam="1">  1       21 0.21596536E-01 0.61913910E+03</pdfrwt>
<pdfrwt beam="2">  1        1 0.15352285E+00 0.61913910E+03</pdfrwt>
<totfact> 0.32684458E+03</totfact>
</mgrwt>
</event>
<event>
 5    0  0.2396052E+000  0.4731880E+03  0.7546771E-02  0.1021024E+00
         21   -1    0    0  501  502  0.00000000000E+00  0.00000000000E+00  0.27984755491E+02  0.27984755491E+02  0.00000000000E+00 0. -1.
          2   -1    0    0  503    0 -0.00000000000E+00 -0.00000000000E+00 -0.40364786895E+04  0.40364786895E+04  0.00000000000E+00 0. -1.
         25    1    1    2    0    0 -0.13582174314E+03 -0.14724473689E+03 -0.15903088880E+04  0.16077424911E+04  0.12500000000E+03 0.  0.
         21    1    1    2  503  502  0.16978785748E+03  0.72986688099E+02 -0.44504738858E+03  0.48189433620E+03  0.00000000000E+00 0. -1.
          2    1    1    2  501    0 -0.33966114332E+02  0.74258048795E+02 -0.19731376575E+04  0.19748266177E+04  0.00000000000E+00 0. -1.
<mgrwt>
<rscale>  4 0.47318801E+03</rscale>
<asrwt>0</asrwt>
<pdfrwt beam="1">  1       21 0.43053531E-02 0.47318801E+03</pdfrwt>
<pdfrwt beam="2">  1        2 0.62099585E+00 0.47318801E+03</pdfrwt>
<totfact> 0.16943592E+03</totfact>
</mgrwt>
</event>
<event>
 5    0  0.2396052E+000  0.3540969E+03  0.7546771E-02  0.1060946E+00
         21   -1    0    0  501  502  0.00000000000E+00  0.00000000000E+00  0.14154843577E+04  0.14154843577E+04  0.00000000000E+00 0. -1.
         -3   -1    0    0    0  501 -0.00000000000E+00 -0.00000000000E+00 -0.13796929759E+03  0.13796929759E+03  0.00000000000E+00 0. -1.
         25    1    1    2    0    0  0.19993741418E+03 -0.53889388156E+02  0.60865330464E+03  0.65495257919E+03  0.12500000000E+03 0.  0.
         21    1    1    2  503  502 -0.24229735607E+02 -0.14011613939E+02  0.70595733566E+03  0.70651197102E+03  0.00000000000E+00 0.  1.
         -3    1    1    2    0  503 -0.17570767857E+03  0.67901002095E+02 -0.37095580208E+02  0.19198910507E+03  0.00000000000E+00 0. -1.
<mgrwt>
<rscale>  4 0.35409686E+03</rscale>
<asrwt>0</asrwt>
<pdfrwt beam="1">  1       21 0.21776681E+00 0.35409686E+03</pdfrwt>
<pdfrwt beam="2">  1       -3 0.21226047E-01 0.35409686E+03</pdfrwt>
<totfact> 0.95898528E+01</totfact>
</mgrwt>
</event>
<event>
 5    0  0.2396052E+000  0.4870378E+03  0.7546771E-02  0.1017219E+00
          1   -1    0    0  503    0 -0.00000000000E+00  0.00000000000E+00  0.14807049539E+04  0.14807049539E+04  0.00000000000E+00 0.  1.
         21   -1    0    0  501  502  0.00000000000E+00 -0.00000000000E+00 -0.28743307510E+03  0.28743307510E+03  0.00000000000E+00 0.  1.
         25    1    1    2    0    0  0.27817443250E+03  0.68635907853E+02 -0.14719285098E+03  0.34551792736E+03  0.12500000000E+03 0.  0.
         21    1    1    2  503  502  0.67081537942E+02  0.53421302555E+02  0.11399659094E+03  0.14264988975E+03  0.00000000000E+00 0. -1.
          1    1    1    2  501    0 -0.34525597045E+03 -0.12205721041E+03  0.12264681388E+04  0.12799702119E+04  0.00000000000E+00 0.  1.
<mgrwt>
<rscale>  4 0.48703781E+03</rscale>
<asrwt>0</asrwt>
<pdfrwt beam="1">  1       21 0.44220474E-01 0.48703781E+03</pdfrwt>
<pdfrwt beam="2">  1        1 0.22780076E+00 0.48703781E+03</pdfrwt>
<totfact> 0.36031236E+02</totfact>
</mgrwt>
</event>
<event>
 5    0  0.2396052E+000  0.3369934E+03  0.7546771E-02  0.1068084E+00
         -1   -1    0    0    0  501 -0.00000000000E+00  0.00000000000E+00  0.64155786203E+02  0.64155786203E+02  0.00000000000E+00 0. -1.
         21   -1    0    0  501  502  0.00000000000E+00 -0.00000000000E+00 -0.11384605756E+04  0.11384605756E+04  0.00000000000E+00 0.  1.
         25    1    1    2    0    0  0.89643877854E+02 -0.18077385198E+03 -0.61647713153E+03  0.66059387228E+03  0.12500000000E+03 0.  0.
         21    1    1    2  503  502 -0.87875254561E+02  0.38547139574E+02 -0.35169868284E+03  0.36455439353E+03  0.00000000000E+00 0. -1.
         -1    1    1    2    0  503 -0.17686232935E+01  0.14222671241E+03 -0.10612897501E+03  0.17746809597E+03  0.00000000000E+00 0. -1.
<mgrwt>
<rscale>  4 0.33699341E+03</rscale>
<asrwt>0</asrwt>
<pdfrwt beam="1">  1       21 0.17514780E+00 0.33699341E+03</pdfrwt>
<pdfrwt beam="2">  1       -1 0.98701197E-02 0.33699341E+03</pdfrwt>
<totfact> 0.10299773E+03</totfact>
</mgrwt>
</event>
