<event>
 5    0  0.1943430E+001  0.2816858E+03  0.7546771E-02  0.1094772E+00
         21   -1    0    0  503  501  0.00000000000E+00  0.00000000000E+00  0.60651512224E+02  0.60651512224E+02  0.00000000000E+00 0. -1.
         21   -1    0    0  504  502 -0.00000000000E+00 -0.00000000000E+00 -0.18463277490E+04  0.18463277490E+04  0.00000000000E+00 0. -1.
         25    1    1    2    0    0  0.14970469830E+03  0.20279747311E+03 -0.45384577343E+03  0.53398436106E+03  0.12500000000E+03 0.  0.
         21    1    1    2  503  502 -0.17068637646E+03 -0.18786199336E+03 -0.77371447543E+03  0.81428499749E+03  0.00000000000E+00 0. -1.
         21    1    1    2  504  501  0.20981678153E+02 -0.14935479753E+02 -0.55811598787E+03  0.55870990263E+03  0.00000000000E+00 0. -1.
<mgrwt>
<rscale>  4 0.28168583E+03</rscale>
<asrwt>0</asrwt>
<pdfrwt beam="1">  1       21 0.93310025E-02 0.28168583E+03</pdfrwt>
<pdfrwt beam="2">  1       21 0.28405041E+00 0.28168583E+03</pdfrwt>
<totfact> 0.35495838E+03</totfact>
</mgrwt>
</event>
<event>
 5    0  0.1943430E+001  0.4268908E+03  0.7546771E-02  0.1034847E+00
         21   -1    0    0  504  501  0.00000000000E+00  0.00000000000E+00  0.17695567467E+04  0.17695567467E+04  0.00000000000E+00 0.  1.
         21   -1    0    0  501  502 -0.00000000000E+00 -0.00000000000E+00 -0.26804092935E+03  0.26804092935E+03  0.00000000000E+00 0.  1.
         25    1    1    2    0    0  0.23524462790E+03  0.18730697218E+03  0.12525589444E+04  0.12941996932E+04  0.12500000000E+03 0.  0.
         21    1    1    2  503  502 -0.37444686666E+03 -0.20182357295E+03 -0.35011915966E+02  0.42681265774E+03  0.00000000000E+00 0.  1.
         21    1    1    2  504  503  0.13920223876E+03  0.14516600772E+02  0.28396878898E+03  0.31658532514E+03  0.00000000000E+00 0.  1.
<mgrwt>
<rscale>  4 0.42689077E+03</rscale>
<asrwt>0</asrwt>
<pdfrwt beam="1">  1       21 0.27223949E+00 0.42689077E+03</pdfrwt>
<pdfrwt beam="2">  1       21 0.41237067E-01 0.42689077E+03</pdfrwt>
<totfact> 0.22442473E+02</totfact>
</mgrwt>
</event>
<event>
 5    0  0.1943430E+001  0.2517651E+03  0.7546771E-02  0.1112194E+00
         21   -1    0    0  503  501  0.00000000000E+00  0.00000000000E+00  0.96280178689E+03  0.96280178689E+03  0.00000000000E+00 0. -1.
         21   -1    0    0  504  502 -0.00000000000E+00 -0.00000000000E+00 -0.90086415641E+02  0.90086415641E+02  0.00000000000E+00 0. -1.
         25    1    1    2    0    0 -0.99231381924E+02  0.19724215364E+03  0.73314239086E+03  0.77580545216E+03  0.12500000000E+03 0.  0.
         21    1    1    2  503  502 -0.15448192305E+02 -0.18227123335E+02  0.28591590764E+02  0.37260619064E+02  0.00000000000E+00 0. -1.
         21    1    1    2  504  501  0.11467957423E+03 -0.17901503031E+03  0.11098138963E+03  0.23982213131E+03  0.00000000000E+00 0. -1.
<mgrwt>
<rscale>  4 0.25176512E+03</rscale>
<asrwt>0</asrwt>
<pdfrwt beam="1">  1       21 0.14812335E+00 0.25176512E+03</pdfrwt>
<pdfrwt beam="2">  1       21 0.13859449E-01 0.25176512E+03</pdfrwt>
<totfact> 0.13465304E+04</totfact>
</mgrwt>
</event>
<event>
 5    0  0.1943430E+001  0.2847196E+03  0.7546771E-02  0.1093139E+00
         21   -1    0    0  504  501  0.00000000000E+00  0.00000000000E+00  0.69935713556E+03  0.69935713556E+03  0.00000000000E+00 0.  1.
         21   -1    0    0  501  502 -0.00000000000E+00 -0.00000000000E+00 -0.60220053109E+03  0.60220053109E+03  0.00000000000E+00 0. -1.
         25    1    1    2    0    0 -0.26844312538E+03 -0.91689559055E+02  0.45973835944E+03  0.55448448666E+03  0.12500000000E+03 0.  0.
         21    1    1    2  503  502  0.51478396098E+02  0.54999703673E+02 -0.48801025097E+03  0.49379043907E+03  0.00000000000E+00 0. -1.
         21    1    1    2  504  503  0.21696472928E+03  0.36689855382E+02  0.12542849599E+03  0.25328274092E+03  0.00000000000E+00 0.  1.
<mgrwt>
<rscale>  4 0.28471963E+03</rscale>
<asrwt>0</asrwt>
<pdfrwt beam="1">  1       21 0.10759341E+00 0.28471963E+03</pdfrwt>
<pdfrwt beam="2">  1       21 0.92646236E-01 0.28471963E+03</pdfrwt>
<totfact> 0.62338280E+02</totfact>
</mgrwt>
</event>
<event>
 5    0  0.1943430E+001  0.2263789E+03  0.7546771E-02  0.1129215E+00
         21   -1    0    0  503  501  0.00000000000E+00  0.00000000000E+00  0.18468271243E+03  0.18468271243E+03  0.00000000000E+00 0. -1.
         21   -1    0    0  504  502 -0.00000000000E+00 -0.00000000000E+00 -0.37492118264E+03  0.37492118264E+03  0.00000000000E+00 0. -1.
         25    1    1    2    0    0 -0.13319720003E+03  0.16826908129E+03  0.40235000866E+01  0.24838914301E+03  0.12500000000E+03 0.  0.
         21    1    1    2  503  502  0.54183245731E+02 -0.42650557876E+01 -0.16563108705E+02  0.56818583129E+02  0.00000000000E+00 0. -1.
         21    1    1    2  504  501  0.79013954301E+02 -0.16400402550E+03 -0.17769886159E+03  0.25439616893E+03  0.00000000000E+00 0. -1.
<mgrwt>
<rscale>  4 0.22637892E+03</rscale>
<asrwt>0</asrwt>
<pdfrwt beam="1">  1       21 0.28412725E-01 0.22637892E+03</pdfrwt>
<pdfrwt beam="2">  1       21 0.57680182E-01 0.22637892E+03</pdfrwt>
<totfact> 0.32812321E+04</totfact>
</mgrwt>
</event>
<event>
 5    0  0.1943430E+001  0.2882112E+03  0.7546771E-02  0.1091287E+00
         21   -1    0    0  504  501  0.00000000000E+00  0.00000000000E+00  0.42952901831E+03  0.42952901831E+03  0.00000000000E+00 0.  1.
         21   -1    0    0  503  502 -0.00000000000E+00 -0.00000000000E+00 -0.17950352951E+03  0.17950352951E+03  0.00000000000E+00 0.  1.
         25    1    1    2    0    0 -0.20245031896E+03 -0.16264866716E+03  0.11290665453E+03  0.30953777349E+03  0.12500000000E+03 0.  0.
         21    1    1    2  503  501  0.13066134386E+03  0.79457129490E+02  0.10322353655E+03  0.18450181762E+03  0.00000000000E+00 0.  1.
         21    1    1    2  504  502  0.71788975108E+02  0.83191537669E+02  0.33895297717E+02  0.11499295672E+03  0.00000000000E+00 0.  1.
<mgrwt>
<rscale>  4 0.28821124E+03</rscale>
<asrwt>0</asrwt>
<pdfrwt beam="1">  1       21 0.66081387E-01 0.28821124E+03</pdfrwt>
<pdfrwt beam="2">  1       21 0.27615928E-01 0.28821124E+03</pdfrwt>
<totfact> 0.25119449E+04</totfact>
</mgrwt>
</event>
<event>
 5    0  0.1943430E+001  0.2904352E+03  0.7546771E-02  0.1090122E+00
         21   -1    0    0  504  501  0.00000000000E+00  0.00000000000E+00  0.61146803225E+02  0.61146803225E+02  0.00000000000E+00 0. -1.
         21   -1    0    0  501  502 -0.00000000000E+00 -0.00000000000E+00 -0.24473666005E+04  0.24473666005E+04  0.00000000000E+00 0. -1.
         25    1    1    2    0    0  0.25317261317E+02  0.27519981915E+03 -0.41739735085E+03  0.51596652283E+03  0.12500000000E+03 0.  0.
         21    1    1    2  503  502 -0.13388851942E+02 -0.48564992861E+02 -0.81860862742E+03  0.82015724393E+03  0.00000000000E+00 0. -1.
         21    1    1    2  504  503 -0.11928409376E+02 -0.22663482629E+03 -0.11502138190E+04  0.11723896369E+04  0.00000000000E+00 0. -1.
<mgrwt>
<rscale>  4 0.29043515E+03</rscale>
<asrwt>0</asrwt>
<pdfrwt beam="1">  1       21 0.94072023E-02 0.29043515E+03</pdfrwt>
<pdfrwt beam="2">  1       21 0.37651787E+00 0.29043515E+03</pdfrwt>
<totfact> 0.97459083E+02</totfact>
</mgrwt>
</event>
<event>
 5    0  0.1943430E+001  0.3764733E+03  0.7546771E-02  0.1052245E+00
         21   -1    0    0  504  501  0.00000000000E+00  0.00000000000E+00  0.37560761832E+03  0.37560761832E+03  0.00000000000E+00 0. -1.
         21   -1    0    0  501  502 -0.00000000000E+00 -0.00000000000E+00 -0.37412760558E+03  0.37412760558E+03  0.00000000000E+00 0. -1.
         25    1    1    2    0    0 -0.34463859764E+03  0.85623710612E+02 -0.45575979959E+02  0.37922203622E+03  0.12500000000E+03 0.  0.
         21    1    1    2  503  502  0.34695653124E+02  0.12398260328E+02  0.25335573289E+02  0.44714611468E+02  0.00000000000E+00 0. -1.
         21    1    1    2  504  503  0.30994294452E+03 -0.98021970940E+02  0.21720419411E+02  0.32579857621E+03  0.00000000000E+00 0. -1.
<mgrwt>
<rscale>  4 0.37647335E+03</rscale>
<asrwt>0</asrwt>
<pdfrwt beam="1">  1       21 0.57785788E-01 0.37647335E+03</pdfrwt>
<pdfrwt beam="2">  1       21 0.57558093E-01 0.37647335E+03</pdfrwt>
<totfact> 0.72283339E+03</totfact>
</mgrwt>
</event>
<event>
 5    0  0.1943430E+001  0.2535580E+03  0.7546771E-02  0.1111077E+00
         21   -1    0    0  504  501  0.00000000000E+00  0.00000000000E+00  0.14090302959E+04  0.14090302959E+04  0.00000000000E+00 0.  1.
         21   -1    0    0  501  502 -0.00000000000E+00 -0.00000000000E+00 -0.44379451054E+03  0.44379451054E+03  0.00000000000E+00 0. -1.
         25    1    1    2    0    0  0.43822017455E+02 -0.21620888998E+03  0.13668425245E+04  0.13901619114E+04  0.12500000000E+03 0.  0.
         21    1    1    2  503  502 -0.10062095817E+02  0.11513691971E+03 -0.26730635218E+03  0.29122232395E+03  0.00000000000E+00 0. -1.
         21    1    1    2  504  503 -0.33759921638E+02  0.10107197028E+03 -0.13430038690E+03  0.17144057107E+03  0.00000000000E+00 0. -1.
<mgrwt>
<rscale>  4 0.25355799E+03</rscale>
<asrwt>0</asrwt>
<pdfrwt beam="1">  1       21 0.21677389E+00 0.25355799E+03</pdfrwt>
<pdfrwt beam="2">  1       21 0.68276079E-01 0.25355799E+03</pdfrwt>
<totfact> 0.19155339E+02</totfact>
</mgrwt>
</event>
<event>
 5    0  0.1943430E+001  0.2332828E+03  0.7546771E-02  0.1124350E+00
         21   -1    0    0  503  501  0.00000000000E+00  0.00000000000E+00  0.24970709623E+03  0.24970709623E+03  0.00000000000E+00 0.  1.
         21   -1    0    0  504  502 -0.00000000000E+00 -0.00000000000E+00 -0.29010656768E+03  0.29010656768E+03  0.00000000000E+00 0.  1.
         25    1    1    2    0    0  0.18554199429E+03 -0.98667041681E+02 -0.36678387027E+01  0.24453930114E+03  0.12500000000E+03 0.  0.
         21    1    1    2  503  502 -0.16107461175E+03  0.10012039529E+03  0.57282909221E+02  0.19811727787E+03  0.00000000000E+00 0.  1.
         21    1    1    2  504  501 -0.24467382538E+02 -0.14533536057E+01 -0.94014541963E+02  0.97157084896E+02  0.00000000000E+00 0.  1.
<mgrwt>
<rscale>  4 0.23328280E+03</rscale>
<asrwt>0</asrwt>
<pdfrwt beam="1">  1       21 0.38416476E-01 0.23328280E+03</pdfrwt>
<pdfrwt beam="2">  1       21 0.44631779E-01 0.23328280E+03</pdfrwt>
<totfact> 0.30836371E+04</totfact>
</mgrwt>
</event>
<event>
 5    0  0.1943430E+001  0.3016915E+03  0.7546771E-02  0.1084398E+00
         21   -1    0    0  503  501  0.00000000000E+00  0.00000000000E+00  0.60531139142E+03  0.60531139142E+03  0.00000000000E+00 0.  1.
         21   -1    0    0  504  502 -0.00000000000E+00 -0.00000000000E+00 -0.22554015861E+03  0.22554015861E+03  0.00000000000E+00 0.  1.
         25    1    1    2    0    0  0.34966873010E+02 -0.27509499730E+03  0.43324349638E+03  0.52936269882E+03  0.12500000000E+03 0.  0.
         21    1    1    2  503  502 -0.71986073279E+01  0.26617104307E+03 -0.56397496218E+02  0.27217553471E+03  0.00000000000E+00 0.  1.
         21    1    1    2  504  501 -0.27768265683E+02  0.89239542339E+01  0.29252326461E+01  0.29313316500E+02  0.00000000000E+00 0. -1.
<mgrwt>
<rscale>  4 0.30169151E+03</rscale>
<asrwt>0</asrwt>
<pdfrwt beam="1">  1       21 0.93124829E-01 0.30169151E+03</pdfrwt>
<pdfrwt beam="2">  1       21 0.34698486E-01 0.30169151E+03</pdfrwt>
<totfact> 0.72765659E+03</totfact>
</mgrwt>
</event>
<event>
 5    0  0.1943430E+001  0.3574819E+03  0.7546771E-02  0.1071945E+00
         21   -1    0    0  504  501  0.00000000000E+00  0.00000000000E+00  0.58325377369E+03  0.58325377369E+03  0.00000000000E+00 0.  1.
         21   -1    0    0  503  502 -0.00000000000E+00 -0.00000000000E+00 -0.13232906816E+04  0.13232906816E+04  0.00000000000E+00 0.  1.
         25    1    1    2    0    0 -0.22100757731E+03  0.16426337320E+01  0.23753370728E+03  0.34769859012E+03  0.12500000000E+03 0.  0.
         21    1    1    2  503  501  0.30385813905E+02  0.31373698671E+03  0.16679022946E+03  0.35661348146E+03  0.00000000000E+00 0.  1.
         21    1    1    2  504  502  0.19062176341E+03 -0.31537962044E+03 -0.11443608446E+04  0.12022323837E+04  0.00000000000E+00 0.  1.
<mgrwt>
<rscale>  4 0.32817991E+03</rscale>
<asrwt>0</asrwt>
<pdfrwt beam="1">  1       21 0.89731350E-01 0.35748192E+03</pdfrwt>
<pdfrwt beam="2">  1       21 0.20358318E+00 0.35748192E+03</pdfrwt>
<totfact> 0.11399070E+02</totfact>
</mgrwt>
</event>
<event>
 5    0  0.1943430E+001  0.2648649E+03  0.7546771E-02  0.1104255E+00
         21   -1    0    0  503  501  0.00000000000E+00  0.00000000000E+00  0.86613408205E+02  0.86613408205E+02  0.00000000000E+00 0. -1.
         21   -1    0    0  504  502 -0.00000000000E+00 -0.00000000000E+00 -0.11047080774E+04  0.11047080774E+04  0.00000000000E+00 0. -1.
         25    1    1    2    0    0 -0.20378904390E+03  0.10604560252E+03 -0.20842114859E+03  0.33442490847E+03  0.12500000000E+03 0.  0.
         21    1    1    2  503  502  0.23592819554E+00  0.27722686534E+02 -0.17326414738E+03  0.17546813892E+03  0.00000000000E+00 0. -1.
         21    1    1    2  504  501  0.20355311571E+03 -0.13376828905E+03 -0.63640937326E+03  0.68142843824E+03  0.00000000000E+00 0. -1.
<mgrwt>
<rscale>  4 0.26486487E+03</rscale>
<asrwt>0</asrwt>
<pdfrwt beam="1">  1       21 0.13325140E-01 0.26486487E+03</pdfrwt>
<pdfrwt beam="2">  1       21 0.16995508E+00 0.26486487E+03</pdfrwt>
<totfact> 0.98778021E+03</totfact>
</mgrwt>
</event>
<event>
 5    0  0.1943430E+001  0.2873514E+03  0.7546771E-02  0.1091740E+00
         21   -1    0    0  504  501  0.00000000000E+00  0.00000000000E+00  0.30048089421E+04  0.30048089421E+04  0.00000000000E+00 0. -1.
         21   -1    0    0  503  502 -0.00000000000E+00 -0.00000000000E+00 -0.20531429528E+03  0.20531429528E+03  0.00000000000E+00 0. -1.
         25    1    1    2    0    0 -0.20392583528E+03  0.15762523180E+03  0.28658220799E+04  0.28801028894E+04  0.12500000000E+03 0.  0.
         21    1    1    2  503  501  0.23031979154E+03 -0.16842114873E+03 -0.82783924301E+02  0.29709605826E+03  0.00000000000E+00 0. -1.
         21    1    1    2  504  502 -0.26393956260E+02  0.10795916922E+02  0.16456491241E+02  0.32924289714E+02  0.00000000000E+00 0.  1.
<mgrwt>
<rscale>  4 0.28735145E+03</rscale>
<asrwt>0</asrwt>
<pdfrwt beam="1">  1       21 0.46227827E+00 0.28735145E+03</pdfrwt>
<pdfrwt beam="2">  1       21 0.31586817E-01 0.28735145E+03</pdfrwt>
<totfact> 0.28460779E+01</totfact>
</mgrwt>
</event>
