<event>
 5    0  0.5303124E+001  0.2713292E+03  0.7546771E-02  0.1100521E+00
         21   -1    0    0  502  501  0.00000000000E+00  0.00000000000E+00  0.57734711194E+03  0.57734711194E+03  0.00000000000E+00 0. -1.
         21   -1    0    0  504  502 -0.00000000000E+00 -0.00000000000E+00 -0.14195152400E+03  0.14195152400E+03  0.00000000000E+00 0. -1.
         25    1    1    2    0    0 -0.20689164425E+03  0.95421234114E+02  0.29924497680E+03  0.39633561601E+03  0.12500000000E+03 0.  0.
         21    1    1    2  503  501 -0.13855353762E+02  0.15566791584E+02  0.61376838205E+02  0.64818300627E+02  0.00000000000E+00 0.  1.
         21    1    1    2  504  503  0.22074699801E+03 -0.11098802570E+03  0.74773772940E+02  0.25814471930E+03  0.00000000000E+00 0. -1.
<mgrwt>
<rscale>  4 0.27132918E+03</rscale>
<asrwt>0</asrwt>
<pdfrwt beam="1">  1       21 0.88822632E-01 0.27132918E+03</pdfrwt>
<pdfrwt beam="2">  1       21 0.21838696E-01 0.27132918E+03</pdfrwt>
<totfact> 0.20330405E+04</totfact>
</mgrwt>
</event>
<event>
 5    0  0.1911311E+001  0.1725591E+03  0.7546771E-02  0.1175205E+00
         21   -1    0    0  502  501  0.00000000000E+00  0.00000000000E+00  0.43440306426E+03  0.43440306426E+03  0.00000000000E+00 0. -1.
         21   -1    0    0  504  502 -0.00000000000E+00 -0.00000000000E+00 -0.17868630124E+03  0.17868630124E+03  0.00000000000E+00 0.  1.
         25    1    1    2    0    0  0.16641260422E+02  0.20512644026E+03 -0.12237612566E+02  0.24109862547E+03  0.12500000000E+03 0.  0.
         21    1    1    2  503  501 -0.23319009235E+02 -0.10855179548E+03  0.24998476226E+03  0.27353180775E+03  0.00000000000E+00 0. -1.
         21    1    1    2  504  503  0.66777488135E+01 -0.96574644780E+02  0.17969613324E+02  0.98458932285E+02  0.00000000000E+00 0.  1.
<mgrwt>
<rscale>  4 0.17255908E+03</rscale>
<asrwt>0</asrwt>
<pdfrwt beam="1">  1       21 0.66831240E-01 0.17255908E+03</pdfrwt>
<pdfrwt beam="2">  1       21 0.27490200E-01 0.17255908E+03</pdfrwt>
<totfact> 0.26195215E+04</totfact>
</mgrwt>
</event>
<event>
 5    0  0.1911311E+001  0.1963124E+03  0.7546771E-02  0.1152888E+00
         21   -1    0    0  502  501  0.00000000000E+00  0.00000000000E+00  0.20234161604E+03  0.20234161604E+03  0.00000000000E+00 0.  1.
         21   -1    0    0  504  502 -0.00000000000E+00 -0.00000000000E+00 -0.79209289318E+03  0.79209289318E+03  0.00000000000E+00 0.  1.
         25    1    1    2    0    0 -0.30207310610E+02 -0.20214722398E+03 -0.56722635015E+03  0.61574890506E+03  0.12500000000E+03 0.  0.
         21    1    1    2  503  501  0.21079860542E+02  0.88700627392E+02  0.14790499198E+03  0.17374708191E+03  0.00000000000E+00 0.  1.
         21    1    1    2  504  503  0.91274500683E+01  0.11344659659E+03 -0.17042991897E+03  0.20493852225E+03  0.00000000000E+00 0.  1.
<mgrwt>
<rscale>  4 0.19631236E+03</rscale>
<asrwt>0</asrwt>
<pdfrwt beam="1">  1       21 0.31129479E-01 0.19631236E+03</pdfrwt>
<pdfrwt beam="2">  1       21 0.12186045E+00 0.19631236E+03</pdfrwt>
<totfact> 0.50244224E+03</totfact>
</mgrwt>
</event>
<event>
 5    0  0.1911311E+001  0.2639311E+03  0.7546771E-02  0.1104804E+00
         21   -1    0    0  503  501  0.00000000000E+00  0.00000000000E+00  0.14807482229E+04  0.14807482229E+04  0.00000000000E+00 0.  1.
         21   -1    0    0  504  502 -0.00000000000E+00 -0.00000000000E+00 -0.64795878955E+02  0.64795878955E+02  0.00000000000E+00 0.  1.
         25    1    1    2    0    0 -0.19654915186E+03 -0.63665775126E+02  0.49290475124E+03  0.54887611883E+03  0.12500000000E+03 0.  0.
         21    1    1    2  503  502 -0.20458060352E+02 -0.60887376726E+02  0.33186937087E+02  0.72299223171E+02  0.00000000000E+00 0.  1.
         21    1    1    2  504  501  0.21700721222E+03  0.12455315185E+03  0.88986065563E+03  0.92436875988E+03  0.00000000000E+00 0.  1.
<mgrwt>
<rscale>  4 0.26393108E+03</rscale>
<asrwt>0</asrwt>
<pdfrwt beam="1">  1       21 0.22780739E+00 0.26393108E+03</pdfrwt>
<pdfrwt beam="2">  1       21 0.99685979E-02 0.26393108E+03</pdfrwt>
<totfact> 0.69397962E+03</totfact>
</mgrwt>
</event>
