<event>
 5    0  0.1257040E+001  0.8001033E+03  0.7546771E-02  0.9559868E-01
         21   -1    0    0  503  501  0.00000000000E+00  0.00000000000E+00  0.10157356381E+04  0.10157356381E+04  0.00000000000E+00 0. -1.
         21   -1    0    0  504  502 -0.00000000000E+00 -0.00000000000E+00 -0.91328623363E+03  0.91328623363E+03  0.00000000000E+00 0.  1.
         25    1    1    2    0    0 -0.69976176003E+03  0.33649421025E+03 -0.33580121668E+03  0.85515047299E+03  0.12500000000E+03 0.  0.
         21    1    1    2  503  502  0.71916987946E+03 -0.39283779622E+03  0.22121182755E+03  0.84880004848E+03  0.00000000000E+00 0.  1.
         21    1    1    2  504  501 -0.19408119429E+02  0.56343585970E+02  0.21703879357E+03  0.22507135023E+03  0.00000000000E+00 0.  1.
<mgrwt>
<rscale>  4 0.80010326E+03</rscale>
<asrwt>0</asrwt>
<pdfrwt beam="1">  1       21 0.15626702E+00 0.80010326E+03</pdfrwt>
<pdfrwt beam="2">  1       21 0.14050558E+00 0.80010326E+03</pdfrwt>
<totfact> 0.65333185E+01</totfact>
</mgrwt>
</event>
<event>
 5    0  0.1257040E+001  0.2406669E+03  0.7546771E-02  0.1119349E+00
         21   -1    0    0  504  501  0.00000000000E+00  0.00000000000E+00  0.52672886276E+03  0.52672886276E+03  0.00000000000E+00 0. -1.
         21   -1    0    0  503  502 -0.00000000000E+00 -0.00000000000E+00 -0.11275380446E+03  0.11275380446E+03  0.00000000000E+00 0. -1.
         25    1    1    2    0    0  0.16870579509E+03 -0.12203278991E+03  0.27518156457E+03  0.36701980953E+03  0.12500000000E+03 0.  0.
         21    1    1    2  503  501 -0.16899549182E+02 -0.13211796684E+02 -0.66780152775E+01  0.22466468842E+02  0.00000000000E+00 0. -1.
         21    1    1    2  504  502 -0.15180624591E+03  0.13524458660E+03  0.14547150901E+03  0.24999638885E+03  0.00000000000E+00 0. -1.
<mgrwt>
<rscale>  4 0.24066690E+03</rscale>
<asrwt>0</asrwt>
<pdfrwt beam="1">  1       21 0.81035208E-01 0.24066690E+03</pdfrwt>
<pdfrwt beam="2">  1       21 0.17346740E-01 0.24066690E+03</pdfrwt>
<totfact> 0.39219488E+04</totfact>
</mgrwt>
</event>
<event>
 5    0  0.1257040E+001  0.2163128E+03  0.7546771E-02  0.1136662E+00
         21   -1    0    0  502  501  0.00000000000E+00  0.00000000000E+00  0.51347800566E+02  0.51347800566E+02  0.00000000000E+00 0.  1.
         21   -1    0    0  504  502 -0.00000000000E+00 -0.00000000000E+00 -0.12605321518E+04  0.12605321518E+04  0.00000000000E+00 0.  1.
         25    1    1    2    0    0  0.97283506458E+02 -0.17747736457E+03 -0.55183340432E+03  0.60092212614E+03  0.12500000000E+03 0.  0.
         21    1    1    2  503  501 -0.15490769484E+02  0.33422220224E+02 -0.41408744133E+01  0.37069604595E+02  0.00000000000E+00 0. -1.
         21    1    1    2  504  503 -0.81792736974E+02  0.14405514434E+03 -0.65321007248E+03  0.67388822161E+03  0.00000000000E+00 0.  1.
<mgrwt>
<rscale>  4 0.21631281E+03</rscale>
<asrwt>0</asrwt>
<pdfrwt beam="1">  1       21 0.78996623E-02 0.21631281E+03</pdfrwt>
<pdfrwt beam="2">  1       21 0.19392801E+00 0.21631281E+03</pdfrwt>
<totfact> 0.17717360E+04</totfact>
</mgrwt>
</event>
<event>
 5    0  0.1257040E+001  0.2613528E+03  0.7546771E-02  0.1106333E+00
         21   -1    0    0  502  501  0.00000000000E+00  0.00000000000E+00  0.29065552080E+03  0.29065552080E+03  0.00000000000E+00 0.  1.
         21   -1    0    0  504  502 -0.00000000000E+00 -0.00000000000E+00 -0.27839975638E+03  0.27839975638E+03  0.00000000000E+00 0. -1.
         25    1    1    2    0    0  0.20569626209E+03 -0.12416242542E+03 -0.62273492498E+02  0.27790330691E+03  0.12500000000E+03 0.  0.
         21    1    1    2  503  501 -0.20112056544E+03  0.10143494208E+03  0.10850216084E+03  0.25002249544E+03  0.00000000000E+00 0.  1.
         21    1    1    2  504  503 -0.45756966479E+01  0.22727483337E+02 -0.33972903925E+02  0.41129474830E+02  0.00000000000E+00 0.  1.
<mgrwt>
<rscale>  4 0.26135277E+03</rscale>
<asrwt>0</asrwt>
<pdfrwt beam="1">  1       21 0.44716234E-01 0.26135277E+03</pdfrwt>
<pdfrwt beam="2">  1       21 0.42830731E-01 0.26135277E+03</pdfrwt>
<totfact> 0.24301087E+04</totfact>
</mgrwt>
</event>
<event>
 5    0  0.1257040E+001  0.2093492E+03  0.7546771E-02  0.1142082E+00
         21   -1    0    0  504  501  0.00000000000E+00  0.00000000000E+00  0.23627876260E+04  0.23627876260E+04  0.00000000000E+00 0.  1.
         21   -1    0    0  503  502 -0.00000000000E+00 -0.00000000000E+00 -0.43299322878E+02  0.43299322878E+02  0.00000000000E+00 0. -1.
         25    1    1    2    0    0 -0.20316231338E+03 -0.65516354115E+02  0.61979243207E+03  0.66733423191E+03  0.12500000000E+03 0.  0.
         21    1    1    2  503  501  0.44433126433E+02  0.39717565390E+02  0.41136413896E+02  0.72415414611E+02  0.00000000000E+00 0. -1.
         21    1    1    2  504  502  0.15872918694E+03  0.25798788725E+02  0.16585594572E+04  0.16663373023E+04  0.00000000000E+00 0.  1.
<mgrwt>
<rscale>  4 0.20934925E+03</rscale>
<asrwt>0</asrwt>
<pdfrwt beam="1">  1       21 0.36350569E+00 0.20934925E+03</pdfrwt>
<pdfrwt beam="2">  1       21 0.66614361E-02 0.20934925E+03</pdfrwt>
<totfact> 0.23428511E+03</totfact>
</mgrwt>
</event>
<event>
 5    0  0.1257040E+001  0.2259803E+03  0.7546771E-02  0.1129501E+00
         21   -1    0    0  504  501  0.00000000000E+00  0.00000000000E+00  0.71462958729E+02  0.71462958729E+02  0.00000000000E+00 0.  1.
         21   -1    0    0  503  502 -0.00000000000E+00 -0.00000000000E+00 -0.93798546376E+03  0.93798546376E+03  0.00000000000E+00 0.  1.
         25    1    1    2    0    0 -0.88475624210E+02 -0.18132536246E+03 -0.63366519040E+03  0.67665604015E+03  0.12500000000E+03 0.  0.
         21    1    1    2  503  501  0.64397173911E+02  0.15891832720E+03 -0.24385927810E+03  0.29810967486E+03  0.00000000000E+00 0.  1.
         21    1    1    2  504  502  0.24078450299E+02  0.22407035261E+02  0.11001963466E+02  0.34682707479E+02  0.00000000000E+00 0.  1.
<mgrwt>
<rscale>  4 0.22598027E+03</rscale>
<asrwt>0</asrwt>
<pdfrwt beam="1">  1       21 0.10994302E-01 0.22598027E+03</pdfrwt>
<pdfrwt beam="2">  1       21 0.14430544E+00 0.22598027E+03</pdfrwt>
<totfact> 0.22221693E+04</totfact>
</mgrwt>
</event>
<event>
 5    0  0.1257040E+001  0.4275678E+03  0.7546771E-02  0.1034631E+00
         21   -1    0    0  502  501  0.00000000000E+00  0.00000000000E+00  0.85649034620E+03  0.85649034620E+03  0.00000000000E+00 0. -1.
         21   -1    0    0  504  502 -0.00000000000E+00 -0.00000000000E+00 -0.42594021907E+03  0.42594021907E+03  0.00000000000E+00 0. -1.
         25    1    1    2    0    0 -0.36004662856E+03 -0.20774676812E+03 -0.97637230280E+02  0.44491608550E+03  0.12500000000E+03 0.  0.
         21    1    1    2  503  501  0.38918094254E+03  0.12589111033E+03  0.59906291471E+03  0.72538731274E+03  0.00000000000E+00 0. -1.
         21    1    1    2  504  503 -0.29134313976E+02  0.81855657791E+02 -0.70875557307E+02  0.11212716703E+03  0.00000000000E+00 0.  1.
<mgrwt>
<rscale>  4 0.42756780E+03</rscale>
<asrwt>0</asrwt>
<pdfrwt beam="1">  1       21 0.13176774E+00 0.42756780E+03</pdfrwt>
<pdfrwt beam="2">  1       21 0.65529265E-01 0.42756780E+03</pdfrwt>
<totfact> 0.76120923E+02</totfact>
</mgrwt>
</event>
<event>
 5    0  0.1257040E+001  0.2484418E+03  0.7546771E-02  0.1114294E+00
         21   -1    0    0  504  501  0.00000000000E+00  0.00000000000E+00  0.19862011716E+03  0.19862011716E+03  0.00000000000E+00 0.  1.
         21   -1    0    0  503  502 -0.00000000000E+00 -0.00000000000E+00 -0.30603686655E+03  0.30603686655E+03  0.00000000000E+00 0. -1.
         25    1    1    2    0    0 -0.15301774984E+03 -0.13451716471E+03 -0.30916001509E+02  0.24101887585E+03  0.12500000000E+03 0.  0.
         21    1    1    2  503  501  0.15608599202E+03  0.15934906276E+03 -0.82640997654E+02  0.23787495707E+03  0.00000000000E+00 0.  1.
         21    1    1    2  504  502 -0.30682421789E+01 -0.24831898056E+02  0.61402497724E+01  0.25763150786E+02  0.00000000000E+00 0. -1.
<mgrwt>
<rscale>  4 0.24844184E+03</rscale>
<asrwt>0</asrwt>
<pdfrwt beam="1">  1       21 0.30556941E-01 0.24844184E+03</pdfrwt>
<pdfrwt beam="2">  1       21 0.47082594E-01 0.24844184E+03</pdfrwt>
<totfact> 0.43251896E+04</totfact>
</mgrwt>
</event>
<event>
 5    0  0.1257040E+001  0.3858690E+03  0.7546771E-02  0.1048786E+00
         21   -1    0    0  504  501  0.00000000000E+00  0.00000000000E+00  0.17034913374E+03  0.17034913374E+03  0.00000000000E+00 0. -1.
         21   -1    0    0  503  502 -0.00000000000E+00 -0.00000000000E+00 -0.16563183739E+04  0.16563183739E+04  0.00000000000E+00 0. -1.
         25    1    1    2    0    0 -0.19642150214E+03 -0.23603649370E+03 -0.39317964685E+03  0.51430522801E+03  0.12500000000E+03 0.  0.
         21    1    1    2  503  501 -0.47696240726E+01 -0.13704885879E+03 -0.76321243032E+03  0.77543429947E+03  0.00000000000E+00 0. -1.
         21    1    1    2  504  502  0.20119112621E+03  0.37308535249E+03 -0.32957716299E+03  0.53692798016E+03  0.00000000000E+00 0. -1.
<mgrwt>
<rscale>  4 0.38586905E+03</rscale>
<asrwt>0</asrwt>
<pdfrwt beam="1">  1       21 0.26207560E-01 0.38586905E+03</pdfrwt>
<pdfrwt beam="2">  1       21 0.25481821E+00 0.38586905E+03</pdfrwt>
<totfact> 0.72816585E+02</totfact>
</mgrwt>
</event>
<event>
 5    0  0.1257040E+001  0.2401439E+03  0.7546771E-02  0.1119697E+00
         21   -1    0    0  503  501  0.00000000000E+00  0.00000000000E+00  0.65836046095E+02  0.65836046095E+02  0.00000000000E+00 0. -1.
         21   -1    0    0  504  502 -0.00000000000E+00 -0.00000000000E+00 -0.11176919101E+04  0.11176919101E+04  0.00000000000E+00 0. -1.
         25    1    1    2    0    0  0.59873067066E+02  0.19525506753E+03 -0.76729737783E+03  0.80379076356E+03  0.12500000000E+03 0.  0.
         21    1    1    2  503  502  0.37895359242E+02 -0.99588131199E+01 -0.67598264885E+02  0.78132974001E+02  0.00000000000E+00 0.  1.
         21    1    1    2  504  501 -0.97768426307E+02 -0.18529625441E+03 -0.21696022131E+03  0.30160421865E+03  0.00000000000E+00 0. -1.
<mgrwt>
<rscale>  4 0.24014394E+03</rscale>
<asrwt>0</asrwt>
<pdfrwt beam="1">  1       21 0.10128623E-01 0.24014394E+03</pdfrwt>
<pdfrwt beam="2">  1       21 0.17195260E+00 0.24014394E+03</pdfrwt>
<totfact> 0.15881921E+04</totfact>
</mgrwt>
</event>
<event>
 5    0  0.1257040E+001  0.3650022E+03  0.7546771E-02  0.1056621E+00
         21   -1    0    0  502  501  0.00000000000E+00  0.00000000000E+00  0.38964688107E+03  0.38964688107E+03  0.00000000000E+00 0.  1.
         21   -1    0    0  504  502 -0.00000000000E+00 -0.00000000000E+00 -0.30705018902E+04  0.30705018902E+04  0.00000000000E+00 0.  1.
         25    1    1    2    0    0  0.28332516569E+03  0.17716611958E+03  0.22719843136E+03  0.42297176106E+03  0.12500000000E+03 0.  0.
         21    1    1    2  503  501 -0.22768001969E+02  0.46379837137E+02  0.42387524161E+02  0.66829435213E+02  0.00000000000E+00 0. -1.
         21    1    1    2  504  503 -0.26055716373E+03 -0.22354595671E+03 -0.29504409647E+04  0.29703475750E+04  0.00000000000E+00 0.  1.
<mgrwt>
<rscale>  4 0.36500224E+03</rscale>
<asrwt>0</asrwt>
<pdfrwt beam="1">  1       21 0.59945674E-01 0.36500224E+03</pdfrwt>
<pdfrwt beam="2">  1       21 0.47238490E+00 0.36500224E+03</pdfrwt>
<totfact> 0.58693797E+00</totfact>
</mgrwt>
</event>
<event>
 5    0  0.1257040E+001  0.3226294E+03  0.7546771E-02  0.1074445E+00
         21   -1    0    0  504  501  0.00000000000E+00  0.00000000000E+00  0.12304673225E+04  0.12304673225E+04  0.00000000000E+00 0.  1.
         21   -1    0    0  503  502 -0.00000000000E+00 -0.00000000000E+00 -0.19348038407E+03  0.19348038407E+03  0.00000000000E+00 0.  1.
         25    1    1    2    0    0  0.19159923363E+03  0.26025473737E+03  0.51669902841E+02  0.35033922634E+03  0.12500000000E+03 0.  0.
         21    1    1    2  503  501 -0.61117547762E+02  0.35120517138E+01  0.19953063570E+02  0.64387994980E+02  0.00000000000E+00 0.  1.
         21    1    1    2  504  502 -0.13048168587E+03 -0.26376678908E+03  0.96536397197E+03  0.10092204852E+04  0.00000000000E+00 0.  1.
<mgrwt>
<rscale>  4 0.32262943E+03</rscale>
<asrwt>0</asrwt>
<pdfrwt beam="1">  1       21 0.18930266E+00 0.32262943E+03</pdfrwt>
<pdfrwt beam="2">  1       21 0.29766214E-01 0.32262943E+03</pdfrwt>
<totfact> 0.15354176E+03</totfact>
</mgrwt>
</event>
<event>
 5    0  0.1257040E+001  0.2439685E+03  0.7546771E-02  0.1117177E+00
         21   -1    0    0  503  501  0.00000000000E+00  0.00000000000E+00  0.20360097710E+03  0.20360097710E+03  0.00000000000E+00 0. -1.
         21   -1    0    0  504  502 -0.00000000000E+00 -0.00000000000E+00 -0.15611558720E+04  0.15611558720E+04  0.00000000000E+00 0.  1.
         25    1    1    2    0    0 -0.50740234159E+02  0.20294309414E+03  0.83213791966E+02  0.25750729309E+03  0.12500000000E+03 0.  0.
         21    1    1    2  503  502  0.71184867148E+02 -0.19711228835E+03 -0.14621528069E+04  0.14770955860E+04  0.00000000000E+00 0.  1.
         21    1    1    2  504  501 -0.20444632989E+02 -0.58308057925E+01  0.21384120054E+02  0.30153969967E+02  0.00000000000E+00 0.  1.
<mgrwt>
<rscale>  4 0.24396849E+03</rscale>
<asrwt>0</asrwt>
<pdfrwt beam="1">  1       21 0.31323227E-01 0.24396849E+03</pdfrwt>
<pdfrwt beam="2">  1       21 0.24017783E+00 0.24396849E+03</pdfrwt>
<totfact> 0.70258932E+02</totfact>
</mgrwt>
</event>
<event>
 5    0  0.1257040E+001  0.2281405E+03  0.7546771E-02  0.1127955E+00
         21   -1    0    0  504  501  0.00000000000E+00  0.00000000000E+00  0.57960923973E+03  0.57960923973E+03  0.00000000000E+00 0.  1.
         21   -1    0    0  503  502 -0.00000000000E+00 -0.00000000000E+00 -0.20304816106E+03  0.20304816106E+03  0.00000000000E+00 0. -1.
         25    1    1    2    0    0 -0.10562796777E+03 -0.20350476526E+03  0.25289220806E+03  0.36352568817E+03  0.12500000000E+03 0.  0.
         21    1    1    2  503  501  0.83277437681E+02  0.16364350084E+03 -0.87270322798E+02  0.20329888400E+03  0.00000000000E+00 0. -1.
         21    1    1    2  504  502  0.22350530085E+02  0.39861264423E+02  0.21093919341E+03  0.21583282862E+03  0.00000000000E+00 0.  1.
<mgrwt>
<rscale>  4 0.22814053E+03</rscale>
<asrwt>0</asrwt>
<pdfrwt beam="1">  1       21 0.89170652E-01 0.22814053E+03</pdfrwt>
<pdfrwt beam="2">  1       21 0.31238179E-01 0.22814053E+03</pdfrwt>
<totfact> 0.10323638E+04</totfact>
</mgrwt>
</event>
<event>
 5    0  0.1257040E+001  0.1728224E+03  0.7546771E-02  0.1174936E+00
         21   -1    0    0  504  501  0.00000000000E+00  0.00000000000E+00  0.33304001409E+03  0.33304001409E+03  0.00000000000E+00 0.  1.
         21   -1    0    0  503  502 -0.00000000000E+00 -0.00000000000E+00 -0.30433947270E+03  0.30433947270E+03  0.00000000000E+00 0.  1.
         25    1    1    2    0    0  0.17781441207E+03  0.11277404889E+03  0.12739922939E+03  0.27602810526E+03  0.12500000000E+03 0.  0.
         21    1    1    2  503  501 -0.95132665945E+02 -0.60062392383E+02 -0.19422484066E+03  0.22445713141E+03  0.00000000000E+00 0.  1.
         21    1    1    2  504  502 -0.82681746128E+02 -0.52711656507E+02  0.95526152659E+02  0.13689425012E+03  0.00000000000E+00 0.  1.
<mgrwt>
<rscale>  4 0.17282240E+03</rscale>
<asrwt>0</asrwt>
<pdfrwt beam="1">  1       21 0.51236925E-01 0.17282240E+03</pdfrwt>
<pdfrwt beam="2">  1       21 0.46821458E-01 0.17282240E+03</pdfrwt>
<totfact> 0.16012626E+04</totfact>
</mgrwt>
</event>
<event>
 5    0  0.1257040E+001  0.2036213E+03  0.7546771E-02  0.1146719E+00
         21   -1    0    0  503  501  0.00000000000E+00  0.00000000000E+00  0.63315383058E+03  0.63315383058E+03  0.00000000000E+00 0.  1.
         21   -1    0    0  504  502 -0.00000000000E+00 -0.00000000000E+00 -0.43986134113E+03  0.43986134113E+03  0.00000000000E+00 0. -1.
         25    1    1    2    0    0 -0.23691735810E+03 -0.15761051318E+02  0.42664366646E+03  0.50401196756E+03  0.12500000000E+03 0.  0.
         21    1    1    2  503  502  0.15811215939E+03 -0.17909593032E+01 -0.37443416644E+03  0.40645246645E+03  0.00000000000E+00 0. -1.
         21    1    1    2  504  501  0.78805198709E+02  0.17552010621E+02  0.14108298943E+03  0.16255073770E+03  0.00000000000E+00 0.  1.
<mgrwt>
<rscale>  4 0.20362126E+03</rscale>
<asrwt>0</asrwt>
<pdfrwt beam="1">  1       21 0.97408282E-01 0.20362126E+03</pdfrwt>
<pdfrwt beam="2">  1       21 0.67670975E-01 0.20362126E+03</pdfrwt>
<totfact> 0.17259014E+03</totfact>
</mgrwt>
</event>
<event>
 5    0  0.1257040E+001  0.2141620E+03  0.7546771E-02  0.1138312E+00
         21   -1    0    0  504  501  0.00000000000E+00  0.00000000000E+00  0.22540914313E+03  0.22540914313E+03  0.00000000000E+00 0.  1.
         21   -1    0    0  503  502 -0.00000000000E+00 -0.00000000000E+00 -0.57337054529E+03  0.57337054529E+03  0.00000000000E+00 0. -1.
         25    1    1    2    0    0 -0.16453007331E+03  0.17147405551E+03  0.64583365298E+02  0.27616934625E+03  0.12500000000E+03 0.  0.
         21    1    1    2  503  501  0.10698266946E+03 -0.60613916680E+02 -0.37120520473E+03  0.39104046144E+03  0.00000000000E+00 0. -1.
         21    1    1    2  504  502  0.57547403845E+02 -0.11086013883E+03 -0.41339562731E+02  0.13156988074E+03  0.00000000000E+00 0.  1.
<mgrwt>
<rscale>  4 0.21416195E+03</rscale>
<asrwt>0</asrwt>
<pdfrwt beam="1">  1       21 0.34678330E-01 0.21416195E+03</pdfrwt>
<pdfrwt beam="2">  1       21 0.88210851E-01 0.21416195E+03</pdfrwt>
<totfact> 0.86881088E+03</totfact>
</mgrwt>
</event>
<event>
 5    0  0.1257040E+001  0.2341514E+03  0.7546771E-02  0.1123751E+00
         21   -1    0    0  502  501  0.00000000000E+00  0.00000000000E+00  0.18358267854E+03  0.18358267854E+03  0.00000000000E+00 0. -1.
         21   -1    0    0  504  502 -0.00000000000E+00 -0.00000000000E+00 -0.43848606032E+03  0.43848606032E+03  0.00000000000E+00 0. -1.
         25    1    1    2    0    0 -0.18838280594E+02  0.20644746692E+03 -0.58061523315E+02  0.24894091248E+03  0.12500000000E+03 0.  0.
         21    1    1    2  503  501 -0.35049001809E+02 -0.18426003274E+02  0.46401797680E+02  0.61000630754E+02  0.00000000000E+00 0. -1.
         21    1    1    2  504  503  0.53887282404E+02 -0.18802146365E+03 -0.24324365614E+03  0.31212719563E+03  0.00000000000E+00 0. -1.
<mgrwt>
<rscale>  4 0.23415144E+03</rscale>
<asrwt>0</asrwt>
<pdfrwt beam="1">  1       21 0.28243489E-01 0.23415144E+03</pdfrwt>
<pdfrwt beam="2">  1       21 0.67459394E-01 0.23415144E+03</pdfrwt>
<totfact> 0.23535582E+04</totfact>
</mgrwt>
</event>
<event>
 5    0  0.1257040E+001  0.2575258E+03  0.7546771E-02  0.1108639E+00
         21   -1    0    0  502  501  0.00000000000E+00  0.00000000000E+00  0.10035364161E+04  0.10035364161E+04  0.00000000000E+00 0.  1.
         21   -1    0    0  504  502 -0.00000000000E+00 -0.00000000000E+00 -0.70013119812E+02  0.70013119812E+02  0.00000000000E+00 0.  1.
         25    1    1    2    0    0  0.15715654510E+03 -0.17457226646E+03  0.45868481468E+03  0.53027390573E+03  0.12500000000E+03 0.  0.
         21    1    1    2  503  501 -0.17069190341E+03  0.13766786239E+03  0.43587032229E+03  0.48792530584E+03  0.00000000000E+00 0.  1.
         21    1    1    2  504  503  0.13535358313E+02  0.36904404066E+02  0.38968159335E+02  0.55350324354E+02  0.00000000000E+00 0.  1.
<mgrwt>
<rscale>  4 0.25752585E+03</rscale>
<asrwt>0</asrwt>
<pdfrwt beam="1">  1       21 0.15439021E+00 0.25752585E+03</pdfrwt>
<pdfrwt beam="2">  1       21 0.10771250E-01 0.25752585E+03</pdfrwt>
<totfact> 0.18935668E+04</totfact>
</mgrwt>
</event>
<event>
 5    0  0.1257040E+001  0.2784341E+03  0.7546771E-02  0.1096547E+00
         21   -1    0    0  502  501  0.00000000000E+00  0.00000000000E+00  0.24291594483E+03  0.24291594483E+03  0.00000000000E+00 0.  1.
         21   -1    0    0  504  502 -0.00000000000E+00 -0.00000000000E+00 -0.26432693374E+04  0.26432693374E+04  0.00000000000E+00 0. -1.
         25    1    1    2    0    0  0.29305930842E+03 -0.12301957079E+03 -0.17030898572E+04  0.17369967285E+04  0.12500000000E+03 0.  0.
         21    1    1    2  503  501 -0.23909409449E+03  0.58833280913E+02  0.15621525365E+03  0.29159997674E+03  0.00000000000E+00 0.  1.
         21    1    1    2  504  503 -0.53965213928E+02  0.64186289872E+02 -0.85347878899E+03  0.85758857699E+03  0.00000000000E+00 0. -1.
<mgrwt>
<rscale>  4 0.27843406E+03</rscale>
<asrwt>0</asrwt>
<pdfrwt beam="1">  1       21 0.37371687E-01 0.27843406E+03</pdfrwt>
<pdfrwt beam="2">  1       21 0.40665679E+00 0.27843406E+03</pdfrwt>
<totfact> 0.47748006E+01</totfact>
</mgrwt>
</event>
<event>
 5    0  0.1257040E+001  0.2855667E+03  0.7546771E-02  0.1092687E+00
         21   -1    0    0  502  501  0.00000000000E+00  0.00000000000E+00  0.23025406400E+03  0.23025406400E+03  0.00000000000E+00 0. -1.
         21   -1    0    0  504  502 -0.00000000000E+00 -0.00000000000E+00 -0.36718711883E+03  0.36718711883E+03  0.00000000000E+00 0. -1.
         25    1    1    2    0    0  0.14016054099E+03  0.21818743504E+03 -0.69654265629E+02  0.29618820162E+03  0.12500000000E+03 0.  0.
         21    1    1    2  503  501  0.16434028600E+02 -0.16740387215E+02  0.20773430985E+02  0.31334538373E+02  0.00000000000E+00 0. -1.
         21    1    1    2  504  503 -0.15659456959E+03 -0.20144704783E+03 -0.88052220182E+02  0.26991844284E+03  0.00000000000E+00 0. -1.
<mgrwt>
<rscale>  4 0.28556673E+03</rscale>
<asrwt>0</asrwt>
<pdfrwt beam="1">  1       21 0.35423703E-01 0.28556673E+03</pdfrwt>
<pdfrwt beam="2">  1       21 0.56490325E-01 0.28556673E+03</pdfrwt>
<totfact> 0.21618545E+04</totfact>
</mgrwt>
</event>
<event>
 5    0  0.1257040E+001  0.2772768E+03  0.7546771E-02  0.1097186E+00
         21   -1    0    0  504  501  0.00000000000E+00  0.00000000000E+00  0.56935713281E+03  0.56935713281E+03  0.00000000000E+00 0.  1.
         21   -1    0    0  501  502 -0.00000000000E+00 -0.00000000000E+00 -0.19236447762E+03  0.19236447762E+03  0.00000000000E+00 0.  1.
         25    1    1    2    0    0 -0.22276925066E+03  0.12889220727E+03  0.13201751315E+02  0.28642385790E+03  0.12500000000E+03 0.  0.
         21    1    1    2  503  502  0.22673930267E+03 -0.93567437599E+02  0.36496303192E+03  0.43973127183E+03  0.00000000000E+00 0.  1.
         21    1    1    2  504  503 -0.39700520120E+01 -0.35324769671E+02 -0.11721280389E+01  0.35566480701E+02  0.00000000000E+00 0.  1.
<mgrwt>
<rscale>  4 0.27727677E+03</rscale>
<asrwt>0</asrwt>
<pdfrwt beam="1">  1       21 0.87593405E-01 0.27727677E+03</pdfrwt>
<pdfrwt beam="2">  1       21 0.29594535E-01 0.27727677E+03</pdfrwt>
<totfact> 0.11651164E+04</totfact>
</mgrwt>
</event>
<event>
 5    0  0.1257040E+001  0.2829673E+03  0.7546771E-02  0.1094079E+00
         21   -1    0    0  504  501  0.00000000000E+00  0.00000000000E+00  0.57478670088E+03  0.57478670088E+03  0.00000000000E+00 0. -1.
         21   -1    0    0  503  502 -0.00000000000E+00 -0.00000000000E+00 -0.46137038166E+03  0.46137038166E+03  0.00000000000E+00 0.  1.
         25    1    1    2    0    0 -0.16752969707E+03  0.23073313066E+03 -0.30718241927E+03  0.43736714062E+03  0.12500000000E+03 0.  0.
         21    1    1    2  503  501  0.38858200087E+02 -0.14862522459E+02 -0.50149799933E+02  0.65160238806E+02  0.00000000000E+00 0.  1.
         21    1    1    2  504  502  0.12867149698E+03 -0.21587060820E+03  0.47074853842E+03  0.53362970311E+03  0.00000000000E+00 0. -1.
<mgrwt>
<rscale>  4 0.28296726E+03</rscale>
<asrwt>0</asrwt>
<pdfrwt beam="1">  1       21 0.88428723E-01 0.28296726E+03</pdfrwt>
<pdfrwt beam="2">  1       21 0.70980059E-01 0.28296726E+03</pdfrwt>
<totfact> 0.18346343E+03</totfact>
</mgrwt>
</event>
<event>
 5    0  0.1257040E+001  0.2450839E+03  0.7546771E-02  0.1116452E+00
         21   -1    0    0  504  501  0.00000000000E+00  0.00000000000E+00  0.51863650354E+03  0.51863650354E+03  0.00000000000E+00 0. -1.
         21   -1    0    0  503  502 -0.00000000000E+00 -0.00000000000E+00 -0.15910867002E+03  0.15910867002E+03  0.00000000000E+00 0. -1.
         25    1    1    2    0    0 -0.22092765307E+03 -0.54238392001E+02  0.31809781086E+03  0.41056308691E+03  0.12500000000E+03 0.  0.
         21    1    1    2  503  501  0.31817499949E+02  0.41833728415E+02 -0.34663170770E+02  0.62959904256E+02  0.00000000000E+00 0.  1.
         21    1    1    2  504  502  0.18911015312E+03  0.12404663586E+02  0.76093193438E+02  0.20422218239E+03  0.00000000000E+00 0. -1.
<mgrwt>
<rscale>  4 0.24508386E+03</rscale>
<asrwt>0</asrwt>
<pdfrwt beam="1">  1       21 0.79790230E-01 0.24508386E+03</pdfrwt>
<pdfrwt beam="2">  1       21 0.24478257E-01 0.24508386E+03</pdfrwt>
<totfact> 0.21193567E+04</totfact>
</mgrwt>
</event>
<event>
 5    0  0.1257040E+001  0.2550246E+03  0.7546771E-02  0.1110170E+00
         21   -1    0    0  502  501  0.00000000000E+00  0.00000000000E+00  0.53457570627E+03  0.53457570627E+03  0.00000000000E+00 0. -1.
         21   -1    0    0  504  502 -0.00000000000E+00 -0.00000000000E+00 -0.16194702121E+03  0.16194702121E+03  0.00000000000E+00 0. -1.
         25    1    1    2    0    0  0.20742539023E+03 -0.10190944804E+03  0.31527932307E+03  0.41041062324E+03  0.12500000000E+03 0.  0.
         21    1    1    2  503  501 -0.19775509593E+03  0.72587480374E+02  0.10021947911E+03  0.23328086991E+03  0.00000000000E+00 0. -1.
         21    1    1    2  504  503 -0.96702943001E+01  0.29321967663E+02 -0.42870117119E+02  0.52831234334E+02  0.00000000000E+00 0.  1.
<mgrwt>
<rscale>  4 0.25502464E+03</rscale>
<asrwt>0</asrwt>
<pdfrwt beam="1">  1       21 0.82242416E-01 0.25502464E+03</pdfrwt>
<pdfrwt beam="2">  1       21 0.24914926E-01 0.25502464E+03</pdfrwt>
<totfact> 0.19027247E+04</totfact>
</mgrwt>
</event>
<event>
 5    0  0.1257040E+001  0.2623274E+03  0.7546771E-02  0.1105753E+00
         21   -1    0    0  502  501  0.00000000000E+00  0.00000000000E+00  0.17491403096E+03  0.17491403096E+03  0.00000000000E+00 0. -1.
         21   -1    0    0  504  502 -0.00000000000E+00 -0.00000000000E+00 -0.48496500189E+03  0.48496500189E+03  0.00000000000E+00 0. -1.
         25    1    1    2    0    0  0.22106386867E+03  0.10237017056E+03 -0.21998210911E+03  0.35123498428E+03  0.12500000000E+03 0.  0.
         21    1    1    2  503  501 -0.18246700039E+03 -0.13386311132E+03 -0.26452996072E+02  0.22784490296E+03  0.00000000000E+00 0. -1.
         21    1    1    2  504  503 -0.38596868279E+02  0.31492940761E+02 -0.63615865739E+02  0.80799145617E+02  0.00000000000E+00 0. -1.
<mgrwt>
<rscale>  4 0.26232740E+03</rscale>
<asrwt>0</asrwt>
<pdfrwt beam="1">  1       21 0.26909851E-01 0.26232740E+03</pdfrwt>
<pdfrwt beam="2">  1       21 0.74609999E-01 0.26232740E+03</pdfrwt>
<totfact> 0.20384958E+04</totfact>
</mgrwt>
</event>
<event>
 5    0  0.1257040E+001  0.2767154E+03  0.7546771E-02  0.1097497E+00
         21   -1    0    0  504  501  0.00000000000E+00  0.00000000000E+00  0.10919690857E+04  0.10919690857E+04  0.00000000000E+00 0.  1.
         21   -1    0    0  503  502 -0.00000000000E+00 -0.00000000000E+00 -0.33360905996E+03  0.33360905996E+03  0.00000000000E+00 0.  1.
         25    1    1    2    0    0 -0.26082213574E+03  0.52091947933E+02 -0.16331118808E+03  0.33621020461E+03  0.12500000000E+03 0.  0.
         21    1    1    2  503  501  0.19104589571E+02 -0.78918896562E+01 -0.67260477867E+02  0.70365042088E+02  0.00000000000E+00 0.  1.
         21    1    1    2  504  502  0.24171754617E+03 -0.44200058277E+02  0.98893169172E+03  0.10190028990E+04  0.00000000000E+00 0.  1.
<mgrwt>
<rscale>  4 0.27671544E+03</rscale>
<asrwt>0</asrwt>
<pdfrwt beam="1">  1       21 0.16799524E+00 0.27671544E+03</pdfrwt>
<pdfrwt beam="2">  1       21 0.51324471E-01 0.27671544E+03</pdfrwt>
<totfact> 0.73527763E+02</totfact>
</mgrwt>
</event>
<event>
 5    0  0.1257040E+001  0.4546037E+03  0.7546771E-02  0.1026358E+00
         21   -1    0    0  502  501  0.00000000000E+00  0.00000000000E+00  0.69788624663E+03  0.69788624663E+03  0.00000000000E+00 0. -1.
         21   -1    0    0  504  502 -0.00000000000E+00 -0.00000000000E+00 -0.67339562501E+03  0.67339562501E+03  0.00000000000E+00 0. -1.
         25    1    1    2    0    0 -0.10820976934E+02  0.37555203086E+03 -0.40285363222E+03  0.56486500195E+03  0.12500000000E+03 0.  0.
         21    1    1    2  503  501  0.48363415889E+02 -0.44520027831E+03  0.51889361638E+03  0.68541439503E+03  0.00000000000E+00 0. -1.
         21    1    1    2  504  503 -0.37542438955E+02  0.69648247444E+02 -0.91549362528E+02  0.12100247466E+03  0.00000000000E+00 0.  1.
<mgrwt>
<rscale>  4 0.45460372E+03</rscale>
<asrwt>0</asrwt>
<pdfrwt beam="1">  1       21 0.10736711E+00 0.45460372E+03</pdfrwt>
<pdfrwt beam="2">  1       21 0.10359933E+00 0.45460372E+03</pdfrwt>
<totfact> 0.43480597E+02</totfact>
</mgrwt>
</event>
<event>
 5    0  0.1257040E+001  0.2361442E+03  0.7546771E-02  0.1122388E+00
         21   -1    0    0  502  501  0.00000000000E+00  0.00000000000E+00  0.20816275202E+03  0.20816275202E+03  0.00000000000E+00 0.  1.
         21   -1    0    0  504  502 -0.00000000000E+00 -0.00000000000E+00 -0.52357793231E+03  0.52357793231E+03  0.00000000000E+00 0.  1.
         25    1    1    2    0    0 -0.10081297500E+03 -0.23506192725E+03 -0.19923209524E+03  0.34747056471E+03  0.12500000000E+03 0.  0.
         21    1    1    2  503  501  0.71830247054E+01  0.18842429911E+03  0.43370772289E+02  0.19348471833E+03  0.00000000000E+00 0.  1.
         21    1    1    2  504  503  0.93629950290E+02  0.46637628142E+02 -0.15955385735E+03  0.19078540129E+03  0.00000000000E+00 0.  1.
<mgrwt>
<rscale>  4 0.23614423E+03</rscale>
<asrwt>0</asrwt>
<pdfrwt beam="1">  1       21 0.32025039E-01 0.23614423E+03</pdfrwt>
<pdfrwt beam="2">  1       21 0.80550450E-01 0.23614423E+03</pdfrwt>
<totfact> 0.12359094E+04</totfact>
</mgrwt>
</event>
<event>
 5    0  0.1257040E+001  0.2999512E+03  0.7546771E-02  0.1085265E+00
         21   -1    0    0  504  501  0.00000000000E+00  0.00000000000E+00  0.33057055351E+03  0.33057055351E+03  0.00000000000E+00 0. -1.
         21   -1    0    0  503  502 -0.00000000000E+00 -0.00000000000E+00 -0.58311215698E+03  0.58311215698E+03  0.00000000000E+00 0.  1.
         25    1    1    2    0    0 -0.55103770184E+02  0.24447226171E+03 -0.42444143851E+03  0.50850628999E+03  0.12500000000E+03 0.  0.
         21    1    1    2  503  501  0.11885214574E+01  0.26035508106E+02 -0.46531525315E+02  0.53333320858E+02  0.00000000000E+00 0. -1.
         21    1    1    2  504  502  0.53915248727E+02 -0.27050776982E+03  0.21843136036E+03  0.35184309964E+03  0.00000000000E+00 0. -1.
<mgrwt>
<rscale>  4 0.29995121E+03</rscale>
<asrwt>0</asrwt>
<pdfrwt beam="1">  1       21 0.50857009E-01 0.29995121E+03</pdfrwt>
<pdfrwt beam="2">  1       21 0.89709561E-01 0.29995121E+03</pdfrwt>
<totfact> 0.36223635E+03</totfact>
</mgrwt>
</event>
<event>
 5    0  0.1257040E+001  0.2462883E+03  0.7546771E-02  0.1115673E+00
         21   -1    0    0  503  501  0.00000000000E+00  0.00000000000E+00  0.27723181479E+03  0.27723181479E+03  0.00000000000E+00 0. -1.
         21   -1    0    0  504  502 -0.00000000000E+00 -0.00000000000E+00 -0.65674253875E+03  0.65674253875E+03  0.00000000000E+00 0. -1.
         25    1    1    2    0    0 -0.28911117998E+03  0.35957500868E+02 -0.14701702630E+03  0.34945274685E+03  0.12500000000E+03 0.  0.
         21    1    1    2  503  502  0.15963822838E+03  0.12487760591E+03 -0.30455785123E+03  0.36583365778E+03  0.00000000000E+00 0. -1.
         21    1    1    2  504  501  0.12947295161E+03 -0.16083510678E+03  0.72064153568E+02  0.21868794891E+03  0.00000000000E+00 0. -1.
<mgrwt>
<rscale>  4 0.24628831E+03</rscale>
<asrwt>0</asrwt>
<pdfrwt beam="1">  1       21 0.42651049E-01 0.24628831E+03</pdfrwt>
<pdfrwt beam="2">  1       21 0.10103731E+00 0.24628831E+03</pdfrwt>
<totfact> 0.40704469E+03</totfact>
</mgrwt>
</event>
<event>
 5    0  0.1257040E+001  0.1721590E+03  0.7546771E-02  0.1175615E+00
         21   -1    0    0  502  501  0.00000000000E+00  0.00000000000E+00  0.11185349122E+04  0.11185349122E+04  0.00000000000E+00 0. -1.
         21   -1    0    0  504  502 -0.00000000000E+00 -0.00000000000E+00 -0.23515608762E+03  0.23515608762E+03  0.00000000000E+00 0. -1.
         25    1    1    2    0    0 -0.39804560844E+02 -0.20683587639E+03 -0.50276706626E+02  0.25003645745E+03  0.12500000000E+03 0.  0.
         21    1    1    2  503  501  0.37110472362E+02  0.11024354379E+03  0.98662522958E+03  0.99345869051E+03  0.00000000000E+00 0. -1.
         21    1    1    2  504  503  0.26940884818E+01  0.96592332603E+02 -0.52969698352E+02  0.11019585189E+03  0.00000000000E+00 0. -1.
<mgrwt>
<rscale>  4 0.17215901E+03</rscale>
<asrwt>0</asrwt>
<pdfrwt beam="1">  1       21 0.17208229E+00 0.17215901E+03</pdfrwt>
<pdfrwt beam="2">  1       21 0.36177860E-01 0.17215901E+03</pdfrwt>
<totfact> 0.15540853E+03</totfact>
</mgrwt>
</event>
<event>
 5    0  0.1257040E+001  0.2504742E+03  0.7546771E-02  0.1113006E+00
         21   -1    0    0  504  501  0.00000000000E+00  0.00000000000E+00  0.42555664643E+03  0.42555664643E+03  0.00000000000E+00 0.  1.
         21   -1    0    0  503  502 -0.00000000000E+00 -0.00000000000E+00 -0.48690995323E+03  0.48690995323E+03  0.00000000000E+00 0.  1.
         25    1    1    2    0    0  0.17550732949E+03 -0.12553783205E+03 -0.39423310237E+03  0.46648398578E+03  0.12500000000E+03 0.  0.
         21    1    1    2  503  501  0.15691231863E+02  0.22364024101E+02 -0.18405564198E+02  0.32941298165E+02  0.00000000000E+00 0.  1.
         21    1    1    2  504  502 -0.19119856136E+03  0.10317380795E+03  0.35128535977E+03  0.41304131573E+03  0.00000000000E+00 0.  1.
<mgrwt>
<rscale>  4 0.25047418E+03</rscale>
<asrwt>0</asrwt>
<pdfrwt beam="1">  1       21 0.65470253E-01 0.25047418E+03</pdfrwt>
<pdfrwt beam="2">  1       21 0.74909224E-01 0.25047418E+03</pdfrwt>
<totfact> 0.32751619E+03</totfact>
</mgrwt>
</event>
<event>
 5    0  0.1257040E+001  0.2255190E+03  0.7546771E-02  0.1129834E+00
         21   -1    0    0  502  501  0.00000000000E+00  0.00000000000E+00  0.14997900037E+03  0.14997900037E+03  0.00000000000E+00 0.  1.
         21   -1    0    0  504  502 -0.00000000000E+00 -0.00000000000E+00 -0.42311479510E+03  0.42311479510E+03  0.00000000000E+00 0.  1.
         25    1    1    2    0    0  0.17306348863E+02 -0.20164841140E+03 -0.31540078863E+02  0.23996118041E+03  0.12500000000E+03 0.  0.
         21    1    1    2  503  501  0.11729336771E+02  0.20395919471E+02  0.65951567055E+01  0.24434953737E+02  0.00000000000E+00 0.  1.
         21    1    1    2  504  503 -0.29035685634E+02  0.18125249193E+03 -0.24819087258E+03  0.30869766132E+03  0.00000000000E+00 0.  1.
<mgrwt>
<rscale>  4 0.22551900E+03</rscale>
<asrwt>0</asrwt>
<pdfrwt beam="1">  1       21 0.23073692E-01 0.22551900E+03</pdfrwt>
<pdfrwt beam="2">  1       21 0.65094584E-01 0.22551900E+03</pdfrwt>
<totfact> 0.37696125E+04</totfact>
</mgrwt>
</event>
<event>
 5    0  0.1257040E+001  0.2289843E+03  0.7546771E-02  0.1127357E+00
         21   -1    0    0  503  501  0.00000000000E+00  0.00000000000E+00  0.44856986817E+02  0.44856986817E+02  0.00000000000E+00 0. -1.
         21   -1    0    0  504  502 -0.00000000000E+00 -0.00000000000E+00 -0.17148467931E+04  0.17148467931E+04  0.00000000000E+00 0. -1.
         25    1    1    2    0    0 -0.40415657042E+02 -0.20699736898E+03 -0.40727454378E+03  0.47537236994E+03  0.12500000000E+03 0.  0.
         21    1    1    2  503  502  0.45247135191E+02  0.18235840810E+03 -0.12229766507E+04  0.12373252525E+04  0.00000000000E+00 0. -1.
         21    1    1    2  504  501 -0.48314781498E+01  0.24638960880E+02 -0.39738611784E+02  0.47006157478E+02  0.00000000000E+00 0.  1.
<mgrwt>
<rscale>  4 0.22898432E+03</rscale>
<asrwt>0</asrwt>
<pdfrwt beam="1">  1       21 0.69010742E-02 0.22898432E+03</pdfrwt>
<pdfrwt beam="2">  1       21 0.26382261E+00 0.22898432E+03</pdfrwt>
<totfact> 0.82695731E+03</totfact>
</mgrwt>
</event>
<event>
 5    0  0.1257040E+001  0.2472078E+03  0.7546771E-02  0.1115082E+00
         21   -1    0    0  504  501  0.00000000000E+00  0.00000000000E+00  0.24189086188E+03  0.24189086188E+03  0.00000000000E+00 0.  1.
         21   -1    0    0  503  502 -0.00000000000E+00 -0.00000000000E+00 -0.47863720105E+03  0.47863720105E+03  0.00000000000E+00 0.  1.
         25    1    1    2    0    0  0.59320138906E+01 -0.21958138645E+03 -0.32686497422E+03  0.41317899927E+03  0.12500000000E+03 0.  0.
         21    1    1    2  503  501 -0.77920170337E+02  0.19050035676E+03  0.27591501805E+02  0.20766133449E+03  0.00000000000E+00 0.  1.
         21    1    1    2  504  502  0.71988156447E+02  0.29081029689E+02  0.62527133241E+02  0.99687729174E+02  0.00000000000E+00 0.  1.
<mgrwt>
<rscale>  4 0.24720778E+03</rscale>
<asrwt>0</asrwt>
<pdfrwt beam="1">  1       21 0.37213979E-01 0.24720778E+03</pdfrwt>
<pdfrwt beam="2">  1       21 0.73636492E-01 0.24720778E+03</pdfrwt>
<totfact> 0.11152549E+04</totfact>
</mgrwt>
</event>
<event>
 5    0  0.1257040E+001  0.2412182E+03  0.7546771E-02  0.1118984E+00
         21   -1    0    0  503  501  0.00000000000E+00  0.00000000000E+00  0.18808264605E+04  0.18808264605E+04  0.00000000000E+00 0.  1.
         21   -1    0    0  504  502 -0.00000000000E+00 -0.00000000000E+00 -0.14268699161E+03  0.14268699161E+03  0.00000000000E+00 0. -1.
         25    1    1    2    0    0  0.25475760132E+02  0.20768272786E+03 -0.19984259439E+02  0.24455163143E+03  0.12500000000E+03 0.  0.
         21    1    1    2  503  502 -0.44503106236E+02 -0.40392377173E+02  0.14341833911E+03  0.15550205977E+03  0.00000000000E+00 0. -1.
         21    1    1    2  504  501  0.19027346104E+02 -0.16729035069E+03  0.16147053892E+04  0.16234597609E+04  0.00000000000E+00 0.  1.
<mgrwt>
<rscale>  4 0.24121815E+03</rscale>
<asrwt>0</asrwt>
<pdfrwt beam="1">  1       21 0.28935790E+00 0.24121815E+03</pdfrwt>
<pdfrwt beam="2">  1       21 0.21951846E-01 0.24121815E+03</pdfrwt>
<totfact> 0.71769269E+02</totfact>
</mgrwt>
</event>
<event>
 5    0  0.1257040E+001  0.2549095E+03  0.7546771E-02  0.1110241E+00
         21   -1    0    0  504  501  0.00000000000E+00  0.00000000000E+00  0.14241263964E+03  0.14241263964E+03  0.00000000000E+00 0.  1.
         21   -1    0    0  503  502 -0.00000000000E+00 -0.00000000000E+00 -0.12850588353E+04  0.12850588353E+04  0.00000000000E+00 0.  1.
         25    1    1    2    0    0 -0.24610464723E+03 -0.64616844533E+02 -0.99555493633E+03  0.10351316173E+04  0.12500000000E+03 0.  0.
         21    1    1    2  503  501  0.60640650542E+02 -0.53513936316E+02 -0.15223998123E+03  0.17238921591E+03  0.00000000000E+00 0.  1.
         21    1    1    2  504  502  0.18546399669E+03  0.11813078085E+03  0.51487218665E+01  0.21995064171E+03  0.00000000000E+00 0.  1.
<mgrwt>
<rscale>  4 0.25490955E+03</rscale>
<asrwt>0</asrwt>
<pdfrwt beam="1">  1       21 0.21909637E-01 0.25490955E+03</pdfrwt>
<pdfrwt beam="2">  1       21 0.19770136E+00 0.25490955E+03</pdfrwt>
<totfact> 0.25575523E+03</totfact>
</mgrwt>
</event>
<event>
 5    0  0.1257040E+001  0.2806870E+03  0.7546771E-02  0.1095314E+00
         21   -1    0    0  504  501  0.00000000000E+00  0.00000000000E+00  0.28830712768E+04  0.28830712768E+04  0.00000000000E+00 0.  1.
         21   -1    0    0  503  502 -0.00000000000E+00 -0.00000000000E+00 -0.43483380597E+02  0.43483380597E+02  0.00000000000E+00 0. -1.
         25    1    1    2    0    0  0.16840472725E+03 -0.18589465966E+03  0.56376399257E+03  0.62958066677E+03  0.12500000000E+03 0.  0.
         21    1    1    2  503  501  0.35638499415E+02  0.30677389652E+02  0.20405636433E+03  0.20940440468E+03  0.00000000000E+00 0. -1.
         21    1    1    2  504  502 -0.20404322666E+03  0.15521727001E+03  0.20717675393E+04  0.20875695860E+04  0.00000000000E+00 0.  1.
<mgrwt>
<rscale>  4 0.28068696E+03</rscale>
<asrwt>0</asrwt>
<pdfrwt beam="1">  1       21 0.44354928E+00 0.28068696E+03</pdfrwt>
<pdfrwt beam="2">  1       21 0.66897531E-02 0.28068696E+03</pdfrwt>
<totfact> 0.66728028E+02</totfact>
</mgrwt>
</event>
<event>
 5    0  0.1257040E+001  0.2660774E+03  0.7546771E-02  0.1103546E+00
         21   -1    0    0  502  501  0.00000000000E+00  0.00000000000E+00  0.20157277997E+03  0.20157277997E+03  0.00000000000E+00 0. -1.
         21   -1    0    0  504  502 -0.00000000000E+00 -0.00000000000E+00 -0.11888218208E+04  0.11888218208E+04  0.00000000000E+00 0. -1.
         25    1    1    2    0    0 -0.20993924354E+03  0.12708910891E+03 -0.72515106713E+03  0.77569014286E+03  0.12500000000E+03 0.  0.
         21    1    1    2  503  501  0.21538107157E+02 -0.76449071384E+01  0.14698594121E+03  0.14875214815E+03  0.00000000000E+00 0.  1.
         21    1    1    2  504  503  0.18840113638E+03 -0.11944420177E+03 -0.40908391490E+03  0.46595230974E+03  0.00000000000E+00 0. -1.
<mgrwt>
<rscale>  4 0.26607744E+03</rscale>
<asrwt>0</asrwt>
<pdfrwt beam="1">  1       21 0.31011197E-01 0.26607744E+03</pdfrwt>
<pdfrwt beam="2">  1       21 0.18289566E+00 0.26607744E+03</pdfrwt>
<totfact> 0.16273643E+03</totfact>
</mgrwt>
</event>
