<event>
 5    0  0.1911311E+001  0.3115407E+03  0.7546771E-02  0.1079610E+00
         21   -1    0    0  504  501  0.00000000000E+00  0.00000000000E+00  0.10474590303E+04  0.10474590303E+04  0.00000000000E+00 0. -1.
         21   -1    0    0  503  502 -0.00000000000E+00 -0.00000000000E+00 -0.80277662122E+03  0.80277662122E+03  0.00000000000E+00 0.  1.
         25    1    1    2    0    0 -0.15614449823E+03 -0.27649122451E+03  0.68063759393E+03  0.76139413961E+03  0.12500000000E+03 0.  0.
         21    1    1    2  503  501  0.21167196461E+03  0.19047564528E+03 -0.72675235155E+03  0.78054786691E+03  0.00000000000E+00 0.  1.
         21    1    1    2  504  502 -0.55527466384E+02  0.86015579236E+02  0.29079716675E+03  0.30829364506E+03  0.00000000000E+00 0.  1.
<mgrwt>
<rscale>  4 0.31154068E+03</rscale>
<asrwt>0</asrwt>
<pdfrwt beam="1">  1       21 0.16114754E+00 0.31154068E+03</pdfrwt>
<pdfrwt beam="2">  1       21 0.12350410E+00 0.31154068E+03</pdfrwt>
<totfact> 0.10680179E+02</totfact>
</mgrwt>
</event>
<event>
 5    0  0.1911311E+001  0.2473302E+03  0.7546771E-02  0.1115004E+00
         21   -1    0    0  502  501  0.00000000000E+00  0.00000000000E+00  0.58174112431E+03  0.58174112431E+03  0.00000000000E+00 0.  1.
         21   -1    0    0  504  502 -0.00000000000E+00 -0.00000000000E+00 -0.69265846109E+03  0.69265846109E+03  0.00000000000E+00 0.  1.
         25    1    1    2    0    0  0.61956798793E+02 -0.19171286332E+03 -0.52843669430E+03  0.57919151130E+03  0.12500000000E+03 0.  0.
         21    1    1    2  503  501 -0.88987350647E+02  0.19452364717E+03  0.53418281114E+03  0.57542112718E+03  0.00000000000E+00 0.  1.
         21    1    1    2  504  503  0.27030551854E+02 -0.28107838473E+01 -0.11666345363E+03  0.11978694692E+03  0.00000000000E+00 0.  1.
<mgrwt>
<rscale>  4 0.24733018E+03</rscale>
<asrwt>0</asrwt>
<pdfrwt beam="1">  1       21 0.89498635E-01 0.24733018E+03</pdfrwt>
<pdfrwt beam="2">  1       21 0.10656284E+00 0.24733018E+03</pdfrwt>
<totfact> 0.71248112E+02</totfact>
</mgrwt>
</event>
<event>
 5    0  0.1911311E+001  0.2626022E+03  0.7546771E-02  0.1105590E+00
         21   -1    0    0  502  501  0.00000000000E+00  0.00000000000E+00  0.53711540350E+03  0.53711540350E+03  0.00000000000E+00 0. -1.
         21   -1    0    0  504  502 -0.00000000000E+00 -0.00000000000E+00 -0.24656485922E+03  0.24656485922E+03  0.00000000000E+00 0. -1.
         25    1    1    2    0    0 -0.22941951295E+03 -0.85470905578E+02  0.16440461962E+03  0.32030058941E+03  0.12500000000E+03 0.  0.
         21    1    1    2  503  501  0.20511004561E+03  0.88735089106E+02  0.25103830329E+03  0.33610158668E+03  0.00000000000E+00 0. -1.
         21    1    1    2  504  503  0.24309467337E+02 -0.32641835277E+01 -0.12489237863E+03  0.12727808663E+03  0.00000000000E+00 0. -1.
<mgrwt>
<rscale>  4 0.26260219E+03</rscale>
<asrwt>0</asrwt>
<pdfrwt beam="1">  1       21 0.82633138E-01 0.26260219E+03</pdfrwt>
<pdfrwt beam="2">  1       21 0.37933056E-01 0.26260219E+03</pdfrwt>
<totfact> 0.81944508E+03</totfact>
</mgrwt>
</event>
<event>
 5    0  0.1911311E+001  0.2526578E+03  0.7546771E-02  0.1111637E+00
         21   -1    0    0  504  501  0.00000000000E+00  0.00000000000E+00  0.28275679811E+03  0.28275679811E+03  0.00000000000E+00 0.  1.
         21   -1    0    0  503  502 -0.00000000000E+00 -0.00000000000E+00 -0.36790638151E+03  0.36790638151E+03  0.00000000000E+00 0.  1.
         25    1    1    2    0    0  0.16978331616E+03  0.14449099424E+03 -0.20044717809E+03  0.32482009339E+03  0.12500000000E+03 0.  0.
         21    1    1    2  503  501 -0.14642962061E+03 -0.15668978116E+03  0.72005959926E+01  0.21458138291E+03  0.00000000000E+00 0.  1.
         21    1    1    2  504  502 -0.23353695554E+02  0.12198786914E+02  0.10809699870E+03  0.11126170332E+03  0.00000000000E+00 0.  1.
<mgrwt>
<rscale>  4 0.25265780E+03</rscale>
<asrwt>0</asrwt>
<pdfrwt beam="1">  1       21 0.43501046E-01 0.25265780E+03</pdfrwt>
<pdfrwt beam="2">  1       21 0.56600982E-01 0.25265780E+03</pdfrwt>
<totfact> 0.14399340E+04</totfact>
</mgrwt>
</event>
<event>
 5    0  0.1911311E+001  0.4877089E+03  0.7546771E-02  0.1017038E+00
         21   -1    0    0  502  501  0.00000000000E+00  0.00000000000E+00  0.14346066327E+04  0.14346066327E+04  0.00000000000E+00 0.  1.
         21   -1    0    0  504  502 -0.00000000000E+00 -0.00000000000E+00 -0.13754895727E+04  0.13754895727E+04  0.00000000000E+00 0. -1.
         25    1    1    2    0    0 -0.33077959959E+03 -0.22086480344E+03 -0.12167090804E+04  0.12861579962E+04  0.12500000000E+03 0.  0.
         21    1    1    2  503  501  0.32107217576E+03  0.34901475625E+03  0.13081167181E+04  0.13914266025E+04  0.00000000000E+00 0.  1.
         21    1    1    2  504  503  0.97074238296E+01 -0.12814995281E+03 -0.32290577603E+02  0.13251160661E+03  0.00000000000E+00 0. -1.
<mgrwt>
<rscale>  4 0.48770894E+03</rscale>
<asrwt>0</asrwt>
<pdfrwt beam="1">  1       21 0.22070871E+00 0.48770894E+03</pdfrwt>
<pdfrwt beam="2">  1       21 0.21161378E+00 0.48770894E+03</pdfrwt>
<totfact> 0.80840570E+00</totfact>
</mgrwt>
</event>
<event>
 5    0  0.5742922E+001  0.2378830E+03  0.7546771E-02  0.1121211E+00
         21   -1    0    0  503  501  0.00000000000E+00  0.00000000000E+00  0.12458293141E+03  0.12458293141E+03  0.00000000000E+00 0. -1.
         21   -1    0    0  504  502 -0.00000000000E+00 -0.00000000000E+00 -0.13992502661E+04  0.13992502661E+04  0.00000000000E+00 0.  1.
         25    1    1    2    0    0  0.42999788748E+02  0.19867519893E+03 -0.11775049625E+04  0.12014423636E+04  0.12500000000E+03 0.  0.
         21    1    1    2  503  502  0.19600513664E+02 -0.61986416199E+01 -0.11721059972E+03  0.11899969740E+03  0.00000000000E+00 0. -1.
         21    1    1    2  504  501 -0.62600302413E+02 -0.19247655731E+03  0.20048227487E+02  0.20339113649E+03  0.00000000000E+00 0. -1.
<mgrwt>
<rscale>  4 0.23788303E+03</rscale>
<asrwt>0</asrwt>
<pdfrwt beam="1">  1       21 0.19166604E-01 0.23788303E+03</pdfrwt>
<pdfrwt beam="2">  1       21 0.21526928E+00 0.23788303E+03</pdfrwt>
<totfact> 0.25751079E+03</totfact>
</mgrwt>
</event>
