<event>
 5    0  0.4025551E-002  0.5956959E+03  0.7546771E-02  0.9914376E-01
         -1   -1    0    0    0  501 -0.00000000000E+00  0.00000000000E+00  0.59756650988E+02  0.59756650988E+02  0.00000000000E+00 0.  1.
          1   -1    0    0  502    0  0.00000000000E+00 -0.00000000000E+00 -0.16456701593E+04  0.16456701593E+04  0.00000000000E+00 0. -1.
         25    1    1    2    0    0  0.25840221510E+03 -0.11265909402E+02 -0.50897068252E+03  0.58444399316E+03  0.12500000000E+03 0.  0.
         21    1    1    2  502  503  0.13281145724E+02  0.22409311654E+02 -0.32108311941E+02  0.41346218404E+02  0.00000000000E+00 0.  1.
         21    1    1    2  503  501 -0.27168336082E+03 -0.11143402252E+02 -0.10448345139E+04  0.10796365987E+04  0.00000000000E+00 0. -1.
<mgrwt>
<rscale>  4 0.59569592E+03</rscale>
<asrwt>0</asrwt>
<pdfrwt beam="1">  1        1 0.25318000E+00 0.59569592E+03</pdfrwt>
<pdfrwt beam="2">  1       -1 0.91933317E-02 0.59569592E+03</pdfrwt>
<totfact> 0.38599349E+02</totfact>
</mgrwt>
</event>
<event>
 5    0  0.4025551E-002  0.6707617E+03  0.7546771E-02  0.9768583E-01
          2   -1    0    0  502    0  0.00000000000E+00  0.00000000000E+00  0.11854264340E+04  0.11854264340E+04  0.00000000000E+00 0.  1.
         -2   -1    0    0    0  501 -0.00000000000E+00 -0.00000000000E+00 -0.19454961214E+03  0.19454961214E+03  0.00000000000E+00 0. -1.
         25    1    1    2    0    0  0.15155329053E+03  0.26085477205E+03  0.88963550287E+03  0.94767607332E+03  0.12500000000E+03 0.  0.
         21    1    1    2  502  503 -0.18587591682E+03 -0.40072759658E+02  0.83617732178E+01  0.19033024398E+03  0.00000000000E+00 0.  1.
         21    1    1    2  503  501  0.34322626290E+02 -0.22078201239E+03  0.92879545810E+02  0.24196972889E+03  0.00000000000E+00 0. -1.
<mgrwt>
<rscale>  4 0.67076174E+03</rscale>
<asrwt>0</asrwt>
<pdfrwt beam="1">  1        2 0.18237329E+00 0.67076174E+03</pdfrwt>
<pdfrwt beam="2">  1       -2 0.29930710E-01 0.67076174E+03</pdfrwt>
<totfact> 0.20231123E+02</totfact>
</mgrwt>
</event>
<event>
 5    0  0.4025551E-002  0.4420507E+03  0.7546771E-02  0.1030119E+00
         -2   -1    0    0    0  501 -0.00000000000E+00  0.00000000000E+00  0.11167110324E+03  0.11167110324E+03  0.00000000000E+00 0. -1.
          2   -1    0    0  502    0  0.00000000000E+00 -0.00000000000E+00 -0.79933635004E+03  0.79933635004E+03  0.00000000000E+00 0.  1.
         25    1    1    2    0    0  0.19470419843E+03  0.10520168450E+03 -0.47455403084E+03  0.53833414112E+03  0.12500000000E+03 0.  0.
         21    1    1    2  502  503 -0.83904480775E+02  0.37348080400E+02  0.19649358503E+01  0.91862407854E+02  0.00000000000E+00 0. -1.
         21    1    1    2  503  501 -0.11079971765E+03 -0.14254976490E+03 -0.21507615181E+03  0.28081090431E+03  0.00000000000E+00 0. -1.
<mgrwt>
<rscale>  4 0.44205069E+03</rscale>
<asrwt>0</asrwt>
<pdfrwt beam="1">  1        2 0.12297482E+00 0.44205069E+03</pdfrwt>
<pdfrwt beam="2">  1       -2 0.17180169E-01 0.44205069E+03</pdfrwt>
<totfact> 0.96653895E+02</totfact>
</mgrwt>
</event>
<event>
 5    0  0.4025551E-002  0.9191749E+03  0.7546771E-02  0.9401924E-01
          2   -1    0    0  503    0  0.00000000000E+00  0.00000000000E+00  0.13338831532E+04  0.13338831532E+04  0.00000000000E+00 0. -1.
         -2   -1    0    0    0  501 -0.00000000000E+00 -0.00000000000E+00 -0.15835017118E+03  0.15835017118E+03  0.00000000000E+00 0.  1.
         25    1    1    2    0    0  0.11877587768E+03 -0.18857439734E+03  0.12324789130E+04  0.12586887159E+04  0.12500000000E+03 0.  0.
         21    1    1    2  502  501 -0.99905460334E+02  0.17974095395E+03 -0.50811977781E+02  0.21182485363E+03  0.00000000000E+00 0.  1.
         21    1    1    2  503  502 -0.18870417348E+02  0.88334433962E+01 -0.61339531435E+01  0.21719754932E+02  0.00000000000E+00 0. -1.
<mgrwt>
<rscale>  4 0.91917490E+03</rscale>
<asrwt>0</asrwt>
<pdfrwt beam="1">  1        2 0.20521278E+00 0.91917490E+03</pdfrwt>
<pdfrwt beam="2">  1       -2 0.24361566E-01 0.91917490E+03</pdfrwt>
<totfact> 0.23768009E+02</totfact>
</mgrwt>
</event>
<event>
 5    0  0.4025551E-002  0.1041116E+04  0.7546771E-02  0.9264565E-01
          2   -1    0    0  502    0  0.00000000000E+00  0.00000000000E+00  0.11429028498E+04  0.11429028498E+04  0.00000000000E+00 0. -1.
         -2   -1    0    0    0  501 -0.00000000000E+00 -0.00000000000E+00 -0.40007398913E+03  0.40007398913E+03  0.00000000000E+00 0.  1.
         25    1    1    2    0    0  0.28807326077E+03 -0.28894352649E+03  0.94102932201E+03  0.10332646079E+04  0.12500000000E+03 0.  0.
         21    1    1    2  502  503 -0.27041375867E+03  0.12099042719E+03 -0.91946385799E+02  0.31018772092E+03  0.00000000000E+00 0.  1.
         21    1    1    2  503  501 -0.17659502095E+02  0.16795309930E+03 -0.10625407552E+03  0.19952451013E+03  0.00000000000E+00 0.  1.
<mgrwt>
<rscale>  4 0.10411159E+04</rscale>
<asrwt>0</asrwt>
<pdfrwt beam="1">  1        2 0.17583121E+00 0.10411159E+04</pdfrwt>
<pdfrwt beam="2">  1       -2 0.61549845E-01 0.10411159E+04</pdfrwt>
<totfact> 0.50022275E+01</totfact>
</mgrwt>
</event>
<event>
 5    0  0.4025551E-002  0.5036994E+03  0.7546771E-02  0.1012818E+00
          2   -1    0    0  502    0  0.00000000000E+00  0.00000000000E+00  0.13565491062E+04  0.13565491062E+04  0.00000000000E+00 0. -1.
         -2   -1    0    0    0  501 -0.00000000000E+00 -0.00000000000E+00 -0.55032728549E+02  0.55032728549E+02  0.00000000000E+00 0.  1.
         25    1    1    2    0    0  0.21051823186E+03  0.10061466197E+03  0.43976619307E+03  0.51328407410E+03  0.12500000000E+03 0.  0.
         21    1    1    2  502  503 -0.38621096336E+02  0.17666405352E+01  0.55802514572E+02  0.67886896627E+02  0.00000000000E+00 0. -1.
         21    1    1    2  503  501 -0.17189713553E+03 -0.10238130251E+03  0.80594766999E+03  0.83041086401E+03  0.00000000000E+00 0.  1.
<mgrwt>
<rscale>  4 0.50369937E+03</rscale>
<asrwt>0</asrwt>
<pdfrwt beam="1">  1        2 0.20869984E+00 0.50369937E+03</pdfrwt>
<pdfrwt beam="2">  1       -2 0.84665747E-02 0.50369937E+03</pdfrwt>
<totfact> 0.14007139E+03</totfact>
</mgrwt>
</event>
<event>
 5    0  0.4025551E-002  0.4372495E+03  0.7546771E-02  0.1031594E+00
         -1   -1    0    0    0  501 -0.00000000000E+00  0.00000000000E+00  0.18130456220E+02  0.18130456220E+02  0.00000000000E+00 0.  1.
          1   -1    0    0  503    0  0.00000000000E+00 -0.00000000000E+00 -0.39673084620E+04  0.39673084620E+04  0.00000000000E+00 0. -1.
         25    1    1    2    0    0  0.19896698084E+03  0.44533698103E+02 -0.24124521462E+04  0.24242775145E+04  0.12500000000E+03 0.  0.
         21    1    1    2  502  501 -0.12939235420E+03 -0.25608220364E+02 -0.38095638646E+03  0.40314504916E+03  0.00000000000E+00 0.  1.
         21    1    1    2  503  502 -0.69574626637E+02 -0.18925477738E+02 -0.11557694732E+04  0.11580163546E+04  0.00000000000E+00 0.  1.
<mgrwt>
<rscale>  4 0.43724950E+03</rscale>
<asrwt>0</asrwt>
<pdfrwt beam="1">  1        1 0.61035492E+00 0.43724950E+03</pdfrwt>
<pdfrwt beam="2">  1       -1 0.27893020E-02 0.43724950E+03</pdfrwt>
<totfact> 0.53485787E+01</totfact>
</mgrwt>
</event>
<event>
 5    0  0.4025551E-002  0.6129263E+03  0.7546771E-02  0.9878945E-01
          2   -1    0    0  503    0  0.00000000000E+00  0.00000000000E+00  0.19909886243E+04  0.19909886243E+04  0.00000000000E+00 0. -1.
         -2   -1    0    0    0  501 -0.00000000000E+00 -0.00000000000E+00 -0.47172368942E+02  0.47172368942E+02  0.00000000000E+00 0.  1.
         25    1    1    2    0    0 -0.20953267794E+03 -0.15337771607E+03  0.14247613972E+04  0.14536157353E+04  0.12500000000E+03 0.  0.
         21    1    1    2  502  501  0.18405652571E+03  0.15255047247E+03  0.49400440776E+03  0.54880671114E+03  0.00000000000E+00 0.  1.
         21    1    1    2  503  502  0.25476152231E+02  0.82724360342E+00  0.25050450442E+02  0.35738546862E+02  0.00000000000E+00 0.  1.
<mgrwt>
<rscale>  4 0.61292626E+03</rscale>
<asrwt>0</asrwt>
<pdfrwt beam="1">  1        2 0.30630588E+00 0.61292626E+03</pdfrwt>
<pdfrwt beam="2">  1       -2 0.72572891E-02 0.61292626E+03</pdfrwt>
<totfact> 0.80192704E+02</totfact>
</mgrwt>
</event>
<event>
 5    0  0.4025551E-002  0.5937490E+03  0.7546771E-02  0.9918460E-01
          2   -1    0    0  502    0  0.00000000000E+00  0.00000000000E+00  0.12096924132E+03  0.12096924132E+03  0.00000000000E+00 0. -1.
         -2   -1    0    0    0  501 -0.00000000000E+00 -0.00000000000E+00 -0.10816223166E+04  0.10816223166E+04  0.00000000000E+00 0.  1.
         25    1    1    2    0    0 -0.17230116116E+03 -0.26617843106E+03 -0.61793894455E+03  0.70569978496E+03  0.12500000000E+03 0.  0.
         21    1    1    2  502  503  0.11072547654E+03  0.62167091108E+02 -0.21132220209E+03  0.24653995918E+03  0.00000000000E+00 0. -1.
         21    1    1    2  503  501  0.61575684617E+02  0.20401133996E+03 -0.13139192868E+03  0.25035181383E+03  0.00000000000E+00 0. -1.
<mgrwt>
<rscale>  4 0.59374902E+03</rscale>
<asrwt>0</asrwt>
<pdfrwt beam="1">  1        2 0.18610654E-01 0.59374902E+03</pdfrwt>
<pdfrwt beam="2">  1       -2 0.16640342E+00 0.59374902E+03</pdfrwt>
<totfact> 0.71405344E+01</totfact>
</mgrwt>
</event>
<event>
 5    0  0.4025551E-002  0.5992670E+03  0.7546771E-02  0.9906928E-01
          1   -1    0    0  502    0  0.00000000000E+00  0.00000000000E+00  0.33248960190E+03  0.33248960190E+03  0.00000000000E+00 0. -1.
         -1   -1    0    0    0  501 -0.00000000000E+00 -0.00000000000E+00 -0.33830231482E+03  0.33830231482E+03  0.00000000000E+00 0.  1.
         25    1    1    2    0    0 -0.49128903297E+02 -0.28591178732E+03  0.50656941998E+02  0.31992237346E+03  0.12500000000E+03 0.  0.
         21    1    1    2  502  503  0.27607944361E+02  0.47531003205E+01 -0.62855910364E+02  0.68816102928E+02  0.00000000000E+00 0.  1.
         21    1    1    2  503  501  0.21520958935E+02  0.28115868700E+03  0.63862554503E+01  0.28205344034E+03  0.00000000000E+00 0.  1.
<mgrwt>
<rscale>  4 0.59926701E+03</rscale>
<asrwt>0</asrwt>
<pdfrwt beam="1">  1        1 0.51152246E-01 0.59926701E+03</pdfrwt>
<pdfrwt beam="2">  1       -1 0.52046510E-01 0.59926701E+03</pdfrwt>
<totfact> 0.28964270E+02</totfact>
</mgrwt>
</event>
<event>
 5    0  0.4025551E-002  0.4281433E+03  0.7546771E-02  0.1034448E+00
         -2   -1    0    0    0  501 -0.00000000000E+00  0.00000000000E+00  0.38933791907E+02  0.38933791907E+02  0.00000000000E+00 0.  1.
          2   -1    0    0  503    0  0.00000000000E+00 -0.00000000000E+00 -0.16878025817E+04  0.16878025817E+04  0.00000000000E+00 0. -1.
         25    1    1    2    0    0 -0.20150268033E+03 -0.27663089690E+02 -0.76611667405E+03  0.80245145334E+03  0.12500000000E+03 0.  0.
         21    1    1    2  502  501  0.16397362583E+03  0.89883293302E+02 -0.74987499107E+03  0.77283818398E+03  0.00000000000E+00 0. -1.
         21    1    1    2  503  502  0.37529054496E+02 -0.62220203612E+02 -0.13287712463E+03  0.15144673625E+03  0.00000000000E+00 0. -1.
<mgrwt>
<rscale>  4 0.42814333E+03</rscale>
<asrwt>0</asrwt>
<pdfrwt beam="1">  1        2 0.25966202E+00 0.42814333E+03</pdfrwt>
<pdfrwt beam="2">  1       -2 0.59898122E-02 0.42814333E+03</pdfrwt>
<totfact> 0.15961969E+03</totfact>
</mgrwt>
</event>
<event>
 5    0  0.4025551E-002  0.8058013E+03  0.7546771E-02  0.9551658E-01
          2   -1    0    0  503    0  0.00000000000E+00  0.00000000000E+00  0.24376614143E+04  0.24376614143E+04  0.00000000000E+00 0. -1.
         -2   -1    0    0    0  501 -0.00000000000E+00 -0.00000000000E+00 -0.99435453915E+02  0.99435453915E+02  0.00000000000E+00 0.  1.
         25    1    1    2    0    0  0.27586954818E+03 -0.38815184362E+02  0.14217225279E+04  0.14541425558E+04  0.12500000000E+03 0.  0.
         21    1    1    2  502  501  0.56797607331E+02  0.16263948557E+03  0.53409994472E+03  0.56119543959E+03  0.00000000000E+00 0.  1.
         21    1    1    2  503  502 -0.33266715551E+03 -0.12382430121E+03  0.38240348768E+03  0.52175887277E+03  0.00000000000E+00 0.  1.
<mgrwt>
<rscale>  4 0.80580132E+03</rscale>
<asrwt>0</asrwt>
<pdfrwt beam="1">  1        2 0.37502479E+00 0.80580132E+03</pdfrwt>
<pdfrwt beam="2">  1       -2 0.15297764E-01 0.80580132E+03</pdfrwt>
<totfact> 0.13200946E+02</totfact>
</mgrwt>
</event>
<event>
 5    0  0.4025551E-002  0.6063764E+03  0.7546771E-02  0.9892265E-01
          2   -1    0    0  503    0  0.00000000000E+00  0.00000000000E+00  0.19709877642E+04  0.19709877642E+04  0.00000000000E+00 0. -1.
         -2   -1    0    0    0  501 -0.00000000000E+00 -0.00000000000E+00 -0.54112121459E+02  0.54112121459E+02  0.00000000000E+00 0.  1.
         25    1    1    2    0    0 -0.26417799944E+03 -0.75818269850E+02  0.68161002743E+03  0.74549021115E+03  0.12500000000E+03 0.  0.
         21    1    1    2  502  501  0.27137188427E+03  0.47110852450E+02  0.12092016257E+04  0.12401736587E+04  0.00000000000E+00 0. -1.
         21    1    1    2  503  502 -0.71938848277E+01  0.28707417400E+02  0.26063989597E+02  0.39436015853E+02  0.00000000000E+00 0. -1.
<mgrwt>
<rscale>  4 0.60637637E+03</rscale>
<asrwt>0</asrwt>
<pdfrwt beam="1">  1        2 0.30322883E+00 0.60637637E+03</pdfrwt>
<pdfrwt beam="2">  1       -2 0.83249433E-02 0.60637637E+03</pdfrwt>
<totfact> 0.66110242E+02</totfact>
</mgrwt>
</event>
<event>
 5    0  0.4025551E-002  0.6764314E+03  0.7546771E-02  0.9758409E-01
          2   -1    0    0  502    0  0.00000000000E+00  0.00000000000E+00  0.68047249456E+03  0.68047249456E+03  0.00000000000E+00 0.  1.
         -2   -1    0    0    0  501 -0.00000000000E+00 -0.00000000000E+00 -0.24292603066E+03  0.24292603066E+03  0.00000000000E+00 0. -1.
         25    1    1    2    0    0  0.18923174933E+03  0.10433647006E+03  0.57929496564E+03  0.63079506272E+03  0.12500000000E+03 0.  0.
         21    1    1    2  502  503 -0.12272508732E+03 -0.14606991529E+02 -0.13147083758E+03  0.18044221345E+03  0.00000000000E+00 0. -1.
         21    1    1    2  503  501 -0.66506662005E+02 -0.89729478532E+02 -0.10277664155E+02  0.11216124905E+03  0.00000000000E+00 0. -1.
<mgrwt>
<rscale>  4 0.67643142E+03</rscale>
<asrwt>0</asrwt>
<pdfrwt beam="1">  1        2 0.10468808E+00 0.67643142E+03</pdfrwt>
<pdfrwt beam="2">  1       -2 0.37373236E-01 0.67643142E+03</pdfrwt>
<totfact> 0.28973704E+02</totfact>
</mgrwt>
</event>
<event>
 5    0  0.4025551E-002  0.6125407E+03  0.7546771E-02  0.9879724E-01
          2   -1    0    0  502    0  0.00000000000E+00  0.00000000000E+00  0.35574675912E+04  0.35574675912E+04  0.00000000000E+00 0. -1.
         -2   -1    0    0    0  501 -0.00000000000E+00 -0.00000000000E+00 -0.73903145465E+02  0.73903145465E+02  0.00000000000E+00 0.  1.
         25    1    1    2    0    0  0.19496236419E+03 -0.15347873187E+03  0.54978277252E+03  0.61599686813E+03  0.12500000000E+03 0.  0.
         21    1    1    2  502  503 -0.30199073785E+03  0.14431483948E+03  0.66908418185E+03  0.74813021663E+03  0.00000000000E+00 0.  1.
         21    1    1    2  503  501  0.10702837366E+03  0.91638923889E+01  0.22646974913E+04  0.22672436519E+04  0.00000000000E+00 0. -1.
<mgrwt>
<rscale>  4 0.61254065E+03</rscale>
<asrwt>0</asrwt>
<pdfrwt beam="1">  1        2 0.54730257E+00 0.61254065E+03</pdfrwt>
<pdfrwt beam="2">  1       -2 0.11369717E-01 0.61254065E+03</pdfrwt>
<totfact> 0.45510005E+01</totfact>
</mgrwt>
</event>
<event>
 5    0  0.4025551E-002  0.5756154E+03  0.7546771E-02  0.9957329E-01
          2   -1    0    0  503    0  0.00000000000E+00  0.00000000000E+00  0.57348000538E+03  0.57348000538E+03  0.00000000000E+00 0. -1.
         -2   -1    0    0    0  501 -0.00000000000E+00 -0.00000000000E+00 -0.40586431830E+03  0.40586431830E+03  0.00000000000E+00 0.  1.
         25    1    1    2    0    0 -0.20575071592E+03  0.65432302362E+01  0.29175115405E+03  0.37831191741E+03  0.12500000000E+03 0.  0.
         21    1    1    2  502  501  0.30473537691E+03 -0.42335855990E+02  0.12383352748E+03  0.33164848435E+03  0.00000000000E+00 0.  1.
         21    1    1    2  503  502 -0.98984660995E+02  0.35792625753E+02 -0.24796899446E+03  0.26938392191E+03  0.00000000000E+00 0.  1.
<mgrwt>
<rscale>  4 0.57561545E+03</rscale>
<asrwt>0</asrwt>
<pdfrwt beam="1">  1        2 0.88227693E-01 0.57561545E+03</pdfrwt>
<pdfrwt beam="2">  1       -2 0.62440665E-01 0.57561545E+03</pdfrwt>
<totfact> 0.12726883E+02</totfact>
</mgrwt>
</event>
<event>
 5    0  0.4025551E-002  0.5008437E+03  0.7546771E-02  0.1013559E+00
          2   -1    0    0  502    0  0.00000000000E+00  0.00000000000E+00  0.51899113629E+03  0.51899113629E+03  0.00000000000E+00 0.  1.
         -2   -1    0    0    0  501 -0.00000000000E+00 -0.00000000000E+00 -0.15737646236E+03  0.15737646236E+03  0.00000000000E+00 0. -1.
         25    1    1    2    0    0 -0.10677495248E+03  0.20700089701E+03  0.27535568990E+03  0.38170147734E+03  0.12500000000E+03 0.  0.
         21    1    1    2  502  503  0.47231217395E+02  0.78295187772E+01 -0.14500380336E+02  0.50023497387E+02  0.00000000000E+00 0. -1.
         21    1    1    2  503  501  0.59543735084E+02 -0.21483041578E+03  0.10075936436E+03  0.24464262392E+03  0.00000000000E+00 0. -1.
<mgrwt>
<rscale>  4 0.50084369E+03</rscale>
<asrwt>0</asrwt>
<pdfrwt beam="1">  1        2 0.79844789E-01 0.50084369E+03</pdfrwt>
<pdfrwt beam="2">  1       -2 0.24211764E-01 0.50084369E+03</pdfrwt>
<totfact> 0.89937510E+02</totfact>
</mgrwt>
</event>
<event>
 5    0  0.4025551E-002  0.1377851E+04  0.7546771E-02  0.8970009E-01
         -2   -1    0    0    0  501 -0.00000000000E+00  0.00000000000E+00  0.82164719868E+03  0.82164719868E+03  0.00000000000E+00 0.  1.
          2   -1    0    0  503    0  0.00000000000E+00 -0.00000000000E+00 -0.74607752733E+03  0.74607752733E+03  0.00000000000E+00 0. -1.
         25    1    1    2    0    0 -0.23020800954E+03 -0.28304878175E+03 -0.64102955048E+03  0.74810174782E+03  0.12500000000E+03 0.  0.
         21    1    1    2  502  501  0.20023844523E+03  0.27793165607E+03  0.53342656918E+03  0.63394427602E+03  0.00000000000E+00 0.  1.
         21    1    1    2  503  502  0.29969564311E+02  0.51171256790E+01  0.18317265265E+03  0.18567870217E+03  0.00000000000E+00 0. -1.
<mgrwt>
<rscale>  4 0.13778508E+04</rscale>
<asrwt>0</asrwt>
<pdfrwt beam="1">  1        2 0.11478116E+00 0.13778508E+04</pdfrwt>
<pdfrwt beam="2">  1       -2 0.12640726E+00 0.13778508E+04</pdfrwt>
<totfact> 0.17076924E+01</totfact>
</mgrwt>
</event>
<event>
 5    0  0.4025551E-002  0.5019990E+03  0.7546771E-02  0.1013258E+00
         -1   -1    0    0    0  501 -0.00000000000E+00  0.00000000000E+00  0.45127344601E+02  0.45127344601E+02  0.00000000000E+00 0.  1.
          1   -1    0    0  502    0  0.00000000000E+00 -0.00000000000E+00 -0.21669689502E+04  0.21669689502E+04  0.00000000000E+00 0. -1.
         25    1    1    2    0    0 -0.21939062668E+03  0.13087674551E+03 -0.91630698716E+03  0.95942923883E+03  0.12500000000E+03 0.  0.
         21    1    1    2  502  503  0.55466266696E+02 -0.21087618187E+02 -0.42431659765E+02  0.72949572531E+02  0.00000000000E+00 0.  1.
         21    1    1    2  503  501  0.16392435998E+03 -0.10978912733E+03 -0.11631029586E+04  0.11797174834E+04  0.00000000000E+00 0. -1.
<mgrwt>
<rscale>  4 0.50199898E+03</rscale>
<asrwt>0</asrwt>
<pdfrwt beam="1">  1        1 0.33337987E+00 0.50199898E+03</pdfrwt>
<pdfrwt beam="2">  1       -1 0.69426677E-02 0.50199898E+03</pdfrwt>
<totfact> 0.27156126E+02</totfact>
</mgrwt>
</event>
<event>
 5    0  0.4025551E-002  0.6885079E+03  0.7546771E-02  0.9737090E-01
          1   -1    0    0  502    0  0.00000000000E+00  0.00000000000E+00  0.99616861478E+03  0.99616861478E+03  0.00000000000E+00 0.  1.
         -1   -1    0    0    0  501 -0.00000000000E+00 -0.00000000000E+00 -0.14095531027E+03  0.14095531027E+03  0.00000000000E+00 0. -1.
         25    1    1    2    0    0 -0.23658369212E+03 -0.11872365031E+03  0.69035017612E+03  0.74985032786E+03  0.12500000000E+03 0.  0.
         21    1    1    2  502  503 -0.10907441838E+02 -0.49718874691E+02  0.19954525120E+02  0.54672862196E+02  0.00000000000E+00 0. -1.
         21    1    1    2  503  501  0.24749113395E+03  0.16844252500E+03  0.14490860327E+03  0.33260073499E+03  0.00000000000E+00 0.  1.
<mgrwt>
<rscale>  4 0.68850786E+03</rscale>
<asrwt>0</asrwt>
<pdfrwt beam="1">  1        1 0.15325671E+00 0.68850786E+03</pdfrwt>
<pdfrwt beam="2">  1       -1 0.21685433E-01 0.68850786E+03</pdfrwt>
<totfact> 0.27596218E+02</totfact>
</mgrwt>
</event>
<event>
 5    0  0.4025551E-002  0.5805178E+03  0.7546771E-02  0.9946671E-01
          2   -1    0    0  503    0  0.00000000000E+00  0.00000000000E+00  0.17887983063E+04  0.17887983063E+04  0.00000000000E+00 0. -1.
         -2   -1    0    0    0  501 -0.00000000000E+00 -0.00000000000E+00 -0.55228348655E+02  0.55228348655E+02  0.00000000000E+00 0.  1.
         25    1    1    2    0    0  0.24500611957E+03  0.88370023625E+01  0.11852356293E+04  0.12167639821E+04  0.12500000000E+03 0.  0.
         21    1    1    2  502  501 -0.26565154207E+03 -0.31407603530E+02  0.52340938491E+03  0.58780486862E+03  0.00000000000E+00 0.  1.
         21    1    1    2  503  502  0.20645422502E+02  0.22570601168E+02  0.24924943434E+02  0.39457804203E+02  0.00000000000E+00 0.  1.
<mgrwt>
<rscale>  4 0.58051783E+03</rscale>
<asrwt>0</asrwt>
<pdfrwt beam="1">  1        2 0.27519970E+00 0.58051783E+03</pdfrwt>
<pdfrwt beam="2">  1       -2 0.84966704E-02 0.58051783E+03</pdfrwt>
<totfact> 0.80423886E+02</totfact>
</mgrwt>
</event>
<event>
 5    0  0.4025551E-002  0.5403880E+03  0.7546771E-02  0.1003744E+00
          2   -1    0    0  503    0  0.00000000000E+00  0.00000000000E+00  0.37856142586E+03  0.37856142586E+03  0.00000000000E+00 0. -1.
         -2   -1    0    0    0  501 -0.00000000000E+00 -0.00000000000E+00 -0.32319013494E+03  0.32319013494E+03  0.00000000000E+00 0.  1.
         25    1    1    2    0    0 -0.64275022681E+02 -0.21656596108E+03  0.26195364708E+03  0.36779995549E+03  0.12500000000E+03 0.  0.
         21    1    1    2  502  501 -0.26899182453E+02  0.65340037922E+02 -0.11514668345E+03  0.13509865019E+03  0.00000000000E+00 0.  1.
         21    1    1    2  503  502  0.91174205134E+02  0.15122592315E+03 -0.91435672712E+02  0.19885295512E+03  0.00000000000E+00 0.  1.
<mgrwt>
<rscale>  4 0.54038795E+03</rscale>
<asrwt>0</asrwt>
<pdfrwt beam="1">  1        2 0.58240219E-01 0.54038795E+03</pdfrwt>
<pdfrwt beam="2">  1       -2 0.49721559E-01 0.54038795E+03</pdfrwt>
<totfact> 0.32832698E+02</totfact>
</mgrwt>
</event>
<event>
 5    0  0.4025551E-002  0.6191203E+03  0.7546771E-02  0.9866513E-01
          2   -1    0    0  502    0  0.00000000000E+00  0.00000000000E+00  0.46544088260E+02  0.46544088260E+02  0.00000000000E+00 0.  1.
         -2   -1    0    0    0  501 -0.00000000000E+00 -0.00000000000E+00 -0.22519128616E+04  0.22519128616E+04  0.00000000000E+00 0. -1.
         25    1    1    2    0    0  0.52682740892E+02 -0.23864790595E+03 -0.15942139697E+04  0.16176747125E+04  0.12500000000E+03 0.  0.
         21    1    1    2  502  503 -0.14686963751E+02 -0.23791267806E+02 -0.11342710196E+03  0.11682225297E+03  0.00000000000E+00 0. -1.
         21    1    1    2  503  501 -0.37995777140E+02  0.26243917376E+03 -0.49772770165E+03  0.56395998439E+03  0.00000000000E+00 0. -1.
<mgrwt>
<rscale>  4 0.61912034E+03</rscale>
<asrwt>0</asrwt>
<pdfrwt beam="1">  1        2 0.71606262E-02 0.61912034E+03</pdfrwt>
<pdfrwt beam="2">  1       -2 0.34644827E+00 0.61912034E+03</pdfrwt>
<totfact> 0.17942055E+01</totfact>
</mgrwt>
</event>
<event>
 5    0  0.4025551E-002  0.7665803E+03  0.7546771E-02  0.9609692E-01
          2   -1    0    0  502    0  0.00000000000E+00  0.00000000000E+00  0.12592331679E+04  0.12592331679E+04  0.00000000000E+00 0. -1.
         -2   -1    0    0    0  501 -0.00000000000E+00 -0.00000000000E+00 -0.25758335433E+03  0.25758335433E+03  0.00000000000E+00 0.  1.
         25    1    1    2    0    0 -0.13965972119E+03  0.29496998697E+03  0.48878111834E+03  0.60086946384E+03  0.12500000000E+03 0.  0.
         21    1    1    2  502  503  0.10506320878E+03 -0.15175115863E+03 -0.14941693159E+03  0.23747023272E+03  0.00000000000E+00 0. -1.
         21    1    1    2  503  501  0.34596512407E+02 -0.14321882833E+03  0.66228562680E+03  0.67847682564E+03  0.00000000000E+00 0. -1.
<mgrwt>
<rscale>  4 0.76658033E+03</rscale>
<asrwt>0</asrwt>
<pdfrwt beam="1">  1        2 0.19372818E+00 0.76658033E+03</pdfrwt>
<pdfrwt beam="2">  1       -2 0.39628209E-01 0.76658033E+03</pdfrwt>
<totfact> 0.10668286E+02</totfact>
</mgrwt>
</event>
<event>
 5    0  0.4025551E-002  0.4391861E+03  0.7546771E-02  0.1030997E+00
          1   -1    0    0  502    0  0.00000000000E+00  0.00000000000E+00  0.91387567424E+02  0.91387567424E+02  0.00000000000E+00 0. -1.
         -1   -1    0    0    0  501 -0.00000000000E+00 -0.00000000000E+00 -0.88150618208E+03  0.88150618208E+03  0.00000000000E+00 0.  1.
         25    1    1    2    0    0 -0.70645438820E+02  0.22541921623E+03 -0.29384869679E+03  0.39721109964E+03  0.12500000000E+03 0.  0.
         21    1    1    2  502  503  0.61527672754E+02 -0.53814173533E+02 -0.31692170990E+03  0.32729343102E+03  0.00000000000E+00 0. -1.
         21    1    1    2  503  501  0.91177660659E+01 -0.17160504269E+03 -0.17934820796E+03  0.24838921884E+03  0.00000000000E+00 0. -1.
<mgrwt>
<rscale>  4 0.43918613E+03</rscale>
<asrwt>0</asrwt>
<pdfrwt beam="1">  1        1 0.14059625E-01 0.43918613E+03</pdfrwt>
<pdfrwt beam="2">  1       -1 0.13561635E+00 0.43918613E+03</pdfrwt>
<totfact> 0.19730255E+02</totfact>
</mgrwt>
</event>
<event>
 5    0  0.4025551E-002  0.6810994E+03  0.7546771E-02  0.9750112E-01
          2   -1    0    0  502    0  0.00000000000E+00  0.00000000000E+00  0.10302974775E+04  0.10302974775E+04  0.00000000000E+00 0.  1.
         -2   -1    0    0    0  501 -0.00000000000E+00 -0.00000000000E+00 -0.11256371198E+03  0.11256371198E+03  0.00000000000E+00 0. -1.
         25    1    1    2    0    0 -0.41352715193E+02 -0.27173375429E+03  0.73482487713E+03  0.79444438466E+03  0.12500000000E+03 0.  0.
         21    1    1    2  502  503 -0.21438969717E+02  0.67254163095E+02  0.60140831957E+01  0.70844343972E+02  0.00000000000E+00 0.  1.
         21    1    1    2  503  501  0.62791684910E+02  0.20447959119E+03  0.17689480515E+03  0.27757246081E+03  0.00000000000E+00 0.  1.
<mgrwt>
<rscale>  4 0.68109943E+03</rscale>
<asrwt>0</asrwt>
<pdfrwt beam="1">  1        2 0.15850730E+00 0.68109943E+03</pdfrwt>
<pdfrwt beam="2">  1       -2 0.17317495E-01 0.68109943E+03</pdfrwt>
<totfact> 0.66541118E+02</totfact>
</mgrwt>
</event>
<event>
 5    0  0.4025551E-002  0.5381771E+03  0.7546771E-02  0.1004268E+00
          2   -1    0    0  502    0  0.00000000000E+00  0.00000000000E+00  0.15057753335E+03  0.15057753335E+03  0.00000000000E+00 0. -1.
         -2   -1    0    0    0  501 -0.00000000000E+00 -0.00000000000E+00 -0.48087280444E+03  0.48087280444E+03  0.00000000000E+00 0.  1.
         25    1    1    2    0    0 -0.12392141800E+03 -0.21594554209E+03 -0.16622991610E+03  0.32441698475E+03  0.12500000000E+03 0.  0.
         21    1    1    2  502  503  0.65560085236E+01  0.23375771442E+02 -0.47099819564E+02  0.52988686917E+02  0.00000000000E+00 0.  1.
         21    1    1    2  503  501  0.11736540948E+03  0.19256977064E+03 -0.11696553542E+03  0.25404466612E+03  0.00000000000E+00 0. -1.
<mgrwt>
<rscale>  4 0.53817707E+03</rscale>
<asrwt>0</asrwt>
<pdfrwt beam="1">  1        2 0.23165775E-01 0.53817707E+03</pdfrwt>
<pdfrwt beam="2">  1       -2 0.73980430E-01 0.53817707E+03</pdfrwt>
<totfact> 0.39785159E+02</totfact>
</mgrwt>
</event>
<event>
 5    0  0.4025551E-002  0.5263506E+03  0.7546771E-02  0.1007121E+00
         -1   -1    0    0    0  501 -0.00000000000E+00  0.00000000000E+00  0.13416849248E+03  0.13416849248E+03  0.00000000000E+00 0. -1.
          1   -1    0    0  502    0  0.00000000000E+00 -0.00000000000E+00 -0.51622589903E+03  0.51622589903E+03  0.00000000000E+00 0.  1.
         25    1    1    2    0    0 -0.71923900489E+02 -0.22916586135E+03 -0.25182039565E+03  0.36976823976E+03  0.12500000000E+03 0.  0.
         21    1    1    2  502  503  0.42858333625E+02  0.45309864638E+02 -0.29879555988E+02  0.69156405781E+02  0.00000000000E+00 0. -1.
         21    1    1    2  503  501  0.29065566864E+02  0.18385599671E+03 -0.10035745491E+03  0.21146974597E+03  0.00000000000E+00 0.  1.
<mgrwt>
<rscale>  4 0.52635065E+03</rscale>
<asrwt>0</asrwt>
<pdfrwt beam="1">  1        1 0.79419368E-01 0.52635065E+03</pdfrwt>
<pdfrwt beam="2">  1       -1 0.20641307E-01 0.52635065E+03</pdfrwt>
<totfact> 0.82740798E+02</totfact>
</mgrwt>
</event>
<event>
 5    0  0.4025551E-002  0.4160708E+03  0.7546771E-02  0.1038353E+00
          2   -1    0    0  503    0  0.00000000000E+00  0.00000000000E+00  0.28203767800E+04  0.28203767800E+04  0.00000000000E+00 0.  1.
         -2   -1    0    0    0  501 -0.00000000000E+00 -0.00000000000E+00 -0.35650721609E+02  0.35650721609E+02  0.00000000000E+00 0. -1.
         25    1    1    2    0    0 -0.48093492870E+01 -0.20690059906E+03  0.19106923037E+04  0.19259286247E+04  0.12500000000E+03 0.  0.
         21    1    1    2  502  501  0.33529933724E+02  0.16230724307E+03  0.85917648867E+03  0.87501550631E+03  0.00000000000E+00 0. -1.
         21    1    1    2  503  502 -0.28720584437E+02  0.44593355995E+02  0.14857266003E+02  0.55083370652E+02  0.00000000000E+00 0. -1.
<mgrwt>
<rscale>  4 0.41607078E+03</rscale>
<asrwt>0</asrwt>
<pdfrwt beam="1">  1        2 0.43390394E+00 0.41607078E+03</pdfrwt>
<pdfrwt beam="2">  1       -2 0.54847286E-02 0.41607078E+03</pdfrwt>
<totfact> 0.43835049E+02</totfact>
</mgrwt>
</event>
<event>
 5    0  0.4025551E-002  0.5481663E+03  0.7546771E-02  0.1001919E+00
          1   -1    0    0  502    0  0.00000000000E+00  0.00000000000E+00  0.10760985366E+03  0.10760985366E+03  0.00000000000E+00 0.  1.
         -1   -1    0    0    0  501 -0.00000000000E+00 -0.00000000000E+00 -0.69809195112E+03  0.69809195112E+03  0.00000000000E+00 0. -1.
         25    1    1    2    0    0  0.98147472878E+02  0.21458882987E+03 -0.17182634217E+03  0.31753831927E+03  0.12500000000E+03 0.  0.
         21    1    1    2  502  503  0.59711274868E+01 -0.43180953778E+02 -0.12646494897E+03  0.13376708284E+03  0.00000000000E+00 0.  1.
         21    1    1    2  503  501 -0.10411860036E+03 -0.17140787610E+03 -0.29219080632E+03  0.35439640267E+03  0.00000000000E+00 0. -1.
<mgrwt>
<rscale>  4 0.54816630E+03</rscale>
<asrwt>0</asrwt>
<pdfrwt beam="1">  1        1 0.16555362E-01 0.54816630E+03</pdfrwt>
<pdfrwt beam="2">  1       -1 0.10739876E+00 0.54816630E+03</pdfrwt>
<totfact> 0.27778234E+02</totfact>
</mgrwt>
</event>
<event>
 5    0  0.4025551E-002  0.4706193E+03  0.7546771E-02  0.1021746E+00
          2   -1    0    0  503    0  0.00000000000E+00  0.00000000000E+00  0.50010279223E+03  0.50010279223E+03  0.00000000000E+00 0.  1.
         -2   -1    0    0    0  501 -0.00000000000E+00 -0.00000000000E+00 -0.15009457652E+03  0.15009457652E+03  0.00000000000E+00 0. -1.
         25    1    1    2    0    0 -0.16488431626E+03 -0.13422188244E+03  0.22268552643E+03  0.33228932447E+03  0.12500000000E+03 0.  0.
         21    1    1    2  502  501  0.18828280880E+03  0.11913865917E+03  0.16049943923E+03  0.27459880952E+03  0.00000000000E+00 0. -1.
         21    1    1    2  503  502 -0.23398492543E+02  0.15083223271E+02 -0.33176749959E+02  0.43309234759E+02  0.00000000000E+00 0. -1.
<mgrwt>
<rscale>  4 0.47061926E+03</rscale>
<asrwt>0</asrwt>
<pdfrwt beam="1">  1        2 0.76938890E-01 0.47061926E+03</pdfrwt>
<pdfrwt beam="2">  1       -2 0.23091474E-01 0.47061926E+03</pdfrwt>
<totfact> 0.10211006E+03</totfact>
</mgrwt>
</event>
<event>
 5    0  0.4025551E-002  0.4335936E+03  0.7546771E-02  0.1032731E+00
         -2   -1    0    0    0  501 -0.00000000000E+00  0.00000000000E+00  0.19965965612E+03  0.19965965612E+03  0.00000000000E+00 0. -1.
          2   -1    0    0  502    0  0.00000000000E+00 -0.00000000000E+00 -0.27016402741E+03  0.27016402741E+03  0.00000000000E+00 0.  1.
         25    1    1    2    0    0 -0.82687706467E+02  0.18755134088E+03 -0.63501654492E+01  0.24016262588E+03  0.12500000000E+03 0.  0.
         21    1    1    2  502  503  0.27378804111E+02 -0.85807249428E+01  0.65664713218E+01  0.29433761240E+02  0.00000000000E+00 0. -1.
         21    1    1    2  503  501  0.55308902356E+02 -0.17897061594E+03 -0.70720677159E+02  0.20022729641E+03  0.00000000000E+00 0.  1.
<mgrwt>
<rscale>  4 0.43359355E+03</rscale>
<asrwt>0</asrwt>
<pdfrwt beam="1">  1        2 0.41563696E-01 0.43359355E+03</pdfrwt>
<pdfrwt beam="2">  1       -2 0.30716870E-01 0.43359355E+03</pdfrwt>
<totfact> 0.12075975E+03</totfact>
</mgrwt>
</event>
<event>
 5    0  0.4025551E-002  0.9843923E+03  0.7546771E-02  0.9325831E-01
         -2   -1    0    0    0  501 -0.00000000000E+00  0.00000000000E+00  0.48858680336E+03  0.48858680336E+03  0.00000000000E+00 0.  1.
          2   -1    0    0  502    0  0.00000000000E+00 -0.00000000000E+00 -0.68409507553E+03  0.68409507553E+03  0.00000000000E+00 0. -1.
         25    1    1    2    0    0 -0.22514388511E+03 -0.24260013577E+03  0.22290306378E+03  0.41815711248E+03  0.12500000000E+03 0.  0.
         21    1    1    2  502  503  0.56658674034E+02  0.37491024416E+01  0.12510971780E+03  0.13739251289E+03  0.00000000000E+00 0.  1.
         21    1    1    2  503  501  0.16848521108E+03  0.23885103332E+03 -0.54352105374E+03  0.61713225352E+03  0.00000000000E+00 0. -1.
<mgrwt>
<rscale>  4 0.98439229E+03</rscale>
<asrwt>0</asrwt>
<pdfrwt beam="1">  1        2 0.10524540E+00 0.98439229E+03</pdfrwt>
<pdfrwt beam="2">  1       -2 0.75167201E-01 0.98439229E+03</pdfrwt>
<totfact> 0.66911716E+01</totfact>
</mgrwt>
</event>
<event>
 5    0  0.4025551E-002  0.6103898E+03  0.7546771E-02  0.9884082E-01
          3   -1    0    0  502    0  0.00000000000E+00  0.00000000000E+00  0.16273578307E+03  0.16273578307E+03  0.00000000000E+00 0.  1.
         -3   -1    0    0    0  501 -0.00000000000E+00 -0.00000000000E+00 -0.12706728275E+04  0.12706728275E+04  0.00000000000E+00 0. -1.
         25    1    1    2    0    0 -0.21812444208E+03 -0.17431236840E+03 -0.36711704206E+03  0.47787341062E+03  0.12500000000E+03 0.  0.
         21    1    1    2  502  503  0.32819036010E+02  0.27416569047E+03 -0.68381002844E+03  0.73745513081E+03  0.00000000000E+00 0. -1.
         21    1    1    2  503  501  0.18530540607E+03 -0.99853322079E+02 -0.57009973978E+02  0.21808006920E+03  0.00000000000E+00 0. -1.
<mgrwt>
<rscale>  4 0.61038984E+03</rscale>
<asrwt>0</asrwt>
<pdfrwt beam="1">  1        3 0.25036273E-01 0.61038984E+03</pdfrwt>
<pdfrwt beam="2">  1       -3 0.19548814E+00 0.61038984E+03</pdfrwt>
<totfact> 0.62990648E+00</totfact>
</mgrwt>
</event>
<event>
 5    0  0.4025551E-002  0.1461433E+04  0.7546771E-02  0.8910513E-01
          2   -1    0    0  502    0  0.00000000000E+00  0.00000000000E+00  0.12391463795E+04  0.12391463795E+04  0.00000000000E+00 0. -1.
         -2   -1    0    0    0  501 -0.00000000000E+00 -0.00000000000E+00 -0.51383077261E+03  0.51383077261E+03  0.00000000000E+00 0.  1.
         25    1    1    2    0    0  0.17095119237E+03 -0.20082846283E+03  0.11015797153E+04  0.11395873160E+04  0.12500000000E+03 0.  0.
         21    1    1    2  502  503 -0.11183708985E+03  0.80173517434E+02 -0.44263608785E+03  0.46353212816E+03  0.00000000000E+00 0.  1.
         21    1    1    2  503  501 -0.59114102524E+02  0.12065494539E+03  0.66371979404E+02  0.14985770789E+03  0.00000000000E+00 0.  1.
<mgrwt>
<rscale>  4 0.14614326E+04</rscale>
<asrwt>0</asrwt>
<pdfrwt beam="1">  1        2 0.19063790E+00 0.14614326E+04</pdfrwt>
<pdfrwt beam="2">  1       -2 0.79050889E-01 0.14614326E+04</pdfrwt>
<totfact> 0.24624328E+01</totfact>
</mgrwt>
</event>
<event>
 5    0  0.4025551E-002  0.4186643E+03  0.7546771E-02  0.1037502E+00
         -2   -1    0    0    0  501 -0.00000000000E+00  0.00000000000E+00  0.13756397361E+03  0.13756397361E+03  0.00000000000E+00 0.  1.
          2   -1    0    0  503    0  0.00000000000E+00 -0.00000000000E+00 -0.46344042930E+03  0.46344042930E+03  0.00000000000E+00 0. -1.
         25    1    1    2    0    0  0.10626942774E+03 -0.18504086482E+03 -0.13221136363E+03  0.28042495894E+03  0.12500000000E+03 0.  0.
         21    1    1    2  502  501 -0.94728945913E+02  0.12321574678E+03 -0.20439861993E+03  0.25677711985E+03  0.00000000000E+00 0. -1.
         21    1    1    2  503  502 -0.11540481825E+02  0.61825118040E+02  0.10733527879E+02  0.63802324112E+02  0.00000000000E+00 0.  1.
<mgrwt>
<rscale>  4 0.41866430E+03</rscale>
<asrwt>0</asrwt>
<pdfrwt beam="1">  1        2 0.71298527E-01 0.41866430E+03</pdfrwt>
<pdfrwt beam="2">  1       -2 0.21163688E-01 0.41866430E+03</pdfrwt>
<totfact> 0.12973063E+03</totfact>
</mgrwt>
</event>
<event>
 5    0  0.4025551E-002  0.1893155E+04  0.7546771E-02  0.8658271E-01
          2   -1    0    0  503    0  0.00000000000E+00  0.00000000000E+00  0.53400567370E+03  0.53400567370E+03  0.00000000000E+00 0.  1.
         -2   -1    0    0    0  501 -0.00000000000E+00 -0.00000000000E+00 -0.18406035892E+04  0.18406035892E+04  0.00000000000E+00 0. -1.
         25    1    1    2    0    0 -0.87031391100E+03 -0.23281156809E+03 -0.32025074244E+03  0.96427852198E+03  0.12500000000E+03 0.  0.
         21    1    1    2  502  501 -0.16701065331E+02  0.72915891387E+02 -0.82339391717E+00  0.74808627695E+02  0.00000000000E+00 0.  1.
         21    1    1    2  503  502  0.88701497633E+03  0.15989567670E+03 -0.98552377913E+03  0.13355221132E+04  0.00000000000E+00 0. -1.
<mgrwt>
<rscale>  4 0.18931550E+04</rscale>
<asrwt>0</asrwt>
<pdfrwt beam="1">  1        2 0.82154719E-01 0.18931550E+04</pdfrwt>
<pdfrwt beam="2">  1       -2 0.28316978E+00 0.18931550E+04</pdfrwt>
<totfact> 0.21483284E+00</totfact>
</mgrwt>
</event>
<event>
 5    0  0.4025551E-002  0.7601396E+03  0.7546771E-02  0.9619576E-01
         -2   -1    0    0    0  501 -0.00000000000E+00  0.00000000000E+00  0.65248451609E+02  0.65248451609E+02  0.00000000000E+00 0. -1.
          2   -1    0    0  503    0  0.00000000000E+00 -0.00000000000E+00 -0.22138922594E+04  0.22138922594E+04  0.00000000000E+00 0.  1.
         25    1    1    2    0    0  0.11508606093E+03 -0.18491613889E+03 -0.19806373837E+04  0.19964939833E+04  0.12500000000E+03 0.  0.
         21    1    1    2  502  501 -0.10751461669E+03  0.11872153832E+03 -0.10996434779E+03  0.19428420998E+03  0.00000000000E+00 0. -1.
         21    1    1    2  503  502 -0.75714442469E+01  0.66194600575E+02 -0.58042076350E+02  0.88362517734E+02  0.00000000000E+00 0. -1.
<mgrwt>
<rscale>  4 0.76013957E+03</rscale>
<asrwt>0</asrwt>
<pdfrwt beam="1">  1        2 0.34059885E+00 0.76013957E+03</pdfrwt>
<pdfrwt beam="2">  1       -2 0.10038222E-01 0.76013957E+03</pdfrwt>
<totfact> 0.35581514E+02</totfact>
</mgrwt>
</event>
