<LesHouchesEvents version="3.0">
  <!--
  <scalesfunctionalform>
    muR  H_T/2 := sum_i mT(i)/2, i=final state
    muF1 H_T/2 := sum_i mT(i)/2, i=final state
    muF2 H_T/2 := sum_i mT(i)/2, i=final state
    QES  H_T/2 := sum_i mT(i)/2, i=final state
  </scalesfunctionalform>
HERWIG6   
  -->
  <header>
       83
  </header>
  <init>
   2212   2212 0.65000000D+04 0.65000000D+04 -1 -1   244800   244800 -4   1
 0.81467850D-04 0.53213442D-05 0.19594695D-05     66
  </init>
  <event>
  5     66 -.19594695E-05 0.29911454E+02 0.75467711E-02 0.93283613E-01
        2 -1    0    0  502    0 0.00000000E+00 0.00000000E+00 0.75881916E+03 0.75881923E+03 0.32000000E+00 0.0000E+00 0.9000E+01
       -1 -1    0    0    0  501 0.00000000E+00 0.00000000E+00 -.52085277E+03 0.52085287E+03 0.32000000E+00 0.0000E+00 0.9000E+01
       25  1    1    2    0    0 -.33757482E+03 0.44220323E+03 0.16755331E+03 0.59430596E+03 0.12500000E+03 0.0000E+00 0.9000E+01
        2  1    1    2  502    0 0.12620959E+02 -.27183032E+02 0.14940157E+03 0.15237828E+03 0.32000000E+00 0.0000E+00 0.9000E+01
       -1  1    1    2    0  501 0.32495386E+03 -.41502020E+03 -.78988498E+02 0.53298786E+03 0.32000000E+00 0.0000E+00 0.9000E+01
#aMCatNLO 1  0  0  4  1 0.28356863D+01 0.00000000D+00  -5  6  0 0.00000000D+00 0.00000000D+00 0.00000000D+00 0.00000000D+00 0.00000000D+00
  <mgrwgt>
 -.8325929732D-02    9    2    0
 0.628675725632957D+03 0.000000000000000D+00 0.000000000000000D+00 0.628675725632957D+03
 0.628675725632957D+03 -.000000000000000D+00 -.000000000000000D+00 -.628675725632957D+03
 0.573261672606824D+03 -.337642974542452D+03 0.442277744509563D+03 0.582371336316683D+02
 0.126559093738422D+03 0.125962692251482D+02 -.271298554408785D+02 0.122973611613449D+03
 0.557530684920668D+03 0.325046705317303D+03 -.415147889068684D+03 -.181210745245117D+03
 0.000000000000000D+00 0.000000000000000D+00 0.000000000000000D+00 0.000000000000000D+00
 0.628675725632957D+03 0.000000000000000D+00 0.000000000000000D+00 0.628675725632957D+03
 0.628675725632957D+03 -.000000000000000D+00 -.000000000000000D+00 -.628675725632957D+03
 0.573252891727554D+03 -.337635996054998D+03 0.442262714237310D+03 0.583052625189189D+02
 0.369764937642267D+02 0.596884132425004D+01 -.945837452201761D+01 0.352444772374774D+02
 0.557523994773382D+03 0.325053492317953D+03 -.415162506916493D+03 -.181144485786306D+03
 0.895980710007510D+02 0.661366241279466D+01 -.176418327987988D+02 0.875947460299100D+02
0.677953852160D-05 0.000000000000D+00 0.000000000000D+00 0.270371642601D-06 0.000000000000D+00  6 2 -1 25 2 -1 21 0 0.11674142D+00 0.80131208D-01 0.31779565D+06 0.31779565D+06 0.31779565D+06 0.10827051D+01  1  2  2  3  6  4        2 0.551779101122D-04 0.100000000000D+01
0.230398186416D-05 0.000000000000D+00 -.260352130164D-07 0.270371642601D-06 0.000000000000D+00  6 2 -1 25 2 -1 21 2 0.11674142D+00 0.80131208D-01 0.31779565D+06 0.31779565D+06 0.31779565D+06 0.10827051D+01  1  2  3  3  6  4        2 0.219818659361D-04 0.100000000000D+01
-.533234820455D-05 0.000000000000D+00 0.000000000000D+00 0.270371642601D-06 0.000000000000D+00  6 2 -1 25 2 -1 21 2 0.11674142D+00 0.80131208D-01 0.31779565D+06 0.31779565D+06 0.31779565D+06 0.10827051D+01  1  2 15  3  6  4        2 -.508749505281D-04 0.100000000000D+01
0.638279209617D-08 0.000000000000D+00 0.000000000000D+00 0.270371642601D-06 0.000000000000D+00  6 2 -1 25 2 -1 21 2 0.11674142D+00 0.80131208D-01 0.31785964D+06 0.31785964D+06 0.31785964D+06 0.10826987D+01  1  2 12  3  6  4        2 0.608958878253D-07 0.100000000000D+01
0.263726252825D-05 0.000000000000D+00 0.000000000000D+00 0.270371642601D-06 0.000000000000D+00  6 2 -1 25 2 -1 21 2 0.11674142D+00 0.80131208D-01 0.31785964D+06 0.31785964D+06 0.31785964D+06 0.10826987D+01  1  2 12  3  6  4        2 0.251611584188D-04 0.100000000000D+01
-.165656463043D-02 0.000000000000D+00 0.000000000000D+00 0.270371642601D-06 0.000000000000D+00  6 2 -1 25 2 -1 21 2 0.11674142D+00 0.80131208D-01 0.31779565D+06 0.31779565D+06 0.31779565D+06 0.10827051D+01  1  2  4  3  6  4        2 -.158049775421D-01 0.100000000000D+01
-.237602815616D-03 0.000000000000D+00 0.000000000000D+00 0.270371642601D-06 0.000000000000D+00  6 2 -1 25 2 -1 21 2 0.11674142D+00 0.80131208D-01 0.31779565D+06 0.31779565D+06 0.31779565D+06 0.10827051D+01  1  2  5  3  6  4        2 -.226692463172D-02 0.100000000000D+01
0.719872023300D-03 0.000000000000D+00 -.000000000000D+00 0.270371642601D-06 0.000000000000D+00  6 2 -1 25 2 -1 21 2 0.11674142D+00 0.80131208D-01 0.31779565D+06 0.31779565D+06 0.31779565D+06 0.10827051D+01  1  2  6  3  6  4        2 0.686816617503D-02 0.100000000000D+01
0.296238088234D-03 0.000000000000D+00 0.000000000000D+00 0.270371642601D-06 0.420535724741D-07  6 2 -1 25 2 -1 21 2 0.11674142D+00 0.80131208D-01 0.31785964D+06 0.31785964D+06 0.31785964D+06 0.10826987D+01  1  2 11  3  6  4        2 0.282629938730D-02 0.100000000000D+01
  </mgrwgt>
  </event>
  <event>
  5     66 -.19594695E-05 0.22328291E+02 0.75467711E-02 0.95173560E-01
        2 -1    0    0  502    0 0.00000000E+00 0.00000000E+00 0.78746996E+03 0.78747002E+03 0.32000000E+00 0.0000E+00 0.9000E+01
       -1 -1    0    0    0  501 -.00000000E+00 -.00000000E+00 -.10862786E+04 0.10862786E+04 0.32000000E+00 0.0000E+00 0.9000E+01
       25  1    1    2    0    0 -.27007976E+03 0.36331198E+03 -.19959716E+03 0.51029668E+03 0.12500000E+03 0.0000E+00 0.9000E+01
        2  1    1    2  502    0 -.21453699E+02 -.61973213E+01 0.55922599E+03 0.55967176E+03 0.32000000E+00 0.0000E+00 0.9000E+01
       -1  1    1    2    0  501 0.29153346E+03 -.35711466E+03 -.65843745E+03 0.80378020E+03 0.32000000E+00 0.0000E+00 0.9000E+01
#aMCatNLO 1  0  0  5  2 0.84536720D+02 0.00000000D+00  -5  6  0 0.00000000D+00 0.00000000D+00 0.00000000D+00 0.00000000D+00 0.00000000D+00
  <mgrwgt>
 -.1633553588D-02    1    2    0
 0.924884773713958D+03 0.000000000000000D+00 0.000000000000000D+00 0.924884773713958D+03
 0.924884773713958D+03 -.000000000000000D+00 -.000000000000000D+00 -.924884773713958D+03
 0.484719672839470D+03 -.270123294855424D+03 0.363364217799644D+03 -.119699674339177D+03
 0.657187218587296D+03 -.214512162875990D+02 -.619660407580811D+01 0.656807801180997D+03
 0.707862656001149D+03 0.291574511143023D+03 -.357167613723836D+03 -.537108126841820D+03
 0.000000000000000D+00 0.000000000000000D+00 0.000000000000000D+00 0.000000000000000D+00
 0.924884773713958D+03 0.000000000000000D+00 0.000000000000000D+00 0.924884773713958D+03
 0.924884773713958D+03 -.000000000000000D+00 -.000000000000000D+00 -.924884773713958D+03
 0.470303693629113D+03 -.254812814465919D+03 0.344609465457788D+03 -.147903043045237D+03
 0.619884111145258D+03 -.977816121307441D+00 -.312757354907645D+02 0.619093840621509D+03
 0.598039808725864D+03 0.104777225435120D+03 -.280059032324755D+03 -.517919187001512D+03
 0.161541933927681D+03 0.151013405152106D+03 -.332746976422683D+02 0.467283894252394D+02
-.106441664348D-02 0.000000000000D+00 0.000000000000D+00 0.244959672447D-04 0.000000000000D+00  6 2 -1 25 2 -1 21 2 0.12114923D+00 0.16711979D+00 0.22710208D+06 0.22710208D+06 0.22710208D+06 0.10936116D+01  1  2 14  4  6  5       -1 -.163355358760D-02 0.100000000000D+01
  </mgrwgt>
  </event>
  <event>
  5     66 -.19594695E-05 0.11302694E+02 0.75467711E-02 0.94399838E-01
        2 -1    0    0  502    0 0.00000000E+00 0.00000000E+00 0.92309201E+03 0.92309206E+03 0.32000000E+00 0.0000E+00 0.9000E+01
       -1 -1    0    0    0  501 0.00000000E+00 0.00000000E+00 -.31027049E+03 0.31027065E+03 0.32000000E+00 0.0000E+00 0.9000E+01
       25  1    1    2    0    0 0.23923249E+03 -.43275458E+03 0.33078540E+03 0.60790845E+03 0.12500000E+03 0.0000E+00 0.9000E+01
        2  1    1    2  502    0 0.20370182E+01 0.11167337E+02 0.10933463E+03 0.10992281E+03 0.32000000E+00 0.0000E+00 0.9000E+01
       -1  1    1    2    0  501 -.24126951E+03 0.42158724E+03 0.17270149E+03 0.51553146E+03 0.32000000E+00 0.0000E+00 0.9000E+01
#aMCatNLO 1  0  0  2  2 0.12828632D+02 0.00000000D+00  -5  6  0 0.00000000D+00 0.00000000D+00 0.00000000D+00 0.00000000D+00 0.00000000D+00
  <mgrwgt>
 -.2481281484D-02    7    4    0
 0.535171322652495D+03 0.000000000000000D+00 0.000000000000000D+00 0.535171322652495D+03
 0.535171322652495D+03 0.000000000000000D+00 0.000000000000000D+00 -.535171322652495D+03
 0.511240559805498D+03 0.239310420072335D+03 -.432855965507189D+03 0.332888263518142D+02
 0.637887211777385D+02 0.202824198523356D+01 0.111192234915964D+02 0.627793760154124D+02
 0.495313364321754D+03 -.241338662057568D+03 0.421736742015592D+03 -.960682023672265D+02
 0.000000000000000D+00 -.000000000000000D+00 0.000000000000000D+00 -.000000000000000D+00
 0.535383793972745D+03 0.000000000000000D+00 0.000000000000000D+00 0.535383793972745D+03
 0.771621296718506D+03 0.000000000000000D+00 0.000000000000000D+00 -.771621296718506D+03
 0.515447154012271D+03 0.245231486590340D+03 -.434527491194931D+03 0.332888263518142D+02
 0.637804907636123D+02 0.276395332120106D+01 0.109115311116691D+02 0.627793760154124D+02
 0.491191876799170D+03 -.235649334061894D+03 0.420130636449671D+03 -.960682023672265D+02
 0.236585569116198D+03 -.123461058496472D+02 0.348532363359035D+01 -.236237502745761D+03
 0.535171322652495D+03 0.000000000000000D+00 0.000000000000000D+00 0.535171322652495D+03
 0.535171322652495D+03 0.000000000000000D+00 0.000000000000000D+00 -.535171322652495D+03
 0.511240559805498D+03 0.239310420072335D+03 -.432855965507189D+03 0.332888263518142D+02
 0.637887211777385D+02 0.202824198523356D+01 0.111192234915964D+02 0.627793760154124D+02
 0.000000000000000D+00 -.000000000000000D+00 0.000000000000000D+00 -.000000000000000D+00
 0.495313364321754D+03 -.241338662057568D+03 0.421736742015592D+03 -.960682023672265D+02
 0.535383793972745D+03 0.000000000000000D+00 0.000000000000000D+00 0.535383793972745D+03
 0.771621296718506D+03 0.000000000000000D+00 0.000000000000000D+00 -.771621296718506D+03
 0.515447154012271D+03 0.245231486590340D+03 -.434527491194931D+03 0.332888263518142D+02
 0.637804907636123D+02 0.276395332120106D+01 0.109115311116691D+02 0.627793760154124D+02
 0.236585569116198D+03 -.123461058496472D+02 0.348532363359035D+01 -.236237502745761D+03
 0.491191876799170D+03 -.235649334061894D+03 0.420130636449671D+03 -.960682023672265D+02
0.381542196704D-06 0.000000000000D+00 0.000000000000D+00 0.177493552241D-06 0.000000000000D+00  6 2 -1 25 2 -1 21 0 0.14201417D+00 0.47733938D-01 0.25369654D+06 0.25369654D+06 0.25369654D+06 0.10899799D+01  1  2  2  2  6  2       -1 0.650705506960D-05 0.100000000000D+01
0.195905414728D-06 0.000000000000D+00 -.146522249771D-08 0.177493552241D-06 0.000000000000D+00  6 2 -1 25 2 -1 21 2 0.14201417D+00 0.47733938D-01 0.25369654D+06 0.25369654D+06 0.25369654D+06 0.10899799D+01  1  2  3  2  6  2       -1 0.396940403429D-05 0.100000000000D+01
-.274578230117D-06 0.000000000000D+00 0.000000000000D+00 0.177493552241D-06 0.000000000000D+00  6 2 -1 25 2 -1 21 2 0.14201417D+00 0.47733938D-01 0.25369654D+06 0.25369654D+06 0.25369654D+06 0.10899799D+01  1  2 15  2  6  2       -1 -.556345997821D-05 0.100000000000D+01
-.164856304402D-03 0.000000000000D+00 0.000000000000D+00 0.177493552241D-06 0.000000000000D+00  6 2 -1 25 2 -1 21 2 0.14201417D+00 0.47733938D-01 0.25369654D+06 0.25369654D+06 0.25369654D+06 0.10899799D+01  1  2  4  2  6  2       -1 -.334029194998D-02 0.100000000000D+01
-.166838951098D-03 0.000000000000D+00 -.352808207097D-06 0.177493552241D-06 0.000000000000D+00  6 2 -1 25 2 -1 21 2 0.14201417D+00 0.68834301D-01 0.25369654D+06 0.25369654D+06 0.25369654D+06 0.10899799D+01  1  2  5  2  6  2       -1 -.170431747912D-02 0.100000000000D+01
0.156394551621D-03 0.000000000000D+00 0.330421705716D-06 0.177493552241D-06 0.000000000000D+00  6 2 -1 25 2 -1 21 2 0.14201417D+00 0.47733938D-01 0.25369654D+06 0.25369654D+06 0.25369654D+06 0.10899799D+01  1  2  6  2  6  2       -1 0.316884127480D-02 0.100000000000D+01
-.743409271642D-05 0.000000000000D+00 -.157431119353D-07 0.177493552241D-06 0.000000000000D+00  6 2 21 25 2 1 -1 2 0.14201417D+00 0.68834301D-01 0.25369654D+06 0.25369654D+06 0.25369654D+06 0.10899799D+01  3  4  5  6  5  2       -1 -.610426329092D-03 0.100000000000D+01
  </mgrwgt>
  </event>
  <event>
  5     66 0.19594695E-05 0.79200614E+02 0.75467711E-02 0.93150572E-01
        2 -1    0    0  502    0 0.00000000E+00 0.00000000E+00 0.29572340E+04 0.29572341E+04 0.32000000E+00 0.0000E+00 0.9000E+01
       -1 -1    0    0    0  501 0.00000000E+00 0.00000000E+00 -.26136627E+03 0.26136646E+03 0.32000000E+00 0.0000E+00 0.9000E+01
       25  1    1    2    0    0 0.21129366E+03 0.44789211E+03 0.62964761E+03 0.81076104E+03 0.12500000E+03 0.0000E+00 0.9000E+01
        2  1    1    2  502    0 0.79013644E+02 -.56589423E+01 0.18245077E+04 0.18262266E+04 0.32000000E+00 0.0000E+00 0.9000E+01
       -1  1    1    2    0  501 -.29030730E+03 -.44223317E+03 0.24171246E+03 0.58161286E+03 0.32000000E+00 0.0000E+00 0.9000E+01
#aMCatNLO 1  0  0  1  2 0.24797467D+02 0.00000000D+00  -5  6  0 0.00000000D+00 0.00000000D+00 0.00000000D+00 0.00000000D+00 0.00000000D+00
  <mgrwgt>
 0.3054812539D-02    9    2    0
 0.879159577768898D+03 0.000000000000000D+00 0.000000000000000D+00 0.879159577768898D+03
 0.879159577768898D+03 0.000000000000000D+00 0.000000000000000D+00 -.879159577768898D+03
 0.518789625387188D+03 0.211346357358116D+03 0.447964092902245D+03 -.904354140318036D+02
 0.545450208558100D+03 0.789982664814989D+02 -.565784096794386D+01 0.539669521785856D+03
 0.694079321592508D+03 -.290344623839615D+03 -.442306251934301D+03 -.449234107754052D+03
 0.000000000000000D+00 0.000000000000000D+00 0.000000000000000D+00 0.000000000000000D+00
 0.952930152508960D+03 0.000000000000000D+00 0.000000000000000D+00 0.952930152508960D+03
 0.881333349340908D+03 0.000000000000000D+00 0.000000000000000D+00 -.881333349340908D+03
 0.512693107387662D+03 0.205492340831531D+03 0.443648009249778D+03 -.904354140318036D+02
 0.544655071228299D+03 0.728115469942809D+02 -.102192218113212D+02 0.539669521785856D+03
 0.701145826803609D+03 -.298263002710626D+03 -.448144360768467D+03 -.449234107754052D+03
 0.757694964302971D+02 0.199591148848145D+02 0.147155733300104D+02 0.715968031680512D+02
0.157105119980D-03 0.000000000000D+00 0.000000000000D+00 0.218916080980D-05 0.000000000000D+00  6 2 -1 25 2 -1 21 0 0.45495910D+00 0.40210211D-01 0.31311621D+06 0.31311621D+06 0.31311621D+06 0.10831796D+01  1  2  2  1  6  1        2 0.246058701123D-03 0.100000000000D+01
0.434380422125D-04 0.000000000000D+00 -.603325027452D-06 0.218916080980D-05 0.000000000000D+00  6 2 -1 25 2 -1 21 2 0.45495910D+00 0.40210211D-01 0.31311621D+06 0.31311621D+06 0.31311621D+06 0.10831796D+01  1  2  3  1  6  1        2 0.798214419113D-04 0.100000000000D+01
-.108473368044D-03 0.000000000000D+00 0.000000000000D+00 0.218916080980D-05 0.000000000000D+00  6 2 -1 25 2 -1 21 2 0.45495910D+00 0.40210211D-01 0.31311621D+06 0.31311621D+06 0.31311621D+06 0.10831796D+01  1  2 15  1  6  1        2 -.199329900826D-03 0.100000000000D+01
0.678558730518D-07 0.000000000000D+00 0.000000000000D+00 0.218916080980D-05 0.000000000000D+00  6 2 -1 25 2 -1 21 2 0.49367028D+00 0.40210211D-01 0.32564257D+06 0.32564257D+06 0.32564257D+06 0.10819263D+01  1  2 12  1  6  1        2 0.853953314972D-07 0.100000000000D+01
-.256371666212D-03 0.000000000000D+00 0.000000000000D+00 0.218916080980D-05 0.000000000000D+00  6 2 -1 25 2 -1 21 2 0.45495910D+00 0.40210211D-01 0.31311621D+06 0.31311621D+06 0.31311621D+06 0.10831796D+01  1  2  4  1  6  1        2 -.471106776915D-03 0.100000000000D+01
-.595893405400D-02 0.000000000000D+00 -.299046010791D-03 0.218916080980D-05 0.000000000000D+00  6 2 -1 25 2 -1 21 2 0.49343544D+00 0.40210211D-01 0.31311621D+06 0.31311621D+06 0.31311621D+06 0.10831796D+01  1  2  5  1  6  1        2 -.755576365040D-02 0.100000000000D+01
0.596452807705D-02 0.000000000000D+00 0.298063214976D-03 0.218916080980D-05 0.000000000000D+00  6 2 -1 25 2 -1 21 2 0.45495910D+00 0.40210211D-01 0.31311621D+06 0.31311621D+06 0.31311621D+06 0.10831796D+01  1  2  6  1  6  1        2 0.109603749889D-01 0.100000000000D+01
0.982972252502D-09 0.000000000000D+00 0.000000000000D+00 0.218916080980D-05 0.000000000000D+00  6 21 -1 25 2 -1 -2 2 0.49367028D+00 0.40210211D-01 0.32564257D+06 0.32564257D+06 0.32564257D+06 0.10819263D+01  1  2 12  5  6  1        2 0.636897921730D-10 0.100000000000D+01
-.812938680669D-04 0.000000000000D+00 -.404678618626D-05 0.218916080980D-05 0.000000000000D+00  6 21 -1 25 2 -1 -2 2 0.49343544D+00 0.40210211D-01 0.31311621D+06 0.31311621D+06 0.31311621D+06 0.10831796D+01  1  2  5  5  6  1        2 -.532772358219D-05 0.100000000000D+01
  </mgrwgt>
  </event>
  <event>
  5     66 0.19594695E-05 0.12184507E+03 0.75467711E-02 0.93268430E-01
        2 -1    0    0  502    0 0.00000000E+00 0.00000000E+00 0.16634672E+04 0.16634673E+04 0.32000000E+00 0.0000E+00 0.9000E+01
       -1 -1    0    0    0  501 0.00000000E+00 0.00000000E+00 -.11511231E+04 0.11511232E+04 0.32000000E+00 0.0000E+00 0.9000E+01
       25  1    1    2    0    0 0.90669819E+02 0.47373685E+03 0.18278960E+03 0.53073973E+03 0.12500000E+03 0.0000E+00 0.9000E+01
        2  1    1    2  502    0 0.10534360E+03 -.61244096E+02 0.12502159E+04 0.12561401E+04 0.32000000E+00 0.0000E+00 0.9000E+01
       -1  1    1    2    0  501 -.19601342E+03 -.41249275E+03 -.92066138E+03 0.10277106E+04 0.32000000E+00 0.0000E+00 0.9000E+01
#aMCatNLO 1  0  0  5  4 0.38535332D+02 0.00000000D+00  -5  6  0 0.00000000D+00 0.00000000D+00 0.00000000D+00 0.00000000D+00 0.00000000D+00
  <mgrwgt>
 0.5287170670D-03    7    2    0
 0.138378310353445D+04 0.000000000000000D+00 0.000000000000000D+00 0.138378310353445D+04
 0.138378310353445D+04 -.000000000000000D+00 -.000000000000000D+00 -.138378310353445D+04
 0.505970507730992D+03 0.906939705983486D+02 0.473775662621453D+03 0.877062135670390D+02
 0.104597123961161D+04 0.105336890983303D+03 -.612401949278331D+02 0.103885013934533D+04
 0.121562445972630D+04 -.196030861581651D+03 -.412535467693619D+03 -.112655635291237D+04
 0.000000000000000D+00 0.000000000000000D+00 0.000000000000000D+00 -.000000000000000D+00
 0.138378310353445D+04 0.000000000000000D+00 0.000000000000000D+00 0.138378310353445D+04
 0.138378310353445D+04 -.000000000000000D+00 -.000000000000000D+00 -.138378310353445D+04
 0.503536539979270D+03 0.899148164432213D+02 0.472135978332982D+03 0.832285458351592D+02
 0.103683965002161D+04 0.103729343257229D+03 -.646231849716710D+02 0.102961183325003D+04
 0.118547407669273D+04 -.212262871475619D+03 -.430945068937414D+03 -.108378023946828D+04
 0.417159403752948D+02 0.186187117751688D+02 0.234322755761035D+02 -.290601396169028D+02
0.210702177447D-02 0.000000000000D+00 0.000000000000D+00 0.274202794522D-04 0.000000000000D+00  6 2 -1 25 2 -1 21 0 0.25591804D+00 0.17709587D+00 0.28992753D+06 0.28992753D+06 0.28992753D+06 0.10856509D+01  1  2  2  4  6  5       -1 0.671031010340D-03 0.100000000000D+01
0.451389056536D-03 0.000000000000D+00 -.809151840554D-05 0.274202794522D-04 0.000000000000D+00  6 2 -1 25 2 -1 21 2 0.25591804D+00 0.17709587D+00 0.28992753D+06 0.28992753D+06 0.28992753D+06 0.10856509D+01  1  2  3  4  6  5       -1 0.169435723867D-03 0.100000000000D+01
-.143825291387D-02 0.000000000000D+00 0.000000000000D+00 0.274202794522D-04 0.000000000000D+00  6 2 -1 25 2 -1 21 2 0.25591804D+00 0.17709587D+00 0.28992753D+06 0.28992753D+06 0.28992753D+06 0.10856509D+01  1  2 15  4  6  5       -1 -.539870030156D-03 0.100000000000D+01
0.539538831907D-09 0.000000000000D+00 0.000000000000D+00 0.274202794522D-04 0.000000000000D+00  6 2 -1 25 2 -1 21 2 0.25591804D+00 0.17709587D+00 0.31873722D+06 0.31873722D+06 0.31873722D+06 0.10826106D+01  1  2 12  4  6  5       -1 0.199812808133D-09 0.100000000000D+01
-.232433046525D-03 0.000000000000D+00 0.000000000000D+00 0.274202794522D-04 0.000000000000D+00  6 2 -1 25 2 -1 21 2 0.25591804D+00 0.17709587D+00 0.28992753D+06 0.28992753D+06 0.28992753D+06 0.10856509D+01  1  2  4  4  6  5       -1 -.872472668937D-04 0.100000000000D+01
-.240700071414D-01 0.000000000000D+00 0.000000000000D+00 0.274202794522D-04 0.000000000000D+00  6 2 -1 25 2 -1 21 2 0.25591804D+00 0.17709587D+00 0.28992753D+06 0.28992753D+06 0.28992753D+06 0.10856509D+01  1  2  5  4  6  5       -1 -.903504199851D-02 0.100000000000D+01
0.249101688468D-01 0.000000000000D+00 -.000000000000D+00 0.274202794522D-04 0.000000000000D+00  6 2 -1 25 2 -1 21 2 0.25591804D+00 0.17709587D+00 0.28992753D+06 0.28992753D+06 0.28992753D+06 0.10856509D+01  1  2  6  4  6  5       -1 0.935040942859D-02 0.100000000000D+01
  </mgrwgt>
  </event>
  <event>
  5     66 0.19594695E-05 0.14000754E+03 0.75467711E-02 0.95374954E-01
        2 -1    0    0  502    0 0.00000000E+00 0.00000000E+00 0.48302612E+03 0.48302622E+03 0.32000000E+00 0.0000E+00 0.9000E+01
       -1 -1    0    0    0  501 -.00000000E+00 -.00000000E+00 -.10773460E+04 0.10773460E+04 0.32000000E+00 0.0000E+00 0.9000E+01
       25  1    1    2    0    0 -.45975884E+03 0.13338092E+02 0.10254578E+03 0.48754152E+03 0.12500000E+03 0.0000E+00 0.9000E+01
        2  1    1    2  502    0 0.30646552E+03 -.34186010E+01 0.49819909E+02 0.31050753E+03 0.32000000E+00 0.0000E+00 0.9000E+01
       -1  1    1    2    0  501 0.15329333E+03 -.99194915E+01 -.74668554E+03 0.76232318E+03 0.32000000E+00 0.0000E+00 0.9000E+01
#aMCatNLO 1  0  0  5  4 0.38535332D+02 0.00000000D+00  -5  6  0 0.00000000D+00 0.00000000D+00 0.00000000D+00 0.00000000D+00 0.00000000D+00
  <mgrwgt>
 0.4953340142D-03    1    2    0
 0.721378095565093D+03 0.000000000000000D+00 0.000000000000000D+00 0.721378095565093D+03
 0.721378095565093D+03 -.000000000000000D+00 -.000000000000000D+00 -.721378095565093D+03
 0.569558569853169D+03 -.459669223308797D+03 0.133387958380335D+02 0.311926667922872D+03
 0.356196144614032D+03 0.306339210653766D+03 -.341719209795413D+01 0.181714898266746D+03
 0.517001476662984D+03 0.153330012655031D+03 -.992160374007933D+01 -.493641566189618D+03
 0.000000000000000D+00 0.000000000000000D+00 0.000000000000000D+00 0.000000000000000D+00
 0.721378095565093D+03 0.000000000000000D+00 0.000000000000000D+00 0.721378095565093D+03
 0.721378095565093D+03 -.000000000000000D+00 -.000000000000000D+00 -.721378095565093D+03
 0.506636183555508D+03 -.433996198972508D+03 0.116775582899277D+02 0.229273104391884D+03
 0.347462992475488D+03 0.323125259920158D+03 -.450337559392304D+01 0.127672695396515D+03
 0.466510773127436D+03 0.800316578966578D+02 -.755601763348791D+02 -.453340815425340D+03
 0.122146241971753D+03 0.308392811556913D+02 0.683859936388744D+02 0.963950156369407D+02
0.175679143784D-03 0.000000000000D+00 0.000000000000D+00 0.340014610745D-06 0.000000000000D+00  6 2 -1 25 2 -1 21 2 0.74311722D-01 0.16574554D+00 0.21928508D+06 0.21928508D+06 0.21928508D+06 0.10947680D+01  1  2 14  4  6  5       -1 0.495334014161D-03 0.100000000000D+01
  </mgrwgt>
  </event>
  <event>
  5     66 0.19594695E-05 0.26206784E+02 0.75467711E-02 0.93105667E-01
        2 -1    0    0  502    0 0.00000000E+00 0.00000000E+00 0.21241355E+04 0.21241355E+04 0.32000000E+00 0.0000E+00 0.9000E+01
       -1 -1    0    0    0  501 0.00000000E+00 0.00000000E+00 -.54665517E+03 0.54665526E+03 0.32000000E+00 0.0000E+00 0.9000E+01
       25  1    1    2    0    0 -.94214392E+02 -.53442717E+03 0.38880056E+03 0.67917570E+03 0.12500000E+03 0.0000E+00 0.9000E+01
        2  1    1    2  502    0 0.11434360E+03 0.55120430E+03 0.15398213E+04 0.16394970E+04 0.32000000E+00 0.0000E+00 0.9000E+01
       -1  1    1    2    0  501 -.20129212E+02 -.16777134E+02 -.35114155E+03 0.35211808E+03 0.32000000E+00 0.0000E+00 0.9000E+01
#aMCatNLO 1  0  0  4  2 0.41320261D+03 0.00000000D+00  -5  6  0 0.00000000D+00 0.00000000D+00 0.00000000D+00 0.00000000D+00 0.00000000D+00
  <mgrwgt>
 0.2501011898D-02    3    2    0
 0.107757589169347D+04 0.000000000000000D+00 0.000000000000000D+00 0.107757589169347D+04
 0.107757589169347D+04 -.000000000000000D+00 -.000000000000000D+00 -.107757589169347D+04
 0.557063456467356D+03 -.942079143405738D+02 -.534404373003017D+03 -.152160941837664D+02
 0.904641906148093D+03 0.114339210922816D+03 0.551183122172828D+03 0.708167133547312D+03
 0.693446420771500D+03 -.201312965822418D+02 -.167787491698107D+02 -.692951039363546D+03
 0.000000000000000D+00 0.000000000000000D+00 -.000000000000000D+00 0.000000000000000D+00
 0.107757589169347D+04 0.000000000000000D+00 0.000000000000000D+00 0.107757589169347D+04
 0.107757589169347D+04 -.000000000000000D+00 -.000000000000000D+00 -.107757589169347D+04
 0.445143374007723D+03 -.626379149391003D+02 -.382218165868486D+03 0.180314693564313D+03
 0.610481117485278D+03 -.479319874135961D+03 0.377744790915125D+03 0.157647074456822D+02
 0.490215915077599D+03 0.171546389133176D+02 0.162961675604069D+03 -.462018239946688D+03
 0.609311376816350D+03 0.524803150161744D+03 -.158488300650709D+03 0.265938838936693D+03
0.221430355318D-02 0.000000000000D+00 0.000000000000D+00 0.236901944151D-04 0.000000000000D+00  6 2 -1 25 2 -1 21 0 0.32679009D+00 0.84100804D-01 0.32831757D+06 0.32831757D+06 0.32831757D+06 0.10816655D+01  1  2  2  3  6  4        2 0.263157711537D-02 0.100000000000D+01
0.157348525353D-02 0.000000000000D+00 -.850350868371D-05 0.236901944151D-04 0.000000000000D+00  6 2 -1 25 2 -1 21 2 0.32679009D+00 0.84100804D-01 0.32831757D+06 0.32831757D+06 0.32831757D+06 0.10816655D+01  1  2  3  3  6  4        2 0.218790066893D-02 0.100000000000D+01
-.166738460050D-02 0.000000000000D+00 0.000000000000D+00 0.236901944151D-04 0.000000000000D+00  6 2 -1 25 2 -1 21 2 0.32679009D+00 0.84100804D-01 0.32831757D+06 0.32831757D+06 0.32831757D+06 0.10816655D+01  1  2 15  3  6  4        2 -.231846588624D-02 0.100000000000D+01
  </mgrwgt>
  </event>
  <event>
  5     66 -.19594695E-05 0.46298698E+02 0.75467711E-02 0.91479478E-01
        2 -1    0    0  502    0 0.00000000E+00 0.00000000E+00 0.25397363E+04 0.25397364E+04 0.32000000E+00 0.0000E+00 0.9000E+01
       -1 -1    0    0    0  501 0.00000000E+00 0.00000000E+00 -.85812966E+03 0.85812972E+03 0.32000000E+00 0.0000E+00 0.9000E+01
       25  1    1    2    0    0 -.15430290E+03 -.60026244E+03 0.36576861E+03 0.73043553E+03 0.12500000E+03 0.0000E+00 0.9000E+01
        2  1    1    2  502    0 0.22778075E+02 -.40311847E+02 0.18330770E+04 0.18336617E+04 0.32000000E+00 0.0000E+00 0.9000E+01
       -1  1    1    2    0  501 0.13152482E+03 0.64057429E+03 -.51723897E+03 0.83376882E+03 0.32000000E+00 0.0000E+00 0.9000E+01
#aMCatNLO 1  0  0  4  2 0.41320261D+03 0.00000000D+00  -5  6  0 0.00000000D+00 0.00000000D+00 0.00000000D+00 0.00000000D+00 0.00000000D+00
  <mgrwgt>
 -.9581919426D-03    1    2    0
 0.147628697276245D+04 0.000000000000000D+00 0.000000000000000D+00 0.147628697276245D+04
 0.147628697276245D+04 -.000000000000000D+00 -.000000000000000D+00 -.147628697276245D+04
 0.632340370708851D+03 -.154314869887469D+03 -.600326146641628D+03 0.497825453702654D+01
 0.106611728449888D+04 0.227763948818919D+02 -.403088735545884D+02 0.106511149409637D+04
 0.125411629031717D+04 0.131538475005578D+03 0.640635020196214D+03 -.107008974863340D+04
 0.000000000000000D+00 -.000000000000000D+00 0.000000000000000D+00 0.000000000000000D+00
 0.147628697276245D+04 0.000000000000000D+00 0.000000000000000D+00 0.147628697276245D+04
 0.147628697276245D+04 -.000000000000000D+00 -.000000000000000D+00 -.147628697276245D+04
 0.633597117658342D+03 -.153836953465474D+03 -.601171946546475D+03 0.273274576011712D+02
 0.104902736218335D+04 0.424930384113287D+02 -.495361262618959D+02 0.104699518646978D+04
 0.121634768750638D+04 0.132471123983746D+03 0.638984450388011D+03 -.102647550890167D+04
 0.536017781768255D+02 -.211272089295996D+02 0.117236224203581D+02 -.478471351692818D+02
-.352972655176D-02 0.000000000000D+00 0.000000000000D+00 0.417195473771D-04 0.000000000000D+00  6 2 -1 25 2 -1 21 2 0.39072867D+00 0.13201995D+00 0.44396846D+06 0.44396846D+06 0.44396846D+06 0.10721777D+01  1  2 14  3  6  4        2 -.958191942618D-03 0.100000000000D+01
  </mgrwgt>
  </event>
  <event>
  5     66 -.19594695E-05 0.71937033E+02 0.75467711E-02 0.94327344E-01
        2 -1    0    0  502    0 0.00000000E+00 0.00000000E+00 0.18292261E+04 0.18292261E+04 0.32000000E+00 0.0000E+00 0.9000E+01
       -1 -1    0    0    0  501 0.00000000E+00 0.00000000E+00 -.11243437E+04 0.11243438E+04 0.32000000E+00 0.0000E+00 0.9000E+01
       25  1    1    2    0    0 -.47654122E+02 0.50281180E+03 0.11629815E+04 0.12740650E+04 0.12500000E+03 0.0000E+00 0.9000E+01
        2  1    1    2  502    0 -.36640593E+01 -.71878416E+02 0.56426930E+03 0.56884082E+03 0.32000000E+00 0.0000E+00 0.9000E+01
       -1  1    1    2    0  501 0.51318181E+02 -.43093338E+03 -.10223685E+04 0.11106640E+04 0.32000000E+00 0.0000E+00 0.9000E+01
#aMCatNLO 1  0  0  4  1 0.53324401D+01 0.00000000D+00  -5  6  0 0.00000000D+00 0.00000000D+00 0.00000000D+00 0.00000000D+00 0.00000000D+00
  <mgrwgt>
 -.6065240743D-02    9    2    0
 0.143411261329773D+04 0.000000000000000D+00 0.000000000000000D+00 0.143411261329773D+04
 0.143411261329773D+04 -.000000000000000D+00 -.000000000000000D+00 -.143411261329773D+04
 0.102636127070797D+04 -.476614529763264D+02 0.502825979446623D+03 0.884695924203904D+03
 0.446878735862370D+03 -.366229220116564D+01 -.718437496150717D+02 0.441050640882689D+03
 0.139498522002512D+04 0.513237451774920D+02 -.430982229831551D+03 -.132574656508659D+04
 0.000000000000000D+00 0.000000000000000D+00 0.000000000000000D+00 0.000000000000000D+00
 0.143411261329773D+04 0.000000000000000D+00 0.000000000000000D+00 0.143411261329773D+04
 0.143411261329773D+04 -.000000000000000D+00 -.000000000000000D+00 -.143411261329773D+04
 0.102643703576355D+04 -.476622568858880D+02 0.502810209029058D+03 0.884792739206064D+03
 0.386904087187255D+03 -.555490433752919D+01 -.669002547540778D+02 0.381035787864924D+03
 0.139486675723471D+04 0.513226526255969D+02 -.431003662590185D+03 -.132561498882586D+04
 0.600173464099357D+02 0.189450859782029D+01 -.490629168479467D+01 0.597864617548716D+02
0.662396000007D-04 0.000000000000D+00 0.000000000000D+00 0.275834901980D-04 0.000000000000D+00  6 2 -1 25 2 -1 21 0 0.28141940D+00 0.17297597D+00 0.26331380D+06 0.26331380D+06 0.26331380D+06 0.10887680D+01  1  2  2  3  6  4        2 0.186694323231D-04 0.100000000000D+01
0.925593175861D-05 0.000000000000D+00 -.254377505290D-06 0.275834901980D-04 0.000000000000D+00  6 2 -1 25 2 -1 21 2 0.28141940D+00 0.17297597D+00 0.26331380D+06 0.26331380D+06 0.26331380D+06 0.10887680D+01  1  2  3  3  6  4        2 0.309246086483D-05 0.100000000000D+01
-.512865602651D-04 0.000000000000D+00 0.000000000000D+00 0.275834901980D-04 0.000000000000D+00  6 2 -1 25 2 -1 21 2 0.28141940D+00 0.17297597D+00 0.26331380D+06 0.26331380D+06 0.26331380D+06 0.10887680D+01  1  2 15  3  6  4        2 -.171351393515D-04 0.100000000000D+01
0.975104553739D-09 0.000000000000D+00 0.000000000000D+00 0.275834901980D-04 0.000000000000D+00  6 2 -1 25 2 -1 21 2 0.28141940D+00 0.17297597D+00 0.26354928D+06 0.26354928D+06 0.26354928D+06 0.10887389D+01  1  2 12  3  6  4        2 0.325745588487D-09 0.100000000000D+01
0.378412605075D-02 0.000000000000D+00 0.000000000000D+00 0.275834901980D-04 0.000000000000D+00  6 2 -1 25 2 -1 21 2 0.28141940D+00 0.17297597D+00 0.26354928D+06 0.26354928D+06 0.26354928D+06 0.10887389D+01  1  2 12  3  6  4        2 0.126413353582D-02 0.100000000000D+01
-.539367497602D-01 0.000000000000D+00 0.000000000000D+00 0.275834901980D-04 0.000000000000D+00  6 2 -1 25 2 -1 21 2 0.28141940D+00 0.17297597D+00 0.26331380D+06 0.26331380D+06 0.26331380D+06 0.10887680D+01  1  2  4  3  6  4        2 -.180205831417D-01 0.100000000000D+01
-.142257548658D-01 0.000000000000D+00 0.000000000000D+00 0.275834901980D-04 0.000000000000D+00  6 2 -1 25 2 -1 21 2 0.28141940D+00 0.17297597D+00 0.26331380D+06 0.26331380D+06 0.26331380D+06 0.10887680D+01  1  2  5  3  6  4        2 -.475290779388D-02 0.100000000000D+01
0.178577477665D-01 0.000000000000D+00 -.000000000000D+00 0.275834901980D-04 0.000000000000D+00  6 2 -1 25 2 -1 21 2 0.28141940D+00 0.17297597D+00 0.26331380D+06 0.26331380D+06 0.26331380D+06 0.10887680D+01  1  2  6  3  6  4        2 0.596637783663D-02 0.100000000000D+01
0.283573276896D-01 0.000000000000D+00 0.000000000000D+00 0.275834901980D-04 0.157597620459D-04  6 2 -1 25 2 -1 21 2 0.28141940D+00 0.17297597D+00 0.26354928D+06 0.26354928D+06 0.26354928D+06 0.10887389D+01  1  2 11  3  6  4        2 0.947311174044D-02 0.100000000000D+01
  </mgrwgt>
  </event>
  <event>
  5     66 -.19594695E-05 0.14916281E+02 0.75467711E-02 0.92453564E-01
        2 -1    0    0  502    0 0.00000000E+00 0.00000000E+00 0.10734020E+04 0.10734021E+04 0.32000000E+00 0.0000E+00 0.9000E+01
       -1 -1    0    0    0  501 0.00000000E+00 0.00000000E+00 -.10720182E+04 0.10720182E+04 0.32000000E+00 0.0000E+00 0.9000E+01
       25  1    1    2    0    0 0.41959828E+03 -.40429730E+03 0.82497187E+03 0.10177046E+04 0.12500000E+03 0.0000E+00 0.9000E+01
        2  1    1    2  502    0 0.38367791E+01 0.14482377E+02 0.66274534E+02 0.67947600E+02 0.32000000E+00 0.0000E+00 0.9000E+01
       -1  1    1    2    0  501 -.42343506E+03 0.38981492E+03 -.88986256E+03 0.10597681E+04 0.32000000E+00 0.0000E+00 0.9000E+01
#aMCatNLO 1  0  0  2  1 0.26683622D+02 0.00000000D+00  -5  6  0 0.00000000D+00 0.00000000D+00 0.00000000D+00 0.00000000D+00 0.00000000D+00
  <mgrwgt>
 -.1119737656D-02    7    4    0
 0.107270991030771D+04 0.000000000000000D+00 0.000000000000000D+00 0.107270991030771D+04
 0.107270991030771D+04 0.000000000000000D+00 0.000000000000000D+00 -.107270991030771D+04
 0.101743205575093D+04 0.419677008575021D+03 -.404297664176991D+03 0.824595413086991D+03
 0.676062816008013D+02 0.381995083334408D+01 0.144188564566057D+02 0.659402294961238D+02
 0.106038148326370D+04 -.423496959408365D+03 0.389878807720385D+03 -.890535642583115D+03
 0.000000000000000D+00 -.000000000000000D+00 -.000000000000000D+00 -.000000000000000D+00
 0.107343279943478D+04 0.000000000000000D+00 0.000000000000000D+00 0.107343279943478D+04
 0.143538464250044D+04 0.000000000000000D+00 0.000000000000000D+00 -.143538464250044D+04
 0.102107269612993D+04 0.433023571908660D+03 -.399371308019759D+03 0.824595413086991D+03
 0.677325843951070D+02 0.470604577369219D+01 0.147459233693498D+02 0.659402294961238D+02
 0.105682354184251D+04 -.409635127135565D+03 0.394995355033769D+03 -.890535642583115D+03
 0.363188619567666D+03 -.280944905467863D+02 -.103699703833600D+02 -.361951843065665D+03
 0.107270991030771D+04 0.000000000000000D+00 0.000000000000000D+00 0.107270991030771D+04
 0.107270991030771D+04 0.000000000000000D+00 0.000000000000000D+00 -.107270991030771D+04
 0.101743205575093D+04 0.419677008575021D+03 -.404297664176991D+03 0.824595413086991D+03
 0.676062816008013D+02 0.381995083334408D+01 0.144188564566057D+02 0.659402294961238D+02
 0.000000000000000D+00 -.000000000000000D+00 -.000000000000000D+00 -.000000000000000D+00
 0.106038148326370D+04 -.423496959408365D+03 0.389878807720385D+03 -.890535642583115D+03
 0.107343279943478D+04 0.000000000000000D+00 0.000000000000000D+00 0.107343279943478D+04
 0.143538464250044D+04 0.000000000000000D+00 0.000000000000000D+00 -.143538464250044D+04
 0.102107269612993D+04 0.433023571908660D+03 -.399371308019759D+03 0.824595413086991D+03
 0.677325843951070D+02 0.470604577369219D+01 0.147459233693498D+02 0.659402294961238D+02
 0.363188619567666D+03 -.280944905467863D+02 -.103699703833600D+02 -.361951843065665D+03
 0.105682354184251D+04 -.409635127135565D+03 0.394995355033769D+03 -.890535642583115D+03
0.965111105918D-05 0.000000000000D+00 0.000000000000D+00 0.226216149552D-05 0.000000000000D+00  6 2 -1 25 2 -1 21 0 0.16513878D+00 0.16492588D+00 0.35197294D+06 0.35197294D+06 0.35197294D+06 0.10794553D+01  1  2  2  2  6  2       -1 0.820697756898D-05 0.100000000000D+01
0.359675418006D-05 0.000000000000D+00 -.370628076632D-07 0.226216149552D-05 0.000000000000D+00  6 2 -1 25 2 -1 21 2 0.16513878D+00 0.16492588D+00 0.35197294D+06 0.35197294D+06 0.35197294D+06 0.10794553D+01  1  2  3  2  6  2       -1 0.356390392332D-05 0.100000000000D+01
-.635524662290D-05 0.000000000000D+00 0.000000000000D+00 0.226216149552D-05 0.000000000000D+00  6 2 -1 25 2 -1 21 2 0.16513878D+00 0.16492588D+00 0.35197294D+06 0.35197294D+06 0.35197294D+06 0.10794553D+01  1  2 15  2  6  2       -1 -.629720221042D-05 0.100000000000D+01
-.219865242577D-02 0.000000000000D+00 0.000000000000D+00 0.226216149552D-05 0.000000000000D+00  6 2 -1 25 2 -1 21 2 0.16513878D+00 0.16492588D+00 0.35197294D+06 0.35197294D+06 0.35197294D+06 0.10794553D+01  1  2  4  2  6  2       -1 -.217857146025D-02 0.100000000000D+01
-.204113237839D-02 0.000000000000D+00 -.926635058756D-05 0.226216149552D-05 0.000000000000D+00  6 2 -1 25 2 -1 21 2 0.16513878D+00 0.22073580D+00 0.35197294D+06 0.35197294D+06 0.35197294D+06 0.10794553D+01  1  2  5  2  6  2       -1 -.710988299279D-03 0.100000000000D+01
0.196035141052D-02 0.000000000000D+00 0.888620706106D-05 0.226216149552D-05 0.000000000000D+00  6 2 -1 25 2 -1 21 2 0.16513878D+00 0.16492588D+00 0.35197294D+06 0.35197294D+06 0.35197294D+06 0.10794553D+01  1  2  6  2  6  2       -1 0.194244692110D-02 0.100000000000D+01
-.770727966923D-04 0.000000000000D+00 -.350797502241D-06 0.226216149552D-05 0.000000000000D+00  6 2 21 25 2 1 -1 2 0.16513878D+00 0.22073580D+00 0.35197294D+06 0.35197294D+06 0.35197294D+06 0.10794553D+01  3  4  5  6  5  2       -1 -.178098496438D-03 0.100000000000D+01
  </mgrwgt>
  </event>
  <event>
  5     66 0.19594695E-05 0.26368790E+02 0.75467711E-02 0.91683659E-01
        2 -1    0    0  502    0 0.00000000E+00 0.00000000E+00 0.25624966E+04 0.25624966E+04 0.32000000E+00 0.0000E+00 0.9000E+01
       -1 -1    0    0    0  501 0.00000000E+00 0.00000000E+00 -.44164720E+03 0.44164731E+03 0.32000000E+00 0.0000E+00 0.9000E+01
       25  1    1    2    0    0 0.51200793E+03 0.34407785E+03 0.14983425E+04 0.16251760E+04 0.12500000E+03 0.0000E+00 0.9000E+01
        2  1    1    2  502    0 0.19800810E+02 0.17443292E+02 0.72700071E+03 0.72747953E+03 0.32000000E+00 0.0000E+00 0.9000E+01
       -1  1    1    2    0  501 -.53180874E+03 -.36152114E+03 -.10449383E+03 0.65148840E+03 0.32000000E+00 0.0000E+00 0.9000E+01
#aMCatNLO 1  0  0  4  5 0.10807553D+02 0.00000000D+00  -5  6  0 0.00000000D+00 0.00000000D+00 0.00000000D+00 0.00000000D+00 0.00000000D+00
  <mgrwgt>
 0.9447698580D-03    7    2    0
 0.106382312160094D+04 0.000000000000000D+00 0.000000000000000D+00 0.106382312160094D+04
 0.106382312160094D+04 -.000000000000000D+00 -.000000000000000D+00 -.106382312160094D+04
 0.801319521077566D+03 0.512098719522260D+03 0.344141979922778D+03 0.495791462187956D+03
 0.302267771693360D+03 0.197861973270395D+02 0.174304187211378D+02 0.301115414256744D+03
 0.102405895043096D+04 -.531884916849300D+03 -.361572398643916D+03 -.796906876444700D+03
 0.000000000000000D+00 0.000000000000000D+00 0.000000000000000D+00 0.000000000000000D+00
 0.106382312160094D+04 0.000000000000000D+00 0.000000000000000D+00 0.106382312160094D+04
 0.106382312160094D+04 -.000000000000000D+00 -.000000000000000D+00 -.106382312160094D+04
 0.802756121602092D+03 0.512236271972233D+03 0.344263155142024D+03 0.497884798379385D+03
 0.289485819057399D+03 0.931502536283948D+01 0.215922417380110D+02 0.288529105697415D+03
 0.102183666901178D+04 -.531709477520035D+03 -.361417847422239D+03 -.794236960369600D+03
 0.135676335306081D+02 0.101581801849627D+02 -.443754945779600D+01 0.782305629280067D+01
0.493057394287D-03 0.000000000000D+00 0.000000000000D+00 0.666486039403D-05 0.000000000000D+00  6 2 -1 25 2 -1 21 0 0.39423025D+00 0.67945733D-01 0.42187686D+06 0.42187686D+06 0.42187686D+06 0.10737645D+01  1  2  2  3  6  4        2 0.498255107854D-03 0.100000000000D+01
0.239553324280D-03 0.000000000000D+00 -.189347021906D-05 0.666486039403D-05 0.000000000000D+00  6 2 -1 25 2 -1 21 2 0.39423025D+00 0.67945733D-01 0.42187686D+06 0.42187686D+06 0.42187686D+06 0.10737645D+01  1  2  3  3  6  4        2 0.279109452874D-03 0.100000000000D+01
-.324091163023D-03 0.000000000000D+00 0.000000000000D+00 0.666486039403D-05 0.000000000000D+00  6 2 -1 25 2 -1 21 2 0.39423025D+00 0.67945733D-01 0.42187686D+06 0.42187686D+06 0.42187686D+06 0.10737645D+01  1  2 15  3  6  4        2 -.377606561981D-03 0.100000000000D+01
0.611377314991D-09 0.000000000000D+00 0.000000000000D+00 0.666486039403D-05 0.000000000000D+00  6 2 -1 25 2 -1 21 2 0.39423025D+00 0.67945733D-01 0.42720559D+06 0.42720559D+06 0.42720559D+06 0.10733736D+01  1  2 12  3  6  4        2 0.711165109676D-09 0.100000000000D+01
-.120320422927D-04 0.000000000000D+00 0.000000000000D+00 0.666486039403D-05 0.000000000000D+00  6 2 -1 25 2 -1 21 2 0.39423025D+00 0.67945733D-01 0.42187686D+06 0.42187686D+06 0.42187686D+06 0.10737645D+01  1  2  4  3  6  4        2 -.140188275466D-04 0.100000000000D+01
-.662485079767D-02 0.000000000000D+00 0.000000000000D+00 0.666486039403D-05 0.000000000000D+00  6 2 -1 25 2 -1 21 2 0.39423025D+00 0.67945733D-01 0.42187686D+06 0.42187686D+06 0.42187686D+06 0.10737645D+01  1  2  5  3  6  4        2 -.771877613082D-02 0.100000000000D+01
0.710465356914D-02 0.000000000000D+00 -.000000000000D+00 0.666486039403D-05 0.000000000000D+00  6 2 -1 25 2 -1 21 2 0.39423025D+00 0.67945733D-01 0.42187686D+06 0.42187686D+06 0.42187686D+06 0.10737645D+01  1  2  6  3  6  4        2 0.827780610644D-02 0.100000000000D+01
  </mgrwgt>
  </event>
  <event>
  5     66 0.19594695E-05 0.26001819E+02 0.75467711E-02 0.95179747E-01
        2 -1    0    0  502    0 0.00000000E+00 0.00000000E+00 0.16526682E+04 0.16526682E+04 0.32000000E+00 0.0000E+00 0.9000E+01
       -1 -1    0    0    0  501 0.00000000E+00 0.00000000E+00 -.12540007E+04 0.12540008E+04 0.32000000E+00 0.0000E+00 0.9000E+01
       25  1    1    2    0    0 0.43004018E+03 -.13502378E+03 0.10031677E+04 0.11068588E+04 0.12500000E+03 0.0000E+00 0.9000E+01
        2  1    1    2  502    0 -.25666579E+02 -.42301649E+01 0.55930517E+03 0.55990985E+03 0.32000000E+00 0.0000E+00 0.9000E+01
       -1  1    1    2    0  501 -.40437360E+03 0.13925395E+03 -.11638054E+04 0.12399003E+04 0.32000000E+00 0.0000E+00 0.9000E+01
#aMCatNLO 1  0  0  4  2 0.31677056D+02 0.00000000D+00  -5  6  0 0.00000000D+00 0.00000000D+00 0.00000000D+00 0.00000000D+00 0.00000000D+00
  <mgrwgt>
 0.2388855366D-02    6    2    0
 0.143959967258660D+04 0.000000000000000D+00 0.000000000000000D+00 0.143959967258660D+04
 0.143959967258660D+04 -.000000000000000D+00 -.000000000000000D+00 -.143959967258660D+04
 0.978711271294000D+03 0.430073946327048D+03 -.135040703920592D+03 0.859680848648630D+03
 0.487601085347673D+03 -.256557094030618D+02 -.422837339298657D+01 0.486907305208809D+03
 0.141288698853152D+04 -.404418236923985D+03 0.139269077313579D+03 -.134658815385744D+04
 0.000000000000000D+00 0.000000000000000D+00 0.000000000000000D+00 0.000000000000000D+00
 0.143959967258660D+04 0.000000000000000D+00 0.000000000000000D+00 0.143959967258660D+04
 0.143959967258660D+04 -.000000000000000D+00 -.000000000000000D+00 -.143959967258660D+04
 0.980418516608396D+03 0.429968942364241D+03 -.135058009852598D+03 0.861673668093344D+03
 0.113241876176705D+03 -.263997589561647D+02 -.249036034586860D+02 0.107268754918891D+03
 0.141019132001329D+04 -.404569546148898D+03 0.139244139710386D+03 -.134371652923004D+04
 0.375347632374802D+03 0.100036274082163D+01 0.207174736008984D+02 0.374774106217802D+03
0.181479920542D-02 0.000000000000D+00 0.000000000000D+00 0.197224284418D-03 0.000000000000D+00  6 2 -1 25 2 -1 21 0 0.25425665D+00 0.19292320D+00 0.21229759D+06 0.21229759D+06 0.21229759D+06 0.10958406D+01  1  2  2  3  6  4        2 0.447829823286D-03 0.100000000000D+01
0.704243621036D-03 0.000000000000D+00 -.696930679640D-05 0.197224284418D-03 0.000000000000D+00  6 2 -1 25 2 -1 21 2 0.25425665D+00 0.19292320D+00 0.21229759D+06 0.21229759D+06 0.21229759D+06 0.10958406D+01  1  2  3  3  6  4        2 0.208690222174D-03 0.100000000000D+01
-.120084128388D-02 0.000000000000D+00 0.000000000000D+00 0.197224284418D-03 0.000000000000D+00  6 2 -1 25 2 -1 21 2 0.25425665D+00 0.19292320D+00 0.21229759D+06 0.21229759D+06 0.21229759D+06 0.10958406D+01  1  2 15  3  6  4        2 -.355848213379D-03 0.100000000000D+01
-.263499340230D-03 0.000000000000D+00 0.000000000000D+00 0.197224284418D-03 0.000000000000D+00  6 2 -1 25 2 -1 21 2 0.25425665D+00 0.19292320D+00 0.21229759D+06 0.21229759D+06 0.21229759D+06 0.10958406D+01  1  2  4  3  6  4        2 -.780833992849D-04 0.100000000000D+01
-.497709409089D-02 0.000000000000D+00 0.000000000000D+00 0.197224284418D-03 0.000000000000D+00  6 2 -1 25 2 -1 21 2 0.25425665D+00 0.19292320D+00 0.21229759D+06 0.21229759D+06 0.21229759D+06 0.10958406D+01  1  2  5  3  6  4        2 -.147487437668D-02 0.100000000000D+01
0.122873535438D-01 0.000000000000D+00 -.000000000000D+00 0.197224284418D-03 0.000000000000D+00  6 2 -1 25 2 -1 21 2 0.25425665D+00 0.19292320D+00 0.21229759D+06 0.21229759D+06 0.21229759D+06 0.10958406D+01  1  2  6  3  6  4        2 0.364114131018D-02 0.100000000000D+01
  </mgrwgt>
  </event>
  <event>
  6     66 0.19594695E-05 0.41970480E+02 0.75467711E-02 0.92872813E-01
       21 -1    0    0  502  503 0.00000000E+00 0.00000000E+00 0.11538750E+04 0.11538753E+04 0.75000000E+00 0.0000E+00 0.9000E+01
       -3 -1    0    0    0  501 0.00000000E+00 0.00000000E+00 -.79623793E+03 0.79623809E+03 0.50000000E+00 0.0000E+00 0.9000E+01
       25  1    1    2    0    0 0.53381002E+03 -.94687179E+02 -.26349397E+03 0.61560772E+03 0.12500000E+03 0.0000E+00 0.9000E+01
        4  1    1    2  502    0 -.52879728E+03 0.12805449E+03 0.75159659E+03 0.92786009E+03 0.15500000E+01 0.0000E+00 0.9000E+01
       -3  1    1    2    0  501 -.54668355E+01 0.18026619E+02 -.26342063E+03 0.26409378E+03 0.50000000E+00 0.0000E+00 0.9000E+01
       -4  1    1    2    0  503 0.45410239E+00 -.51393931E+02 0.13295510E+03 0.14255176E+03 0.15500000E+01 0.0000E+00 0.9000E+01
#aMCatNLO 2  0  0  1  4 0.59531653D+02 0.00000000D+00  -5  6  0 0.00000000D+00 0.00000000D+00 0.00000000D+00 0.00000000D+00 0.00000000D+00
  <mgrwgt>
 0.2092971927D-05    1    2    0
 0.896403282367311D+03 0.000000000000000D+00 0.000000000000000D+00 0.896403282367311D+03
 0.896403282367311D+03 0.000000000000000D+00 0.000000000000000D+00 -.896403282367311D+03
 0.656366724039627D+03 0.533941377733078D+03 -.113458020357689D+03 -.342383059142139D+03
 0.837435715780238D+03 -.528546073834198D+03 0.103993881394541D+03 0.641188660638437D+03
 0.299004124914757D+03 -.539530389888012D+01 0.946413896314780D+01 -.298805601496299D+03
 0.000000000000000D+00 0.000000000000000D+00 -.000000000000000D+00 0.000000000000000D+00
 0.101833962605044D+04 0.000000000000000D+00 0.000000000000000D+00 0.101833962605044D+04
 0.902203788831677D+03 0.000000000000000D+00 0.000000000000000D+00 -.902203788831677D+03
 0.653248669960878D+03 0.533775554673228D+03 -.946906692943682D+02 -.342383059142139D+03
 0.840894809295531D+03 -.528758583479688D+03 0.128045078645795D+03 0.641188660638437D+03
 0.299399640084889D+03 -.547107358194324D+01 0.180395219242899D+02 -.298805601496299D+03
 0.127000295540818D+03 0.454102388403460D+00 -.513939312757167D+02 0.116135837218762D+03
0.425171506406D-05 0.000000000000D+00 0.000000000000D+00 0.108602132924D-04 0.430553112961D-09  6 21 -3 25 4 -3 -4 2 0.17751834D+00 0.12249754D+00 0.34258926D+06 0.34258926D+06 0.34258926D+06 0.10803121D+01  1  2  1  5  6  1        4 0.209297192693D-05 0.100000000000D+01
  </mgrwgt>
  </event>
  <event>
  6     66 -.19594695E-05 0.12939351E+03 0.75467711E-02 0.90345112E-01
        2 -1    0    0  502    0 0.00000000E+00 0.00000000E+00 0.23745254E+04 0.23745255E+04 0.32000000E+00 0.0000E+00 0.9000E+01
       21 -1    0    0  503  501 0.00000000E+00 0.00000000E+00 -.21500964E+04 0.21500965E+04 0.75000000E+00 0.0000E+00 0.9000E+01
       25  1    1    2    0    0 -.53517712E+03 0.40075336E+03 0.51230023E+03 0.85152471E+03 0.12500000E+03 0.0000E+00 0.9000E+01
        2  1    1    2  502    0 0.15463641E+03 -.39921918E+02 0.16109636E+04 0.16188607E+04 0.32000000E+00 0.0000E+00 0.9000E+01
        1  1    1    2  503    0 -.40308240E+02 0.45251840E+02 -.85972223E+03 0.86185550E+03 0.32000000E+00 0.0000E+00 0.9000E+01
       -1  1    1    2    0  501 0.42084895E+03 -.40608328E+03 -.10391126E+04 0.11923810E+04 0.32000000E+00 0.0000E+00 0.9000E+01
#aMCatNLO 2  0  0  2  5 0.60601017D+02 0.00000000D+00  -5  6  0 0.00000000D+00 0.00000000D+00 0.00000000D+00 0.00000000D+00 0.00000000D+00
  <mgrwgt>
 -.6810229501D-04    3    2    0
 0.174905702188542D+04 0.000000000000000D+00 0.000000000000000D+00 0.174905702188542D+04
 0.174905702188542D+04 0.000000000000000D+00 0.000000000000000D+00 -.174905702188542D+04
 0.744253058911326D+03 -.543710811988727D+03 0.410336504372745D+03 0.272562143014361D+03
 0.119338979776283D+04 0.140861865674493D+03 -.244684733234226D+02 0.118479468179780D+04
 0.000000000000000D+00 -.000000000000000D+00 0.000000000000000D+00 -.000000000000000D+00
 0.156047118709669D+04 0.402848946314234D+03 -.385868031049322D+03 -.145735682481216D+04
 0.175010558706249D+04 0.000000000000000D+00 0.000000000000000D+00 0.175010558706249D+04
 0.291722901957350D+04 0.000000000000000D+00 0.000000000000000D+00 -.291722901957350D+04
 0.732791493981639D+03 -.535201569708630D+03 0.400783646907755D+03 0.272562143014361D+03
 0.119550851898192D+04 0.154624290457064D+03 -.399187893436938D+02 0.118479468179780D+04
 0.116869567892994D+04 -.403082399184730D+02 0.452518400500173D+02 -.116712343251101D+04
 0.157033891474247D+04 0.420885519170039D+03 -.406116697614079D+03 -.145735682481216D+04
-.320583935713D-09 0.000000000000D+00 0.000000000000D+00 0.163203286639D-04 0.000000000000D+00  6 2 21 25 2 1 -1 2 0.36509274D+00 0.33080876D+00 0.55159048D+06 0.55159048D+06 0.55159048D+06 0.10655093D+01  1  2 13  6  5  2       -1 -.227644828587D-10 0.100000000000D+01
-.347855399038D-02 0.000000000000D+00 0.000000000000D+00 0.163203286639D-04 0.000000000000D+00  6 2 21 25 2 1 -1 2 0.36509274D+00 0.33323733D+00 0.55159048D+06 0.55159048D+06 0.55159048D+06 0.10655093D+01  1  2 13  6  5  2       -1 -.237997903017D-03 0.100000000000D+01
0.239618025940D-02 0.000000000000D+00 0.000000000000D+00 0.163203286639D-04 0.119517904377D-08  6 2 21 25 2 1 -1 2 0.36531161D+00 0.33078407D+00 0.55159048D+06 0.55159048D+06 0.55159048D+06 0.10655093D+01  1  2  1  6  5  2       -1 0.169895630775D-03 0.100000000000D+01
  </mgrwgt>
  </event>
  <event>
  5     66 0.19594695E-05 0.17390387E+03 0.75467711E-02 0.92417514E-01
        2 -1    0    0  502    0 0.00000000E+00 0.00000000E+00 0.37465870E+04 0.37465870E+04 0.32000000E+00 0.0000E+00 0.9000E+01
       -1 -1    0    0    0  501 0.00000000E+00 0.00000000E+00 -.82981309E+03 0.82981315E+03 0.32000000E+00 0.0000E+00 0.9000E+01
       25  1    1    2    0    0 -.51371867E+03 -.24384639E+03 0.95787329E+03 0.11209434E+04 0.12500000E+03 0.0000E+00 0.9000E+01
        2  1    1    2  502    0 0.72813372E+02 0.15793952E+03 0.26366408E+04 0.26423705E+04 0.32000000E+00 0.0000E+00 0.9000E+01
       -1  1    1    2    0  501 0.44090530E+03 0.85906868E+02 -.67774018E+03 0.81308630E+03 0.32000000E+00 0.0000E+00 0.9000E+01
#aMCatNLO 1  0  0  4  5 0.26097898D+02 0.00000000D+00  -5  6  0 0.00000000D+00 0.00000000D+00 0.00000000D+00 0.00000000D+00 0.00000000D+00
  <mgrwgt>
 0.3904182464D-03    5    2    0
 0.176322633861893D+04 0.000000000000000D+00 0.000000000000000D+00 0.176322633861893D+04
 0.176322633861893D+04 -.000000000000000D+00 -.000000000000000D+00 -.176322633861893D+04
 0.662485924418870D+03 -.513751155176695D+03 -.243844245677548D+03 0.316010022717133D+03
 0.124821160630276D+04 0.728084077279146D+02 0.157928752849508D+03 0.123603788732241D+04
 0.161575514651622D+04 0.440942747448780D+03 0.859154928280406D+02 -.155204791003954D+04
 0.000000000000000D+00 0.000000000000000D+00 0.000000000000000D+00 -.000000000000000D+00
 0.176322633861893D+04 0.000000000000000D+00 0.000000000000000D+00 0.176322633861893D+04
 0.176322633861893D+04 -.000000000000000D+00 -.000000000000000D+00 -.176322633861893D+04
 0.665309441717410D+03 -.513323661112317D+03 -.242916968093205D+03 0.323267410657158D+03
 0.123377332628054D+04 0.458973998980935D+02 0.156455582960478D+03 0.122295204316622D+04
 0.159929083542345D+04 0.441977856554472D+03 0.881607484959834D+02 -.153447529566610D+04
 0.280790738164574D+02 0.254484046597515D+02 -.169936336325682D+01 -.117441581572805D+02
0.191854059294D-01 0.000000000000D+00 0.000000000000D+00 0.256277656359D-04 0.000000000000D+00  6 2 -1 25 2 -1 21 0 0.57639801D+00 0.12766356D+00 0.36324579D+06 0.36324579D+06 0.36324579D+06 0.10784583D+01  1  2  2  3  6  4        2 0.803662825352D-03 0.100000000000D+01
0.303400251636D-02 0.000000000000D+00 -.736770104024D-04 0.256277656359D-04 0.000000000000D+00  6 2 -1 25 2 -1 21 2 0.57639801D+00 0.12766356D+00 0.36324579D+06 0.36324579D+06 0.36324579D+06 0.10784583D+01  1  2  3  3  6  4        2 0.147817390216D-03 0.100000000000D+01
-.113394317056D-01 0.000000000000D+00 0.000000000000D+00 0.256277656359D-04 0.000000000000D+00  6 2 -1 25 2 -1 21 2 0.57639801D+00 0.12766356D+00 0.36324579D+06 0.36324579D+06 0.36324579D+06 0.10784583D+01  1  2 15  3  6  4        2 -.552460056384D-03 0.100000000000D+01
0.500575017592D-09 0.000000000000D+00 0.000000000000D+00 0.256277656359D-04 0.000000000000D+00  6 2 -1 25 2 -1 21 2 0.57639801D+00 0.12766356D+00 0.37254683D+06 0.37254683D+06 0.37254683D+06 0.10776608D+01  1  2 12  3  6  4        2 0.242820238987D-10 0.100000000000D+01
-.176557702279D-03 0.000000000000D+00 0.000000000000D+00 0.256277656359D-04 0.000000000000D+00  6 2 -1 25 2 -1 21 2 0.57639801D+00 0.12766356D+00 0.36324579D+06 0.36324579D+06 0.36324579D+06 0.10784583D+01  1  2  4  3  6  4        2 -.860193708895D-05 0.100000000000D+01
  </mgrwgt>
  </event>
  <event>
  5     66 0.19594695E-05 0.12868762E+03 0.75467711E-02 0.92730229E-01
        2 -1    0    0  502    0 0.00000000E+00 0.00000000E+00 0.37342786E+04 0.37342786E+04 0.32000000E+00 0.0000E+00 0.9000E+01
       -1 -1    0    0    0  501 0.00000000E+00 0.00000000E+00 -.65109861E+03 0.65109868E+03 0.32000000E+00 0.0000E+00 0.9000E+01
       25  1    1    2    0    0 0.10253220E+03 -.48282237E+03 -.94244403E+02 0.51781976E+03 0.12500000E+03 0.0000E+00 0.9000E+01
        2  1    1    2  502    0 0.22097188E+02 0.51490189E+03 0.34908766E+04 0.35287154E+04 0.32000000E+00 0.0000E+00 0.9000E+01
       -1  1    1    2    0  501 -.12462938E+03 -.32079516E+02 -.31345227E+03 0.33884216E+03 0.32000000E+00 0.0000E+00 0.9000E+01
#aMCatNLO 1  0  0  1  4 0.36846035D+02 0.00000000D+00  -5  6  0 0.00000000D+00 0.00000000D+00 0.00000000D+00 0.00000000D+00 0.00000000D+00
  <mgrwgt>
 0.7338909391D-02   11    2    0
 0.155928950916349D+04 0.000000000000000D+00 0.000000000000000D+00 0.155928950916349D+04
 0.155928950916349D+04 0.000000000000000D+00 0.000000000000000D+00 -.155928950916349D+04
 0.821359032213238D+03 0.102527915267124D+03 -.482823725899713D+03 -.644495877486864D+03
 0.151086650260002D+04 0.220972329059021D+02 0.514902927057681D+03 0.142024796309804D+04
 0.786353483513728D+03 -.124625148173027D+03 -.320792011579675D+02 -.775752085611179D+03
 0.000000000000000D+00 0.000000000000000D+00 0.000000000000000D+00 0.000000000000000D+00
 0.165819718285331D+04 0.000000000000000D+00 0.000000000000000D+00 0.165819718285331D+04
 0.156283367894250D+04 0.000000000000000D+00 0.000000000000000D+00 -.156283367894250D+04
 0.826583603255846D+03 0.999050873462547D+02 -.492198629209989D+03 -.644495877486864D+03
 0.150504299331069D+04 0.172971801234586D+02 0.497745861448623D+03 0.142024796309804D+04
 0.787170082256758D+03 -.127129532399529D+03 -.410307453246370D+02 -.775752085611179D+03
 0.102234182972515D+03 0.992726492981538D+01 0.354835130860031D+02 0.953635039108068D+02
0.572930940275D-02 0.000000000000D+00 0.000000000000D+00 0.115092286550D-04 0.000000000000D+00  6 2 -1 25 2 -1 21 0 0.57450440D+00 0.10016902D+00 0.33248837D+06 0.33248837D+06 0.33248837D+06 0.10812635D+01  1  2  2  1  6  1        2 0.442665041008D-03 0.100000000000D+01
0.731513763950D-03 0.000000000000D+00 -.220020566684D-04 0.115092286550D-04 0.000000000000D+00  6 2 -1 25 2 -1 21 2 0.57450440D+00 0.10016902D+00 0.33248837D+06 0.33248837D+06 0.33248837D+06 0.10812635D+01  1  2  3  1  6  1        2 0.660782456911D-04 0.100000000000D+01
-.435392054162D-02 0.000000000000D+00 0.000000000000D+00 0.115092286550D-04 0.000000000000D+00  6 2 -1 25 2 -1 21 2 0.57450440D+00 0.10016902D+00 0.33248837D+06 0.33248837D+06 0.33248837D+06 0.10812635D+01  1  2 15  1  6  1        2 -.393293257690D-03 0.100000000000D+01
0.275966274606D-07 0.000000000000D+00 0.000000000000D+00 0.115092286550D-04 0.000000000000D+00  6 2 -1 25 2 -1 21 2 0.61157556D+00 0.10016902D+00 0.35167061D+06 0.35167061D+06 0.35167061D+06 0.10794825D+01  1  2 12  1  6  1        2 0.159562354973D-08 0.100000000000D+01
0.698225819861D-01 0.000000000000D+00 0.000000000000D+00 0.115092286550D-04 0.000000000000D+00  6 2 -1 25 2 -1 21 2 0.63324698D+00 0.10016902D+00 0.35167061D+06 0.35167061D+06 0.35167061D+06 0.10794825D+01  1  2 12  1  6  1        2 0.307673836940D-02 0.100000000000D+01
-.211386513111D-01 0.000000000000D+00 0.000000000000D+00 0.115092286550D-04 0.000000000000D+00  6 2 -1 25 2 -1 21 2 0.57450440D+00 0.10016902D+00 0.33248837D+06 0.33248837D+06 0.33248837D+06 0.10812635D+01  1  2  4  1  6  1        2 -.190947192486D-02 0.100000000000D+01
-.180847820780D+00 0.000000000000D+00 -.110391259970D-01 0.115092286550D-04 0.000000000000D+00  6 2 -1 25 2 -1 21 2 0.61121051D+00 0.10016902D+00 0.33248837D+06 0.33248837D+06 0.33248837D+06 0.10812635D+01  1  2  5  1  6  1        2 -.106038671614D-01 0.100000000000D+01
0.184446298425D+00 0.000000000000D+00 0.112689066849D-01 0.115092286550D-04 0.000000000000D+00  6 2 -1 25 2 -1 21 2 0.57450440D+00 0.10016902D+00 0.33248837D+06 0.33248837D+06 0.33248837D+06 0.10812635D+01  1  2  6  1  6  1        2 0.166611872869D-01 0.100000000000D+01
0.408296472781D-09 0.000000000000D+00 0.000000000000D+00 0.115092286550D-04 0.000000000000D+00  6 21 -1 25 2 -1 -2 2 0.61157556D+00 0.10016902D+00 0.35167061D+06 0.35167061D+06 0.35167061D+06 0.10794825D+01  1  2 12  5  6  1        2 0.460445926540D-12 0.100000000000D+01
0.153211900569D-02 0.000000000000D+00 0.000000000000D+00 0.115092286550D-04 0.000000000000D+00  6 21 -1 25 2 -1 -2 2 0.63324698D+00 0.10016902D+00 0.35167061D+06 0.35167061D+06 0.35167061D+06 0.10794825D+01  1  2 12  5  6  1        2 0.113200464684D-05 0.100000000000D+01
-.196780874245D-02 0.000000000000D+00 -.117090815772D-03 0.115092286550D-04 0.000000000000D+00  6 21 -1 25 2 -1 -2 2 0.61121051D+00 0.10016902D+00 0.33248837D+06 0.33248837D+06 0.33248837D+06 0.10812635D+01  1  2  5  5  6  1        2 -.226080929110D-05 0.100000000000D+01
  </mgrwgt>
  </event>
  <event>
  6     66 0.19594695E-05 0.16213768E+03 0.75467711E-02 0.93837388E-01
        2 -1    0    0  502    0 0.00000000E+00 0.00000000E+00 0.20272139E+04 0.20272139E+04 0.32000000E+00 0.0000E+00 0.9000E+01
       -1 -1    0    0    0  501 0.00000000E+00 0.00000000E+00 -.10773275E+04 0.10773276E+04 0.32000000E+00 0.0000E+00 0.9000E+01
       25  1    1    2    0    0 -.40621350E+03 -.19859636E+03 -.30888296E+03 0.56167927E+03 0.12500000E+03 0.0000E+00 0.9000E+01
        2  1    1    2  503    0 0.36601997E+03 0.12055820E+02 0.13937901E+04 0.14410992E+04 0.32000000E+00 0.0000E+00 0.9000E+01
       -1  1    1    2    0  501 -.12906911E+02 0.18358469E+03 -.60315981E+03 0.63061223E+03 0.32000000E+00 0.0000E+00 0.9000E+01
       21  1    1    2  502  503 0.53100435E+02 0.29558465E+01 0.46813900E+03 0.47115080E+03 0.75000000E+00 0.0000E+00 0.9000E+01
#aMCatNLO 2  0  0  4  1 0.50839930D+02 0.00000000D+00  -5  6  0 0.00000000D+00 0.00000000D+00 0.00000000D+00 0.00000000D+00 0.00000000D+00
  <mgrwgt>
 0.1554642436D-02    3    2    0
 0.147782728688598D+04 0.000000000000000D+00 0.000000000000000D+00 0.147782728688598D+04
 0.147782728688598D+04 -.000000000000000D+00 -.000000000000000D+00 -.147782728688598D+04
 0.690140017591470D+03 -.406558039123570D+03 -.198659703020240D+03 -.505878569521444D+03
 0.140778150912435D+04 0.419888275959922D+03 0.150391690984177D+02 0.134362064457817D+04
 0.857733047056137D+03 -.133302368363530D+02 0.183620533921822D+03 -.837742075056731D+03
 0.000000000000000D+00 0.000000000000000D+00 0.000000000000000D+00 0.000000000000000D+00
 0.147782728688598D+04 0.000000000000000D+00 0.000000000000000D+00 0.147782728688598D+04
 0.147782728688598D+04 -.000000000000000D+00 -.000000000000000D+00 -.147782728688598D+04
 0.689117711814357D+03 -.406210829512497D+03 -.198647266988199D+03 -.504767516824471D+03
 0.106561079412956D+04 0.365988748693163D+03 0.120544262181562D+02 0.100071638899540D+04
 0.856381191819262D+03 -.128987315958715D+02 0.183635989176589D+03 -.836361280729885D+03
 0.344544876008779D+03 0.531208124152057D+02 0.295685159345392D+01 0.340412408558953D+03
-.225826844316D-08 0.000000000000D+00 0.000000000000D+00 0.856194552483D-05 0.000000000000D+00  6 2 -1 25 2 -1 21 2 0.31187907D+00 0.16574271D+00 0.28762808D+06 0.28762808D+06 0.28762808D+06 0.10859076D+01  1  2 13  3  6  4        2 -.665027737118D-09 0.100000000000D+01
-.528643585078D-02 0.000000000000D+00 0.000000000000D+00 0.856194552483D-05 0.000000000000D+00  6 2 -1 25 2 -1 21 2 0.31187907D+00 0.16574271D+00 0.28762808D+06 0.28762808D+06 0.28762808D+06 0.10859076D+01  1  2 13  3  6  4        2 -.155677970080D-02 0.100000000000D+01
0.105656163414D-01 0.000000000000D+00 0.000000000000D+00 0.856194552483D-05 0.464292128343D-07  6 2 -1 25 2 -1 21 2 0.31187907D+00 0.16574271D+00 0.28762808D+06 0.28762808D+06 0.28762808D+06 0.10859076D+01  1  2  1  3  6  4        2 0.311142280186D-02 0.100000000000D+01
  </mgrwgt>
  </event>
  <event>
  5     66 0.19594695E-05 0.91424483E+02 0.75467711E-02 0.93247978E-01
        2 -1    0    0  502    0 0.00000000E+00 0.00000000E+00 0.24483155E+04 0.24483156E+04 0.32000000E+00 0.0000E+00 0.9000E+01
       -1 -1    0    0    0  501 0.00000000E+00 0.00000000E+00 -.81995243E+03 0.81995249E+03 0.32000000E+00 0.0000E+00 0.9000E+01
       25  1    1    2    0    0 -.33535043E+03 -.40125233E+03 0.37917746E+03 0.65792393E+03 0.12500000E+03 0.0000E+00 0.9000E+01
        2  1    1    2  502    0 -.40312382E+02 0.82063459E+02 0.18392164E+04 0.18414876E+04 0.32000000E+00 0.0000E+00 0.9000E+01
       -1  1    1    2    0  501 0.37566281E+03 0.31918887E+03 -.59003071E+03 0.76885657E+03 0.32000000E+00 0.0000E+00 0.9000E+01
#aMCatNLO 1  0  0  5  2 0.55722074D+02 0.00000000D+00  -5  6  0 0.00000000D+00 0.00000000D+00 0.00000000D+00 0.00000000D+00 0.00000000D+00
  <mgrwgt>
 0.1509599828D-02    8    2    0
 0.141686358163620D+04 0.000000000000000D+00 0.000000000000000D+00 0.141686358163620D+04
 0.141686358163620D+04 -.000000000000000D+00 -.000000000000000D+00 -.141686358163620D+04
 0.540976608470301D+03 -.335389088000526D+03 -.401280535126908D+03 0.593193281356658D+02
 0.106692361197510D+04 -.403098179640250D+02 0.820582391606182D+02 0.106299932161387D+04
 0.122582694282699D+04 0.375698905964551D+03 0.319222295966289D+03 -.112231864974954D+04
 0.000000000000000D+00 0.000000000000000D+00 0.000000000000000D+00 0.000000000000000D+00
 0.141686358163620D+04 0.000000000000000D+00 0.000000000000000D+00 0.141686358163620D+04
 0.141686358163620D+04 -.000000000000000D+00 -.000000000000000D+00 -.141686358163620D+04
 0.540403013966816D+03 -.335024912186197D+03 -.400971103723888D+03 0.582314322123075D+02
 0.106480718692681D+04 -.395919157736079D+02 0.826682233310959D+02 0.106085474518788D+04
 0.877371769956950D+03 0.281254710135531D+03 0.174894456951200D+03 -.812458577203610D+03
 0.351145192421811D+03 0.933621178242733D+02 0.143408423441592D+03 -.306627600196581D+03
0.272664374175D-03 0.000000000000D+00 0.000000000000D+00 0.436661962953D-04 0.000000000000D+00  6 2 -1 25 2 -1 21 0 0.37666393D+00 0.12614653D+00 0.31480100D+06 0.31480100D+06 0.31480100D+06 0.10830079D+01  1  2  2  4  6  5       -1 0.843705402932D-04 0.100000000000D+01
0.817193026165D-04 0.000000000000D+00 -.104710299101D-05 0.436661962953D-04 0.000000000000D+00  6 2 -1 25 2 -1 21 2 0.37666393D+00 0.12614653D+00 0.31480100D+06 0.31480100D+06 0.31480100D+06 0.10830079D+01  1  2  3  4  6  5       -1 0.296585773812D-04 0.100000000000D+01
-.189835484182D-03 0.000000000000D+00 0.000000000000D+00 0.436661962953D-04 0.000000000000D+00  6 2 -1 25 2 -1 21 2 0.37666393D+00 0.12614653D+00 0.31480100D+06 0.31480100D+06 0.31480100D+06 0.10830079D+01  1  2 15  4  6  5       -1 -.688974356981D-04 0.100000000000D+01
0.557251516058D-09 0.000000000000D+00 0.000000000000D+00 0.436661962953D-04 0.000000000000D+00  6 2 -1 25 2 -1 21 2 0.37666393D+00 0.12614653D+00 0.31992367D+06 0.31992367D+06 0.31992367D+06 0.10824919D+01  1  2 12  4  6  5       -1 0.201771211895D-09 0.100000000000D+01
0.695467418580D-02 0.000000000000D+00 0.000000000000D+00 0.436661962953D-04 0.000000000000D+00  6 2 -1 25 2 -1 21 2 0.37666393D+00 0.12614653D+00 0.31992367D+06 0.31992367D+06 0.31992367D+06 0.10824919D+01  1  2 12  4  6  5       -1 0.251816818504D-02 0.100000000000D+01
-.538260978060D-02 0.000000000000D+00 0.000000000000D+00 0.436661962953D-04 0.000000000000D+00  6 2 -1 25 2 -1 21 2 0.37666393D+00 0.12614653D+00 0.31480100D+06 0.31480100D+06 0.31480100D+06 0.10830079D+01  1  2  4  4  6  5       -1 -.195352314055D-02 0.100000000000D+01
-.762271303330D-02 0.000000000000D+00 0.000000000000D+00 0.436661962953D-04 0.000000000000D+00  6 2 -1 25 2 -1 21 2 0.37666393D+00 0.12614653D+00 0.31480100D+06 0.31480100D+06 0.31480100D+06 0.10830079D+01  1  2  5  4  6  5       -1 -.276652904656D-02 0.100000000000D+01
0.101020261465D-01 0.000000000000D+00 -.000000000000D+00 0.436661962953D-04 0.000000000000D+00  6 2 -1 25 2 -1 21 2 0.37666393D+00 0.12614653D+00 0.31480100D+06 0.31480100D+06 0.31480100D+06 0.10830079D+01  1  2  6  4  6  5       -1 0.366635194601D-02 0.100000000000D+01
  </mgrwgt>
  </event>
  <event>
  5     66 0.19594695E-05 0.10627394E+02 0.75467711E-02 0.95140793E-01
        2 -1    0    0  502    0 0.00000000E+00 0.00000000E+00 0.26542130E+04 0.26542130E+04 0.32000000E+00 0.0000E+00 0.9000E+01
       -1 -1    0    0    0  501 0.00000000E+00 0.00000000E+00 -.39622670E+03 0.39622683E+03 0.32000000E+00 0.0000E+00 0.9000E+01
       25  1    1    2    0    0 -.44741296E+03 0.82742848E+02 -.16777494E+03 0.50079753E+03 0.12500000E+03 0.0000E+00 0.9000E+01
        2  1    1    2  502    0 0.45780743E+03 -.85106708E+02 0.24651970E+04 0.25087900E+04 0.32000000E+00 0.0000E+00 0.9000E+01
       -1  1    1    2    0  501 -.10394468E+02 0.23638600E+01 -.39435757E+02 0.40852346E+02 0.32000000E+00 0.0000E+00 0.9000E+01
#aMCatNLO 1  0  0  5  2 0.72307919D+01 0.00000000D+00  -5  6  0 0.00000000D+00 0.00000000D+00 0.00000000D+00 0.00000000D+00 0.00000000D+00
  <mgrwgt>
 0.4767021366D-02    9    2    0
 0.102550976636964D+04 0.000000000000000D+00 0.000000000000000D+00 0.102550976636964D+04
 0.102550976636964D+04 -.000000000000000D+00 -.000000000000000D+00 -.102550976636964D+04
 0.929875715247341D+03 -.447452777806337D+03 0.827515471822781D+02 -.801237816680594D+03
 0.101733252252924D+04 0.457815575846475D+03 -.851082227307140D+02 0.904503703879474D+03
 0.103811294962702D+03 -.103627980401380D+02 0.235667554843587D+01 -.103265887198880D+03
 0.000000000000000D+00 -.000000000000000D+00 0.000000000000000D+00 0.000000000000000D+00
 0.102550976636964D+04 0.000000000000000D+00 0.000000000000000D+00 0.102550976636964D+04
 0.102550976636964D+04 -.000000000000000D+00 -.000000000000000D+00 -.102550976636964D+04
 0.930356912496600D+03 -.447505723859830D+03 0.827635880103604D+02 -.801765427193357D+03
 0.101679244367285D+04 0.457757680458734D+03 -.850950563403117D+02 0.903926772962106D+03
 0.331285593266195D+02 0.384108235265605D+01 -.598548956903759D+00 -.328996849310697D+02
 0.707416172432130D+02 -.140930389515603D+02 0.293001728685507D+01 -.692616608376798D+02
0.253115174275D-03 0.000000000000D+00 0.000000000000D+00 0.122707303662D-04 0.000000000000D+00  6 2 -1 25 2 -1 21 0 0.40834047D+00 0.60957965D-01 0.22476306D+06 0.22476306D+06 0.22476306D+06 0.10939530D+01  1  2  2  4  6  5       -1 0.291176428972D-03 0.100000000000D+01
0.107749209844D-03 0.000000000000D+00 -.972028915972D-06 0.122707303662D-04 0.000000000000D+00  6 2 -1 25 2 -1 21 2 0.40834047D+00 0.60957965D-01 0.22476306D+06 0.22476306D+06 0.22476306D+06 0.10939530D+01  1  2  3  4  6  5       -1 0.148336981231D-03 0.100000000000D+01
-.192857760909D-03 0.000000000000D+00 0.000000000000D+00 0.122707303662D-04 0.000000000000D+00  6 2 -1 25 2 -1 21 2 0.40834047D+00 0.60957965D-01 0.22476306D+06 0.22476306D+06 0.22476306D+06 0.10939530D+01  1  2 15  4  6  5       -1 -.265504852440D-03 0.100000000000D+01
0.511829043067D-08 0.000000000000D+00 0.000000000000D+00 0.122707303662D-04 0.000000000000D+00  6 2 -1 25 2 -1 21 2 0.40834047D+00 0.60957965D-01 0.22840326D+06 0.22840326D+06 0.22840326D+06 0.10934233D+01  1  2 12  4  6  5       -1 0.703135938526D-08 0.100000000000D+01
0.705607715989D-03 0.000000000000D+00 0.000000000000D+00 0.122707303662D-04 0.000000000000D+00  6 2 -1 25 2 -1 21 2 0.40834047D+00 0.60957965D-01 0.22840326D+06 0.22840326D+06 0.22840326D+06 0.10934233D+01  1  2 12  4  6  5       -1 0.969343475781D-03 0.100000000000D+01
-.217678145698D-03 0.000000000000D+00 0.000000000000D+00 0.122707303662D-04 0.000000000000D+00  6 2 -1 25 2 -1 21 2 0.40834047D+00 0.60957965D-01 0.22476306D+06 0.22476306D+06 0.22476306D+06 0.10939530D+01  1  2  4  4  6  5       -1 -.299674763829D-03 0.100000000000D+01
-.962416439646D-03 0.000000000000D+00 0.000000000000D+00 0.122707303662D-04 0.000000000000D+00  6 2 -1 25 2 -1 21 2 0.40834047D+00 0.60957965D-01 0.22476306D+06 0.22476306D+06 0.22476306D+06 0.10939530D+01  1  2  5  4  6  5       -1 -.132494660101D-02 0.100000000000D+01
0.380762089390D-02 0.000000000000D+00 -.000000000000D+00 0.122707303662D-04 0.000000000000D+00  6 2 -1 25 2 -1 21 2 0.40834047D+00 0.60957965D-01 0.22476306D+06 0.22476306D+06 0.22476306D+06 0.10939530D+01  1  2  6  4  6  5       -1 0.524190376792D-02 0.100000000000D+01
0.464407680724D-05 0.000000000000D+00 0.000000000000D+00 0.122707303662D-04 0.427403829920D-07  6 2 -1 25 2 -1 21 2 0.40834047D+00 0.60957965D-01 0.22840326D+06 0.22840326D+06 0.22840326D+06 0.10934233D+01  1  2 11  4  6  5       -1 0.637989842248D-05 0.100000000000D+01
  </mgrwgt>
  </event>
  <event>
  5     66 0.19594695E-05 0.16594869E+03 0.75467711E-02 0.91635068E-01
        2 -1    0    0  502    0 0.00000000E+00 0.00000000E+00 0.18259903E+04 0.18259904E+04 0.32000000E+00 0.0000E+00 0.9000E+01
       -1 -1    0    0    0  501 0.00000000E+00 0.00000000E+00 -.95089339E+03 0.95089344E+03 0.32000000E+00 0.0000E+00 0.9000E+01
       25  1    1    2    0    0 -.48134355E+03 -.17872302E+03 0.18198826E+03 0.55890810E+03 0.12500000E+03 0.0000E+00 0.9000E+01
        2  1    1    2  502    0 0.16143662E+03 0.38474487E+02 0.14104133E+04 0.14201436E+04 0.32000000E+00 0.0000E+00 0.9000E+01
       -1  1    1    2    0  501 0.31990693E+03 0.14024854E+03 -.71730460E+03 0.79783212E+03 0.32000000E+00 0.0000E+00 0.9000E+01
#aMCatNLO 1  0  0  1  5 0.17487516D+03 0.00000000D+00  -5  6  0 0.00000000D+00 0.00000000D+00 0.00000000D+00 0.00000000D+00 0.00000000D+00
  <mgrwgt>
 0.3928174957D-02    7    2    0
 0.131769581186838D+04 0.000000000000000D+00 0.000000000000000D+00 0.131769581186838D+04
 0.131769581186838D+04 0.000000000000000D+00 0.000000000000000D+00 -.131769581186838D+04
 0.528514121816549D+03 -.481369608862554D+03 -.178735767001772D+03 0.624517552342525D+01
 0.102799625874027D+04 0.161427532334751D+03 0.384723214352299D+02 0.101451335145068D+04
 0.107888124317993D+04 0.319942076527804D+03 0.140263445566542D+03 -.102075852697411D+04
 0.000000000000000D+00 0.000000000000000D+00 -.000000000000000D+00 0.000000000000000D+00
 0.169374183545915D+04 0.000000000000000D+00 0.000000000000000D+00 0.169374183545915D+04
 0.135652104589750D+04 0.000000000000000D+00 0.000000000000000D+00 -.135652104589750D+04
 0.525590780973209D+03 -.492244952194078D+03 -.135190879374900D+03 0.624517552342525D+01
 0.103157778293702D+04 0.140178627448096D+03 0.123552961859827D+03 0.101451335145068D+04
 0.108779605431225D+04 0.297588172816243D+03 0.229768502599570D+03 -.102075852697411D+04
 0.405298263134161D+03 0.544781519297396D+02 -.218130585084497D+03 0.337220789561650D+03
0.291076356210D-02 0.000000000000D+00 0.000000000000D+00 0.221125033058D-04 0.000000000000D+00  6 2 -1 25 2 -1 21 0 0.28092160D+00 0.14629130D+00 0.27236057D+06 0.27236057D+06 0.27236057D+06 0.10876712D+01  1  2  2  1  6  1        2 0.136126716158D-02 0.100000000000D+01
0.464883325799D-03 0.000000000000D+00 -.111780985001D-04 0.221125033058D-04 0.000000000000D+00  6 2 -1 25 2 -1 21 2 0.28092160D+00 0.14629130D+00 0.27236057D+06 0.27236057D+06 0.27236057D+06 0.10876712D+01  1  2  3  1  6  1        2 0.257202802435D-03 0.100000000000D+01
-.215437085530D-02 0.000000000000D+00 0.000000000000D+00 0.221125033058D-04 0.000000000000D+00  6 2 -1 25 2 -1 21 2 0.28092160D+00 0.14629130D+00 0.27236057D+06 0.27236057D+06 0.27236057D+06 0.10876712D+01  1  2 15  1  6  1        2 -.119193395572D-02 0.100000000000D+01
-.318111330739D-03 0.000000000000D+00 0.000000000000D+00 0.221125033058D-04 0.000000000000D+00  6 2 -1 25 2 -1 21 2 0.28092160D+00 0.14629130D+00 0.27236057D+06 0.27236057D+06 0.27236057D+06 0.10876712D+01  1  2  4  1  6  1        2 -.175999269519D-03 0.100000000000D+01
-.127634192434D-01 0.000000000000D+00 -.256463854109D-02 0.221125033058D-04 0.000000000000D+00  6 2 -1 25 2 -1 21 2 0.36438648D+00 0.14629130D+00 0.27236057D+06 0.27236057D+06 0.27236057D+06 0.10876712D+01  1  2  5  1  6  1        2 -.353871599698D-02 0.100000000000D+01
0.130702318890D-01 0.000000000000D+00 0.248024208185D-02 0.221125033058D-04 0.000000000000D+00  6 2 -1 25 2 -1 21 2 0.28092160D+00 0.14629130D+00 0.27236057D+06 0.27236057D+06 0.27236057D+06 0.10876712D+01  1  2  6  1  6  1        2 0.723127736309D-02 0.100000000000D+01
-.398916124838D-03 0.000000000000D+00 -.893713573974D-04 0.221125033058D-04 0.000000000000D+00  6 21 -1 25 2 -1 -2 2 0.36438648D+00 0.14629130D+00 0.27236057D+06 0.27236057D+06 0.27236057D+06 0.10876712D+01  1  2  5  5  6  1        2 -.149231474109D-04 0.100000000000D+01
  </mgrwgt>
  </event>
  <event>
  5     66 -.19594695E-05 0.55206510E+02 0.75467711E-02 0.89507562E-01
        2 -1    0    0  502    0 0.00000000E+00 0.00000000E+00 0.12976263E+04 0.12976263E+04 0.32000000E+00 0.0000E+00 0.9000E+01
       -1 -1    0    0    0  501 0.00000000E+00 0.00000000E+00 -.97759807E+03 0.97759812E+03 0.32000000E+00 0.0000E+00 0.9000E+01
       25  1    1    2    0    0 -.71745403E+02 -.75521176E+03 0.12089163E+03 0.77828786E+03 0.12500000E+03 0.0000E+00 0.9000E+01
        2  1    1    2  502    0 0.12167009E+03 0.77876364E+03 0.66289402E+03 0.10299053E+04 0.32000000E+00 0.0000E+00 0.9000E+01
       -1  1    1    2    0  501 -.49924692E+02 -.23551886E+02 -.46375741E+03 0.46703127E+03 0.32000000E+00 0.0000E+00 0.9000E+01
#aMCatNLO 1  0  0  5  4 0.33917732D+02 0.00000000D+00  -5  6  0 0.00000000D+00 0.00000000D+00 0.00000000D+00 0.00000000D+00 0.00000000D+00
  <mgrwgt>
 -.3562776304D-04    1    2    0
 0.112630239138052D+04 0.000000000000000D+00 0.000000000000000D+00 0.112630239138052D+04
 0.112630239138052D+04 -.000000000000000D+00 -.000000000000000D+00 -.112630239138052D+04
 0.768897878562166D+03 -.717358271617577D+02 -.755180719082286D+03 0.116189623107729D+02
 0.946034226977244D+03 0.121665545609911D+03 0.778734528328788D+03 0.523211991464658D+03
 0.537672677221625D+03 -.499297184481536D+02 -.235538092465024D+02 -.534830953775431D+03
 0.000000000000000D+00 0.000000000000000D+00 0.000000000000000D+00 -.000000000000000D+00
 0.112630239138052D+04 0.000000000000000D+00 0.000000000000000D+00 0.112630239138052D+04
 0.112630239138052D+04 -.000000000000000D+00 -.000000000000000D+00 -.112630239138052D+04
 0.769604496841729D+03 -.731465191074698D+02 -.755846197879836D+03 -.349191237985810D+01
 0.935043049464177D+03 0.119940738027186D+03 0.777920868847960D+03 0.504736411925668D+03
 0.284768645120152D+03 -.370984176603494D+02 -.118175582500052D+03 -.256420397689885D+03
 0.263188591334976D+03 -.969580125936642D+01 0.961009115319275D+02 -.244824101855926D+03
-.398299108510D-04 0.000000000000D+00 0.000000000000D+00 0.150101252355D-05 0.000000000000D+00  6 2 -1 25 2 -1 21 2 0.19963482D+00 0.15039971D+00 0.64979562D+06 0.64979562D+06 0.64979562D+06 0.10605589D+01  1  2 14  4  6  5       -1 -.356277630370D-04 0.100000000000D+01
  </mgrwgt>
  </event>
  <event>
  5     66 0.19594695E-05 0.60040916E+02 0.75467711E-02 0.92271116E-01
        2 -1    0    0  502    0 0.00000000E+00 0.00000000E+00 0.14445934E+04 0.14445935E+04 0.32000000E+00 0.0000E+00 0.9000E+01
       -1 -1    0    0    0  501 0.00000000E+00 0.00000000E+00 -.12837836E+04 0.12837836E+04 0.32000000E+00 0.0000E+00 0.9000E+01
       25  1    1    2    0    0 0.43025260E+03 0.30920480E+03 0.74848317E+03 0.92551443E+03 0.12500000E+03 0.0000E+00 0.9000E+01
        2  1    1    2  502    0 0.30912995E+02 0.51498303E+02 0.53411486E+03 0.53748160E+03 0.32000000E+00 0.0000E+00 0.9000E+01
       -1  1    1    2    0  501 -.46116559E+03 -.36070310E+03 -.11217882E+04 0.12653810E+04 0.32000000E+00 0.0000E+00 0.9000E+01
#aMCatNLO 1  0  0  2  1 0.48154389D+02 0.00000000D+00  -5  6  0 0.00000000D+00 0.00000000D+00 0.00000000D+00 0.00000000D+00 0.00000000D+00
  <mgrwgt>
 0.2072034729D-02    9    4    0
 0.136181695369648D+04 0.000000000000000D+00 0.000000000000000D+00 0.136181695369648D+04
 0.136181695369648D+04 0.000000000000000D+00 0.000000000000000D+00 -.136181695369648D+04
 0.883120699651233D+03 0.430316285041984D+03 0.309264049752833D+03 0.695313463490119D+03
 0.506686984322270D+03 0.309010957960859D+02 0.514784799291660D+02 0.503117072324504D+03
 0.133382622341946D+04 -.461217380838069D+03 -.360742529681999D+03 -.119843053581462D+04
 0.000000000000000D+00 -.000000000000000D+00 0.000000000000000D+00 -.000000000000000D+00
 0.138430927328536D+04 0.000000000000000D+00 0.000000000000000D+00 0.138430927328536D+04
 0.138804973352305D+04 0.000000000000000D+00 0.000000000000000D+00 -.138804973352305D+04
 0.890847022315062D+03 0.445997008672416D+03 0.309207491681950D+03 0.695313463490119D+03
 0.507309221837883D+03 0.398641643312225D+02 0.514461514552069D+02 0.503117072324504D+03
 0.132590331956095D+04 -.437707097432832D+03 -.360827327826949D+03 -.119843053581462D+04
 0.482994430945133D+02 -.481540755708061D+02 0.173684689792239D+00 -.374046023769328D+01
 0.136181695369648D+04 0.000000000000000D+00 0.000000000000000D+00 0.136181695369648D+04
 0.136181695369648D+04 0.000000000000000D+00 0.000000000000000D+00 -.136181695369648D+04
 0.883120699651233D+03 0.430316285041984D+03 0.309264049752833D+03 0.695313463490119D+03
 0.506686984322270D+03 0.309010957960859D+02 0.514784799291660D+02 0.503117072324504D+03
 0.000000000000000D+00 -.000000000000000D+00 0.000000000000000D+00 -.000000000000000D+00
 0.133382622341946D+04 -.461217380838069D+03 -.360742529681999D+03 -.119843053581462D+04
 0.138430927328536D+04 0.000000000000000D+00 0.000000000000000D+00 0.138430927328536D+04
 0.138804973352305D+04 0.000000000000000D+00 0.000000000000000D+00 -.138804973352305D+04
 0.890847022315062D+03 0.445997008672416D+03 0.309207491681950D+03 0.695313463490119D+03
 0.507309221837883D+03 0.398641643312225D+02 0.514461514552069D+02 0.503117072324504D+03
 0.482994430945133D+02 -.481540755708061D+02 0.173684689792239D+00 -.374046023769328D+01
 0.132590331956095D+04 -.437707097432832D+03 -.360827327826949D+03 -.119843053581462D+04
0.163303537749D-02 0.000000000000D+00 0.000000000000D+00 0.153953954654D-04 0.000000000000D+00  6 2 -1 25 2 -1 21 0 0.22224515D+00 0.19750517D+00 0.35405167D+06 0.35405167D+06 0.35405167D+06 0.10792688D+01  1  2  2  2  6  2       -1 0.460746376794D-03 0.100000000000D+01
0.409829090894D-03 0.000000000000D+00 -.627128583764D-05 0.153953954654D-04 0.000000000000D+00  6 2 -1 25 2 -1 21 2 0.22224515D+00 0.19750517D+00 0.35405167D+06 0.35405167D+06 0.35405167D+06 0.10792688D+01  1  2  3  2  6  2       -1 0.134687838954D-03 0.100000000000D+01
-.117749001460D-02 0.000000000000D+00 0.000000000000D+00 0.153953954654D-04 0.000000000000D+00  6 2 -1 25 2 -1 21 2 0.22224515D+00 0.19750517D+00 0.35405167D+06 0.35405167D+06 0.35405167D+06 0.10792688D+01  1  2 15  2  6  2       -1 -.386974934138D-03 0.100000000000D+01
0.159012424880D-08 0.000000000000D+00 0.000000000000D+00 0.153953954654D-04 0.000000000000D+00  6 2 -1 25 2 -1 21 2 0.22224515D+00 0.20291174D+00 0.38279389D+06 0.38279389D+06 0.38279389D+06 0.10768069D+01  1  2 12  2  6  2       -1 0.467202410169D-09 0.100000000000D+01
-.757261317510D-04 0.000000000000D+00 0.000000000000D+00 0.153953954654D-04 0.000000000000D+00  6 2 -1 25 2 -1 21 2 0.22224515D+00 0.19750517D+00 0.35405167D+06 0.35405167D+06 0.35405167D+06 0.10792688D+01  1  2  4  2  6  2       -1 -.248869327836D-04 0.100000000000D+01
-.719891281588D-01 0.000000000000D+00 -.124863987266D-01 0.153953954654D-04 0.000000000000D+00  6 2 -1 25 2 -1 21 2 0.22224515D+00 0.20346077D+00 0.35405167D+06 0.35405167D+06 0.35405167D+06 0.10792688D+01  1  2  5  2  6  2       -1 -.211678824093D-01 0.100000000000D+01
0.723336650526D-01 0.000000000000D+00 0.124808905518D-01 0.153953954654D-04 0.000000000000D+00  6 2 -1 25 2 -1 21 2 0.22224515D+00 0.19750517D+00 0.35405167D+06 0.35405167D+06 0.35405167D+06 0.10792688D+01  1  2  6  2  6  2       -1 0.237720192295D-01 0.100000000000D+01
0.347931728225D-10 0.000000000000D+00 0.000000000000D+00 0.153953954654D-04 0.000000000000D+00  6 2 21 25 2 1 -1 2 0.22224515D+00 0.20291174D+00 0.38279389D+06 0.38279389D+06 0.38279389D+06 0.10768069D+01  3  4 12  6  5  2       -1 0.653245310905D-10 0.100000000000D+01
-.379738778936D-03 0.000000000000D+00 -.665555531532D-04 0.153953954654D-04 0.000000000000D+00  6 2 21 25 2 1 -1 2 0.22224515D+00 0.20346077D+00 0.35405167D+06 0.35405167D+06 0.35405167D+06 0.10792688D+01  3  4  5  6  5  2       -1 -.715674972735D-03 0.100000000000D+01
  </mgrwgt>
  </event>
  <event>
  6     66 0.19594695E-05 0.40630385E+02 0.75467711E-02 0.94123619E-01
        2 -1    0    0  502    0 0.00000000E+00 0.00000000E+00 0.10976821E+04 0.10976822E+04 0.32000000E+00 0.0000E+00 0.9000E+01
       -1 -1    0    0    0  501 0.00000000E+00 0.00000000E+00 -.69322932E+03 0.69322939E+03 0.32000000E+00 0.0000E+00 0.9000E+01
       25  1    1    2    0    0 -.25631792E+03 0.39911610E+03 -.19916641E+03 0.52941930E+03 0.12500000E+03 0.0000E+00 0.9000E+01
        2  1    1    2  503    0 0.20697806E+03 -.41357541E+03 0.71353586E+03 0.85030469E+03 0.32000000E+00 0.0000E+00 0.9000E+01
       -1  1    1    2    0  501 0.32536938E+02 0.46267379E+02 -.25526245E+03 0.26145428E+03 0.32000000E+00 0.0000E+00 0.9000E+01
       21  1    1    2  502  503 0.16802923E+02 -.31808067E+02 0.14534583E+03 0.14973331E+03 0.75000000E+00 0.0000E+00 0.9000E+01
#aMCatNLO 2  0  0  4  1 0.41171787D+02 0.00000000D+00  -5  6  0 0.00000000D+00 0.00000000D+00 0.00000000D+00 0.00000000D+00 0.00000000D+00
  <mgrwgt>
 0.6141548842D-02    3    2    0
 0.872321931032658D+03 0.000000000000000D+00 0.000000000000000D+00 0.872321931032658D+03
 0.872321931032658D+03 -.000000000000000D+00 -.000000000000000D+00 -.872321931032658D+03
 0.592182490170777D+03 -.257110067780132D+03 0.400647581769479D+03 -.329288672646399D+03
 0.823416208195428D+03 0.224995080289807D+03 -.447799848870525D+03 0.653350412195366D+03
 0.329045163699111D+03 0.321149874903250D+02 0.471522671010463D+02 -.324061739548967D+03
 0.000000000000000D+00 0.000000000000000D+00 0.000000000000000D+00 0.000000000000000D+00
 0.872321931032658D+03 0.000000000000000D+00 0.000000000000000D+00 0.872321931032658D+03
 0.872321931032658D+03 -.000000000000000D+00 -.000000000000000D+00 -.872321931032658D+03
 0.589512823408426D+03 -.256323524131292D+03 0.399082151420395D+03 -.327004673296205D+03
 0.707350220660422D+03 0.206961338889568D+03 -.413543048581736D+03 0.535250862533736D+03
 0.327714181011114D+03 0.325521305385047D+02 0.462822365623450D+02 -.322792344723317D+03
 0.120066636985354D+03 0.168100547032199D+02 -.318213394010036D+02 0.114546155485786D+03
-.256395602193D-07 0.000000000000D+00 0.000000000000D+00 0.409169923994D-05 0.000000000000D+00  6 2 -1 25 2 -1 21 2 0.16887419D+00 0.10665067D+00 0.27327552D+06 0.27327552D+06 0.27327552D+06 0.10875625D+01  1  2 13  3  6  4        2 -.805426790934D-07 0.100000000000D+01
-.225373587254D-02 0.000000000000D+00 0.000000000000D+00 0.409169923994D-05 0.000000000000D+00  6 2 -1 25 2 -1 21 2 0.16887419D+00 0.10665067D+00 0.27327552D+06 0.27327552D+06 0.27327552D+06 0.10875625D+01  1  2 13  3  6  4        2 -.707975969909D-02 0.100000000000D+01
0.420883195594D-02 0.000000000000D+00 0.000000000000D+00 0.409169923994D-05 0.493917331393D-07  6 2 -1 25 2 -1 21 2 0.16887419D+00 0.10665067D+00 0.27327552D+06 0.27327552D+06 0.27327552D+06 0.10875625D+01  1  2  1  3  6  4        2 0.132213890833D-01 0.100000000000D+01
  </mgrwgt>
  </event>
  <event>
  6     66 0.19594695E-05 0.49055341E+02 0.75467711E-02 0.94168364E-01
        2 -1    0    0  502    0 0.00000000E+00 0.00000000E+00 0.93179253E+03 0.93179259E+03 0.32000000E+00 0.0000E+00 0.9000E+01
       -1 -1    0    0    0  501 0.00000000E+00 0.00000000E+00 -.73822950E+03 0.73822957E+03 0.32000000E+00 0.0000E+00 0.9000E+01
       25  1    1    2    0    0 -.55296213E+02 0.50179472E+03 0.17988983E+03 0.55030988E+03 0.12500000E+03 0.0000E+00 0.9000E+01
        2  1    1    2  502    0 0.26636481E+02 -.29931230E+02 0.45770589E+03 0.45945638E+03 0.32000000E+00 0.0000E+00 0.9000E+01
       -1  1    1    2    0  503 0.59765320E+02 -.36206119E+03 -.38460793E+03 0.53158589E+03 0.32000000E+00 0.0000E+00 0.9000E+01
       21  1    1    2  503  501 -.31105588E+02 -.10980231E+03 -.59424763E+02 0.12867000E+03 0.75000000E+00 0.0000E+00 0.9000E+01
#aMCatNLO 2  0  0  5  2 0.16580159D+02 0.00000000D+00  -5  6  0 0.00000000D+00 0.00000000D+00 0.00000000D+00 0.00000000D+00 0.00000000D+00
  <mgrwgt>
 0.3387823501D-02    1    2    0
 0.829383406254439D+03 0.000000000000000D+00 0.000000000000000D+00 0.829383406254439D+03
 0.829383406254439D+03 -.000000000000000D+00 -.000000000000000D+00 -.829383406254439D+03
 0.535908718005535D+03 -.554364259025705D+02 0.504183381350808D+03 0.119578738441037D+03
 0.410881642938760D+03 0.265204262220012D+02 -.281398817907019D+02 0.409058111458339D+03
 0.711976451564583D+03 0.289159996805694D+02 -.476043499560107D+03 -.528636849899376D+03
 0.000000000000000D+00 0.000000000000000D+00 -.000000000000000D+00 0.000000000000000D+00
 0.829383406254439D+03 0.000000000000000D+00 0.000000000000000D+00 0.829383406254439D+03
 0.829383406254439D+03 -.000000000000000D+00 -.000000000000000D+00 -.829383406254439D+03
 0.533133481754076D+03 -.552951352567009D+02 0.501857316395149D+03 0.116995689513875D+03
 0.409043037072851D+03 0.266287920915891D+02 -.299239068412418D+02 0.407076987078466D+03
 0.580001610391192D+03 0.597934504245419D+02 -.362034016859512D+03 -.449174778877076D+03
 0.136588683290758D+03 -.311271072594300D+02 -.109899392694395D+03 -.748978977152643D+02
0.986533335614D-03 0.000000000000D+00 0.000000000000D+00 0.828568727617D-05 0.792232578985D-08  6 2 -1 25 2 -1 21 2 0.14335271D+00 0.11357378D+00 0.27110527D+06 0.27110527D+06 0.27110527D+06 0.10878210D+01  1  2  1  4  6  5       -1 0.338782350126D-02 0.100000000000D+01
  </mgrwgt>
  </event>
  <event>
  6     66 -.19594695E-05 0.29050541E+02 0.75467711E-02 0.94802388E-01
        2 -1    0    0  502    0 0.00000000E+00 0.00000000E+00 0.24763541E+04 0.24763541E+04 0.32000000E+00 0.0000E+00 0.9000E+01
       -1 -1    0    0    0  503 0.00000000E+00 0.00000000E+00 -.76798000E+03 0.76798007E+03 0.32000000E+00 0.0000E+00 0.9000E+01
       25  1    1    2    0    0 -.24543684E+03 0.40232173E+03 0.14462162E+03 0.50856900E+03 0.12500000E+03 0.0000E+00 0.9000E+01
        2  1    1    2  502    0 -.29443981E+01 -.33766782E+02 0.20574475E+04 0.20577267E+04 0.32000000E+00 0.0000E+00 0.9000E+01
       -1  1    1    2    0  501 0.25012550E+03 -.37808288E+03 -.47292581E+03 0.65510942E+03 0.32000000E+00 0.0000E+00 0.9000E+01
       21  1    1    2  501  503 -.17442570E+01 0.95279336E+01 -.20769161E+02 0.22929119E+02 0.75000000E+00 0.0000E+00 0.9000E+01
#aMCatNLO 2  0  0  2  5 0.96862764D+01 0.00000000D+00  -5  6  0 0.00000000D+00 0.00000000D+00 0.00000000D+00 0.00000000D+00 0.00000000D+00
  <mgrwgt>
 -.2110920602D-02    6    2    0
 0.135899048057790D+04 0.000000000000000D+00 0.000000000000000D+00 0.135899048057790D+04
 0.135899048057790D+04 0.000000000000000D+00 0.000000000000000D+00 -.135899048057790D+04
 0.512354481859855D+03 -.245788127632517D+03 0.404149139245556D+03 -.152097944245995D+03
 0.112978028606600D+04 -.366935727877592D+01 -.298049084900016D+02 0.112938111283589D+04
 0.107584619322994D+04 0.249457484911293D+03 -.374344230755555D+03 -.977283168589899D+03
 0.000000000000000D+00 -.000000000000000D+00 0.000000000000000D+00 -.000000000000000D+00
 0.135958857044121D+04 0.000000000000000D+00 0.000000000000000D+00 0.135958857044121D+04
 0.139879144453247D+04 0.000000000000000D+00 0.000000000000000D+00 -.139879144453247D+04
 0.510783249116904D+03 -.245459830716974D+03 0.402355830626273D+03 -.152097944245995D+03
 0.112988958730072D+04 -.294429101730251D+01 -.337655536093776D+02 0.112938111283589D+04
 0.107732538454499D+04 0.250148378782388D+03 -.378118210575000D+03 -.977283168589899D+03
 0.403817940110718D+02 -.174425704811183D+01 0.952793355810394D+01 -.392028740912589D+02
-.241195872389D-09 0.000000000000D+00 0.000000000000D+00 0.189862022720D-03 0.000000000000D+00  6 2 -1 25 2 -1 21 2 0.38080900D+00 0.11817534D+00 0.24234246D+06 0.24234246D+06 0.24234246D+06 0.10914770D+01  1  2 13  2  6  2       -1 -.103275656025D-09 0.100000000000D+01
-.102166854547D-01 0.000000000000D+00 0.000000000000D+00 0.189862022720D-03 0.000000000000D+00  6 2 -1 25 2 -1 21 2 0.38080900D+00 0.11885215D+00 0.24234246D+06 0.24234246D+06 0.24234246D+06 0.10914770D+01  1  2 13  2  6  2       -1 -.431402288004D-02 0.100000000000D+01
-.296404001282D-01 0.000000000000D+00 0.000000000000D+00 0.189862022720D-03 0.000000000000D+00  6 2 -1 25 2 -1 21 2 0.38080900D+00 0.11478864D+00 0.23480577D+06 0.23480577D+06 0.23480577D+06 0.10925136D+01  1  2  8  2  6  2       -1 -.136759105927D-01 0.100000000000D+01
-.626611104016D-01 0.000000000000D+00 0.000000000000D+00 0.189862022720D-03 0.000000000000D+00  6 2 -1 25 2 -1 21 2 0.38080900D+00 0.11817383D+00 0.23480577D+06 0.23480577D+06 0.23480577D+06 0.10925136D+01  1  2  9  2  6  2       -1 -.269554138436D-01 0.100000000000D+01
0.626346540586D-01 0.000000000000D+00 0.000000000000D+00 0.189862022720D-03 0.000000000000D+00  6 2 -1 25 2 -1 21 2 0.38080900D+00 0.11478864D+00 0.23480577D+06 0.23480577D+06 0.23480577D+06 0.10925136D+01  1  2 10  2  6  2       -1 0.288992700909D-01 0.100000000000D+01
0.325752838358D-01 0.000000000000D+00 0.000000000000D+00 0.189862022720D-03 0.515639654356D-05  6 2 -1 25 2 -1 21 2 0.38097659D+00 0.11815047D+00 0.24234246D+06 0.24234246D+06 0.24234246D+06 0.10914770D+01  1  2  1  2  6  2       -1 0.139351567269D-01 0.100000000000D+01
  </mgrwgt>
  </event>
  <event>
  6     66 -.19594695E-05 0.10951850E+03 0.75467711E-02 0.93377812E-01
        2 -1    0    0  502    0 0.00000000E+00 0.00000000E+00 0.22979354E+04 0.22979354E+04 0.32000000E+00 0.0000E+00 0.9000E+01
       -1 -1    0    0    0  503 0.00000000E+00 0.00000000E+00 -.10587570E+04 0.10587571E+04 0.32000000E+00 0.0000E+00 0.9000E+01
       25  1    1    2    0    0 -.45009736E+03 0.11305800E+03 -.34232086E+03 0.59006637E+03 0.12500000E+03 0.0000E+00 0.9000E+01
        2  1    1    2  502    0 -.15402501E+02 -.12701811E+03 0.20565938E+04 0.20605700E+04 0.32000000E+00 0.0000E+00 0.9000E+01
       -1  1    1    2    0  501 0.47197749E+03 -.22322539E+02 -.38770290E+03 0.61120756E+03 0.32000000E+00 0.0000E+00 0.9000E+01
       21  1    1    2  501  503 -.64776264E+01 0.36282654E+02 -.87391599E+02 0.94848535E+02 0.75000000E+00 0.0000E+00 0.9000E+01
#aMCatNLO 2  0  0  2  5 0.36856352D+02 0.00000000D+00  -5  6  0 0.00000000D+00 0.00000000D+00 0.00000000D+00 0.00000000D+00 0.00000000D+00
  <mgrwgt>
 -.2273140306D-02    6    2    0
 0.148983888396659D+04 0.000000000000000D+00 0.000000000000000D+00 0.148983888396659D+04
 0.148983888396659D+04 0.000000000000000D+00 0.000000000000000D+00 -.148983888396659D+04
 0.800711137258336D+03 -.451866972321671D+03 0.122796200174937D+03 -.637377955280053D+03
 0.133855889977878D+04 -.183136350496675D+02 -.110709026719506D+03 0.133384708656992D+04
 0.840407730896068D+03 0.470180607371338D+03 -.120871734554304D+02 -.696469131289863D+03
 0.000000000000000D+00 -.000000000000000D+00 0.000000000000000D+00 -.000000000000000D+00
 0.149237328863069D+04 0.000000000000000D+00 0.000000000000000D+00 0.149237328863069D+04
 0.163025708426986D+04 0.000000000000000D+00 0.000000000000000D+00 -.163025708426986D+04
 0.798294806056174D+03 -.450128971143164D+03 0.113061261433262D+03 -.637377955280053D+03
 0.133996955275707D+04 -.154022727582170D+02 -.127016227147555D+03 0.133384708656992D+04
 0.841641342944488D+03 0.472008870289850D+03 -.223276886722698D+02 -.696469131289863D+03
 0.142724671142827D+03 -.647762638846839D+01 0.362826543865626D+02 -.137883795639171D+03
-.682577278721D-08 0.000000000000D+00 0.000000000000D+00 0.142823624349D-04 0.000000000000D+00  6 2 -1 25 2 -1 21 2 0.35292792D+00 0.16300534D+00 0.31247496D+06 0.31247496D+06 0.31247496D+06 0.10832452D+01  1  2 13  2  6  2       -1 -.148546794968D-08 0.100000000000D+01
-.237048709798D-01 0.000000000000D+00 0.000000000000D+00 0.142823624349D-04 0.000000000000D+00  6 2 -1 25 2 -1 21 2 0.35292792D+00 0.16556760D+00 0.31247496D+06 0.31247496D+06 0.31247496D+06 0.10832452D+01  1  2 13  2  6  2       -1 -.491535048167D-02 0.100000000000D+01
-.352893850531D-03 0.000000000000D+00 0.000000000000D+00 0.142823624349D-04 0.000000000000D+00  6 2 -1 25 2 -1 21 2 0.35292792D+00 0.14885584D+00 0.28472981D+06 0.28472981D+06 0.28472981D+06 0.10862344D+01  1  2  8  2  6  2       -1 -.101937684871D-03 0.100000000000D+01
-.412909539379D-03 0.000000000000D+00 0.000000000000D+00 0.142823624349D-04 0.000000000000D+00  6 2 -1 25 2 -1 21 2 0.35292792D+00 0.16300004D+00 0.28472981D+06 0.28472981D+06 0.28472981D+06 0.10862344D+01  1  2  9  2  6  2       -1 -.911584812634D-04 0.100000000000D+01
0.411214259869D-03 0.000000000000D+00 0.000000000000D+00 0.142823624349D-04 0.000000000000D+00  6 2 -1 25 2 -1 21 2 0.35292792D+00 0.14885584D+00 0.28472981D+06 0.28472981D+06 0.28472981D+06 0.10862344D+01  1  2 10  2  6  2       -1 0.118784245104D-03 0.100000000000D+01
0.125175964959D-01 0.000000000000D+00 0.000000000000D+00 0.142823624349D-04 0.326813854931D-07  6 2 -1 25 2 -1 21 2 0.35352830D+00 0.16288559D+00 0.31247496D+06 0.31247496D+06 0.31247496D+06 0.10832452D+01  1  2  1  2  6  2       -1 0.271652358201D-02 0.100000000000D+01
  </mgrwgt>
  </event>
  <event>
  5     66 0.19594695E-05 0.25562379E+02 0.75467711E-02 0.92429671E-01
        2 -1    0    0  502    0 0.00000000E+00 0.00000000E+00 0.12768986E+04 0.12768986E+04 0.32000000E+00 0.0000E+00 0.9000E+01
       -1 -1    0    0    0  501 0.00000000E+00 0.00000000E+00 -.53839922E+03 0.53839932E+03 0.32000000E+00 0.0000E+00 0.9000E+01
       25  1    1    2    0    0 0.25764331E+03 0.46146952E+03 0.63502656E+02 0.54680141E+03 0.12500000E+03 0.0000E+00 0.9000E+01
        2  1    1    2  502    0 -.24482048E+03 -.48358162E+03 0.89536771E+03 0.10466478E+04 0.32000000E+00 0.0000E+00 0.9000E+01
       -1  1    1    2    0  501 -.12822837E+02 0.22112096E+02 -.22037099E+03 0.22184870E+03 0.32000000E+00 0.0000E+00 0.9000E+01
#aMCatNLO 1  0  0  5  4 0.79257726D+02 0.00000000D+00  -5  6  0 0.00000000D+00 0.00000000D+00 0.00000000D+00 0.00000000D+00 0.00000000D+00
  <mgrwgt>
 0.1057491464D-02    6    2    0
 0.829144937897791D+03 0.000000000000000D+00 0.000000000000000D+00 0.829144937897791D+03
 0.829144937897791D+03 -.000000000000000D+00 -.000000000000000D+00 -.829144937897791D+03
 0.570278260320968D+03 0.257641503169629D+03 0.461463276559008D+03 -.173967797096558D+03
 0.746995797586241D+03 -.244817811872393D+03 -.483576352728600D+03 0.514024193674989D+03
 0.341015817888374D+03 -.128236912972356D+02 0.221130761695924D+02 -.340056396578432D+03
 0.000000000000000D+00 -.000000000000000D+00 0.000000000000000D+00 0.000000000000000D+00
 0.829144937897791D+03 0.000000000000000D+00 0.000000000000000D+00 0.829144937897791D+03
 0.829144937897791D+03 -.000000000000000D+00 -.000000000000000D+00 -.829144937897791D+03
 0.573476801896343D+03 0.257294673469354D+03 0.462061347067903D+03 -.183164966255426D+03
 0.738468394888062D+03 -.245268260677093D+03 -.482799602220658D+03 0.502079271279505D+03
 0.141924027157053D+03 0.603731300861122D+02 0.102951106835223D+02 -.128029392500688D+03
 0.204420651854125D+03 -.723995428783738D+02 0.104431444692330D+02 -.190884912523391D+03
0.176993191675D-03 0.000000000000D+00 0.000000000000D+00 0.578427752569D-05 0.000000000000D+00  6 2 -1 25 2 -1 21 0 0.19644595D+00 0.82830660D-01 0.30839926D+06 0.30839926D+06 0.30839926D+06 0.10836658D+01  1  2  2  4  6  5       -1 0.638096769886D-03 0.100000000000D+01
0.973266139250D-04 0.000000000000D+00 -.679700459409D-06 0.578427752569D-05 0.000000000000D+00  6 2 -1 25 2 -1 21 2 0.19644595D+00 0.82830660D-01 0.30839926D+06 0.30839926D+06 0.30839926D+06 0.10836658D+01  1  2  3  4  6  5       -1 0.412052256905D-03 0.100000000000D+01
-.122861540802D-03 0.000000000000D+00 0.000000000000D+00 0.578427752569D-05 0.000000000000D+00  6 2 -1 25 2 -1 21 2 0.19644595D+00 0.82830660D-01 0.30839926D+06 0.30839926D+06 0.30839926D+06 0.10836658D+01  1  2 15  4  6  5       -1 -.520159626771D-03 0.100000000000D+01
-.120622210440D-04 0.000000000000D+00 0.000000000000D+00 0.578427752569D-05 0.000000000000D+00  6 2 -1 25 2 -1 21 2 0.19644595D+00 0.82830660D-01 0.30839926D+06 0.30839926D+06 0.30839926D+06 0.10836658D+01  1  2  4  4  6  5       -1 -.510678960670D-04 0.100000000000D+01
-.147695354048D-03 0.000000000000D+00 0.000000000000D+00 0.578427752569D-05 0.000000000000D+00  6 2 -1 25 2 -1 21 2 0.19644595D+00 0.82830660D-01 0.30839926D+06 0.30839926D+06 0.30839926D+06 0.10836658D+01  1  2  5  4  6  5       -1 -.625298687743D-03 0.100000000000D+01
0.284353397209D-03 0.000000000000D+00 -.000000000000D+00 0.578427752569D-05 0.000000000000D+00  6 2 -1 25 2 -1 21 2 0.19644595D+00 0.82830660D-01 0.30839926D+06 0.30839926D+06 0.30839926D+06 0.10836658D+01  1  2  6  4  6  5       -1 0.120386864757D-02 0.100000000000D+01
  </mgrwgt>
  </event>
  <event>
  5     66 0.19594695E-05 0.42874730E+02 0.75467711E-02 0.92292314E-01
        2 -1    0    0  502    0 0.00000000E+00 0.00000000E+00 0.45108906E+03 0.45108917E+03 0.32000000E+00 0.0000E+00 0.9000E+01
       -1 -1    0    0    0  501 -.00000000E+00 -.00000000E+00 -.11891668E+04 0.11891669E+04 0.32000000E+00 0.0000E+00 0.9000E+01
       25  1    1    2    0    0 -.12349927E+03 -.50105627E+03 0.99699122E+02 0.54025399E+03 0.12500000E+03 0.0000E+00 0.9000E+01
        2  1    1    2  502    0 0.10110727E+03 0.53761161E+03 -.44578297E+03 0.70567094E+03 0.32000000E+00 0.0000E+00 0.9000E+01
       -1  1    1    2    0  501 0.22391993E+02 -.36555338E+02 -.39199393E+03 0.39433113E+03 0.32000000E+00 0.0000E+00 0.9000E+01
#aMCatNLO 1  0  0  5  2 0.20238678D+02 0.00000000D+00  -5  6  0 0.00000000D+00 0.00000000D+00 0.00000000D+00 0.00000000D+00 0.00000000D+00
  <mgrwgt>
 0.5800918906D-03    6    2    0
 0.732407182938182D+03 0.000000000000000D+00 0.000000000000000D+00 0.732407182938182D+03
 0.732407182938182D+03 -.000000000000000D+00 -.000000000000000D+00 -.732407182938182D+03
 0.655183854242349D+03 -.123494047871554D+03 -.501003712264537D+03 0.383908040157159D+03
 0.565522510203109D+03 0.101098376513191D+03 0.537564297067588D+03 -.143594757324399D+03
 0.244108001430905D+03 0.223956713583633D+02 -.365605848030507D+02 -.240313282832760D+03
 0.000000000000000D+00 0.000000000000000D+00 -.000000000000000D+00 0.000000000000000D+00
 0.732407182938182D+03 0.000000000000000D+00 0.000000000000000D+00 0.732407182938182D+03
 0.732407182938182D+03 -.000000000000000D+00 -.000000000000000D+00 -.732407182938182D+03
 0.644234890866821D+03 -.121336376219197D+03 -.504526077643134D+03 0.360755478675255D+03
 0.568432368636276D+03 0.102981297093129D+03 0.534490458536977D+03 -.163799144977609D+03
 0.103942074075366D+03 0.450645847959365D+02 0.531008074100739D+02 -.771585524271747D+02
 0.148205032297900D+03 -.267095056698678D+02 -.830651883039174D+02 -.119797781270471D+03
0.513842475469D-03 0.000000000000D+00 0.000000000000D+00 0.778885041849D-07 0.000000000000D+00  6 2 -1 25 2 -1 21 0 0.69398329D-01 0.18294876D+00 0.31404103D+06 0.31404103D+06 0.31404103D+06 0.10830852D+01  1  2  2  4  6  5       -1 0.928776208546D-03 0.100000000000D+01
0.147577584706D-03 0.000000000000D+00 -.197329040363D-05 0.778885041849D-07 0.000000000000D+00  6 2 -1 25 2 -1 21 2 0.69398329D-01 0.18294876D+00 0.31404103D+06 0.31404103D+06 0.31404103D+06 0.10830852D+01  1  2  3  4  6  5       -1 0.312915250145D-03 0.100000000000D+01
-.379914651497D-03 0.000000000000D+00 0.000000000000D+00 0.778885041849D-07 0.000000000000D+00  6 2 -1 25 2 -1 21 2 0.69398329D-01 0.18294876D+00 0.31404103D+06 0.31404103D+06 0.31404103D+06 0.10830852D+01  1  2 15  4  6  5       -1 -.805549761798D-03 0.100000000000D+01
-.126628960023D-03 0.000000000000D+00 0.000000000000D+00 0.778885041849D-07 0.000000000000D+00  6 2 -1 25 2 -1 21 2 0.69398329D-01 0.18294876D+00 0.31404103D+06 0.31404103D+06 0.31404103D+06 0.10830852D+01  1  2  4  4  6  5       -1 -.268496958939D-03 0.100000000000D+01
-.167803294217D-03 0.000000000000D+00 0.000000000000D+00 0.778885041849D-07 0.000000000000D+00  6 2 -1 25 2 -1 21 2 0.69398329D-01 0.18294876D+00 0.31404103D+06 0.31404103D+06 0.31404103D+06 0.10830852D+01  1  2  5  4  6  5       -1 -.355800712482D-03 0.100000000000D+01
0.362322272048D-03 0.000000000000D+00 -.000000000000D+00 0.778885041849D-07 0.000000000000D+00  6 2 -1 25 2 -1 21 2 0.69398329D-01 0.18294876D+00 0.31404103D+06 0.31404103D+06 0.31404103D+06 0.10830852D+01  1  2  6  4  6  5       -1 0.768247865125D-03 0.100000000000D+01
  </mgrwgt>
  </event>
  <event>
  5     66 0.19594695E-05 0.43237629E+02 0.75467711E-02 0.93983410E-01
        2 -1    0    0  502    0 0.00000000E+00 0.00000000E+00 0.16868210E+04 0.16868210E+04 0.32000000E+00 0.0000E+00 0.9000E+01
       -1 -1    0    0    0  501 0.00000000E+00 0.00000000E+00 -.26875735E+03 0.26875754E+03 0.32000000E+00 0.0000E+00 0.9000E+01
       25  1    1    2    0    0 0.38373480E+03 0.29220836E+03 0.37142425E+03 0.62146529E+03 0.12500000E+03 0.0000E+00 0.9000E+01
        2  1    1    2  502    0 -.39532852E+03 -.33386374E+03 0.11285327E+04 0.12415055E+04 0.32000000E+00 0.0000E+00 0.9000E+01
       -1  1    1    2    0  501 0.11593719E+02 0.41655377E+02 -.81893336E+02 0.92607805E+02 0.32000000E+00 0.0000E+00 0.9000E+01
#aMCatNLO 1  0  0  5  4 0.95976193D+01 0.00000000D+00  -5  6  0 0.00000000D+00 0.00000000D+00 0.00000000D+00 0.00000000D+00 0.00000000D+00
  <mgrwgt>
 0.1052574433D-02    8    2    0
 0.673309555852173D+03 0.000000000000000D+00 0.000000000000000D+00 0.673309555852173D+03
 0.673309555852173D+03 -.000000000000000D+00 -.000000000000000D+00 -.673309555852173D+03
 0.511374263034706D+03 0.383736534276091D+03 0.292210452633742D+03 -.115056336321156D+03
 0.614526325168829D+03 -.395329826773185D+03 -.333864841231329D+03 0.331498416555144D+03
 0.220718523500811D+03 0.115932924970942D+02 0.416543885975881D+02 -.216442080233988D+03
 0.000000000000000D+00 0.000000000000000D+00 0.000000000000000D+00 -.000000000000000D+00
 0.673309555852173D+03 0.000000000000000D+00 0.000000000000000D+00 0.673309555852173D+03
 0.673309555852173D+03 -.000000000000000D+00 -.000000000000000D+00 -.673309555852173D+03
 0.511652031609327D+03 0.383776123962680D+03 0.292352697314453D+03 -.115795459751653D+03
 0.613924544667096D+03 -.395282287442885D+03 -.333694033694256D+03 0.330610876493013D+03
 0.272664770094473D+02 0.254341367639994D+01 0.141546564610129D+02 -.231654379593421D+02
 0.193776058418476D+03 0.896274980380450D+01 0.271866799187895D+02 -.191649978782019D+03
0.655512491189D-04 0.000000000000D+00 0.000000000000D+00 0.941379936303D-06 0.000000000000D+00  6 2 -1 25 2 -1 21 0 0.25951094D+00 0.41347302D-01 0.28034234D+06 0.28034234D+06 0.28034234D+06 0.10867362D+01  1  2  2  4  6  5       -1 0.524262781016D-03 0.100000000000D+01
0.197288815665D-04 0.000000000000D+00 -.251734056657D-06 0.941379936303D-06 0.000000000000D+00  6 2 -1 25 2 -1 21 2 0.25951094D+00 0.41347302D-01 0.28034234D+06 0.28034234D+06 0.28034234D+06 0.10867362D+01  1  2  3  4  6  5       -1 0.186345432526D-03 0.100000000000D+01
-.465890674113D-04 0.000000000000D+00 0.000000000000D+00 0.941379936303D-06 0.000000000000D+00  6 2 -1 25 2 -1 21 2 0.25951094D+00 0.41347302D-01 0.28034234D+06 0.28034234D+06 0.28034234D+06 0.10867362D+01  1  2 15  4  6  5       -1 -.440048255572D-03 0.100000000000D+01
0.187778763063D-07 0.000000000000D+00 0.000000000000D+00 0.941379936303D-06 0.000000000000D+00  6 2 -1 25 2 -1 21 2 0.25951094D+00 0.41347302D-01 0.28020316D+06 0.28020316D+06 0.28020316D+06 0.10867522D+01  1  2 12  4  6  5       -1 0.177371946576D-06 0.100000000000D+01
-.122166210990D-03 0.000000000000D+00 0.000000000000D+00 0.941379936303D-06 0.000000000000D+00  6 2 -1 25 2 -1 21 2 0.25951094D+00 0.41347302D-01 0.28034234D+06 0.28034234D+06 0.28034234D+06 0.10867362D+01  1  2  4  4  6  5       -1 -.115389792119D-02 0.100000000000D+01
-.120480612936D-03 0.000000000000D+00 0.000000000000D+00 0.941379936303D-06 0.000000000000D+00  6 2 -1 25 2 -1 21 2 0.25951094D+00 0.41347302D-01 0.28034234D+06 0.28034234D+06 0.28034234D+06 0.10867362D+01  1  2  5  4  6  5       -1 -.113797692246D-02 0.100000000000D+01
0.325421408634D-03 0.000000000000D+00 -.000000000000D+00 0.941379936303D-06 0.000000000000D+00  6 2 -1 25 2 -1 21 2 0.25951094D+00 0.41347302D-01 0.28034234D+06 0.28034234D+06 0.28034234D+06 0.10867362D+01  1  2  6  4  6  5       -1 0.307370658294D-02 0.100000000000D+01
0.567891201568D-09 0.000000000000D+00 0.000000000000D+00 0.941379936303D-06 0.558535860343D-08  6 2 -1 25 2 -1 21 2 0.25951094D+00 0.41347302D-01 0.28020316D+06 0.28020316D+06 0.28020316D+06 0.10867522D+01  1  2 11  4  6  5       -1 0.536418316014D-08 0.100000000000D+01
  </mgrwgt>
  </event>
  <event>
  5     66 -.19594695E-05 0.21072274E+02 0.75467711E-02 0.90878531E-01
        2 -1    0    0  502    0 0.00000000E+00 0.00000000E+00 0.24917266E+04 0.24917266E+04 0.32000000E+00 0.0000E+00 0.9000E+01
       -1 -1    0    0    0  501 0.00000000E+00 0.00000000E+00 -.46068638E+03 0.46068649E+03 0.32000000E+00 0.0000E+00 0.9000E+01
       25  1    1    2    0    0 -.63793427E+03 0.28230471E+03 0.17121469E+04 0.18530321E+04 0.12500000E+03 0.0000E+00 0.9000E+01
        2  1    1    2  502    0 0.10060902E+02 -.18550969E+02 0.41154446E+03 0.41208531E+03 0.32000000E+00 0.0000E+00 0.9000E+01
       -1  1    1    2    0  501 0.62787337E+03 -.26375374E+03 -.92651137E+02 0.68729567E+03 0.32000000E+00 0.0000E+00 0.9000E+01
#aMCatNLO 1  0  0  1  4 0.39940880D+02 0.00000000D+00  -5  6  0 0.00000000D+00 0.00000000D+00 0.00000000D+00 0.00000000D+00 0.00000000D+00
  <mgrwgt>
 -.9852436234D-04    1    2    0
 0.107140314537844D+04 0.000000000000000D+00 0.000000000000000D+00 0.107140314537844D+04
 0.107140314537844D+04 0.000000000000000D+00 0.000000000000000D+00 -.107140314537844D+04
 0.930524892738105D+03 -.638015096859937D+03 0.282320763005482D+03 0.602895761272268D+03
 0.177439103643751D+03 0.100459869784311D+02 -.185234684821747D+02 0.176183412280830D+03
 0.103484229437502D+04 0.627969109881506D+03 -.263797294523307D+03 -.779079173553098D+03
 0.000000000000000D+00 -.000000000000000D+00 0.000000000000000D+00 -.000000000000000D+00
 0.108747547212553D+04 0.000000000000000D+00 0.000000000000000D+00 0.108747547212553D+04
 0.193334265124885D+04 0.000000000000000D+00 0.000000000000000D+00 -.193334265124885D+04
 0.869913325645601D+03 -.560981782679179D+03 0.250879123638877D+03 0.602895761272268D+03
 0.179708442661274D+03 0.253268551928929D+02 -.247604524769219D+02 0.176183412280830D+03
 0.110235645720992D+04 0.719411016199938D+03 -.301119892830744D+03 -.779079173553098D+03
 0.868839897857593D+03 -.183756088713652D+03 0.750012216687889D+02 -.845867179123320D+03
-.853306622262D-04 0.000000000000D+00 0.000000000000D+00 0.291266211180D-05 0.000000000000D+00  6 2 -1 25 2 -1 21 2 0.38334256D+00 0.70874838D-01 0.49772778D+06 0.49772778D+06 0.49772778D+06 0.10686502D+01  1  2 14  1  6  1        2 -.985243623429D-04 0.100000000000D+01
  </mgrwgt>
  </event>
  <event>
  5     66 0.19594695E-05 0.25841159E+03 0.75467711E-02 0.91757302E-01
        2 -1    0    0  502    0 0.00000000E+00 0.00000000E+00 0.24814107E+04 0.24814107E+04 0.32000000E+00 0.0000E+00 0.9000E+01
       -1 -1    0    0    0  501 0.00000000E+00 0.00000000E+00 -.31675632E+03 0.31675649E+03 0.32000000E+00 0.0000E+00 0.9000E+01
       25  1    1    2    0    0 0.36845548E+03 0.40743091E+03 0.24372599E+03 0.61382958E+03 0.12500000E+03 0.0000E+00 0.9000E+01
        2  1    1    2  502    0 -.26590609E+03 -.17028730E+03 0.18989655E+04 0.19250387E+04 0.32000000E+00 0.0000E+00 0.9000E+01
       -1  1    1    2    0  501 -.10254939E+03 -.23714360E+03 0.21962859E+02 0.25929893E+03 0.32000000E+00 0.0000E+00 0.9000E+01
#aMCatNLO 1  0  0  4  5 0.18235655D+03 0.00000000D+00  -5  6  0 0.00000000D+00 0.00000000D+00 0.00000000D+00 0.00000000D+00 0.00000000D+00
  <mgrwgt>
 0.2950509464D-04    7    2    0
 0.886567975938684D+03 0.000000000000000D+00 0.000000000000000D+00 0.886567975938684D+03
 0.886567975938684D+03 -.000000000000000D+00 -.000000000000000D+00 -.886567975938684D+03
 0.671117221716211D+03 0.368465380931876D+03 0.407459229575290D+03 -.364669116560101D+03
 0.719574913308470D+03 -.265891122598088D+03 -.170277719275831D+03 0.646603019715066D+03
 0.382443816852687D+03 -.102574258333788D+03 -.237181510299459D+03 -.281933903154965D+03
 0.000000000000000D+00 0.000000000000000D+00 0.000000000000000D+00 0.000000000000000D+00
 0.886567975938684D+03 0.000000000000000D+00 0.000000000000000D+00 0.886567975938684D+03
 0.886567975938684D+03 -.000000000000000D+00 -.000000000000000D+00 -.886567975938684D+03
 0.633338010145942D+03 0.351520529517456D+03 0.396607680173708D+03 -.323462054112407D+03
 0.535366337828518D+03 -.327914542349555D+03 -.201092088462062D+03 0.372358886765936D+03
 0.372175136833228D+03 -.112376745787849D+03 -.243459061767134D+03 -.258095882815731D+03
 0.232256467069682D+03 0.887707586199475D+02 0.479434700554876D+02 0.209199050162202D+03
0.371113123354D-04 0.000000000000D+00 0.000000000000D+00 0.156039619142D-06 0.000000000000D+00  6 2 -1 25 2 -1 21 0 0.38175550D+00 0.48731756D-01 0.32350424D+06 0.32350424D+06 0.32350424D+06 0.10821365D+01  1  2  2  3  6  4        2 0.795292147212D-04 0.100000000000D+01
0.207882781545D-05 0.000000000000D+00 -.142517211001D-06 0.156039619142D-06 0.000000000000D+00  6 2 -1 25 2 -1 21 2 0.38175550D+00 0.48731756D-01 0.32350424D+06 0.32350424D+06 0.32350424D+06 0.10821365D+01  1  2  3  3  6  4        2 0.521678586201D-05 0.100000000000D+01
-.300787004789D-04 0.000000000000D+00 0.000000000000D+00 0.156039619142D-06 0.000000000000D+00  6 2 -1 25 2 -1 21 2 0.38175550D+00 0.48731756D-01 0.32350424D+06 0.32350424D+06 0.32350424D+06 0.10821365D+01  1  2 15  3  6  4        2 -.754820280157D-04 0.100000000000D+01
0.104406411119D-07 0.000000000000D+00 0.000000000000D+00 0.156039619142D-06 0.000000000000D+00  6 2 -1 25 2 -1 21 2 0.38175550D+00 0.48731756D-01 0.42133424D+06 0.42133424D+06 0.42133424D+06 0.10738046D+01  1  2 12  3  6  4        2 0.253730655828D-07 0.100000000000D+01
-.413875730365D-05 0.000000000000D+00 0.000000000000D+00 0.156039619142D-06 0.000000000000D+00  6 2 -1 25 2 -1 21 2 0.38175550D+00 0.48731756D-01 0.32350424D+06 0.32350424D+06 0.32350424D+06 0.10821365D+01  1  2  4  3  6  4        2 -.103861466676D-04 0.100000000000D+01
-.328569934753D-04 0.000000000000D+00 0.000000000000D+00 0.156039619142D-06 0.000000000000D+00  6 2 -1 25 2 -1 21 2 0.38175550D+00 0.48731756D-01 0.32350424D+06 0.32350424D+06 0.32350424D+06 0.10821365D+01  1  2  5  3  6  4        2 -.824541108003D-04 0.100000000000D+01
0.450514890146D-04 0.000000000000D+00 -.000000000000D+00 0.156039619142D-06 0.000000000000D+00  6 2 -1 25 2 -1 21 2 0.38175550D+00 0.48731756D-01 0.32350424D+06 0.32350424D+06 0.32350424D+06 0.10821365D+01  1  2  6  3  6  4        2 0.113056006470D-03 0.100000000000D+01
  </mgrwgt>
  </event>
  <event>
  6     66 0.19594695E-05 0.21171194E+03 0.75467711E-02 0.94249047E-01
        2 -1    0    0  502    0 0.00000000E+00 0.00000000E+00 0.43171983E+04 0.43171983E+04 0.32000000E+00 0.0000E+00 0.9000E+01
       21 -1    0    0  503  501 0.00000000E+00 0.00000000E+00 -.32816767E+03 0.32816853E+03 0.75000000E+00 0.0000E+00 0.9000E+01
       25  1    1    2    0    0 0.45389237E+03 -.40648676E+01 0.39418831E+03 0.61403927E+03 0.12500000E+03 0.0000E+00 0.9000E+01
        2  1    1    2  502    0 -.14835486E+03 0.16132993E+03 0.33111884E+04 0.33184341E+04 0.32000000E+00 0.0000E+00 0.9000E+01
        1  1    1    2  503    0 -.14176505E+02 -.45546331E+01 -.15994269E+03 0.16063464E+03 0.32000000E+00 0.0000E+00 0.9000E+01
       -1  1    1    2    0  501 -.29136100E+03 -.15271043E+03 0.44359663E+03 0.55225880E+03 0.32000000E+00 0.0000E+00 0.9000E+01
#aMCatNLO 2  0  0  2  4 0.17126838D+03 0.00000000D+00  -5  6  0 0.00000000D+00 0.00000000D+00 0.00000000D+00 0.00000000D+00 0.00000000D+00
  <mgrwgt>
 0.5035372178D-02    1    2    0
 0.851266941078361D+03 0.000000000000000D+00 0.000000000000000D+00 0.851266941078361D+03
 0.851266941078361D+03 0.000000000000000D+00 0.000000000000000D+00 -.851266941078361D+03
 0.653092567428243D+03 0.448484643865581D+03 -.580078720902041D+01 -.457965912175277D+03
 0.672846798691518D+03 -.153943549064862D+03 0.159519812529611D+03 0.635277598866241D+03
 0.000000000000000D+00 -.000000000000000D+00 -.000000000000000D+00 -.000000000000000D+00
 0.376594516036961D+03 -.294541094800719D+03 -.153719025320591D+03 -.177311686690964D+03
 0.851367692632326D+03 0.000000000000000D+00 0.000000000000000D+00 0.851367692632326D+03
 0.166410687702210D+04 0.000000000000000D+00 0.000000000000000D+00 -.166410687702210D+04
 0.656836427798214D+03 0.453938238715412D+03 -.404865411403540D+01 -.457965912175277D+03
 0.672017437046108D+03 -.148344509195933D+03 0.161318674257449D+03 0.635277598866241D+03
 0.812875574625839D+03 -.141765051309490D+02 -.455463313559712D+01 -.812739184389778D+03
 0.373745130184269D+03 -.291417224388530D+03 -.152715387007816D+03 -.177311686690964D+03
0.467147867878D-02 0.000000000000D+00 0.000000000000D+00 0.121770530287D-06 0.340697815722D-09  6 2 21 25 2 1 -1 2 0.66418440D+00 0.50487399D-01 0.26724067D+06 0.26724067D+06 0.26724067D+06 0.10882869D+01  1  2  1  6  5  2       -1 0.503537217834D-02 0.100000000000D+01
  </mgrwgt>
  </event>
  <event>
  5     66 -.19594695E-05 0.10393332E+02 0.75467711E-02 0.91155997E-01
        2 -1    0    0  502    0 0.00000000E+00 0.00000000E+00 0.28614727E+04 0.28614727E+04 0.32000000E+00 0.0000E+00 0.9000E+01
       -1 -1    0    0    0  501 0.00000000E+00 0.00000000E+00 -.98335339E+03 0.98335344E+03 0.32000000E+00 0.0000E+00 0.9000E+01
       25  1    1    2    0    0 -.31455221E+03 0.60177654E+03 -.98576348E+02 0.69743845E+03 0.12500000E+03 0.0000E+00 0.9000E+01
        2  1    1    2  502    0 0.30422084E+03 -.60064767E+03 0.25177558E+04 0.26062276E+04 0.32000000E+00 0.0000E+00 0.9000E+01
       -1  1    1    2    0  501 0.10331375E+02 -.11288746E+01 -.54106017E+03 0.54116008E+03 0.32000000E+00 0.0000E+00 0.9000E+01
#aMCatNLO 1  0  0  1  4 0.89192396D+02 0.00000000D+00  -5  6  0 0.00000000D+00 0.00000000D+00 0.00000000D+00 0.00000000D+00 0.00000000D+00
  <mgrwgt>
 -.3415307238D-03    1    2    0
 0.167745015152502D+04 0.000000000000000D+00 0.000000000000000D+00 0.167745015152502D+04
 0.167745015152502D+04 0.000000000000000D+00 0.000000000000000D+00 -.167745015152502D+04
 0.854445958513451D+03 -.314551234590795D+03 0.601773859514709D+03 -.503367300131968D+03
 0.157734085805744D+04 0.304219406409022D+03 -.600644842810329D+03 0.142642227550851D+04
 0.923113486479147D+03 0.103318281817731D+02 -.112901670438032D+01 -.923054975376543D+03
 0.000000000000000D+00 -.000000000000000D+00 0.000000000000000D+00 0.000000000000000D+00
 0.206961708468337D+04 0.000000000000000D+00 0.000000000000000D+00 0.206961708468337D+04
 0.172796760413853D+04 0.000000000000000D+00 0.000000000000000D+00 -.172796760413853D+04
 0.821732240068719D+03 -.250385038099354D+03 0.586129310154502D+03 -.503367300131968D+03
 0.161680397661809D+04 0.426495263031711D+03 -.630457279561983D+03 0.142642227550851D+04
 0.926797704615762D+03 0.811487407749075D+02 -.183950967462063D+02 -.923054975376543D+03
 0.432250767519330D+03 -.257258965707264D+03 0.627230661536863D+02 0.341649480544840D+03
-.289053070955D-02 0.000000000000D+00 0.000000000000D+00 0.121559050858D-03 0.000000000000D+00  6 2 -1 25 2 -1 21 2 0.44022657D+00 0.15128514D+00 0.47205185D+06 0.47205185D+06 0.47205185D+06 0.10702804D+01  1  2 14  1  6  1        2 -.341530723799D-03 0.100000000000D+01
  </mgrwgt>
  </event>
  <event>
  5     66 0.19594695E-05 0.49563994E+02 0.75467711E-02 0.91752459E-01
        2 -1    0    0  502    0 0.00000000E+00 0.00000000E+00 0.18942452E+04 0.18942452E+04 0.32000000E+00 0.0000E+00 0.9000E+01
       -1 -1    0    0    0  501 0.00000000E+00 0.00000000E+00 -.36650899E+03 0.36650913E+03 0.32000000E+00 0.0000E+00 0.9000E+01
       25  1    1    2    0    0 -.48425630E+03 0.38636124E+03 0.78299336E+03 0.10062220E+04 0.12500000E+03 0.0000E+00 0.9000E+01
        2  1    1    2  502    0 0.49531032E+02 -.25566125E+01 0.66768889E+03 0.66952850E+03 0.32000000E+00 0.0000E+00 0.9000E+01
       -1  1    1    2    0  501 0.43472527E+03 -.38380463E+03 0.77053949E+02 0.58500382E+03 0.32000000E+00 0.0000E+00 0.9000E+01
#aMCatNLO 1  0  0  1  2 0.37249070D+02 0.00000000D+00  -5  6  0 0.00000000D+00 0.00000000D+00 0.00000000D+00 0.00000000D+00 0.00000000D+00
  <mgrwgt>
 0.1551403043D-02    9    2    0
 0.833221507959305D+03 0.000000000000000D+00 0.000000000000000D+00 0.833221507959305D+03
 0.833221507959305D+03 0.000000000000000D+00 0.000000000000000D+00 -.833221507959305D+03
 0.647376861542438D+03 -.484315907383640D+03 0.386431805238301D+03 0.139929848909962D+03
 0.295994832315524D+03 0.494981002765428D+02 -.255491269532895D+01 0.291815611727042D+03
 0.723071322060648D+03 0.434817807107098D+03 -.383876892542972D+03 -.431745460637004D+03
 0.000000000000000D+00 -.000000000000000D+00 -.000000000000000D+00 0.000000000000000D+00
 0.919618615025287D+03 0.000000000000000D+00 0.000000000000000D+00 0.919618615025287D+03
 0.837454200613444D+03 0.000000000000000D+00 0.000000000000000D+00 -.837454200613444D+03
 0.654285195067630D+03 -.481931920580534D+03 0.400780959869952D+03 0.139929848909962D+03
 0.296193764601837D+03 0.505826903917974D+02 0.397320703061362D+01 0.291815611727042D+03
 0.716380308093872D+03 0.437454154746312D+03 -.368008784595154D+03 -.431745460637004D+03
 0.902135478753915D+02 -.610492455757586D+01 -.367453823054113D+02 0.821644144118427D+02
0.638249578709D-04 0.000000000000D+00 0.000000000000D+00 0.121883835577D-05 0.000000000000D+00  6 2 -1 25 2 -1 21 0 0.29142235D+00 0.56386011D-01 0.39794728D+06 0.39794728D+06 0.39794728D+06 0.10755887D+01  1  2  2  1  6  1        2 0.220297954566D-03 0.100000000000D+01
0.211243106277D-04 0.000000000000D+00 -.245104643721D-06 0.121883835577D-05 0.000000000000D+00  6 2 -1 25 2 -1 21 2 0.29142235D+00 0.56386011D-01 0.39794728D+06 0.39794728D+06 0.39794728D+06 0.10755887D+01  1  2  3  1  6  1        2 0.843519188195D-04 0.100000000000D+01
-.435193766527D-04 0.000000000000D+00 0.000000000000D+00 0.121883835577D-05 0.000000000000D+00  6 2 -1 25 2 -1 21 2 0.29142235D+00 0.56386011D-01 0.39794728D+06 0.39794728D+06 0.39794728D+06 0.10755887D+01  1  2 15  1  6  1        2 -.173778117127D-03 0.100000000000D+01
0.863163846580D-07 0.000000000000D+00 0.000000000000D+00 0.121883835577D-05 0.000000000000D+00  6 2 -1 25 2 -1 21 2 0.32233466D+00 0.56386011D-01 0.42171759D+06 0.42171759D+06 0.42171759D+06 0.10737762D+01  1  2 12  1  6  1        2 0.265272305882D-06 0.100000000000D+01
-.389479221385D-04 0.000000000000D+00 0.000000000000D+00 0.121883835577D-05 0.000000000000D+00  6 2 -1 25 2 -1 21 2 0.29142235D+00 0.56386011D-01 0.39794728D+06 0.39794728D+06 0.39794728D+06 0.10755887D+01  1  2  4  1  6  1        2 -.155523748174D-03 0.100000000000D+01
-.175618808946D-02 0.000000000000D+00 -.129193312591D-03 0.121883835577D-05 0.000000000000D+00  6 2 -1 25 2 -1 21 2 0.32218936D+00 0.56386011D-01 0.39794728D+06 0.39794728D+06 0.39794728D+06 0.10755887D+01  1  2  5  1  6  1        2 -.544037126319D-02 0.100000000000D+01
0.176092604840D-02 0.000000000000D+00 0.128545330754D-03 0.121883835577D-05 0.000000000000D+00  6 2 -1 25 2 -1 21 2 0.29142235D+00 0.56386011D-01 0.39794728D+06 0.39794728D+06 0.39794728D+06 0.10755887D+01  1  2  6  1  6  1        2 0.703158998652D-02 0.100000000000D+01
0.141217186378D-08 0.000000000000D+00 0.000000000000D+00 0.121883835577D-05 0.000000000000D+00  6 21 -1 25 2 -1 -2 2 0.32233466D+00 0.56386011D-01 0.42171759D+06 0.42171759D+06 0.42171759D+06 0.10737762D+01  1  2 12  5  6  1        2 0.763809546624D-09 0.100000000000D+01
-.281856213701D-04 0.000000000000D+00 -.210502503549D-05 0.121883835577D-05 0.000000000000D+00  6 21 -1 25 2 -1 -2 2 0.32218936D+00 0.56386011D-01 0.39794728D+06 0.39794728D+06 0.39794728D+06 0.10755887D+01  1  2  5  5  6  1        2 -.154297246272D-04 0.100000000000D+01
  </mgrwgt>
  </event>
  <event>
  6     66 0.19594695E-05 0.13204224E+03 0.75467711E-02 0.92732502E-01
        2 -1    0    0  502    0 0.00000000E+00 0.00000000E+00 0.12232798E+04 0.12232799E+04 0.32000000E+00 0.0000E+00 0.9000E+01
       -1 -1    0    0    0  501 0.00000000E+00 0.00000000E+00 -.54612448E+03 0.54612457E+03 0.32000000E+00 0.0000E+00 0.9000E+01
       25  1    1    2    0    0 -.32146751E+03 -.43681437E+03 -.25639735E+03 0.61279096E+03 0.12500000E+03 0.0000E+00 0.9000E+01
        2  1    1    2  503    0 -.38432770E+02 0.90315085E+02 0.10717338E+03 0.14532766E+03 0.32000000E+00 0.0000E+00 0.9000E+01
       -1  1    1    2    0  501 -.10562607E+02 0.65131071E+02 0.35772355E+01 0.66079680E+02 0.32000000E+00 0.0000E+00 0.9000E+01
       21  1    1    2  502  503 0.37046289E+03 0.28136821E+03 0.82280209E+03 0.94520615E+03 0.75000000E+00 0.0000E+00 0.9000E+01
#aMCatNLO 2  0  0  4  4 0.88616596D+02 0.00000000D+00  -5  6  0 0.00000000D+00 0.00000000D+00 0.00000000D+00 0.00000000D+00 0.00000000D+00
  <mgrwgt>
 0.2879314593D-01    1    2    0
 0.817351317154231D+03 0.000000000000000D+00 0.000000000000000D+00 0.817351317154231D+03
 0.817351317154231D+03 -.000000000000000D+00 -.000000000000000D+00 -.817351317154231D+03
 0.792999924525638D+03 -.332125599647019D+03 -.448777055727413D+03 -.549104380431817D+03
 0.771883145712751D+03 0.343626336579800D+03 0.384664407180430D+03 0.574245439940699D+03
 0.698195640700735D+02 -.115007369327808D+02 0.641126485469828D+02 -.251410595088814D+02
 0.000000000000000D+00 0.000000000000000D+00 0.000000000000000D+00 0.000000000000000D+00
 0.817351317154231D+03 0.000000000000000D+00 0.000000000000000D+00 0.817351317154231D+03
 0.817351317154231D+03 -.000000000000000D+00 -.000000000000000D+00 -.817351317154231D+03
 0.769580610045504D+03 -.321520755173267D+03 -.436905712414968D+03 -.531382270884145D+03
 0.112301481572944D+03 -.382883372558645D+02 0.898299595240585D+02 0.554635408675409D+02
 0.700998614325882D+02 -.105511386794533D+02 0.651756539406075D+02 -.235541541739279D+02
 0.682720681257426D+03 0.370360231108585D+03 0.281900098950302D+03 0.499472884190533D+03
0.661914782944D-02 0.000000000000D+00 0.000000000000D+00 0.153576053094D-07 0.101427464766D-08  6 2 -1 25 2 -1 21 2 0.18819691D+00 0.84019161D-01 0.35152374D+06 0.35152374D+06 0.35152374D+06 0.10794957D+01  1  2  1  3  6  4        2 0.287931459322D-01 0.100000000000D+01
  </mgrwgt>
  </event>
  <event>
  6     66 0.19594695E-05 0.19933769E+02 0.75467711E-02 0.92834364E-01
        2 -1    0    0  502    0 0.00000000E+00 0.00000000E+00 0.13066264E+04 0.13066265E+04 0.32000000E+00 0.0000E+00 0.9000E+01
       -1 -1    0    0    0  501 -.00000000E+00 -.00000000E+00 -.17776907E+04 0.17776907E+04 0.32000000E+00 0.0000E+00 0.9000E+01
       25  1    1    2    0    0 0.50895901E+03 0.26181230E+03 0.21379361E+03 0.62363263E+03 0.12500000E+03 0.0000E+00 0.9000E+01
        2  1    1    2  502    0 0.85890142E+01 -.10144796E+02 0.83489622E+03 0.83500209E+03 0.32000000E+00 0.0000E+00 0.9000E+01
       -1  1    1    2    0  503 -.38338840E+03 -.18322283E+03 -.10651656E+04 0.11467934E+04 0.32000000E+00 0.0000E+00 0.9000E+01
       21  1    1    2  503  501 -.13415962E+03 -.68444676E+02 -.45458850E+03 0.47888907E+03 0.75000000E+00 0.0000E+00 0.9000E+01
#aMCatNLO 2  0  0  5  5 0.20357292D+02 0.00000000D+00  -5  6  0 0.00000000D+00 0.00000000D+00 0.00000000D+00 0.00000000D+00 0.00000000D+00
  <mgrwgt>
 0.4603776773D-02    1    2    0
 0.152406619465398D+04 0.000000000000000D+00 0.000000000000000D+00 0.152406619465398D+04
 0.152406619465398D+04 -.000000000000000D+00 -.000000000000000D+00 -.152406619465398D+04
 0.664273270280882D+03 0.509057772064606D+03 0.261859324304142D+03 0.312927877609612D+03
 0.974061019936740D+03 0.867137807023187D+01 -.101034678107307D+02 0.973970018892144D+03
 0.140979809909033D+04 -.517729150134838D+03 -.251755856493411D+03 -.128689789650176D+04
 0.000000000000000D+00 0.000000000000000D+00 0.000000000000000D+00 -.000000000000000D+00
 0.152406619465398D+04 0.000000000000000D+00 0.000000000000000D+00 0.152406619465398D+04
 0.152406619465398D+04 -.000000000000000D+00 -.000000000000000D+00 -.152406619465398D+04
 0.664152570796462D+03 0.509001075186750D+03 0.261831754345909D+03 0.312786948529548D+03
 0.973854073780018D+03 0.858824154824685D+01 -.101438945595293D+02 0.973763369884189D+03
 0.995697296575290D+03 -.383384386710351D+03 -.183220081757795D+03 -.900477606648125D+03
 0.414428448156186D+03 -.134204930024646D+03 -.684677780285845D+02 -.386072711765612D+03
0.495144239257D-01 0.000000000000D+00 0.000000000000D+00 0.168526237144D-03 0.170510367145D-05  6 2 -1 25 2 -1 21 2 0.20101946D+00 0.27349088D+00 0.34501198D+06 0.34501198D+06 0.34501198D+06 0.10800884D+01  1  2  1  4  6  5       -1 0.460377677267D-02 0.100000000000D+01
  </mgrwgt>
  </event>
  <event>
  5     66 0.19594695E-05 0.32371415E+02 0.75467711E-02 0.87328952E-01
        2 -1    0    0  502    0 0.00000000E+00 0.00000000E+00 0.18843701E+04 0.18843701E+04 0.32000000E+00 0.0000E+00 0.9000E+01
       -1 -1    0    0    0  501 0.00000000E+00 0.00000000E+00 -.13482247E+04 0.13482247E+04 0.32000000E+00 0.0000E+00 0.9000E+01
       25  1    1    2    0    0 0.44487365E+03 -.46281478E+03 -.74072359E+03 0.98813285E+03 0.12500000E+03 0.0000E+00 0.9000E+01
        2  1    1    2  502    0 -.17107429E+02 0.27482939E+02 0.15679450E+04 0.15682792E+04 0.32000000E+00 0.0000E+00 0.9000E+01
       -1  1    1    2    0  501 -.42776622E+03 0.43533184E+03 -.29107607E+03 0.67618277E+03 0.32000000E+00 0.0000E+00 0.9000E+01
#aMCatNLO 1  0  0  4  1 0.32121182D+02 0.00000000D+00  -5  6  0 0.00000000D+00 0.00000000D+00 0.00000000D+00 0.00000000D+00 0.00000000D+00
  <mgrwgt>
 0.1476395392D-02    4    2    0
 0.159391166488115D+04 0.000000000000000D+00 0.000000000000000D+00 0.159391166488115D+04
 0.159391166488115D+04 -.000000000000000D+00 -.000000000000000D+00 -.159391166488115D+04
 0.112660122913534D+04 0.444909163822052D+03 -.462851289664449D+03 -.917294853955024D+03
 0.132655670469217D+04 -.171068771354762D+02 0.274820532914426D+02 0.132616167274782D+04
 0.734665395934790D+03 -.427802286686575D+03 0.435369236373005D+03 -.408866818792800D+03
 0.000000000000000D+00 0.000000000000000D+00 0.000000000000000D+00 -.000000000000000D+00
 0.159391166488115D+04 0.000000000000000D+00 0.000000000000000D+00 0.159391166488115D+04
 0.159391166488115D+04 -.000000000000000D+00 -.000000000000000D+00 -.159391166488115D+04
 0.102672807589021D+04 0.443316368706366D+03 -.460292477795691D+03 -.793817972801645D+03
 0.106688119305287D+04 0.361287017078207D+03 -.471018193168512D+02 0.100274053971986D+04
 0.694143166018007D+03 -.428859161403051D+03 0.437067096657531D+03 -.326935632242082D+03
 0.400070894801215D+03 -.375744224381521D+03 0.703272004550113D+02 0.118013065323867D+03
0.128087397660D-01 0.000000000000D+00 0.000000000000D+00 0.114413429898D-04 0.000000000000D+00  6 2 -1 25 2 -1 21 0 0.28990309D+00 0.20741919D+00 0.42043157D+06 0.42043157D+06 0.42043157D+06 0.10738714D+01  1  2  2  3  6  4        2 0.169616041565D-02 0.100000000000D+01
0.968221198525D-02 0.000000000000D+00 -.491889333201D-04 0.114413429898D-04 0.000000000000D+00  6 2 -1 25 2 -1 21 2 0.28990309D+00 0.20741919D+00 0.42043157D+06 0.42043157D+06 0.42043157D+06 0.10738714D+01  1  2  3  3  6  4        2 0.147856246134D-02 0.100000000000D+01
-.101591215226D-01 0.000000000000D+00 0.000000000000D+00 0.114413429898D-04 0.000000000000D+00  6 2 -1 25 2 -1 21 2 0.28990309D+00 0.20741919D+00 0.42043157D+06 0.42043157D+06 0.42043157D+06 0.10738714D+01  1  2 15  3  6  4        2 -.155139091628D-02 0.100000000000D+01
-.962198788731D-03 0.000000000000D+00 0.000000000000D+00 0.114413429898D-04 0.000000000000D+00  6 2 -1 25 2 -1 21 2 0.28990309D+00 0.20741919D+00 0.42043157D+06 0.42043157D+06 0.42043157D+06 0.10738714D+01  1  2  4  3  6  4        2 -.146936568991D-03 0.100000000000D+01
  </mgrwgt>
  </event>
  <event>
  5     66 0.19594695E-05 0.39253412E+03 0.75467711E-02 0.78155719E-01
        2 -1    0    0  502    0 0.00000000E+00 0.00000000E+00 0.29226475E+04 0.29226475E+04 0.32000000E+00 0.0000E+00 0.9000E+01
       -1 -1    0    0    0  501 0.00000000E+00 0.00000000E+00 -.12466255E+04 0.12466255E+04 0.32000000E+00 0.0000E+00 0.9000E+01
       25  1    1    2    0    0 -.82873970E+03 0.18323816E+03 0.14867355E+04 0.17165061E+04 0.12500000E+03 0.0000E+00 0.9000E+01
        2  1    1    2  502    0 0.47648616E+03 -.10109818E+02 0.12414440E+04 0.13297837E+04 0.32000000E+00 0.0000E+00 0.9000E+01
       -1  1    1    2    0  501 0.35225354E+03 -.17312835E+03 -.10521575E+04 0.11229833E+04 0.32000000E+00 0.0000E+00 0.9000E+01
#aMCatNLO 1  0  0  2  1 0.62667224D+02 0.00000000D+00  -5  6  0 0.00000000D+00 0.00000000D+00 0.00000000D+00 0.00000000D+00 0.00000000D+00
  <mgrwgt>
 0.4030339804D-04    3    2    0
 0.190878151602451D+04 0.000000000000000D+00 0.000000000000000D+00 0.190878151602451D+04
 0.190878151602451D+04 0.000000000000000D+00 0.000000000000000D+00 -.190878151602451D+04
 0.122202866185449D+04 -.828685673654568D+03 0.183250535741822D+03 0.870303594054325D+03
 0.907102827095396D+03 0.476400699556704D+03 -.101080049910383D+02 0.771865105197433D+03
 0.168843154309914D+04 0.352284974097863D+03 -.173142530750783D+03 -.164216869925176D+04
 0.000000000000000D+00 -.000000000000000D+00 -.000000000000000D+00 0.000000000000000D+00
 0.411064917049043D+04 0.000000000000000D+00 0.000000000000000D+00 0.411064917049043D+04
 0.326592368732340D+04 0.000000000000000D+00 0.000000000000000D+00 -.326592368732340D+04
 0.124372239436934D+04 -.373431870886254D+03 0.796455074839957D+03 0.870303594054325D+03
 0.128863970583401D+04 0.881802589375666D+03 0.535948452932639D+03 0.771865105197433D+03
 0.209540033124000D+04 0.105089720645636D+04 0.767853874653715D+03 -.164216869925176D+04
 0.274881042637047D+04 -.155926792494577D+04 -.210025740242631D+04 0.844725483167030D+03
0.262666912295D-02 0.000000000000D+00 0.000000000000D+00 0.320157992901D-06 0.000000000000D+00  6 2 -1 25 2 -1 21 0 0.44963808D+00 0.19178854D+00 0.74554864D+06 0.74554864D+06 0.74554864D+06 0.10564598D+01  1  2  2  2  6  2       -1 0.109760702728D-03 0.100000000000D+01
0.213622562902D-03 0.000000000000D+00 -.100871010500D-04 0.320157992901D-06 0.000000000000D+00  6 2 -1 25 2 -1 21 2 0.44963808D+00 0.19178854D+00 0.74554864D+06 0.74554864D+06 0.74554864D+06 0.10564598D+01  1  2  3  2  6  2       -1 0.996310177816D-05 0.100000000000D+01
-.170288241080D-02 0.000000000000D+00 0.000000000000D+00 0.320157992901D-06 0.000000000000D+00  6 2 -1 25 2 -1 21 2 0.44963808D+00 0.19178854D+00 0.74554864D+06 0.74554864D+06 0.74554864D+06 0.10564598D+01  1  2 15  2  6  2       -1 -.794204064617D-04 0.100000000000D+01
  </mgrwgt>
  </event>
  <event>
  6     66 0.19594695E-05 0.36260207E+02 0.75467711E-02 0.93818786E-01
        2 -1    0    0  503    0 0.00000000E+00 0.00000000E+00 0.10402458E+04 0.10402458E+04 0.32000000E+00 0.0000E+00 0.9000E+01
       -1 -1    0    0    0  501 0.00000000E+00 0.00000000E+00 -.49060725E+03 0.49060736E+03 0.32000000E+00 0.0000E+00 0.9000E+01
       25  1    1    2    0    0 -.34292230E+03 -.39621288E+03 0.21947014E+02 0.53915399E+03 0.12500000E+03 0.0000E+00 0.9000E+01
        2  1    1    2  502    0 0.31860861E+03 0.30432818E+03 0.40067294E+03 0.59553841E+03 0.32000000E+00 0.0000E+00 0.9000E+01
       -1  1    1    2    0  501 0.11761164E+02 0.37432452E+02 -.12862669E+03 0.13447840E+03 0.32000000E+00 0.0000E+00 0.9000E+01
       21  1    1    2  503  502 0.12552524E+02 0.54452252E+02 0.25564523E+03 0.26168236E+03 0.75000000E+00 0.0000E+00 0.9000E+01
#aMCatNLO 2  0  0  1  1 0.55880351D+02 0.00000000D+00  -5  6  0 0.00000000D+00 0.00000000D+00 0.00000000D+00 0.00000000D+00 0.00000000D+00
  <mgrwgt>
 0.5116255775D-02    1    2    0
 0.616692761568570D+03 0.000000000000000D+00 0.000000000000000D+00 0.616692761568570D+03
 0.616692761568570D+03 0.000000000000000D+00 0.000000000000000D+00 -.616692761568570D+03
 0.528572311349189D+03 -.337436380987597D+03 -.372435370909265D+03 -.105793532915273D+03
 0.533978300114903D+03 0.323945851170580D+03 0.327504235606571D+03 0.270060893434658D+03
 0.170834911673049D+03 0.134905298170166D+02 0.449311353026943D+02 -.164267360519385D+03
 0.000000000000000D+00 0.000000000000000D+00 0.000000000000000D+00 0.000000000000000D+00
 0.821627703830838D+03 0.000000000000000D+00 0.000000000000000D+00 0.821627703830838D+03
 0.621146442041464D+03 0.000000000000000D+00 0.000000000000000D+00 -.621146442041464D+03
 0.548991218272513D+03 -.342916908875159D+03 -.396209641151183D+03 -.105793532915273D+03
 0.516770314659117D+03 0.318601704929747D+03 0.304321582484738D+03 0.270060893434658D+03
 0.168889212143647D+03 0.117626803831101D+02 0.374358063450112D+02 -.164267360519385D+03
 0.208123400797025D+03 0.125525235623018D+02 0.544522523214338D+02 0.200481261789374D+03
0.720665898389D-03 0.000000000000D+00 0.000000000000D+00 0.490028915799D-06 0.218686598852D-08  6 2 -1 25 2 -1 21 2 0.16003765D+00 0.75477969D-01 0.28858972D+06 0.28858972D+06 0.28858972D+06 0.10858000D+01  1  2  1  1  6  1        2 0.511625577511D-02 0.100000000000D+01
  </mgrwgt>
  </event>
  <event>
  6     66 -.19594695E-05 0.62385981E+02 0.75467711E-02 0.90869636E-01
        2 -1    0    0  502    0 0.00000000E+00 0.00000000E+00 0.29260299E+04 0.29260299E+04 0.32000000E+00 0.0000E+00 0.9000E+01
       -1 -1    0    0    0  501 0.00000000E+00 0.00000000E+00 -.78049523E+03 0.78049529E+03 0.32000000E+00 0.0000E+00 0.9000E+01
       25  1    1    2    0    0 0.40235848E+03 0.57217399E+03 0.58437702E+03 0.91999833E+03 0.12500000E+03 0.0000E+00 0.9000E+01
        2  1    1    2  503    0 -.29613508E+03 -.44492523E+03 0.18272789E+04 0.19038389E+04 0.32000000E+00 0.0000E+00 0.9000E+01
       -1  1    1    2    0  501 -.51832243E+02 -.44547380E+02 -.56434334E+03 0.56846685E+03 0.32000000E+00 0.0000E+00 0.9000E+01
       21  1    1    2  502  503 -.54391165E+02 -.82701377E+02 0.29822215E+03 0.31422115E+03 0.75000000E+00 0.0000E+00 0.9000E+01
#aMCatNLO 2  0  0  4  1 0.97500940D+01 0.00000000D+00  -5  6  0 0.00000000D+00 0.00000000D+00 0.00000000D+00 0.00000000D+00 0.00000000D+00
  <mgrwgt>
 -.2675122113D-03    3    2    0
 0.151120896924593D+04 0.000000000000000D+00 0.000000000000000D+00 0.151120896924593D+04
 0.151120896924593D+04 -.000000000000000D+00 -.000000000000000D+00 -.151120896924593D+04
 0.713391193763914D+03 0.402340536548352D+03 0.572135599807039D+03 0.639135621235882D+02
 0.121093935887315D+04 -.350523888510251D+03 -.527623068826861D+03 0.103204701040868D+04
 0.109808738585480D+04 -.518166480381009D+02 -.445125309801778D+02 -.109596057253227D+04
 0.000000000000000D+00 0.000000000000000D+00 -.000000000000000D+00 0.000000000000000D+00
 0.151120896924593D+04 0.000000000000000D+00 0.000000000000000D+00 0.151120896924593D+04
 0.151120896924593D+04 -.000000000000000D+00 -.000000000000000D+00 -.151120896924593D+04
 0.713358190535052D+03 0.402318640175985D+03 0.572102640480833D+03 0.639780315831045D+02
 0.103788113223805D+04 -.296205914250286D+03 -.445031218234613D+03 0.889610316832887D+03
 0.109799199435424D+04 -.518503513446416D+02 -.445632625925143D+02 -.109586133993245D+04
 0.173186621364521D+03 -.542623745810578D+02 -.825081596537056D+02 0.142272991516456D+03
-.890681992154D-09 0.000000000000D+00 0.000000000000D+00 0.255819016243D-04 0.000000000000D+00  6 2 -1 25 2 -1 21 2 0.45015846D+00 0.12007620D+00 0.49857638D+06 0.49857638D+06 0.49857638D+06 0.10685979D+01  1  2 13  3  6  4        2 -.176669128446D-09 0.100000000000D+01
-.781252722637D-02 0.000000000000D+00 0.000000000000D+00 0.255819016243D-04 0.000000000000D+00  6 2 -1 25 2 -1 21 2 0.45015846D+00 0.12007620D+00 0.49857638D+06 0.49857638D+06 0.49857638D+06 0.10685979D+01  1  2 13  3  6  4        2 -.154963543464D-02 0.100000000000D+01
0.646385836730D-02 0.000000000000D+00 0.000000000000D+00 0.255819016243D-04 0.100337786279D-05  6 2 -1 25 2 -1 21 2 0.45015846D+00 0.12007620D+00 0.49857638D+06 0.49857638D+06 0.49857638D+06 0.10685979D+01  1  2  1  3  6  4        2 0.128212340005D-02 0.100000000000D+01
  </mgrwgt>
  </event>
  <event>
  5     66 0.19594695E-05 0.35418418E+02 0.75467711E-02 0.82594956E-01
        2 -1    0    0  502    0 0.00000000E+00 0.00000000E+00 0.33049925E+04 0.33049925E+04 0.32000000E+00 0.0000E+00 0.9000E+01
       -1 -1    0    0    0  501 0.00000000E+00 0.00000000E+00 -.73925276E+03 0.73925283E+03 0.32000000E+00 0.0000E+00 0.9000E+01
       25  1    1    2    0    0 0.47796324E+03 0.37441506E+03 0.41654451E+03 0.74683989E+03 0.12500000E+03 0.0000E+00 0.9000E+01
        2  1    1    2  502    0 -.51133940E+03 -.36256971E+03 0.26866391E+04 0.27587959E+04 0.32000000E+00 0.0000E+00 0.9000E+01
       -1  1    1    2    0  501 0.33376162E+02 -.11845350E+02 -.53744388E+03 0.53860960E+03 0.32000000E+00 0.0000E+00 0.9000E+01
#aMCatNLO 1  0  0  1  4 0.43346473D+02 0.00000000D+00  -5  6  0 0.00000000D+00 0.00000000D+00 0.00000000D+00 0.00000000D+00 0.00000000D+00
  <mgrwgt>
 0.1963062851D-02    3    2    0
 0.156308189973934D+04 0.000000000000000D+00 0.000000000000000D+00 0.156308189973934D+04
 0.156308189973934D+04 0.000000000000000D+00 0.000000000000000D+00 -.156308189973934D+04
 0.624274788036477D+03 0.477949917136382D+03 0.374408280686037D+03 -.740022097037665D+02
 0.136395269275378D+04 -.511328493969594D+03 -.362561976838226D+03 0.121138719337635D+04
 0.113793631868842D+04 0.333785768332128D+02 -.118463038478109D+02 -.113738498367259D+04
 0.000000000000000D+00 0.000000000000000D+00 -.000000000000000D+00 -.000000000000000D+00
 0.203630664267174D+04 0.000000000000000D+00 0.000000000000000D+00 0.203630664267174D+04
 0.299669697951098D+04 0.000000000000000D+00 0.000000000000000D+00 -.299669697951098D+04
 0.582398385278210D+03 0.265718030423221D+03 0.497474100272195D+03 -.740022097037665D+02
 0.159205501851851D+04 -.103123654162979D+04 -.610855541119058D+02 0.121138719337635D+04
 0.122129976160208D+04 -.381568183892723D+03 0.228766753804436D+03 -.113738498367259D+04
 0.163725045678392D+04 0.114708669509929D+04 -.665155299964725D+03 -.960390336839241D+03
0.178255935839D-01 0.000000000000D+00 0.000000000000D+00 0.902802541883D-04 0.000000000000D+00  6 2 -1 25 2 -1 21 0 0.50846040D+00 0.11373120D+00 0.41095490D+06 0.41095490D+06 0.41095490D+06 0.10745827D+01  1  2  2  1  6  1        2 0.203790696072D-02 0.100000000000D+01
0.121254920245D-01 0.000000000000D+00 -.684549729488D-04 0.902802541883D-04 0.000000000000D+00  6 2 -1 25 2 -1 21 2 0.50846040D+00 0.11373120D+00 0.41095490D+06 0.41095490D+06 0.41095490D+06 0.10745827D+01  1  2  3  1  6  1        2 0.160073500471D-02 0.100000000000D+01
-.126924326196D-01 0.000000000000D+00 0.000000000000D+00 0.902802541883D-04 0.000000000000D+00  6 2 -1 25 2 -1 21 2 0.50846040D+00 0.11373120D+00 0.41095490D+06 0.41095490D+06 0.41095490D+06 0.10745827D+01  1  2 15  1  6  1        2 -.167557911448D-02 0.100000000000D+01
  </mgrwgt>
  </event>
  <event>
  5     66 0.19594695E-05 0.45529403E+02 0.75467711E-02 0.89943802E-01
        2 -1    0    0  502    0 0.00000000E+00 0.00000000E+00 0.29075538E+04 0.29075539E+04 0.32000000E+00 0.0000E+00 0.9000E+01
       -1 -1    0    0    0  501 0.00000000E+00 0.00000000E+00 -.82051989E+03 0.82051996E+03 0.32000000E+00 0.0000E+00 0.9000E+01
       25  1    1    2    0    0 -.52019271E+03 -.38898810E+03 0.23515267E+03 0.70202135E+03 0.12500000E+03 0.0000E+00 0.9000E+01
        2  1    1    2  502    0 0.47636157E+03 0.37668181E+03 0.24002050E+04 0.24758420E+04 0.32000000E+00 0.0000E+00 0.9000E+01
       -1  1    1    2    0  501 0.43831138E+02 0.12306292E+02 -.54832369E+03 0.55021049E+03 0.32000000E+00 0.0000E+00 0.9000E+01
#aMCatNLO 1  0  0  1  4 0.17859305D+02 0.00000000D+00  -5  6  0 0.00000000D+00 0.00000000D+00 0.00000000D+00 0.00000000D+00 0.00000000D+00
  <mgrwgt>
 0.5041143139D-03    7    2    0
 0.154457305416520D+04 0.000000000000000D+00 0.000000000000000D+00 0.154457305416520D+04
 0.154457305416520D+04 0.000000000000000D+00 0.000000000000000D+00 -.154457305416520D+04
 0.688322328458486D+03 -.520187302741350D+03 -.388982208347650D+03 -.190422266319293D+03
 0.136631128989900D+04 0.476352871620536D+03 0.376674925669893D+03 0.122393238496901D+04
 0.103451248997291D+04 0.438344311208148D+02 0.123072826777572D+02 -.103351011864972D+04
 0.000000000000000D+00 0.000000000000000D+00 -.000000000000000D+00 0.000000000000000D+00
 0.198560027961852D+04 0.000000000000000D+00 0.000000000000000D+00 0.198560027961852D+04
 0.156368044663002D+04 0.000000000000000D+00 0.000000000000000D+00 -.156368044663002D+04
 0.671173987026036D+03 -.524409598318278D+03 -.351544384881785D+03 -.190422266319293D+03
 0.138621205655677D+04 0.467804141463081D+03 0.452473941788269D+03 0.122393238496901D+04
 0.103650856504067D+04 0.374022967040388D+02 0.693390817113981D+02 -.103351011864972D+04
 0.455386117625057D+03 0.192031601511584D+02 -.170268638617882D+03 0.421919832988501D+03
0.644419337259D-03 0.000000000000D+00 0.000000000000D+00 0.729539379259D-04 0.000000000000D+00  6 2 -1 25 2 -1 21 0 0.44731598D+00 0.12623384D+00 0.43182867D+06 0.43182867D+06 0.43182867D+06 0.10730387D+01  1  2  2  1  6  1        2 0.102721869430D-03 0.100000000000D+01
0.358944839979D-03 0.000000000000D+00 -.247473993458D-05 0.729539379259D-04 0.000000000000D+00  6 2 -1 25 2 -1 21 2 0.44731598D+00 0.12623384D+00 0.43182867D+06 0.43182867D+06 0.43182867D+06 0.10730387D+01  1  2  3  1  6  1        2 0.658798892371D-04 0.100000000000D+01
-.420034071979D-03 0.000000000000D+00 0.000000000000D+00 0.729539379259D-04 0.000000000000D+00  6 2 -1 25 2 -1 21 2 0.44731598D+00 0.12623384D+00 0.43182867D+06 0.43182867D+06 0.43182867D+06 0.10730387D+01  1  2 15  1  6  1        2 -.770920627787D-04 0.100000000000D+01
-.136240063811D-02 0.000000000000D+00 0.000000000000D+00 0.729539379259D-04 0.000000000000D+00  6 2 -1 25 2 -1 21 2 0.44731598D+00 0.12623384D+00 0.43182867D+06 0.43182867D+06 0.43182867D+06 0.10730387D+01  1  2  4  1  6  1        2 -.250051799437D-03 0.100000000000D+01
-.495890452313D-02 0.000000000000D+00 -.445635261454D-03 0.729539379259D-04 0.000000000000D+00  6 2 -1 25 2 -1 21 2 0.57639225D+00 0.12623384D+00 0.43182867D+06 0.43182867D+06 0.43182867D+06 0.10730387D+01  1  2  5  1  6  1        2 -.241372276843D-03 0.100000000000D+01
0.492665329612D-02 0.000000000000D+00 0.431687649346D-03 0.729539379259D-04 0.000000000000D+00  6 2 -1 25 2 -1 21 2 0.44731598D+00 0.12623384D+00 0.43182867D+06 0.43182867D+06 0.43182867D+06 0.10730387D+01  1  2  6  1  6  1        2 0.904226324794D-03 0.100000000000D+01
-.161923866046D-03 0.000000000000D+00 -.152380804877D-04 0.729539379259D-04 0.000000000000D+00  6 21 -1 25 2 -1 -2 2 0.57639225D+00 0.12623384D+00 0.43182867D+06 0.43182867D+06 0.43182867D+06 0.10730387D+01  1  2  5  5  6  1        2 -.197630452691D-06 0.100000000000D+01
  </mgrwgt>
  </event>
  <event>
  5     66 0.19594695E-05 0.21110243E+03 0.75467711E-02 0.94434400E-01
        2 -1    0    0  502    0 0.00000000E+00 0.00000000E+00 0.26349075E+04 0.26349075E+04 0.32000000E+00 0.0000E+00 0.9000E+01
       -1 -1    0    0    0  501 0.00000000E+00 0.00000000E+00 -.62558491E+03 0.62558499E+03 0.32000000E+00 0.0000E+00 0.9000E+01
       25  1    1    2    0    0 -.16759677E+03 0.46884785E+03 0.32535136E+03 0.60777092E+03 0.12500000E+03 0.0000E+00 0.9000E+01
        2  1    1    2  502    0 0.10919620E+03 -.26600739E+03 0.21352461E+04 0.21545208E+04 0.32000000E+00 0.0000E+00 0.9000E+01
       -1  1    1    2    0  501 0.58400567E+02 -.20284046E+03 -.45127491E+03 0.49820078E+03 0.32000000E+00 0.0000E+00 0.9000E+01
#aMCatNLO 1  0  0  4  1 0.53864612D+02 0.00000000D+00  -5  6  0 0.00000000D+00 0.00000000D+00 0.00000000D+00 0.00000000D+00 0.00000000D+00
  <mgrwgt>
 0.9080221861D-03    8    2    0
 0.128388415883166D+04 0.000000000000000D+00 0.000000000000000D+00 0.128388415883166D+04
 0.128388415883166D+04 -.000000000000000D+00 -.000000000000000D+00 -.128388415883166D+04
 0.517142009928623D+03 -.167598892424427D+03 0.468858865684087D+03 -.623925777681344D+02
 0.106485282308578D+04 0.109191999953659D+03 -.265997161788362D+03 0.102529710420951D+04
 0.985773484648911D+03 0.584068924707686D+02 -.202861703895725D+03 -.962904526441375D+03
 0.000000000000000D+00 0.000000000000000D+00 -.000000000000000D+00 0.000000000000000D+00
 0.128388415883166D+04 0.000000000000000D+00 0.000000000000000D+00 0.128388415883166D+04
 0.128388415883166D+04 -.000000000000000D+00 -.000000000000000D+00 -.128388415883166D+04
 0.516550719995003D+03 -.167437018154844D+03 0.468464531884045D+03 -.608726017632933D+02
 0.826187905455103D+03 0.939652011729892D+02 -.154370931947016D+03 0.806180259903838D+03
 0.983119371623937D+03 0.587152172599167D+02 -.203612798470943D+03 -.960009401216049D+03
 0.241910320589267D+03 0.147565997219378D+02 -.110480801466087D+03 0.214701743075504D+03
0.116153734964D-03 0.000000000000D+00 0.000000000000D+00 0.184126665355D-04 0.000000000000D+00  6 2 -1 25 2 -1 21 0 0.40537039D+00 0.96243840D-01 0.25603782D+06 0.25603782D+06 0.25603782D+06 0.10896803D+01  1  2  2  3  6  4        2 0.538971624529D-04 0.100000000000D+01
0.147564096263D-04 0.000000000000D+00 -.446060926241D-06 0.184126665355D-04 0.000000000000D+00  6 2 -1 25 2 -1 21 2 0.40537039D+00 0.96243840D-01 0.25603782D+06 0.25603782D+06 0.25603782D+06 0.10896803D+01  1  2  3  3  6  4        2 0.813039421364D-05 0.100000000000D+01
-.851906338177D-04 0.000000000000D+00 0.000000000000D+00 0.184126665355D-04 0.000000000000D+00  6 2 -1 25 2 -1 21 2 0.40537039D+00 0.96243840D-01 0.25603782D+06 0.25603782D+06 0.25603782D+06 0.10896803D+01  1  2 15  3  6  4        2 -.469378022018D-04 0.100000000000D+01
0.721329685791D-09 0.000000000000D+00 0.000000000000D+00 0.184126665355D-04 0.000000000000D+00  6 2 -1 25 2 -1 21 2 0.40537039D+00 0.96243840D-01 0.25859424D+06 0.25859424D+06 0.25859424D+06 0.10893565D+01  1  2 12  3  6  4        2 0.396868039447D-09 0.100000000000D+01
0.172098708477D-02 0.000000000000D+00 0.000000000000D+00 0.184126665355D-04 0.000000000000D+00  6 2 -1 25 2 -1 21 2 0.40537039D+00 0.96243840D-01 0.25859424D+06 0.25859424D+06 0.25859424D+06 0.10893565D+01  1  2 12  3  6  4        2 0.946869072077D-03 0.100000000000D+01
-.760826666131D-03 0.000000000000D+00 0.000000000000D+00 0.184126665355D-04 0.000000000000D+00  6 2 -1 25 2 -1 21 2 0.40537039D+00 0.96243840D-01 0.25603782D+06 0.25603782D+06 0.25603782D+06 0.10896803D+01  1  2  4  3  6  4        2 -.419195514394D-03 0.100000000000D+01
-.262913893054D-02 0.000000000000D+00 0.000000000000D+00 0.184126665355D-04 0.000000000000D+00  6 2 -1 25 2 -1 21 2 0.40537039D+00 0.96243840D-01 0.25603782D+06 0.25603782D+06 0.25603782D+06 0.10896803D+01  1  2  5  3  6  4        2 -.144858651183D-02 0.100000000000D+01
0.329207157142D-02 0.000000000000D+00 -.000000000000D+00 0.184126665355D-04 0.000000000000D+00  6 2 -1 25 2 -1 21 2 0.40537039D+00 0.96243840D-01 0.25603782D+06 0.25603782D+06 0.25603782D+06 0.10896803D+01  1  2  6  3  6  4        2 0.181384498893D-02 0.100000000000D+01
  </mgrwgt>
  </event>
  <event>
  5     66 0.19594695E-05 0.23857039E+03 0.75467711E-02 0.92827980E-01
        2 -1    0    0  502    0 0.00000000E+00 0.00000000E+00 0.13490671E+04 0.13490671E+04 0.32000000E+00 0.0000E+00 0.9000E+01
       -1 -1    0    0    0  501 -.00000000E+00 -.00000000E+00 -.18655933E+04 0.18655934E+04 0.32000000E+00 0.0000E+00 0.9000E+01
       25  1    1    2    0    0 -.34791756E+03 0.43768398E+03 -.35284516E+03 0.67285853E+03 0.12500000E+03 0.0000E+00 0.9000E+01
        2  1    1    2  502    0 0.13037566E+03 -.33979255E+03 0.11502173E+04 0.12064231E+04 0.32000000E+00 0.0000E+00 0.9000E+01
       -1  1    1    2    0  501 0.21754190E+03 -.97891428E+02 -.13138985E+04 0.13353788E+04 0.32000000E+00 0.0000E+00 0.9000E+01
#aMCatNLO 1  0  0  5  1 0.29282018D+00 0.00000000D+00  -5  6  0 0.00000000D+00 0.00000000D+00 0.00000000D+00 0.00000000D+00 0.00000000D+00
  <mgrwgt>
 0.9332289245D-04    1    2    0
 0.158644590447993D+04 0.000000000000000D+00 0.000000000000000D+00 0.158644590447993D+04
 0.158644590447993D+04 -.000000000000000D+00 -.000000000000000D+00 -.158644590447993D+04
 0.624262174693449D+03 -.347931247292943D+03 0.437686881414644D+03 -.247895751774199D+03
 0.140952869172064D+04 0.130373436767241D+03 -.339786767836606D+03 0.136173376699425D+04
 0.113910094254577D+04 0.217557810525702D+03 -.979001135780383D+02 -.111383801522005D+04
 0.000000000000000D+00 0.000000000000000D+00 -.000000000000000D+00 0.000000000000000D+00
 0.158644590447993D+04 0.000000000000000D+00 0.000000000000000D+00 0.158644590447993D+04
 0.158644590447993D+04 -.000000000000000D+00 -.000000000000000D+00 -.158644590447993D+04
 0.629401344483256D+03 -.343805602828838D+03 0.435830358494863D+03 -.269017952031216D+03
 0.136633125085689D+04 0.139508432745066D+03 -.343897478188043D+03 0.131496502187589D+04
 0.732345032402989D+03 0.209839535826857D+03 0.164025307647377D+03 -.682196682885872D+03
 0.444814181216727D+03 -.554236574308518D+01 -.255958187954197D+03 -.363750386958806D+03
0.138877141949D-02 0.000000000000D+00 0.000000000000D+00 0.116963975357D-04 0.000000000000D+00  6 2 -1 25 2 -1 21 2 0.20754878D+00 0.28701436D+00 0.34541611D+06 0.34541611D+06 0.34541611D+06 0.10800513D+01  1  2 14  4  6  5       -1 0.933228924528D-04 0.100000000000D+01
  </mgrwgt>
  </event>
  <event>
  5     66 0.19594695E-05 0.10273058E+03 0.75467711E-02 0.90237105E-01
        2 -1    0    0  502    0 0.00000000E+00 0.00000000E+00 0.36658021E+04 0.36658021E+04 0.32000000E+00 0.0000E+00 0.9000E+01
       -1 -1    0    0    0  501 0.00000000E+00 0.00000000E+00 -.16020599E+04 0.16020600E+04 0.32000000E+00 0.0000E+00 0.9000E+01
       25  1    1    2    0    0 0.27573183E+03 -.65680637E+03 -.10160635E+04 0.12471699E+04 0.12500000E+03 0.0000E+00 0.9000E+01
        2  1    1    2  502    0 -.25332128E+02 0.99559236E+02 0.33507926E+04 0.33523671E+04 0.32000000E+00 0.0000E+00 0.9000E+01
       -1  1    1    2    0  501 -.25039970E+03 0.55724714E+03 -.27098701E+03 0.66832510E+03 0.32000000E+00 0.0000E+00 0.9000E+01
#aMCatNLO 1  0  0  4  5 0.45003825D+02 0.00000000D+00  -5  6  0 0.00000000D+00 0.00000000D+00 0.00000000D+00 0.00000000D+00 0.00000000D+00
  <mgrwgt>
 0.5259650301D-04    7    2    0
 0.242339323592437D+04 0.000000000000000D+00 0.000000000000000D+00 0.242339323592437D+04
 0.242339323592437D+04 -.000000000000000D+00 -.000000000000000D+00 -.242339323592437D+04
 0.178815420813087D+04 0.275744534988039D+03 -.656835797938410D+03 -.163535994754273D+04
 0.221683808919172D+04 -.253319046534425D+02 0.995583601864172D+02 0.221445648889628D+04
 0.841794174526143D+03 -.250412630334595D+03 0.557277437751988D+03 -.579096541353546D+03
 0.000000000000000D+00 0.000000000000000D+00 0.000000000000000D+00 0.000000000000000D+00
 0.242339323592437D+04 0.000000000000000D+00 0.000000000000000D+00 0.242339323592437D+04
 0.242339323592437D+04 -.000000000000000D+00 -.000000000000000D+00 -.242339323592437D+04
 0.178665731931537D+04 0.275726177419586D+03 -.656763649813853D+03 -.163375517138645D+04
 0.195289711448294D+04 -.134024276080050D+02 0.131754901350878D+03 0.194840143724543D+04
 0.841299653756053D+03 -.250421273450443D+03 0.557311406553484D+03 -.578340980165585D+03
 0.265932384294361D+03 -.119024763611369D+02 -.323026580905134D+02 0.263694714306609D+03
0.959243346408D-03 0.000000000000D+00 0.000000000000D+00 0.851097449002D-05 0.000000000000D+00  6 2 -1 25 2 -1 21 0 0.56396956D+00 0.24647076D+00 0.51619652D+06 0.51619652D+06 0.51619652D+06 0.10675333D+01  1  2  2  3  6  4        2 0.462246037051D-05 0.100000000000D+01
0.341548046788D-03 0.000000000000D+00 -.368374702478D-05 0.851097449002D-05 0.000000000000D+00  6 2 -1 25 2 -1 21 2 0.56396956D+00 0.24647076D+00 0.51619652D+06 0.51619652D+06 0.51619652D+06 0.10675333D+01  1  2  3  3  6  4        2 0.187568130174D-05 0.100000000000D+01
-.714207910456D-03 0.000000000000D+00 0.000000000000D+00 0.851097449002D-05 0.000000000000D+00  6 2 -1 25 2 -1 21 2 0.56396956D+00 0.24647076D+00 0.51619652D+06 0.51619652D+06 0.51619652D+06 0.10675333D+01  1  2 15  3  6  4        2 -.392221954069D-05 0.100000000000D+01
0.106200633626D-07 0.000000000000D+00 0.000000000000D+00 0.851097449002D-05 0.000000000000D+00  6 2 -1 25 2 -1 21 2 0.56396956D+00 0.24647076D+00 0.56327150D+06 0.56327150D+06 0.56327150D+06 0.10648722D+01  1  2 12  3  6  4        2 0.573485415001D-10 0.100000000000D+01
-.391711355317D-02 0.000000000000D+00 0.000000000000D+00 0.851097449002D-05 0.000000000000D+00  6 2 -1 25 2 -1 21 2 0.56396956D+00 0.24647076D+00 0.51619652D+06 0.51619652D+06 0.51619652D+06 0.10675333D+01  1  2  4  3  6  4        2 -.215116342124D-04 0.100000000000D+01
-.102484563642D+00 0.000000000000D+00 0.000000000000D+00 0.851097449002D-05 0.000000000000D+00  6 2 -1 25 2 -1 21 2 0.56396956D+00 0.24647076D+00 0.51619652D+06 0.51619652D+06 0.51619652D+06 0.10675333D+01  1  2  5  3  6  4        2 -.562815046223D-03 0.100000000000D+01
0.115510054027D+00 0.000000000000D+00 -.000000000000D+00 0.851097449002D-05 0.000000000000D+00  6 2 -1 25 2 -1 21 2 0.56396956D+00 0.24647076D+00 0.51619652D+06 0.51619652D+06 0.51619652D+06 0.10675333D+01  1  2  6  3  6  4        2 0.634347203968D-03 0.100000000000D+01
  </mgrwgt>
  </event>
  <event>
  5     66 0.19594695E-05 0.14635492E+03 0.75467711E-02 0.95070996E-01
        2 -1    0    0  502    0 0.00000000E+00 0.00000000E+00 0.66377371E+03 0.66377379E+03 0.32000000E+00 0.0000E+00 0.9000E+01
       -1 -1    0    0    0  501 0.00000000E+00 0.00000000E+00 -.16734702E+04 0.16734702E+04 0.32000000E+00 0.0000E+00 0.9000E+01
       25  1    1    2    0    0 0.45464972E+03 -.57330182E+02 -.78036833E+03 0.91356054E+03 0.12500000E+03 0.0000E+00 0.9000E+01
        2  1    1    2  502    0 -.31157914E+03 0.88117922E+02 0.54593016E+03 0.63473315E+03 0.32000000E+00 0.0000E+00 0.9000E+01
       -1  1    1    2    0  501 -.14307058E+03 -.30787740E+02 -.77525833E+03 0.78895035E+03 0.32000000E+00 0.0000E+00 0.9000E+01
#aMCatNLO 1  0  0  1  4 0.14778936D+02 0.00000000D+00  -5  6  0 0.00000000D+00 0.00000000D+00 0.00000000D+00 0.00000000D+00 0.00000000D+00
  <mgrwgt>
 0.2983126229D-02   11    2    0
 0.105394765897485D+04 0.000000000000000D+00 0.000000000000000D+00 0.105394765897485D+04
 0.105394765897485D+04 0.000000000000000D+00 0.000000000000000D+00 -.105394765897485D+04
 0.639141707541436D+03 0.454656161496483D+03 -.573283034798056D+02 -.427642798083159D+03
 0.965290939692277D+03 -.311576429154331D+03 0.881171558311411D+02 0.909363565300296D+03
 0.503462670715994D+03 -.143079732342152D+03 -.307888523513354D+02 -.481720767217137D+03
 0.000000000000000D+00 0.000000000000000D+00 0.000000000000000D+00 0.000000000000000D+00
 0.112114679294342D+04 0.000000000000000D+00 0.000000000000000D+00 0.112114679294342D+04
 0.105478645021930D+04 0.000000000000000D+00 0.000000000000000D+00 -.105478645021930D+04
 0.638328184048604D+03 0.452968185332401D+03 -.614762626959943D+02 -.427642798083159D+03
 0.965565832039246D+03 -.314127753634380D+03 0.818476420099774D+02 0.909363565300296D+03
 0.504053110478123D+03 -.144411006476117D+03 -.340602675115456D+02 -.481720767217137D+03
 0.679861165967511D+02 0.557057477809557D+01 0.136888881975625D+02 0.663603427241249D+02
0.281751064856D-03 0.000000000000D+00 0.000000000000D+00 0.651690508145D-05 0.000000000000D+00  6 2 -1 25 2 -1 21 0 0.10211904D+00 0.25745697D+00 0.22332743D+06 0.22332743D+06 0.22332743D+06 0.10941645D+01  1  2  2  1  6  1        2 0.821772066554D-04 0.100000000000D+01
0.258789482399D-04 0.000000000000D+00 -.108199827581D-05 0.651690508145D-05 0.000000000000D+00  6 2 -1 25 2 -1 21 2 0.10211904D+00 0.25745697D+00 0.22332743D+06 0.22332743D+06 0.22332743D+06 0.10941645D+01  1  2  3  1  6  1        2 0.903644564716D-05 0.100000000000D+01
-.220276982686D-03 0.000000000000D+00 0.000000000000D+00 0.651690508145D-05 0.000000000000D+00  6 2 -1 25 2 -1 21 2 0.10211904D+00 0.25745697D+00 0.22332743D+06 0.22332743D+06 0.22332743D+06 0.10941645D+01  1  2 15  1  6  1        2 -.769166104783D-04 0.100000000000D+01
0.827319129187D-07 0.000000000000D+00 0.000000000000D+00 0.651690508145D-05 0.000000000000D+00  6 2 -1 25 2 -1 21 2 0.10866930D+00 0.25745697D+00 0.23120293D+06 0.23120293D+06 0.23120293D+06 0.10930221D+01  1  2 12  1  6  1        2 0.266682236351D-07 0.100000000000D+01
0.255386007509D-01 0.000000000000D+00 0.000000000000D+00 0.651690508145D-05 0.000000000000D+00  6 2 -1 25 2 -1 21 2 0.11018403D+00 0.25745697D+00 0.23120293D+06 0.23120293D+06 0.23120293D+06 0.10930221D+01  1  2 12  1  6  1        2 0.809376228340D-02 0.100000000000D+01
-.172628793315D-01 0.000000000000D+00 0.000000000000D+00 0.651690508145D-05 0.000000000000D+00  6 2 -1 25 2 -1 21 2 0.10211904D+00 0.25745697D+00 0.22332743D+06 0.22332743D+06 0.22332743D+06 0.10941645D+01  1  2  4  1  6  1        2 -.602787521914D-02 0.100000000000D+01
-.367530247433D-01 0.000000000000D+00 -.114146689168D-02 0.651690508145D-05 0.000000000000D+00  6 2 -1 25 2 -1 21 2 0.10866866D+00 0.25745697D+00 0.22332743D+06 0.22332743D+06 0.22332743D+06 0.10941645D+01  1  2  5  1  6  1        2 -.119031164227D-01 0.100000000000D+01
0.367551440869D-01 0.000000000000D+00 0.113926489647D-02 0.651690508145D-05 0.000000000000D+00  6 2 -1 25 2 -1 21 2 0.10211904D+00 0.25745697D+00 0.22332743D+06 0.22332743D+06 0.22332743D+06 0.10941645D+01  1  2  6  1  6  1        2 0.128342102127D-01 0.100000000000D+01
0.125016360374D-08 0.000000000000D+00 0.000000000000D+00 0.651690508145D-05 0.000000000000D+00  6 21 -1 25 2 -1 -2 2 0.10866930D+00 0.25745697D+00 0.23120293D+06 0.23120293D+06 0.23120293D+06 0.10930221D+01  1  2 12  5  6  1        2 0.479098625671D-09 0.100000000000D+01
0.462716297637D-03 0.000000000000D+00 0.000000000000D+00 0.651690508145D-05 0.000000000000D+00  6 21 -1 25 2 -1 -2 2 0.11018403D+00 0.25745697D+00 0.23120293D+06 0.23120293D+06 0.23120293D+06 0.10930221D+01  1  2 12  5  6  1        2 0.170919899317D-03 0.100000000000D+01
-.516344058044D-03 0.000000000000D+00 -.121485164583D-04 0.651690508145D-05 0.000000000000D+00  6 21 -1 25 2 -1 -2 2 0.10866866D+00 0.25745697D+00 0.22332743D+06 0.22332743D+06 0.22332743D+06 0.10941645D+01  1  2  5  5  6  1        2 -.199098713302D-03 0.100000000000D+01
  </mgrwgt>
  </event>
  <event>
  6     66 -.19594695E-05 0.66649132E+02 0.75467711E-02 0.92263248E-01
        2 -1    0    0  502    0 0.00000000E+00 0.00000000E+00 0.96721960E+03 0.96721965E+03 0.32000000E+00 0.0000E+00 0.9000E+01
       -1 -1    0    0    0  501 -.00000000E+00 -.00000000E+00 -.98775503E+03 0.98775509E+03 0.32000000E+00 0.0000E+00 0.9000E+01
       25  1    1    2    0    0 -.31147251E+03 -.50304989E+03 -.10800947E+03 0.61430071E+03 0.12500000E+03 0.0000E+00 0.9000E+01
        2  1    1    2  503    0 0.42383644E+02 -.12874940E+02 0.24735535E+03 0.25129049E+03 0.32000000E+00 0.0000E+00 0.9000E+01
       -1  1    1    2    0  501 0.20249075E+03 0.45725638E+03 -.51825019E+03 0.72018696E+03 0.32000000E+00 0.0000E+00 0.9000E+01
       21  1    1    2  502  503 0.66598112E+02 0.58668456E+02 0.35836887E+03 0.36919657E+03 0.75000000E+00 0.0000E+00 0.9000E+01
#aMCatNLO 2  0  0  4  1 0.31489173D+02 0.00000000D+00  -5  6  0 0.00000000D+00 0.00000000D+00 0.00000000D+00 0.00000000D+00 0.00000000D+00
  <mgrwgt>
 -.3366063464D-03    3    2    0
 0.977433438323181D+03 0.000000000000000D+00 0.000000000000000D+00 0.977433438323181D+03
 0.977433438323181D+03 -.000000000000000D+00 -.000000000000000D+00 -.977433438323181D+03
 0.613697042932457D+03 -.311732588284933D+03 -.503359055415503D+03 -.102232652496305D+03
 0.625459162813752D+03 0.109309666078296D+03 0.459313012486427D+02 0.614117966530159D+03
 0.715710670900154D+03 0.202422922206637D+03 0.457427754166860D+03 -.511885314033853D+03
 0.000000000000000D+00 0.000000000000000D+00 0.000000000000000D+00 0.000000000000000D+00
 0.977433438323181D+03 0.000000000000000D+00 0.000000000000000D+00 0.977433438323181D+03
 0.977433438323181D+03 -.000000000000000D+00 -.000000000000000D+00 -.977433438323181D+03
 0.613374278509145D+03 -.311551681460971D+03 -.503283039394894D+03 -.101216291044941D+03
 0.253377579259254D+03 0.422942112645868D+02 -.128726734460049D+02 0.249490864849073D+03
 0.714980078769988D+03 0.202633848592963D+03 0.457516384237184D+03 -.510700298214986D+03
 0.373134940107976D+03 0.666236216034212D+02 0.586393286037146D+02 0.362425724410854D+03
-.116306485337D-07 0.000000000000D+00 0.000000000000D+00 0.139756207888D-05 0.000000000000D+00  6 2 -1 25 2 -1 21 2 0.14880302D+00 0.15196232D+00 0.38335348D+06 0.38335348D+06 0.38335348D+06 0.10767610D+01  1  2 13  3  6  4        2 -.169763328572D-07 0.100000000000D+01
-.554448062708D-03 0.000000000000D+00 0.000000000000D+00 0.139756207888D-05 0.000000000000D+00  6 2 -1 25 2 -1 21 2 0.14880302D+00 0.15196232D+00 0.38335348D+06 0.38335348D+06 0.38335348D+06 0.10767610D+01  1  2 13  3  6  4        2 -.809283750367D-03 0.100000000000D+01
0.323847455610D-03 0.000000000000D+00 0.000000000000D+00 0.139756207888D-05 0.108583510184D-08  6 2 -1 25 2 -1 21 2 0.14880302D+00 0.15196232D+00 0.38335348D+06 0.38335348D+06 0.38335348D+06 0.10767610D+01  1  2  1  3  6  4        2 0.472694380323D-03 0.100000000000D+01
  </mgrwgt>
  </event>
  <event>
  5     66 -.19594695E-05 0.54454655E+02 0.75467711E-02 0.93413683E-01
        2 -1    0    0  502    0 0.00000000E+00 0.00000000E+00 0.23925240E+04 0.23925240E+04 0.32000000E+00 0.0000E+00 0.9000E+01
       -1 -1    0    0    0  501 0.00000000E+00 0.00000000E+00 -.28945924E+03 0.28945942E+03 0.32000000E+00 0.0000E+00 0.9000E+01
       25  1    1    2    0    0 -.51437889E+03 -.69231004E+02 0.41272641E+03 0.67479379E+03 0.12500000E+03 0.0000E+00 0.9000E+01
        2  1    1    2  502    0 -.11251883E+02 0.53292531E+02 0.14103949E+04 0.14114463E+04 0.32000000E+00 0.0000E+00 0.9000E+01
       -1  1    1    2    0  501 0.52563078E+03 0.15938472E+02 0.27994349E+03 0.59574340E+03 0.32000000E+00 0.0000E+00 0.9000E+01
#aMCatNLO 1  0  0  4  1 0.31489173D+02 0.00000000D+00  -5  6  0 0.00000000D+00 0.00000000D+00 0.00000000D+00 0.00000000D+00 0.00000000D+00
  <mgrwgt>
 -.6557508369D-04    1    2    0
 0.832188950800368D+03 0.000000000000000D+00 0.000000000000000D+00 0.832188950800368D+03
 0.832188950800368D+03 -.000000000000000D+00 -.000000000000000D+00 -.832188950800368D+03
 0.565917401482368D+03 -.514471227621972D+03 -.692309098127273D+02 -.187520511881230D+03
 0.492154851421955D+03 -.112492483109232D+02 0.532800510491631D+02 0.489132996587640D+03
 0.606305648696414D+03 0.525720475932895D+03 0.159508587635643D+02 -.301612484706410D+03
 0.000000000000000D+00 0.000000000000000D+00 0.000000000000000D+00 0.000000000000000D+00
 0.832188950800368D+03 0.000000000000000D+00 0.000000000000000D+00 0.832188950800368D+03
 0.832188950800368D+03 -.000000000000000D+00 -.000000000000000D+00 -.832188950800368D+03
 0.564984471317192D+03 -.514537976045382D+03 -.689147678529769D+02 -.184618197392509D+03
 0.453111907265342D+03 -.168015125862253D+02 0.255736140670826D+02 0.452077537535320D+03
 0.604712483806991D+03 0.525648998864009D+03 0.162893971062015D+02 -.298504562121254D+03
 0.415690392112114D+02 0.569048976759807D+01 0.270517566796929D+02 0.310452219784427D+02
-.196560662031D-04 0.000000000000D+00 0.000000000000D+00 0.194884780018D-05 0.000000000000D+00  6 2 -1 25 2 -1 21 2 0.36808063D+00 0.44532206D-01 0.31045138D+06 0.31045138D+06 0.31045138D+06 0.10834533D+01  1  2 14  3  6  4        2 -.655750836882D-04 0.100000000000D+01
  </mgrwgt>
  </event>
  <event>
  5     66 0.19594695E-05 0.38725577E+02 0.75467711E-02 0.94251289E-01
        2 -1    0    0  502    0 0.00000000E+00 0.00000000E+00 0.28497980E+04 0.28497980E+04 0.32000000E+00 0.0000E+00 0.9000E+01
       -1 -1    0    0    0  501 0.00000000E+00 0.00000000E+00 -.14010640E+03 0.14010676E+03 0.32000000E+00 0.0000E+00 0.9000E+01
       25  1    1    2    0    0 -.48657452E+03 0.12771968E+03 0.15317257E+04 0.16170577E+04 0.12500000E+03 0.0000E+00 0.9000E+01
        2  1    1    2  502    0 0.46627516E+03 -.94749447E+02 0.12236858E+04 0.13129345E+04 0.32000000E+00 0.0000E+00 0.9000E+01
       -1  1    1    2    0  501 0.20299357E+02 -.32970232E+02 -.45719907E+02 0.59912540E+02 0.32000000E+00 0.0000E+00 0.9000E+01
#aMCatNLO 1  0  0  5  2 0.38425615D+01 0.00000000D+00  -5  6  0 0.00000000D+00 0.00000000D+00 0.00000000D+00 0.00000000D+00 0.00000000D+00
  <mgrwgt>
 0.2473636589D-02    9    2    0
 0.631882511488644D+03 0.000000000000000D+00 0.000000000000000D+00 0.631882511488644D+03
 0.631882511488644D+03 -.000000000000000D+00 -.000000000000000D+00 -.631882511488644D+03
 0.541494605442529D+03 -.486531684117459D+03 0.127716104900880D+03 0.156738395494329D+03
 0.482428505523391D+03 0.466228032483886D+03 -.947398709012065D+02 0.799564977307032D+02
 0.239841912011367D+03 0.203036516335733D+02 -.329762339996734D+02 -.236694893225032D+03
 0.000000000000000D+00 0.000000000000000D+00 0.000000000000000D+00 -.000000000000000D+00
 0.631882511488644D+03 0.000000000000000D+00 0.000000000000000D+00 0.631882511488644D+03
 0.631882511488644D+03 -.000000000000000D+00 -.000000000000000D+00 -.631882511488644D+03
 0.541403640201960D+03 -.486512137824812D+03 0.127684358733649D+03 0.156510529702769D+03
 0.482417285738110D+03 0.466245447931987D+03 -.947681562511594D+02 0.797534727919854D+02
 0.148430447232704D+02 0.500203102126490D+01 -.247841780483176D+01 -.137532944236643D+02
 0.225101052313947D+03 0.152646588715607D+02 -.304377846776579D+02 -.222510708071090D+03
0.631336010101D-04 0.000000000000D+00 0.000000000000D+00 0.383297692022D-06 0.000000000000D+00  6 2 -1 25 2 -1 21 0 0.43843049D+00 0.21554860D-01 0.26666696D+06 0.26666696D+06 0.26666696D+06 0.10883567D+01  1  2  2  4  6  5       -1 0.333591760009D-03 0.100000000000D+01
0.216325690897D-04 0.000000000000D+00 -.242449651338D-06 0.383297692022D-06 0.000000000000D+00  6 2 -1 25 2 -1 21 2 0.43843049D+00 0.21554860D-01 0.26666696D+06 0.26666696D+06 0.26666696D+06 0.10883567D+01  1  2  3  4  6  5       -1 0.135395859698D-03 0.100000000000D+01
-.407932357753D-04 0.000000000000D+00 0.000000000000D+00 0.383297692022D-06 0.000000000000D+00  6 2 -1 25 2 -1 21 2 0.43843049D+00 0.21554860D-01 0.26666696D+06 0.26666696D+06 0.26666696D+06 0.10883567D+01  1  2 15  4  6  5       -1 -.255320355375D-03 0.100000000000D+01
0.177896786751D-07 0.000000000000D+00 0.000000000000D+00 0.383297692022D-06 0.000000000000D+00  6 2 -1 25 2 -1 21 2 0.43843049D+00 0.21554860D-01 0.26713414D+06 0.26713414D+06 0.26713414D+06 0.10882999D+01  1  2 12  4  6  5       -1 0.111321168845D-06 0.100000000000D+01
0.178544709661D-04 0.000000000000D+00 0.000000000000D+00 0.383297692022D-06 0.000000000000D+00  6 2 -1 25 2 -1 21 2 0.43843049D+00 0.21554860D-01 0.26713414D+06 0.26713414D+06 0.26713414D+06 0.10882999D+01  1  2 12  4  6  5       -1 0.111726614817D-03 0.100000000000D+01
-.222732683866D-03 0.000000000000D+00 0.000000000000D+00 0.383297692022D-06 0.000000000000D+00  6 2 -1 25 2 -1 21 2 0.43843049D+00 0.21554860D-01 0.26666696D+06 0.26666696D+06 0.26666696D+06 0.10883567D+01  1  2  4  4  6  5       -1 -.139405925805D-02 0.100000000000D+01
-.229373484915D-03 0.000000000000D+00 0.000000000000D+00 0.383297692022D-06 0.000000000000D+00  6 2 -1 25 2 -1 21 2 0.43843049D+00 0.21554860D-01 0.26666696D+06 0.26666696D+06 0.26666696D+06 0.10883567D+01  1  2  5  4  6  5       -1 -.143562329806D-02 0.100000000000D+01
0.575224041405D-03 0.000000000000D+00 -.000000000000D+00 0.383297692022D-06 0.000000000000D+00  6 2 -1 25 2 -1 21 2 0.43843049D+00 0.21554860D-01 0.26666696D+06 0.26666696D+06 0.26666696D+06 0.10883567D+01  1  2  6  4  6  5       -1 0.360026371727D-02 0.100000000000D+01
0.220139405319D-03 0.000000000000D+00 0.000000000000D+00 0.383297692022D-06 0.530838560872D-08  6 2 -1 25 2 -1 21 2 0.43843049D+00 0.21554860D-01 0.26713414D+06 0.26713414D+06 0.26713414D+06 0.10882999D+01  1  2 11  4  6  5       -1 0.137755022767D-02 0.100000000000D+01
  </mgrwgt>
  </event>
  <event>
  5     66 0.19594695E-05 0.32639703E+02 0.75467711E-02 0.94187175E-01
        2 -1    0    0  502    0 0.00000000E+00 0.00000000E+00 0.13041071E+04 0.13041072E+04 0.32000000E+00 0.0000E+00 0.9000E+01
       -1 -1    0    0    0  501 0.00000000E+00 0.00000000E+00 -.63055074E+03 0.63055082E+03 0.32000000E+00 0.0000E+00 0.9000E+01
       25  1    1    2    0    0 -.24141384E+03 -.43532970E+03 0.20395420E+02 0.51364731E+03 0.12500000E+03 0.0000E+00 0.9000E+01
        2  1    1    2  502    0 0.21066011E+03 0.44625612E+03 0.97751690E+03 0.10950167E+04 0.32000000E+00 0.0000E+00 0.9000E+01
       -1  1    1    2    0  501 0.30753729E+02 -.10926421E+02 -.32435594E+03 0.32599396E+03 0.32000000E+00 0.0000E+00 0.9000E+01
#aMCatNLO 1  0  0  5  4 0.11123121D+02 0.00000000D+00  -5  6  0 0.00000000D+00 0.00000000D+00 0.00000000D+00 0.00000000D+00 0.00000000D+00
  <mgrwgt>
 0.6684560055D-03    7    2    0
 0.906810798601754D+03 0.000000000000000D+00 0.000000000000000D+00 0.906810798601754D+03
 0.906810798601754D+03 -.000000000000000D+00 -.000000000000000D+00 -.906810798601754D+03
 0.540328877820893D+03 -.241412532809143D+03 -.435320863007106D+03 -.168955708517377D+03
 0.805042840833911D+03 0.210656231462569D+03 0.446247901509416D+03 0.636066614532130D+03
 0.468249878548704D+03 0.307563013465746D+02 -.109270385023100D+02 -.467110906014753D+03
 0.000000000000000D+00 0.000000000000000D+00 0.000000000000000D+00 0.000000000000000D+00
 0.906810798601754D+03 0.000000000000000D+00 0.000000000000000D+00 0.906810798601754D+03
 0.906810798601754D+03 -.000000000000000D+00 -.000000000000000D+00 -.906810798601754D+03
 0.540385320350157D+03 -.241400238171162D+03 -.435325231022007D+03 -.169142433163543D+03
 0.804824277048066D+03 0.210674545956303D+03 0.446241394771953D+03 0.635788463409040D+03
 0.327298968366065D+03 0.105088658370051D+02 -.600449963297598D+01 -.327075105161594D+03
 0.141113031439221D+03 0.202168263778540D+02 -.491166411696998D+01 -.139570925083903D+03
0.132028902704D-04 0.000000000000D+00 0.000000000000D+00 0.155064152919D-04 0.000000000000D+00  6 2 -1 25 2 -1 21 0 0.20063187D+00 0.97007815D-01 0.27005921D+06 0.27005921D+06 0.27005921D+06 0.10879464D+01  1  2  2  4  6  5       -1 0.329981852752D-04 0.100000000000D+01
0.665352526349D-05 0.000000000000D+00 -.507025750391D-07 0.155064152919D-04 0.000000000000D+00  6 2 -1 25 2 -1 21 2 0.20063187D+00 0.97007815D-01 0.27005921D+06 0.27005921D+06 0.27005921D+06 0.10879464D+01  1  2  3  4  6  5       -1 0.196828444962D-04 0.100000000000D+01
-.900043200804D-05 0.000000000000D+00 0.000000000000D+00 0.155064152919D-04 0.000000000000D+00  6 2 -1 25 2 -1 21 2 0.20063187D+00 0.97007815D-01 0.27005921D+06 0.27005921D+06 0.27005921D+06 0.10879464D+01  1  2 15  4  6  5       -1 -.266256002039D-04 0.100000000000D+01
0.250515936503D-08 0.000000000000D+00 0.000000000000D+00 0.155064152919D-04 0.000000000000D+00  6 2 -1 25 2 -1 21 2 0.20063187D+00 0.97007815D-01 0.27019870D+06 0.27019870D+06 0.27019870D+06 0.10879297D+01  1  2 12  4  6  5       -1 0.741046980719D-08 0.100000000000D+01
-.245383489098D-03 0.000000000000D+00 0.000000000000D+00 0.155064152919D-04 0.000000000000D+00  6 2 -1 25 2 -1 21 2 0.20063187D+00 0.97007815D-01 0.27005921D+06 0.27005921D+06 0.27005921D+06 0.10879464D+01  1  2  4  4  6  5       -1 -.725907675490D-03 0.100000000000D+01
-.134457747491D-02 0.000000000000D+00 0.000000000000D+00 0.155064152919D-04 0.000000000000D+00  6 2 -1 25 2 -1 21 2 0.20063187D+00 0.97007815D-01 0.27005921D+06 0.27005921D+06 0.27005921D+06 0.10879464D+01  1  2  5  4  6  5       -1 -.397760710354D-02 0.100000000000D+01
0.180711347751D-02 0.000000000000D+00 -.000000000000D+00 0.155064152919D-04 0.000000000000D+00  6 2 -1 25 2 -1 21 2 0.20063187D+00 0.97007815D-01 0.27005921D+06 0.27005921D+06 0.27005921D+06 0.10879464D+01  1  2  6  4  6  5       -1 0.534590794447D-02 0.100000000000D+01
  </mgrwgt>
  </event>
  <event>
  6     66 -.19594695E-05 0.66944487E+02 0.75467711E-02 0.94695591E-01
        2 -1    0    0  502    0 0.00000000E+00 0.00000000E+00 0.84047351E+03 0.84047357E+03 0.32000000E+00 0.0000E+00 0.9000E+01
       -1 -1    0    0    0  501 0.00000000E+00 0.00000000E+00 -.82016339E+03 0.82016345E+03 0.32000000E+00 0.0000E+00 0.9000E+01
       25  1    1    2    0    0 0.15119212E+03 0.42192936E+03 0.19943954E+03 0.50624557E+03 0.12500000E+03 0.0000E+00 0.9000E+01
        2  1    1    2  502    0 -.66495099E+02 0.17926199E+02 0.39663751E+03 0.40257219E+03 0.32000000E+00 0.0000E+00 0.9000E+01
       -1  1    1    2    0  503 -.83325517E+02 -.44340935E+03 -.49041750E+03 0.66638159E+03 0.32000000E+00 0.0000E+00 0.9000E+01
       21  1    1    2  503  501 -.13715002E+01 0.35537919E+01 -.85349428E+02 0.85437683E+02 0.75000000E+00 0.0000E+00 0.9000E+01
#aMCatNLO 2  0  0  5  2 0.55170291D+02 0.00000000D+00  -5  6  0 0.00000000D+00 0.00000000D+00 0.00000000D+00 0.00000000D+00 0.00000000D+00
  <mgrwgt>
 -.1580078094D-01    2    2    0
 0.830256409755244D+03 0.000000000000000D+00 0.000000000000000D+00 0.830256409755244D+03
 0.830256409755244D+03 -.000000000000000D+00 -.000000000000000D+00 -.830256409755244D+03
 0.509656705064942D+03 0.151970915576243D+03 0.426056669267110D+03 0.198759936631073D+03
 0.401873097534753D+03 -.658583803412679D+02 0.211201454333849D+02 0.395877000743759D+03
 0.748983016910795D+03 -.861125352349746D+02 -.447176814700495D+03 -.594636937374832D+03
 0.000000000000000D+00 0.000000000000000D+00 0.000000000000000D+00 -.000000000000000D+00
 0.830256409755244D+03 0.000000000000000D+00 0.000000000000000D+00 0.830256409755244D+03
 0.830256409755244D+03 -.000000000000000D+00 -.000000000000000D+00 -.830256409755244D+03
 0.503937770106677D+03 0.151189142006420D+03 0.421996969784143D+03 0.193361518851228D+03
 0.397624593820909D+03 -.664750235645159D+02 0.179179571384258D+02 0.391618865308255D+03
 0.672401122981684D+03 -.833402817599462D+02 -.443464408800601D+03 -.498514779871505D+03
 0.865493326012194D+02 -.137383668195767D+01 0.354948187803276D+01 -.864656042879787D+02
-.742901738382D-07 0.000000000000D+00 0.000000000000D+00 0.472636720400D-05 0.000000000000D+00  6 2 -1 25 2 -1 21 2 0.12930363D+00 0.12617899D+00 0.24465199D+06 0.24465199D+06 0.24465199D+06 0.10911663D+01  1  2 13  4  6  5       -1 -.228750488670D-06 0.100000000000D+01
-.513146780929D-02 0.000000000000D+00 0.000000000000D+00 0.472636720400D-05 0.000000000000D+00  6 2 -1 25 2 -1 21 2 0.12930363D+00 0.12617899D+00 0.24465199D+06 0.24465199D+06 0.24465199D+06 0.10911663D+01  1  2 13  4  6  5       -1 -.158005521905D-01 0.100000000000D+01
  </mgrwgt>
  </event>
  <event>
  5     66 -.19594695E-05 0.13124329E+03 0.75467711E-02 0.93706887E-01
        2 -1    0    0  502    0 0.00000000E+00 0.00000000E+00 0.60945431E+03 0.60945440E+03 0.32000000E+00 0.0000E+00 0.9000E+01
       -1 -1    0    0    0  501 0.00000000E+00 0.00000000E+00 -.15465400E+04 0.15465401E+04 0.32000000E+00 0.0000E+00 0.9000E+01
       25  1    1    2    0    0 0.46929981E+03 0.22752024E+03 -.30587286E+03 0.61740666E+03 0.12500000E+03 0.0000E+00 0.9000E+01
        2  1    1    2  502    0 -.10729710E+03 -.75606878E+02 0.40752243E+03 0.42813981E+03 0.32000000E+00 0.0000E+00 0.9000E+01
       -1  1    1    2    0  501 -.36200272E+03 -.15191337E+03 -.10387353E+04 0.11104480E+04 0.32000000E+00 0.0000E+00 0.9000E+01
#aMCatNLO 1  0  0  2  5 0.44334663D+02 0.00000000D+00  -5  6  0 0.00000000D+00 0.00000000D+00 0.00000000D+00 0.00000000D+00 0.00000000D+00
  <mgrwgt>
 -.6500681291D-02   11    4    0
 0.970847884480852D+03 0.000000000000000D+00 0.000000000000000D+00 0.970847884480852D+03
 0.970847884480852D+03 0.000000000000000D+00 0.000000000000000D+00 -.970847884480852D+03
 0.537967563542662D+03 0.469343657461299D+03 0.227536365735666D+03 -.415672093444469D+02
 0.671984172741762D+03 -.107283815477482D+03 -.755975186146105D+02 0.659043190186605D+03
 0.731744032677279D+03 -.362059841983816D+03 -.151938847121055D+03 -.617475980842158D+03
 0.000000000000000D+00 -.000000000000000D+00 -.000000000000000D+00 -.000000000000000D+00
 0.973217013432577D+03 0.000000000000000D+00 0.000000000000000D+00 0.973217013432577D+03
 0.120331732698469D+04 0.000000000000000D+00 0.000000000000000D+00 -.120331732698469D+04
 0.549626962200551D+03 0.478773826215272D+03 0.235611094849773D+03 -.415672093444469D+02
 0.669175953060787D+03 -.956550641247884D+02 -.656402188506226D+02 0.659043190186605D+03
 0.723398933550704D+03 -.349442783504867D+03 -.141135293961793D+03 -.617475980842158D+03
 0.234332491605227D+03 -.336759785856170D+02 -.288355820373572D+02 -.230100313552115D+03
 0.970847884480852D+03 0.000000000000000D+00 0.000000000000000D+00 0.970847884480852D+03
 0.970847884480852D+03 0.000000000000000D+00 0.000000000000000D+00 -.970847884480852D+03
 0.537967563542662D+03 0.469343657461299D+03 0.227536365735666D+03 -.415672093444469D+02
 0.671984172741762D+03 -.107283815477482D+03 -.755975186146105D+02 0.659043190186605D+03
 0.000000000000000D+00 -.000000000000000D+00 -.000000000000000D+00 -.000000000000000D+00
 0.731744032677279D+03 -.362059841983816D+03 -.151938847121055D+03 -.617475980842158D+03
 0.973217013432577D+03 0.000000000000000D+00 0.000000000000000D+00 0.973217013432577D+03
 0.120331732698469D+04 0.000000000000000D+00 0.000000000000000D+00 -.120331732698469D+04
 0.549626962200551D+03 0.478773826215272D+03 0.235611094849773D+03 -.415672093444469D+02
 0.669175953060787D+03 -.956550641247884D+02 -.656402188506226D+02 0.659043190186605D+03
 0.234332491605227D+03 -.336759785856170D+02 -.288355820373572D+02 -.230100313552115D+03
 0.723398933550704D+03 -.349442783504867D+03 -.141135293961793D+03 -.617475980842158D+03
0.294081157160D-03 0.000000000000D+00 0.000000000000D+00 0.422731465644D-05 0.000000000000D+00  6 2 -1 25 2 -1 21 0 0.93762211D-01 0.23792924D+00 0.28103301D+06 0.28103301D+06 0.28103301D+06 0.10866566D+01  1  2  2  2  6  2       -1 0.135453804173D-03 0.100000000000D+01
0.510942310147D-04 0.000000000000D+00 -.112934907684D-05 0.422731465644D-05 0.000000000000D+00  6 2 -1 25 2 -1 21 2 0.93762211D-01 0.23792924D+00 0.28103301D+06 0.28103301D+06 0.28103301D+06 0.10866566D+01  1  2  3  2  6  2       -1 0.277894868875D-04 0.100000000000D+01
-.157239179323D-03 0.000000000000D+00 0.000000000000D+00 0.422731465644D-05 0.000000000000D+00  6 2 -1 25 2 -1 21 2 0.93762211D-01 0.23792924D+00 0.28103301D+06 0.28103301D+06 0.28103301D+06 0.10866566D+01  1  2 15  2  6  2       -1 -.855203420275D-04 0.100000000000D+01
0.738305957074D-07 0.000000000000D+00 0.000000000000D+00 0.422731465644D-05 0.000000000000D+00  6 2 -1 25 2 -1 21 2 0.93762211D-01 0.29514558D+00 0.29445077D+06 0.29445077D+06 0.29445077D+06 0.10851523D+01  1  2 12  2  6  2       -1 0.130473157268D-07 0.100000000000D+01
0.134902694131D-01 0.000000000000D+00 0.000000000000D+00 0.422731465644D-05 0.000000000000D+00  6 2 -1 25 2 -1 21 2 0.93762211D-01 0.30018813D+00 0.29445077D+06 0.29445077D+06 0.29445077D+06 0.10851523D+01  1  2 12  2  6  2       -1 0.214985307021D-02 0.100000000000D+01
-.258255872015D-01 0.000000000000D+00 0.000000000000D+00 0.422731465644D-05 0.000000000000D+00  6 2 -1 25 2 -1 21 2 0.93762211D-01 0.23792924D+00 0.28103301D+06 0.28103301D+06 0.28103301D+06 0.10866566D+01  1  2  4  2  6  2       -1 -.140462005719D-01 0.100000000000D+01
-.151790364736D-01 0.000000000000D+00 -.329855323152D-03 0.422731465644D-05 0.000000000000D+00  6 2 -1 25 2 -1 21 2 0.93762211D-01 0.29513091D+00 0.28103301D+06 0.28103301D+06 0.28103301D+06 0.10866566D+01  1  2  5  2  6  2       -1 -.270089316266D-02 0.100000000000D+01
0.149102290486D-01 0.000000000000D+00 0.322345217989D-03 0.422731465644D-05 0.000000000000D+00  6 2 -1 25 2 -1 21 2 0.93762211D-01 0.23792924D+00 0.28103301D+06 0.28103301D+06 0.28103301D+06 0.10866566D+01  1  2  6  2  6  2       -1 0.810947941492D-02 0.100000000000D+01
0.223635879876D-08 0.000000000000D+00 0.000000000000D+00 0.422731465644D-05 0.000000000000D+00  6 2 21 25 2 1 -1 2 0.93762211D-01 0.29514558D+00 0.29445077D+06 0.29445077D+06 0.29445077D+06 0.10851523D+01  3  4 12  6  5  2       -1 0.346296850938D-08 0.100000000000D+01
0.432533000474D-03 0.000000000000D+00 0.000000000000D+00 0.422731465644D-05 0.000000000000D+00  6 2 21 25 2 1 -1 2 0.93762211D-01 0.30018813D+00 0.29445077D+06 0.29445077D+06 0.29445077D+06 0.10851523D+01  3  4 12  6  5  2       -1 0.620247807485D-03 0.100000000000D+01
-.455385526391D-03 0.000000000000D+00 -.998970858611D-05 0.422731465644D-05 0.000000000000D+00  6 2 21 25 2 1 -1 2 0.93762211D-01 0.29513091D+00 0.28103301D+06 0.28103301D+06 0.28103301D+06 0.10866566D+01  3  4  5  6  5  2       -1 -.710907308735D-03 0.100000000000D+01
  </mgrwgt>
  </event>
  <event>
  5     66 0.19594695E-05 0.20871628E+03 0.75467711E-02 0.92079298E-01
        2 -1    0    0  502    0 0.00000000E+00 0.00000000E+00 0.27616218E+04 0.27616219E+04 0.32000000E+00 0.0000E+00 0.9000E+01
       -1 -1    0    0    0  501 0.00000000E+00 0.00000000E+00 -.72437608E+03 0.72437615E+03 0.32000000E+00 0.0000E+00 0.9000E+01
       25  1    1    2    0    0 0.45490010E+03 0.65396632E+02 0.22204974E+03 0.52549206E+03 0.12500000E+03 0.0000E+00 0.9000E+01
        2  1    1    2  502    0 -.24841461E+03 -.35088399E+02 0.23619701E+04 0.23752566E+04 0.32000000E+00 0.0000E+00 0.9000E+01
       -1  1    1    2    0  501 -.20648549E+03 -.30308233E+02 -.54677406E+03 0.58524937E+03 0.32000000E+00 0.0000E+00 0.9000E+01
#aMCatNLO 1  0  0  1  4 0.52057100D+02 0.00000000D+00  -5  6  0 0.00000000D+00 0.00000000D+00 0.00000000D+00 0.00000000D+00 0.00000000D+00
  <mgrwgt>
 0.3102382279D-02    7    2    0
 0.141437369334998D+04 0.000000000000000D+00 0.000000000000000D+00 0.141437369334998D+04
 0.141437369334998D+04 0.000000000000000D+00 0.000000000000000D+00 -.141437369334998D+04
 0.487669030064280D+03 0.454912178875226D+03 0.653984318613286D+02 -.104757040359628D+03
 0.122603449458809D+04 -.248408582247109D+03 -.350875479942087D+02 0.120009275564917D+04
 0.111504386204759D+04 -.206503596628118D+03 -.303108838671199D+02 -.109533571528954D+04
 0.000000000000000D+00 -.000000000000000D+00 -.000000000000000D+00 0.000000000000000D+00
 0.171031870118744D+04 0.000000000000000D+00 0.000000000000000D+00 0.171031870118744D+04
 0.149653729561916D+04 0.000000000000000D+00 0.000000000000000D+00 -.149653729561916D+04
 0.499082674014377D+03 0.457102090227253D+03 0.116370774279060D+03 -.104757040359628D+03
 0.122786700177668D+04 -.242962605593172D+03 0.916729195226720D+02 0.120009275564917D+04
 0.111696266246378D+04 -.201550074474955D+03 0.849872203831623D+02 -.109533571528954D+04
 0.362943658551768D+03 -.125894101591265D+02 -.293030914184895D+03 0.213781405568287D+03
0.591297249566D-02 0.000000000000D+00 0.000000000000D+00 0.583889418465D-04 0.000000000000D+00  6 2 -1 25 2 -1 21 0 0.42486490D+00 0.11144248D+00 0.21896564D+06 0.21896564D+06 0.21896564D+06 0.10948162D+01  1  2  2  1  6  1        2 0.167451209050D-02 0.100000000000D+01
0.790334114494D-03 0.000000000000D+00 -.227073713048D-04 0.583889418465D-04 0.000000000000D+00  6 2 -1 25 2 -1 21 2 0.42486490D+00 0.11144248D+00 0.21896564D+06 0.21896564D+06 0.21896564D+06 0.10948162D+01  1  2  3  1  6  1        2 0.268272165833D-03 0.100000000000D+01
-.473359983374D-02 0.000000000000D+00 0.000000000000D+00 0.583889418465D-04 0.000000000000D+00  6 2 -1 25 2 -1 21 2 0.42486490D+00 0.11144248D+00 0.21896564D+06 0.21896564D+06 0.21896564D+06 0.10948162D+01  1  2 15  1  6  1        2 -.160678003935D-02 0.100000000000D+01
-.208647279396D-03 0.000000000000D+00 0.000000000000D+00 0.583889418465D-04 0.000000000000D+00  6 2 -1 25 2 -1 21 2 0.42486490D+00 0.11144248D+00 0.21896564D+06 0.21896564D+06 0.21896564D+06 0.10948162D+01  1  2  4  1  6  1        2 -.708235371755D-04 0.100000000000D+01
-.124171437622D-01 0.000000000000D+00 -.509595103241D-02 0.583889418465D-04 0.000000000000D+00  6 2 -1 25 2 -1 21 2 0.52126541D+00 0.11144248D+00 0.21896564D+06 0.21896564D+06 0.21896564D+06 0.10948162D+01  1  2  5  1  6  1        2 -.167065990078D-02 0.100000000000D+01
0.132851923983D-01 0.000000000000D+00 0.499123176465D-02 0.583889418465D-04 0.000000000000D+00  6 2 -1 25 2 -1 21 2 0.42486490D+00 0.11144248D+00 0.21896564D+06 0.21896564D+06 0.21896564D+06 0.10948162D+01  1  2  6  1  6  1        2 0.450954510611D-02 0.100000000000D+01
-.300459645586D-03 0.000000000000D+00 -.148328047191D-03 0.583889418465D-04 0.000000000000D+00  6 21 -1 25 2 -1 -2 2 0.52126541D+00 0.11144248D+00 0.21896564D+06 0.21896564D+06 0.21896564D+06 0.10948162D+01  1  2  5  5  6  1        2 -.168360655790D-05 0.100000000000D+01
  </mgrwgt>
  </event>
  <event>
  5     66 0.19594695E-05 0.15591964E+03 0.75467711E-02 0.93358345E-01
        2 -1    0    0  502    0 0.00000000E+00 0.00000000E+00 0.14854363E+04 0.14854363E+04 0.32000000E+00 0.0000E+00 0.9000E+01
       -1 -1    0    0    0  501 0.00000000E+00 0.00000000E+00 -.47768094E+03 0.47768105E+03 0.32000000E+00 0.0000E+00 0.9000E+01
       25  1    1    2    0    0 -.24868947E+03 0.49197452E+03 -.53932535E+02 0.56781960E+03 0.12500000E+03 0.0000E+00 0.9000E+01
        2  1    1    2  502    0 0.97214662E+02 -.12193341E+03 0.97341323E+03 0.98582548E+03 0.32000000E+00 0.0000E+00 0.9000E+01
       -1  1    1    2    0  501 0.15147480E+03 -.37004111E+03 0.88274652E+02 0.40947229E+03 0.32000000E+00 0.0000E+00 0.9000E+01
#aMCatNLO 1  0  0  5  2 0.42590384D+02 0.00000000D+00  -5  6  0 0.00000000D+00 0.00000000D+00 0.00000000D+00 0.00000000D+00 0.00000000D+00
  <mgrwgt>
 0.3329462268D-03    8    2    0
 0.842356659003760D+03 0.000000000000000D+00 0.000000000000000D+00 0.842356659003760D+03
 0.842356659003760D+03 -.000000000000000D+00 -.000000000000000D+00 -.842356659003760D+03
 0.693920040328446D+03 -.248714314576465D+03 0.492035259860094D+03 -.402420818483091D+03
 0.566375974355882D+03 0.971996437821031D+02 -.121914575136749D+03 0.544491331377675D+03
 0.424417303323193D+03 0.151514670794362D+03 -.370120684723345D+03 -.142070512894584D+03
 0.000000000000000D+00 0.000000000000000D+00 -.000000000000000D+00 0.000000000000000D+00
 0.842356659003760D+03 0.000000000000000D+00 0.000000000000000D+00 0.842356659003760D+03
 0.842356659003760D+03 -.000000000000000D+00 -.000000000000000D+00 -.842356659003760D+03
 0.691761488667315D+03 -.247313777894337D+03 0.488614022873262D+03 -.403734057417079D+03
 0.566151496624015D+03 0.983443124764851D+02 -.124710776710662D+03 0.543418011760158D+03
 0.278165626014923D+03 0.126093384719219D+03 -.218885418938286D+03 -.116472087654235D+03
 0.148634706701268D+03 0.228760806986325D+02 -.145017827224314D+03 -.232118666888433D+02
0.270886805319D-04 0.000000000000D+00 0.000000000000D+00 0.133139400110D-06 0.000000000000D+00  6 2 -1 25 2 -1 21 0 0.22852867D+00 0.73489386D-01 0.31425467D+06 0.31425467D+06 0.31425467D+06 0.10830634D+01  1  2  2  4  6  5       -1 0.951083505798D-04 0.100000000000D+01
0.314678904291D-05 0.000000000000D+00 -.104027665856D-06 0.133139400110D-06 0.000000000000D+00  6 2 -1 25 2 -1 21 2 0.22852867D+00 0.73489386D-01 0.31425467D+06 0.31425467D+06 0.31425467D+06 0.10830634D+01  1  2  3  4  6  5       -1 0.129600365794D-04 0.100000000000D+01
-.157656415082D-04 0.000000000000D+00 0.000000000000D+00 0.133139400110D-06 0.000000000000D+00  6 2 -1 25 2 -1 21 2 0.22852867D+00 0.73489386D-01 0.31425467D+06 0.31425467D+06 0.31425467D+06 0.10830634D+01  1  2 15  4  6  5       -1 -.649307239401D-04 0.100000000000D+01
0.120936575983D-06 0.000000000000D+00 0.000000000000D+00 0.133139400110D-06 0.000000000000D+00  6 2 -1 25 2 -1 21 2 0.22852867D+00 0.73489386D-01 0.31357933D+06 0.31357933D+06 0.31357933D+06 0.10831323D+01  1  2 12  4  6  5       -1 0.498194523017D-06 0.100000000000D+01
0.151458028168D-03 0.000000000000D+00 0.000000000000D+00 0.133139400110D-06 0.000000000000D+00  6 2 -1 25 2 -1 21 2 0.22852867D+00 0.73489386D-01 0.31357933D+06 0.31357933D+06 0.31357933D+06 0.10831323D+01  1  2 12  4  6  5       -1 0.623926711061D-03 0.100000000000D+01
-.141674896653D-03 0.000000000000D+00 0.000000000000D+00 0.133139400110D-06 0.000000000000D+00  6 2 -1 25 2 -1 21 2 0.22852867D+00 0.73489386D-01 0.31425467D+06 0.31425467D+06 0.31425467D+06 0.10830634D+01  1  2  4  4  6  5       -1 -.583487427330D-03 0.100000000000D+01
-.148747306660D-03 0.000000000000D+00 0.000000000000D+00 0.133139400110D-06 0.000000000000D+00  6 2 -1 25 2 -1 21 2 0.22852867D+00 0.73489386D-01 0.31425467D+06 0.31425467D+06 0.31425467D+06 0.10830634D+01  1  2  5  4  6  5       -1 -.612615116271D-03 0.100000000000D+01
0.209174975947D-03 0.000000000000D+00 -.000000000000D+00 0.133139400110D-06 0.000000000000D+00  6 2 -1 25 2 -1 21 2 0.22852867D+00 0.73489386D-01 0.31425467D+06 0.31425467D+06 0.31425467D+06 0.10830634D+01  1  2  6  4  6  5       -1 0.861486201583D-03 0.100000000000D+01
  </mgrwgt>
  </event>
  <event>
  5     66 0.19594695E-05 0.26499180E+02 0.75467711E-02 0.91759849E-01
        2 -1    0    0  502    0 0.00000000E+00 0.00000000E+00 0.11239721E+04 0.11239721E+04 0.32000000E+00 0.0000E+00 0.9000E+01
       -1 -1    0    0    0  501 0.00000000E+00 0.00000000E+00 -.47206474E+03 0.47206485E+03 0.32000000E+00 0.0000E+00 0.9000E+01
       25  1    1    2    0    0 -.47590731E+03 -.25987859E+03 0.21277928E+03 0.59575554E+03 0.12500000E+03 0.0000E+00 0.9000E+01
        2  1    1    2  502    0 0.98952273E+01 -.24599629E+02 0.45334063E+03 0.45411550E+03 0.32000000E+00 0.0000E+00 0.9000E+01
       -1  1    1    2    0  501 0.46601208E+03 0.28447821E+03 -.14212574E+02 0.54616592E+03 0.32000000E+00 0.0000E+00 0.9000E+01
#aMCatNLO 1  0  0  2  1 0.16763223D+03 0.00000000D+00  -5  6  0 0.00000000D+00 0.00000000D+00 0.00000000D+00 0.00000000D+00 0.00000000D+00
  <mgrwgt>
 0.3955574882D-02    4    2    0
 0.728414515505830D+03 0.000000000000000D+00 0.000000000000000D+00 0.728414515505830D+03
 0.728414515505830D+03 0.000000000000000D+00 0.000000000000000D+00 -.728414515505830D+03
 0.557574296518115D+03 -.476002798494895D+03 -.259945557482739D+03 -.333727300005116D+02
 0.294467638774951D+03 0.988923860743289D+01 -.245847415401425D+02 0.293272882702892D+03
 0.604787095718596D+03 0.466113559887462D+03 0.284530299022881D+03 -.259900152702381D+03
 0.000000000000000D+00 0.000000000000000D+00 -.000000000000000D+00 0.000000000000000D+00
 0.106807142895318D+04 0.000000000000000D+00 0.000000000000000D+00 0.106807142895318D+04
 0.754200800899670D+03 0.000000000000000D+00 0.000000000000000D+00 -.754200800899670D+03
 0.592549812278803D+03 -.532379176952271D+03 -.225718747275409D+03 -.333727300005116D+02
 0.293969881917437D+03 -.189545845168175D+02 -.707329283163919D+01 0.293272882702892D+03
 0.579922049957465D+03 0.408041904274213D+03 0.319786333367174D+03 -.259900152702381D+03
 0.355830485699147D+03 0.143291857194875D+03 -.869942932601262D+02 0.313870628053511D+03
0.813907907657D-03 0.000000000000D+00 0.000000000000D+00 0.152336733729D-05 0.000000000000D+00  6 2 -1 25 2 -1 21 0 0.17291879D+00 0.72625356D-01 0.31875536D+06 0.31875536D+06 0.31875536D+06 0.10826088D+01  1  2  2  2  6  2       -1 0.469379887193D-02 0.100000000000D+01
0.432305766469D-03 0.000000000000D+00 -.312562067228D-05 0.152336733729D-05 0.000000000000D+00  6 2 -1 25 2 -1 21 2 0.17291879D+00 0.72625356D-01 0.31875536D+06 0.31875536D+06 0.31875536D+06 0.10826088D+01  1  2  3  2  6  2       -1 0.292202083661D-02 0.100000000000D+01
-.540469075730D-03 0.000000000000D+00 0.000000000000D+00 0.152336733729D-05 0.000000000000D+00  6 2 -1 25 2 -1 21 2 0.17291879D+00 0.72625356D-01 0.31875536D+06 0.31875536D+06 0.31875536D+06 0.10826088D+01  1  2 15  2  6  2       -1 -.365311319746D-02 0.100000000000D+01
-.105510690385D-05 0.000000000000D+00 0.000000000000D+00 0.152336733729D-05 0.000000000000D+00  6 2 -1 25 2 -1 21 2 0.17291879D+00 0.72625356D-01 0.31875536D+06 0.31875536D+06 0.31875536D+06 0.10826088D+01  1  2  4  2  6  2       -1 -.713162903907D-05 0.100000000000D+01
  </mgrwgt>
  </event>
  <event>
  5     66 0.19594695E-05 0.13184594E+02 0.75467711E-02 0.91442183E-01
        2 -1    0    0  502    0 0.00000000E+00 0.00000000E+00 0.86332632E+03 0.86332638E+03 0.32000000E+00 0.0000E+00 0.9000E+01
       -1 -1    0    0    0  501 0.00000000E+00 0.00000000E+00 -.80180698E+03 0.80180705E+03 0.32000000E+00 0.0000E+00 0.9000E+01
       25  1    1    2    0    0 0.48886173E+03 0.36742170E+02 -.37351165E+03 0.62886543E+03 0.12500000E+03 0.0000E+00 0.9000E+01
        2  1    1    2  502    0 -.49567696E+03 -.25452444E+02 0.65170973E+03 0.81918810E+03 0.32000000E+00 0.0000E+00 0.9000E+01
       -1  1    1    2    0  501 0.68152249E+01 -.11289726E+02 -.21667873E+03 0.21707990E+03 0.32000000E+00 0.0000E+00 0.9000E+01
#aMCatNLO 1  0  0  2  2 0.12260049D+04 0.00000000D+00  -5  6  0 0.00000000D+00 0.00000000D+00 0.00000000D+00 0.00000000D+00 0.00000000D+00
  <mgrwgt>
 0.4546172553D-02    4    2    0
 0.831998303194241D+03 0.000000000000000D+00 0.000000000000000D+00 0.831998303194241D+03
 0.831998303194241D+03 0.000000000000000D+00 0.000000000000000D+00 -.831998303194241D+03
 0.643151600238335D+03 0.488870224724670D+03 0.367403547894212D+02 -.397083153252224D+03
 0.795664387960383D+03 -.495683776980425D+03 -.254527939632433D+02 0.621877453190140D+03
 0.225180618189765D+03 0.681355225575527D+01 -.112875608261779D+02 -.224794299937917D+03
 0.000000000000000D+00 -.000000000000000D+00 -.000000000000000D+00 0.000000000000000D+00
 0.116245312129598D+04 0.000000000000000D+00 0.000000000000000D+00 0.116245312129598D+04
 0.916133235046247D+03 0.000000000000000D+00 0.000000000000000D+00 -.916133235046247D+03
 0.735865793031622D+03 0.600164437898310D+03 0.894487687983123D+02 -.397083153252224D+03
 0.725842836162344D+03 -.372889858518514D+03 0.327018261872800D+02 0.621877453190140D+03
 0.229039613965656D+03 0.434715984790995D+02 0.607351682556406D+01 -.224794299937917D+03
 0.387838113182602D+03 -.270746177858896D+03 -.128224111811156D+03 0.246319886249730D+03
0.191659924906D-02 0.000000000000D+00 0.000000000000D+00 0.929620438006D-05 0.000000000000D+00  6 2 -1 25 2 -1 21 0 0.13281944D+00 0.12335493D+00 0.25778730D+06 0.25778730D+06 0.25778730D+06 0.10894583D+01  1  2  2  2  6  2       -1 0.505197645023D-02 0.100000000000D+01
0.123335245420D-02 0.000000000000D+00 -.736024576858D-05 0.929620438006D-05 0.000000000000D+00  6 2 -1 25 2 -1 21 2 0.13281944D+00 0.12335493D+00 0.25778730D+06 0.25778730D+06 0.25778730D+06 0.10894583D+01  1  2  3  2  6  2       -1 0.385867737619D-02 0.100000000000D+01
-.130972682104D-02 0.000000000000D+00 0.000000000000D+00 0.929620438006D-05 0.000000000000D+00  6 2 -1 25 2 -1 21 2 0.13281944D+00 0.12335493D+00 0.25778730D+06 0.25778730D+06 0.25778730D+06 0.10894583D+01  1  2 15  2  6  2       -1 -.409762289452D-02 0.100000000000D+01
-.852961791506D-04 0.000000000000D+00 0.000000000000D+00 0.929620438006D-05 0.000000000000D+00  6 2 -1 25 2 -1 21 2 0.13281944D+00 0.12335493D+00 0.25778730D+06 0.25778730D+06 0.25778730D+06 0.10894583D+01  1  2  4  2  6  2       -1 -.266858379081D-03 0.100000000000D+01
  </mgrwgt>
  </event>
  <event>
  5     66 0.19594695E-05 0.19556473E+03 0.75467711E-02 0.95234933E-01
        2 -1    0    0  502    0 0.00000000E+00 0.00000000E+00 0.96384920E+03 0.96384926E+03 0.32000000E+00 0.0000E+00 0.9000E+01
       -1 -1    0    0    0  501 -.00000000E+00 -.00000000E+00 -.14757492E+04 0.14757492E+04 0.32000000E+00 0.0000E+00 0.9000E+01
       25  1    1    2    0    0 0.35307818E+03 -.29226653E+03 -.37958138E+03 0.60810439E+03 0.12500000E+03 0.0000E+00 0.9000E+01
        2  1    1    2  502    0 -.10754502E+03 0.16334502E+03 0.81825056E+03 0.84129758E+03 0.32000000E+00 0.0000E+00 0.9000E+01
       -1  1    1    2    0  501 -.24553316E+03 0.12892151E+03 -.95056914E+03 0.99019649E+03 0.32000000E+00 0.0000E+00 0.9000E+01
#aMCatNLO 1  0  0  4  1 0.40184625D+02 0.00000000D+00  -5  6  0 0.00000000D+00 0.00000000D+00 0.00000000D+00 0.00000000D+00 0.00000000D+00
  <mgrwgt>
 0.4452365887D-03    4    2    0
 0.119264402171810D+04 0.000000000000000D+00 0.000000000000000D+00 0.119264402171810D+04
 0.119264402171810D+04 -.000000000000000D+00 -.000000000000000D+00 -.119264402171810D+04
 0.540484790853633D+03 0.353098992512523D+03 -.292276482002429D+03 -.257671047459781D+03
 0.103602880962992D+04 -.107542256294560D+03 0.163340827646647D+03 0.101740362271715D+04
 0.808774442952648D+03 -.245556736217963D+03 0.128935654355782D+03 -.759732575257369D+03
 0.000000000000000D+00 0.000000000000000D+00 0.000000000000000D+00 0.000000000000000D+00
 0.119264402171810D+04 0.000000000000000D+00 0.000000000000000D+00 0.119264402171810D+04
 0.119264402171810D+04 -.000000000000000D+00 -.000000000000000D+00 -.119264402171810D+04
 0.431285350435934D+03 0.326694567712728D+03 -.252172054692302D+03 -.787196035960633D+01
 0.869957685235084D+03 -.505059812625254D+03 -.263765965483654D+02 0.707845488030441D+03
 0.534192601461988D+03 -.282047127130563D+03 0.184359176775549D+03 -.414515195707907D+03
 0.549852406303198D+03 0.460412372043090D+03 0.941894744651190D+02 -.285458331962928D+03
0.670292162485D-02 0.000000000000D+00 0.000000000000D+00 0.156116617491D-04 0.000000000000D+00  6 2 -1 25 2 -1 21 0 0.14828450D+00 0.22703834D+00 0.22468725D+06 0.22468725D+06 0.22468725D+06 0.10939641D+01  1  2  2  3  6  4        2 0.215338609792D-02 0.100000000000D+01
0.808734419918D-03 0.000000000000D+00 -.257409839592D-04 0.156116617491D-04 0.000000000000D+00  6 2 -1 25 2 -1 21 2 0.14828450D+00 0.22703834D+00 0.22468725D+06 0.22468725D+06 0.22468725D+06 0.10939641D+01  1  2  3  3  6  4        2 0.310935162043D-03 0.100000000000D+01
-.518001820582D-02 0.000000000000D+00 0.000000000000D+00 0.156116617491D-04 0.000000000000D+00  6 2 -1 25 2 -1 21 2 0.14828450D+00 0.22703834D+00 0.22468725D+06 0.22468725D+06 0.22468725D+06 0.10939641D+01  1  2 15  3  6  4        2 -.199156825844D-02 0.100000000000D+01
-.715694873212D-04 0.000000000000D+00 0.000000000000D+00 0.156116617491D-04 0.000000000000D+00  6 2 -1 25 2 -1 21 2 0.14828450D+00 0.22703834D+00 0.22468725D+06 0.22468725D+06 0.22468725D+06 0.10939641D+01  1  2  4  3  6  4        2 -.275164127920D-04 0.100000000000D+01
  </mgrwgt>
  </event>
  <event>
  5     66 0.19594695E-05 0.12661344E+03 0.75467711E-02 0.93879963E-01
        2 -1    0    0  502    0 0.00000000E+00 0.00000000E+00 0.26207076E+04 0.26207076E+04 0.32000000E+00 0.0000E+00 0.9000E+01
       -1 -1    0    0    0  501 0.00000000E+00 0.00000000E+00 -.12003620E+03 0.12003663E+03 0.32000000E+00 0.0000E+00 0.9000E+01
       25  1    1    2    0    0 -.43441182E+03 0.27781508E+03 0.14803376E+04 0.15725518E+04 0.12500000E+03 0.0000E+00 0.9000E+01
        2  1    1    2  502    0 0.12672614E+03 -.50744608E+01 0.43334896E+03 0.45152707E+03 0.32000000E+00 0.0000E+00 0.9000E+01
       -1  1    1    2    0  501 0.30768568E+03 -.27274062E+03 0.58698483E+03 0.71666534E+03 0.32000000E+00 0.0000E+00 0.9000E+01
#aMCatNLO 1  0  0  1  2 0.30236011D+03 0.00000000D+00  -5  6  0 0.00000000D+00 0.00000000D+00 0.00000000D+00 0.00000000D+00 0.00000000D+00
  <mgrwgt>
 0.2282818997D-03    1    2    0
 0.560874672707999D+03 0.000000000000000D+00 0.000000000000000D+00 0.560874672707999D+03
 0.560874672707999D+03 0.000000000000000D+00 0.000000000000000D+00 -.560874672707999D+03
 0.542154887526892D+03 -.434359281269381D+03 0.277886688561195D+03 0.111435744556840D+03
 0.136925878174407D+03 0.126512054946320D+03 -.506588817600841D+01 0.521318793453679D+02
 0.442668579714699D+03 0.307847226323060D+03 -.272820800385186D+03 -.163567623902208D+03
 0.000000000000000D+00 -.000000000000000D+00 0.000000000000000D+00 0.000000000000000D+00
 0.113365791096929D+04 0.000000000000000D+00 0.000000000000000D+00 0.113365791096929D+04
 0.770969993877677D+03 0.000000000000000D+00 0.000000000000000D+00 -.770969993877677D+03
 0.354145613040346D+03 -.246136432753113D+03 0.191815136374472D+03 0.111435744556840D+03
 0.209506130564293D+03 0.199262677601048D+03 -.383336825155559D+02 0.521318793453679D+02
 0.684462523901255D+03 0.544544435394812D+03 -.381058967768517D+03 -.163567623902208D+03
 0.656513637341073D+03 -.497670680242747D+03 0.227577513909601D+03 0.362687917091613D+03
0.208285367078D-04 0.000000000000D+00 0.000000000000D+00 0.607288647101D-08 0.000000000000D+00  6 2 -1 25 2 -1 21 2 0.40318582D+00 0.18467142D-01 0.28544068D+06 0.28544068D+06 0.28544068D+06 0.10861540D+01  1  2 14  1  6  1        2 0.228281899725D-03 0.100000000000D+01
  </mgrwgt>
  </event>
  <event>
  5     66 0.19594695E-05 0.10821459E+03 0.75467711E-02 0.95248949E-01
        2 -1    0    0  502    0 0.00000000E+00 0.00000000E+00 0.11773059E+04 0.11773060E+04 0.32000000E+00 0.0000E+00 0.9000E+01
       -1 -1    0    0    0  501 0.00000000E+00 0.00000000E+00 -.75491280E+03 0.75491286E+03 0.32000000E+00 0.0000E+00 0.9000E+01
       25  1    1    2    0    0 0.44999740E+03 -.37396947E+02 -.41247189E+03 0.62422292E+03 0.12500000E+03 0.0000E+00 0.9000E+01
        2  1    1    2  502    0 -.92155346E+02 -.56739244E+02 0.92161361E+03 0.92794596E+03 0.32000000E+00 0.0000E+00 0.9000E+01
       -1  1    1    2    0  501 -.35784206E+03 0.94136191E+02 -.86748582E+02 0.38004997E+03 0.32000000E+00 0.0000E+00 0.9000E+01
#aMCatNLO 1  0  0  5  4 0.40231096D+02 0.00000000D+00  -5  6  0 0.00000000D+00 0.00000000D+00 0.00000000D+00 0.00000000D+00 0.00000000D+00
  <mgrwgt>
 0.4684468637D-03    1    2    0
 0.942742502310648D+03 0.000000000000000D+00 0.000000000000000D+00 0.942742502310648D+03
 0.942742502310648D+03 -.000000000000000D+00 -.000000000000000D+00 -.942742502310648D+03
 0.732102381876124D+03 0.450047996669897D+03 -.374066416990639D+02 -.562500170132333D+03
 0.744433558932809D+03 -.921492427097262D+02 -.567354862157973D+02 0.736526255701213D+03
 0.408949063812363D+03 -.357898753960171D+03 0.941421279148612D+02 -.174026085568880D+03
 0.000000000000000D+00 0.000000000000000D+00 0.000000000000000D+00 0.000000000000000D+00
 0.942742502310648D+03 0.000000000000000D+00 0.000000000000000D+00 0.942742502310648D+03
 0.942742502310648D+03 -.000000000000000D+00 -.000000000000000D+00 -.942742502310648D+03
 0.724940937227183D+03 0.418587913968534D+03 -.291313428970642D+02 -.577797443407559D+03
 0.733202485723728D+03 -.124053957935364D+03 -.483432307283879D+02 0.721012782573767D+03
 0.306940773281559D+03 -.278679093656934D+03 -.400245546983492D+02 -.122264615005445D+03
 0.120400808388826D+03 -.158548623762358D+02 0.117499128323801D+03 -.209507241607627D+02
0.198510031225D-03 0.000000000000D+00 0.000000000000D+00 0.102990897493D-05 0.000000000000D+00  6 2 -1 25 2 -1 21 2 0.18112400D+00 0.11614044D+00 0.22413983D+06 0.22413983D+06 0.22413983D+06 0.10940446D+01  1  2 14  4  6  5       -1 0.468446863682D-03 0.100000000000D+01
  </mgrwgt>
  </event>
  <event>
  5     66 0.19594695E-05 0.15995085E+03 0.75467711E-02 0.89278953E-01
        2 -1    0    0  502    0 0.00000000E+00 0.00000000E+00 0.15789254E+04 0.15789255E+04 0.32000000E+00 0.0000E+00 0.9000E+01
       -1 -1    0    0    0  501 0.00000000E+00 0.00000000E+00 -.11547676E+04 0.11547677E+04 0.32000000E+00 0.0000E+00 0.9000E+01
       25  1    1    2    0    0 0.36635086E+03 -.73286041E+03 0.20905762E+03 0.85476747E+03 0.12500000E+03 0.0000E+00 0.9000E+01
        2  1    1    2  502    0 -.57963103E+02 0.14910583E+03 0.90792440E+03 0.92191056E+03 0.32000000E+00 0.0000E+00 0.9000E+01
       -1  1    1    2    0  501 -.30838776E+03 0.58375458E+03 -.69282420E+03 0.95701509E+03 0.32000000E+00 0.0000E+00 0.9000E+01
#aMCatNLO 1  0  0  5  4 0.40231096D+02 0.00000000D+00  -5  6  0 0.00000000D+00 0.00000000D+00 0.00000000D+00 0.00000000D+00 0.00000000D+00
  <mgrwgt>
 0.1639194103D-04    1    2    0
 0.135029332318923D+04 0.000000000000000D+00 0.000000000000000D+00 0.135029332318923D+04
 0.135029332318923D+04 -.000000000000000D+00 -.000000000000000D+00 -.135029332318923D+04
 0.832479339852671D+03 0.366379287036843D+03 -.732910146848148D+03 0.774970061288803D+02
 0.790488842061538D+03 -.579540481840240D+02 0.149082534042237D+03 0.774137155655521D+03
 0.107761846446425D+04 -.308425238852819D+03 0.583827612805911D+03 -.851634161784401D+03
 0.000000000000000D+00 0.000000000000000D+00 0.000000000000000D+00 0.000000000000000D+00
 0.135029332318923D+04 0.000000000000000D+00 0.000000000000000D+00 0.135029332318923D+04
 0.135029332318923D+04 -.000000000000000D+00 -.000000000000000D+00 -.135029332318923D+04
 0.810397433479251D+03 0.356881175468924D+03 -.714930879575834D+03 0.512705004325068D+02
 0.770342578389051D+03 -.669778235582936D+02 0.166163915756821D+03 0.749220403039617D+03
 0.105860784928190D+04 -.272928908172744D+03 0.555277288780337D+03 -.858968871502135D+03
 0.612387852282506D+02 -.169744437378870D+02 -.651032496132369D+01 0.584779680300118D+02
0.446276788290D-04 0.000000000000D+00 0.000000000000D+00 0.770982526011D-06 0.000000000000D+00  6 2 -1 25 2 -1 21 2 0.24291161D+00 0.17765656D+00 0.67988567D+06 0.67988567D+06 0.67988567D+06 0.10592037D+01  1  2 14  4  6  5       -1 0.163919410323D-04 0.100000000000D+01
  </mgrwgt>
  </event>
  <event>
  6     66 0.19594695E-05 0.27068091E+02 0.75467711E-02 0.94427733E-01
        2 -1    0    0  502    0 0.00000000E+00 0.00000000E+00 0.24597442E+04 0.24597443E+04 0.32000000E+00 0.0000E+00 0.9000E+01
       -1 -1    0    0    0  501 0.00000000E+00 0.00000000E+00 -.31296308E+03 0.31296324E+03 0.32000000E+00 0.0000E+00 0.9000E+01
       25  1    1    2    0    0 0.47545822E+03 0.13464226E+03 0.93056499E+03 0.10610209E+04 0.12500000E+03 0.0000E+00 0.9000E+01
        2  1    1    2  502    0 -.28774284E+02 0.19962370E+02 0.12233932E+04 0.12238944E+04 0.32000000E+00 0.0000E+00 0.9000E+01
       -1  1    1    2    0  503 -.38956337E+03 -.13831146E+03 -.47333444E+02 0.41608922E+03 0.32000000E+00 0.0000E+00 0.9000E+01
       21  1    1    2  503  501 -.57120557E+02 -.16293168E+02 0.40156427E+02 0.71703044E+02 0.75000000E+00 0.0000E+00 0.9000E+01
#aMCatNLO 2  0  0  5  2 0.12089559D+02 0.00000000D+00  -5  6  0 0.00000000D+00 0.00000000D+00 0.00000000D+00 0.00000000D+00 0.00000000D+00
  <mgrwgt>
 0.2591528478D-02    2    2    0
 0.877387815631590D+03 0.000000000000000D+00 0.000000000000000D+00 0.877387815631590D+03
 0.877387815631590D+03 -.000000000000000D+00 -.000000000000000D+00 -.877387815631590D+03
 0.540502475258191D+03 0.477183541451033D+03 0.135245323820925D+03 0.174706885705900D+03
 0.438826981948334D+03 -.274123227712332D+02 0.204255493013888D+02 0.437493407472508D+03
 0.775446174056655D+03 -.449771218679800D+03 -.155670873122314D+03 -.612200293178407D+03
 0.000000000000000D+00 -.000000000000000D+00 0.000000000000000D+00 0.000000000000000D+00
 0.877387815631590D+03 0.000000000000000D+00 0.000000000000000D+00 0.877387815631590D+03
 0.877387815631590D+03 -.000000000000000D+00 -.000000000000000D+00 -.877387815631590D+03
 0.538152786183546D+03 0.475514595722402D+03 0.134667682949345D+03 0.172435221753355D+03
 0.437053430260867D+03 -.287675257957795D+02 0.199564983053994D+02 0.435648790354990D+03
 0.715371152607225D+03 -.389591853068606D+03 -.138322021168291D+03 -.583815974828609D+03
 0.641982622115415D+02 -.571552168580161D+02 -.163021600864536D+02 -.242680372797355D+02
-.132848079468D-03 0.000000000000D+00 0.000000000000D+00 0.141413609369D-04 0.000000000000D+00  6 2 -1 25 2 -1 21 2 0.37842220D+00 0.48148180D-01 0.26092835D+06 0.26092835D+06 0.26092835D+06 0.10890640D+01  1  2  8  4  6  5       -1 -.360034496954D-03 0.100000000000D+01
0.108804591302D-02 0.000000000000D+00 0.000000000000D+00 0.141413609369D-04 0.224697191758D-07  6 2 -1 25 2 -1 21 2 0.37842220D+00 0.48148180D-01 0.25889976D+06 0.25889976D+06 0.25889976D+06 0.10893181D+01  1  2  1  4  6  5       -1 0.295156297543D-02 0.100000000000D+01
  </mgrwgt>
  </event>
  <event>
  6     66 0.19594695E-05 0.67300619E+02 0.75467711E-02 0.93599300E-01
        2 -1    0    0  502    0 0.00000000E+00 0.00000000E+00 0.74859303E+03 0.74859310E+03 0.32000000E+00 0.0000E+00 0.9000E+01
       -1 -1    0    0    0  501 -.00000000E+00 -.00000000E+00 -.14269113E+04 0.14269113E+04 0.32000000E+00 0.0000E+00 0.9000E+01
       25  1    1    2    0    0 0.42494806E+03 -.31738178E+03 0.18610115E+02 0.54523700E+03 0.12500000E+03 0.0000E+00 0.9000E+01
        2  1    1    2  503    0 -.21366009E+03 0.19902302E+03 0.12591831E+03 0.31798792E+03 0.32000000E+00 0.0000E+00 0.9000E+01
       -1  1    1    2    0  501 -.28836901E+02 -.15731382E+02 -.10148643E+04 0.10153958E+04 0.32000000E+00 0.0000E+00 0.9000E+01
       21  1    1    2  502  503 -.18245107E+03 0.13409015E+03 0.19201764E+03 0.29688364E+03 0.75000000E+00 0.0000E+00 0.9000E+01
#aMCatNLO 2  0  0  4  5 0.69333486D+02 0.00000000D+00  -5  6  0 0.00000000D+00 0.00000000D+00 0.00000000D+00 0.00000000D+00 0.00000000D+00
  <mgrwgt>
 0.7436798663D-03    1    2    0
 0.103352597742643D+04 0.000000000000000D+00 0.000000000000000D+00 0.103352597742643D+04
 0.103352597742643D+04 -.000000000000000D+00 -.000000000000000D+00 -.103352597742643D+04
 0.580611189925859D+03 0.425724770871529D+03 -.318014918626810D+03 0.197760675727733D+03
 0.748982689563583D+03 -.398028136199096D+03 0.334725262085964D+03 0.538987635276780D+03
 0.737458075363408D+03 -.276966346724341D+02 -.167103434591541D+02 -.736748311004512D+03
 0.000000000000000D+00 0.000000000000000D+00 0.000000000000000D+00 0.000000000000000D+00
 0.103352597742643D+04 0.000000000000000D+00 0.000000000000000D+00 0.103352597742643D+04
 0.103352597742643D+04 -.000000000000000D+00 -.000000000000000D+00 -.103352597742643D+04
 0.579947180528021D+03 0.424815495292244D+03 -.317250255330664D+03 0.198991966306770D+03
 0.375491784654228D+03 -.213386536626626D+03 0.198784797830834D+03 0.236526680272365D+03
 0.735919355976996D+03 -.288509980818882D+02 -.157395713965010D+02 -.735185136073581D+03
 0.375693633693605D+03 -.182577960583730D+03 0.134205028896331D+03 0.299666489494446D+03
0.125156616785D-02 0.000000000000D+00 0.000000000000D+00 0.161698971372D-04 0.188166341765D-07  6 2 -1 25 2 -1 21 2 0.11516817D+00 0.21952482D+00 0.30021210D+06 0.30021210D+06 0.30021210D+06 0.10845292D+01  1  2  1  3  6  4        2 0.743679866292D-03 0.100000000000D+01
  </mgrwgt>
  </event>
  <event>
  5     66 0.19594695E-05 0.70177436E+02 0.75467711E-02 0.87453806E-01
        2 -1    0    0  502    0 0.00000000E+00 0.00000000E+00 0.20112073E+04 0.20112073E+04 0.32000000E+00 0.0000E+00 0.9000E+01
       -1 -1    0    0    0  501 0.00000000E+00 0.00000000E+00 -.10387433E+04 0.10387434E+04 0.32000000E+00 0.0000E+00 0.9000E+01
       25  1    1    2    0    0 -.80557080E+03 0.13878941E+03 0.25142969E+03 0.86431979E+03 0.12500000E+03 0.0000E+00 0.9000E+01
        2  1    1    2  502    0 0.81019219E+03 -.20880853E+03 0.13307381E+04 0.15719022E+04 0.32000000E+00 0.0000E+00 0.9000E+01
       -1  1    1    2    0  501 -.46213887E+01 0.70019124E+02 -.60970385E+03 0.61372870E+03 0.32000000E+00 0.0000E+00 0.9000E+01
#aMCatNLO 1  0  0  4  1 0.79514639D+02 0.00000000D+00  -5  6  0 0.00000000D+00 0.00000000D+00 0.00000000D+00 0.00000000D+00 0.00000000D+00
  <mgrwgt>
 0.9072778511D-03    3    2    0
 0.144538168707586D+04 0.000000000000000D+00 0.000000000000000D+00 0.144538168707586D+04
 0.144538168707586D+04 -.000000000000000D+00 -.000000000000000D+00 -.144538168707586D+04
 0.827302718213352D+03 -.805544176523377D+03 0.138776564496591D+03 -.253856727111840D+02
 0.121075771620392D+04 0.810165562189674D+03 -.208801669067997D+03 0.875195905031351D+03
 0.852702939734448D+03 -.462138566629747D+01 0.700251045714061D+02 -.849810232320167D+03
 0.000000000000000D+00 0.000000000000000D+00 0.000000000000000D+00 0.000000000000000D+00
 0.144538168707586D+04 0.000000000000000D+00 0.000000000000000D+00 0.144538168707586D+04
 0.144538168707586D+04 -.000000000000000D+00 -.000000000000000D+00 -.144538168707586D+04
 0.646779985162573D+03 -.595881350549639D+03 0.847407599056028D+02 0.201106362118798D+03
 0.591605434341472D+03 -.173419251577309D+03 -.461425038270000D+03 -.327123351630936D+03
 0.653146037833825D+03 0.209559644613461D+03 0.148248360185856D+02 -.618437326108739D+03
 0.999231916813852D+03 0.559740957513487D+03 0.361859442345811D+03 0.744454315620877D+03
0.461666770785D-02 0.000000000000D+00 0.000000000000D+00 0.417411744645D-05 0.000000000000D+00  6 2 -1 25 2 -1 21 0 0.30941651D+00 0.15980667D+00 0.75145538D+06 0.75145538D+06 0.75145538D+06 0.10562259D+01  1  2  2  3  6  4        2 0.121283812396D-02 0.100000000000D+01
0.206972154593D-02 0.000000000000D+00 -.177292195947D-04 0.417411744645D-05 0.000000000000D+00  6 2 -1 25 2 -1 21 2 0.30941651D+00 0.15980667D+00 0.75145538D+06 0.75145538D+06 0.75145538D+06 0.10562259D+01  1  2  3  3  6  4        2 0.606596352395D-03 0.100000000000D+01
-.311230064778D-02 0.000000000000D+00 0.000000000000D+00 0.417411744645D-05 0.000000000000D+00  6 2 -1 25 2 -1 21 2 0.30941651D+00 0.15980667D+00 0.75145538D+06 0.75145538D+06 0.75145538D+06 0.10562259D+01  1  2 15  3  6  4        2 -.912156625230D-03 0.100000000000D+01
  </mgrwgt>
  </event>
  <event>
  6     66 0.19594695E-05 0.48005500E+02 0.75467711E-02 0.92150427E-01
        2 -1    0    0  502    0 0.00000000E+00 0.00000000E+00 0.18199043E+04 0.18199043E+04 0.32000000E+00 0.0000E+00 0.9000E+01
       -1 -1    0    0    0  501 0.00000000E+00 0.00000000E+00 -.23149960E+03 0.23149982E+03 0.32000000E+00 0.0000E+00 0.9000E+01
       25  1    1    2    0    0 -.12884377E+03 -.60123093E+03 0.74795386E+03 0.97628855E+03 0.12500000E+03 0.0000E+00 0.9000E+01
        2  1    1    2  502    0 0.96544977E+02 0.56038263E+03 0.84578205E+03 0.10191648E+04 0.32000000E+00 0.0000E+00 0.9000E+01
       -1  1    1    2    0  503 -.13902725E+01 0.86739647E+01 0.13148377E+01 0.88882912E+01 0.32000000E+00 0.0000E+00 0.9000E+01
       21  1    1    2  503  501 0.33689065E+02 0.32174343E+02 -.66460567E+01 0.47062448E+02 0.75000000E+00 0.0000E+00 0.9000E+01
#aMCatNLO 2  0  0  5  4 0.60737306D+01 0.00000000D+00  -5  6  0 0.00000000D+00 0.00000000D+00 0.00000000D+00 0.00000000D+00 0.00000000D+00
  <mgrwgt>
 0.1584017410D-01    3    2    0
 0.649081944000842D+03 0.000000000000000D+00 0.000000000000000D+00 0.649081944000842D+03
 0.649081944000842D+03 -.000000000000000D+00 -.000000000000000D+00 -.649081944000842D+03
 0.628097358589192D+03 -.129186595266213D+03 -.601706593007086D+03 -.118866059936246D+02
 0.575370370253327D+03 0.962350892208609D+02 0.560035616400824D+03 0.902772337339444D+02
 0.946961591591657D+02 0.329515060453526D+02 0.416709766062629D+02 -.783906277403199D+02
 0.000000000000000D+00 0.000000000000000D+00 0.000000000000000D+00 0.000000000000000D+00
 0.649081944000842D+03 0.000000000000000D+00 0.000000000000000D+00 0.649081944000842D+03
 0.649081944000842D+03 -.000000000000000D+00 -.000000000000000D+00 -.649081944000842D+03
 0.627655548640053D+03 -.128864223972066D+03 -.601298917356740D+03 -.126535174688959D+02
 0.575673765964080D+03 0.965305801456095D+02 0.560409298726470D+03 0.895742698375226D+02
 0.117489629157666D+02 -.127140493047661D+01 0.818432532105013D+01 -.833297534725948D+01
 0.830856104817846D+02 0.336050487569335D+02 0.327052933092205D+02 -.685877770213674D+02
-.135449143322D-05 0.000000000000D+00 0.000000000000D+00 0.172765334115D-07 0.000000000000D+00  6 2 -1 25 2 -1 21 2 0.27998529D+00 0.35615342D-01 0.39147892D+06 0.39147892D+06 0.39147892D+06 0.10761024D+01  1  2 13  4  6  5       -1 -.135768925958D-04 0.100000000000D+01
-.120670472134D-04 0.000000000000D+00 0.000000000000D+00 0.172765334115D-07 0.000000000000D+00  6 2 -1 25 2 -1 21 2 0.27998529D+00 0.35615342D-01 0.39147892D+06 0.39147892D+06 0.39147892D+06 0.10761024D+01  1  2 13  4  6  5       -1 -.120955363722D-03 0.100000000000D+01
0.159370804191D-02 0.000000000000D+00 0.000000000000D+00 0.172765334115D-07 0.205059056159D-07  6 2 -1 25 2 -1 21 2 0.27998529D+00 0.35615342D-01 0.39147892D+06 0.39147892D+06 0.39147892D+06 0.10761024D+01  1  2  1  4  6  5       -1 0.159747063609D-01 0.100000000000D+01
  </mgrwgt>
  </event>
  <event>
  6     66 -.19594695E-05 0.35707528E+02 0.75467711E-02 0.93602188E-01
        2 -1    0    0  502    0 0.00000000E+00 0.00000000E+00 0.11522153E+04 0.11522153E+04 0.32000000E+00 0.0000E+00 0.9000E+01
       -1 -1    0    0    0  501 0.00000000E+00 0.00000000E+00 -.82271651E+03 0.82271658E+03 0.32000000E+00 0.0000E+00 0.9000E+01
       25  1    1    2    0    0 -.43009275E+03 0.28997821E+03 0.34358189E+03 0.63461850E+03 0.12500000E+03 0.0000E+00 0.9000E+01
        2  1    1    2  503    0 0.17498003E+02 0.31764202E+02 0.38615807E+03 0.38785733E+03 0.32000000E+00 0.0000E+00 0.9000E+01
       -1  1    1    2    0  501 0.41358340E+03 -.32202472E+03 -.57478915E+03 0.77790347E+03 0.32000000E+00 0.0000E+00 0.9000E+01
       21  1    1    2  502  503 -.98865434E+00 0.28230608E+00 0.17454793E+03 0.17455257E+03 0.75000000E+00 0.0000E+00 0.9000E+01
#aMCatNLO 2  0  0  4  1 0.11441793D+02 0.00000000D+00  -5  6  0 0.00000000D+00 0.00000000D+00 0.00000000D+00 0.00000000D+00 0.00000000D+00
  <mgrwgt>
 -.2349082290D-02    3    2    0
 0.973625503610905D+03 0.000000000000000D+00 0.000000000000000D+00 0.973625503610905D+03
 0.973625503610905D+03 -.000000000000000D+00 -.000000000000000D+00 -.973625503610905D+03
 0.585859781720232D+03 -.430311550418269D+03 0.290167973174696D+03 0.241332137846562D+03
 0.474832947058577D+03 0.165077041886173D+02 0.320433165072924D+02 0.473462827666511D+03
 0.886558278443001D+03 0.413803846229651D+03 -.322211289681989D+03 -.714794965513073D+03
 0.000000000000000D+00 0.000000000000000D+00 0.000000000000000D+00 0.000000000000000D+00
 0.973625503610905D+03 0.000000000000000D+00 0.000000000000000D+00 0.973625503610905D+03
 0.973625503610905D+03 -.000000000000000D+00 -.000000000000000D+00 -.973625503610905D+03
 0.585940978366195D+03 -.430304809578903D+03 0.290181057904519D+03 0.241525474050691D+03
 0.327458735579774D+03 0.174779848164564D+02 0.317254226150853D+02 0.325449291156325D+03
 0.886320022977719D+03 0.413814044796038D+03 -.322191493113858D+03 -.714502457116719D+03
 0.147531270298124D+03 -.987220033591255D+00 0.285012594253082D+00 0.147527691909704D+03
-.389452692438D-08 0.000000000000D+00 0.000000000000D+00 0.151906514483D-04 0.000000000000D+00  6 2 -1 25 2 -1 21 2 0.17726389D+00 0.12657178D+00 0.30005584D+06 0.30005584D+06 0.30005584D+06 0.10845459D+01  1  2 13  3  6  4        2 -.742161950725D-08 0.100000000000D+01
-.163891569507D-02 0.000000000000D+00 0.000000000000D+00 0.151906514483D-04 0.000000000000D+00  6 2 -1 25 2 -1 21 2 0.17726389D+00 0.12657178D+00 0.30005584D+06 0.30005584D+06 0.30005584D+06 0.10845459D+01  1  2 13  3  6  4        2 -.312320570109D-02 0.100000000000D+01
0.406228501400D-03 0.000000000000D+00 0.000000000000D+00 0.151906514483D-04 0.457824721556D-04  6 2 -1 25 2 -1 21 2 0.17726389D+00 0.12657178D+00 0.30005584D+06 0.30005584D+06 0.30005584D+06 0.10845459D+01  1  2  1  3  6  4        2 0.774130832560D-03 0.100000000000D+01
  </mgrwgt>
  </event>
  <event>
  5     66 -.19594695E-05 0.10366090E+03 0.75467711E-02 0.93532705E-01
        2 -1    0    0  502    0 0.00000000E+00 0.00000000E+00 0.20405470E+04 0.20405470E+04 0.32000000E+00 0.0000E+00 0.9000E+01
       -1 -1    0    0    0  501 0.00000000E+00 0.00000000E+00 -.42866089E+03 0.42866101E+03 0.32000000E+00 0.0000E+00 0.9000E+01
       25  1    1    2    0    0 -.10181456E+03 0.52674440E+03 0.14175582E+03 0.56881067E+03 0.12500000E+03 0.0000E+00 0.9000E+01
        2  1    1    2  502    0 0.35155635E+02 -.44737074E+03 0.16406126E+04 0.17008781E+04 0.32000000E+00 0.0000E+00 0.9000E+01
       -1  1    1    2    0  501 0.66658924E+02 -.79373662E+02 -.17048234E+03 0.19951923E+03 0.32000000E+00 0.0000E+00 0.9000E+01
#aMCatNLO 1  0  0  4  1 0.29883159D+02 0.00000000D+00  -5  6  0 0.00000000D+00 0.00000000D+00 0.00000000D+00 0.00000000D+00 0.00000000D+00
  <mgrwgt>
 -.1255319812D-02    8    2    0
 0.935255510210887D+03 0.000000000000000D+00 0.000000000000000D+00 0.935255510210887D+03
 0.935255510210887D+03 -.000000000000000D+00 -.000000000000000D+00 -.935255510210887D+03
 0.628691092307520D+03 -.101819336010992D+03 0.526744300462120D+03 -.302986392915219D+03
 0.831490919233494D+03 0.351549980962834D+02 -.447362633622579D+03 0.700005677773318D+03
 0.410329008880760D+03 0.666643379147091D+02 -.793816668395416D+02 -.397019284858099D+03
 0.000000000000000D+00 0.000000000000000D+00 0.000000000000000D+00 0.000000000000000D+00
 0.935255510210887D+03 0.000000000000000D+00 0.000000000000000D+00 0.935255510210887D+03
 0.935255510210887D+03 -.000000000000000D+00 -.000000000000000D+00 -.935255510210887D+03
 0.628045604708691D+03 -.101787720041918D+03 0.526341973511315D+03 -.302356856318468D+03
 0.493164274760360D+03 0.212020383851962D+02 -.290016155333588D+03 0.398311567888442D+03
 0.409985721970297D+03 0.666849747316520D+02 -.796442793065341D+02 -.396608364937362D+03
 0.339315418982426D+03 0.139007069250699D+02 -.156681538871194D+03 0.300653653367388D+03
0.111529005394D-04 0.000000000000D+00 0.000000000000D+00 0.224081252730D-05 0.000000000000D+00  6 2 -1 25 2 -1 21 0 0.31393032D+00 0.65947840D-01 0.30429965D+06 0.30429965D+06 0.30429965D+06 0.10840949D+01  1  2  2  3  6  4        2 0.241204487553D-04 0.100000000000D+01
0.174855857548D-05 0.000000000000D+00 -.428300746976D-07 0.224081252730D-05 0.000000000000D+00  6 2 -1 25 2 -1 21 2 0.31393032D+00 0.65947840D-01 0.30429965D+06 0.30429965D+06 0.30429965D+06 0.10840949D+01  1  2  3  3  6  4        2 0.444439204754D-05 0.100000000000D+01
-.886567147230D-05 0.000000000000D+00 0.000000000000D+00 0.224081252730D-05 0.000000000000D+00  6 2 -1 25 2 -1 21 2 0.31393032D+00 0.65947840D-01 0.30429965D+06 0.30429965D+06 0.30429965D+06 0.10840949D+01  1  2 15  3  6  4        2 -.225342864347D-04 0.100000000000D+01
0.666544332180D-08 0.000000000000D+00 0.000000000000D+00 0.224081252730D-05 0.000000000000D+00  6 2 -1 25 2 -1 21 2 0.31393032D+00 0.65947840D-01 0.30384154D+06 0.30384154D+06 0.30384154D+06 0.10841433D+01  1  2 12  3  6  4        2 0.169449473104D-07 0.100000000000D+01
0.441980173324D-03 0.000000000000D+00 0.000000000000D+00 0.224081252730D-05 0.000000000000D+00  6 2 -1 25 2 -1 21 2 0.31393032D+00 0.65947840D-01 0.30384154D+06 0.30384154D+06 0.30384154D+06 0.10841433D+01  1  2 12  3  6  4        2 0.112360579599D-02 0.100000000000D+01
-.115395047674D-02 0.000000000000D+00 0.000000000000D+00 0.224081252730D-05 0.000000000000D+00  6 2 -1 25 2 -1 21 2 0.31393032D+00 0.65947840D-01 0.30429965D+06 0.30429965D+06 0.30429965D+06 0.10840949D+01  1  2  4  3  6  4        2 -.293304919492D-02 0.100000000000D+01
-.448222679536D-03 0.000000000000D+00 0.000000000000D+00 0.224081252730D-05 0.000000000000D+00  6 2 -1 25 2 -1 21 2 0.31393032D+00 0.65947840D-01 0.30429965D+06 0.30429965D+06 0.30429965D+06 0.10840949D+01  1  2  5  3  6  4        2 -.113926827525D-02 0.100000000000D+01
0.663852428816D-03 0.000000000000D+00 -.000000000000D+00 0.224081252730D-05 0.000000000000D+00  6 2 -1 25 2 -1 21 2 0.31393032D+00 0.65947840D-01 0.30429965D+06 0.30429965D+06 0.30429965D+06 0.10840949D+01  1  2  6  3  6  4        2 0.168734436281D-02 0.100000000000D+01
  </mgrwgt>
  </event>
  <event>
  5     66 -.19594695E-05 0.17658774E+02 0.75467711E-02 0.94996685E-01
        2 -1    0    0  502    0 0.00000000E+00 0.00000000E+00 0.10271037E+04 0.10271038E+04 0.32000000E+00 0.0000E+00 0.9000E+01
       -1 -1    0    0    0  501 0.00000000E+00 0.00000000E+00 -.66895224E+03 0.66895232E+03 0.32000000E+00 0.0000E+00 0.9000E+01
       25  1    1    2    0    0 0.46105593E+03 0.39098564E+02 -.28067846E+03 0.55543377E+03 0.12500000E+03 0.0000E+00 0.9000E+01
        2  1    1    2  502    0 -.17600100E+02 0.14715823E+01 0.69193380E+03 0.69215924E+03 0.32000000E+00 0.0000E+00 0.9000E+01
       -1  1    1    2    0  501 -.44345583E+03 -.40570146E+02 -.53103862E+02 0.44846308E+03 0.32000000E+00 0.0000E+00 0.9000E+01
#aMCatNLO 1  0  0  2  2 0.25593123D+02 0.00000000D+00  -5  6  0 0.00000000D+00 0.00000000D+00 0.00000000D+00 0.00000000D+00 0.00000000D+00
  <mgrwgt>
 -.6905955174D-02    7    4    0
 0.828904965882035D+03 0.000000000000000D+00 0.000000000000000D+00 0.828904965882035D+03
 0.828904965882035D+03 0.000000000000000D+00 0.000000000000000D+00 -.828904965882035D+03
 0.628913659024068D+03 0.461130228136354D+03 0.391052649088960D+02 -.407108193804007D+03
 0.558556135990646D+03 -.175973691398234D+02 0.147135391639774D+01 0.558276924805074D+03
 0.470340136749356D+03 -.443532858996531D+03 -.405766188252937D+02 -.151168731001067D+03
 0.000000000000000D+00 -.000000000000000D+00 0.000000000000000D+00 -.000000000000000D+00
 0.829448655627892D+03 0.000000000000000D+00 0.000000000000000D+00 0.829448655627892D+03
 0.119705228426368D+04 0.000000000000000D+00 0.000000000000000D+00 -.119705228426368D+04
 0.630041709908631D+03 0.463369590486450D+03 0.296495762979851D+02 -.407108193804007D+03
 0.558537982640754D+03 -.156103419802364D+02 -.691885148366607D+01 0.558276924805074D+03
 0.469427779633274D+03 -.441861250183615D+03 -.476349729203814D+02 -.151168731001067D+03
 0.368493467708916D+03 -.589799832259928D+01 0.249042481060623D+02 -.367603628635790D+03
 0.828904965882035D+03 0.000000000000000D+00 0.000000000000000D+00 0.828904965882035D+03
 0.828904965882035D+03 0.000000000000000D+00 0.000000000000000D+00 -.828904965882035D+03
 0.628913659024068D+03 0.461130228136354D+03 0.391052649088960D+02 -.407108193804007D+03
 0.558556135990646D+03 -.175973691398234D+02 0.147135391639774D+01 0.558276924805074D+03
 0.000000000000000D+00 -.000000000000000D+00 0.000000000000000D+00 -.000000000000000D+00
 0.470340136749356D+03 -.443532858996531D+03 -.405766188252937D+02 -.151168731001067D+03
 0.829448655627892D+03 0.000000000000000D+00 0.000000000000000D+00 0.829448655627892D+03
 0.119705228426368D+04 0.000000000000000D+00 0.000000000000000D+00 -.119705228426368D+04
 0.630041709908631D+03 0.463369590486450D+03 0.296495762979851D+02 -.407108193804007D+03
 0.558537982640754D+03 -.156103419802364D+02 -.691885148366607D+01 0.558276924805074D+03
 0.368493467708916D+03 -.589799832259928D+01 0.249042481060623D+02 -.367603628635790D+03
 0.469427779633274D+03 -.441861250183615D+03 -.476349729203814D+02 -.151168731001067D+03
0.139709380013D-04 0.000000000000D+00 0.000000000000D+00 0.318283100476D-05 0.000000000000D+00  6 2 -1 25 2 -1 21 0 0.15801597D+00 0.10291574D+00 0.22203582D+06 0.22203582D+06 0.22203582D+06 0.10943560D+01  1  2  2  2  6  2       -1 0.448829931902D-04 0.100000000000D+01
0.112120128544D-04 0.000000000000D+00 -.536520805575D-07 0.318283100476D-05 0.000000000000D+00  6 2 -1 25 2 -1 21 2 0.15801597D+00 0.10291574D+00 0.22203582D+06 0.22203582D+06 0.22203582D+06 0.10943560D+01  1  2  3  2  6  2       -1 0.431377097177D-04 0.100000000000D+01
-.881328106854D-05 0.000000000000D+00 0.000000000000D+00 0.318283100476D-05 0.000000000000D+00  6 2 -1 25 2 -1 21 2 0.15801597D+00 0.10291574D+00 0.22203582D+06 0.22203582D+06 0.22203582D+06 0.10943560D+01  1  2 15  2  6  2       -1 -.339086982270D-04 0.100000000000D+01
-.330509863078D-02 0.000000000000D+00 0.000000000000D+00 0.318283100476D-05 0.000000000000D+00  6 2 -1 25 2 -1 21 2 0.15801597D+00 0.10291574D+00 0.22203582D+06 0.22203582D+06 0.22203582D+06 0.10943560D+01  1  2  4  2  6  2       -1 -.127162167199D-01 0.100000000000D+01
-.348407505739D-02 0.000000000000D+00 -.121312372982D-04 0.318283100476D-05 0.000000000000D+00  6 2 -1 25 2 -1 21 2 0.15801597D+00 0.14865858D+00 0.22203582D+06 0.22203582D+06 0.22203582D+06 0.10943560D+01  1  2  5  2  6  2       -1 -.530978531809D-02 0.100000000000D+01
0.326597727053D-02 0.000000000000D+00 0.113547706531D-04 0.318283100476D-05 0.000000000000D+00  6 2 -1 25 2 -1 21 2 0.15801597D+00 0.10291574D+00 0.22203582D+06 0.22203582D+06 0.22203582D+06 0.10943560D+01  1  2  6  2  6  2       -1 0.125656990650D-01 0.100000000000D+01
-.155616151106D-03 0.000000000000D+00 -.543124220848D-06 0.318283100476D-05 0.000000000000D+00  6 2 21 25 2 1 -1 2 0.15801597D+00 0.14865858D+00 0.22203582D+06 0.22203582D+06 0.22203582D+06 0.10943560D+01  3  4  5  6  5  2       -1 -.149976420517D-02 0.100000000000D+01
  </mgrwgt>
  </event>
  <event>
  5     66 -.19594695E-05 0.15439628E+03 0.75467711E-02 0.94753784E-01
        2 -1    0    0  502    0 0.00000000E+00 0.00000000E+00 0.90996330E+03 0.90996336E+03 0.32000000E+00 0.0000E+00 0.9000E+01
       -1 -1    0    0    0  501 0.00000000E+00 0.00000000E+00 -.86840194E+03 0.86840200E+03 0.32000000E+00 0.0000E+00 0.9000E+01
       25  1    1    2    0    0 0.48415107E+03 -.48042121E+02 0.74092759E+02 0.50776475E+03 0.12500000E+03 0.0000E+00 0.9000E+01
        2  1    1    2  502    0 -.32998597E+03 0.40085225E+02 0.56386235E+03 0.65455208E+03 0.32000000E+00 0.0000E+00 0.9000E+01
       -1  1    1    2    0  501 -.15416510E+03 0.79568963E+01 -.59639375E+03 0.61604853E+03 0.32000000E+00 0.0000E+00 0.9000E+01
#aMCatNLO 1  0  0  4  1 0.28385204D+02 0.00000000D+00  -5  6  0 0.00000000D+00 0.00000000D+00 0.00000000D+00 0.00000000D+00 0.00000000D+00
  <mgrwgt>
 -.5625992587D-02    8    2    0
 0.888939815834261D+03 0.000000000000000D+00 0.000000000000000D+00 0.888939815834261D+03
 0.888939815834261D+03 -.000000000000000D+00 -.000000000000000D+00 -.888939815834261D+03
 0.506175983173181D+03 0.484140201912601D+03 -.480391852638611D+02 0.623668783293400D+02
 0.641477913950065D+03 -.329949173784871D+03 0.400807548982970D+02 0.548653797846321D+03
 0.630225734545275D+03 -.154191028127731D+03 0.795843036556413D+01 -.611020676175660D+03
 0.000000000000000D+00 0.000000000000000D+00 0.000000000000000D+00 0.000000000000000D+00
 0.888939815834261D+03 0.000000000000000D+00 0.000000000000000D+00 0.888939815834261D+03
 0.888939815834261D+03 -.000000000000000D+00 -.000000000000000D+00 -.888939815834261D+03
 0.505833977484165D+03 0.483691195124114D+03 -.479846419206225D+02 0.631135062930854D+02
 0.456848997748869D+03 -.258604496388715D+03 0.232498651353628D+02 0.375891161059785D+03
 0.629462769806108D+03 -.154749924494191D+03 0.802632260490724D+01 -.610091319055157D+03
 0.185733886629379D+03 -.703367742412078D+02 0.167084541803525D+02 0.171086651702287D+03
0.503241361465D-04 0.000000000000D+00 0.000000000000D+00 0.318044063814D-05 0.000000000000D+00  6 2 -1 25 2 -1 21 0 0.13999436D+00 0.13360031D+00 0.24457479D+06 0.24457479D+06 0.24457479D+06 0.10911766D+01  1  2  2  3  6  4        2 0.101022175220D-03 0.100000000000D+01
0.674118382593D-05 0.000000000000D+00 -.193257933452D-06 0.318044063814D-05 0.000000000000D+00  6 2 -1 25 2 -1 21 2 0.13999436D+00 0.13360031D+00 0.24457479D+06 0.24457479D+06 0.24457479D+06 0.10911766D+01  1  2  3  3  6  4        2 0.161126391163D-04 0.100000000000D+01
-.359240404915D-04 0.000000000000D+00 0.000000000000D+00 0.318044063814D-05 0.000000000000D+00  6 2 -1 25 2 -1 21 2 0.13999436D+00 0.13360031D+00 0.24457479D+06 0.24457479D+06 0.24457479D+06 0.10911766D+01  1  2 15  3  6  4        2 -.858649037004D-04 0.100000000000D+01
0.150415537159D-07 0.000000000000D+00 0.000000000000D+00 0.318044063814D-05 0.000000000000D+00  6 2 -1 25 2 -1 21 2 0.13999436D+00 0.13360031D+00 0.24442182D+06 0.24442182D+06 0.24442182D+06 0.10911971D+01  1  2 12  3  6  4        2 0.359545946592D-07 0.100000000000D+01
0.146469399186D-02 0.000000000000D+00 0.000000000000D+00 0.318044063814D-05 0.000000000000D+00  6 2 -1 25 2 -1 21 2 0.13999436D+00 0.13360031D+00 0.24442182D+06 0.24442182D+06 0.24442182D+06 0.10911971D+01  1  2 12  3  6  4        2 0.350113291300D-02 0.100000000000D+01
-.433076261599D-02 0.000000000000D+00 0.000000000000D+00 0.318044063814D-05 0.000000000000D+00  6 2 -1 25 2 -1 21 2 0.13999436D+00 0.13360031D+00 0.24457479D+06 0.24457479D+06 0.24457479D+06 0.10911766D+01  1  2  4  3  6  4        2 -.103512998506D-01 0.100000000000D+01
-.151636915017D-02 0.000000000000D+00 0.000000000000D+00 0.318044063814D-05 0.000000000000D+00  6 2 -1 25 2 -1 21 2 0.13999436D+00 0.13360031D+00 0.24457479D+06 0.24457479D+06 0.24457479D+06 0.10911766D+01  1  2  5  3  6  4        2 -.362439439639D-02 0.100000000000D+01
0.201543982896D-02 0.000000000000D+00 -.000000000000D+00 0.318044063814D-05 0.000000000000D+00  6 2 -1 25 2 -1 21 2 0.13999436D+00 0.13360031D+00 0.24457479D+06 0.24457479D+06 0.24457479D+06 0.10911766D+01  1  2  6  3  6  4        2 0.481726288189D-02 0.100000000000D+01
  </mgrwgt>
  </event>
  <event>
  5     66 -.19594695E-05 0.48879442E+02 0.75467711E-02 0.92722666E-01
        2 -1    0    0  502    0 0.00000000E+00 0.00000000E+00 0.23092055E+04 0.23092055E+04 0.32000000E+00 0.0000E+00 0.9000E+01
       -1 -1    0    0    0  501 0.00000000E+00 0.00000000E+00 -.77190798E+03 0.77190805E+03 0.32000000E+00 0.0000E+00 0.9000E+01
       25  1    1    2    0    0 0.36149280E+03 -.45347926E+03 0.13984493E+04 0.15190806E+04 0.12500000E+03 0.0000E+00 0.9000E+01
        2  1    1    2  502    0 0.29987184E+01 0.48811272E+02 0.74531514E+03 0.74691786E+03 0.32000000E+00 0.0000E+00 0.9000E+01
       -1  1    1    2    0  501 -.36449152E+03 0.40466799E+03 -.60646697E+03 0.81511504E+03 0.32000000E+00 0.0000E+00 0.9000E+01
#aMCatNLO 1  0  0  2  1 0.28953340D+02 0.00000000D+00  -5  6  0 0.00000000D+00 0.00000000D+00 0.00000000D+00 0.00000000D+00 0.00000000D+00
  <mgrwgt>
 -.3378202596D-04    1    2    0
 0.133510084702098D+04 0.000000000000000D+00 0.000000000000000D+00 0.133510084702098D+04
 0.133510084702098D+04 0.000000000000000D+00 0.000000000000000D+00 -.133510084702098D+04
 0.947917454530005D+03 0.361537083249139D+03 -.453505098858214D+03 0.739287875829132D+03
 0.432552948559129D+03 0.299725551249717D+01 0.487874609120005D+02 0.429782332610764D+03
 0.128973129095283D+04 -.364534338761636D+03 0.404717637946213D+03 -.116907020843990D+04
 0.000000000000000D+00 0.000000000000000D+00 -.000000000000000D+00 0.000000000000000D+00
 0.192043819028141D+04 0.000000000000000D+00 0.000000000000000D+00 0.192043819028141D+04
 0.189588393064433D+04 0.000000000000000D+00 0.000000000000000D+00 -.189588393064433D+04
 0.798332827015642D+03 0.148311851911749D+03 -.230580428322406D+03 0.739287875829132D+03
 0.472521403156157D+03 -.107516506496014D+03 0.164328402436118D+03 0.429782332610764D+03
 0.157137030151986D+04 -.713888068511525D+03 0.769963179557183D+03 -.116907020843990D+04
 0.974097589234084D+03 0.673092723095790D+03 -.703711153670896D+03 0.245542596370797D+02
-.677419688486D-04 0.000000000000D+00 0.000000000000D+00 0.208917730487D-04 0.000000000000D+00  6 2 -1 25 2 -1 21 2 0.35526239D+00 0.11875508D+00 0.35215977D+06 0.35215977D+06 0.35215977D+06 0.10794385D+01  1  2 14  2  6  2       -1 -.337820259609D-04 0.100000000000D+01
  </mgrwgt>
  </event>
  <event>
  5     66 -.19594695E-05 0.15970866E+02 0.75467711E-02 0.94336015E-01
        2 -1    0    0  502    0 0.00000000E+00 0.00000000E+00 0.22645623E+04 0.22645624E+04 0.32000000E+00 0.0000E+00 0.9000E+01
       -1 -1    0    0    0  501 0.00000000E+00 0.00000000E+00 -.20135233E+04 0.20135233E+04 0.32000000E+00 0.0000E+00 0.9000E+01
       25  1    1    2    0    0 -.49815854E+03 0.70458245E+02 0.32333084E+03 0.61097801E+03 0.12500000E+03 0.0000E+00 0.9000E+01
        2  1    1    2  502    0 0.13857787E+02 0.79403778E+01 0.17651877E+04 0.17652600E+04 0.32000000E+00 0.0000E+00 0.9000E+01
       -1  1    1    2    0  501 0.48430075E+03 -.78398623E+02 -.18374795E+04 0.19018477E+04 0.32000000E+00 0.0000E+00 0.9000E+01
#aMCatNLO 1  0  0  5  2 0.80776970D+01 0.00000000D+00  -5  6  0 0.00000000D+00 0.00000000D+00 0.00000000D+00 0.00000000D+00 0.00000000D+00
  <mgrwgt>
 -.1930258369D-01    9    2    0
 0.213535691586220D+04 0.000000000000000D+00 0.000000000000000D+00 0.213535691586220D+04
 0.213535691586220D+04 -.000000000000000D+00 -.000000000000000D+00 -.213535691586220D+04
 0.593083991920313D+03 -.498190792109667D+03 0.704637824414002D+02 0.288035434440500D+03
 0.166448363515696D+04 0.138572628146890D+02 0.794007717162862D+01 0.166440701246634D+04
 0.201314620464712D+04 0.484333529294978D+03 -.784038596130289D+02 -.195244244690684D+04
 0.000000000000000D+00 0.000000000000000D+00 0.000000000000000D+00 -.000000000000000D+00
 0.213535691586220D+04 0.000000000000000D+00 0.000000000000000D+00 0.213535691586220D+04
 0.213535691586220D+04 -.000000000000000D+00 -.000000000000000D+00 -.213535691586220D+04
 0.593051792119447D+03 -.498179361260210D+03 0.704619320167200D+02 0.287989354468057D+03
 0.166435456232263D+04 0.138893429937141D+02 0.793488403569954D+01 0.166427769103917D+04
 0.191278359745840D+04 0.464526542390841D+03 -.811711766671843D+02 -.185374416309230D+04
 0.100523879823925D+03 0.197634758756555D+02 0.277436061476469D+01 -.985228824149317D+02
0.443816786559D-02 0.000000000000D+00 0.000000000000D+00 0.168286988130D-02 0.000000000000D+00  6 2 -1 25 2 -1 21 0 0.34839421D+00 0.30977282D+00 0.26268361D+06 0.26268361D+06 0.26268361D+06 0.10888459D+01  1  2  2  4  6  5       -1 0.517484388218D-04 0.100000000000D+01
0.441094595393D-02 0.000000000000D+00 -.170437332003D-04 0.168286988130D-02 0.000000000000D+00  6 2 -1 25 2 -1 21 2 0.34839421D+00 0.30977282D+00 0.26268361D+06 0.26268361D+06 0.26268361D+06 0.10888459D+01  1  2  3  4  6  5       -1 0.609758810287D-04 0.100000000000D+01
-.298734369829D-02 0.000000000000D+00 0.000000000000D+00 0.168286988130D-02 0.000000000000D+00  6 2 -1 25 2 -1 21 2 0.34839421D+00 0.30977282D+00 0.26268361D+06 0.26268361D+06 0.26268361D+06 0.10888459D+01  1  2 15  4  6  5       -1 -.412963377563D-04 0.100000000000D+01
0.849007865289D-09 0.000000000000D+00 0.000000000000D+00 0.168286988130D-02 0.000000000000D+00  6 2 -1 25 2 -1 21 2 0.34839421D+00 0.30977282D+00 0.26314402D+06 0.26314402D+06 0.26314402D+06 0.10887889D+01  1  2 12  4  6  5       -1 0.117327086817D-10 0.100000000000D+01
0.258633010091D+01 0.000000000000D+00 0.000000000000D+00 0.168286988130D-02 0.000000000000D+00  6 2 -1 25 2 -1 21 2 0.34839421D+00 0.30977282D+00 0.26314402D+06 0.26314402D+06 0.26314402D+06 0.10887889D+01  1  2 12  4  6  5       -1 0.357413150918D-01 0.100000000000D+01
-.416419861648D+01 0.000000000000D+00 0.000000000000D+00 0.168286988130D-02 0.000000000000D+00  6 2 -1 25 2 -1 21 2 0.34839421D+00 0.30977282D+00 0.26268361D+06 0.26268361D+06 0.26268361D+06 0.10888459D+01  1  2  4  4  6  5       -1 -.575649037803D-01 0.100000000000D+01
-.275226677632D+01 0.000000000000D+00 0.000000000000D+00 0.168286988130D-02 0.000000000000D+00  6 2 -1 25 2 -1 21 2 0.34839421D+00 0.30977282D+00 0.26268361D+06 0.26268361D+06 0.26268361D+06 0.10888459D+01  1  2  5  4  6  5       -1 -.380466895911D-01 0.100000000000D+01
0.289312441814D+01 0.000000000000D+00 -.000000000000D+00 0.168286988130D-02 0.000000000000D+00  6 2 -1 25 2 -1 21 2 0.34839421D+00 0.30977282D+00 0.26268361D+06 0.26268361D+06 0.26268361D+06 0.10888459D+01  1  2  6  4  6  5       -1 0.399938725535D-01 0.100000000000D+01
0.363544774627D-01 0.000000000000D+00 0.000000000000D+00 0.168286988130D-02 0.222825116595D-03  6 2 -1 25 2 -1 21 2 0.34839421D+00 0.30977282D+00 0.26314402D+06 0.26314402D+06 0.26314402D+06 0.10887889D+01  1  2 11  4  6  5       -1 0.502394042252D-03 0.100000000000D+01
  </mgrwgt>
  </event>
  <event>
  5     66 0.19594695E-05 0.11800938E+03 0.75467711E-02 0.94440477E-01
        2 -1    0    0  502    0 0.00000000E+00 0.00000000E+00 0.16948026E+04 0.16948027E+04 0.32000000E+00 0.0000E+00 0.9000E+01
       -1 -1    0    0    0  501 0.00000000E+00 0.00000000E+00 -.43827666E+03 0.43827678E+03 0.32000000E+00 0.0000E+00 0.9000E+01
       25  1    1    2    0    0 0.37118057E+03 0.27291731E+03 0.13639798E+03 0.49647586E+03 0.12500000E+03 0.0000E+00 0.9000E+01
        2  1    1    2  502    0 -.10523537E+03 0.53432125E+02 0.12019561E+04 0.12077368E+04 0.32000000E+00 0.0000E+00 0.9000E+01
       -1  1    1    2    0  501 -.26594520E+03 -.32634943E+03 -.81828130E+02 0.42886681E+03 0.32000000E+00 0.0000E+00 0.9000E+01
#aMCatNLO 1  0  0  2  1 0.28953340D+02 0.00000000D+00  -5  6  0 0.00000000D+00 0.00000000D+00 0.00000000D+00 0.00000000D+00 0.00000000D+00
  <mgrwgt>
 0.2101510221D-03    1    2    0
 0.861854157362911D+03 0.000000000000000D+00 0.000000000000000D+00 0.861854157362911D+03
 0.861854157362911D+03 0.000000000000000D+00 0.000000000000000D+00 -.861854157362911D+03
 0.514989913281637D+03 0.371219271426604D+03 0.272968957273110D+03 -.193064268233561D+03
 0.618309042951914D+03 -.105223055070129D+03 0.534258697213740D+02 0.606943043227563D+03
 0.590409358492271D+03 -.265996216356475D+03 -.326394826994484D+03 -.413878774994002D+03
 0.000000000000000D+00 -.000000000000000D+00 0.000000000000000D+00 -.000000000000000D+00
 0.966503950168428D+03 0.000000000000000D+00 0.000000000000000D+00 0.966503950168428D+03
 0.146677788139868D+04 0.000000000000000D+00 0.000000000000000D+00 -.146677788139868D+04
 0.590186088983819D+03 0.496043223134077D+03 0.222175445862528D+03 -.193064268233561D+03
 0.607861084368521D+03 0.332665614652008D+02 -.292849033141130D+01 0.606943043227563D+03
 0.577693866528639D+03 -.134064958122069D+03 -.380080452059826D+03 -.413878774994002D+03
 0.657540791686128D+03 -.395244826477209D+03 0.160833496528710D+03 -.500273931230252D+03
0.548476704622D-04 0.000000000000D+00 0.000000000000D+00 0.178723941247D-05 0.000000000000D+00  6 2 -1 25 2 -1 21 2 0.26073888D+00 0.67427190D-01 0.25831611D+06 0.25831611D+06 0.25831611D+06 0.10893916D+01  1  2 14  2  6  2       -1 0.210151022101D-03 0.100000000000D+01
  </mgrwgt>
  </event>
  <event>
  5     66 0.19594695E-05 0.36988994E+02 0.75467711E-02 0.90478092E-01
        2 -1    0    0  502    0 0.00000000E+00 0.00000000E+00 0.21708468E+04 0.21708468E+04 0.32000000E+00 0.0000E+00 0.9000E+01
       -1 -1    0    0    0  501 0.00000000E+00 0.00000000E+00 -.75019765E+03 0.75019772E+03 0.32000000E+00 0.0000E+00 0.9000E+01
       25  1    1    2    0    0 0.11352612E+03 0.65742621E+03 -.12413548E+03 0.69002321E+03 0.12500000E+03 0.0000E+00 0.9000E+01
        2  1    1    2  502    0 -.18890702E+01 0.36944152E+02 0.15270626E+04 0.15275107E+04 0.32000000E+00 0.0000E+00 0.9000E+01
       -1  1    1    2    0  501 -.11163705E+03 -.69437037E+03 0.17721967E+02 0.70351063E+03 0.32000000E+00 0.0000E+00 0.9000E+01
#aMCatNLO 1  0  0  4  5 0.27691922D+02 0.00000000D+00  -5  6  0 0.00000000D+00 0.00000000D+00 0.00000000D+00 0.00000000D+00 0.00000000D+00
  <mgrwgt>
 0.2899292314D-03    7    2    0
 0.127615213505990D+04 0.000000000000000D+00 0.000000000000000D+00 0.127615213505990D+04
 0.127615213505990D+04 -.000000000000000D+00 -.000000000000000D+00 -.127615213505990D+04
 0.858850681831758D+03 0.113538650965392D+03 0.657503124350224D+03 -.526116061235093D+03
 0.898127290340265D+03 -.188889534198524D+01 0.369407326806051D+02 0.897365279023740D+03
 0.795326297947769D+03 -.111649755623406D+03 -.694443857030830D+03 -.371249217788647D+03
 0.000000000000000D+00 0.000000000000000D+00 0.000000000000000D+00 0.000000000000000D+00
 0.127615213505990D+04 0.000000000000000D+00 0.000000000000000D+00 0.127615213505990D+04
 0.127615213505990D+04 -.000000000000000D+00 -.000000000000000D+00 -.127615213505990D+04
 0.857992187552577D+03 0.113535539467249D+03 0.657563975271165D+03 -.524637869015113D+03
 0.799789487039094D+03 -.720254109104050D+01 0.599887259379526D+02 0.797504043714156D+03
 0.794639369213356D+03 -.111652637177280D+03 -.694387503082058D+03 -.369880266138415D+03
 0.998832263147656D+02 0.531963880107111D+01 -.231651981270602D+02 0.970140914393721D+02
0.950310083486D-04 0.000000000000D+00 0.000000000000D+00 0.408707604691D-05 0.000000000000D+00  6 2 -1 25 2 -1 21 0 0.33397643D+00 0.11541503D+00 0.50352707D+06 0.50352707D+06 0.50352707D+06 0.10682947D+01  1  2  2  3  6  4        2 0.507049824945D-04 0.100000000000D+01
0.636312444229D-04 0.000000000000D+00 -.364944094298D-06 0.408707604691D-05 0.000000000000D+00  6 2 -1 25 2 -1 21 2 0.33397643D+00 0.11541503D+00 0.50352707D+06 0.50352707D+06 0.50352707D+06 0.10682947D+01  1  2  3  3  6  4        2 0.387469809485D-04 0.100000000000D+01
-.647528419789D-04 0.000000000000D+00 0.000000000000D+00 0.408707604691D-05 0.000000000000D+00  6 2 -1 25 2 -1 21 2 0.33397643D+00 0.11541503D+00 0.50352707D+06 0.50352707D+06 0.50352707D+06 0.10682947D+01  1  2 15  3  6  4        2 -.394299554766D-04 0.100000000000D+01
0.841301398047D-08 0.000000000000D+00 0.000000000000D+00 0.408707604691D-05 0.000000000000D+00  6 2 -1 25 2 -1 21 2 0.33397643D+00 0.11541503D+00 0.53757841D+06 0.53757841D+06 0.53757841D+06 0.10662932D+01  1  2 12  3  6  4        2 0.507808026392D-08 0.100000000000D+01
-.761051573553D-04 0.000000000000D+00 0.000000000000D+00 0.408707604691D-05 0.000000000000D+00  6 2 -1 25 2 -1 21 2 0.33397643D+00 0.11541503D+00 0.50352707D+06 0.50352707D+06 0.50352707D+06 0.10682947D+01  1  2  4  3  6  4        2 -.463427221779D-04 0.100000000000D+01
-.400563789193D-02 0.000000000000D+00 0.000000000000D+00 0.408707604691D-05 0.000000000000D+00  6 2 -1 25 2 -1 21 2 0.33397643D+00 0.11541503D+00 0.50352707D+06 0.50352707D+06 0.50352707D+06 0.10682947D+01  1  2  5  3  6  4        2 -.243915353994D-02 0.100000000000D+01
0.447571624858D-02 0.000000000000D+00 -.000000000000D+00 0.408707604691D-05 0.000000000000D+00  6 2 -1 25 2 -1 21 2 0.33397643D+00 0.11541503D+00 0.50352707D+06 0.50352707D+06 0.50352707D+06 0.10682947D+01  1  2  6  3  6  4        2 0.272539840745D-02 0.100000000000D+01
  </mgrwgt>
  </event>
  <event>
  5     66 0.19594695E-05 0.23742715E+02 0.75467711E-02 0.92816163E-01
        2 -1    0    0  502    0 0.00000000E+00 0.00000000E+00 0.18869664E+04 0.18869665E+04 0.32000000E+00 0.0000E+00 0.9000E+01
       -1 -1    0    0    0  501 0.00000000E+00 0.00000000E+00 -.41573935E+03 0.41573947E+03 0.32000000E+00 0.0000E+00 0.9000E+01
       25  1    1    2    0    0 -.53028947E+03 -.18841755E+03 0.11840614E+04 0.13169413E+04 0.12500000E+03 0.0000E+00 0.9000E+01
        2  1    1    2  502    0 -.19034988E+02 0.14243252E+02 0.39818315E+03 0.39889238E+03 0.32000000E+00 0.0000E+00 0.9000E+01
       -1  1    1    2    0  501 0.54932446E+03 0.17417430E+03 -.11101745E+03 0.58687224E+03 0.32000000E+00 0.0000E+00 0.9000E+01
#aMCatNLO 1  0  0  1  4 0.13631169D+04 0.00000000D+00  -5  6  0 0.00000000D+00 0.00000000D+00 0.00000000D+00 0.00000000D+00 0.00000000D+00
  <mgrwgt>
 0.1289796987D-02    3    2    0
 0.885712356168410D+03 0.000000000000000D+00 0.000000000000000D+00 0.885712356168410D+03
 0.885712356168410D+03 0.000000000000000D+00 0.000000000000000D+00 -.885712356168410D+03
 0.728725650679003D+03 -.530408432102504D+03 -.188433453520879D+03 0.445618449692441D+03
 0.187575743513484D+03 -.190099742315378D+02 0.142245350540214D+02 0.186067039093036D+03
 0.855123318144335D+03 0.549418406334042D+03 0.174208918466858D+03 -.631685488785477D+03
 0.000000000000000D+00 -.000000000000000D+00 -.000000000000000D+00 -.000000000000000D+00
 0.220110401894180D+04 0.000000000000000D+00 0.000000000000000D+00 0.220110401894180D+04
 0.240757480062268D+04 0.000000000000000D+00 0.000000000000000D+00 -.240757480062268D+04
 0.480779024084253D+03 0.314309753401244D+01 -.130145258196390D+03 0.445618449692441D+03
 0.260388003624850D+03 0.178601285563011D+03 0.358127098964213D+02 0.186067039093036D+03
 0.189898612056253D+04 0.176434492499015D+04 0.306934382252095D+03 -.631685488785477D+03
 0.196852567129285D+04 -.194608930808718D+04 -.212601833952126D+03 -.206470781680885D+03
0.659334802635D-03 0.000000000000D+00 0.000000000000D+00 0.331322588556D-05 0.000000000000D+00  6 2 -1 25 2 -1 21 0 0.29030254D+00 0.63959912D-01 0.34616559D+06 0.34616559D+06 0.34616559D+06 0.10799825D+01  1  2  2  1  6  1        2 0.182260956689D-02 0.100000000000D+01
0.278569513347D-03 0.000000000000D+00 -.253201924896D-05 0.331322588556D-05 0.000000000000D+00  6 2 -1 25 2 -1 21 2 0.29030254D+00 0.63959912D-01 0.34616559D+06 0.34616559D+06 0.34616559D+06 0.10799825D+01  1  2  3  1  6  1        2 0.898162056200D-03 0.100000000000D+01
-.443824035219D-03 0.000000000000D+00 0.000000000000D+00 0.331322588556D-05 0.000000000000D+00  6 2 -1 25 2 -1 21 2 0.29030254D+00 0.63959912D-01 0.34616559D+06 0.34616559D+06 0.34616559D+06 0.10799825D+01  1  2 15  1  6  1        2 -.143097463636D-02 0.100000000000D+01
  </mgrwgt>
  </event>
  <event>
  5     66 0.19594695E-05 0.35720325E+02 0.75467711E-02 0.94047353E-01
        2 -1    0    0  502    0 0.00000000E+00 0.00000000E+00 0.17285539E+04 0.17285539E+04 0.32000000E+00 0.0000E+00 0.9000E+01
       -1 -1    0    0    0  501 0.00000000E+00 0.00000000E+00 -.28802737E+03 0.28802755E+03 0.32000000E+00 0.0000E+00 0.9000E+01
       25  1    1    2    0    0 0.26296531E+02 0.49251598E+03 0.45900949E+03 0.68525777E+03 0.12500000E+03 0.0000E+00 0.9000E+01
        2  1    1    2  502    0 0.58325840E+01 -.50811792E+03 0.10977866E+04 0.12096914E+04 0.32000000E+00 0.0000E+00 0.9000E+01
       -1  1    1    2    0  501 -.32129115E+02 0.15601942E+02 -.11626955E+03 0.12163228E+03 0.32000000E+00 0.0000E+00 0.9000E+01
#aMCatNLO 1  0  0  1  2 0.90583124D+02 0.00000000D+00  -5  6  0 0.00000000D+00 0.00000000D+00 0.00000000D+00 0.00000000D+00 0.00000000D+00
  <mgrwgt>
 0.1420856871D-02    5    2    0
 0.705599769352926D+03 0.000000000000000D+00 0.000000000000000D+00 0.705599769352926D+03
 0.705599769352926D+03 0.000000000000000D+00 0.000000000000000D+00 -.705599769352926D+03
 0.510655110302564D+03 0.262999200133578D+02 0.492500370834005D+03 -.435355098027150D+02
 0.608011791002521D+03 0.583241729969888D+01 -.508103400152279D+03 0.333879103359627D+03
 0.292532637400767D+03 -.321323373130567D+02 0.156030293182737D+02 -.290343593556912D+03
 0.000000000000000D+00 0.000000000000000D+00 0.000000000000000D+00 0.000000000000000D+00
 0.265237783570708D+04 0.000000000000000D+00 0.000000000000000D+00 0.265237783570708D+04
 0.255810512157394D+04 0.000000000000000D+00 0.000000000000000D+00 -.255810512157394D+04
 0.195543146426059D+03 -.967765119710136D+02 0.106541485962724D+03 -.435355098027150D+02
 0.202918811929180D+04 -.453779529198291D+03 -.194941358020697D+04 0.333879103359627D+03
 0.570760983308829D+03 -.182587393778364D+03 -.456213263048484D+03 -.290343593556912D+03
 0.241499070825432D+04 0.733143434947668D+03 0.229908535729273D+04 0.942727141331416D+02
0.365474267478D-03 0.000000000000D+00 0.000000000000D+00 0.201443470050D-05 0.000000000000D+00  6 2 -1 25 2 -1 21 0 0.26593138D+00 0.44311919D-01 0.27701965D+06 0.27701965D+06 0.27701965D+06 0.10871218D+01  1  2  2  1  6  1        2 0.245506704936D-02 0.100000000000D+01
0.149489962629D-03 0.000000000000D+00 -.140351741870D-05 0.201443470050D-05 0.000000000000D+00  6 2 -1 25 2 -1 21 2 0.26593138D+00 0.44311919D-01 0.27701965D+06 0.27701965D+06 0.27701965D+06 0.10871218D+01  1  2  3  1  6  1        2 0.118679314084D-02 0.100000000000D+01
-.279760385375D-03 0.000000000000D+00 0.000000000000D+00 0.201443470050D-05 0.000000000000D+00  6 2 -1 25 2 -1 21 2 0.26593138D+00 0.44311919D-01 0.27701965D+06 0.27701965D+06 0.27701965D+06 0.10871218D+01  1  2 15  1  6  1        2 -.222100334098D-02 0.100000000000D+01
0.292969849889D-03 0.000000000000D+00 -.199687841959D-03 0.201443470050D-05 0.000000000000D+00  6 2 -1 25 2 -1 21 2 0.99984644D+00 0.44311919D-01 0.27701965D+06 0.27701965D+06 0.27701965D+06 0.10871218D+01  1  2  5  1  6  1        2 0.221322117091D-10 0.100000000000D+01
0.502063264560D-04 0.000000000000D+00 -.312904383286D-04 0.201443470050D-05 0.000000000000D+00  6 21 -1 25 2 -1 -2 2 0.99984644D+00 0.44311919D-01 0.27701965D+06 0.27701965D+06 0.27701965D+06 0.10871218D+01  1  2  5  5  6  1        2 0.529868511315D-14 0.100000000000D+01
  </mgrwgt>
  </event>
  <event>
  5     66 -.19594695E-05 0.60684250E+02 0.75467711E-02 0.94555207E-01
        2 -1    0    0  502    0 0.00000000E+00 0.00000000E+00 0.38928485E+04 0.38928486E+04 0.32000000E+00 0.0000E+00 0.9000E+01
       -1 -1    0    0    0  501 0.00000000E+00 0.00000000E+00 -.28696829E+03 0.28696847E+03 0.32000000E+00 0.0000E+00 0.9000E+01
       25  1    1    2    0    0 0.21541132E+03 -.41482117E+03 0.82819184E+03 0.95916910E+03 0.12500000E+03 0.0000E+00 0.9000E+01
        2  1    1    2  502    0 -.59441723E+02 -.12248398E+02 0.27651498E+04 0.27658158E+04 0.32000000E+00 0.0000E+00 0.9000E+01
       -1  1    1    2    0  501 -.15596960E+03 0.42706957E+03 0.12538563E+02 0.45483211E+03 0.32000000E+00 0.0000E+00 0.9000E+01
#aMCatNLO 1  0  0  1  4 0.11499194D+02 0.00000000D+00  -5  6  0 0.00000000D+00 0.00000000D+00 0.00000000D+00 0.00000000D+00 0.00000000D+00
  <mgrwgt>
 -.5033735379D-01    9    2    0
 0.105694110612595D+04 0.000000000000000D+00 0.000000000000000D+00 0.105694110612595D+04
 0.105694110612595D+04 0.000000000000000D+00 0.000000000000000D+00 -.105694110612595D+04
 0.483901149845636D+03 0.215428472718252D+03 -.414877849051155D+03 0.150543379036640D+01
 0.752000225124530D+03 -.594355619313071D+02 -.122471289201100D+02 0.749547703884461D+03
 0.877980837281737D+03 -.155992910786945D+03 0.427124977971265D+03 -.751053137674827D+03
 0.000000000000000D+00 -.000000000000000D+00 0.000000000000000D+00 0.000000000000000D+00
 0.175009166609204D+04 0.000000000000000D+00 0.000000000000000D+00 0.175009166609204D+04
 0.105700443773828D+04 0.000000000000000D+00 0.000000000000000D+00 -.105700443773828D+04
 0.485937460655752D+03 0.217809517068370D+03 -.416013177209697D+03 0.150543379036640D+01
 0.751748183818829D+03 -.557437191707247D+02 -.140074712013408D+02 0.749547703884461D+03
 0.876227844471048D+03 -.151686164669202D+03 0.425071437835012D+03 -.751053137674827D+03
 0.693182614884687D+03 -.103796332284435D+02 0.494921057602545D+01 0.693087228353754D+03
0.211677083524D-03 0.000000000000D+00 0.000000000000D+00 0.292833268114D-04 0.000000000000D+00  6 2 -1 25 2 -1 21 0 0.59889979D+00 0.44148983D-01 0.24965124D+06 0.24965124D+06 0.24965124D+06 0.10905047D+01  1  2  2  1  6  1        2 0.632412025478D-04 0.100000000000D+01
0.783231478289D-04 0.000000000000D+00 -.812895736589D-06 0.292833268114D-04 0.000000000000D+00  6 2 -1 25 2 -1 21 2 0.59889979D+00 0.44148983D-01 0.24965124D+06 0.24965124D+06 0.24965124D+06 0.10905047D+01  1  2  3  1  6  1        2 0.278273281622D-04 0.100000000000D+01
-.118662133089D-03 0.000000000000D+00 0.000000000000D+00 0.292833268114D-04 0.000000000000D+00  6 2 -1 25 2 -1 21 2 0.59889979D+00 0.44148983D-01 0.24965124D+06 0.24965124D+06 0.24965124D+06 0.10905047D+01  1  2 15  1  6  1        2 -.421593131717D-04 0.100000000000D+01
0.114876393582D-06 0.000000000000D+00 0.000000000000D+00 0.292833268114D-04 0.000000000000D+00  6 2 -1 25 2 -1 21 2 0.99167084D+00 0.44148983D-01 0.25312783D+06 0.25312783D+06 0.25312783D+06 0.10900531D+01  1  2 12  1  6  1        2 0.264573841684D-12 0.100000000000D+01
-.452762650459D+00 0.000000000000D+00 0.000000000000D+00 0.292833268114D-04 0.000000000000D+00  6 2 -1 25 2 -1 21 2 0.59889979D+00 0.44148983D-01 0.24965124D+06 0.24965124D+06 0.24965124D+06 0.10905047D+01  1  2  4  1  6  1        2 -.160861446497D+00 0.100000000000D+01
-.288497906669D+00 0.000000000000D+00 -.657417556096D-04 0.292833268114D-04 0.000000000000D+00  6 2 -1 25 2 -1 21 2 0.99166332D+00 0.44148983D-01 0.24965124D+06 0.24965124D+06 0.24965124D+06 0.10905047D+01  1  2  5  1  6  1        2 -.666844416077D-06 0.100000000000D+01
0.310946718030D+00 0.000000000000D+00 0.708480130859D-04 0.292833268114D-04 0.000000000000D+00  6 2 -1 25 2 -1 21 2 0.59889979D+00 0.44148983D-01 0.24965124D+06 0.24965124D+06 0.24965124D+06 0.10905047D+01  1  2  6  1  6  1        2 0.110475850415D+00 0.100000000000D+01
0.652118881085D-08 0.000000000000D+00 0.000000000000D+00 0.292833268114D-04 0.000000000000D+00  6 21 -1 25 2 -1 -2 2 0.99167084D+00 0.44148983D-01 0.25312783D+06 0.25312783D+06 0.25312783D+06 0.10900531D+01  1  2 12  5  6  1        2 0.347267947126D-16 0.100000000000D+01
-.163739724808D-01 0.000000000000D+00 -.373191794607D-05 0.292833268114D-04 0.000000000000D+00  6 21 -1 25 2 -1 -2 2 0.99166332D+00 0.44148983D-01 0.24965124D+06 0.24965124D+06 0.24965124D+06 0.10905047D+01  1  2  5  5  6  1        2 -.869836380773D-10 0.100000000000D+01
  </mgrwgt>
  </event>
  <event>
  5     66 0.19594695E-05 0.32761466E+02 0.75467711E-02 0.91358714E-01
        2 -1    0    0  502    0 0.00000000E+00 0.00000000E+00 0.11496878E+04 0.11496879E+04 0.32000000E+00 0.0000E+00 0.9000E+01
       -1 -1    0    0    0  501 0.00000000E+00 0.00000000E+00 -.82206225E+03 0.82206231E+03 0.32000000E+00 0.0000E+00 0.9000E+01
       25  1    1    2    0    0 0.21414461E+03 0.47505755E+03 0.13851931E+02 0.53605454E+03 0.12500000E+03 0.0000E+00 0.9000E+01
        2  1    1    2  502    0 -.15973599E+02 -.28608726E+02 0.76798880E+03 0.76868753E+03 0.32000000E+00 0.0000E+00 0.9000E+01
       -1  1    1    2    0  501 -.19817101E+03 -.44644882E+03 -.45421516E+03 0.66700811E+03 0.32000000E+00 0.0000E+00 0.9000E+01
#aMCatNLO 1  0  0  4  1 0.22349989D+02 0.00000000D+00  -5  6  0 0.00000000D+00 0.00000000D+00 0.00000000D+00 0.00000000D+00 0.00000000D+00
  <mgrwgt>
 0.1134201324D-02    6    2    0
 0.972170281467877D+03 0.000000000000000D+00 0.000000000000000D+00 0.972170281467877D+03
 0.972170281467877D+03 -.000000000000000D+00 -.000000000000000D+00 -.972170281467877D+03
 0.541333152625728D+03 0.214172444667425D+03 0.475120709782102D+03 -.762040498467138D+02
 0.650024707782257D+03 -.159713568462483D+02 -.286047100729502D+02 0.649198588299098D+03
 0.752982702527768D+03 -.198201087821176D+03 -.446515999709152D+03 -.572994538452384D+03
 0.000000000000000D+00 -.000000000000000D+00 0.000000000000000D+00 0.000000000000000D+00
 0.972170281467877D+03 0.000000000000000D+00 0.000000000000000D+00 0.972170281467877D+03
 0.972170281467877D+03 -.000000000000000D+00 -.000000000000000D+00 -.972170281467877D+03
 0.535127970523356D+03 0.213170285389377D+03 0.473325841890073D+03 -.354686010791245D+02
 0.523933625087878D+03 0.141948179940716D+03 -.730834694810252D+02 0.499014993960962D+03
 0.713579730839009D+03 -.199566421986831D+03 -.448961314051397D+03 -.517496873386584D+03
 0.171699236485512D+03 -.155552043343262D+03 0.487189416423485D+02 0.539504805047459D+02
0.647262779134D-03 0.000000000000D+00 0.000000000000D+00 0.191979713134D-04 0.000000000000D+00  6 2 -1 25 2 -1 21 0 0.17687506D+00 0.12647112D+00 0.27943526D+06 0.27943526D+06 0.27943526D+06 0.10868409D+01  1  2  2  3  6  4        2 0.105884443570D-02 0.100000000000D+01
0.384210516323D-03 0.000000000000D+00 -.248565950008D-05 0.191979713134D-04 0.000000000000D+00  6 2 -1 25 2 -1 21 2 0.17687506D+00 0.12647112D+00 0.27943526D+06 0.27943526D+06 0.27943526D+06 0.10868409D+01  1  2  3  3  6  4        2 0.742425290977D-03 0.100000000000D+01
-.441123905520D-03 0.000000000000D+00 0.000000000000D+00 0.191979713134D-04 0.000000000000D+00  6 2 -1 25 2 -1 21 2 0.17687506D+00 0.12647112D+00 0.27943526D+06 0.27943526D+06 0.27943526D+06 0.10868409D+01  1  2 15  3  6  4        2 -.852401300847D-03 0.100000000000D+01
-.570871734541D-04 0.000000000000D+00 0.000000000000D+00 0.191979713134D-04 0.000000000000D+00  6 2 -1 25 2 -1 21 2 0.17687506D+00 0.12647112D+00 0.27943526D+06 0.27943526D+06 0.27943526D+06 0.10868409D+01  1  2  4  3  6  4        2 -.110311820114D-03 0.100000000000D+01
-.514367692084D-03 0.000000000000D+00 0.000000000000D+00 0.191979713134D-04 0.000000000000D+00  6 2 -1 25 2 -1 21 2 0.17687506D+00 0.12647112D+00 0.27943526D+06 0.27943526D+06 0.27943526D+06 0.10868409D+01  1  2  5  3  6  4        2 -.993933188292D-03 0.100000000000D+01
0.667365995570D-03 0.000000000000D+00 -.000000000000D+00 0.191979713134D-04 0.000000000000D+00  6 2 -1 25 2 -1 21 2 0.17687506D+00 0.12647112D+00 0.27943526D+06 0.27943526D+06 0.27943526D+06 0.10868409D+01  1  2  6  3  6  4        2 0.128957790690D-02 0.100000000000D+01
  </mgrwgt>
  </event>
  <event>
  5     66 -.19594695E-05 0.33046291E+02 0.75467711E-02 0.93543521E-01
        2 -1    0    0  502    0 0.00000000E+00 0.00000000E+00 0.25756554E+04 0.25756554E+04 0.32000000E+00 0.0000E+00 0.9000E+01
       -1 -1    0    0    0  501 0.00000000E+00 0.00000000E+00 -.32683524E+03 0.32683539E+03 0.32000000E+00 0.0000E+00 0.9000E+01
       25  1    1    2    0    0 0.48844742E+03 0.23243755E+02 0.12962306E+04 0.13910284E+04 0.12500000E+03 0.0000E+00 0.9000E+01
        2  1    1    2  502    0 -.51348748E+03 -.16863300E+01 0.11772612E+04 0.12843738E+04 0.32000000E+00 0.0000E+00 0.9000E+01
       -1  1    1    2    0  501 0.25040059E+02 -.21557425E+02 -.22467168E+03 0.22708852E+03 0.32000000E+00 0.0000E+00 0.9000E+01
#aMCatNLO 1  0  0  1  4 0.11292996D+04 0.00000000D+00  -5  6  0 0.00000000D+00 0.00000000D+00 0.00000000D+00 0.00000000D+00 0.00000000D+00
  <mgrwgt>
 -.3577675915D-02    7    2    0
 0.917504868439236D+03 0.000000000000000D+00 0.000000000000000D+00 0.917504868439236D+03
 0.917504868439236D+03 0.000000000000000D+00 0.000000000000000D+00 -.917504868439236D+03
 0.611697686175875D+03 0.488356865621825D+03 0.232468250388301D+02 0.345711174535275D+03
 0.588689927592244D+03 -.513400628986323D+03 -.168604478167960D+01 0.288049964863742D+03
 0.634622123110355D+03 0.250437633644982D+02 -.215607802571505D+02 -.633761139399017D+03
 0.000000000000000D+00 -.000000000000000D+00 0.000000000000000D+00 0.000000000000000D+00
 0.105570254610593D+04 0.000000000000000D+00 0.000000000000000D+00 0.105570254610593D+04
 0.920283117461651D+03 0.000000000000000D+00 0.000000000000000D+00 -.920283117461651D+03
 0.621183953759027D+03 0.500361602417591D+03 0.191456270526363D+02 0.345711174535275D+03
 0.578826654667822D+03 -.502032360678374D+03 -.556980499102604D+01 0.288049964863742D+03
 0.635387742164725D+03 0.374100227577828D+02 -.257854858032462D+02 -.633761139399017D+03
 0.140587312976002D+03 -.357392644969991D+02 0.122096637416359D+02 0.135419428644276D+03
0.526692585577D-04 0.000000000000D+00 0.000000000000D+00 0.457018858009D-05 0.000000000000D+00  6 2 -1 25 2 -1 21 0 0.39625468D+00 0.50282358D-01 0.27619546D+06 0.27619546D+06 0.27619546D+06 0.10872183D+01  1  2  2  1  6  1        2 0.949461021322D-04 0.100000000000D+01
0.307578133783D-04 0.000000000000D+00 -.202263820996D-06 0.457018858009D-05 0.000000000000D+00  6 2 -1 25 2 -1 21 2 0.39625468D+00 0.50282358D-01 0.27619546D+06 0.27619546D+06 0.27619546D+06 0.10872183D+01  1  2  3  1  6  1        2 0.655403706206D-04 0.100000000000D+01
-.375255490666D-04 0.000000000000D+00 0.000000000000D+00 0.457018858009D-05 0.000000000000D+00  6 2 -1 25 2 -1 21 2 0.39625468D+00 0.50282358D-01 0.27619546D+06 0.27619546D+06 0.27619546D+06 0.10872183D+01  1  2 15  1  6  1        2 -.799614186912D-04 0.100000000000D+01
-.242738564027D-02 0.000000000000D+00 0.000000000000D+00 0.457018858009D-05 0.000000000000D+00  6 2 -1 25 2 -1 21 2 0.39625468D+00 0.50282358D-01 0.27619546D+06 0.27619546D+06 0.27619546D+06 0.10872183D+01  1  2  4  1  6  1        2 -.517240131948D-02 0.100000000000D+01
-.171430088674D-02 0.000000000000D+00 -.662497346406D-04 0.457018858009D-05 0.000000000000D+00  6 2 -1 25 2 -1 21 2 0.45629335D+00 0.50282358D-01 0.27619546D+06 0.27619546D+06 0.27619546D+06 0.10872183D+01  1  2  5  1  6  1        2 -.212058429142D-02 0.100000000000D+01
0.170728277426D-02 0.000000000000D+00 0.655958666960D-04 0.457018858009D-05 0.000000000000D+00  6 2 -1 25 2 -1 21 2 0.39625468D+00 0.50282358D-01 0.27619546D+06 0.27619546D+06 0.27619546D+06 0.10872183D+01  1  2  6  1  6  1        2 0.363796816121D-02 0.100000000000D+01
-.367893627035D-04 0.000000000000D+00 -.143764701585D-05 0.457018858009D-05 0.000000000000D+00  6 21 -1 25 2 -1 -2 2 0.45629335D+00 0.50282358D-01 0.27619546D+06 0.27619546D+06 0.27619546D+06 0.10872183D+01  1  2  5  5  6  1        2 -.318351921594D-05 0.100000000000D+01
  </mgrwgt>
  </event>
  <event>
  5     66 0.19594695E-05 0.14494304E+02 0.75467711E-02 0.93383532E-01
        2 -1    0    0  502    0 0.00000000E+00 0.00000000E+00 0.64366353E+03 0.64366361E+03 0.32000000E+00 0.0000E+00 0.9000E+01
       -1 -1    0    0    0  501 -.00000000E+00 -.00000000E+00 -.12560953E+04 0.12560954E+04 0.32000000E+00 0.0000E+00 0.9000E+01
       25  1    1    2    0    0 0.37550341E+03 -.38894521E+03 -.36765095E+00 0.55489307E+03 0.12500000E+03 0.0000E+00 0.9000E+01
        2  1    1    2  502    0 -.38959775E+03 0.38557263E+03 0.16129220E+03 0.57137372E+03 0.32000000E+00 0.0000E+00 0.9000E+01
       -1  1    1    2    0  501 0.14094338E+02 0.33725797E+01 -.77335635E+03 0.77349220E+03 0.32000000E+00 0.0000E+00 0.9000E+01
#aMCatNLO 1  0  0  4  1 0.62610172D+02 0.00000000D+00  -5  6  0 0.00000000D+00 0.00000000D+00 0.00000000D+00 0.00000000D+00 0.00000000D+00
  <mgrwgt>
 0.2741849374D-02    4    2    0
 0.899167880364742D+03 0.000000000000000D+00 0.000000000000000D+00 0.899167880364742D+03
 0.899167880364742D+03 -.000000000000000D+00 -.000000000000000D+00 -.899167880364742D+03
 0.586048518295931D+03 0.375461129603112D+03 -.388905910642259D+03 0.188703467433765D+03
 0.658458946033115D+03 -.389557467530761D+03 0.385532766025138D+03 0.364935130431515D+03
 0.553828296400439D+03 0.140963379276490D+02 0.337314461712168D+01 -.553638597865280D+03
 0.000000000000000D+00 0.000000000000000D+00 0.000000000000000D+00 -.000000000000000D+00
 0.899167880364742D+03 0.000000000000000D+00 0.000000000000000D+00 0.899167880364742D+03
 0.899167880364742D+03 -.000000000000000D+00 -.000000000000000D+00 -.899167880364742D+03
 0.507800217585731D+03 0.279661088836268D+03 -.294095625175852D+03 0.278448378740932D+03
 0.487472644020649D+03 -.124661370156546D+03 0.627536419530371D+02 0.467066485503729D+03
 0.483837151655905D+03 -.767831310201465D+02 0.933136950073475D+02 -.468503249121409D+03
 0.319225747467200D+03 -.782165876595755D+02 0.138028288215467D+03 -.277011615123251D+03
0.199122119341D-02 0.000000000000D+00 0.000000000000D+00 0.635961027605D-05 0.000000000000D+00  6 2 -1 25 2 -1 21 0 0.99025168D-01 0.19324545D+00 0.31215130D+06 0.31215130D+06 0.31215130D+06 0.10832784D+01  1  2  2  3  6  4        2 0.197152364225D-02 0.100000000000D+01
0.190500474266D-02 0.000000000000D+00 -.764681368328D-05 0.635961027605D-05 0.000000000000D+00  6 2 -1 25 2 -1 21 2 0.99025168D-01 0.19324545D+00 0.31215130D+06 0.31215130D+06 0.31215130D+06 0.10832784D+01  1  2  3  3  6  4        2 0.221339386846D-02 0.100000000000D+01
-.124135666201D-02 0.000000000000D+00 0.000000000000D+00 0.635961027605D-05 0.000000000000D+00  6 2 -1 25 2 -1 21 2 0.99025168D-01 0.19324545D+00 0.31215130D+06 0.31215130D+06 0.31215130D+06 0.10832784D+01  1  2 15  3  6  4        2 -.144231201253D-02 0.100000000000D+01
-.650774520831D-06 0.000000000000D+00 0.000000000000D+00 0.635961027605D-05 0.000000000000D+00  6 2 -1 25 2 -1 21 2 0.99025168D-01 0.19324545D+00 0.31215130D+06 0.31215130D+06 0.31215130D+06 0.10832784D+01  1  2  4  3  6  4        2 -.756124277226D-06 0.100000000000D+01
  </mgrwgt>
  </event>
  <event>
  5     66 0.19594695E-05 0.19175680E+03 0.75467711E-02 0.94157787E-01
        2 -1    0    0  502    0 0.00000000E+00 0.00000000E+00 0.12151115E+04 0.12151116E+04 0.32000000E+00 0.0000E+00 0.9000E+01
       -1 -1    0    0    0  501 0.00000000E+00 0.00000000E+00 -.12765135E+04 0.12765136E+04 0.32000000E+00 0.0000E+00 0.9000E+01
       25  1    1    2    0    0 0.15687566E+03 -.46566882E+03 0.14953488E+02 0.50725342E+03 0.12500000E+03 0.0000E+00 0.9000E+01
        2  1    1    2  502    0 0.19916710E+02 0.19073173E+03 0.91792307E+03 0.93774098E+03 0.32000000E+00 0.0000E+00 0.9000E+01
       -1  1    1    2    0  501 -.17679237E+03 0.27493709E+03 -.99427856E+03 0.10466307E+04 0.32000000E+00 0.0000E+00 0.9000E+01
#aMCatNLO 1  0  0  1  4 0.18208822D+02 0.00000000D+00  -5  6  0 0.00000000D+00 0.00000000D+00 0.00000000D+00 0.00000000D+00 0.00000000D+00
  <mgrwgt>
 0.1573681641D-02   11    2    0
 0.124543422439876D+04 0.000000000000000D+00 0.000000000000000D+00 0.124543422439876D+04
 0.124543422439876D+04 0.000000000000000D+00 0.000000000000000D+00 -.124543422439876D+04
 0.507805561662330D+03 0.156895694631233D+03 -.465689517781157D+03 0.275409239157100D+02
 0.960593277904063D+03 0.199154640443353D+02 0.190719803116861D+03 0.941259144202826D+03
 0.102246960923112D+04 -.176811158675569D+03 0.274969714664295D+03 -.968800068118536D+03
 0.000000000000000D+00 -.000000000000000D+00 -.000000000000000D+00 0.000000000000000D+00
 0.137172257066431D+04 0.000000000000000D+00 0.000000000000000D+00 0.137172257066431D+04
 0.124612403212173D+04 0.000000000000000D+00 0.000000000000000D+00 -.124612403212173D+04
 0.508840869567678D+03 0.160609121541359D+03 -.465553689846802D+03 0.275409239157100D+02
 0.960815396198760D+03 0.269336470198371D+02 0.190976510820973D+03 0.941259144202826D+03
 0.102127873748578D+04 -.169346114905098D+03 0.275242767426541D+03 -.968800068118536D+03
 0.126911599533818D+03 -.181966536560981D+02 -.665588400712407D+00 0.125598538542584D+03
0.565837742426D-04 0.000000000000D+00 0.000000000000D+00 0.136017196563D-04 0.000000000000D+00  6 2 -1 25 2 -1 21 0 0.18694024D+00 0.19638670D+00 0.26302823D+06 0.26302823D+06 0.26302823D+06 0.10888032D+01  1  2  2  1  6  1        2 0.224908200908D-04 0.100000000000D+01
0.743834354567D-05 0.000000000000D+00 -.217296591942D-06 0.136017196563D-04 0.000000000000D+00  6 2 -1 25 2 -1 21 2 0.18694024D+00 0.19638670D+00 0.26302823D+06 0.26302823D+06 0.26302823D+06 0.10888032D+01  1  2  3  1  6  1        2 0.350500320250D-05 0.100000000000D+01
-.431370929308D-04 0.000000000000D+00 0.000000000000D+00 0.136017196563D-04 0.000000000000D+00  6 2 -1 25 2 -1 21 2 0.18694024D+00 0.19638670D+00 0.26302823D+06 0.26302823D+06 0.26302823D+06 0.10888032D+01  1  2 15  1  6  1        2 -.203265213472D-04 0.100000000000D+01
0.495203936214D-08 0.000000000000D+00 0.000000000000D+00 0.136017196563D-04 0.000000000000D+00  6 2 -1 25 2 -1 21 2 0.20594493D+00 0.19638670D+00 0.27161654D+06 0.27161654D+06 0.27161654D+06 0.10877599D+01  1  2 12  1  6  1        2 0.197624931272D-08 0.100000000000D+01
0.855538765990D-02 0.000000000000D+00 0.000000000000D+00 0.136017196563D-04 0.000000000000D+00  6 2 -1 25 2 -1 21 2 0.21265976D+00 0.19638670D+00 0.27161654D+06 0.27161654D+06 0.27161654D+06 0.10877599D+01  1  2 12  1  6  1        2 0.322756948001D-02 0.100000000000D+01
-.528055566172D-02 0.000000000000D+00 0.000000000000D+00 0.136017196563D-04 0.000000000000D+00  6 2 -1 25 2 -1 21 2 0.18694024D+00 0.19638670D+00 0.26302823D+06 0.26302823D+06 0.26302823D+06 0.10888032D+01  1  2  4  1  6  1        2 -.248823738668D-02 0.100000000000D+01
-.121699177406D-01 0.000000000000D+00 -.135987396299D-03 0.136017196563D-04 0.000000000000D+00  6 2 -1 25 2 -1 21 2 0.20593962D+00 0.19638670D+00 0.26302823D+06 0.26302823D+06 0.26302823D+06 0.10888032D+01  1  2  5  1  6  1        2 -.487886156756D-02 0.100000000000D+01
0.121268619327D-01 0.000000000000D+00 0.135352835367D-03 0.136017196563D-04 0.000000000000D+00  6 2 -1 25 2 -1 21 2 0.18694024D+00 0.19638670D+00 0.26302823D+06 0.26302823D+06 0.26302823D+06 0.10888032D+01  1  2  6  1  6  1        2 0.571426819016D-02 0.100000000000D+01
0.787173046874D-10 0.000000000000D+00 0.000000000000D+00 0.136017196563D-04 0.000000000000D+00  6 21 -1 25 2 -1 -2 2 0.20594493D+00 0.19638670D+00 0.27161654D+06 0.27161654D+06 0.27161654D+06 0.10877599D+01  1  2 12  5  6  1        2 0.135339642020D-10 0.100000000000D+01
0.173449034560D-03 0.000000000000D+00 0.000000000000D+00 0.136017196563D-04 0.000000000000D+00  6 21 -1 25 2 -1 -2 2 0.21265976D+00 0.19638670D+00 0.27161654D+06 0.27161654D+06 0.27161654D+06 0.10877599D+01  1  2 12  5  6  1        2 0.266464951028D-04 0.100000000000D+01
-.192935349594D-03 0.000000000000D+00 -.214730596764D-05 0.136017196563D-04 0.000000000000D+00  6 21 -1 25 2 -1 -2 2 0.20593962D+00 0.19638670D+00 0.26302823D+06 0.26302823D+06 0.26302823D+06 0.10888032D+01  1  2  5  5  6  1        2 -.333748617587D-04 0.100000000000D+01
  </mgrwgt>
  </event>
  <event>
  5     66 -.19594695E-05 0.11655821E+03 0.75467711E-02 0.89292447E-01
        2 -1    0    0  502    0 0.00000000E+00 0.00000000E+00 0.22340235E+04 0.22340235E+04 0.32000000E+00 0.0000E+00 0.9000E+01
       -1 -1    0    0    0  501 0.00000000E+00 0.00000000E+00 -.60841589E+03 0.60841597E+03 0.32000000E+00 0.0000E+00 0.9000E+01
       25  1    1    2    0    0 -.67988176E+03 -.40968468E+03 0.11016840E+04 0.13636031E+04 0.12500000E+03 0.0000E+00 0.9000E+01
        2  1    1    2  502    0 0.56865563E+03 0.44448405E+03 0.86022831E+03 0.11229106E+04 0.32000000E+00 0.0000E+00 0.9000E+01
       -1  1    1    2    0  501 0.11122613E+03 -.34799367E+02 -.33630470E+03 0.35592584E+03 0.32000000E+00 0.0000E+00 0.9000E+01
#aMCatNLO 1  0  0  1  4 0.42422244D+01 0.00000000D+00  -5  6  0 0.00000000D+00 0.00000000D+00 0.00000000D+00 0.00000000D+00 0.00000000D+00
  <mgrwgt>
 -.1031542472D-04   13    2    0
 0.116585399610835D+04 0.000000000000000D+00 0.000000000000000D+00 0.116585399610835D+04
 0.116585399610835D+04 0.000000000000000D+00 0.000000000000000D+00 -.116585399610835D+04
 0.894207810825842D+03 -.679825092651185D+03 -.409625257135591D+03 0.392463502838613D+03
 0.769043800167402D+03 0.568583992545327D+03 0.444428054228345D+03 0.265752355797539D+03
 0.668456381223463D+03 0.111241100105858D+03 -.348027970927539D+02 -.658215858636152D+03
 0.000000000000000D+00 -.000000000000000D+00 0.000000000000000D+00 0.000000000000000D+00
 0.118668865784180D+04 0.000000000000000D+00 0.000000000000000D+00 0.118668865784180D+04
 0.116607188949384D+04 0.000000000000000D+00 0.000000000000000D+00 -.116607188949384D+04
 0.893268146311539D+03 -.678280898190769D+03 -.410134616076262D+03 0.392463502838613D+03
 0.769774180829275D+03 0.569913372217459D+03 0.443989552835609D+03 0.265752355797539D+03
 0.668669524146877D+03 0.112396238673012D+03 -.351838243350975D+02 -.658215858636152D+03
 0.210486960479538D+02 -.402871269970218D+01 0.132888757575049D+01 0.206167683479594D+02
0.468255649655D-05 0.000000000000D+00 0.000000000000D+00 0.189527396036D-06 0.000000000000D+00  6 2 -1 25 2 -1 21 0 0.34369593D+00 0.93602452D-01 0.67379940D+06 0.67379940D+06 0.67379940D+06 0.10594725D+01  1  2  2  1  6  1        2 0.365066584184D-05 0.100000000000D+01
0.115737628079D-05 0.000000000000D+00 -.179822498922D-07 0.189527396036D-06 0.000000000000D+00  6 2 -1 25 2 -1 21 2 0.34369593D+00 0.93602452D-01 0.67379940D+06 0.67379940D+06 0.67379940D+06 0.10594725D+01  1  2  3  1  6  1        2 0.101284497919D-05 0.100000000000D+01
-.274894477986D-05 0.000000000000D+00 0.000000000000D+00 0.189527396036D-06 0.000000000000D+00  6 2 -1 25 2 -1 21 2 0.34369593D+00 0.93602452D-01 0.67379940D+06 0.67379940D+06 0.67379940D+06 0.10594725D+01  1  2 15  1  6  1        2 -.240566094586D-05 0.100000000000D+01
0.157128617188D-08 0.000000000000D+00 0.000000000000D+00 0.189527396036D-06 0.000000000000D+00  6 2 -1 25 2 -1 21 2 0.34986985D+00 0.93602452D-01 0.67806703D+06 0.67806703D+06 0.67806703D+06 0.10592837D+01  1  2 12  1  6  1        2 0.130367661552D-08 0.100000000000D+01
0.150496745663D-04 0.000000000000D+00 0.000000000000D+00 0.189527396036D-06 0.000000000000D+00  6 2 -1 25 2 -1 21 2 0.34998750D+00 0.93602452D-01 0.67806703D+06 0.67806703D+06 0.67806703D+06 0.10592837D+01  1  2 12  1  6  1        2 0.124740118742D-04 0.100000000000D+01
-.163425992017D-02 0.000000000000D+00 0.000000000000D+00 0.189527396036D-06 0.000000000000D+00  6 2 -1 25 2 -1 21 2 0.34369593D+00 0.93602452D-01 0.67379940D+06 0.67379940D+06 0.67379940D+06 0.10594725D+01  1  2  4  1  6  1        2 -.143017615128D-02 0.100000000000D+01
-.227696260514D-02 0.000000000000D+00 -.473574858145D-04 0.189527396036D-06 0.000000000000D+00  6 2 -1 25 2 -1 21 2 0.34985924D+00 0.93602452D-01 0.67379940D+06 0.67379940D+06 0.67379940D+06 0.10594725D+01  1  2  5  1  6  1        2 -.189087109372D-02 0.100000000000D+01
0.227745206293D-02 0.000000000000D+00 0.473500067034D-04 0.189527396036D-06 0.000000000000D+00  6 2 -1 25 2 -1 21 2 0.34369593D+00 0.93602452D-01 0.67379940D+06 0.67379940D+06 0.67379940D+06 0.10594725D+01  1  2  6  1  6  1        2 0.199304748644D-02 0.100000000000D+01
0.157079760284D-02 0.000000000000D+00 0.000000000000D+00 0.189527396036D-06 0.515135935532D-07  6 2 -1 25 2 -1 21 2 0.34983803D+00 0.93619946D-01 0.67806703D+06 0.67806703D+06 0.67806703D+06 0.10592837D+01  1  2 11  1  6  1        2 0.130308950653D-02 0.100000000000D+01
0.114929448344D-09 0.000000000000D+00 0.000000000000D+00 0.189527396036D-06 0.000000000000D+00  6 21 -1 25 2 -1 -2 2 0.34986985D+00 0.93602452D-01 0.67806703D+06 0.67806703D+06 0.67806703D+06 0.10592837D+01  1  2 12  5  6  1        2 0.135447832724D-10 0.100000000000D+01
0.112101679411D-05 0.000000000000D+00 0.000000000000D+00 0.189527396036D-06 0.000000000000D+00  6 21 -1 25 2 -1 -2 2 0.34998750D+00 0.93602452D-01 0.67806703D+06 0.67806703D+06 0.67806703D+06 0.10592837D+01  1  2 12  5  6  1        2 0.131875961974D-06 0.100000000000D+01
-.838002197946D-05 0.000000000000D+00 -.153695971933D-06 0.189527396036D-06 0.000000000000D+00  6 21 -1 25 2 -1 -2 2 0.34985924D+00 0.93602452D-01 0.67379940D+06 0.67379940D+06 0.67379940D+06 0.10594725D+01  1  2  5  5  6  1        2 -.988880435525D-06 0.100000000000D+01
0.609738815230D-05 0.000000000000D+00 0.000000000000D+00 0.189527396036D-06 0.197612672987D-09  6 21 -1 25 2 -1 -2 2 0.34983803D+00 0.93619946D-01 0.67806703D+06 0.67806703D+06 0.67806703D+06 0.10592837D+01  1  2 11  5  6  1        2 0.718652807907D-06 0.100000000000D+01
  </mgrwgt>
  </event>
  <event>
  6     66 0.19594695E-05 0.19823764E+03 0.75467711E-02 0.91374323E-01
        2 -1    0    0  503    0 0.00000000E+00 0.00000000E+00 0.24235136E+04 0.24235136E+04 0.32000000E+00 0.0000E+00 0.9000E+01
       -1 -1    0    0    0  501 0.00000000E+00 0.00000000E+00 -.11387963E+04 0.11387964E+04 0.32000000E+00 0.0000E+00 0.9000E+01
       25  1    1    2    0    0 -.47244203E+03 -.78646096E+02 0.43884009E+03 0.66150760E+03 0.12500000E+03 0.0000E+00 0.9000E+01
        2  1    1    2  502    0 0.16544122E+03 -.25810678E+03 0.48925369E+03 0.57737266E+03 0.32000000E+00 0.0000E+00 0.9000E+01
       -1  1    1    2    0  501 0.21537182E+03 0.21885854E+02 -.95099255E+03 0.97532094E+03 0.32000000E+00 0.0000E+00 0.9000E+01
       21  1    1    2  503  502 0.91628992E+02 0.31486702E+03 0.13076160E+04 0.13481088E+04 0.75000000E+00 0.0000E+00 0.9000E+01
#aMCatNLO 2  0  0  1  4 0.42422244D+01 0.00000000D+00  -5  6  0 0.00000000D+00 0.00000000D+00 0.00000000D+00 0.00000000D+00 0.00000000D+00
  <mgrwgt>
 0.5363665982D-04    1    2    0
 0.109483166306756D+04 0.000000000000000D+00 0.000000000000000D+00 0.109483166306756D+04
 0.109483166306756D+04 0.000000000000000D+00 0.000000000000000D+00 -.109483166306756D+04
 0.642534171277339D+03 -.445204759801836D+03 0.148464720803049D+02 0.445867093847051D+03
 0.558620536863742D+03 0.189137189969945D+03 -.176462623673019D+03 0.495121167011312D+03
 0.988508617994044D+03 0.256067569831891D+03 0.161616151592714D+03 -.940988260858362D+03
 0.000000000000000D+00 0.000000000000000D+00 0.000000000000000D+00 0.000000000000000D+00
 0.244870779085194D+04 0.000000000000000D+00 0.000000000000000D+00 0.244870779085194D+04
 0.112707936953177D+04 0.000000000000000D+00 0.000000000000000D+00 -.112707936953177D+04
 0.666195040746534D+03 -.472435561923846D+03 -.787274206954672D+02 0.445867093847051D+03
 0.582310490851611D+03 0.165397774080746D+03 -.258038977796641D+03 0.495121167011312D+03
 0.965577256881605D+03 0.215408795427470D+03 0.218993786725961D+02 -.940988260858362D+03
 0.136170437190396D+04 0.916289924156303D+02 0.314867019819512D+03 0.132162842132016D+04
0.389140149853D-03 0.000000000000D+00 0.000000000000D+00 0.132326101310D-05 0.578238537674D-10  6 2 -1 25 2 -1 21 2 0.37284822D+00 0.17519943D+00 0.45288738D+06 0.45288738D+06 0.45288738D+06 0.10715613D+01  1  2  1  1  6  1        2 0.536366598238D-04 0.100000000000D+01
  </mgrwgt>
  </event>
  <event>
  5     66 -.19594695E-05 0.12236469E+03 0.75467711E-02 0.91855194E-01
        2 -1    0    0  502    0 0.00000000E+00 0.00000000E+00 0.77596388E+03 0.77596395E+03 0.32000000E+00 0.0000E+00 0.9000E+01
       -1 -1    0    0    0  501 -.00000000E+00 -.00000000E+00 -.78647237E+03 0.78647243E+03 0.32000000E+00 0.0000E+00 0.9000E+01
       25  1    1    2    0    0 0.30736408E+03 -.53020002E+03 0.23396380E+03 0.66779398E+03 0.12500000E+03 0.0000E+00 0.9000E+01
        2  1    1    2  502    0 0.40017948E+02 0.11577304E+03 0.17265406E+03 0.21169403E+03 0.32000000E+00 0.0000E+00 0.9000E+01
       -1  1    1    2    0  501 -.34738203E+03 0.41442698E+03 -.41712635E+03 0.68294838E+03 0.32000000E+00 0.0000E+00 0.9000E+01
#aMCatNLO 1  0  0  5  2 0.40853671D+02 0.00000000D+00  -5  6  0 0.00000000D+00 0.00000000D+00 0.00000000D+00 0.00000000D+00 0.00000000D+00
  <mgrwgt>
 -.3631877733D-03    8    2    0
 0.781200520730342D+03 0.000000000000000D+00 0.000000000000000D+00 0.781200520730342D+03
 0.781200520730342D+03 -.000000000000000D+00 -.000000000000000D+00 -.781200520730342D+03
 0.669496382026139D+03 0.307465038545273D+03 -.530194315537757D+03 0.238662195141780D+03
 0.212634735702824D+03 0.399756322935388D+02 0.115650621404640D+03 0.173897709642371D+03
 0.680269923731722D+03 -.347440670838812D+03 0.414543694133118D+03 -.412559904784151D+03
 0.000000000000000D+00 0.000000000000000D+00 0.000000000000000D+00 -.000000000000000D+00
 0.781200520730342D+03 0.000000000000000D+00 0.000000000000000D+00 0.781200520730342D+03
 0.781200520730342D+03 -.000000000000000D+00 -.000000000000000D+00 -.781200520730342D+03
 0.666337364549240D+03 0.305735757104034D+03 -.528131048980286D+03 0.236608802299140D+03
 0.212356605629426D+03 0.394254667949225D+02 0.116307043226617D+03 0.173244429111981D+03
 0.549715971930635D+03 -.309903519021570D+03 0.336559135478918D+03 -.304754666936167D+03
 0.133991099351382D+03 -.352577048773865D+02 0.752648702747516D+02 -.105098564474953D+03
0.801459429277D-05 0.000000000000D+00 0.000000000000D+00 0.421818759454D-07 0.000000000000D+00  6 2 -1 25 2 -1 21 0 0.11937907D+00 0.12099576D+00 0.41522986D+06 0.41522986D+06 0.41522986D+06 0.10742597D+01  1  2  2  4  6  5       -1 0.248795286783D-04 0.100000000000D+01
0.822281469302D-06 0.000000000000D+00 -.307781523754D-07 0.421818759454D-07 0.000000000000D+00  6 2 -1 25 2 -1 21 2 0.11937907D+00 0.12099576D+00 0.41522986D+06 0.41522986D+06 0.41522986D+06 0.10742597D+01  1  2  3  4  6  5       -1 0.294577555253D-05 0.100000000000D+01
-.514413034261D-05 0.000000000000D+00 0.000000000000D+00 0.421818759454D-07 0.000000000000D+00  6 2 -1 25 2 -1 21 2 0.11937907D+00 0.12099576D+00 0.41522986D+06 0.41522986D+06 0.41522986D+06 0.10742597D+01  1  2 15  4  6  5       -1 -.184285478489D-04 0.100000000000D+01
0.447333294545D-06 0.000000000000D+00 0.000000000000D+00 0.421818759454D-07 0.000000000000D+00  6 2 -1 25 2 -1 21 2 0.11937907D+00 0.12099576D+00 0.41366884D+06 0.41366884D+06 0.41366884D+06 0.10743772D+01  1  2 12  4  6  5       -1 0.160318310913D-05 0.100000000000D+01
0.116014148653D-03 0.000000000000D+00 0.000000000000D+00 0.421818759454D-07 0.000000000000D+00  6 2 -1 25 2 -1 21 2 0.11937907D+00 0.12099576D+00 0.41366884D+06 0.41366884D+06 0.41366884D+06 0.10743772D+01  1  2 12  4  6  5       -1 0.415779298811D-03 0.100000000000D+01
-.246533894528D-03 0.000000000000D+00 0.000000000000D+00 0.421818759454D-07 0.000000000000D+00  6 2 -1 25 2 -1 21 2 0.11937907D+00 0.12099576D+00 0.41522986D+06 0.41522986D+06 0.41522986D+06 0.10742597D+01  1  2  4  4  6  5       -1 -.883193342525D-03 0.100000000000D+01
-.120528694648D-03 0.000000000000D+00 0.000000000000D+00 0.421818759454D-07 0.000000000000D+00  6 2 -1 25 2 -1 21 2 0.11937907D+00 0.12099576D+00 0.41522986D+06 0.41522986D+06 0.41522986D+06 0.10742597D+01  1  2  5  4  6  5       -1 -.431787040480D-03 0.100000000000D+01
0.146551819292D-03 0.000000000000D+00 -.000000000000D+00 0.421818759454D-07 0.000000000000D+00  6 2 -1 25 2 -1 21 2 0.11937907D+00 0.12099576D+00 0.41522986D+06 0.41522986D+06 0.41522986D+06 0.10742597D+01  1  2  6  4  6  5       -1 0.525013371413D-03 0.100000000000D+01
  </mgrwgt>
  </event>
  <event>
  5     66 0.19594695E-05 0.61083136E+02 0.75467711E-02 0.87399146E-01
        2 -1    0    0  502    0 0.00000000E+00 0.00000000E+00 0.19096194E+04 0.19096194E+04 0.32000000E+00 0.0000E+00 0.9000E+01
       -1 -1    0    0    0  501 0.00000000E+00 0.00000000E+00 -.14899158E+04 0.14899159E+04 0.32000000E+00 0.0000E+00 0.9000E+01
       25  1    1    2    0    0 0.69795015E+03 -.68192373E+03 0.59036655E+03 0.11473064E+04 0.12500000E+03 0.0000E+00 0.9000E+01
        2  1    1    2  502    0 0.16502340E+02 0.58826086E+02 0.85406566E+03 0.85624826E+03 0.32000000E+00 0.0000E+00 0.9000E+01
       -1  1    1    2    0  501 -.71445249E+03 0.62309764E+03 -.10247286E+04 0.13959806E+04 0.32000000E+00 0.0000E+00 0.9000E+01
#aMCatNLO 1  0  0  1  4 0.30177823D+01 0.00000000D+00  -5  6  0 0.00000000D+00 0.00000000D+00 0.00000000D+00 0.00000000D+00 0.00000000D+00
  <mgrwgt>
 0.4735946757D-03   10    2    0
 0.168676386134279D+04 0.000000000000000D+00 0.000000000000000D+00 0.168676386134279D+04
 0.168676386134279D+04 0.000000000000000D+00 0.000000000000000D+00 -.168676386134279D+04
 0.108283858895602D+04 0.698018948628338D+03 -.681971286480779D+03 0.452326344030286D+03
 0.756423309664491D+03 0.164986124643110D+02 0.588127981780276D+02 0.753952965350628D+03
 0.153426582406506D+04 -.714517561092649D+03 0.623158488302751D+03 -.120627930938091D+04
 0.000000000000000D+00 -.000000000000000D+00 0.000000000000000D+00 0.000000000000000D+00
 0.168981971796213D+04 0.000000000000000D+00 0.000000000000000D+00 0.168981971796213D+04
 0.168750974639521D+04 0.000000000000000D+00 0.000000000000000D+00 -.168750974639521D+04
 0.108365306410246D+04 0.698909850903346D+03 -.682352447159899D+03 0.452326344030286D+03
 0.756416486992588D+03 0.171207207538410D+02 0.585466374275443D+02 0.753952965350628D+03
 0.153345952136573D+04 -.713256054506419D+03 0.622618769502373D+03 -.120627930938091D+04
 0.380039189656663D+01 -.277451715076855D+01 0.118704022998158D+01 0.230997156692150D+01
0.798152889369D-03 0.000000000000D+00 0.000000000000D+00 0.510170279353D-05 0.000000000000D+00  6 2 -1 25 2 -1 21 0 0.29378761D+00 0.22921783D+00 0.99301818D+06 0.99301818D+06 0.99301818D+06 0.10480666D+01  1  2  2  1  6  1        2 0.625863563271D-04 0.100000000000D+01
0.374920429057D-03 0.000000000000D+00 -.306511725366D-05 0.510170279353D-05 0.000000000000D+00  6 2 -1 25 2 -1 21 2 0.29378761D+00 0.22921783D+00 0.99301818D+06 0.99301818D+06 0.99301818D+06 0.10480666D+01  1  2  3  1  6  1        2 0.322931505941D-04 0.100000000000D+01
-.522625564135D-03 0.000000000000D+00 0.000000000000D+00 0.510170279353D-05 0.000000000000D+00  6 2 -1 25 2 -1 21 2 0.29378761D+00 0.22921783D+00 0.99301818D+06 0.99301818D+06 0.99301818D+06 0.10480666D+01  1  2 15  1  6  1        2 -.450154879247D-04 0.100000000000D+01
-.240309406724D-02 0.000000000000D+00 0.000000000000D+00 0.510170279353D-05 0.000000000000D+00  6 2 -1 25 2 -1 21 2 0.29378761D+00 0.22921783D+00 0.99301818D+06 0.99301818D+06 0.99301818D+06 0.10480666D+01  1  2  4  1  6  1        2 -.206986529916D-03 0.100000000000D+01
-.101630466906D+01 0.000000000000D+00 -.767834124042D-01 0.510170279353D-05 0.000000000000D+00  6 2 -1 25 2 -1 21 2 0.29437416D+00 0.22921783D+00 0.99301818D+06 0.99301818D+06 0.99301818D+06 0.10480666D+01  1  2  5  1  6  1        2 -.871106925178D-01 0.100000000000D+01
0.101645594671D+01 0.000000000000D+00 0.767832596766D-01 0.510170279353D-05 0.000000000000D+00  6 2 -1 25 2 -1 21 2 0.29378761D+00 0.22921783D+00 0.99301818D+06 0.99301818D+06 0.99301818D+06 0.10480666D+01  1  2  6  1  6  1        2 0.875507505474D-01 0.100000000000D+01
0.229811964987D-02 0.000000000000D+00 0.000000000000D+00 0.510170279353D-05 0.151662786918D-06  6 2 -1 25 2 -1 21 2 0.29431985D+00 0.22931919D+00 0.99553516D+06 0.99553516D+06 0.99553516D+06 0.10479933D+01  1  2 11  1  6  1        2 0.196613967376D-03 0.100000000000D+01
0.735224753318D-12 0.000000000000D+00 0.000000000000D+00 0.510170279353D-05 0.000000000000D+00  6 21 -1 25 2 -1 -2 2 0.29438474D+00 0.22921783D+00 0.99553516D+06 0.99553516D+06 0.99553516D+06 0.10479933D+01  1  2 12  5  6  1        2 0.129354352691D-13 0.100000000000D+01
-.378822849437D-03 0.000000000000D+00 -.286292932336D-04 0.510170279353D-05 0.000000000000D+00  6 21 -1 25 2 -1 -2 2 0.29437416D+00 0.22921783D+00 0.99301818D+06 0.99301818D+06 0.99301818D+06 0.10480666D+01  1  2  5  5  6  1        2 -.666933009707D-05 0.100000000000D+01
0.406495946786D-04 0.000000000000D+00 0.000000000000D+00 0.510170279353D-05 0.819723589088D-09  6 21 -1 25 2 -1 -2 2 0.29431985D+00 0.22931919D+00 0.99553516D+06 0.99553516D+06 0.99553516D+06 0.10479933D+01  1  2 11  5  6  1        2 0.714519826832D-06 0.100000000000D+01
  </mgrwgt>
  </event>
</LesHouchesEvents>
