<LesHouchesEvents version="3.0">
  <!--
  <scalesfunctionalform>
    muR  H_T/2 := sum_i mT(i)/2, i=final state
    muF1 H_T/2 := sum_i mT(i)/2, i=final state
    muF2 H_T/2 := sum_i mT(i)/2, i=final state
    QES  H_T/2 := sum_i mT(i)/2, i=final state
  </scalesfunctionalform>
HERWIG6   
  -->
  <header>
      352
  </header>
  <init>
   2212   2212 0.65000000D+04 0.65000000D+04 -1 -1   244800   244800 -4   1
 0.33084033D-03 0.13156395D-04 0.18411016D-05     66
  </init>
  <event>
  5     66 -.18411016E-05 0.10669583E+02 0.75467711E-02 0.88645545E-01
        2 -1    0    0  502    0 0.00000000E+00 0.00000000E+00 0.12977643E+04 0.12977643E+04 0.32000000E+00 0.0000E+00 0.9000E+01
        2 -1    0    0  501    0 0.00000000E+00 0.00000000E+00 -.13398934E+04 0.13398935E+04 0.32000000E+00 0.0000E+00 0.9000E+01
       25  1    1    2    0    0 0.74989281E+03 0.43914956E+03 0.38577010E+03 0.95897608E+03 0.12500000E+03 0.0000E+00 0.9000E+01
        2  1    1    2  501    0 -.74366065E+03 -.44781575E+03 -.87435483E+03 0.12320984E+04 0.32000000E+00 0.0000E+00 0.9000E+01
        2  1    1    2  502    0 -.62321553E+01 0.86661893E+01 0.44645558E+03 0.44658329E+03 0.32000000E+00 0.0000E+00 0.9000E+01
#aMCatNLO 1  0  0  0  0 0.00000000D+00 0.00000000D+00  -5  6  0 0.00000000D+00 0.00000000D+00 0.00000000D+00 0.00000000D+00 0.00000000D+00
  <mgrwgt>
 -.9365650733D-03    1    2    0
 0.131866067531963D+04 0.000000000000000D+00 0.000000000000000D+00 0.131866067531963D+04
 0.131866067531963D+04 0.000000000000000D+00 0.000000000000000D+00 -.131866067531963D+04
 0.965421005719798D+03 0.749979252050848D+03 0.439205726177950D+03 0.401300597894864D+03
 0.121833275900785D+04 -.743749903205949D+03 -.447868012945709D+03 -.854742672465161D+03
 0.453567585911618D+03 -.622934884489971D+01 0.866228676775845D+01 0.453442074570297D+03
 0.000000000000000D+00 -.000000000000000D+00 0.000000000000000D+00 -.000000000000000D+00
 0.170191112844450D+04 0.000000000000000D+00 0.000000000000000D+00 0.170191112844450D+04
 0.182664950028057D+04 0.000000000000000D+00 0.000000000000000D+00 -.182664950028057D+04
 0.120078066632400D+04 0.105580246480156D+04 0.387928078470319D+03 0.401300597894864D+03
 0.107655880243895D+04 -.419758319553447D+03 -.502191967420390D+03 -.854742672465161D+03
 0.470331096660248D+03 0.124206181238363D+03 -.132079535583727D+02 0.453442074570297D+03
 0.780890063301878D+03 -.760250326486480D+03 0.127471842508444D+03 -.124738371836068D+03
-.200302873933D-03 0.000000000000D+00 0.000000000000D+00 0.272480685854D-05 0.000000000000D+00  6 2 2 25 2 2 21 2 0.19965605D+00 0.20613746D+00 0.77169257D+06 0.77169257D+06 0.77169257D+06 0.10554396D+01  1  2 14  2  6  2        2 -.936565073312D-03 0.100000000000D+01
  </mgrwgt>
  </event>
  <event>
  5     66 0.18411016E-05 0.12936260E+03 0.75467711E-02 0.89768746E-01
        2 -1    0    0  502    0 0.00000000E+00 0.00000000E+00 0.36279565E+04 0.36279565E+04 0.32000000E+00 0.0000E+00 0.9000E+01
        2 -1    0    0  501    0 0.00000000E+00 0.00000000E+00 -.26634228E+04 0.26634228E+04 0.32000000E+00 0.0000E+00 0.9000E+01
       25  1    1    2    0    0 -.18264758E+03 0.63131752E+03 -.19175385E+02 0.66926425E+03 0.12500000E+03 0.0000E+00 0.9000E+01
        2  1    1    2  501    0 0.30196397E+03 -.68130366E+03 -.22580145E+04 0.23778113E+04 0.32000000E+00 0.0000E+00 0.9000E+01
        2  1    1    2  502    0 -.11931640E+03 0.49986142E+02 0.32417236E+04 0.32443038E+04 0.32000000E+00 0.0000E+00 0.9000E+01
#aMCatNLO 1  0  0  1  4 0.31959340D+02 0.00000000D+00  -5  6  0 0.00000000D+00 0.00000000D+00 0.00000000D+00 0.00000000D+00 0.00000000D+00
  <mgrwgt>
 0.9515699839D-02    9    2    0
 0.310850161146009D+04 0.000000000000000D+00 0.000000000000000D+00 0.310850161146009D+04
 0.310850161146009D+04 0.000000000000000D+00 0.000000000000000D+00 -.310850161146009D+04
 0.680272951722698D+03 -.182660740029176D+03 0.631346818883906D+03 -.123217438630572D+03
 0.275657719012941D+04 0.301975940779826D+03 -.681332459490866D+03 -.265392434254935D+04
 0.278015308106807D+04 -.119315200750650D+03 0.499856406069603D+02 0.277714178117992D+04
 0.000000000000000D+00 -.000000000000000D+00 -.000000000000000D+00 0.000000000000000D+00
 0.363073463931526D+04 0.000000000000000D+00 0.000000000000000D+00 0.363073463931526D+04
 0.310903168015103D+04 0.000000000000000D+00 0.000000000000000D+00 -.310903168015103D+04
 0.683395486360782D+03 -.182251116843314D+03 0.634827838082875D+03 -.123217438630572D+03
 0.275331655044112D+04 0.303631020683959D+03 -.667267423328442D+03 -.265392434254935D+04
 0.278037333121480D+04 -.117644911638974D+03 0.641799261509820D+02 0.277714178117992D+04
 0.522680951449588D+03 -.373499220167182D+01 -.317403409054146D+02 0.521702959164224D+03
0.139987051402D-02 0.000000000000D+00 0.000000000000D+00 0.556654857240D-04 0.000000000000D+00  6 2 2 25 2 2 21 0 0.55814716D+00 0.40975736D+00 0.59570399D+06 0.59570399D+06 0.59570399D+06 0.10631760D+01  1  2  2  1  6  1        2 0.415235873461D-04 0.100000000000D+01
0.470860502448D-03 0.000000000000D+00 -.537587136821D-05 0.556654857240D-04 0.000000000000D+00  6 2 2 25 2 2 21 2 0.55814716D+00 0.40975736D+00 0.59570399D+06 0.59570399D+06 0.59570399D+06 0.10631760D+01  1  2  3  1  6  1        2 0.157873632149D-04 0.100000000000D+01
-.112109897453D-02 0.000000000000D+00 0.000000000000D+00 0.556654857240D-04 0.000000000000D+00  6 2 2 25 2 2 21 2 0.55814716D+00 0.40975736D+00 0.59570399D+06 0.59570399D+06 0.59570399D+06 0.10631760D+01  1  2 15  1  6  1        2 -.375890452029D-04 0.100000000000D+01
0.910142104019D-10 0.000000000000D+00 0.000000000000D+00 0.556654857240D-04 0.000000000000D+00  6 2 2 25 2 2 21 2 0.65196704D+00 0.40975736D+00 0.61722148D+06 0.61722148D+06 0.61722148D+06 0.10621051D+01  1  2 12  1  6  1        2 0.964233795954D-12 0.100000000000D+01
-.100294419297D+00 0.000000000000D+00 0.000000000000D+00 0.556654857240D-04 0.000000000000D+00  6 2 2 25 2 2 21 2 0.55814716D+00 0.40975736D+00 0.59570399D+06 0.59570399D+06 0.59570399D+06 0.10631760D+01  1  2  4  1  6  1        2 -.336274632856D-02 0.100000000000D+01
-.540593499406D+00 0.000000000000D+00 -.118046067495D-02 0.556654857240D-04 0.000000000000D+00  6 2 2 25 2 2 21 2 0.65193459D+00 0.40975736D+00 0.59570399D+06 0.59570399D+06 0.59570399D+06 0.10631760D+01  1  2  5  1  6  1        2 -.577222853073D-02 0.100000000000D+01
0.555729614756D+00 0.000000000000D+00 0.121331207705D-02 0.556654857240D-04 0.000000000000D+00  6 2 2 25 2 2 21 2 0.55814716D+00 0.40975736D+00 0.59570399D+06 0.59570399D+06 0.59570399D+06 0.10631760D+01  1  2  6  1  6  1        2 0.186329183098D-01 0.100000000000D+01
0.213590776120D-11 0.000000000000D+00 0.000000000000D+00 0.556654857240D-04 0.000000000000D+00  6 21 2 25 2 2 -2 2 0.65196704D+00 0.40975736D+00 0.61722148D+06 0.61722148D+06 0.61722148D+06 0.10621051D+01  1  2 12  4  6  1        2 0.328232674176D-15 0.100000000000D+01
-.126745765639D-01 0.000000000000D+00 -.276957350697D-04 0.556654857240D-04 0.000000000000D+00  6 21 2 25 2 2 -2 2 0.65193459D+00 0.40975736D+00 0.59570399D+06 0.59570399D+06 0.59570399D+06 0.10631760D+01  1  2  5  4  6  1        2 -.196551759582D-05 0.100000000000D+01
  </mgrwgt>
  </event>
  <event>
  5     66 -.18411016E-05 0.30358165E+02 0.75467711E-02 0.93312478E-01
        2 -1    0    0  502    0 0.00000000E+00 0.00000000E+00 0.29842008E+04 0.29842008E+04 0.32000000E+00 0.0000E+00 0.9000E+01
        2 -1    0    0  501    0 0.00000000E+00 0.00000000E+00 -.74350422E+03 0.74350429E+03 0.32000000E+00 0.0000E+00 0.9000E+01
       25  1    1    2    0    0 0.37896451E+03 0.40211785E+03 0.33317158E+03 0.65722231E+03 0.12500000E+03 0.0000E+00 0.9000E+01
        2  1    1    2  501    0 -.37407222E+03 -.37215505E+03 -.46165411E+03 0.70110914E+03 0.32000000E+00 0.0000E+00 0.9000E+01
        2  1    1    2  502    0 -.48922972E+01 -.29962792E+02 0.23691791E+04 0.23693737E+04 0.32000000E+00 0.0000E+00 0.9000E+01
#aMCatNLO 1  0  0  2  5 0.11649916D+03 0.00000000D+00  -5  6  0 0.00000000D+00 0.00000000D+00 0.00000000D+00 0.00000000D+00 0.00000000D+00
  <mgrwgt>
 -.5979095160D-02    1    2    0
 0.148955230461023D+04 0.000000000000000D+00 0.000000000000000D+00 0.148955230461023D+04
 0.148955230461023D+04 0.000000000000000D+00 0.000000000000000D+00 -.148955230461023D+04
 0.571819930355806D+03 0.378998405185861D+03 0.402151064930637D+03 -.773806344885261D+02
 0.122452944998540D+04 -.374106334414543D+03 -.372189659644498D+03 -.110498492373705D+04
 0.118275522887926D+04 -.489207077131809D+01 -.299614052861396D+02 0.118236555822558D+04
 0.000000000000000D+00 0.000000000000000D+00 0.000000000000000D+00 0.000000000000000D+00
 0.186461514705110D+04 0.000000000000000D+00 0.000000000000000D+00 0.186461514705110D+04
 0.152168327929320D+04 0.000000000000000D+00 0.000000000000000D+00 -.152168327929320D+04
 0.536401642008873D+03 0.346163963858179D+03 0.382471527151972D+03 -.773806344885261D+02
 0.126288392378819D+04 -.447803535872723D+03 -.416360560735950D+03 -.110498492373705D+04
 0.118693662916319D+04 -.751014135758966D+02 -.720418354158611D+02 0.118236555822558D+04
 0.400076231384050D+03 0.176740985590441D+03 0.105930868999840D+03 0.342931867757901D+03
-.446006208297D-02 0.000000000000D+00 0.000000000000D+00 0.595518064539D-04 0.000000000000D+00  6 2 2 25 2 2 21 2 0.45910783D+00 0.11438527D+00 0.31619866D+06 0.31619866D+06 0.31619866D+06 0.10828662D+01  1  2 14  2  6  2        2 -.597909516040D-02 0.100000000000D+01
  </mgrwgt>
  </event>
  <event>
  6     66 0.18411016E-05 0.31986560E+02 0.75467711E-02 0.90592355E-01
        2 -1    0    0  502    0 0.00000000E+00 0.00000000E+00 0.56021358E+03 0.56021367E+03 0.32000000E+00 0.0000E+00 0.9000E+01
        2 -1    0    0  501    0 -.00000000E+00 -.00000000E+00 -.22973020E+04 0.22973020E+04 0.32000000E+00 0.0000E+00 0.9000E+01
       25  1    1    2    0    0 -.49803168E+03 0.46816158E+03 -.76180897E+03 0.10311104E+04 0.12500000E+03 0.0000E+00 0.9000E+01
        2  1    1    2  501    0 -.28447465E+02 0.15951082E+02 -.10911693E+04 0.10916567E+04 0.32000000E+00 0.0000E+00 0.9000E+01
        2  1    1    2  503    0 0.48405963E+03 -.39682656E+03 0.78869632E+02 0.63087682E+03 0.32000000E+00 0.0000E+00 0.9000E+01
       21  1    1    2  502  503 0.42419516E+02 -.87286098E+02 0.37020251E+02 0.10387175E+03 0.75000000E+00 0.0000E+00 0.9000E+01
#aMCatNLO 2  0  0  5  4 0.44093332D+02 0.00000000D+00  -5  6  0 0.00000000D+00 0.00000000D+00 0.00000000D+00 0.00000000D+00 0.00000000D+00
  <mgrwgt>
 0.1019959733D-01    1    2    0
 0.113445137143056D+04 0.000000000000000D+00 0.000000000000000D+00 0.113445137143056D+04
 0.113445137143056D+04 -.000000000000000D+00 -.000000000000000D+00 -.113445137143056D+04
 0.717176217384756D+03 -.499186519297096D+03 0.469227762796599D+03 -.171332578207575D+03
 0.541015803008070D+03 -.293772343990672D+02 0.168017537271799D+02 -.539956274410457D+03
 0.101071072246830D+04 0.528563753696164D+03 -.486029516523779D+03 0.711288852618032D+03
 0.000000000000000D+00 0.000000000000000D+00 0.000000000000000D+00 0.000000000000000D+00
 0.113445137143056D+04 0.000000000000000D+00 0.000000000000000D+00 0.113445137143056D+04
 0.113445137143056D+04 -.000000000000000D+00 -.000000000000000D+00 -.113445137143056D+04
 0.715205459299726D+03 -.497968702241427D+03 0.468107945119654D+03 -.169693760391997D+03
 0.539706884800130D+03 -.284583993266245D+02 0.159568585505781D+02 -.538719796994341D+03
 0.854772373917801D+03 0.483994112372082D+03 -.396746545204730D+03 0.582217905315823D+03
 0.159218024843470D+03 0.424329891959695D+02 -.873182584655016D+02 0.126195652070514D+03
0.224995076148D-02 0.000000000000D+00 0.000000000000D+00 0.262096770528D-05 0.849393935155D-08  6 2 2 25 2 2 21 2 0.86186713D-01 0.35343108D+00 0.52585550D+06 0.52585550D+06 0.52585550D+06 0.10669663D+01  1  2  1  3  6  5        2 0.101995973270D-01 0.100000000000D+01
  </mgrwgt>
  </event>
  <event>
  5     66 -.18411016E-05 0.26523953E+02 0.75467711E-02 0.94847851E-01
        2 -1    0    0  502    0 0.00000000E+00 0.00000000E+00 0.47144396E+03 0.47144407E+03 0.32000000E+00 0.0000E+00 0.9000E+01
        2 -1    0    0  501    0 0.00000000E+00 0.00000000E+00 -.16374653E+04 0.16374654E+04 0.32000000E+00 0.0000E+00 0.9000E+01
       25  1    1    2    0    0 0.42669498E+03 -.21547232E+03 -.95521987E+03 0.10754380E+04 0.12500000E+03 0.0000E+00 0.9000E+01
        2  1    1    2  501    0 -.41872724E+03 0.19016968E+03 -.53653521E+03 0.70665915E+03 0.32000000E+00 0.0000E+00 0.9000E+01
        2  1    1    2  502    0 -.79677367E+01 0.25302640E+02 0.32573371E+03 0.32681227E+03 0.32000000E+00 0.0000E+00 0.9000E+01
#aMCatNLO 1  0  0  1  5 0.43382611D+01 0.00000000D+00  -5  6  0 0.00000000D+00 0.00000000D+00 0.00000000D+00 0.00000000D+00 0.00000000D+00
  <mgrwgt>
 -.1761280946D-03    1    2    0
 0.878620103137882D+03 0.000000000000000D+00 0.000000000000000D+00 0.878620103137882D+03
 0.878620103137882D+03 0.000000000000000D+00 0.000000000000000D+00 -.878620103137882D+03
 0.656849245140144D+03 0.426760504691440D+03 -.215502796320094D+03 -.432735424081394D+03
 0.492115135952484D+03 -.418793834239774D+03 0.190203542351531D+03 -.174961835590537D+03
 0.608275825183136D+03 -.796667045166659D+01 0.252992539685625D+02 0.607697259671931D+03
 0.000000000000000D+00 0.000000000000000D+00 0.000000000000000D+00 0.000000000000000D+00
 0.321860358214414D+04 0.000000000000000D+00 0.000000000000000D+00 0.321860358214414D+04
 0.936497107424647D+03 0.000000000000000D+00 0.000000000000000D+00 -.936497107424647D+03
 0.727426571078653D+03 0.406563690546055D+03 -.401211209446988D+03 -.432735424081394D+03
 0.470837883464139D+03 -.432843478780282D+03 0.610179602179868D+02 -.174961835590537D+03
 0.624163694920678D+03 -.259481678103050D+02 -.140039463122176D+03 0.607697259671931D+03
 0.233267254010531D+04 0.522279560445324D+02 0.480232712351177D+03 0.228210647471949D+04
-.126356516797D-04 0.000000000000D+00 0.000000000000D+00 0.129234739557D-05 0.000000000000D+00  6 2 2 25 2 2 21 2 0.72529851D-01 0.25191775D+00 0.24041540D+06 0.24041540D+06 0.24041540D+06 0.10917386D+01  1  2 14  1  6  1        2 -.176128094638D-03 0.100000000000D+01
  </mgrwgt>
  </event>
  <event>
  5     66 0.18411016E-05 0.34453742E+02 0.75467711E-02 0.93788521E-01
        2 -1    0    0  502    0 0.00000000E+00 0.00000000E+00 0.12246972E+04 0.12246972E+04 0.32000000E+00 0.0000E+00 0.9000E+01
        2 -1    0    0  501    0 0.00000000E+00 0.00000000E+00 -.71749582E+03 0.71749590E+03 0.32000000E+00 0.0000E+00 0.9000E+01
       25  1    1    2    0    0 0.56873212E+02 -.52824005E+03 0.48996116E+03 0.73345691E+03 0.12500000E+03 0.0000E+00 0.9000E+01
        2  1    1    2  501    0 -.50613387E+02 0.49434385E+03 -.49143808E+03 0.69889130E+03 0.32000000E+00 0.0000E+00 0.9000E+01
        2  1    1    2  502    0 -.62598248E+01 0.33896196E+02 0.50867827E+03 0.50984490E+03 0.32000000E+00 0.0000E+00 0.9000E+01
#aMCatNLO 1  0  0  1  5 0.43382611D+01 0.00000000D+00  -5  6  0 0.00000000D+00 0.00000000D+00 0.00000000D+00 0.00000000D+00 0.00000000D+00
  <mgrwgt>
 0.5292061212D-02    4    2    0
 0.937398109217574D+03 0.000000000000000D+00 0.000000000000000D+00 0.937398109217574D+03
 0.937398109217574D+03 0.000000000000000D+00 0.000000000000000D+00 -.937398109217574D+03
 0.627410369483836D+03 0.568792606448508D+02 -.528309040562977D+03 0.309310651455402D+03
 0.857005980688228D+03 -.506222741031772D+02 0.494428213596163D+03 -.698167156131053D+03
 0.390379868263083D+03 -.625698654167353D+01 0.338808269668146D+02 0.388856504675651D+03
 0.000000000000000D+00 0.000000000000000D+00 -.000000000000000D+00 -.000000000000000D+00
 0.100854505034649D+04 0.000000000000000D+00 0.000000000000000D+00 0.100854505034649D+04
 0.131587973541739D+04 0.000000000000000D+00 0.000000000000000D+00 -.131587973541739D+04
 0.552122345748365D+03 0.347698087740220D+02 -.438556799022350D+03 0.309310651455402D+03
 0.945215031506955D+03 -.844035488530528D+02 0.631561650852538D+03 -.698167156131053D+03
 0.400628280898880D+03 -.210838382071544D+02 0.940697081630547D+02 0.388856504675651D+03
 0.426459127609676D+03 0.707175782861852D+02 -.287074559993243D+03 -.307334685070900D+03
0.783672930643D-03 0.000000000000D+00 0.000000000000D+00 0.520193442086D-05 0.000000000000D+00  6 2 2 25 2 2 21 0 0.18841496D+00 0.11038398D+00 0.29016193D+06 0.29016193D+06 0.29016193D+06 0.10856248D+01  1  2  2  1  6  1        2 0.943177139456D-02 0.100000000000D+01
0.340671928867D-03 0.000000000000D+00 -.300951039949D-05 0.520193442086D-05 0.000000000000D+00  6 2 2 25 2 2 21 2 0.18841496D+00 0.11038398D+00 0.29016193D+06 0.29016193D+06 0.29016193D+06 0.10856248D+01  1  2  3  1  6  1        2 0.483230480762D-02 0.100000000000D+01
-.612531279787D-03 0.000000000000D+00 0.000000000000D+00 0.520193442086D-05 0.000000000000D+00  6 2 2 25 2 2 21 2 0.18841496D+00 0.11038398D+00 0.29016193D+06 0.29016193D+06 0.29016193D+06 0.10856248D+01  1  2 15  1  6  1        2 -.868852874958D-02 0.100000000000D+01
-.199854538091D-04 0.000000000000D+00 0.000000000000D+00 0.520193442086D-05 0.000000000000D+00  6 2 2 25 2 2 21 2 0.18841496D+00 0.11038398D+00 0.29016193D+06 0.29016193D+06 0.29016193D+06 0.10856248D+01  1  2  4  1  6  1        2 -.283486240987D-03 0.100000000000D+01
  </mgrwgt>
  </event>
  <event>
  6     66 -.18411016E-05 0.17081985E+03 0.75467711E-02 0.93215992E-01
        2 -1    0    0  502    0 0.00000000E+00 0.00000000E+00 0.12095818E+04 0.12095818E+04 0.32000000E+00 0.0000E+00 0.9000E+01
        2 -1    0    0  503    0 0.00000000E+00 0.00000000E+00 -.17889414E+04 0.17889415E+04 0.32000000E+00 0.0000E+00 0.9000E+01
       25  1    1    2    0    0 -.87040499E+02 -.44208872E+03 0.63409930E+01 0.46763628E+03 0.12500000E+03 0.0000E+00 0.9000E+01
        2  1    1    2  501    0 -.29366177E+02 0.37381319E+03 -.92524500E+03 0.99833716E+03 0.32000000E+00 0.0000E+00 0.9000E+01
        2  1    1    2  502    0 0.16319250E+03 0.13405509E+03 0.92131209E+03 0.94520825E+03 0.32000000E+00 0.0000E+00 0.9000E+01
       21  1    1    2  503  501 -.46785827E+02 -.65779558E+02 -.58176775E+03 0.58734159E+03 0.75000000E+00 0.0000E+00 0.9000E+01
#aMCatNLO 2  0  0  2  4 0.80720902D+02 0.00000000D+00  -5  6  0 0.00000000D+00 0.00000000D+00 0.00000000D+00 0.00000000D+00 0.00000000D+00
  <mgrwgt>
 -.4414224937D-02    3    2    0
 0.120491446541821D+04 0.000000000000000D+00 0.000000000000000D+00 0.120491446541821D+04
 0.120491446541821D+04 0.000000000000000D+00 0.000000000000000D+00 -.120491446541821D+04
 0.481680084632310D+03 -.962414986090248D+02 -.455074664028055D+03 0.594373928018854D+01
 0.990215457139480D+03 -.486754515278962D+02 0.346708666517385D+03 -.926256148448280D+03
 0.937933389064621D+03 0.144916950136921D+03 0.108365997510670D+03 0.920312409168091D+03
 0.000000000000000D+00 -.000000000000000D+00 -.000000000000000D+00 -.000000000000000D+00
 0.120837414196743D+04 0.000000000000000D+00 0.000000000000000D+00 0.120837414196743D+04
 0.179072865517714D+04 0.000000000000000D+00 0.000000000000000D+00 -.179072865517714D+04
 0.467659864938133D+03 -.870285618148514D+02 -.442121533818202D+03 0.594373928018854D+01
 0.999289691846381D+03 -.293681578681457D+02 0.373854178785826D+03 -.926256148448280D+03
 0.944230930001525D+03 0.163182547108428D+03 0.134046913511554D+03 0.920312409168091D+03
 0.587922310358533D+03 -.467858274254312D+02 -.657795584791781D+02 -.582354513209709D+03
-.317195750969D-09 0.000000000000D+00 0.000000000000D+00 0.437815015186D-05 0.000000000000D+00  6 2 2 25 2 2 21 2 0.18555668D+00 0.27547914D+00 0.32178913D+06 0.32178913D+06 0.32178913D+06 0.10823062D+01  1  2 13  2  6  2        2 -.104843005720D-08 0.100000000000D+01
-.236096530968D-02 0.000000000000D+00 0.000000000000D+00 0.437815015186D-05 0.000000000000D+00  6 2 2 25 2 2 21 2 0.18555668D+00 0.28656608D+00 0.32178913D+06 0.32178913D+06 0.32178913D+06 0.10823062D+01  1  2 13  2  6  2        2 -.712844981914D-02 0.100000000000D+01
0.823244853270D-03 0.000000000000D+00 0.000000000000D+00 0.437815015185D-05 0.143480345988D-08  6 2 2 25 2 2 21 2 0.18608947D+00 0.27522171D+00 0.32178913D+06 0.32178913D+06 0.32178913D+06 0.10823062D+01  1  2  1  2  6  2        2 0.271422593025D-02 0.100000000000D+01
  </mgrwgt>
  </event>
  <event>
  5     66 0.18411016E-05 0.31438513E+02 0.75467711E-02 0.87890391E-01
        2 -1    0    0  502    0 0.00000000E+00 0.00000000E+00 0.12277348E+04 0.12277348E+04 0.32000000E+00 0.0000E+00 0.9000E+01
        2 -1    0    0  501    0 0.00000000E+00 0.00000000E+00 -.21390324E+04 0.21390324E+04 0.32000000E+00 0.0000E+00 0.9000E+01
       25  1    1    2    0    0 -.42189613E+03 -.53631625E+03 -.42160819E+03 0.81179427E+03 0.12500000E+03 0.0000E+00 0.9000E+01
        2  1    1    2  501    0 0.41274528E+03 0.50623745E+03 -.14519999E+04 0.15921491E+04 0.32000000E+00 0.0000E+00 0.9000E+01
        2  1    1    2  502    0 0.91508565E+01 0.30078791E+02 0.96231041E+03 0.96282392E+03 0.32000000E+00 0.0000E+00 0.9000E+01
#aMCatNLO 1  0  0  1  5 0.43382611D+01 0.00000000D+00  -5  6  0 0.00000000D+00 0.00000000D+00 0.00000000D+00 0.00000000D+00 0.00000000D+00
  <mgrwgt>
 0.6175067875D-02    4    2    0
 0.162054454076442D+04 0.000000000000000D+00 0.000000000000000D+00 0.162054454076442D+04
 0.162054454076442D+04 0.000000000000000D+00 0.000000000000000D+00 -.162054454076442D+04
 0.724767479289246D+03 -.421931337158501D+03 -.536359200800717D+03 -.209656036105198D+03
 0.124564873742209D+04 0.412780905413728D+03 0.506281805576387D+03 -.106062784920507D+04
 0.127067286481751D+04 0.915043174477234D+01 0.300773952243296D+02 0.127028388531027D+04
 0.000000000000000D+00 0.000000000000000D+00 0.000000000000000D+00 -.000000000000000D+00
 0.171823915665867D+04 0.000000000000000D+00 0.000000000000000D+00 0.171823915665867D+04
 0.226090253235733D+04 0.000000000000000D+00 0.000000000000000D+00 -.226090253235733D+04
 0.817833989466507D+03 -.445549721317360D+03 -.640903445680690D+03 -.209656036105198D+03
 0.117607651347935D+04 0.375702477536219D+03 0.342158120496232D+03 -.106062784920507D+04
 0.127862230836832D+04 -.298811872145910D+02 -.142691880738982D+03 0.127028388531027D+04
 0.706608877701821D+03 0.997284309957319D+02 0.441437205923440D+03 -.542663375698659D+03
0.343965780500D-02 0.000000000000D+00 0.000000000000D+00 0.263463253939D-04 0.000000000000D+00  6 2 2 25 2 2 21 0 0.18888228D+00 0.32908192D+00 0.47503080D+06 0.47503080D+06 0.47503080D+06 0.10700863D+01  1  2  2  1  6  1        2 0.589252522388D-02 0.100000000000D+01
0.273021541734D-02 0.000000000000D+00 -.132091916539D-04 0.263463253939D-04 0.000000000000D+00  6 2 2 25 2 2 21 2 0.18888228D+00 0.32908192D+00 0.47503080D+06 0.47503080D+06 0.47503080D+06 0.10700863D+01  1  2  3  1  6  1        2 0.535575581259D-02 0.100000000000D+01
-.250895986272D-02 0.000000000000D+00 0.000000000000D+00 0.263463253939D-04 0.000000000000D+00  6 2 2 25 2 2 21 2 0.18888228D+00 0.32908192D+00 0.47503080D+06 0.47503080D+06 0.47503080D+06 0.10700863D+01  1  2 15  1  6  1        2 -.492172752487D-02 0.100000000000D+01
-.772231662025D-04 0.000000000000D+00 0.000000000000D+00 0.263463253939D-04 0.000000000000D+00  6 2 2 25 2 2 21 2 0.18888228D+00 0.32908192D+00 0.47503080D+06 0.47503080D+06 0.47503080D+06 0.10700863D+01  1  2  4  1  6  1        2 -.151485636858D-03 0.100000000000D+01
  </mgrwgt>
  </event>
  <event>
  5     66 0.18411016E-05 0.12145772E+03 0.75467711E-02 0.95248653E-01
        2 -1    0    0  502    0 0.00000000E+00 0.00000000E+00 0.35069583E+03 0.35069597E+03 0.32000000E+00 0.0000E+00 0.9000E+01
        2 -1    0    0  501    0 0.00000000E+00 0.00000000E+00 -.31905056E+04 0.31905056E+04 0.32000000E+00 0.0000E+00 0.9000E+01
       25  1    1    2    0    0 -.33066205E+03 -.32460096E+03 -.83680291E+03 0.96465916E+03 0.12500000E+03 0.0000E+00 0.9000E+01
        2  1    1    2  501    0 0.78025875E+02 0.93062181E+02 -.21851046E+04 0.21884768E+04 0.32000000E+00 0.0000E+00 0.9000E+01
        2  1    1    2  502    0 0.25263617E+03 0.23153878E+03 0.18209772E+03 0.38806562E+03 0.32000000E+00 0.0000E+00 0.9000E+01
#aMCatNLO 1  0  0  2  1 0.35924250D+01 0.00000000D+00  -5  6  0 0.00000000D+00 0.00000000D+00 0.00000000D+00 0.00000000D+00 0.00000000D+00
  <mgrwgt>
 0.3548619330D-01   10    2    0
 0.105777941584339D+04 0.000000000000000D+00 0.000000000000000D+00 0.105777941584339D+04
 0.105777941584339D+04 0.000000000000000D+00 0.000000000000000D+00 -.105777941584339D+04
 0.491434955072117D+03 -.330661904046484D+03 -.324603073132340D+03 -.105730152710227D+03
 0.730141364884608D+03 0.780349170053199D+02 0.930727119363237D+02 -.719968356760455D+03
 0.893982511730045D+03 0.252626987041165D+03 0.231530361196017D+03 0.825698509470682D+03
 0.000000000000000D+00 0.000000000000000D+00 -.000000000000000D+00 -.000000000000000D+00
 0.105889987070365D+04 0.000000000000000D+00 0.000000000000000D+00 0.105889987070365D+04
 0.106066439206886D+04 0.000000000000000D+00 0.000000000000000D+00 -.106066439206886D+04
 0.491771523193460D+03 -.331445035951811D+03 -.324313974374820D+03 -.105730152710227D+03
 0.730072840224072D+03 0.768718445908168D+02 0.935020684567928D+02 -.719968356760455D+03
 0.893717518410902D+03 0.251203069520578D+03 0.232056010557527D+03 0.825698509470682D+03
 0.400238094408227D+01 0.337012184041577D+01 -.124410463950003D+01 -.176452136520927D+01
0.204226993411D-02 0.000000000000D+00 0.000000000000D+00 0.764382243836D-05 0.000000000000D+00  6 2 2 25 2 2 21 0 0.53953217D-01 0.49084703D+00 0.22281233D+06 0.22281233D+06 0.22281233D+06 0.10942407D+01  1  2  2  2  6  2        2 0.419384663278D-02 0.100000000000D+01
0.359010398875D-03 0.000000000000D+00 -.784285428899D-05 0.764382243836D-05 0.000000000000D+00  6 2 2 25 2 2 21 2 0.53953217D-01 0.49084703D+00 0.22281233D+06 0.22281233D+06 0.22281233D+06 0.10942407D+01  1  2  3  2  6  2        2 0.882738687411D-03 0.100000000000D+01
-.150106907375D-02 0.000000000000D+00 0.000000000000D+00 0.764382243836D-05 0.000000000000D+00  6 2 2 25 2 2 21 2 0.53953217D-01 0.49084703D+00 0.22281233D+06 0.22281233D+06 0.22281233D+06 0.10942407D+01  1  2 15  2  6  2        2 -.369084502295D-02 0.100000000000D+01
-.204506102119D-02 0.000000000000D+00 0.000000000000D+00 0.764382243836D-05 0.000000000000D+00  6 2 2 25 2 2 21 2 0.53953217D-01 0.49084703D+00 0.22281233D+06 0.22281233D+06 0.22281233D+06 0.10942407D+01  1  2  4  2  6  2        2 -.502841836107D-02 0.100000000000D+01
-.947741163619D+00 0.000000000000D+00 -.855617274887D-01 0.764382243836D-05 0.000000000000D+00  6 2 2 25 2 2 21 2 0.53953217D-01 0.49233738D+00 0.22281233D+06 0.22281233D+06 0.22281233D+06 0.10942407D+01  1  2  5  2  6  2        2 -.229640887089D+01 0.100000000000D+01
0.947996596379D+00 0.000000000000D+00 0.855613342866D-01 0.764382243836D-05 0.000000000000D+00  6 2 2 25 2 2 21 2 0.53953217D-01 0.49084703D+00 0.22281233D+06 0.22281233D+06 0.22281233D+06 0.10942407D+01  1  2  6  2  6  2        2 0.233094437872D+01 0.100000000000D+01
0.192038342751D-02 0.000000000000D+00 0.000000000000D+00 0.764382243836D-05 0.129888290232D-06  6 2 2 25 2 2 21 2 0.54010367D-01 0.49218576D+00 0.22415137D+06 0.22415137D+06 0.22415137D+06 0.10940429D+01  1  2 11  2  6  2        2 0.465093792088D-02 0.100000000000D+01
0.675259306881D-12 0.000000000000D+00 0.000000000000D+00 0.764382243836D-05 0.000000000000D+00  6 2 21 25 2 2 -2 2 0.53953217D-01 0.49250509D+00 0.22415137D+06 0.22415137D+06 0.22415137D+06 0.10940429D+01  1  2 12  5  6  2        2 0.865498347017D-13 0.100000000000D+01
-.535999269885D-03 0.000000000000D+00 -.484163420279D-04 0.764382243836D-05 0.000000000000D+00  6 2 21 25 2 2 -2 2 0.53953217D-01 0.49233738D+00 0.22281233D+06 0.22281233D+06 0.22281233D+06 0.10942407D+01  1  2  5  5  6  2        2 -.689855497911D-04 0.100000000000D+01
0.886218347946D-04 0.000000000000D+00 0.000000000000D+00 0.764382243836D-05 0.183786791748D-08  6 2 21 25 2 2 -2 2 0.54010367D-01 0.49218576D+00 0.22415137D+06 0.22415137D+06 0.22415137D+06 0.10940429D+01  1  2 11  5  6  2        2 0.114111674817D-04 0.100000000000D+01
  </mgrwgt>
  </event>
  <event>
  5     66 -.18411016E-05 0.34332714E+02 0.75467711E-02 0.94150718E-01
        2 -1    0    0  502    0 0.00000000E+00 0.00000000E+00 0.20063872E+04 0.20063872E+04 0.32000000E+00 0.0000E+00 0.9000E+01
        2 -1    0    0  501    0 -.00000000E+00 -.00000000E+00 -.23447792E+04 0.23447792E+04 0.32000000E+00 0.0000E+00 0.9000E+01
       25  1    1    2    0    0 -.42540774E+03 -.26066313E+03 -.44902480E+03 0.68276298E+03 0.12500000E+03 0.0000E+00 0.9000E+01
        2  1    1    2  501    0 0.33562041E+02 0.72284235E+01 -.17499011E+04 0.17502379E+04 0.32000000E+00 0.0000E+00 0.9000E+01
        2  1    1    2  502    0 0.39184570E+03 0.25343470E+03 0.18605340E+04 0.19181655E+04 0.32000000E+00 0.0000E+00 0.9000E+01
#aMCatNLO 1  0  0  5  1 0.17155240D+01 0.00000000D+00  -5  6  0 0.00000000D+00 0.00000000D+00 0.00000000D+00 0.00000000D+00 0.00000000D+00
  <mgrwgt>
 -.2988710314D-01    6    2    0
 0.216899400005592D+04 0.000000000000000D+00 0.000000000000000D+00 0.216899400005592D+04
 0.216899400005592D+04 -.000000000000000D+00 -.000000000000000D+00 -.216899400005592D+04
 0.649792144321289D+03 -.425407722908474D+03 -.260662688965777D+03 -.397099562695071D+03
 0.161907476847574D+04 0.335630967862494D+02 0.722867880586704D+01 -.161871071246582D+04
 0.206912108731482D+04 0.391844626122225D+03 0.253434010159911D+03 0.201581027516090D+04
 0.000000000000000D+00 0.000000000000000D+00 0.000000000000000D+00 0.000000000000000D+00
 0.216899400005592D+04 0.000000000000000D+00 0.000000000000000D+00 0.216899400005592D+04
 0.216899400005592D+04 -.000000000000000D+00 -.000000000000000D+00 -.216899400005592D+04
 0.648983670264597D+03 -.425208405931097D+03 -.260533776387929D+03 -.396074194004970D+03
 0.161653272253377D+04 0.340596501543077D+02 0.754983546576768D+01 -.161615623726119D+04
 0.183220946182169D+04 0.322845141997039D+03 0.273029300682937D+03 0.178275559941525D+04
 0.240262145491791D+03 0.683036137797506D+02 -.200453597607755D+02 0.229474831850917D+03
0.304759072811D-02 0.000000000000D+00 0.000000000000D+00 0.644571169930D-03 0.000000000000D+00  6 2 2 25 2 2 21 0 0.30867496D+00 0.36073526D+00 0.25772292D+06 0.25772292D+06 0.25772292D+06 0.10894665D+01  1  2  2  3  6  5        2 0.156686225740D-02 0.100000000000D+01
0.185823019355D-02 0.000000000000D+00 -.117035508450D-04 0.644571169930D-03 0.000000000000D+00  6 2 2 25 2 2 21 2 0.30867496D+00 0.36073526D+00 0.25772292D+06 0.25772292D+06 0.25772292D+06 0.10894665D+01  1  2  3  3  6  5        2 0.113396966866D-02 0.100000000000D+01
-.207887794778D-02 0.000000000000D+00 0.000000000000D+00 0.644571169930D-03 0.000000000000D+00  6 2 2 25 2 2 21 2 0.30867496D+00 0.36073526D+00 0.25772292D+06 0.25772292D+06 0.25772292D+06 0.10894665D+01  1  2 15  3  6  5        2 -.126861814312D-02 0.100000000000D+01
-.758025309684D-01 0.000000000000D+00 0.000000000000D+00 0.644571169930D-03 0.000000000000D+00  6 2 2 25 2 2 21 2 0.30867496D+00 0.36073526D+00 0.25772292D+06 0.25772292D+06 0.25772292D+06 0.10894665D+01  1  2  4  3  6  5        2 -.462578701091D-01 0.100000000000D+01
-.199332318266D+00 0.000000000000D+00 0.000000000000D+00 0.644571169930D-03 0.000000000000D+00  6 2 2 25 2 2 21 2 0.30867496D+00 0.36073526D+00 0.25772292D+06 0.25772292D+06 0.25772292D+06 0.10894665D+01  1  2  5  3  6  5        2 -.121640905245D+00 0.100000000000D+01
0.223812047615D+00 0.000000000000D+00 -.000000000000D+00 0.644571169930D-03 0.000000000000D+00  6 2 2 25 2 2 21 2 0.30867496D+00 0.36073526D+00 0.25772292D+06 0.25772292D+06 0.25772292D+06 0.10894665D+01  1  2  6  3  6  5        2 0.136579458431D+00 0.100000000000D+01
  </mgrwgt>
  </event>
  <event>
  5     66 -.18411016E-05 0.11538271E+02 0.75467711E-02 0.94818467E-01
        2 -1    0    0  502    0 0.00000000E+00 0.00000000E+00 0.22077648E+04 0.22077648E+04 0.32000000E+00 0.0000E+00 0.9000E+01
        2 -1    0    0  501    0 0.00000000E+00 0.00000000E+00 -.66615255E+03 0.66615262E+03 0.32000000E+00 0.0000E+00 0.9000E+01
       25  1    1    2    0    0 -.46299620E+03 0.87701495E+02 -.72246928E+02 0.49285053E+03 0.12500000E+03 0.0000E+00 0.9000E+01
        2  1    1    2  501    0 -.11509271E+02 0.81993010E+00 -.35434758E+03 0.35453553E+03 0.32000000E+00 0.0000E+00 0.9000E+01
        2  1    1    2  502    0 0.47450547E+03 -.88521425E+02 0.19682067E+04 0.20265314E+04 0.32000000E+00 0.0000E+00 0.9000E+01
#aMCatNLO 1  0  0  5  5 0.18196804D+02 0.00000000D+00  -5  6  0 0.00000000D+00 0.00000000D+00 0.00000000D+00 0.00000000D+00 0.00000000D+00
  <mgrwgt>
 -.2128305031D-01    6    2    0
 0.121272761356205D+04 0.000000000000000D+00 0.000000000000000D+00 0.121272761356205D+04
 0.121272761356205D+04 -.000000000000000D+00 -.000000000000000D+00 -.121272761356205D+04
 0.629897955337790D+03 -.462996382873373D+03 0.877015301999427D+02 -.398859906715992D+03
 0.645310436891024D+03 -.115091039233498D+02 0.819898704826059D+00 -.645207275418900D+03
 0.115024683489529D+04 0.474505486796722D+03 -.885214289047687D+02 0.104406718213489D+04
 0.000000000000000D+00 0.000000000000000D+00 -.000000000000000D+00 0.000000000000000D+00
 0.121272761356205D+04 0.000000000000000D+00 0.000000000000000D+00 0.121272761356205D+04
 0.121272761356205D+04 -.000000000000000D+00 -.000000000000000D+00 -.121272761356205D+04
 0.629688439921880D+03 -.462899123368573D+03 0.876833859411744D+02 -.398645904012256D+03
 0.645089440736505D+03 -.114094651422676D+02 0.801310579880923D+00 -.644988037529580D+03
 0.923026012981369D+03 0.378218531410918D+03 -.531879582915541D+02 0.840296854825976D+03
 0.227651333484348D+03 0.960900570999224D+02 -.352967382295012D+02 0.203337086715861D+03
0.254704424990D-04 0.000000000000D+00 0.000000000000D+00 0.469641154540D-04 0.000000000000D+00  6 2 2 25 2 2 21 0 0.33965613D+00 0.10248501D+00 0.24096162D+06 0.24096162D+06 0.24096162D+06 0.10916642D+01  1  2  2  3  6  5        2 0.974618675863D-04 0.100000000000D+01
0.241502321519D-04 0.000000000000D+00 -.978132057177D-07 0.469641154540D-04 0.000000000000D+00  6 2 2 25 2 2 21 2 0.33965613D+00 0.10248501D+00 0.24096162D+06 0.24096162D+06 0.24096162D+06 0.10916642D+01  1  2  3  3  6  5        2 0.110127989835D-03 0.100000000000D+01
-.180946708220D-04 0.000000000000D+00 0.000000000000D+00 0.469641154540D-04 0.000000000000D+00  6 2 2 25 2 2 21 2 0.33965613D+00 0.10248501D+00 0.24096162D+06 0.24096162D+06 0.24096162D+06 0.10916642D+01  1  2 15  3  6  5        2 -.825138951803D-04 0.100000000000D+01
-.599497117287D-02 0.000000000000D+00 0.000000000000D+00 0.469641154540D-04 0.000000000000D+00  6 2 2 25 2 2 21 2 0.33965613D+00 0.10248501D+00 0.24096162D+06 0.24096162D+06 0.24096162D+06 0.10916642D+01  1  2  4  3  6  5        2 -.273377961850D-01 0.100000000000D+01
-.599138425811D-02 0.000000000000D+00 0.000000000000D+00 0.469641154540D-04 0.000000000000D+00  6 2 2 25 2 2 21 2 0.33965613D+00 0.10248501D+00 0.24096162D+06 0.24096162D+06 0.24096162D+06 0.10916642D+01  1  2  5  3  6  5        2 -.273214394184D-01 0.100000000000D+01
0.729171585615D-02 0.000000000000D+00 -.000000000000D+00 0.469641154540D-04 0.000000000000D+00  6 2 2 25 2 2 21 2 0.33965613D+00 0.10248501D+00 0.24096162D+06 0.24096162D+06 0.24096162D+06 0.10916642D+01  1  2  6  3  6  5        2 0.332511093325D-01 0.100000000000D+01
  </mgrwgt>
  </event>
  <event>
  5     66 0.18411016E-05 0.14756179E+03 0.75467711E-02 0.90294034E-01
        2 -1    0    0  502    0 0.00000000E+00 0.00000000E+00 0.12932194E+04 0.12932195E+04 0.32000000E+00 0.0000E+00 0.9000E+01
        2 -1    0    0  501    0 0.00000000E+00 0.00000000E+00 -.77990935E+03 0.77990941E+03 0.32000000E+00 0.0000E+00 0.9000E+01
       25  1    1    2    0    0 -.63445099E+03 -.26249503E+03 0.70412064E+03 0.99138417E+03 0.12500000E+03 0.0000E+00 0.9000E+01
        2  1    1    2  501    0 0.53181868E+03 0.36872361E+03 -.44666111E+03 0.78631702E+03 0.32000000E+00 0.0000E+00 0.9000E+01
        2  1    1    2  502    0 0.10263232E+03 -.10622858E+03 0.25585054E+03 0.29542766E+03 0.32000000E+00 0.0000E+00 0.9000E+01
#aMCatNLO 1  0  0  5  5 0.18196804D+02 0.00000000D+00  -5  6  0 0.00000000D+00 0.00000000D+00 0.00000000D+00 0.00000000D+00 0.00000000D+00
  <mgrwgt>
 0.7689806304D-04    1    2    0
 0.100428781388029D+04 0.000000000000000D+00 0.000000000000000D+00 0.100428781388029D+04
 0.100428781388029D+04 -.000000000000000D+00 -.000000000000000D+00 -.100428781388029D+04
 0.843458427453268D+03 -.634452388592756D+03 -.262638505163436D+03 0.473590858290574D+03
 0.925818504056691D+03 0.531922249685189D+03 0.368761326144109D+03 -.661977119758723D+03
 0.239298696250620D+03 0.102530138907567D+03 -.106122820980673D+03 0.188386261468149D+03
 0.000000000000000D+00 0.000000000000000D+00 -.000000000000000D+00 0.000000000000000D+00
 0.100428781388029D+04 0.000000000000000D+00 0.000000000000000D+00 0.100428781388029D+04
 0.100428781388029D+04 -.000000000000000D+00 -.000000000000000D+00 -.100428781388029D+04
 0.844027700261708D+03 -.633510801322628D+03 -.263613085890333D+03 0.475320906718824D+03
 0.924631956808034D+03 0.532954768157095D+03 0.367692627963058D+03 -.660079996660171D+03
 0.234098335447945D+03 0.103469605883384D+03 -.990598393031596D+02 0.185157283289283D+03
 0.581763524289178D+01 -.291357271785128D+01 -.501970276956597D+01 -.398193347936552D+00
0.705307946827D-05 0.000000000000D+00 0.000000000000D+00 0.111850844014D-07 0.000000000000D+00  6 2 2 25 2 2 21 2 0.19895684D+00 0.11998606D+00 0.55708057D+06 0.55708057D+06 0.55708057D+06 0.10652081D+01  1  2 14  3  6  5        2 0.768980630404D-04 0.100000000000D+01
  </mgrwgt>
  </event>
  <event>
  5     66 0.18411016E-05 0.37319412E+02 0.75467711E-02 0.94405428E-01
        2 -1    0    0  502    0 0.00000000E+00 0.00000000E+00 0.98237684E+03 0.98237689E+03 0.32000000E+00 0.0000E+00 0.9000E+01
        2 -1    0    0  501    0 0.00000000E+00 0.00000000E+00 -.99030193E+03 0.99030198E+03 0.32000000E+00 0.0000E+00 0.9000E+01
       25  1    1    2    0    0 0.64614096E+02 -.46307952E+03 -.52521989E+03 0.71421184E+03 0.12500000E+03 0.0000E+00 0.9000E+01
        2  1    1    2  501    0 -.90540597E+02 0.48992765E+03 -.20242819E+03 0.53777688E+03 0.32000000E+00 0.0000E+00 0.9000E+01
        2  1    1    2  502    0 0.25926502E+02 -.26848126E+02 0.71972299E+03 0.72069015E+03 0.32000000E+00 0.0000E+00 0.9000E+01
#aMCatNLO 1  0  0  2  4 0.23748792D+03 0.00000000D+00  -5  6  0 0.00000000D+00 0.00000000D+00 0.00000000D+00 0.00000000D+00 0.00000000D+00
  <mgrwgt>
 0.8763565498D-02    3    2    0
 0.986331476102115D+03 0.000000000000000D+00 0.000000000000000D+00 0.986331476102115D+03
 0.986331476102115D+03 0.000000000000000D+00 0.000000000000000D+00 -.986331476102115D+03
 0.712136969794745D+03 0.646251244119091D+02 -.463144872477023D+03 -.522335604895387D+03
 0.537007949336744D+03 -.905491423526263D+02 0.489990426631869D+03 -.200219310455257D+03
 0.723518033072740D+03 0.259240179407172D+02 -.268455541548459D+02 0.722554915350643D+03
 0.000000000000000D+00 -.000000000000000D+00 -.000000000000000D+00 0.000000000000000D+00
 0.636756100014775D+04 0.000000000000000D+00 0.000000000000000D+00 0.636756100014775D+04
 0.111158234141094D+04 0.000000000000000D+00 0.000000000000000D+00 -.111158234141094D+04
 0.613963824244456D+03 0.199270047071701D+03 -.220869965544185D+03 -.522335604895387D+03
 0.754063706141940D+03 0.405391157809691D+02 0.725865607900688D+03 -.200219310455257D+03
 0.784870944398865D+03 0.179077472131729D+03 0.248732894163803D+03 0.722554915350643D+03
 0.532624486677343D+04 -.418886634984398D+03 -.753728536520306D+03 0.525597865873681D+04
0.108234907208D-02 0.000000000000D+00 0.000000000000D+00 0.130984259764D-05 0.000000000000D+00  6 2 2 25 2 2 21 0 0.15113491D+00 0.15235415D+00 0.25992481D+06 0.25992481D+06 0.25992481D+06 0.10891894D+01  1  2  2  2  6  2        2 0.119519258852D-01 0.100000000000D+01
0.582098648663D-03 0.000000000000D+00 -.415650542585D-05 0.130984259764D-05 0.000000000000D+00  6 2 2 25 2 2 21 2 0.15113491D+00 0.15235415D+00 0.25992481D+06 0.25992481D+06 0.25992481D+06 0.10891894D+01  1  2  3  2  6  2        2 0.762559898475D-02 0.100000000000D+01
-.825481532645D-03 0.000000000000D+00 0.000000000000D+00 0.130984259764D-05 0.000000000000D+00  6 2 2 25 2 2 21 2 0.15113491D+00 0.15235415D+00 0.25992481D+06 0.25992481D+06 0.25992481D+06 0.10891894D+01  1  2 15  2  6  2        2 -.108139593722D-01 0.100000000000D+01
  </mgrwgt>
  </event>
  <event>
  5     66 0.18411016E-05 0.19756280E+03 0.75467711E-02 0.93601728E-01
        2 -1    0    0  502    0 0.00000000E+00 0.00000000E+00 0.13859742E+04 0.13859742E+04 0.32000000E+00 0.0000E+00 0.9000E+01
        2 -1    0    0  501    0 -.00000000E+00 -.00000000E+00 -.14057110E+04 0.14057111E+04 0.32000000E+00 0.0000E+00 0.9000E+01
       25  1    1    2    0    0 -.42628334E+03 -.33167862E+03 -.52802040E+03 0.76561004E+03 0.12500000E+03 0.0000E+00 0.9000E+01
        2  1    1    2  501    0 0.19452498E+03 0.17265198E+03 -.72026337E+03 0.76578594E+03 0.32000000E+00 0.0000E+00 0.9000E+01
        2  1    1    2  502    0 0.23175836E+03 0.15902665E+03 0.12285469E+04 0.12602893E+04 0.32000000E+00 0.0000E+00 0.9000E+01
#aMCatNLO 1  0  0  5  5 0.18196804D+02 0.00000000D+00  -5  6  0 0.00000000D+00 0.00000000D+00 0.00000000D+00 0.00000000D+00 0.00000000D+00
  <mgrwgt>
 0.1261242590D-02    1    2    0
 0.139580773505652D+04 0.000000000000000D+00 0.000000000000000D+00 0.139580773505652D+04
 0.139580773505652D+04 -.000000000000000D+00 -.000000000000000D+00 -.139580773505652D+04
 0.761877587138787D+03 -.426295672733888D+03 -.331689579233445D+03 -.522576769691040D+03
 0.760746673737339D+03 0.194540124508107D+03 0.172664863095731D+03 -.714896136939435D+03
 0.126899120923692D+04 0.231755548225781D+03 0.159024716137714D+03 0.123747290663047D+04
 0.000000000000000D+00 0.000000000000000D+00 0.000000000000000D+00 -.000000000000000D+00
 0.139580773505652D+04 0.000000000000000D+00 0.000000000000000D+00 0.139580773505652D+04
 0.139580773505652D+04 -.000000000000000D+00 -.000000000000000D+00 -.139580773505652D+04
 0.758018184160407D+03 -.425440938033149D+03 -.331103082192927D+03 -.518012861544634D+03
 0.756819776099022D+03 0.195393549282258D+03 0.173250461298204D+03 -.710339223226069D+03
 0.126540732832160D+04 0.222173821010142D+03 0.155055178859192D+03 0.123606326348480D+04
 0.113701815320213D+02 0.787356774074884D+01 0.279744203553013D+01 -.771117871410107D+01
0.294369177779D-03 0.000000000000D+00 0.000000000000D+00 0.236951886111D-05 0.000000000000D+00  6 2 2 25 2 2 21 2 0.21322680D+00 0.21626324D+00 0.30008069D+06 0.30008069D+06 0.30008069D+06 0.10845432D+01  1  2 14  3  6  5        2 0.126124259005D-02 0.100000000000D+01
  </mgrwgt>
  </event>
  <event>
  5     66 0.18411016E-05 0.97797562E+02 0.75467711E-02 0.92894051E-01
        2 -1    0    0  502    0 0.00000000E+00 0.00000000E+00 0.82006132E+03 0.82006138E+03 0.32000000E+00 0.0000E+00 0.9000E+01
        2 -1    0    0  501    0 0.00000000E+00 0.00000000E+00 -.17643680E+04 0.17643680E+04 0.32000000E+00 0.0000E+00 0.9000E+01
       25  1    1    2    0    0 0.36632798E+03 -.36961264E+03 -.11409424E+04 0.12602318E+04 0.12500000E+03 0.0000E+00 0.9000E+01
        2  1    1    2  501    0 -.26969457E+03 0.38468805E+03 -.46166195E+03 0.65867437E+03 0.32000000E+00 0.0000E+00 0.9000E+01
        2  1    1    2  502    0 -.96633407E+02 -.15075414E+02 0.65829765E+03 0.66552324E+03 0.32000000E+00 0.0000E+00 0.9000E+01
#aMCatNLO 1  0  0  2  1 0.50636069D+02 0.00000000D+00  -5  6  0 0.00000000D+00 0.00000000D+00 0.00000000D+00 0.00000000D+00 0.00000000D+00
  <mgrwgt>
 0.1731592740D-02    4    2    0
 0.120286744014103D+04 0.000000000000000D+00 0.000000000000000D+00 0.120286744014103D+04
 0.120286744014103D+04 0.000000000000000D+00 0.000000000000000D+00 -.120286744014103D+04
 0.906002424471538D+03 0.366360723191652D+03 -.369652384629521D+03 -.730994068504323D+03
 0.526424896867681D+03 -.269731965489629D+03 0.384727073084722D+03 -.237387695702438D+03
 0.973307558942833D+03 -.966287577020237D+02 -.150746884552005D+02 0.968381764206761D+03
 0.000000000000000D+00 0.000000000000000D+00 0.000000000000000D+00 0.000000000000000D+00
 0.124096250473013D+04 0.000000000000000D+00 0.000000000000000D+00 0.124096250473013D+04
 0.122007876513156D+04 0.000000000000000D+00 0.000000000000000D+00 -.122007876513156D+04
 0.899592804253525D+03 0.347528781692298D+03 -.372174194661162D+03 -.730994068504323D+03
 0.531093812023222D+03 -.280761641545191D+03 0.383250074670957D+03 -.237387695702438D+03
 0.975581100691312D+03 -.116955216613249D+03 -.177966312772833D+02 0.968381764206761D+03
 0.547735528936329D+02 0.501880764661415D+02 0.672075126748786D+01 0.208837395985705D+02
0.719468692281D-03 0.000000000000D+00 0.000000000000D+00 0.609964650215D-06 0.000000000000D+00  6 2 2 25 2 2 21 0 0.12616329D+00 0.27144124D+00 0.30410003D+06 0.30410003D+06 0.30410003D+06 0.10841160D+01  1  2  2  2  6  2        2 0.366512943331D-02 0.100000000000D+01
0.187648430739D-03 0.000000000000D+00 -.276294921882D-05 0.609964650215D-06 0.000000000000D+00  6 2 2 25 2 2 21 2 0.12616329D+00 0.27144124D+00 0.30410003D+06 0.30410003D+06 0.30410003D+06 0.10841160D+01  1  2  3  2  6  2        2 0.112350199104D-02 0.100000000000D+01
-.472686497867D-03 0.000000000000D+00 0.000000000000D+00 0.609964650215D-06 0.000000000000D+00  6 2 2 25 2 2 21 2 0.12616329D+00 0.27144124D+00 0.30410003D+06 0.30410003D+06 0.30410003D+06 0.10841160D+01  1  2 15  2  6  2        2 -.283010211915D-02 0.100000000000D+01
-.379031729652D-04 0.000000000000D+00 0.000000000000D+00 0.609964650215D-06 0.000000000000D+00  6 2 2 25 2 2 21 2 0.12616329D+00 0.27144124D+00 0.30410003D+06 0.30410003D+06 0.30410003D+06 0.10841160D+01  1  2  4  2  6  2        2 -.226936564965D-03 0.100000000000D+01
  </mgrwgt>
  </event>
  <event>
  5     66 0.18411016E-05 0.59342170E+02 0.75467711E-02 0.91770070E-01
        2 -1    0    0  502    0 0.00000000E+00 0.00000000E+00 0.33328880E+03 0.33328895E+03 0.32000000E+00 0.0000E+00 0.9000E+01
        2 -1    0    0  501    0 0.00000000E+00 0.00000000E+00 -.36164801E+04 0.36164802E+04 0.32000000E+00 0.0000E+00 0.9000E+01
       25  1    1    2    0    0 0.41486398E+03 0.26695523E+03 -.66651179E+03 0.83859417E+03 0.12500000E+03 0.0000E+00 0.9000E+01
        2  1    1    2  501    0 -.41384615E+01 0.59191350E+02 -.25850741E+04 0.25857551E+04 0.32000000E+00 0.0000E+00 0.9000E+01
        2  1    1    2  502    0 -.41072552E+03 -.32614658E+03 -.31605399E+02 0.52541988E+03 0.32000000E+00 0.0000E+00 0.9000E+01
#aMCatNLO 1  0  0  2  1 0.17233731D+03 0.00000000D+00  -5  6  0 0.00000000D+00 0.00000000D+00 0.00000000D+00 0.00000000D+00 0.00000000D+00
  <mgrwgt>
 0.8502404617D-02    7    2    0
 0.109787643189089D+04 0.000000000000000D+00 0.000000000000000D+00 0.109787643189089D+04
 0.109787643189089D+04 0.000000000000000D+00 0.000000000000000D+00 -.109787643189089D+04
 0.511866136143517D+03 0.414845318600839D+03 0.266933524745716D+03 0.550617501746024D+02
 0.786050121443696D+03 -.413921472245966D+01 0.591976352639592D+02 -.783806927949917D+03
 0.897836606194573D+03 -.410706103878379D+03 -.326131160009675D+03 0.728745177775315D+03
 0.000000000000000D+00 0.000000000000000D+00 0.000000000000000D+00 -.000000000000000D+00
 0.114561842189729D+04 0.000000000000000D+00 0.000000000000000D+00 0.114561842189729D+04
 0.126861288526251D+04 0.000000000000000D+00 0.000000000000000D+00 -.126861288526251D+04
 0.474938036165210D+03 0.384715231167708D+03 0.242700500147308D+03 0.550617501746024D+02
 0.785808741661626D+03 -.521327744447505D+02 0.205973784310967D+02 -.783806927949917D+03
 0.941758792728673D+03 -.466874462065865D+03 -.371306243176306D+03 0.728745177775315D+03
 0.211725736604293D+03 0.134292005342908D+03 0.108008364597902D+03 -.122994463365217D+03
0.246616844468D-02 0.000000000000D+00 0.000000000000D+00 0.718070392872D-05 0.000000000000D+00  6 2 2 25 2 2 21 0 0.51275213D-01 0.55638157D+00 0.29848834D+06 0.29848834D+06 0.29848834D+06 0.10847142D+01  1  2  2  2  6  2        2 0.265462859460D-02 0.100000000000D+01
0.997826678098D-03 0.000000000000D+00 -.947073618464D-05 0.718070392872D-05 0.000000000000D+00  6 2 2 25 2 2 21 2 0.51275213D-01 0.55638157D+00 0.29848834D+06 0.29848834D+06 0.29848834D+06 0.10847142D+01  1  2  3  2  6  2        2 0.126376640758D-02 0.100000000000D+01
-.171253455975D-02 0.000000000000D+00 0.000000000000D+00 0.718070392872D-05 0.000000000000D+00  6 2 2 25 2 2 21 2 0.51275213D-01 0.55638157D+00 0.29848834D+06 0.29848834D+06 0.29848834D+06 0.10847142D+01  1  2 15  2  6  2        2 -.216895749125D-02 0.100000000000D+01
-.474501655982D-04 0.000000000000D+00 0.000000000000D+00 0.718070392872D-05 0.000000000000D+00  6 2 2 25 2 2 21 2 0.51275213D-01 0.55638157D+00 0.29848834D+06 0.29848834D+06 0.29848834D+06 0.10847142D+01  1  2  4  2  6  2        2 -.600965344315D-04 0.100000000000D+01
-.753995471480D-02 0.000000000000D+00 -.195111758775D-02 0.718070392872D-05 0.000000000000D+00  6 2 2 25 2 2 21 2 0.51275213D-01 0.64792680D+00 0.29848834D+06 0.29848834D+06 0.29848834D+06 0.10847142D+01  1  2  5  2  6  2        2 -.317664948519D-02 0.100000000000D+01
0.788834876107D-02 0.000000000000D+00 0.200219325073D-02 0.718070392872D-05 0.000000000000D+00  6 2 2 25 2 2 21 2 0.51275213D-01 0.55638157D+00 0.29848834D+06 0.29848834D+06 0.29848834D+06 0.10847142D+01  1  2  6  2  6  2        2 0.999074327667D-02 0.100000000000D+01
-.160223553311D-03 0.000000000000D+00 -.450633353719D-04 0.718070392872D-05 0.000000000000D+00  6 2 21 25 2 2 -2 2 0.51275213D-01 0.64792680D+00 0.29848834D+06 0.29848834D+06 0.29848834D+06 0.10847142D+01  1  2  5  5  6  2        2 -.103015130275D-05 0.100000000000D+01
  </mgrwgt>
  </event>
  <event>
  5     66 0.18411016E-05 0.16567034E+03 0.75467711E-02 0.93350767E-01
        2 -1    0    0  502    0 0.00000000E+00 0.00000000E+00 0.23041124E+04 0.23041124E+04 0.32000000E+00 0.0000E+00 0.9000E+01
        2 -1    0    0  501    0 0.00000000E+00 0.00000000E+00 -.18397007E+04 0.18397007E+04 0.32000000E+00 0.0000E+00 0.9000E+01
       25  1    1    2    0    0 -.27372047E+03 0.38140432E+03 0.36013926E+03 0.60474576E+03 0.12500000E+03 0.0000E+00 0.9000E+01
        2  1    1    2  501    0 0.38896432E+03 -.26237628E+03 -.16814463E+04 0.17456793E+04 0.32000000E+00 0.0000E+00 0.9000E+01
        2  1    1    2  502    0 -.11524385E+03 -.11902804E+03 0.17857188E+04 0.17933880E+04 0.32000000E+00 0.0000E+00 0.9000E+01
#aMCatNLO 1  0  0  2  1 0.17233731D+03 0.00000000D+00  -5  6  0 0.00000000D+00 0.00000000D+00 0.00000000D+00 0.00000000D+00 0.00000000D+00
  <mgrwgt>
 0.6616100029D-03    1    2    0
 0.205885336605915D+04 0.000000000000000D+00 0.000000000000000D+00 0.205885336605915D+04
 0.205885336605915D+04 0.000000000000000D+00 0.000000000000000D+00 -.205885336605915D+04
 0.568018275723342D+03 -.273751343901039D+03 0.381418749854246D+03 0.294278270566682D+03
 0.194639397678848D+04 0.388990668070135D+03 -.262395385699736D+03 -.188899032146709D+04
 0.160329447960647D+04 -.115239324169096D+03 -.119023364154510D+03 0.159471205090040D+04
 0.000000000000000D+00 0.000000000000000D+00 0.000000000000000D+00 -.000000000000000D+00
 0.215106360964977D+04 0.000000000000000D+00 0.000000000000000D+00 0.215106360964977D+04
 0.280240004671264D+04 0.000000000000000D+00 0.000000000000000D+00 -.280240004671264D+04
 0.568901451600475D+03 -.325069536692173D+03 0.340226332637769D+03 0.294278270566682D+03
 0.194332269963164D+04 0.213416944168551D+03 -.403326032198538D+03 -.188899032146709D+04
 0.163316527941815D+04 -.261326388965946D+03 -.236285469379737D+03 0.159471205090040D+04
 0.808074225712146D+03 0.372978981489567D+03 0.299385168940506D+03 -.651336437062870D+03
0.860184769776D-03 0.000000000000D+00 0.000000000000D+00 0.266272657059D-04 0.000000000000D+00  6 2 2 25 2 2 21 2 0.35447883D+00 0.28303087D+00 0.31401036D+06 0.31401036D+06 0.31401036D+06 0.10830883D+01  1  2 14  2  6  2        2 0.661610002913D-03 0.100000000000D+01
  </mgrwgt>
  </event>
  <event>
  5     66 0.18411016E-05 0.15580823E+03 0.75467711E-02 0.93680342E-01
        2 -1    0    0  502    0 0.00000000E+00 0.00000000E+00 0.14473481E+04 0.14473482E+04 0.32000000E+00 0.0000E+00 0.9000E+01
        2 -1    0    0  501    0 -.00000000E+00 -.00000000E+00 -.20853896E+04 0.20853896E+04 0.32000000E+00 0.0000E+00 0.9000E+01
       25  1    1    2    0    0 -.32036682E+03 0.42064028E+03 -.26135369E+03 0.60291284E+03 0.12500000E+03 0.0000E+00 0.9000E+01
        2  1    1    2  501    0 0.19085936E+03 -.33400866E+03 -.16259727E+04 0.16708610E+04 0.32000000E+00 0.0000E+00 0.9000E+01
        2  1    1    2  502    0 0.12950746E+03 -.86631623E+02 0.12492850E+04 0.12589639E+04 0.32000000E+00 0.0000E+00 0.9000E+01
#aMCatNLO 1  0  0  5  1 0.23958459D+02 0.00000000D+00  -5  6  0 0.00000000D+00 0.00000000D+00 0.00000000D+00 0.00000000D+00 0.00000000D+00
  <mgrwgt>
 0.1154457042D-01    8    2    0
 0.173732116604750D+04 0.000000000000000D+00 0.000000000000000D+00 0.173732116604750D+04
 0.173732116604750D+04 -.000000000000000D+00 -.000000000000000D+00 -.173732116604750D+04
 0.565013392835339D+03 -.320378978287063D+03 0.420663014400314D+03 -.154967973048241D+03
 0.140024329354170D+04 0.190874226182705D+03 -.334033203554680D+03 -.134635438492644D+04
 0.150938564571796D+04 0.129504752104359D+03 -.866298108456337D+02 0.150132235797468D+04
 0.000000000000000D+00 0.000000000000000D+00 -.000000000000000D+00 0.000000000000000D+00
 0.173732116604750D+04 0.000000000000000D+00 0.000000000000000D+00 0.173732116604750D+04
 0.173732116604750D+04 -.000000000000000D+00 -.000000000000000D+00 -.173732116604750D+04
 0.564936237460680D+03 -.320360793089820D+03 0.420650849748656D+03 -.154757155740292D+03
 0.139975434313581D+04 0.190919288819072D+03 -.334063347372581D+03 -.134583198291117D+04
 0.124171478871878D+04 0.101016103573328D+03 -.480066837322102D+02 0.123666758737295D+04
 0.268236962779731D+03 0.284254006974204D+02 -.385808186438653D+02 0.263921551278510D+03
0.563094014252D-04 0.000000000000D+00 0.000000000000D+00 0.285648020956D-04 0.000000000000D+00  6 2 2 25 2 2 21 0 0.22266895D+00 0.32082917D+00 0.29369711D+06 0.29369711D+06 0.29369711D+06 0.10852348D+01  1  2  2  3  6  5        2 0.806141559093D-04 0.100000000000D+01
0.110329372219D-04 0.000000000000D+00 -.216242928079D-06 0.285648020956D-04 0.000000000000D+00  6 2 2 25 2 2 21 2 0.22266895D+00 0.32082917D+00 0.29369711D+06 0.29369711D+06 0.29369711D+06 0.10852348D+01  1  2  3  3  6  5        2 0.186023989404D-04 0.100000000000D+01
-.392537261511D-04 0.000000000000D+00 0.000000000000D+00 0.285648020956D-04 0.000000000000D+00  6 2 2 25 2 2 21 2 0.22266895D+00 0.32082917D+00 0.29369711D+06 0.29369711D+06 0.29369711D+06 0.10852348D+01  1  2 15  3  6  5        2 -.661848661940D-04 0.100000000000D+01
0.474987884845D-10 0.000000000000D+00 0.000000000000D+00 0.285648020956D-04 0.000000000000D+00  6 2 2 25 2 2 21 2 0.22266895D+00 0.32082917D+00 0.29586068D+06 0.29586068D+06 0.29586068D+06 0.10849986D+01  1  2 12  3  6  5        2 0.800032495816D-10 0.100000000000D+01
0.804472037392D-02 0.000000000000D+00 0.000000000000D+00 0.285648020956D-04 0.000000000000D+00  6 2 2 25 2 2 21 2 0.22266895D+00 0.32082917D+00 0.29586068D+06 0.29586068D+06 0.29586068D+06 0.10849986D+01  1  2 12  3  6  5        2 0.135498986905D-01 0.100000000000D+01
-.365499422495D-02 0.000000000000D+00 0.000000000000D+00 0.285648020956D-04 0.000000000000D+00  6 2 2 25 2 2 21 2 0.22266895D+00 0.32082917D+00 0.29369711D+06 0.29369711D+06 0.29369711D+06 0.10852348D+01  1  2  4  3  6  5        2 -.616260741175D-02 0.100000000000D+01
-.126603638818D-01 0.000000000000D+00 0.000000000000D+00 0.285648020956D-04 0.000000000000D+00  6 2 2 25 2 2 21 2 0.22266895D+00 0.32082917D+00 0.29369711D+06 0.29369711D+06 0.29369711D+06 0.10852348D+01  1  2  5  3  6  5        2 -.213463681450D-01 0.100000000000D+01
0.151064227182D-01 0.000000000000D+00 -.000000000000D+00 0.285648020956D-04 0.000000000000D+00  6 2 2 25 2 2 21 2 0.22266895D+00 0.32082917D+00 0.29369711D+06 0.29369711D+06 0.29369711D+06 0.10852348D+01  1  2  6  3  6  5        2 0.254706155136D-01 0.100000000000D+01
  </mgrwgt>
  </event>
  <event>
  5     66 0.18411016E-05 0.20783819E+03 0.75467711E-02 0.93716423E-01
        2 -1    0    0  502    0 0.00000000E+00 0.00000000E+00 0.70138795E+03 0.70138802E+03 0.32000000E+00 0.0000E+00 0.9000E+01
        2 -1    0    0  501    0 0.00000000E+00 0.00000000E+00 -.58253326E+03 0.58253335E+03 0.32000000E+00 0.0000E+00 0.9000E+01
       25  1    1    2    0    0 -.24919603E+03 0.38194494E+03 0.10468053E+03 0.48431768E+03 0.12500000E+03 0.0000E+00 0.9000E+01
        2  1    1    2  501    0 0.42156641E+02 -.40127096E+03 -.24135600E+03 0.47015783E+03 0.32000000E+00 0.0000E+00 0.9000E+01
        2  1    1    2  502    0 0.20703939E+03 0.19326021E+02 0.25553016E+03 0.32944586E+03 0.32000000E+00 0.0000E+00 0.9000E+01
#aMCatNLO 1  0  0  2  4 0.50945019D+02 0.00000000D+00  -5  6  0 0.00000000D+00 0.00000000D+00 0.00000000D+00 0.00000000D+00 0.00000000D+00
  <mgrwgt>
 0.2162069438D-02    1    2    0
 0.639204122201914D+03 0.000000000000000D+00 0.000000000000000D+00 0.639204122201914D+03
 0.639204122201914D+03 0.000000000000000D+00 0.000000000000000D+00 -.639204122201914D+03
 0.476742493144193D+03 -.249146371122900D+03 0.382044326988672D+03 0.602214475199928D+02
 0.494705692580476D+03 0.422077721492394D+02 -.401360939314309D+03 -.286114701884510D+03
 0.306960058679159D+03 0.206938598973660D+03 0.193166123256365D+02 0.225893254364517D+03
 0.000000000000000D+00 -.000000000000000D+00 -.000000000000000D+00 -.000000000000000D+00
 0.152297848648273D+04 0.000000000000000D+00 0.000000000000000D+00 0.152297848648273D+04
 0.208429083483929D+04 0.000000000000000D+00 0.000000000000000D+00 -.208429083483929D+04
 0.100940698705697D+04 0.673205573892267D+02 0.997556407092267D+03 0.602214475199928D+02
 0.367136678577248D+03 0.225732115894913D+03 -.444154249768814D+02 -.286114701884510D+03
 0.609951764410462D+03 0.402189663712013D+03 0.399070002560029D+03 0.225893254364517D+03
 0.162077389127734D+04 -.695242336996153D+03 -.135221098467541D+04 -.561312348356560D+03
0.547735378490D-04 0.000000000000D+00 0.000000000000D+00 0.109990176785D-07 0.000000000000D+00  6 2 2 25 2 2 21 2 0.10790585D+00 0.89620514D-01 0.29394614D+06 0.29394614D+06 0.29394614D+06 0.10852075D+01  1  2 14  2  6  2        2 0.216206943838D-02 0.100000000000D+01
  </mgrwgt>
  </event>
  <event>
  6     66 -.18411016E-05 0.10600564E+03 0.75467711E-02 0.94407620E-01
        2 -1    0    0  502    0 0.00000000E+00 0.00000000E+00 0.37067484E+04 0.37067484E+04 0.32000000E+00 0.0000E+00 0.9000E+01
        2 -1    0    0  501    0 0.00000000E+00 0.00000000E+00 -.17323988E+03 0.17324018E+03 0.32000000E+00 0.0000E+00 0.9000E+01
       25  1    1    2    0    0 0.47185534E+03 0.69925663E+02 0.22655630E+04 0.23186069E+04 0.12500000E+03 0.0000E+00 0.9000E+01
        2  1    1    2  501    0 -.32749087E+03 -.13048981E+03 0.81637113E+02 0.36185989E+03 0.32000000E+00 0.0000E+00 0.9000E+01
        2  1    1    2  503    0 -.10276745E+03 0.77865513E+02 0.97306782E+03 0.98157285E+03 0.32000000E+00 0.0000E+00 0.9000E+01
       21  1    1    2  502  503 -.41597016E+02 -.17301370E+02 0.21324055E+03 0.21794895E+03 0.75000000E+00 0.0000E+00 0.9000E+01
#aMCatNLO 2  0  0  5  1 0.32573649D+02 0.00000000D+00  -5  6  0 0.00000000D+00 0.00000000D+00 0.00000000D+00 0.00000000D+00 0.00000000D+00
  <mgrwgt>
 -.4035933194D-03    4    2    0
 0.801347144000200D+03 0.000000000000000D+00 0.000000000000000D+00 0.801347144000200D+03
 0.801347144000200D+03 -.000000000000000D+00 -.000000000000000D+00 -.801347144000200D+03
 0.618017741764562D+03 0.474274467392471D+03 0.690901871756397D+02 0.369609530114406D+03
 0.699090595235388D+03 -.324908323350282D+03 -.131752646817645D+03 -.604816899417354D+03
 0.285585951000450D+03 -.149366144042189D+03 0.626624596420050D+02 0.235207369302948D+03
 0.000000000000000D+00 -.000000000000000D+00 0.000000000000000D+00 0.000000000000000D+00
 0.801347144000200D+03 0.000000000000000D+00 0.000000000000000D+00 0.801347144000200D+03
 0.801347144000200D+03 -.000000000000000D+00 -.000000000000000D+00 -.801347144000200D+03
 0.618593123227980D+03 0.471757346983902D+03 0.701461758471517D+02 0.373573248086204D+03
 0.696332166915384D+03 -.327748705246176D+03 -.130561042675617D+03 -.600344140494420D+03
 0.230242288864226D+03 -.102389999250492D+03 0.777103436794287D+02 0.191020685058313D+03
 0.575267089928104D+02 -.416186424872341D+02 -.172954768509632D+02 0.357502073499034D+02
-.157694752303D-07 0.000000000000D+00 0.000000000000D+00 0.116194391227D-06 0.000000000000D+00  6 2 2 25 2 2 21 2 0.57026900D+00 0.26652313D-01 0.25982385D+06 0.25982385D+06 0.25982385D+06 0.10892021D+01  1  2 13  3  6  5        2 -.364988408086D-07 0.100000000000D+01
-.266339006507D-03 0.000000000000D+00 0.000000000000D+00 0.116194391227D-06 0.000000000000D+00  6 2 2 25 2 2 21 2 0.57026900D+00 0.26652313D-01 0.25982385D+06 0.25982385D+06 0.25982385D+06 0.10892021D+01  1  2 13  3  6  5        2 -.616448224033D-03 0.100000000000D+01
-.201865749103D-04 0.000000000000D+00 0.000000000000D+00 0.116194391227D-06 0.000000000000D+00  6 2 2 25 2 2 21 2 0.57026900D+00 0.26652313D-01 0.25396362D+06 0.25396362D+06 0.25396362D+06 0.10899455D+01  1  2  8  3  6  5        2 -.468664200007D-04 0.100000000000D+01
0.112229442682D-03 0.000000000000D+00 0.000000000000D+00 0.116194391227D-06 0.152530371951D-09  6 2 2 25 2 2 21 2 0.57026900D+00 0.26652313D-01 0.25982385D+06 0.25982385D+06 0.25982385D+06 0.10892021D+01  1  2  1  3  6  5        2 0.259757823432D-03 0.100000000000D+01
  </mgrwgt>
  </event>
  <event>
  6     66 0.18411016E-05 0.59865658E+02 0.75467711E-02 0.91572854E-01
        2 -1    0    0  503    0 0.00000000E+00 0.00000000E+00 0.52234120E+03 0.52234130E+03 0.32000000E+00 0.0000E+00 0.9000E+01
        2 -1    0    0  501    0 0.00000000E+00 0.00000000E+00 -.24236873E+04 0.24236873E+04 0.32000000E+00 0.0000E+00 0.9000E+01
       25  1    1    2    0    0 -.28394042E+03 0.55175652E+03 -.63330466E+03 0.89540896E+03 0.12500000E+03 0.0000E+00 0.9000E+01
        2  1    1    2  501    0 0.22457299E+03 -.57930656E+03 -.15974125E+04 0.17139883E+04 0.32000000E+00 0.0000E+00 0.9000E+01
        2  1    1    2  502    0 0.50593890E+02 0.18562158E+02 0.21848097E+03 0.22502963E+03 0.32000000E+00 0.0000E+00 0.9000E+01
       21  1    1    2  503  502 0.87735304E+01 0.89878802E+01 0.11089012E+03 0.11160169E+03 0.75000000E+00 0.0000E+00 0.9000E+01
#aMCatNLO 2  0  0  1  5 0.12560128D+02 0.00000000D+00  -5  6  0 0.00000000D+00 0.00000000D+00 0.00000000D+00 0.00000000D+00 0.00000000D+00
  <mgrwgt>
 0.2574921948D-02    3    2    0
 0.998088626163213D+03 0.000000000000000D+00 0.000000000000000D+00 0.998088626163213D+03
 0.998088626163213D+03 0.000000000000000D+00 0.000000000000000D+00 -.998088626163213D+03
 0.634343328461351D+03 -.281183034249668D+03 0.554698637151007D+03 0.346143848576730D+01
 0.821898932863316D+03 0.228229427114687D+03 -.575686492907580D+03 -.540383425286648D+03
 0.539934991001759D+03 0.529536071349805D+02 0.209878557565734D+02 0.536921986800881D+03
 0.000000000000000D+00 0.000000000000000D+00 0.000000000000000D+00 0.000000000000000D+00
 0.126820434692710D+04 0.000000000000000D+00 0.000000000000000D+00 0.126820434692710D+04
 0.998254402572217D+03 0.000000000000000D+00 0.000000000000000D+00 -.998254402572217D+03
 0.633094175183925D+03 -.283968305795890D+03 0.551845317456654D+03 0.346143848576730D+01
 0.823504151149966D+03 0.224613553054792D+03 -.579390707917204D+03 -.540383425286648D+03
 0.539618440335527D+03 0.505812223457638D+02 0.185575102303593D+02 0.536921986800881D+03
 0.270241982829893D+03 0.877353039533439D+01 0.898788023019037D+01 0.269949944354879D+03
-.180312828330D-08 0.000000000000D+00 0.000000000000D+00 0.127778285478D-05 0.000000000000D+00  6 2 2 25 2 2 21 2 0.80367174D-01 0.37281286D+00 0.43621296D+06 0.43621296D+06 0.43621296D+06 0.10727248D+01  1  2 13  1  6  1        2 -.767690197192D-08 0.100000000000D+01
-.100036810374D-02 0.000000000000D+00 0.000000000000D+00 0.127778285478D-05 0.000000000000D+00  6 2 2 25 2 2 21 2 0.84080653D-01 0.37281286D+00 0.43621296D+06 0.43621296D+06 0.43621296D+06 0.10727248D+01  1  2 13  1  6  1        2 -.404279846835D-02 0.100000000000D+01
0.155502679516D-02 0.000000000000D+00 0.000000000000D+00 0.127778285478D-05 0.162171822216D-06  6 2 2 25 2 2 21 2 0.80360152D-01 0.37287478D+00 0.43621296D+06 0.43621296D+06 0.43621296D+06 0.10727248D+01  1  2  1  1  6  1        2 0.661772809359D-02 0.100000000000D+01
  </mgrwgt>
  </event>
  <event>
  5     66 0.18411016E-05 0.14373824E+02 0.75467711E-02 0.90873454E-01
        2 -1    0    0  502    0 0.00000000E+00 0.00000000E+00 0.46459893E+03 0.46459905E+03 0.32000000E+00 0.0000E+00 0.9000E+01
        2 -1    0    0  501    0 0.00000000E+00 0.00000000E+00 -.18759389E+04 0.18759389E+04 0.32000000E+00 0.0000E+00 0.9000E+01
       25  1    1    2    0    0 -.47798566E+03 0.18661051E+03 -.60153880E+03 0.80047968E+03 0.12500000E+03 0.0000E+00 0.9000E+01
        2  1    1    2  501    0 0.48660505E+03 -.17510509E+03 -.11178470E+04 0.12316770E+04 0.32000000E+00 0.0000E+00 0.9000E+01
        2  1    1    2  502    0 -.86193858E+01 -.11505419E+02 0.30804584E+03 0.30838127E+03 0.32000000E+00 0.0000E+00 0.9000E+01
#aMCatNLO 1  0  0  2  4 0.73997363D+01 0.00000000D+00  -5  6  0 0.00000000D+00 0.00000000D+00 0.00000000D+00 0.00000000D+00 0.00000000D+00
  <mgrwgt>
 0.9452803682D-02    4    2    0
 0.933573445854977D+03 0.000000000000000D+00 0.000000000000000D+00 0.933573445854977D+03
 0.933573445854977D+03 0.000000000000000D+00 0.000000000000000D+00 -.933573445854977D+03
 0.548796586798857D+03 -.478059595980852D+03 0.186636510079069D+03 -.148924576474823D+03
 0.699029556176747D+03 0.486677695992709D+03 -.175132807612537D+03 -.470229348647698D+03
 0.619320748734351D+03 -.861810001185731D+01 -.115037024665326D+02 0.619153925122521D+03
 0.000000000000000D+00 0.000000000000000D+00 -.000000000000000D+00 0.000000000000000D+00
 0.148399772875346D+04 0.000000000000000D+00 0.000000000000000D+00 0.148399772875346D+04
 0.981090592649344D+03 0.000000000000000D+00 0.000000000000000D+00 -.981090592649344D+03
 0.625772100152250D+03 -.539846804881296D+03 0.249705064246218D+03 -.148924576474823D+03
 0.636566062284377D+03 0.416419799284612D+03 -.103417900222172D+03 -.470229348647698D+03
 0.626028732810392D+03 -.741286737442462D+02 0.553654318007119D+02 0.619153925122521D+03
 0.576721426155789D+03 0.197555679340931D+03 -.201652595824758D+03 0.502907136104120D+03
0.875709663232D-03 0.000000000000D+00 0.000000000000D+00 0.522624446785D-05 0.000000000000D+00  6 2 2 25 2 2 21 0 0.71476770D-01 0.28860600D+00 0.28079791D+06 0.28079791D+06 0.28079791D+06 0.10866837D+01  1  2  2  2  6  2        2 0.766757746277D-02 0.100000000000D+01
0.850999804089D-03 0.000000000000D+00 -.336295568646D-05 0.522624446785D-05 0.000000000000D+00  6 2 2 25 2 2 21 2 0.71476770D-01 0.28860600D+00 0.28079791D+06 0.28079791D+06 0.28079791D+06 0.10866837D+01  1  2  3  2  6  2        2 0.879900909461D-02 0.100000000000D+01
-.677395003765D-03 0.000000000000D+00 0.000000000000D+00 0.522624446785D-05 0.000000000000D+00  6 2 2 25 2 2 21 2 0.71476770D-01 0.28860600D+00 0.28079791D+06 0.28079791D+06 0.28079791D+06 0.10866837D+01  1  2 15  2  6  2        2 -.700400255104D-02 0.100000000000D+01
-.945908144190D-06 0.000000000000D+00 0.000000000000D+00 0.522624446785D-05 0.000000000000D+00  6 2 2 25 2 2 21 2 0.71476770D-01 0.28860600D+00 0.28079791D+06 0.28079791D+06 0.28079791D+06 0.10866837D+01  1  2  4  2  6  2        2 -.978032465272D-05 0.100000000000D+01
  </mgrwgt>
  </event>
  <event>
  6     66 0.18411016E-05 0.11599666E+02 0.75467711E-02 0.94291210E-01
        2 -1    0    0  503    0 0.00000000E+00 0.00000000E+00 0.13358744E+04 0.13358744E+04 0.32000000E+00 0.0000E+00 0.9000E+01
        2 -1    0    0  501    0 0.00000000E+00 0.00000000E+00 -.11899353E+04 0.11899353E+04 0.32000000E+00 0.0000E+00 0.9000E+01
       25  1    1    2    0    0 0.46670491E+03 -.17469367E+03 -.54130205E+03 0.74630038E+03 0.12500000E+03 0.0000E+00 0.9000E+01
        2  1    1    2  501    0 0.84737275E+01 0.68632672E+01 -.49374342E+03 0.49386393E+03 0.32000000E+00 0.0000E+00 0.9000E+01
        2  1    1    2  502    0 -.44840821E+03 0.14854883E+03 0.10650224E+04 0.11650792E+04 0.32000000E+00 0.0000E+00 0.9000E+01
       21  1    1    2  503  502 -.26770423E+02 0.19281570E+02 0.11596213E+03 0.12056621E+03 0.75000000E+00 0.0000E+00 0.9000E+01
#aMCatNLO 2  0  0  1  1 0.32991431D+02 0.00000000D+00  -5  6  0 0.00000000D+00 0.00000000D+00 0.00000000D+00 0.00000000D+00 0.00000000D+00
  <mgrwgt>
 0.1664615467D-01    4    2    0
 0.120241521182051D+04 0.000000000000000D+00 0.000000000000000D+00 0.120241521182051D+04
 0.120241521182051D+04 0.000000000000000D+00 0.000000000000000D+00 -.120241521182051D+04
 0.746613227225245D+03 0.458360576122380D+03 -.168681881246072D+03 -.550688946923526D+03
 0.500025856235392D+03 0.290693421832640D+01 0.108718352987905D+02 -.499899199673917D+03
 0.115819134018039D+04 -.461267510340706D+03 0.157810045947281D+03 0.105058814659744D+04
 0.000000000000000D+00 -.000000000000000D+00 0.000000000000000D+00 0.000000000000000D+00
 0.131932636270155D+04 0.000000000000000D+00 0.000000000000000D+00 0.131932636270155D+04
 0.120485809430604D+04 0.000000000000000D+00 0.000000000000000D+00 -.120485809430604D+04
 0.753138390066523D+03 0.466707754474109D+03 -.174693990285835D+03 -.550688946923526D+03
 0.500018099011597D+03 0.847288604512895D+01 0.686292260006106D+01 -.499899199673917D+03
 0.115190022563451D+04 -.448410217115377D+03 0.148549497583549D+03 0.105058814659744D+04
 0.119127742294961D+03 -.267704234038609D+02 0.192815701022254D+02 0.114468268395506D+03
-.316626203081D-04 0.000000000000D+00 0.000000000000D+00 0.351181320282D-04 0.000000000000D+00  6 2 2 25 2 2 21 2 0.18730703D+00 0.18269562D+00 0.25146482D+06 0.25146482D+06 0.25146482D+06 0.10902683D+01  1  2  8  1  6  1        2 -.229501688042D-03 0.100000000000D+01
-.200675183319D-04 0.000000000000D+00 0.000000000000D+00 0.351181320282D-04 0.000000000000D+00  6 2 2 25 2 2 21 2 0.20568189D+00 0.18269562D+00 0.25146482D+06 0.25146482D+06 0.25146482D+06 0.10902683D+01  1  2  9  1  6  1        2 -.124428950941D-03 0.100000000000D+01
0.199799669764D-04 0.000000000000D+00 0.000000000000D+00 0.351181320282D-04 0.000000000000D+00  6 2 2 25 2 2 21 2 0.18730703D+00 0.18269562D+00 0.25146482D+06 0.25146482D+06 0.25146482D+06 0.10902683D+01  1  2 10  1  6  1        2 0.144821752069D-03 0.100000000000D+01
0.274078009626D-02 0.000000000000D+00 0.000000000000D+00 0.351181320282D-04 0.116668463207D-05  6 2 2 25 2 2 21 2 0.20551894D+00 0.18306679D+00 0.26524568D+06 0.26524568D+06 0.26524568D+06 0.10885303D+01  1  2  1  1  6  1        2 0.168552635587D-01 0.100000000000D+01
  </mgrwgt>
  </event>
  <event>
  5     66 -.18411016E-05 0.86300249E+02 0.75467711E-02 0.94413306E-01
        2 -1    0    0  502    0 0.00000000E+00 0.00000000E+00 0.39364580E+04 0.39364581E+04 0.32000000E+00 0.0000E+00 0.9000E+01
        2 -1    0    0  501    0 0.00000000E+00 0.00000000E+00 -.21532065E+04 0.21532066E+04 0.32000000E+00 0.0000E+00 0.9000E+01
       25  1    1    2    0    0 0.20832693E+03 0.43339286E+03 -.10262398E+03 0.50733240E+03 0.12500000E+03 0.0000E+00 0.9000E+01
        2  1    1    2  501    0 -.24803519E+03 -.35677007E+03 -.18221805E+04 0.18732721E+04 0.32000000E+00 0.0000E+00 0.9000E+01
        2  1    1    2  502    0 0.39708252E+02 -.76622789E+02 0.37080560E+04 0.37090601E+04 0.32000000E+00 0.0000E+00 0.9000E+01
#aMCatNLO 1  0  0  5  1 0.96275421D+01 0.00000000D+00  -5  6  0 0.00000000D+00 0.00000000D+00 0.00000000D+00 0.00000000D+00 0.00000000D+00
  <mgrwgt>
 -.1451820804D+00    9    2    0
 0.291135832823719D+04 0.000000000000000D+00 0.000000000000000D+00 0.291135832823719D+04
 0.291135832823719D+04 -.000000000000000D+00 -.000000000000000D+00 -.291135832823719D+04
 0.562027210788143D+03 0.208335820388017D+03 0.433405662574578D+03 -.262688605116101D+03
 0.251721626339742D+04 -.248043901824325D+03 -.356783203538959D+03 -.247942688643015D+04
 0.274347318228882D+04 0.397080814363069D+02 -.766224590356178D+02 0.274211549154625D+04
 0.000000000000000D+00 0.000000000000000D+00 0.000000000000000D+00 0.000000000000000D+00
 0.291135832823719D+04 0.000000000000000D+00 0.000000000000000D+00 0.291135832823719D+04
 0.291135832823719D+04 -.000000000000000D+00 -.000000000000000D+00 -.291135832823719D+04
 0.562024058394053D+03 0.208335914788414D+03 0.433405480415424D+03 -.262682086120985D+03
 0.251718757840580D+04 -.248043479023576D+03 -.356784019393864D+03 -.247939768913732D+04
 0.137484462109436D+04 0.292657855795652D+02 -.406118628385978D+02 0.137393301239299D+04
 0.136866039858017D+04 0.104417786555973D+02 -.360095981829618D+02 0.136814676286531D+04
0.145739847841D-02 0.000000000000D+00 0.000000000000D+00 0.986737927896D-03 0.000000000000D+00  6 2 2 25 2 2 21 0 0.60560893D+00 0.33126255D+00 0.25892524D+06 0.25892524D+06 0.25892524D+06 0.10893149D+01  1  2  2  3  6  5        2 0.550204496801D-04 0.100000000000D+01
0.516529680349D-03 0.000000000000D+00 -.559679389891D-05 0.986737927896D-03 0.000000000000D+00  6 2 2 25 2 2 21 2 0.60560893D+00 0.33126255D+00 0.25892524D+06 0.25892524D+06 0.25892524D+06 0.10893149D+01  1  2  3  3  6  5        2 0.231391806598D-04 0.100000000000D+01
-.955965272150D-03 0.000000000000D+00 0.000000000000D+00 0.986737927896D-03 0.000000000000D+00  6 2 2 25 2 2 21 2 0.60560893D+00 0.33126255D+00 0.25892524D+06 0.25892524D+06 0.25892524D+06 0.10893149D+01  1  2 15  3  6  5        2 -.428247474992D-04 0.100000000000D+01
0.616706414519D-10 0.000000000000D+00 0.000000000000D+00 0.986737927896D-03 0.000000000000D+00  6 2 2 25 2 2 21 2 0.60560893D+00 0.33126255D+00 0.25956224D+06 0.25956224D+06 0.25956224D+06 0.10892349D+01  1  2 12  3  6  5        2 0.276134614526D-11 0.100000000000D+01
0.522305626060D+01 0.000000000000D+00 0.000000000000D+00 0.986737927896D-03 0.000000000000D+00  6 2 2 25 2 2 21 2 0.60560893D+00 0.33126255D+00 0.25956224D+06 0.25956224D+06 0.25956224D+06 0.10892349D+01  1  2 12  3  6  5        2 0.233866000614D+00 0.100000000000D+01
-.115883946592D+02 0.000000000000D+00 0.000000000000D+00 0.986737927896D-03 0.000000000000D+00  6 2 2 25 2 2 21 2 0.60560893D+00 0.33126255D+00 0.25892524D+06 0.25892524D+06 0.25892524D+06 0.10893149D+01  1  2  4  3  6  5        2 -.519129815339D+00 0.100000000000D+01
-.522282884299D+01 0.000000000000D+00 0.000000000000D+00 0.986737927896D-03 0.000000000000D+00  6 2 2 25 2 2 21 2 0.60560893D+00 0.33126255D+00 0.25892524D+06 0.25892524D+06 0.25892524D+06 0.10893149D+01  1  2  5  3  6  5        2 -.233969091711D+00 0.100000000000D+01
0.834902849434D+01 0.000000000000D+00 -.000000000000D+00 0.986737927896D-03 0.000000000000D+00  6 2 2 25 2 2 21 2 0.60560893D+00 0.33126255D+00 0.25892524D+06 0.25892524D+06 0.25892524D+06 0.10893149D+01  1  2  6  3  6  5        2 0.374014671401D+00 0.100000000000D+01
0.183077656995D-04 0.000000000000D+00 0.000000000000D+00 0.986737927896D-03 0.278616675980D-04  6 2 2 25 2 2 21 2 0.60560893D+00 0.33126255D+00 0.25956224D+06 0.25956224D+06 0.25956224D+06 0.10892349D+01  1  2 11  3  6  5        2 0.819743026054D-06 0.100000000000D+01
  </mgrwgt>
  </event>
  <event>
  6     66 0.18411016E-05 0.19867767E+03 0.75467711E-02 0.91825308E-01
        2 -1    0    0  502    0 0.00000000E+00 0.00000000E+00 0.35677120E+04 0.35677120E+04 0.32000000E+00 0.0000E+00 0.9000E+01
        2 -1    0    0  501    0 0.00000000E+00 0.00000000E+00 -.17564723E+04 0.17564723E+04 0.32000000E+00 0.0000E+00 0.9000E+01
       25  1    1    2    0    0 0.84585957E+01 -.45806989E+03 -.14045348E+03 0.49522899E+03 0.12500000E+03 0.0000E+00 0.9000E+01
        2  1    1    2  501    0 0.16199985E+03 -.12514801E+03 -.14034879E+04 0.14183386E+04 0.32000000E+00 0.0000E+00 0.9000E+01
        2  1    1    2  503    0 -.15890766E+03 0.57390310E+03 0.32181507E+04 0.32727832E+04 0.32000000E+00 0.0000E+00 0.9000E+01
       21  1    1    2  502  503 -.11550790E+02 0.93148068E+01 0.13703043E+03 0.13783355E+03 0.75000000E+00 0.0000E+00 0.9000E+01
#aMCatNLO 2  0  0  5  1 0.14990648D+02 0.00000000D+00  -5  6  0 0.00000000D+00 0.00000000D+00 0.00000000D+00 0.00000000D+00 0.00000000D+00
  <mgrwgt>
 0.1017804582D-01    6    2    0
 0.250331528642407D+04 0.000000000000000D+00 0.000000000000000D+00 0.250331528642407D+04
 0.250331528642407D+04 -.000000000000000D+00 -.000000000000000D+00 -.250331528642407D+04
 0.577433129761754D+03 0.843947631171343D+01 -.458079015477201D+03 -.328475889778043D+03
 0.201667091569940D+04 0.162061348480687D+03 -.125283883049659D+03 -.200624067604175D+04
 0.241252652738699D+04 -.170500824792400D+03 0.583362898526859D+03 0.233471656581980D+04
 0.000000000000000D+00 0.000000000000000D+00 0.000000000000000D+00 0.000000000000000D+00
 0.250331528642407D+04 0.000000000000000D+00 0.000000000000000D+00 0.250331528642407D+04
 0.250331528642407D+04 -.000000000000000D+00 -.000000000000000D+00 -.250331528642407D+04
 0.577328874354502D+03 0.842956384241974D+01 -.458045100293355D+03 -.328340155500532D+03
 0.201618919439188D+04 0.162026730436567D+03 -.125165438563634D+03 -.200576664126109D+04
 0.231629394824772D+04 -.158917097049840D+03 0.573944345064074D+03 0.223842598709969D+04
 0.968185558540440D+02 -.115391972291463D+02 0.926619379291439D+01 0.956808096619257D+02
-.267159143993D-09 0.000000000000D+00 0.000000000000D+00 0.121297008696D-04 0.000000000000D+00  6 2 2 25 2 2 21 2 0.54887878D+00 0.27022651D+00 0.41599242D+06 0.41599242D+06 0.41599242D+06 0.10742024D+01  1  2 13  3  6  5        2 -.345868350136D-10 0.100000000000D+01
-.118273900481D+00 0.000000000000D+00 0.000000000000D+00 0.121297008696D-04 0.000000000000D+00  6 2 2 25 2 2 21 2 0.54887878D+00 0.27022651D+00 0.41599242D+06 0.41599242D+06 0.41599242D+06 0.10742024D+01  1  2 13  3  6  5        2 -.153119216554D-01 0.100000000000D+01
-.482755787834D+00 0.000000000000D+00 0.000000000000D+00 0.121297008696D-04 0.000000000000D+00  6 2 2 25 2 2 21 2 0.54887878D+00 0.27022651D+00 0.41442223D+06 0.41442223D+06 0.41442223D+06 0.10743204D+01  1  2  8  3  6  5        2 -.625402382066D-01 0.100000000000D+01
-.346987200080D+00 0.000000000000D+00 0.000000000000D+00 0.121297008696D-04 0.000000000000D+00  6 2 2 25 2 2 21 2 0.54887878D+00 0.27022651D+00 0.41442223D+06 0.41442223D+06 0.41442223D+06 0.10743204D+01  1  2  9  3  6  5        2 -.449516353703D-01 0.100000000000D+01
0.361191537622D+00 0.000000000000D+00 0.000000000000D+00 0.121297008696D-04 0.000000000000D+00  6 2 2 25 2 2 21 2 0.54887878D+00 0.27022651D+00 0.41442223D+06 0.41442223D+06 0.41442223D+06 0.10743204D+01  1  2 10  3  6  5        2 0.467917845220D-01 0.100000000000D+01
0.665757989249D+00 0.000000000000D+00 0.000000000000D+00 0.121297008696D-04 0.836392463445D-06  6 2 2 25 2 2 21 2 0.54887878D+00 0.27022651D+00 0.41599242D+06 0.41599242D+06 0.41599242D+06 0.10742024D+01  1  2  1  3  6  5        2 0.861900565670D-01 0.100000000000D+01
  </mgrwgt>
  </event>
  <event>
  5     66 0.18411016E-05 0.14798564E+03 0.75467711E-02 0.94100849E-01
        2 -1    0    0  502    0 0.00000000E+00 0.00000000E+00 0.11935441E+04 0.11935442E+04 0.32000000E+00 0.0000E+00 0.9000E+01
        2 -1    0    0  501    0 0.00000000E+00 0.00000000E+00 -.77112901E+03 0.77112907E+03 0.32000000E+00 0.0000E+00 0.9000E+01
       25  1    1    2    0    0 0.47752939E+03 -.79099695E+02 -.42843545E+02 0.50174859E+03 0.12500000E+03 0.0000E+00 0.9000E+01
        2  1    1    2  501    0 -.36131935E+03 0.17074509E+03 -.41158461E+03 0.57367896E+03 0.32000000E+00 0.0000E+00 0.9000E+01
        2  1    1    2  502    0 -.11621004E+03 -.91645396E+02 0.87684329E+03 0.88924570E+03 0.32000000E+00 0.0000E+00 0.9000E+01
#aMCatNLO 1  0  0  2  2 0.43322477D+03 0.00000000D+00  -5  6  0 0.00000000D+00 0.00000000D+00 0.00000000D+00 0.00000000D+00 0.00000000D+00
  <mgrwgt>
 0.5054584486D-03    1    2    0
 0.959362609262357D+03 0.000000000000000D+00 0.000000000000000D+00 0.959362609262357D+03
 0.959362609262357D+03 0.000000000000000D+00 0.000000000000000D+00 -.959362609262357D+03
 0.523222311718784D+03 0.477575239113739D+03 -.791259360752367D+02 -.154264593170375D+03
 0.678066913354668D+03 -.361375553196845D+03 0.170763163955868D+03 -.547742996645126D+03
 0.717435993451262D+03 -.116199685916894D+03 -.916372278806309D+02 0.702007589815501D+03
 0.000000000000000D+00 -.000000000000000D+00 0.000000000000000D+00 -.000000000000000D+00
 0.134042671785945D+04 0.000000000000000D+00 0.000000000000000D+00 0.134042671785945D+04
 0.146313247519929D+04 0.000000000000000D+00 0.000000000000000D+00 -.146313247519929D+04
 0.746683746024225D+03 0.710596564443996D+03 -.114745694782584D+03 -.154264593170375D+03
 0.579187632887155D+03 -.130675716105393D+03 0.135498269125425D+03 -.547742996645126D+03
 0.729800200779258D+03 0.149360820696390D+03 -.132230942444565D+03 0.702007589815501D+03
 0.747887613368100D+03 -.729281669034993D+03 0.111478368101724D+03 -.122705757339844D+03
0.371902102975D-04 0.000000000000D+00 0.000000000000D+00 0.952953049682D-06 0.000000000000D+00  6 2 2 25 2 2 21 2 0.18362218D+00 0.11863524D+00 0.27438738D+06 0.27438738D+06 0.27438738D+06 0.10874310D+01  1  2 14  2  6  2        2 0.505458448630D-03 0.100000000000D+01
  </mgrwgt>
  </event>
  <event>
  5     66 0.18411016E-05 0.11167861E+03 0.75467711E-02 0.93698314E-01
        2 -1    0    0  502    0 0.00000000E+00 0.00000000E+00 0.20954485E+04 0.20954485E+04 0.32000000E+00 0.0000E+00 0.9000E+01
        2 -1    0    0  501    0 -.00000000E+00 -.00000000E+00 -.29112005E+04 0.29112005E+04 0.32000000E+00 0.0000E+00 0.9000E+01
       25  1    1    2    0    0 0.41798790E+03 -.20638493E+03 -.98830126E+03 0.10998514E+04 0.12500000E+03 0.0000E+00 0.9000E+01
        2  1    1    2  501    0 0.60727005E+02 0.93729127E+02 -.18357581E+04 0.18391522E+04 0.32000000E+00 0.0000E+00 0.9000E+01
        2  1    1    2  502    0 -.47871491E+03 0.11265581E+03 0.20083073E+04 0.20676454E+04 0.32000000E+00 0.0000E+00 0.9000E+01
#aMCatNLO 1  0  0  5  1 0.14990648D+02 0.00000000D+00  -5  6  0 0.00000000D+00 0.00000000D+00 0.00000000D+00 0.00000000D+00 0.00000000D+00
  <mgrwgt>
 0.5929213713D-02    1    2    0
 0.246987260183002D+04 0.000000000000000D+00 0.000000000000000D+00 0.246987260183002D+04
 0.246987260183002D+04 -.000000000000000D+00 -.000000000000000D+00 -.246987260183002D+04
 0.951572952025917D+03 0.417990119731379D+03 -.206381849607634D+03 -.820095649901154D+03
 0.156086713671184D+04 0.607253142139883D+02 0.937259192030723D+02 -.155686675947243D+04
 0.242730511492228D+04 -.478715433945368D+03 0.112655930404562D+03 0.237696240937358D+04
 0.000000000000000D+00 -.000000000000000D+00 0.000000000000000D+00 0.000000000000000D+00
 0.246987260183002D+04 0.000000000000000D+00 0.000000000000000D+00 0.246987260183002D+04
 0.246987260183002D+04 -.000000000000000D+00 -.000000000000000D+00 -.246987260183002D+04
 0.924920947058544D+03 0.412391649289394D+03 -.205064363577810D+03 -.792297603615255D+03
 0.151521404907480D+04 0.515479064941041D+02 0.958856352516332D+02 -.151129824085193D+04
 0.965474151284732D+03 0.228134450558958D+03 0.795715133105204D+02 0.934753113681153D+03
 0.153413605624196D+04 -.692074006342456D+03 0.296072150156564D+02 0.136884273078603D+04
0.240488582658D-01 0.000000000000D+00 0.000000000000D+00 0.102570306153D-03 0.000000000000D+00  6 2 2 25 2 2 21 2 0.32237669D+00 0.44787700D+00 0.29490529D+06 0.29490529D+06 0.29490529D+06 0.10851026D+01  1  2 14  3  6  5        2 0.592921371304D-02 0.100000000000D+01
  </mgrwgt>
  </event>
  <event>
  5     66 -.18411016E-05 0.41941376E+02 0.75467711E-02 0.93536382E-01
        2 -1    0    0  502    0 0.00000000E+00 0.00000000E+00 0.24776614E+04 0.24776614E+04 0.32000000E+00 0.0000E+00 0.9000E+01
        2 -1    0    0  501    0 0.00000000E+00 0.00000000E+00 -.67090156E+03 0.67090164E+03 0.32000000E+00 0.0000E+00 0.9000E+01
       25  1    1    2    0    0 -.14839511E+03 -.47193059E+03 -.16753068E+03 0.53705784E+03 0.12500000E+03 0.0000E+00 0.9000E+01
        2  1    1    2  501    0 0.14788174E+03 0.51387035E+03 -.93884187E+02 0.54290523E+03 0.32000000E+00 0.0000E+00 0.9000E+01
        2  1    1    2  502    0 0.51336964E+00 -.41939758E+02 0.20681747E+04 0.20685999E+04 0.32000000E+00 0.0000E+00 0.9000E+01
#aMCatNLO 1  0  0  5  2 0.12704011D+02 0.00000000D+00  -5  6  0 0.00000000D+00 0.00000000D+00 0.00000000D+00 0.00000000D+00 0.00000000D+00
  <mgrwgt>
 -.1569669126D-01    5    2    0
 0.128928934983435D+04 0.000000000000000D+00 0.000000000000000D+00 0.128928934983435D+04
 0.128928934983435D+04 -.000000000000000D+00 -.000000000000000D+00 -.128928934983435D+04
 0.773179794577770D+03 -.148409150365662D+03 -.471977878387942D+03 -.580855921157289D+03
 0.728712164001704D+03 0.147895799375061D+03 0.513916112999759D+03 -.495013615257678D+03
 0.107668674108923D+04 0.513350990601283D+00 -.419382346118165D+02 0.107586953641497D+04
 0.000000000000000D+00 0.000000000000000D+00 -.000000000000000D+00 0.000000000000000D+00
 0.128928934983435D+04 0.000000000000000D+00 0.000000000000000D+00 0.128928934983435D+04
 0.128928934983435D+04 -.000000000000000D+00 -.000000000000000D+00 -.128928934983435D+04
 0.773011513733749D+03 -.148409039991483D+03 -.471986895411959D+03 -.580624601419135D+03
 0.728558109538732D+03 0.147895903401651D+03 0.513907614542301D+03 -.494795598653728D+03
 0.117652545068717D+03 0.955203586615986D+01 0.387662509978605D+01 0.117200050127096D+03
 0.959356531327508D+03 -.903889927632793D+01 -.457973442301274D+02 0.958220149945767D+03
0.240091419047D-03 0.000000000000D+00 0.000000000000D+00 0.637549522691D-05 0.000000000000D+00  6 2 2 25 2 2 21 0 0.38117868D+00 0.10321563D+00 0.29540435D+06 0.29540435D+06 0.29540435D+06 0.10850482D+01  1  2  2  3  6  5        2 0.631947039199D-03 0.100000000000D+01
0.135993087666D-03 0.000000000000D+00 -.922014266662D-06 0.637549522691D-05 0.000000000000D+00  6 2 2 25 2 2 21 2 0.38117868D+00 0.10321563D+00 0.29540435D+06 0.29540435D+06 0.29540435D+06 0.10850482D+01  1  2  3  3  6  5        2 0.421423711540D-03 0.100000000000D+01
-.192776273292D-03 0.000000000000D+00 0.000000000000D+00 0.637549522691D-05 0.000000000000D+00  6 2 2 25 2 2 21 2 0.38117868D+00 0.10321563D+00 0.29540435D+06 0.29540435D+06 0.29540435D+06 0.10850482D+01  1  2 15  3  6  5        2 -.597386925922D-03 0.100000000000D+01
0.512301766622D-09 0.000000000000D+00 0.000000000000D+00 0.637549522691D-05 0.000000000000D+00  6 2 2 25 2 2 21 2 0.38117868D+00 0.10321563D+00 0.30363989D+06 0.30363989D+06 0.30363989D+06 0.10841646D+01  1  2 12  3  6  5        2 0.158188190754D-08 0.100000000000D+01
-.521245557197D-02 0.000000000000D+00 0.000000000000D+00 0.637549522691D-05 0.000000000000D+00  6 2 2 25 2 2 21 2 0.38117868D+00 0.10321563D+00 0.29540435D+06 0.29540435D+06 0.29540435D+06 0.10850482D+01  1  2  5  3  6  5        2 -.161526766623D-01 0.100000000000D+01
  </mgrwgt>
  </event>
  <event>
  5     66 0.18411016E-05 0.41421232E+02 0.75467711E-02 0.93917551E-01
        2 -1    0    0  502    0 0.00000000E+00 0.00000000E+00 0.72673448E+03 0.72673455E+03 0.32000000E+00 0.0000E+00 0.9000E+01
        2 -1    0    0  501    0 0.00000000E+00 0.00000000E+00 -.23761932E+04 0.23761932E+04 0.32000000E+00 0.0000E+00 0.9000E+01
       25  1    1    2    0    0 0.52033593E+03 -.19343089E+02 -.15889346E+04 0.16767414E+04 0.12500000E+03 0.0000E+00 0.9000E+01
        2  1    1    2  501    0 -.32349363E+02 0.25879842E+02 -.65541679E+03 0.65672484E+03 0.32000000E+00 0.0000E+00 0.9000E+01
        2  1    1    2  502    0 -.48798657E+03 -.65367533E+01 0.59489267E+03 0.76946151E+03 0.32000000E+00 0.0000E+00 0.9000E+01
#aMCatNLO 1  0  0  2  4 0.31578005D+02 0.00000000D+00  -5  6  0 0.00000000D+00 0.00000000D+00 0.00000000D+00 0.00000000D+00 0.00000000D+00
  <mgrwgt>
 0.1359909213D-01    7    2    0
 0.131410108462032D+04 0.000000000000000D+00 0.000000000000000D+00 0.131410108462032D+04
 0.131410108462032D+04 0.000000000000000D+00 0.000000000000000D+00 -.131410108462032D+04
 0.982459731202255D+03 0.520333672568259D+03 -.193393466793954D+02 -.823699570411232D+03
 0.363932882023106D+03 -.323441474114957D+02 0.258761396021877D+02 -.361568007635017D+03
 0.128180955601527D+04 -.487989525156764D+03 -.653679292279237D+01 0.118526757804625D+04
 0.000000000000000D+00 0.000000000000000D+00 -.000000000000000D+00 -.000000000000000D+00
 0.140638145230622D+04 0.000000000000000D+00 0.000000000000000D+00 0.140638145230622D+04
 0.168704138433820D+04 0.000000000000000D+00 0.000000000000000D+00 -.168704138433820D+04
 0.922914347164840D+03 0.396923534103076D+03 -.107989806083191D+02 -.823699570411232D+03
 0.371454467386773D+03 -.799748230077514D+02 0.291723307487479D+02 -.361568007635017D+03
 0.135608383242855D+04 -.658844577726406D+03 0.528690902086432D+01 0.118526757804625D+04
 0.442970189664263D+03 0.341895866631082D+03 -.236602591612932D+02 -.280659932031979D+03
0.255338399548D-02 0.000000000000D+00 0.000000000000D+00 0.122753105590D-04 0.000000000000D+00  6 2 2 25 2 2 21 0 0.11180531D+00 0.36556819D+00 0.28352503D+06 0.28352503D+06 0.28352503D+06 0.10863714D+01  1  2  2  2  6  2        2 0.698778813450D-02 0.100000000000D+01
0.656031833903D-03 0.000000000000D+00 -.980566686409D-05 0.122753105590D-04 0.000000000000D+00  6 2 2 25 2 2 21 2 0.11180531D+00 0.36556819D+00 0.28352503D+06 0.28352503D+06 0.28352503D+06 0.10863714D+01  1  2  3  2  6  2        2 0.211887401347D-02 0.100000000000D+01
-.173257513104D-02 0.000000000000D+00 0.000000000000D+00 0.122753105590D-04 0.000000000000D+00  6 2 2 25 2 2 21 2 0.11180531D+00 0.36556819D+00 0.28352503D+06 0.28352503D+06 0.28352503D+06 0.10863714D+01  1  2 15  2  6  2        2 -.559593030676D-02 0.100000000000D+01
-.147355127959D-04 0.000000000000D+00 0.000000000000D+00 0.122753105590D-04 0.000000000000D+00  6 2 2 25 2 2 21 2 0.11180531D+00 0.36556819D+00 0.28352503D+06 0.28352503D+06 0.28352503D+06 0.10863714D+01  1  2  4  2  6  2        2 -.475932622851D-04 0.100000000000D+01
-.434044538369D-02 0.000000000000D+00 -.177469348565D-02 0.122753105590D-04 0.000000000000D+00  6 2 2 25 2 2 21 2 0.11180531D+00 0.47825424D+00 0.28352503D+06 0.28352503D+06 0.28352503D+06 0.10863714D+01  1  2  5  2  6  2        2 -.506335803665D-02 0.100000000000D+01
0.470848871349D-02 0.000000000000D+00 0.171250431645D-02 0.122753105590D-04 0.000000000000D+00  6 2 2 25 2 2 21 2 0.11180531D+00 0.36556819D+00 0.28352503D+06 0.28352503D+06 0.28352503D+06 0.10863714D+01  1  2  6  2  6  2        2 0.152076375904D-01 0.100000000000D+01
-.121443516753D-03 0.000000000000D+00 -.633249553715D-04 0.122753105590D-04 0.000000000000D+00  6 2 21 25 2 2 -2 2 0.11180531D+00 0.47825424D+00 0.28352503D+06 0.28352503D+06 0.28352503D+06 0.10863714D+01  1  2  5  5  6  2        2 -.832600675502D-05 0.100000000000D+01
  </mgrwgt>
  </event>
  <event>
  5     66 0.18411016E-05 0.57979934E+02 0.75467711E-02 0.92519595E-01
        2 -1    0    0  502    0 0.00000000E+00 0.00000000E+00 0.20225772E+04 0.20225772E+04 0.32000000E+00 0.0000E+00 0.9000E+01
        2 -1    0    0  501    0 0.00000000E+00 0.00000000E+00 -.84318434E+03 0.84318440E+03 0.32000000E+00 0.0000E+00 0.9000E+01
       25  1    1    2    0    0 0.30498026E+02 -.52223444E+03 0.14722300E+04 0.15674007E+04 0.12500000E+03 0.0000E+00 0.9000E+01
        2  1    1    2  501    0 0.79053403E+01 0.47872829E+03 -.72143122E+03 0.86585586E+03 0.32000000E+00 0.0000E+00 0.9000E+01
        2  1    1    2  502    0 -.38403366E+02 0.43506147E+02 0.42859409E+03 0.43250503E+03 0.32000000E+00 0.0000E+00 0.9000E+01
#aMCatNLO 1  0  0  1  5 0.23409648D+02 0.00000000D+00  -5  6  0 0.00000000D+00 0.00000000D+00 0.00000000D+00 0.00000000D+00 0.00000000D+00
  <mgrwgt>
 0.2978112956D-02    7    2    0
 0.130591176362421D+04 0.000000000000000D+00 0.000000000000000D+00 0.130591176362421D+04
 0.130591176362421D+04 0.000000000000000D+00 0.000000000000000D+00 -.130591176362421D+04
 0.105521604657329D+04 0.304649801706020D+02 -.522256287725578D+03 0.907841483883645D+03
 0.127583489248654D+04 0.790455556228820D+01 0.478788467070020D+03 -.118256238511473D+04
 0.280772588188597D+03 -.383695357328902D+02 0.434678206555588D+02 0.274720901231090D+03
 0.000000000000000D+00 0.000000000000000D+00 -.000000000000000D+00 0.000000000000000D+00
 0.139452292698146D+04 0.000000000000000D+00 0.000000000000000D+00 0.139452292698146D+04
 0.134428833991029D+04 0.000000000000000D+00 0.000000000000000D+00 -.134428833991029D+04
 0.103897263486137D+04 -.138323680598685D+01 -.489551899992901D+03 0.907841483883645D+03
 0.129176872280876D+04 -.311433095010348D+02 0.518886049930087D+03 -.118256238511473D+04
 0.283565431650045D+03 -.469519332328359D+02 0.522809374375912D+02 0.274720901231090D+03
 0.124504477571575D+03 0.794784795398576D+02 -.816150873747764D+02 0.502345870711683D+02
0.299105229856D-03 0.000000000000D+00 0.000000000000D+00 0.359903366374D-05 0.000000000000D+00  6 2 2 25 2 2 21 0 0.31116573D+00 0.12972067D+00 0.28874729D+06 0.28874729D+06 0.28874729D+06 0.10857824D+01  1  2  2  1  6  1        2 0.106547478051D-02 0.100000000000D+01
0.432138442859D-04 0.000000000000D+00 -.114864283886D-05 0.359903366374D-05 0.000000000000D+00  6 2 2 25 2 2 21 2 0.31116573D+00 0.12972067D+00 0.28874729D+06 0.28874729D+06 0.28874729D+06 0.10857824D+01  1  2  3  1  6  1        2 0.181479536737D-03 0.100000000000D+01
-.226871158328D-03 0.000000000000D+00 0.000000000000D+00 0.359903366374D-05 0.000000000000D+00  6 2 2 25 2 2 21 2 0.31116573D+00 0.12972067D+00 0.28874729D+06 0.28874729D+06 0.28874729D+06 0.10857824D+01  1  2 15  1  6  1        2 -.952761166998D-03 0.100000000000D+01
-.692648224263D-05 0.000000000000D+00 0.000000000000D+00 0.359903366374D-05 0.000000000000D+00  6 2 2 25 2 2 21 2 0.31116573D+00 0.12972067D+00 0.28874729D+06 0.28874729D+06 0.28874729D+06 0.10857824D+01  1  2  4  1  6  1        2 -.290882426542D-04 0.100000000000D+01
-.319076003371D-02 0.000000000000D+00 -.747987838683D-03 0.359903366374D-05 0.000000000000D+00  6 2 2 25 2 2 21 2 0.33637708D+00 0.12972067D+00 0.28874729D+06 0.28874729D+06 0.28874729D+06 0.10857824D+01  1  2  5  1  6  1        2 -.108774419829D-01 0.100000000000D+01
0.324145584579D-02 0.000000000000D+00 0.745723600521D-03 0.359903366374D-05 0.000000000000D+00  6 2 2 25 2 2 21 2 0.31116573D+00 0.12972067D+00 0.28874729D+06 0.28874729D+06 0.28874729D+06 0.10857824D+01  1  2  6  1  6  1        2 0.136127186777D-01 0.100000000000D+01
-.400837639688D-04 0.000000000000D+00 -.975789092924D-05 0.359903366374D-05 0.000000000000D+00  6 21 2 25 2 2 -2 2 0.33637708D+00 0.12972067D+00 0.28874729D+06 0.28874729D+06 0.28874729D+06 0.10857824D+01  1  2  5  4  6  1        2 -.222686460444D-04 0.100000000000D+01
  </mgrwgt>
  </event>
  <event>
  6     66 0.18411016E-05 0.20506715E+03 0.75467711E-02 0.90898160E-01
        2 -1    0    0  503    0 0.00000000E+00 0.00000000E+00 0.40982926E+04 0.40982927E+04 0.32000000E+00 0.0000E+00 0.9000E+01
        2 -1    0    0  501    0 0.00000000E+00 0.00000000E+00 -.18938007E+04 0.18938008E+04 0.32000000E+00 0.0000E+00 0.9000E+01
       25  1    1    2    0    0 0.52094028E+03 -.43248653E+03 -.97011885E+03 0.11896129E+04 0.12500000E+03 0.0000E+00 0.9000E+01
        2  1    1    2  501    0 0.24168857E+02 0.24529653E+02 -.78122663E+03 0.78198529E+03 0.32000000E+00 0.0000E+00 0.9000E+01
        2  1    1    2  502    0 -.24524394E+03 0.23271084E+03 0.13535936E+04 0.13951755E+04 0.32000000E+00 0.0000E+00 0.9000E+01
       21  1    1    2  503  502 -.29986520E+03 0.17524603E+03 0.26022438E+04 0.26253197E+04 0.75000000E+00 0.0000E+00 0.9000E+01
#aMCatNLO 2  0  0  1  1 0.34731875D+03 0.00000000D+00  -5  6  0 0.00000000D+00 0.00000000D+00 0.00000000D+00 0.00000000D+00 0.00000000D+00
  <mgrwgt>
 0.1420453958D-02    1    2    0
 0.166255289443144D+04 0.000000000000000D+00 0.000000000000000D+00 0.166255289443144D+04
 0.166255289443144D+04 0.000000000000000D+00 0.000000000000000D+00 -.166255289443144D+04
 0.101871387536110D+04 0.426447847554608D+03 -.377263037207514D+03 -.835444668380994D+03
 0.697431879402584D+03 -.384270107415316D+02 0.611109820611624D+02 -.693685836041079D+03
 0.160896003409920D+04 -.388020836813076D+03 0.316152055146352D+03 0.152913050442207D+04
 0.000000000000000D+00 -.000000000000000D+00 0.000000000000000D+00 0.000000000000000D+00
 0.461478408708867D+04 0.000000000000000D+00 0.000000000000000D+00 0.461478408708867D+04
 0.168184452452465D+04 0.000000000000000D+00 0.000000000000000D+00 -.168184452452465D+04
 0.108259736652823D+04 0.520941190736514D+03 -.432486462079039D+03 -.835444668380994D+03
 0.694540013203870D+03 0.241682274723786D+02 0.245293211904423D+02 -.693685836041079D+03
 0.156605851913452D+04 -.245244216301646D+03 0.232711108824401D+03 0.152913050442207D+04
 0.295343271274671D+04 -.299865201907247D+03 0.175246032064196D+03 0.293293956256402D+04
0.352219922574D-01 0.000000000000D+00 0.000000000000D+00 0.215167264283D-04 0.314796891824D-07  6 2 2 25 2 2 21 2 0.63050655D+00 0.29135396D+00 0.49586105D+06 0.49586105D+06 0.49586105D+06 0.10687656D+01  1  2  1  1  6  1        2 0.142045395832D-02 0.100000000000D+01
  </mgrwgt>
  </event>
  <event>
  5     66 0.18411016E-05 0.10504552E+03 0.75467711E-02 0.90474187E-01
        2 -1    0    0  502    0 0.00000000E+00 0.00000000E+00 0.18173154E+04 0.18173154E+04 0.32000000E+00 0.0000E+00 0.9000E+01
        2 -1    0    0  501    0 0.00000000E+00 0.00000000E+00 -.98692417E+03 0.98692422E+03 0.32000000E+00 0.0000E+00 0.9000E+01
       25  1    1    2    0    0 0.46706026E+03 0.49030702E+03 0.11037799E+04 0.13009617E+04 0.12500000E+03 0.0000E+00 0.9000E+01
        2  1    1    2  501    0 -.36278173E+03 -.50348271E+03 -.77382498E+03 0.99192269E+03 0.32000000E+00 0.0000E+00 0.9000E+01
        2  1    1    2  502    0 -.10427853E+03 0.13175694E+02 0.50043627E+03 0.51135523E+03 0.32000000E+00 0.0000E+00 0.9000E+01
#aMCatNLO 1  0  0  2  4 0.44002214D+02 0.00000000D+00  -5  6  0 0.00000000D+00 0.00000000D+00 0.00000000D+00 0.00000000D+00 0.00000000D+00
  <mgrwgt>
 0.1319195936D-02   11    2    0
 0.133923582418841D+04 0.000000000000000D+00 0.000000000000000D+00 0.133923582418841D+04
 0.133923582418841D+04 0.000000000000000D+00 0.000000000000000D+00 -.133923582418841D+04
 0.102003646412045D+04 0.467047570114311D+03 0.490373384209196D+03 0.752495780350217D+03
 0.127844135025897D+04 -.362830646512932D+03 -.503541294056522D+03 -.111768169582528D+04
 0.379993833997401D+03 -.104216923601380D+03 0.131679098473256D+02 0.365185915475065D+03
 0.000000000000000D+00 0.000000000000000D+00 0.000000000000000D+00 -.000000000000000D+00
 0.134309857799588D+04 0.000000000000000D+00 0.000000000000000D+00 0.134309857799588D+04
 0.147087835165072D+04 0.000000000000000D+00 0.000000000000000D+00 -.147087835165072D+04
 0.100961688574416D+04 0.452329677287915D+03 0.482544526007140D+03 0.752495780350217D+03
 0.128776111194749D+04 -.381439288630123D+03 -.513439750458311D+03 -.111768169582528D+04
 0.381455062798281D+03 -.109738518339005D+03 0.102308194118958D+02 0.365185915475065D+03
 0.135143869156678D+03 0.388481296812137D+02 0.206644050392756D+02 -.127779773654838D+03
0.168170191225D-04 0.000000000000D+00 0.000000000000D+00 0.411110021336D-06 0.000000000000D+00  6 2 2 25 2 2 21 0 0.27958699D+00 0.15183449D+00 0.50008224D+06 0.50008224D+06 0.50008224D+06 0.10685053D+01  1  2  2  2  6  2        2 0.604022383136D-04 0.100000000000D+01
0.228266382259D-05 0.000000000000D+00 -.645817814534D-07 0.411110021336D-06 0.000000000000D+00  6 2 2 25 2 2 21 2 0.27958699D+00 0.15183449D+00 0.50008224D+06 0.50008224D+06 0.50008224D+06 0.10685053D+01  1  2  3  2  6  2        2 0.936050695961D-05 0.100000000000D+01
-.128063190746D-04 0.000000000000D+00 0.000000000000D+00 0.411110021336D-06 0.000000000000D+00  6 2 2 25 2 2 21 2 0.27958699D+00 0.15183449D+00 0.50008224D+06 0.50008224D+06 0.50008224D+06 0.10685053D+01  1  2 15  2  6  2        2 -.525148020651D-04 0.100000000000D+01
0.126032206243D-08 0.000000000000D+00 0.000000000000D+00 0.411110021336D-06 0.000000000000D+00  6 2 2 25 2 2 21 2 0.27958699D+00 0.16755678D+00 0.53798417D+06 0.53798417D+06 0.53798417D+06 0.10662702D+01  1  2 12  2  6  2        2 0.442923538882D-08 0.100000000000D+01
0.530992755331D-03 0.000000000000D+00 0.000000000000D+00 0.411110021336D-06 0.000000000000D+00  6 2 2 25 2 2 21 2 0.27958699D+00 0.17047260D+00 0.53798417D+06 0.53798417D+06 0.53798417D+06 0.10662702D+01  1  2 12  2  6  2        2 0.181754366757D-02 0.100000000000D+01
-.225024060306D-03 0.000000000000D+00 0.000000000000D+00 0.411110021336D-06 0.000000000000D+00  6 2 2 25 2 2 21 2 0.27958699D+00 0.15183449D+00 0.50008224D+06 0.50008224D+06 0.50008224D+06 0.10685053D+01  1  2  4  2  6  2        2 -.922754924195D-03 0.100000000000D+01
-.767969335226D-03 0.000000000000D+00 -.393927960654D-04 0.411110021336D-06 0.000000000000D+00  6 2 2 25 2 2 21 2 0.27958699D+00 0.16696048D+00 0.50008224D+06 0.50008224D+06 0.50008224D+06 0.10685053D+01  1  2  5  2  6  2        2 -.273810059817D-02 0.100000000000D+01
0.768419659229D-03 0.000000000000D+00 0.392158279821D-04 0.411110021336D-06 0.000000000000D+00  6 2 2 25 2 2 21 2 0.27958699D+00 0.15183449D+00 0.50008224D+06 0.50008224D+06 0.50008224D+06 0.10685053D+01  1  2  6  2  6  2        2 0.315105426254D-02 0.100000000000D+01
0.203582415707D-10 0.000000000000D+00 0.000000000000D+00 0.411110021336D-06 0.000000000000D+00  6 2 21 25 2 2 -2 2 0.27958699D+00 0.16755678D+00 0.53798417D+06 0.53798417D+06 0.53798417D+06 0.10662702D+01  1  2 12  5  6  2        2 0.423408206837D-10 0.100000000000D+01
0.984717509099D-05 0.000000000000D+00 0.000000000000D+00 0.411110021336D-06 0.000000000000D+00  6 2 21 25 2 2 -2 2 0.27958699D+00 0.17047260D+00 0.53798417D+06 0.53798417D+06 0.53798417D+06 0.10662702D+01  1  2 12  5  6  2        2 0.193927223584D-04 0.100000000000D+01
-.118330669024D-04 0.000000000000D+00 -.611812646090D-06 0.411110021336D-06 0.000000000000D+00  6 2 21 25 2 2 -2 2 0.27958699D+00 0.16696048D+00 0.50008224D+06 0.50008224D+06 0.50008224D+06 0.10685053D+01  1  2  5  5  6  2        2 -.251916093573D-04 0.100000000000D+01
  </mgrwgt>
  </event>
  <event>
  5     66 0.18411016E-05 0.46373599E+02 0.75467711E-02 0.91622913E-01
        2 -1    0    0  502    0 0.00000000E+00 0.00000000E+00 0.10296223E+04 0.10296223E+04 0.32000000E+00 0.0000E+00 0.9000E+01
        2 -1    0    0  501    0 0.00000000E+00 0.00000000E+00 -.15955116E+04 0.15955116E+04 0.32000000E+00 0.0000E+00 0.9000E+01
       25  1    1    2    0    0 0.47287894E+03 -.20351499E+03 -.54748540E+03 0.76183864E+03 0.12500000E+03 0.0000E+00 0.9000E+01
        2  1    1    2  501    0 -.45943268E+02 0.62881601E+01 -.88025770E+03 0.88147833E+03 0.32000000E+00 0.0000E+00 0.9000E+01
        2  1    1    2  502    0 -.42693567E+03 0.19722683E+03 0.86185377E+03 0.98181695E+03 0.32000000E+00 0.0000E+00 0.9000E+01
#aMCatNLO 1  0  0  1  5 0.32783277D+03 0.00000000D+00  -5  6  0 0.00000000D+00 0.00000000D+00 0.00000000D+00 0.00000000D+00 0.00000000D+00
  <mgrwgt>
 0.5536353809D-02    7    2    0
 0.128170758491648D+04 0.000000000000000D+00 0.000000000000000D+00 0.128170758491648D+04
 0.128170758491648D+04 0.000000000000000D+00 0.000000000000000D+00 -.128170758491648D+04
 0.659302317820972D+03 0.472878730034663D+03 -.203514314300812D+03 -.392456592299812D+03
 0.708403687777328D+03 -.459452441695462D+02 0.628849612619121D+01 -.706884201415755D+03
 0.119570916423466D+04 -.426933485865117D+03 0.197225818174621D+03 0.109934079371557D+04
 0.000000000000000D+00 -.000000000000000D+00 0.000000000000000D+00 0.000000000000000D+00
 0.149204073331348D+04 0.000000000000000D+00 0.000000000000000D+00 0.149204073331348D+04
 0.142656070418012D+04 0.000000000000000D+00 0.000000000000000D+00 -.142656070418012D+04
 0.728435852311165D+03 0.560202011110722D+03 -.217129732741085D+03 -.392456592299812D+03
 0.708243735200635D+03 0.431971486570490D+02 -.761055764440831D+01 -.706884201415755D+03
 0.114761367292884D+04 -.279480138277154D+03 0.174234938731136D+03 0.109934079371557D+04
 0.334308177052961D+03 -.323919021490617D+03 0.505053516543575D+02 0.654800291333554D+02
0.780899488530D-03 0.000000000000D+00 0.000000000000D+00 0.317088294353D-04 0.000000000000D+00  6 2 2 25 2 2 21 0 0.15840343D+00 0.24546333D+00 0.27375500D+06 0.27375500D+06 0.27375500D+06 0.10875057D+01  1  2  2  1  6  1        2 0.362232008068D-02 0.100000000000D+01
0.314838528896D-03 0.000000000000D+00 -.299885965151D-05 0.317088294353D-04 0.000000000000D+00  6 2 2 25 2 2 21 2 0.15840343D+00 0.24546333D+00 0.27375500D+06 0.27375500D+06 0.27375500D+06 0.10875057D+01  1  2  3  1  6  1        2 0.172720017587D-02 0.100000000000D+01
-.558498559730D-03 0.000000000000D+00 0.000000000000D+00 0.317088294353D-04 0.000000000000D+00  6 2 2 25 2 2 21 2 0.15840343D+00 0.24546333D+00 0.27375500D+06 0.27375500D+06 0.27375500D+06 0.10875057D+01  1  2 15  1  6  1        2 -.306391601426D-02 0.100000000000D+01
-.324410193840D-04 0.000000000000D+00 0.000000000000D+00 0.317088294353D-04 0.000000000000D+00  6 2 2 25 2 2 21 2 0.15840343D+00 0.24546333D+00 0.27375500D+06 0.27375500D+06 0.27375500D+06 0.10875057D+01  1  2  4  1  6  1        2 -.177971020834D-03 0.100000000000D+01
-.153622718548D-02 0.000000000000D+00 -.910180523956D-03 0.317088294353D-04 0.000000000000D+00  6 2 2 25 2 2 21 2 0.19820689D+00 0.24546333D+00 0.27375500D+06 0.27375500D+06 0.27375500D+06 0.10875057D+01  1  2  5  1  6  1        2 -.594056216199D-02 0.100000000000D+01
0.171927968981D-02 0.000000000000D+00 0.887781234990D-03 0.317088294353D-04 0.000000000000D+00  6 2 2 25 2 2 21 2 0.15840343D+00 0.24546333D+00 0.27375500D+06 0.27375500D+06 0.27375500D+06 0.10875057D+01  1  2  6  1  6  1        2 0.943194656966D-02 0.100000000000D+01
-.352104678453D-04 0.000000000000D+00 -.284018122355D-04 0.317088294353D-04 0.000000000000D+00  6 21 2 25 2 2 -2 2 0.19820689D+00 0.24546333D+00 0.27375500D+06 0.27375500D+06 0.27375500D+06 0.10875057D+01  1  2  5  4  6  1        2 -.626638197578D-04 0.100000000000D+01
  </mgrwgt>
  </event>
  <event>
  5     66 0.18411016E-05 0.29420713E+02 0.75467711E-02 0.84077885E-01
        2 -1    0    0  502    0 0.00000000E+00 0.00000000E+00 0.39899560E+04 0.39899560E+04 0.32000000E+00 0.0000E+00 0.9000E+01
        2 -1    0    0  501    0 0.00000000E+00 0.00000000E+00 -.67467189E+03 0.67467197E+03 0.32000000E+00 0.0000E+00 0.9000E+01
       25  1    1    2    0    0 -.64337700E+03 0.13574479E+03 0.22630519E+04 0.23599554E+04 0.12500000E+03 0.0000E+00 0.9000E+01
        2  1    1    2  501    0 0.62981863E+03 -.10962417E+03 -.46288293E+03 0.78927161E+03 0.32000000E+00 0.0000E+00 0.9000E+01
        2  1    1    2  502    0 0.13558364E+02 -.26120621E+02 0.15151151E+04 0.15154009E+04 0.32000000E+00 0.0000E+00 0.9000E+01
#aMCatNLO 1  0  0  2  5 0.56367023D+02 0.00000000D+00  -5  6  0 0.00000000D+00 0.00000000D+00 0.00000000D+00 0.00000000D+00 0.00000000D+00
  <mgrwgt>
 0.6419110147D-02    4    2    0
 0.164070453560943D+04 0.000000000000000D+00 0.000000000000000D+00 0.164070453560943D+04
 0.164070453560943D+04 0.000000000000000D+00 0.000000000000000D+00 -.164070453560943D+04
 0.106851562652455D+04 -.643433376256737D+03 0.135747865028986D+03 0.832866526873356D+03
 0.158965228760586D+04 0.629879221925646D+03 -.109635353144210D+03 -.145541287977599D+04
 0.623241157088439D+03 0.135541543310919D+02 -.261125118847758D+02 0.622546352902636D+03
 0.000000000000000D+00 -.000000000000000D+00 0.000000000000000D+00 0.000000000000000D+00
 0.227133385339284D+04 0.000000000000000D+00 0.000000000000000D+00 0.227133385339284D+04
 0.222635383129625D+04 0.000000000000000D+00 0.000000000000000D+00 -.222635383129625D+04
 0.960639546682997D+03 -.447867858907286D+03 -.113802759294446D+03 0.832866526873356D+03
 0.182130449452988D+04 0.958619742395820D+03 -.529123426684043D+03 -.145541287977599D+04
 0.663695026257864D+03 0.137586236162473D+03 -.184383171644534D+03 0.622546352902636D+03
 0.105204861721834D+04 -.648338119651007D+03 0.827309357623022D+03 0.449800220965924D+02
0.317730420040D-01 0.000000000000D+00 0.000000000000D+00 0.262183518707D-04 0.000000000000D+00  6 2 2 25 2 2 21 0 0.61383939D+00 0.10379568D+00 0.44765618D+06 0.44765618D+06 0.44765618D+06 0.10719212D+01  1  2  2  2  6  2        2 0.756095225128D-02 0.100000000000D+01
0.167598938151D-01 0.000000000000D+00 -.122016847329D-03 0.262183518707D-04 0.000000000000D+00  6 2 2 25 2 2 21 2 0.61383939D+00 0.10379568D+00 0.44765618D+06 0.44765618D+06 0.44765618D+06 0.10719212D+01  1  2  3  2  6  2        2 0.458262894533D-02 0.100000000000D+01
-.208459138433D-01 0.000000000000D+00 0.000000000000D+00 0.262183518707D-04 0.000000000000D+00  6 2 2 25 2 2 21 2 0.61383939D+00 0.10379568D+00 0.44765618D+06 0.44765618D+06 0.44765618D+06 0.10719212D+01  1  2 15  2  6  2        2 -.569986237529D-02 0.100000000000D+01
-.900004725872D-04 0.000000000000D+00 0.000000000000D+00 0.262183518707D-04 0.000000000000D+00  6 2 2 25 2 2 21 2 0.61383939D+00 0.10379568D+00 0.44765618D+06 0.44765618D+06 0.44765618D+06 0.10719212D+01  1  2  4  2  6  2        2 -.246086744536D-04 0.100000000000D+01
  </mgrwgt>
  </event>
  <event>
  5     66 -.18411016E-05 0.27807721E+02 0.75467711E-02 0.94149796E-01
        2 -1    0    0  502    0 0.00000000E+00 0.00000000E+00 0.73618372E+03 0.73618379E+03 0.32000000E+00 0.0000E+00 0.9000E+01
        2 -1    0    0  501    0 0.00000000E+00 0.00000000E+00 -.95937761E+03 0.95937767E+03 0.32000000E+00 0.0000E+00 0.9000E+01
       25  1    1    2    0    0 0.50241107E+03 0.25802816E+02 -.91257153E+02 0.52634166E+03 0.12500000E+03 0.0000E+00 0.9000E+01
        2  1    1    2  501    0 -.49672890E+03 0.14252634E+01 -.55523890E+03 0.74500468E+03 0.32000000E+00 0.0000E+00 0.9000E+01
        2  1    1    2  502    0 -.56821699E+01 -.27228079E+02 0.42330215E+03 0.42421512E+03 0.32000000E+00 0.0000E+00 0.9000E+01
#aMCatNLO 1  0  0  1  5 0.22710977D+02 0.00000000D+00  -5  6  0 0.00000000D+00 0.00000000D+00 0.00000000D+00 0.00000000D+00 0.00000000D+00
  <mgrwgt>
 -.8714498161D-03    1    2    0
 0.840403643771272D+03 0.000000000000000D+00 0.000000000000000D+00 0.840403643771272D+03
 0.840403643771272D+03 0.000000000000000D+00 0.000000000000000D+00 -.840403643771272D+03
 0.518923066000639D+03 0.502496900093024D+03 0.257992424840638D+02 -.220774299150544D+02
 0.677856050049517D+03 -.496816147781339D+03 0.142204378590750D+01 -.461151295871447D+03
 0.484028171492388D+03 -.568075231168486D+01 -.272212862699713D+02 0.483228725786502D+03
 0.000000000000000D+00 -.000000000000000D+00 0.000000000000000D+00 0.000000000000000D+00
 0.108773784350009D+04 0.000000000000000D+00 0.000000000000000D+00 0.108773784350009D+04
 0.882275050812648D+03 0.000000000000000D+00 0.000000000000000D+00 -.882275050812648D+03
 0.575440121892187D+03 0.561196230744455D+03 0.881541660146596D+01 -.220774299150544D+02
 0.628588903936201D+03 -.426741199007192D+03 -.188531572343455D+02 -.461151295871447D+03
 0.487292132950224D+03 0.464188178764431D+02 -.422955642696264D+02 0.483228725786502D+03
 0.278691735534124D+03 -.180873849613706D+03 0.523333049025059D+02 0.205462792687440D+03
-.436637593516D-04 0.000000000000D+00 0.000000000000D+00 0.349290182750D-05 0.000000000000D+00  6 2 2 25 2 2 21 2 0.11325904D+00 0.14759657D+00 0.27200351D+06 0.27200351D+06 0.27200351D+06 0.10877138D+01  1  2 14  1  6  1        2 -.871449816077D-03 0.100000000000D+01
  </mgrwgt>
  </event>
  <event>
  5     66 0.18411016E-05 0.26163660E+03 0.75467711E-02 0.88223707E-01
        2 -1    0    0  502    0 0.00000000E+00 0.00000000E+00 0.12623507E+04 0.12623508E+04 0.32000000E+00 0.0000E+00 0.9000E+01
        2 -1    0    0  501    0 -.00000000E+00 -.00000000E+00 -.37522000E+04 0.37522000E+04 0.32000000E+00 0.0000E+00 0.9000E+01
       25  1    1    2    0    0 -.20991594E+03 -.53578517E+03 -.49981735E+03 0.77238127E+03 0.12500000E+03 0.0000E+00 0.9000E+01
        2  1    1    2  501    0 -.28304387E+01 0.26160592E+03 -.30836915E+04 0.30947696E+04 0.32000000E+00 0.0000E+00 0.9000E+01
        2  1    1    2  502    0 0.21274638E+03 0.27417924E+03 0.10936596E+04 0.11473999E+04 0.32000000E+00 0.0000E+00 0.9000E+01
#aMCatNLO 1  0  0  5  1 0.21999130D+02 0.00000000D+00  -5  6  0 0.00000000D+00 0.00000000D+00 0.00000000D+00 0.00000000D+00 0.00000000D+00
  <mgrwgt>
 0.7509722492D-03    6    2    0
 0.217637142602692D+04 0.000000000000000D+00 0.000000000000000D+00 0.217637142602692D+04
 0.217637142602692D+04 -.000000000000000D+00 -.000000000000000D+00 -.217637142602692D+04
 0.603911130588692D+03 -.209913610861603D+03 -.535796998584044D+03 -.133945906739569D+03
 0.180140839139408D+04 -.283002152834805D+01 0.261621297649214D+03 -.178230706674789D+04
 0.194742333007108D+04 0.212743632389951D+03 0.274175700934830D+03 0.191625297348746D+04
 0.000000000000000D+00 0.000000000000000D+00 0.000000000000000D+00 0.000000000000000D+00
 0.217637142602692D+04 0.000000000000000D+00 0.000000000000000D+00 0.217637142602692D+04
 0.217637142602692D+04 -.000000000000000D+00 -.000000000000000D+00 -.217637142602692D+04
 0.591976814134368D+03 -.206261418728125D+03 -.531090195720448D+03 -.101049392014767D+03
 0.170813774454412D+04 0.788798666490162D+01 0.275434248833685D+03 -.168576638611999D+04
 0.107499706228553D+04 0.539910010888182D+03 0.319352432642844D+03 0.873000508493743D+03
 0.977631231089831D+03 -.341536578824959D+03 -.636964857560813D+02 0.913815269641018D+03
0.533707218946D-02 0.000000000000D+00 0.000000000000D+00 0.218935972036D-04 0.000000000000D+00  6 2 2 25 2 2 21 0 0.19420781D+00 0.57726154D+00 0.35852513D+06 0.35852513D+06 0.35852513D+06 0.10788716D+01  1  2  2  3  6  5        2 0.835019954594D-03 0.100000000000D+01
0.735591441708D-03 0.000000000000D+00 -.204957624909D-04 0.218935972036D-04 0.000000000000D+00  6 2 2 25 2 2 21 2 0.19420781D+00 0.57726154D+00 0.35852513D+06 0.35852513D+06 0.35852513D+06 0.10788716D+01  1  2  3  3  6  5        2 0.133958410716D-03 0.100000000000D+01
-.364346664656D-02 0.000000000000D+00 0.000000000000D+00 0.218935972036D-04 0.000000000000D+00  6 2 2 25 2 2 21 2 0.19420781D+00 0.57726154D+00 0.35852513D+06 0.35852513D+06 0.35852513D+06 0.10788716D+01  1  2 15  3  6  5        2 -.663510984220D-03 0.100000000000D+01
-.136684183054D-03 0.000000000000D+00 0.000000000000D+00 0.218935972036D-04 0.000000000000D+00  6 2 2 25 2 2 21 2 0.19420781D+00 0.57726154D+00 0.35852513D+06 0.35852513D+06 0.35852513D+06 0.10788716D+01  1  2  4  3  6  5        2 -.248915293108D-04 0.100000000000D+01
-.428666371058D-02 0.000000000000D+00 0.000000000000D+00 0.218935972036D-04 0.000000000000D+00  6 2 2 25 2 2 21 2 0.19420781D+00 0.57726154D+00 0.35852513D+06 0.35852513D+06 0.35852513D+06 0.10788716D+01  1  2  5  3  6  5        2 -.780643473246D-03 0.100000000000D+01
0.686970095530D-02 0.000000000000D+00 -.000000000000D+00 0.218935972036D-04 0.000000000000D+00  6 2 2 25 2 2 21 2 0.19420781D+00 0.57726154D+00 0.35852513D+06 0.35852513D+06 0.35852513D+06 0.10788716D+01  1  2  6  3  6  5        2 0.125103987063D-02 0.100000000000D+01
  </mgrwgt>
  </event>
  <event>
  5     66 -.18411016E-05 0.10696268E+03 0.75467711E-02 0.94993279E-01
        2 -1    0    0  502    0 0.00000000E+00 0.00000000E+00 0.26963269E+04 0.26963269E+04 0.32000000E+00 0.0000E+00 0.9000E+01
        2 -1    0    0  501    0 0.00000000E+00 0.00000000E+00 -.37175767E+03 0.37175781E+03 0.32000000E+00 0.0000E+00 0.9000E+01
       25  1    1    2    0    0 0.45074140E+03 0.22388731E+02 0.26461105E+03 0.53787831E+03 0.12500000E+03 0.0000E+00 0.9000E+01
        2  1    1    2  501    0 -.98823431E+02 -.40899483E+02 -.20861026E+03 0.23442948E+03 0.32000000E+00 0.0000E+00 0.9000E+01
        2  1    1    2  502    0 -.35191797E+03 0.18510752E+02 0.22685685E+04 0.22957770E+04 0.32000000E+00 0.0000E+00 0.9000E+01
#aMCatNLO 1  0  0  2  5 0.40436192D+02 0.00000000D+00  -5  6  0 0.00000000D+00 0.00000000D+00 0.00000000D+00 0.00000000D+00 0.00000000D+00
  <mgrwgt>
 -.4351613271D-03    9    2    0
 0.100118952117291D+04 0.000000000000000D+00 0.000000000000000D+00 0.100118952117291D+04
 0.100118952117291D+04 0.000000000000000D+00 0.000000000000000D+00 -.100118952117291D+04
 0.516938040098667D+03 0.450743603567866D+03 0.223925396878272D+02 -.218926278253740D+03
 0.601414325007478D+03 -.988330260991924D+02 -.409029027900238D+02 -.591826136478972D+03
 0.884026677239683D+03 -.351910577468674D+03 0.185103631021966D+02 0.810752414732713D+03
 0.000000000000000D+00 -.000000000000000D+00 0.000000000000000D+00 -.000000000000000D+00
 0.100383031820828D+04 0.000000000000000D+00 0.000000000000000D+00 0.100383031820828D+04
 0.116915151201901D+04 0.000000000000000D+00 0.000000000000000D+00 -.116915151201901D+04
 0.518609100717464D+03 0.453048528018908D+03 0.121948881439178D+02 -.218926278253740D+03
 0.601902603219883D+03 -.961546790680389D+02 -.527526836906586D+02 -.591826136478972D+03
 0.882275582528437D+03 -.347979135715802D+03 0.111652919895265D+01 0.810752414732713D+03
 0.170194543761504D+03 -.891471323506709D+01 0.394412663477881D+02 -.165321193810733D+03
0.829257067321D-04 0.000000000000D+00 0.000000000000D+00 0.633887070112D-05 0.000000000000D+00  6 2 2 25 2 2 21 0 0.41481954D+00 0.57193500D-01 0.21513385D+06 0.21513385D+06 0.21513385D+06 0.10954006D+01  1  2  2  2  6  2        2 0.325428494059D-03 0.100000000000D+01
0.141929630621D-04 0.000000000000D+00 -.318456548691D-06 0.633887070112D-05 0.000000000000D+00  6 2 2 25 2 2 21 2 0.41481954D+00 0.57193500D-01 0.21513385D+06 0.21513385D+06 0.21513385D+06 0.10954006D+01  1  2  3  2  6  2        2 0.668321510348D-04 0.100000000000D+01
-.581402434082D-04 0.000000000000D+00 0.000000000000D+00 0.633887070112D-05 0.000000000000D+00  6 2 2 25 2 2 21 2 0.41481954D+00 0.57193500D-01 0.21513385D+06 0.21513385D+06 0.21513385D+06 0.10954006D+01  1  2 15  2  6  2        2 -.273772115918D-03 0.100000000000D+01
0.830609446176D-09 0.000000000000D+00 0.000000000000D+00 0.633887070112D-05 0.000000000000D+00  6 2 2 25 2 2 21 2 0.41481954D+00 0.66870694D-01 0.23436573D+06 0.23436573D+06 0.23436573D+06 0.10925753D+01  1  2 12  2  6  2        2 0.325476936707D-08 0.100000000000D+01
-.579513498514D-03 0.000000000000D+00 0.000000000000D+00 0.633887070112D-05 0.000000000000D+00  6 2 2 25 2 2 21 2 0.41481954D+00 0.57193500D-01 0.21513385D+06 0.21513385D+06 0.21513385D+06 0.10954006D+01  1  2  4  2  6  2        2 -.272882649591D-02 0.100000000000D+01
-.429369828602D-02 0.000000000000D+00 -.136214973456D-03 0.633887070112D-05 0.000000000000D+00  6 2 2 25 2 2 21 2 0.41481954D+00 0.66870693D-01 0.21513385D+06 0.21513385D+06 0.21513385D+06 0.10954006D+01  1  2  5  2  6  2        2 -.170086629996D-01 0.100000000000D+01
0.426442975993D-02 0.000000000000D+00 0.134567469764D-03 0.633887070112D-05 0.000000000000D+00  6 2 2 25 2 2 21 2 0.41481954D+00 0.57193500D-01 0.21513385D+06 0.21513385D+06 0.21513385D+06 0.10954006D+01  1  2  6  2  6  2        2 0.200804449744D-01 0.100000000000D+01
0.195882930524D-10 0.000000000000D+00 0.000000000000D+00 0.633887070112D-05 0.000000000000D+00  6 2 21 25 2 2 -2 2 0.41481954D+00 0.66870694D-01 0.23436573D+06 0.23436573D+06 0.23436573D+06 0.10925753D+01  1  2 12  5  6  2        2 0.172768640914D-09 0.100000000000D+01
-.100240472863D-03 0.000000000000D+00 -.321236238038D-05 0.633887070112D-05 0.000000000000D+00  6 2 21 25 2 2 -2 2 0.41481954D+00 0.66870693D-01 0.21513385D+06 0.21513385D+06 0.21513385D+06 0.10954006D+01  1  2  5  5  6  2        2 -.896608762693D-03 0.100000000000D+01
  </mgrwgt>
  </event>
  <event>
  5     66 0.18411016E-05 0.35927726E+02 0.75467711E-02 0.85637933E-01
        2 -1    0    0  502    0 0.00000000E+00 0.00000000E+00 0.31605980E+04 0.31605980E+04 0.32000000E+00 0.0000E+00 0.9000E+01
        2 -1    0    0  501    0 0.00000000E+00 0.00000000E+00 -.64155529E+03 0.64155537E+03 0.32000000E+00 0.0000E+00 0.9000E+01
       25  1    1    2    0    0 0.78219936E+02 0.55581663E+03 0.49239923E+03 0.75705514E+03 0.12500000E+03 0.0000E+00 0.9000E+01
        2  1    1    2  501    0 -.44555932E+02 -.54325890E+03 -.36318777E+03 0.65499689E+03 0.32000000E+00 0.0000E+00 0.9000E+01
        2  1    1    2  502    0 -.33664004E+02 -.12557728E+02 0.23898312E+04 0.23901013E+04 0.32000000E+00 0.0000E+00 0.9000E+01
#aMCatNLO 1  0  0  2  4 0.22669545D+02 0.00000000D+00  -5  6  0 0.00000000D+00 0.00000000D+00 0.00000000D+00 0.00000000D+00 0.00000000D+00
  <mgrwgt>
 0.3032442489D-01    3    2    0
 0.142397280118810D+04 0.000000000000000D+00 0.000000000000000D+00 0.142397280118810D+04
 0.142397280118810D+04 0.000000000000000D+00 0.000000000000000D+00 -.142397280118810D+04
 0.575224522897354D+03 0.782232219038631D+02 0.555869429289031D+03 -.121883911717117D+02
 0.119571507085145D+04 -.445613066206369D+02 -.543312480717644D+03 -.106421819609983D+04
 0.107700600862740D+04 -.336619152832262D+02 -.125569485713861D+02 0.107640658727154D+04
 0.000000000000000D+00 -.000000000000000D+00 -.000000000000000D+00 0.000000000000000D+00
 0.225552294121268D+04 0.000000000000000D+00 0.000000000000000D+00 0.225552294121268D+04
 0.190075042390328D+04 0.000000000000000D+00 0.000000000000000D+00 -.190075042390328D+04
 0.822534521498033D+03 0.105394200821237D+03 0.806028252984904D+03 -.121883911717117D+02
 0.107303493417276D+04 -.459171275865195D+00 -.137271228620177D+03 -.106421819609983D+04
 0.114315498346671D+04 0.949570029525738D+01 0.384788262267845D+03 0.107640658727154D+04
 0.111754892597846D+04 -.114430729840629D+03 -.105354528663257D+04 0.354772517309401D+03
0.279231309148D-01 0.000000000000D+00 0.000000000000D+00 0.389917276609D-04 0.000000000000D+00  6 2 2 25 2 2 21 0 0.48624585D+00 0.98700821D-01 0.33417645D+06 0.33417645D+06 0.33417645D+06 0.10811023D+01  1  2  2  2  6  2        2 0.293075242419D-01 0.100000000000D+01
0.180021659202D-01 0.000000000000D+00 -.107232175042D-03 0.389917276609D-04 0.000000000000D+00  6 2 2 25 2 2 21 2 0.48624585D+00 0.98700821D-01 0.33417645D+06 0.33417645D+06 0.33417645D+06 0.10811023D+01  1  2  3  2  6  2        2 0.220837770062D-01 0.100000000000D+01
-.171732128752D-01 0.000000000000D+00 0.000000000000D+00 0.389917276609D-04 0.000000000000D+00  6 2 2 25 2 2 21 2 0.48624585D+00 0.98700821D-01 0.33417645D+06 0.33417645D+06 0.33417645D+06 0.10811023D+01  1  2 15  2  6  2        2 -.210668763579D-01 0.100000000000D+01
  </mgrwgt>
  </event>
  <event>
  5     66 0.18411016E-05 0.17135648E+02 0.75467711E-02 0.91946044E-01
        2 -1    0    0  502    0 0.00000000E+00 0.00000000E+00 0.75448173E+03 0.75448180E+03 0.32000000E+00 0.0000E+00 0.9000E+01
        2 -1    0    0  501    0 -.00000000E+00 -.00000000E+00 -.20713122E+04 0.20713122E+04 0.32000000E+00 0.0000E+00 0.9000E+01
       25  1    1    2    0    0 -.35070579E+03 -.28661663E+03 -.31290310E+03 0.56451483E+03 0.12500000E+03 0.0000E+00 0.9000E+01
        2  1    1    2  501    0 0.35871923E+03 0.30176416E+03 -.15988284E+04 0.16661312E+04 0.32000000E+00 0.0000E+00 0.9000E+01
        2  1    1    2  502    0 -.80134325E+01 -.15147531E+02 0.59490104E+03 0.59514789E+03 0.32000000E+00 0.0000E+00 0.9000E+01
#aMCatNLO 1  0  0  5  1 0.26397917D+02 0.00000000D+00  -5  6  0 0.00000000D+00 0.00000000D+00 0.00000000D+00 0.00000000D+00 0.00000000D+00
  <mgrwgt>
 0.4887934545D-02    6    2    0
 0.125010691829218D+04 0.000000000000000D+00 0.000000000000000D+00 0.125010691829218D+04
 0.125010691829218D+04 -.000000000000000D+00 -.000000000000000D+00 -.125010691829218D+04
 0.473266926897427D+03 -.350743765113114D+03 -.286648758559262D+03 -.562839634855764D+02
 0.104102593898837D+04 0.358756756318722D+03 0.301795455158869D+03 -.929488084209653D+03
 0.985920970698558D+03 -.801299120560633D+01 -.151466965996035D+02 0.985772047695229D+03
 0.000000000000000D+00 -.000000000000000D+00 0.000000000000000D+00 0.000000000000000D+00
 0.125010691829218D+04 0.000000000000000D+00 0.000000000000000D+00 0.125010691829218D+04
 0.125010691829218D+04 -.000000000000000D+00 -.000000000000000D+00 -.125010691829218D+04
 0.472041500044882D+03 -.350855446862524D+03 -.286859866936972D+03 -.425446813646927D+02
 0.101422196816453D+04 0.358513942782738D+03 0.301336472630938D+03 -.899616742730061D+03
 0.696098675333105D+03 0.142889691127832D+03 0.755014038421834D+02 0.677078606948820D+03
 0.317851693041839D+03 -.150548187048043D+03 -.899780095361457D+02 0.265082817145933D+03
0.606453217076D-03 0.000000000000D+00 0.000000000000D+00 0.570323361470D-04 0.000000000000D+00  6 2 2 25 2 2 21 0 0.11607412D+00 0.31866341D+00 0.22841622D+06 0.22841622D+06 0.22841622D+06 0.10934214D+01  1  2  2  3  6  5        2 0.237802252884D-02 0.100000000000D+01
0.557264509797D-03 0.000000000000D+00 -.232894003637D-05 0.570323361470D-04 0.000000000000D+00  6 2 2 25 2 2 21 2 0.11607412D+00 0.31866341D+00 0.22841622D+06 0.22841622D+06 0.22841622D+06 0.10934214D+01  1  2  3  3  6  5        2 0.261249334949D-02 0.100000000000D+01
-.463793110321D-03 0.000000000000D+00 0.000000000000D+00 0.570323361470D-04 0.000000000000D+00  6 2 2 25 2 2 21 2 0.11607412D+00 0.31866341D+00 0.22841622D+06 0.22841622D+06 0.22841622D+06 0.10934214D+01  1  2 15  3  6  5        2 -.217429316770D-02 0.100000000000D+01
-.102865502128D-04 0.000000000000D+00 0.000000000000D+00 0.570323361470D-04 0.000000000000D+00  6 2 2 25 2 2 21 2 0.11607412D+00 0.31866341D+00 0.22841622D+06 0.22841622D+06 0.22841622D+06 0.10934214D+01  1  2  4  3  6  5        2 -.482240364274D-04 0.100000000000D+01
-.121999180124D-02 0.000000000000D+00 0.000000000000D+00 0.570323361470D-04 0.000000000000D+00  6 2 2 25 2 2 21 2 0.11607412D+00 0.31866341D+00 0.22841622D+06 0.22841622D+06 0.22841622D+06 0.10934214D+01  1  2  5  3  6  5        2 -.571940328361D-02 0.100000000000D+01
0.167219009061D-02 0.000000000000D+00 -.000000000000D+00 0.570323361470D-04 0.000000000000D+00  6 2 2 25 2 2 21 2 0.11607412D+00 0.31866341D+00 0.22841622D+06 0.22841622D+06 0.22841622D+06 0.10934214D+01  1  2  6  3  6  5        2 0.783933915400D-02 0.100000000000D+01
  </mgrwgt>
  </event>
  <event>
  5     66 0.18411016E-05 0.19411577E+02 0.75467711E-02 0.89864254E-01
        2 -1    0    0  502    0 0.00000000E+00 0.00000000E+00 0.22629872E+04 0.22629872E+04 0.32000000E+00 0.0000E+00 0.9000E+01
        2 -1    0    0  501    0 0.00000000E+00 0.00000000E+00 -.10352718E+04 0.10352718E+04 0.32000000E+00 0.0000E+00 0.9000E+01
       25  1    1    2    0    0 -.42232104E+03 0.43727043E+03 0.70166057E+03 0.93675667E+03 0.12500000E+03 0.0000E+00 0.9000E+01
        2  1    1    2  501    0 0.40421418E+03 -.44427411E+03 -.81936809E+03 0.10159394E+04 0.32000000E+00 0.0000E+00 0.9000E+01
        2  1    1    2  502    0 0.18106860E+02 0.70036849E+01 0.13454229E+04 0.13455630E+04 0.32000000E+00 0.0000E+00 0.9000E+01
#aMCatNLO 1  0  0  5  1 0.48092886D+02 0.00000000D+00  -5  6  0 0.00000000D+00 0.00000000D+00 0.00000000D+00 0.00000000D+00 0.00000000D+00
  <mgrwgt>
 0.8114570681D-02    4    2    0
 0.153062304754569D+04 0.000000000000000D+00 0.000000000000000D+00 0.153062304754569D+04
 0.153062304754569D+04 -.000000000000000D+00 -.000000000000000D+00 -.153062304754569D+04
 0.727988836219697D+03 -.422359029411326D+03 0.437315105570081D+03 0.380409114474746D+03
 0.142322045378416D+04 0.404254587828249D+03 -.444317854887645D+03 -.129023886630246D+04
 0.910036805087526D+03 0.181044415830732D+02 0.700274931756238D+01 0.909829751827710D+03
 0.000000000000000D+00 0.000000000000000D+00 0.000000000000000D+00 0.000000000000000D+00
 0.153062304754569D+04 0.000000000000000D+00 0.000000000000000D+00 0.153062304754569D+04
 0.153062304754569D+04 -.000000000000000D+00 -.000000000000000D+00 -.153062304754569D+04
 0.744369505137781D+03 -.421745014714955D+03 0.437552604803418D+03 0.411266119163603D+03
 0.137056146395924D+04 0.405419673193521D+03 -.443867203001525D+03 -.123168807787416D+04
 0.172851401655675D+03 -.119329641496536D+03 -.105464395139877D+03 0.671960197661981D+02
 0.773463724338689D+03 0.135654983017967D+03 0.111778993337982D+03 0.753225938944363D+03
0.431875074032D-02 0.000000000000D+00 0.000000000000D+00 0.487471640250D-04 0.000000000000D+00  6 2 2 25 2 2 21 0 0.34815188D+00 0.15927259D+00 0.38489724D+06 0.38489724D+06 0.38489724D+06 0.10766347D+01  1  2  2  3  6  5        2 0.834136494479D-02 0.100000000000D+01
0.370763002612D-02 0.000000000000D+00 -.165851399960D-04 0.487471640250D-04 0.000000000000D+00  6 2 2 25 2 2 21 2 0.34815188D+00 0.15927259D+00 0.38489724D+06 0.38489724D+06 0.38489724D+06 0.10766347D+01  1  2  3  3  6  5        2 0.830065005518D-02 0.100000000000D+01
-.292838226469D-02 0.000000000000D+00 0.000000000000D+00 0.487471640250D-04 0.000000000000D+00  6 2 2 25 2 2 21 2 0.34815188D+00 0.15927259D+00 0.38489724D+06 0.38489724D+06 0.38489724D+06 0.10766347D+01  1  2 15  3  6  5        2 -.655606849544D-02 0.100000000000D+01
-.880549372168D-03 0.000000000000D+00 0.000000000000D+00 0.487471640250D-04 0.000000000000D+00  6 2 2 25 2 2 21 2 0.34815188D+00 0.15927259D+00 0.38489724D+06 0.38489724D+06 0.38489724D+06 0.10766347D+01  1  2  5  3  6  5        2 -.197137582315D-02 0.100000000000D+01
  </mgrwgt>
  </event>
  <event>
  5     66 0.18411016E-05 0.44016439E+02 0.75467711E-02 0.88860645E-01
        2 -1    0    0  502    0 0.00000000E+00 0.00000000E+00 0.15348188E+04 0.15348189E+04 0.32000000E+00 0.0000E+00 0.9000E+01
        2 -1    0    0  501    0 0.00000000E+00 0.00000000E+00 -.20487864E+04 0.20487864E+04 0.32000000E+00 0.0000E+00 0.9000E+01
       25  1    1    2    0    0 0.51530699E+03 0.61396250E+03 -.20763588E+03 0.83739411E+03 0.12500000E+03 0.0000E+00 0.9000E+01
        2  1    1    2  501    0 -.53591935E+03 -.65285756E+03 -.14089398E+04 0.16427246E+04 0.32000000E+00 0.0000E+00 0.9000E+01
        2  1    1    2  502    0 0.20612358E+02 0.38895057E+02 0.11026082E+04 0.11034865E+04 0.32000000E+00 0.0000E+00 0.9000E+01
#aMCatNLO 1  0  0  1  4 0.16318459D+02 0.00000000D+00  -5  6  0 0.00000000D+00 0.00000000D+00 0.00000000D+00 0.00000000D+00 0.00000000D+00
  <mgrwgt>
 0.9493189315D-03    9    2    0
 0.177327830628903D+04 0.000000000000000D+00 0.000000000000000D+00 0.177327830628903D+04
 0.177327830628903D+04 0.000000000000000D+00 0.000000000000000D+00 -.177327830628903D+04
 0.816114750302590D+03 0.515351732297417D+03 0.614017343789197D+03 -.883944523461113D+02
 0.145571931814977D+04 -.535962772132091D+03 -.652909913532573D+03 -.118556791662638D+04
 0.127472254412570D+04 0.206110398346746D+02 0.388925697433754D+02 0.127396236897249D+04
 0.000000000000000D+00 -.000000000000000D+00 -.000000000000000D+00 0.000000000000000D+00
 0.186878447623364D+04 0.000000000000000D+00 0.000000000000000D+00 0.186878447623364D+04
 0.177399426911380D+04 0.000000000000000D+00 0.000000000000000D+00 -.177399426911380D+04
 0.819623566023875D+03 0.516738361573991D+03 0.617515729721884D+03 -.883944523461113D+02
 0.145203324498282D+04 -.533497845564784D+03 -.646691045538185D+03 -.118556791662638D+04
 0.127493734371817D+04 0.227724081969029D+02 0.443455778411503D+02 0.127396236897249D+04
 0.961845906225784D+02 -.601292420610986D+01 -.151702620248498D+02 0.947902071198390D+02
0.480928484547D-04 0.000000000000D+00 0.000000000000D+00 0.109893824886D-04 0.000000000000D+00  6 2 2 25 2 2 21 0 0.23612598D+00 0.31519790D+00 0.72254028D+06 0.72254028D+06 0.72254028D+06 0.10573903D+01  1  2  2  1  6  1        2 0.599900146488D-04 0.100000000000D+01
0.335990668407D-04 0.000000000000D+00 -.184689201204D-06 0.109893824886D-04 0.000000000000D+00  6 2 2 25 2 2 21 2 0.23612598D+00 0.31519790D+00 0.72254028D+06 0.72254028D+06 0.72254028D+06 0.10573903D+01  1  2  3  1  6  1        2 0.468593548217D-04 0.100000000000D+01
-.388419163327D-04 0.000000000000D+00 0.000000000000D+00 0.109893824886D-04 0.000000000000D+00  6 2 2 25 2 2 21 2 0.23612598D+00 0.31519790D+00 0.72254028D+06 0.72254028D+06 0.72254028D+06 0.10573903D+01  1  2 15  1  6  1        2 -.541713598184D-04 0.100000000000D+01
0.795694282123D-10 0.000000000000D+00 0.000000000000D+00 0.109893824886D-04 0.000000000000D+00  6 2 2 25 2 2 21 2 0.24890641D+00 0.31519790D+00 0.73905104D+06 0.73905104D+06 0.73905104D+06 0.10567194D+01  1  2 12  1  6  1        2 0.994720979315D-10 0.100000000000D+01
-.968785094978D-04 0.000000000000D+00 0.000000000000D+00 0.109893824886D-04 0.000000000000D+00  6 2 2 25 2 2 21 2 0.23612598D+00 0.31519790D+00 0.72254028D+06 0.72254028D+06 0.72254028D+06 0.10573903D+01  1  2  4  1  6  1        2 -.135112813480D-03 0.100000000000D+01
-.767155729135D-02 0.000000000000D+00 -.194733766683D-03 0.109893824886D-04 0.000000000000D+00  6 2 2 25 2 2 21 2 0.24888041D+00 0.31519790D+00 0.72254028D+06 0.72254028D+06 0.72254028D+06 0.10573903D+01  1  2  5  1  6  1        2 -.962238579155D-02 0.100000000000D+01
0.767145298438D-02 0.000000000000D+00 0.194464614012D-03 0.109893824886D-04 0.000000000000D+00  6 2 2 25 2 2 21 2 0.23612598D+00 0.31519790D+00 0.72254028D+06 0.72254028D+06 0.72254028D+06 0.10573903D+01  1  2  6  1  6  1        2 0.106990869448D-01 0.100000000000D+01
0.137390940333D-11 0.000000000000D+00 0.000000000000D+00 0.109893824886D-04 0.000000000000D+00  6 21 2 25 2 2 -2 2 0.24890641D+00 0.31519790D+00 0.73905104D+06 0.73905104D+06 0.73905104D+06 0.10567194D+01  1  2 12  4  6  1        2 0.500175658485D-12 0.100000000000D+01
-.122903220340D-03 0.000000000000D+00 -.177799592121D-05 0.109893824886D-04 0.000000000000D+00  6 21 2 25 2 2 -2 2 0.24888041D+00 0.31519790D+00 0.72254028D+06 0.72254028D+06 0.72254028D+06 0.10573903D+01  1  2  5  4  6  1        2 -.449475178646D-04 0.100000000000D+01
  </mgrwgt>
  </event>
  <event>
  6     66 0.18411016E-05 0.33440710E+02 0.75467711E-02 0.93952106E-01
        2 -1    0    0  502    0 0.00000000E+00 0.00000000E+00 0.67770952E+03 0.67770960E+03 0.32000000E+00 0.0000E+00 0.9000E+01
        2 -1    0    0  503    0 0.00000000E+00 0.00000000E+00 -.25648931E+04 0.25648932E+04 0.32000000E+00 0.0000E+00 0.9000E+01
       25  1    1    2    0    0 0.21773681E+03 0.46871190E+03 -.22605295E+03 0.57777599E+03 0.12500000E+03 0.0000E+00 0.9000E+01
        2  1    1    2  501    0 -.19254539E+03 -.43743519E+03 -.17411200E+04 0.18055255E+04 0.32000000E+00 0.0000E+00 0.9000E+01
        2  1    1    2  502    0 -.33043329E+02 -.21812383E+02 0.46871301E+03 0.47038243E+03 0.32000000E+00 0.0000E+00 0.9000E+01
       21  1    1    2  503  501 0.78519123E+01 -.94643220E+01 -.38872368E+03 0.38891888E+03 0.75000000E+00 0.0000E+00 0.9000E+01
#aMCatNLO 2  0  0  2  4 0.12297395D+02 0.00000000D+00  -5  6  0 0.00000000D+00 0.00000000D+00 0.00000000D+00 0.00000000D+00 0.00000000D+00
  <mgrwgt>
 0.9253686374D-03    3    2    0
 0.121428767847747D+04 0.000000000000000D+00 0.000000000000000D+00 0.121428767847747D+04
 0.121428767847747D+04 0.000000000000000D+00 0.000000000000000D+00 -.121428767847747D+04
 0.538377701281085D+03 0.219499230536279D+03 0.466662140287415D+03 0.909509969876972D+02
 0.104838386108192D+04 -.189180977434243D+03 -.441571381020536D+03 -.931844404081323D+03
 0.841813794591936D+03 -.303182531020357D+02 -.250907592668790D+02 0.840893407093626D+03
 0.000000000000000D+00 0.000000000000000D+00 -.000000000000000D+00 -.000000000000000D+00
 0.121447749213164D+04 0.000000000000000D+00 0.000000000000000D+00 0.121447749213164D+04
 0.143127460652703D+04 0.000000000000000D+00 0.000000000000000D+00 -.143127460652703D+04
 0.539493546494837D+03 0.217756790005356D+03 0.468762395316736D+03 0.909509969876972D+02
 0.104728811562983D+04 -.192568751066090D+03 -.437487919644255D+03 -.931844404081323D+03
 0.841824829328277D+03 -.330399512490071D+02 -.218101536335585D+02 0.840893407093626D+03
 0.217145607205725D+03 0.785191230974114D+01 -.946432203892243D+01 -.216797114395387D+03
-.558524280152D-10 0.000000000000D+00 0.000000000000D+00 0.300988382922D-04 0.000000000000D+00  6 2 2 25 2 2 21 2 0.10424666D+00 0.39463454D+00 0.28177662D+06 0.28177662D+06 0.28177662D+06 0.10865712D+01  1  2 13  2  6  2        2 -.153081435416D-09 0.100000000000D+01
-.306647572354D-02 0.000000000000D+00 0.000000000000D+00 0.300988382922D-04 0.000000000000D+00  6 2 2 25 2 2 21 2 0.10424666D+00 0.39518279D+00 0.28177662D+06 0.28177662D+06 0.28177662D+06 0.10865712D+01  1  2 13  2  6  2        2 -.836444563448D-02 0.100000000000D+01
0.338901004106D-02 0.000000000000D+00 0.000000000000D+00 0.300988382922D-04 0.139302165555D-05  6 2 2 25 2 2 21 2 0.10426295D+00 0.39459874D+00 0.28177662D+06 0.28177662D+06 0.28177662D+06 0.10865712D+01  1  2  1  2  6  2        2 0.928981442493D-02 0.100000000000D+01
  </mgrwgt>
  </event>
  <event>
  5     66 0.18411016E-05 0.16808433E+02 0.75467711E-02 0.82048021E-01
        2 -1    0    0  502    0 0.00000000E+00 0.00000000E+00 0.16778933E+04 0.16778934E+04 0.32000000E+00 0.0000E+00 0.9000E+01
        2 -1    0    0  501    0 0.00000000E+00 0.00000000E+00 -.20118313E+04 0.20118313E+04 0.32000000E+00 0.0000E+00 0.9000E+01
       25  1    1    2    0    0 -.10065061E+03 -.98092030E+03 -.10153006E+04 0.14208432E+04 0.12500000E+03 0.0000E+00 0.9000E+01
        2  1    1    2  501    0 -.10982456E+02 -.12724429E+02 -.62419100E+03 0.62441736E+03 0.32000000E+00 0.0000E+00 0.9000E+01
        2  1    1    2  502    0 0.11163306E+03 0.99364473E+03 0.13055536E+04 0.16444641E+04 0.32000000E+00 0.0000E+00 0.9000E+01
#aMCatNLO 1  0  0  1  4 0.10556725D+03 0.00000000D+00  -5  6  0 0.00000000D+00 0.00000000D+00 0.00000000D+00 0.00000000D+00 0.00000000D+00
  <mgrwgt>
 0.2604367391D-02    3    2    0
 0.183729106256947D+04 0.000000000000000D+00 0.000000000000000D+00 0.183729106256947D+04
 0.183729106256947D+04 0.000000000000000D+00 0.000000000000000D+00 -.183729106256947D+04
 0.133442590493039D+04 -.100650499654388D+03 -.980919945783309D+03 -.890355565284500D+03
 0.570270477893868D+03 -.109825099974123D+02 -.127243030430723D+02 -.570022714059295D+03
 0.176988574231469D+04 0.111633009651800D+03 0.993644248826381D+03 0.146037827934380D+04
 0.000000000000000D+00 0.000000000000000D+00 0.000000000000000D+00 -.000000000000000D+00
 0.229342648587413D+04 0.000000000000000D+00 0.000000000000000D+00 0.229342648587413D+04
 0.348129765044574D+04 0.000000000000000D+00 0.000000000000000D+00 -.348129765044574D+04
 0.180548339239987D+04 -.130392013323569D+03 -.156025964841115D+04 -.890355565284500D+03
 0.615653240922561D+03 -.222156900525733D+02 -.231537214353149D+03 -.570022714059295D+03
 0.151315993814312D+04 0.805356948137874D+02 0.387894678338078D+03 0.146037827934380D+04
 0.184042756485433D+04 0.720720085623549D+02 0.140390218442622D+04 -.118787116457161D+04
0.220783396363D-02 0.000000000000D+00 0.000000000000D+00 0.652688562798D-05 0.000000000000D+00  6 2 2 25 2 2 21 0 0.25813744D+00 0.30951251D+00 0.10106938D+07 0.10106938D+07 0.10106938D+07 0.10475566D+01  1  2  2  1  6  1        2 0.234032656405D-02 0.100000000000D+01
0.195373100174D-02 0.000000000000D+00 -.847866375637D-05 0.652688562798D-05 0.000000000000D+00  6 2 2 25 2 2 21 2 0.25813744D+00 0.30951251D+00 0.10106938D+07 0.10106938D+07 0.10106938D+07 0.10475566D+01  1  2  3  1  6  1        2 0.227263558585D-02 0.100000000000D+01
-.172674135512D-02 0.000000000000D+00 0.000000000000D+00 0.652688562798D-05 0.000000000000D+00  6 2 2 25 2 2 21 2 0.25813744D+00 0.30951251D+00 0.10106938D+07 0.10106938D+07 0.10106938D+07 0.10475566D+01  1  2 15  1  6  1        2 -.200859475931D-02 0.100000000000D+01
  </mgrwgt>
  </event>
  <event>
  5     66 -.18411016E-05 0.10112707E+02 0.75467711E-02 0.94048721E-01
        2 -1    0    0  502    0 0.00000000E+00 0.00000000E+00 0.87441646E+03 0.87441652E+03 0.32000000E+00 0.0000E+00 0.9000E+01
        2 -1    0    0  501    0 0.00000000E+00 0.00000000E+00 -.11760354E+04 0.11760355E+04 0.32000000E+00 0.0000E+00 0.9000E+01
       25  1    1    2    0    0 0.28222265E+03 0.42446668E+03 0.31957160E+02 0.52580210E+03 0.12500000E+03 0.0000E+00 0.9000E+01
        2  1    1    2  501    0 -.89992543E+00 0.10071361E+02 -.81658656E+03 0.81664923E+03 0.32000000E+00 0.0000E+00 0.9000E+01
        2  1    1    2  502    0 -.28132272E+03 -.43453804E+03 0.48301043E+03 0.70800068E+03 0.32000000E+00 0.0000E+00 0.9000E+01
#aMCatNLO 1  0  0  2  5 0.38262606D+02 0.00000000D+00  -5  6  0 0.00000000D+00 0.00000000D+00 0.00000000D+00 0.00000000D+00 0.00000000D+00
  <mgrwgt>
 -.7408374338D-02    1    2    0
 0.101407339670590D+04 0.000000000000000D+00 0.000000000000000D+00 0.101407339670590D+04
 0.101407339670590D+04 0.000000000000000D+00 0.000000000000000D+00 -.101407339670590D+04
 0.536324617312712D+03 0.282203122569494D+03 0.424435078593055D+03 0.110613547124038D+03
 0.704258541908362D+03 -.900076815090983D+00 0.100725716322850D+02 -.704185932132510D+03
 0.787563634190720D+03 -.281303045754404D+03 -.434507650225340D+03 0.593572385008471D+03
 0.000000000000000D+00 0.000000000000000D+00 -.000000000000000D+00 0.000000000000000D+00
 0.104628138720523D+04 0.000000000000000D+00 0.000000000000000D+00 0.104628138720523D+04
 0.103432490392703D+04 0.000000000000000D+00 0.000000000000000D+00 -.103432490392703D+04
 0.535684111055652D+03 0.270658417447422D+03 0.431092949484192D+03 0.110613547124038D+03
 0.704620782673392D+03 -.160726177883688D+02 0.188226278548070D+02 -.704185932132510D+03
 0.788468890339229D+03 -.298275697447442D+03 -.424719463999912D+03 0.593572385008471D+03
 0.518325070639816D+02 0.436898977883883D+02 -.251961133390862D+02 0.119564832781972D+02
-.627463815218D-03 0.000000000000D+00 0.000000000000D+00 0.101227674834D-04 0.000000000000D+00  6 2 2 25 2 2 21 2 0.13452562D+00 0.18092854D+00 0.27695202D+06 0.27695202D+06 0.27695202D+06 0.10871297D+01  1  2 14  2  6  2        2 -.740837433843D-02 0.100000000000D+01
  </mgrwgt>
  </event>
  <event>
  5     66 0.18411016E-05 0.14281269E+03 0.75467711E-02 0.92497066E-01
        2 -1    0    0  502    0 0.00000000E+00 0.00000000E+00 0.19211977E+04 0.19211977E+04 0.32000000E+00 0.0000E+00 0.9000E+01
        2 -1    0    0  501    0 -.00000000E+00 -.00000000E+00 -.27581392E+04 0.27581392E+04 0.32000000E+00 0.0000E+00 0.9000E+01
       25  1    1    2    0    0 0.22133657E+03 -.44259053E+03 0.11429430E+04 0.12517268E+04 0.12500000E+03 0.0000E+00 0.9000E+01
        2  1    1    2  501    0 0.14261799E+03 0.72683311E+01 -.25902796E+04 0.25942131E+04 0.32000000E+00 0.0000E+00 0.9000E+01
        2  1    1    2  502    0 -.36395456E+03 0.43532220E+03 0.61039510E+03 0.83339703E+03 0.32000000E+00 0.0000E+00 0.9000E+01
#aMCatNLO 1  0  0  5  1 0.10845836D+03 0.00000000D+00  -5  6  0 0.00000000D+00 0.00000000D+00 0.00000000D+00 0.00000000D+00 0.00000000D+00
  <mgrwgt>
 0.8629268491D-03    8    2    0
 0.230194062919619D+04 0.000000000000000D+00 0.000000000000000D+00 0.230194062919619D+04
 0.230194062919619D+04 -.000000000000000D+00 -.000000000000000D+00 -.230194062919619D+04
 0.148015916398239D+04 0.221257430612083D+03 -.442508022000874D+03 0.138941640647606D+04
 0.216588518635589D+04 0.142627572685331D+03 0.726901626215900D+01 -.216117171399876D+04
 0.957836908054102D+03 -.363885003297414D+03 0.435239005738715D+03 0.771755307522700D+03
 0.000000000000000D+00 0.000000000000000D+00 0.000000000000000D+00 0.000000000000000D+00
 0.230194062919619D+04 0.000000000000000D+00 0.000000000000000D+00 0.230194062919619D+04
 0.230194062919619D+04 -.000000000000000D+00 -.000000000000000D+00 -.230194062919619D+04
 0.148782425502754D+04 0.216119802218073D+03 -.436362958989755D+03 0.140031268399568D+04
 0.214964259887340D+04 0.135157322702624D+03 0.162041032968818D+02 -.214532823317259D+04
 0.189261664643117D+03 -.294887134491821D+02 -.138966419231677D+02 0.186433035768489D+03
 0.777152739848310D+03 -.321788411471516D+03 0.434055497616041D+03 0.558582513408417D+03
0.162479671868D-02 0.000000000000D+00 0.000000000000D+00 0.346558671095D-05 0.000000000000D+00  6 2 2 25 2 2 21 0 0.29556887D+00 0.42432911D+00 0.37235268D+06 0.37235268D+06 0.37235268D+06 0.10776772D+01  1  2  2  3  6  5        2 0.513469642301D-03 0.100000000000D+01
0.329764863437D-03 0.000000000000D+00 -.623964721853D-05 0.346558671095D-05 0.000000000000D+00  6 2 2 25 2 2 21 2 0.29556887D+00 0.42432911D+00 0.37235268D+06 0.37235268D+06 0.37235268D+06 0.10776772D+01  1  2  3  3  6  5        2 0.121031245358D-03 0.100000000000D+01
-.127437200594D-02 0.000000000000D+00 0.000000000000D+00 0.346558671095D-05 0.000000000000D+00  6 2 2 25 2 2 21 2 0.29556887D+00 0.42432911D+00 0.37235268D+06 0.37235268D+06 0.37235268D+06 0.10776772D+01  1  2 15  3  6  5        2 -.467723666251D-03 0.100000000000D+01
0.229684445164D-10 0.000000000000D+00 0.000000000000D+00 0.346558671095D-05 0.000000000000D+00  6 2 2 25 2 2 21 2 0.29556887D+00 0.42432911D+00 0.36710754D+06 0.36710754D+06 0.36710754D+06 0.10781245D+01  1  2 12  3  6  5        2 0.844954325632D-11 0.100000000000D+01
0.109894868379D-02 0.000000000000D+00 0.000000000000D+00 0.346558671095D-05 0.000000000000D+00  6 2 2 25 2 2 21 2 0.29556887D+00 0.42432911D+00 0.36710754D+06 0.36710754D+06 0.36710754D+06 0.10781245D+01  1  2 12  3  6  5        2 0.404277025967D-03 0.100000000000D+01
-.530411178525D-03 0.000000000000D+00 0.000000000000D+00 0.346558671095D-05 0.000000000000D+00  6 2 2 25 2 2 21 2 0.29556887D+00 0.42432911D+00 0.37235268D+06 0.37235268D+06 0.37235268D+06 0.10776772D+01  1  2  4  3  6  5        2 -.194673031018D-03 0.100000000000D+01
-.108740258434D-02 0.000000000000D+00 0.000000000000D+00 0.346558671095D-05 0.000000000000D+00  6 2 2 25 2 2 21 2 0.29556887D+00 0.42432911D+00 0.37235268D+06 0.37235268D+06 0.37235268D+06 0.10776772D+01  1  2  5  3  6  5        2 -.399101613238D-03 0.100000000000D+01
0.241305738431D-02 0.000000000000D+00 -.000000000000D+00 0.346558671095D-05 0.000000000000D+00  6 2 2 25 2 2 21 2 0.29556887D+00 0.42432911D+00 0.37235268D+06 0.37235268D+06 0.37235268D+06 0.10776772D+01  1  2  6  3  6  5        2 0.885647237545D-03 0.100000000000D+01
  </mgrwgt>
  </event>
  <event>
  5     66 0.18411016E-05 0.85473355E+02 0.75467711E-02 0.89371566E-01
        2 -1    0    0  502    0 0.00000000E+00 0.00000000E+00 0.21451378E+04 0.21451378E+04 0.32000000E+00 0.0000E+00 0.9000E+01
        2 -1    0    0  501    0 0.00000000E+00 0.00000000E+00 -.14820956E+04 0.14820957E+04 0.32000000E+00 0.0000E+00 0.9000E+01
       25  1    1    2    0    0 0.57726652E+03 0.22061617E+03 0.15277897E+03 0.64874845E+03 0.12500000E+03 0.0000E+00 0.9000E+01
        2  1    1    2  501    0 -.22939322E+02 -.82330983E+02 -.11857524E+04 0.11888286E+04 0.32000000E+00 0.0000E+00 0.9000E+01
        2  1    1    2  502    0 -.55432720E+03 -.13828519E+03 0.16960156E+04 0.17896565E+04 0.32000000E+00 0.0000E+00 0.9000E+01
#aMCatNLO 1  0  0  5  1 0.49718070D+01 0.00000000D+00  -5  6  0 0.00000000D+00 0.00000000D+00 0.00000000D+00 0.00000000D+00 0.00000000D+00
  <mgrwgt>
 0.1936107652D-02    4    2    0
 0.178305902069211D+04 0.000000000000000D+00 0.000000000000000D+00 0.178305902069211D+04
 0.178305902069211D+04 -.000000000000000D+00 -.000000000000000D+00 -.178305902069211D+04
 0.631454338400842D+03 0.577253685034759D+03 0.220618582777709D+03 0.348597982236216D+02
 0.142971377723545D+04 -.229412408151607D+02 -.823370751089363D+02 -.142715654023979D+04
 0.150494992574793D+04 -.554312444219598D+03 -.138281507668773D+03 0.139229674201617D+04
 0.000000000000000D+00 0.000000000000000D+00 0.000000000000000D+00 0.000000000000000D+00
 0.178305902069211D+04 0.000000000000000D+00 0.000000000000000D+00 0.178305902069211D+04
 0.178305902069211D+04 -.000000000000000D+00 -.000000000000000D+00 -.178305902069211D+04
 0.615064922518522D+03 0.555215519950551D+03 0.215120833762913D+03 0.902142571875659D+02
 0.131081339376986D+04 -.713931116413103D+02 -.944241170237995D+02 -.130545733864454D+04
 0.142156166588137D+04 -.630862094478484D+03 -.280211301325163D+03 0.124271163761482D+04
 0.218678059214468D+03 0.147039686169244D+03 0.159514584586050D+03 -.274685561578420D+02
0.238403063456D-02 0.000000000000D+00 0.000000000000D+00 0.299038708535D-04 0.000000000000D+00  6 2 2 25 2 2 21 0 0.33002120D+00 0.22801472D+00 0.41426283D+06 0.41426283D+06 0.41426283D+06 0.10743324D+01  1  2  2  3  6  5        2 0.294083387719D-02 0.100000000000D+01
0.906734043342D-03 0.000000000000D+00 -.915530536639D-05 0.299038708535D-04 0.000000000000D+00  6 2 2 25 2 2 21 2 0.33002120D+00 0.22801472D+00 0.41426283D+06 0.41426283D+06 0.41426283D+06 0.10743324D+01  1  2  3  3  6  5        2 0.129096942396D-02 0.100000000000D+01
-.158648497378D-02 0.000000000000D+00 0.000000000000D+00 0.299038708535D-04 0.000000000000D+00  6 2 2 25 2 2 21 2 0.33002120D+00 0.22801472D+00 0.41426283D+06 0.41426283D+06 0.41426283D+06 0.10743324D+01  1  2 15  3  6  5        2 -.225876993122D-02 0.100000000000D+01
-.259353978298D-04 0.000000000000D+00 0.000000000000D+00 0.299038708535D-04 0.000000000000D+00  6 2 2 25 2 2 21 2 0.33002120D+00 0.22801472D+00 0.41426283D+06 0.41426283D+06 0.41426283D+06 0.10743324D+01  1  2  4  3  6  5        2 -.369257180120D-04 0.100000000000D+01
  </mgrwgt>
  </event>
  <event>
  6     66 0.18411016E-05 0.56484949E+02 0.75467711E-02 0.94174181E-01
        2 -1    0    0  502    0 0.00000000E+00 0.00000000E+00 0.26399566E+04 0.26399566E+04 0.32000000E+00 0.0000E+00 0.9000E+01
        2 -1    0    0  503    0 0.00000000E+00 0.00000000E+00 -.88175432E+03 0.88175438E+03 0.32000000E+00 0.0000E+00 0.9000E+01
       25  1    1    2    0    0 0.27373141E+03 0.40503513E+03 0.71337375E+03 0.87379028E+03 0.12500000E+03 0.0000E+00 0.9000E+01
        2  1    1    2  501    0 -.20793502E+03 -.34764497E+03 -.37577062E+03 0.55253747E+03 0.32000000E+00 0.0000E+00 0.9000E+01
        2  1    1    2  502    0 0.14928171E+02 -.47418021E+02 0.17527310E+04 0.17534359E+04 0.32000000E+00 0.0000E+00 0.9000E+01
       21  1    1    2  503  501 -.80724561E+02 -.99721403E+01 -.33213184E+03 0.34194739E+03 0.75000000E+00 0.0000E+00 0.9000E+01
#aMCatNLO 2  0  0  2  5 0.81338172D+02 0.00000000D+00  -5  6  0 0.00000000D+00 0.00000000D+00 0.00000000D+00 0.00000000D+00 0.00000000D+00
  <mgrwgt>
 0.1653863481D-01    1    2    0
 0.119737045397572D+04 0.000000000000000D+00 0.000000000000000D+00 0.119737045397572D+04
 0.119737045397572D+04 0.000000000000000D+00 0.000000000000000D+00 -.119737045397572D+04
 0.526696478681724D+03 0.255834314737821D+03 0.402858633625673D+03 0.184493645884116D+03
 0.107014665943897D+04 -.243874643949819D+03 -.352124940793901D+03 -.980687033062856D+03
 0.797897769830735D+03 -.119596707880020D+02 -.507336928317721D+02 0.796193387178740D+03
 0.000000000000000D+00 -.000000000000000D+00 -.000000000000000D+00 -.000000000000000D+00
 0.120029212331893D+04 0.000000000000000D+00 0.000000000000000D+00 0.120029212331893D+04
 0.193935502239925D+04 0.000000000000000D+00 0.000000000000000D+00 -.193935502239925D+04
 0.537301722917424D+03 0.273762356480275D+03 0.405073336882082D+03 0.184493645884116D+03
 0.106107665797272D+04 -.207964187955041D+03 -.347688817486443D+03 -.980687033062856D+03
 0.797743467954380D+03 0.149263922466898D+02 -.474123790926393D+02 0.796193387178740D+03
 0.743525296873659D+03 -.807245607719242D+02 -.997214030300001D+01 -.739062899080329D+03
0.927717752731D-02 0.000000000000D+00 0.000000000000D+00 0.355765366743D-04 0.554938653970D-07  6 2 2 25 2 2 21 2 0.40614711D+00 0.13565450D+00 0.27082457D+06 0.27082457D+06 0.27082457D+06 0.10878546D+01  1  2  1  2  6  2        2 0.165386348053D-01 0.100000000000D+01
  </mgrwgt>
  </event>
  <event>
  5     66 0.18411016E-05 0.98142243E+02 0.75467711E-02 0.93470959E-01
        2 -1    0    0  502    0 0.00000000E+00 0.00000000E+00 0.30175900E+04 0.30175900E+04 0.32000000E+00 0.0000E+00 0.9000E+01
        2 -1    0    0  501    0 0.00000000E+00 0.00000000E+00 -.75894693E+03 0.75894700E+03 0.32000000E+00 0.0000E+00 0.9000E+01
       25  1    1    2    0    0 -.42866278E+03 0.33583646E+03 0.74625387E+03 0.93223267E+03 0.12500000E+03 0.0000E+00 0.9000E+01
        2  1    1    2  501    0 0.37162509E+03 -.25596038E+03 -.58824074E+03 0.74138263E+03 0.32000000E+00 0.0000E+00 0.9000E+01
        2  1    1    2  502    0 0.57037691E+02 -.79876080E+02 0.21006299E+04 0.21029217E+04 0.32000000E+00 0.0000E+00 0.9000E+01
#aMCatNLO 1  0  0  5  1 0.12503484D+01 0.00000000D+00  -5  6  0 0.00000000D+00 0.00000000D+00 0.00000000D+00 0.00000000D+00 0.00000000D+00
  <mgrwgt>
 0.3684560454D-02    9    2    0
 0.151333763656672D+04 0.000000000000000D+00 0.000000000000000D+00 0.151333763656672D+04
 0.151333763656672D+04 -.000000000000000D+00 -.000000000000000D+00 -.151333763656672D+04
 0.606374009833098D+03 -.428694726590218D+03 0.335855729417211D+03 0.235555089549009D+03
 0.136405151896556D+04 0.371661732090197D+03 -.255986226674846D+03 -.128723546992955D+04
 0.105624974433479D+04 0.570329945000207D+02 -.798695027423649D+02 0.105168038038054D+04
 0.000000000000000D+00 0.000000000000000D+00 0.000000000000000D+00 0.000000000000000D+00
 0.151333763656672D+04 0.000000000000000D+00 0.000000000000000D+00 0.151333763656672D+04
 0.151333763656672D+04 -.000000000000000D+00 -.000000000000000D+00 -.151333763656672D+04
 0.606376661139064D+03 -.428694259870727D+03 0.335855075819166D+03 0.235563695790653D+03
 0.136403381144849D+04 0.371662781976731D+03 -.255987696945101D+03 -.128721611016984D+04
 0.103780349617453D+04 0.570761497030284D+02 -.777793488404357D+02 0.103330962576621D+04
 0.184613043713567D+02 -.446718090328935D-01 -.208803003362895D+01 0.183427886129677D+02
0.343982293460D-04 0.000000000000D+00 0.000000000000D+00 0.259640986048D-04 0.000000000000D+00  6 2 2 25 2 2 21 0 0.46424462D+00 0.11676107D+00 0.30701702D+06 0.30701702D+06 0.30701702D+06 0.10838098D+01  1  2  2  3  6  5        2 0.365914095756D-04 0.100000000000D+01
0.908682968399D-05 0.000000000000D+00 -.132098257951D-06 0.259640986048D-04 0.000000000000D+00  6 2 2 25 2 2 21 2 0.46424462D+00 0.11676107D+00 0.30701702D+06 0.30701702D+06 0.30701702D+06 0.10838098D+01  1  2  3  3  6  5        2 0.113543310238D-04 0.100000000000D+01
-.225675412208D-04 0.000000000000D+00 0.000000000000D+00 0.259640986048D-04 0.000000000000D+00  6 2 2 25 2 2 21 2 0.46424462D+00 0.11676107D+00 0.30701702D+06 0.30701702D+06 0.30701702D+06 0.10838098D+01  1  2 15  3  6  5        2 -.281989805382D-04 0.100000000000D+01
0.187886775060D-14 0.000000000000D+00 0.000000000000D+00 0.259640986048D-04 0.000000000000D+00  6 2 2 25 2 2 21 2 0.46424462D+00 0.11676107D+00 0.30725069D+06 0.30725069D+06 0.30725069D+06 0.10837854D+01  1  2 12  3  6  5        2 0.234746276128D-14 0.100000000000D+01
0.196558172471D-06 0.000000000000D+00 0.000000000000D+00 0.259640986048D-04 0.000000000000D+00  6 2 2 25 2 2 21 2 0.46424462D+00 0.11676107D+00 0.30725069D+06 0.30725069D+06 0.30725069D+06 0.10837854D+01  1  2 12  3  6  5        2 0.245580344947D-06 0.100000000000D+01
-.137351676336D+00 0.000000000000D+00 0.000000000000D+00 0.259640986048D-04 0.000000000000D+00  6 2 2 25 2 2 21 2 0.46424462D+00 0.11676107D+00 0.30701702D+06 0.30701702D+06 0.30701702D+06 0.10838098D+01  1  2  4  3  6  5        2 -.171626018537D+00 0.100000000000D+01
-.228922951977D+00 0.000000000000D+00 0.000000000000D+00 0.259640986048D-04 0.000000000000D+00  6 2 2 25 2 2 21 2 0.46424462D+00 0.11676107D+00 0.30701702D+06 0.30701702D+06 0.30701702D+06 0.10838098D+01  1  2  5  3  6  5        2 -.286047726884D+00 0.100000000000D+01
0.232959065428D+00 0.000000000000D+00 -.000000000000D+00 0.259640986048D-04 0.000000000000D+00  6 2 2 25 2 2 21 2 0.46424462D+00 0.11676107D+00 0.30701702D+06 0.30701702D+06 0.30701702D+06 0.10838098D+01  1  2  6  3  6  5        2 0.291091000474D+00 0.100000000000D+01
0.136262943724D+00 0.000000000000D+00 0.000000000000D+00 0.259640986048D-04 0.673752775160D-04  6 2 2 25 2 2 21 2 0.46424462D+00 0.11676107D+00 0.30725069D+06 0.30725069D+06 0.30725069D+06 0.10837854D+01  1  2 11  3  6  5        2 0.170247313060D+00 0.100000000000D+01
  </mgrwgt>
  </event>
  <event>
  5     66 0.18411016E-05 0.22189943E+03 0.75467711E-02 0.88561739E-01
        2 -1    0    0  502    0 0.00000000E+00 0.00000000E+00 0.18656374E+04 0.18656374E+04 0.32000000E+00 0.0000E+00 0.9000E+01
        2 -1    0    0  501    0 0.00000000E+00 0.00000000E+00 -.79040098E+03 0.79040104E+03 0.32000000E+00 0.0000E+00 0.9000E+01
       25  1    1    2    0    0 0.62121897E+03 -.34072726E+03 0.12816640E+03 0.73079388E+03 0.12500000E+03 0.0000E+00 0.9000E+01
        2  1    1    2  501    0 -.80255127E+03 0.21276433E+03 -.11681874E+03 0.83845329E+03 0.32000000E+00 0.0000E+00 0.9000E+01
        2  1    1    2  502    0 0.18133230E+03 0.12796293E+03 0.10638887E+04 0.10867913E+04 0.32000000E+00 0.0000E+00 0.9000E+01
#aMCatNLO 1  0  0  5  1 0.12503484D+01 0.00000000D+00  -5  6  0 0.00000000D+00 0.00000000D+00 0.00000000D+00 0.00000000D+00 0.00000000D+00
  <mgrwgt>
 0.4576787511D-03    1    2    0
 0.121433179753913D+04 0.000000000000000D+00 0.000000000000000D+00 0.121433179753913D+04
 0.121433179753913D+04 -.000000000000000D+00 -.000000000000000D+00 -.121433179753913D+04
 0.742557422116793D+03 0.621324238031699D+03 -.340748856467655D+03 -.183338302574913D+03
 0.968701606844199D+03 -.802626056908125D+03 0.212807439815061D+03 -.498885968367530D+03
 0.717404566117278D+03 0.181301818876425D+03 0.127941416652594D+03 0.682224270942442D+03
 0.000000000000000D+00 0.000000000000000D+00 0.000000000000000D+00 -.000000000000000D+00
 0.121433179753913D+04 0.000000000000000D+00 0.000000000000000D+00 0.121433179753913D+04
 0.121433179753913D+04 -.000000000000000D+00 -.000000000000000D+00 -.121433179753913D+04
 0.738440006558029D+03 0.641328417892584D+03 -.326632268304139D+03 -.108064170710325D+03
 0.905717125572443D+03 -.777307843161174D+03 0.230674045643798D+03 -.403615551213846D+03
 0.200200741607335D+03 -.107734474010090D+03 -.161932414599105D+03 0.474501122443322D+02
 0.584305721340461D+03 0.243713899278679D+03 0.257890637259447D+03 0.464229609679839D+03
0.924771321961D-04 0.000000000000D+00 0.000000000000D+00 0.166888637288D-07 0.000000000000D+00  6 2 2 25 2 2 21 2 0.28702114D+00 0.12160016D+00 0.78484227D+06 0.78484227D+06 0.78484227D+06 0.10549406D+01  1  2 14  3  6  5        2 0.457678751098D-03 0.100000000000D+01
  </mgrwgt>
  </event>
  <event>
  5     66 0.18411016E-05 0.26880972E+02 0.75467711E-02 0.94427610E-01
        2 -1    0    0  502    0 0.00000000E+00 0.00000000E+00 0.64314965E+03 0.64314973E+03 0.32000000E+00 0.0000E+00 0.9000E+01
        2 -1    0    0  501    0 -.00000000E+00 -.00000000E+00 -.10953053E+04 0.10953053E+04 0.32000000E+00 0.0000E+00 0.9000E+01
       25  1    1    2    0    0 -.47109311E+03 0.77196710E+02 -.59259904E+02 0.49701588E+03 0.12500000E+03 0.0000E+00 0.9000E+01
        2  1    1    2  501    0 0.48337916E+03 -.10111442E+03 -.74199182E+03 0.89130887E+03 0.32000000E+00 0.0000E+00 0.9000E+01
        2  1    1    2  502    0 -.12286052E+02 0.23917713E+02 0.34909613E+03 0.35013028E+03 0.32000000E+00 0.0000E+00 0.9000E+01
#aMCatNLO 1  0  0  5  1 0.70347896D+01 0.00000000D+00  -5  6  0 0.00000000D+00 0.00000000D+00 0.00000000D+00 0.00000000D+00 0.00000000D+00
  <mgrwgt>
 0.1740832904D-01    9    2    0
 0.839312399204555D+03 0.000000000000000D+00 0.000000000000000D+00 0.839312399204555D+03
 0.839312399204555D+03 -.000000000000000D+00 -.000000000000000D+00 -.839312399204555D+03
 0.498868411271509D+03 -.471180614896518D+03 0.772186728613286D+02 0.726002511829883D+02
 0.723245780153032D+03 0.483463119589220D+03 -.101129480484256D+03 -.528318747238078D+03
 0.456510606984569D+03 -.122825046927019D+02 0.239108076229277D+02 0.455718496055089D+03
 0.000000000000000D+00 0.000000000000000D+00 0.000000000000000D+00 0.000000000000000D+00
 0.839312399204555D+03 0.000000000000000D+00 0.000000000000000D+00 0.839312399204555D+03
 0.839312399204555D+03 -.000000000000000D+00 -.000000000000000D+00 -.839312399204555D+03
 0.498879965980558D+03 -.471182353031626D+03 0.772220565534362D+02 0.726647413124190D+02
 0.723175119382545D+03 0.483460599840751D+03 -.101124575196417D+03 -.528225256861998D+03
 0.239515835181232D+03 -.133450729991214D+02 0.111926473089319D+02 0.238881704982673D+03
 0.217053877864775D+03 0.106682618999698D+01 0.127098713340485D+02 0.216678810566905D+03
0.788889984605D-05 0.000000000000D+00 0.000000000000D+00 0.452942777499D-05 0.000000000000D+00  6 2 2 25 2 2 21 0 0.98946110D-01 0.16850851D+00 0.25723421D+06 0.25723421D+06 0.25723421D+06 0.10895283D+01  1  2  2  3  6  5        2 0.129726948068D-03 0.100000000000D+01
0.461533184652D-05 0.000000000000D+00 -.302954526039D-07 0.452942777499D-05 0.000000000000D+00  6 2 2 25 2 2 21 2 0.98946110D-01 0.16850851D+00 0.25723421D+06 0.25723421D+06 0.25723421D+06 0.10895283D+01  1  2  3  3  6  5        2 0.900935597837D-04 0.100000000000D+01
-.564274194085D-05 0.000000000000D+00 0.000000000000D+00 0.452942777499D-05 0.000000000000D+00  6 2 2 25 2 2 21 2 0.98946110D-01 0.16850851D+00 0.25723421D+06 0.25723421D+06 0.25723421D+06 0.10895283D+01  1  2 15  3  6  5        2 -.110149112848D-03 0.100000000000D+01
0.111190030011D-08 0.000000000000D+00 0.000000000000D+00 0.452942777499D-05 0.000000000000D+00  6 2 2 25 2 2 21 2 0.98946110D-01 0.16850851D+00 0.25890541D+06 0.25890541D+06 0.25890541D+06 0.10893174D+01  1  2 12  3  6  5        2 0.216910133283D-07 0.100000000000D+01
0.124047764965D-02 0.000000000000D+00 0.000000000000D+00 0.452942777499D-05 0.000000000000D+00  6 2 2 25 2 2 21 2 0.98946110D-01 0.16850851D+00 0.25890541D+06 0.25890541D+06 0.25890541D+06 0.10893174D+01  1  2 12  3  6  5        2 0.241993074642D-01 0.100000000000D+01
-.129520930932D-02 0.000000000000D+00 0.000000000000D+00 0.452942777499D-05 0.000000000000D+00  6 2 2 25 2 2 21 2 0.98946110D-01 0.16850851D+00 0.25723421D+06 0.25723421D+06 0.25723421D+06 0.10895283D+01  1  2  4  3  6  5        2 -.252831261590D-01 0.100000000000D+01
-.156066544584D-02 0.000000000000D+00 0.000000000000D+00 0.452942777499D-05 0.000000000000D+00  6 2 2 25 2 2 21 2 0.98946110D-01 0.16850851D+00 0.25723421D+06 0.25723421D+06 0.25723421D+06 0.10895283D+01  1  2  5  3  6  5        2 -.304649612038D-01 0.100000000000D+01
0.244783556479D-02 0.000000000000D+00 -.000000000000D+00 0.452942777499D-05 0.000000000000D+00  6 2 2 25 2 2 21 2 0.98946110D-01 0.16850851D+00 0.25723421D+06 0.25723421D+06 0.25723421D+06 0.10895283D+01  1  2  6  3  6  5        2 0.477829606040D-01 0.100000000000D+01
0.545649061345D-04 0.000000000000D+00 0.000000000000D+00 0.452942777499D-05 0.195946528367D-06  6 2 2 25 2 2 21 2 0.98946110D-01 0.16850851D+00 0.25890541D+06 0.25890541D+06 0.25890541D+06 0.10893174D+01  1  2 11  3  6  5        2 0.106445524486D-02 0.100000000000D+01
  </mgrwgt>
  </event>
  <event>
  6     66 0.18411016E-05 0.37531767E+02 0.75467711E-02 0.93828354E-01
        2 -1    0    0  503    0 0.00000000E+00 0.00000000E+00 0.23585652E+04 0.23585652E+04 0.32000000E+00 0.0000E+00 0.9000E+01
        2 -1    0    0  501    0 0.00000000E+00 0.00000000E+00 -.31552564E+03 0.31552580E+03 0.32000000E+00 0.0000E+00 0.9000E+01
       25  1    1    2    0    0 0.27665247E+03 -.37124384E+03 0.60932044E+02 0.48342144E+03 0.12500000E+03 0.0000E+00 0.9000E+01
        2  1    1    2  501    0 0.45836188E+02 -.33207185E+02 -.53139626E+02 0.77637591E+02 0.32000000E+00 0.0000E+00 0.9000E+01
        2  1    1    2  502    0 -.33630406E+03 0.36904182E+03 0.15991986E+04 0.16753294E+04 0.32000000E+00 0.0000E+00 0.9000E+01
       21  1    1    2  503  502 0.13815404E+02 0.35409206E+02 0.43604858E+03 0.43770264E+03 0.75000000E+00 0.0000E+00 0.9000E+01
#aMCatNLO 2  0  0  1  5 0.38008911D+02 0.00000000D+00  -5  6  0 0.00000000D+00 0.00000000D+00 0.00000000D+00 0.00000000D+00 0.00000000D+00
  <mgrwgt>
 0.1293870013D-02    3    2    0
 0.777426577316910D+03 0.000000000000000D+00 0.000000000000000D+00 0.777426577316910D+03
 0.777426577316910D+03 0.000000000000000D+00 0.000000000000000D+00 -.777426577316910D+03
 0.626555308730961D+03 0.282308412364530D+03 -.356956660223243D+03 -.412104911314384D+03
 0.166011260779322D+03 0.472579240090677D+02 -.293884433547560D+02 -.156405711919602D+03
 0.762286585123538D+03 -.329566336373598D+03 0.386345103577999D+03 0.568510623233985D+03
 0.000000000000000D+00 0.000000000000000D+00 0.000000000000000D+00 0.000000000000000D+00
 0.954450289585218D+03 0.000000000000000D+00 0.000000000000000D+00 0.954450289585218D+03
 0.779701739348447D+03 0.000000000000000D+00 0.000000000000000D+00 -.779701739348447D+03
 0.632363177306145D+03 0.276716286192447D+03 -.371289411428803D+03 -.412104911314384D+03
 0.166310225684602D+03 0.457817492585876D+02 -.331719140389803D+02 -.156405711919602D+03
 0.756644252588913D+03 -.336313439530288D+03 0.369052119133934D+03 0.568510623233985D+03
 0.178834373354004D+03 0.138154040792541D+02 0.354092063338501D+02 0.174748550236771D+03
-.312418235338D-07 0.000000000000D+00 0.000000000000D+00 0.321257529408D-06 0.000000000000D+00  6 2 2 25 2 2 21 2 0.36503222D+00 0.48400725D-01 0.28809464D+06 0.28809464D+06 0.28809464D+06 0.10858554D+01  1  2 13  1  6  1        2 -.263360996025D-06 0.100000000000D+01
-.858921860428D-03 0.000000000000D+00 0.000000000000D+00 0.321257529408D-06 0.000000000000D+00  6 2 2 25 2 2 21 2 0.36653342D+00 0.48400725D-01 0.28809464D+06 0.28809464D+06 0.28809464D+06 0.10858554D+01  1  2 13  1  6  1        2 -.714851091230D-02 0.100000000000D+01
0.986348962978D-03 0.000000000000D+00 0.000000000000D+00 0.321257529408D-06 0.165128184343D-08  6 2 2 25 2 2 21 2 0.36285584D+00 0.48542372D-01 0.28809464D+06 0.28809464D+06 0.28809464D+06 0.10858554D+01  1  2  1  1  6  1        2 0.844264428635D-02 0.100000000000D+01
  </mgrwgt>
  </event>
  <event>
  6     66 0.18411016E-05 0.75870531E+02 0.75467711E-02 0.92959375E-01
        2 -1    0    0  502    0 0.00000000E+00 0.00000000E+00 0.12611188E+04 0.12611189E+04 0.32000000E+00 0.0000E+00 0.9000E+01
        2 -1    0    0  501    0 0.00000000E+00 0.00000000E+00 -.11003136E+04 0.11003136E+04 0.32000000E+00 0.0000E+00 0.9000E+01
       25  1    1    2    0    0 -.46537617E+03 0.21109798E+03 0.32638257E+03 0.61910251E+03 0.12500000E+03 0.0000E+00 0.9000E+01
        2  1    1    2  501    0 0.47599332E+03 -.28851808E+03 -.87037422E+03 0.10331330E+04 0.32000000E+00 0.0000E+00 0.9000E+01
        2  1    1    2  503    0 -.10417353E+02 0.65602327E+02 0.56260869E+03 0.56651640E+03 0.32000000E+00 0.0000E+00 0.9000E+01
       21  1    1    2  502  503 -.19980236E+00 0.11817780E+02 0.14218825E+03 0.14268063E+03 0.75000000E+00 0.0000E+00 0.9000E+01
#aMCatNLO 2  0  0  5  1 0.42571435D+01 0.00000000D+00  -5  6  0 0.00000000D+00 0.00000000D+00 0.00000000D+00 0.00000000D+00 0.00000000D+00
  <mgrwgt>
 0.3628248244D-02    3    2    0
 0.117797549687335D+04 0.000000000000000D+00 0.000000000000000D+00 0.117797549687335D+04
 0.117797549687335D+04 -.000000000000000D+00 -.000000000000000D+00 -.117797549687335D+04
 0.598660817642515D+03 -.465595187316457D+03 0.211265481585751D+03 0.285232874014373D+03
 0.109503044585701D+04 0.476206019168690D+03 -.288639480213003D+03 -.942871547520488D+03
 0.662259730247166D+03 -.106108318522328D+02 0.773739986272524D+02 0.657638673506115D+03
 0.000000000000000D+00 0.000000000000000D+00 0.000000000000000D+00 0.000000000000000D+00
 0.117797549687335D+04 0.000000000000000D+00 0.000000000000000D+00 0.117797549687335D+04
 0.117797549687335D+04 -.000000000000000D+00 -.000000000000000D+00 -.117797549687335D+04
 0.598672300428636D+03 -.465595536534699D+03 0.211268028079008D+03 0.285254517880241D+03
 0.109499485297340D+04 0.476205380418476D+03 -.288634822457719D+03 -.942831959027446D+03
 0.530319788339056D+03 -.104370394793704D+02 0.657164930077725D+02 0.526128775736175D+03
 0.131964052005601D+03 -.172804404407314D+00 0.116503013709388D+02 0.131448665411030D+03
-.102001960789D-09 0.000000000000D+00 0.000000000000D+00 0.445714782234D-05 0.000000000000D+00  6 2 2 25 2 2 21 2 0.19401829D+00 0.16927902D+00 0.33720425D+06 0.33720425D+06 0.33720425D+06 0.10808154D+01  1  2 13  3  6  5        2 -.759491321644D-09 0.100000000000D+01
-.600215086504D-03 0.000000000000D+00 0.000000000000D+00 0.445714782234D-05 0.000000000000D+00  6 2 2 25 2 2 21 2 0.19401829D+00 0.16927902D+00 0.33720425D+06 0.33720425D+06 0.33720425D+06 0.10808154D+01  1  2 13  3  6  5        2 -.446911163075D-02 0.100000000000D+01
0.108749980206D-02 0.000000000000D+00 0.000000000000D+00 0.445714782234D-05 0.182247303347D-05  6 2 2 25 2 2 21 2 0.19401829D+00 0.16927902D+00 0.33720425D+06 0.33720425D+06 0.33720425D+06 0.10808154D+01  1  2  1  3  6  5        2 0.809736063473D-02 0.100000000000D+01
  </mgrwgt>
  </event>
  <event>
  6     66 0.18411016E-05 0.21756680E+02 0.75467711E-02 0.93732321E-01
        2 -1    0    0  502    0 0.00000000E+00 0.00000000E+00 0.92460211E+03 0.92460217E+03 0.32000000E+00 0.0000E+00 0.9000E+01
        2 -1    0    0  501    0 -.00000000E+00 -.00000000E+00 -.18354052E+04 0.18354052E+04 0.32000000E+00 0.0000E+00 0.9000E+01
       25  1    1    2    0    0 -.19378997E+03 0.49212602E+03 0.42638451E+03 0.69077589E+03 0.12500000E+03 0.0000E+00 0.9000E+01
        2  1    1    2  501    0 0.17364443E+03 -.47540255E+03 -.16645991E+04 0.17398420E+04 0.32000000E+00 0.0000E+00 0.9000E+01
        2  1    1    2  503    0 0.14253546E+02 -.21151487E+02 0.18076413E+03 0.18255499E+03 0.32000000E+00 0.0000E+00 0.9000E+01
       21  1    1    2  502  503 0.58919986E+01 0.44280137E+01 0.14664743E+03 0.14683444E+03 0.75000000E+00 0.0000E+00 0.9000E+01
#aMCatNLO 2  0  0  5  2 0.12279391D+02 0.00000000D+00  -5  6  0 0.00000000D+00 0.00000000D+00 0.00000000D+00 0.00000000D+00 0.00000000D+00
  <mgrwgt>
 0.5191887358D-02    2    2    0
 0.130269704866209D+04 0.000000000000000D+00 0.000000000000000D+00 0.130269704866209D+04
 0.130269704866209D+04 -.000000000000000D+00 -.000000000000000D+00 -.130269704866209D+04
 0.881279428463643D+03 -.193843575023792D+03 0.492306338919169D+03 0.693604763619170D+03
 0.126152169339595D+04 0.173704073820160D+03 -.475587881920752D+03 -.115545663883030D+04
 0.462592975464580D+03 0.201395012036316D+02 -.167184569984165D+02 0.461851875211127D+03
 0.000000000000000D+00 0.000000000000000D+00 0.000000000000000D+00 0.000000000000000D+00
 0.130269704866209D+04 0.000000000000000D+00 0.000000000000000D+00 0.130269704866209D+04
 0.130269704866209D+04 -.000000000000000D+00 -.000000000000000D+00 -.130269704866209D+04
 0.881448134591088D+03 -.193833860580076D+03 0.492298274642508D+03 0.693827541432841D+03
 0.126123594105405D+04 0.173717976812069D+03 -.475599423247920D+03 -.115513780656035D+04
 0.255693858150929D+03 0.142101076231612D+02 -.211008699358341D+02 0.254425185910115D+03
 0.207016163528112D+03 0.590577614484582D+01 0.440201854124616D+01 0.206885079217394D+03
-.391683479463D-10 0.000000000000D+00 0.000000000000D+00 0.257961226508D-04 0.000000000000D+00  6 2 2 25 2 2 21 2 0.14224649D+00 0.28237003D+00 0.29310695D+06 0.29310695D+06 0.29310695D+06 0.10852995D+01  1  2 13  3  6  5        2 -.183611994053D-09 0.100000000000D+01
0.110754016242D-02 0.000000000000D+00 0.000000000000D+00 0.257961226508D-04 0.101061166439D-05  6 2 2 25 2 2 21 2 0.14224649D+00 0.28237003D+00 0.29310695D+06 0.29310695D+06 0.29310695D+06 0.10852995D+01  1  2  1  3  6  5        2 0.519188754129D-02 0.100000000000D+01
  </mgrwgt>
  </event>
  <event>
  5     66 0.18411016E-05 0.30763864E+02 0.75467711E-02 0.89329992E-01
        2 -1    0    0  502    0 0.00000000E+00 0.00000000E+00 0.43746873E+03 0.43746884E+03 0.32000000E+00 0.0000E+00 0.9000E+01
        2 -1    0    0  501    0 0.00000000E+00 0.00000000E+00 -.14728160E+04 0.14728161E+04 0.32000000E+00 0.0000E+00 0.9000E+01
       25  1    1    2    0    0 -.47625922E+03 0.46991582E+03 -.20864794E+03 0.71190076E+03 0.12500000E+03 0.0000E+00 0.9000E+01
        2  1    1    2  501    0 0.46909852E+03 -.49989942E+03 -.89269236E+03 0.11255455E+04 0.32000000E+00 0.0000E+00 0.9000E+01
        2  1    1    2  502    0 0.71606999E+01 0.29983597E+02 0.65993010E+02 0.72838667E+02 0.32000000E+00 0.0000E+00 0.9000E+01
#aMCatNLO 1  0  0  1  5 0.10977616D+01 0.00000000D+00  -5  6  0 0.00000000D+00 0.00000000D+00 0.00000000D+00 0.00000000D+00 0.00000000D+00
  <mgrwgt>
 0.1123849363D-02    7    2    0
 0.802689910001819D+03 0.000000000000000D+00 0.000000000000000D+00 0.802689910001819D+03
 0.802689910001819D+03 0.000000000000000D+00 0.000000000000000D+00 -.802689910001819D+03
 0.712743212026108D+03 -.476343046018280D+03 0.470055311162297D+03 0.211005197204802D+03
 0.763667702674296D+03 0.469196965711299D+03 -.499977692190394D+03 -.336251207859712D+03
 0.128968905303233D+03 0.714608030698054D+01 0.299223810280974D+02 0.125246010654910D+03
 0.000000000000000D+00 0.000000000000000D+00 -.000000000000000D+00 0.000000000000000D+00
 0.113840020326429D+04 0.000000000000000D+00 0.000000000000000D+00 0.113840020326429D+04
 0.848766872290371D+03 0.000000000000000D+00 0.000000000000000D+00 -.848766872290371D+03
 0.807853668282673D+03 -.522852301358576D+03 0.564893642267617D+03 0.211005197204802D+03
 0.679563653692927D+03 0.425054026489449D+03 -.409964582858656D+03 -.336251207859712D+03
 0.133530902630571D+03 -.882787009577963D+00 0.462942702659957D+02 0.125246010654910D+03
 0.366218850948494D+03 0.986810618787046D+02 -.201223329674957D+03 0.289633330973923D+03
0.365720423178D-04 0.000000000000D+00 0.000000000000D+00 0.114490858700D-06 0.000000000000D+00  6 2 2 25 2 2 21 0 0.67302893D-01 0.22658709D+00 0.48805091D+06 0.48805091D+06 0.48805091D+06 0.10692536D+01  1  2  2  1  6  1        2 0.555840278824D-03 0.100000000000D+01
0.132523721389D-04 0.000000000000D+00 -.140446272140D-06 0.114490858700D-06 0.000000000000D+00  6 2 2 25 2 2 21 2 0.67302893D-01 0.22658709D+00 0.48805091D+06 0.48805091D+06 0.48805091D+06 0.10692536D+01  1  2  3  1  6  1        2 0.230279819080D-03 0.100000000000D+01
-.279744981878D-04 0.000000000000D+00 0.000000000000D+00 0.114490858700D-06 0.000000000000D+00  6 2 2 25 2 2 21 2 0.67302893D-01 0.22658709D+00 0.48805091D+06 0.48805091D+06 0.48805091D+06 0.10692536D+01  1  2 15  1  6  1        2 -.486098814161D-03 0.100000000000D+01
-.216628303460D-05 0.000000000000D+00 0.000000000000D+00 0.114490858700D-06 0.000000000000D+00  6 2 2 25 2 2 21 2 0.67302893D-01 0.22658709D+00 0.48805091D+06 0.48805091D+06 0.48805091D+06 0.10692536D+01  1  2  4  1  6  1        2 -.376424130002D-04 0.100000000000D+01
-.142105509077D-03 0.000000000000D+00 -.311965138623D-04 0.114490858700D-06 0.000000000000D+00  6 2 2 25 2 2 21 2 0.98790309D-01 0.22658709D+00 0.48805091D+06 0.48805091D+06 0.48805091D+06 0.10692536D+01  1  2  5  1  6  1        2 -.158336759194D-02 0.100000000000D+01
0.145402243964D-03 0.000000000000D+00 0.290319417540D-04 0.114490858700D-06 0.000000000000D+00  6 2 2 25 2 2 21 2 0.67302893D-01 0.22658709D+00 0.48805091D+06 0.48805091D+06 0.48805091D+06 0.10692536D+01  1  2  6  1  6  1        2 0.252658181365D-02 0.100000000000D+01
-.555671254472D-05 0.000000000000D+00 -.144072291717D-05 0.114490858700D-06 0.000000000000D+00  6 21 2 25 2 2 -2 2 0.98790309D-01 0.22658709D+00 0.48805091D+06 0.48805091D+06 0.48805091D+06 0.10692536D+01  1  2  5  4  6  1        2 -.817437291393D-04 0.100000000000D+01
  </mgrwgt>
  </event>
  <event>
  5     66 -.18411016E-05 0.14746011E+02 0.75467711E-02 0.92370775E-01
        2 -1    0    0  502    0 0.00000000E+00 0.00000000E+00 0.80724106E+03 0.80724112E+03 0.32000000E+00 0.0000E+00 0.9000E+01
        2 -1    0    0  501    0 0.00000000E+00 0.00000000E+00 -.19417934E+04 0.19417935E+04 0.32000000E+00 0.0000E+00 0.9000E+01
       25  1    1    2    0    0 -.24368831E+03 -.53937089E+03 0.29279827E+03 0.67205712E+03 0.12500000E+03 0.0000E+00 0.9000E+01
        2  1    1    2  501    0 -.54796503E+01 -.13688197E+02 -.14688867E+04 0.14689607E+04 0.32000000E+00 0.0000E+00 0.9000E+01
        2  1    1    2  502    0 0.24916796E+03 0.55305908E+03 0.41536030E+02 0.60801675E+03 0.32000000E+00 0.0000E+00 0.9000E+01
#aMCatNLO 1  0  0  1  5 0.10977616D+01 0.00000000D+00  -5  6  0 0.00000000D+00 0.00000000D+00 0.00000000D+00 0.00000000D+00 0.00000000D+00
  <mgrwgt>
 -.2999928511D-02    1    2    0
 0.125199660804667D+04 0.000000000000000D+00 0.000000000000000D+00 0.125199660804667D+04
 0.125199660804667D+04 0.000000000000000D+00 0.000000000000000D+00 -.125199660804667D+04
 0.870526025194455D+03 -.243638536592054D+03 -.539260218188825D+03 0.626122385087038D+03
 0.947265316797265D+03 -.548029834648420D+01 -.136898204199241D+02 -.947150534790498D+03
 0.686201874101622D+03 0.249118834938538D+03 0.552950038608749D+03 0.321028149703460D+03
 0.000000000000000D+00 -.000000000000000D+00 0.000000000000000D+00 0.000000000000000D+00
 0.129927992745229D+04 0.000000000000000D+00 0.000000000000000D+00 0.129927992745229D+04
 0.126492813676282D+04 0.000000000000000D+00 0.000000000000000D+00 -.126492813676282D+04
 0.879387898643345D+03 -.238691117465535D+03 -.555603622753066D+03 0.626122385087038D+03
 0.947670478637636D+03 -.122868206549917D+00 -.313876636716275D+02 -.947150534790498D+03
 0.677411746760060D+03 0.252974092055549D+03 0.540214504151045D+03 0.321028149703460D+03
 0.597379401740649D+02 -.141601063834639D+02 0.467767822736485D+02 0.343517906894652D+02
-.629361860809D-03 0.000000000000D+00 0.000000000000D+00 0.278767633735D-05 0.000000000000D+00  6 2 2 25 2 2 21 2 0.12419094D+00 0.29873746D+00 0.37578456D+06 0.37578456D+06 0.37578456D+06 0.10773882D+01  1  2 14  1  6  1        2 -.299992851131D-02 0.100000000000D+01
  </mgrwgt>
  </event>
  <event>
  5     66 0.18411016E-05 0.56543416E+02 0.75467711E-02 0.90234736E-01
        2 -1    0    0  502    0 0.00000000E+00 0.00000000E+00 0.49988454E+03 0.49988464E+03 0.32000000E+00 0.0000E+00 0.9000E+01
        2 -1    0    0  501    0 -.00000000E+00 -.00000000E+00 -.31149098E+04 0.31149098E+04 0.32000000E+00 0.0000E+00 0.9000E+01
       25  1    1    2    0    0 -.24525242E+03 -.50618925E+03 -.39221603E+03 0.69701845E+03 0.12500000E+03 0.0000E+00 0.9000E+01
        2  1    1    2  501    0 0.19099703E+03 0.49024126E+03 -.25408475E+04 0.25947490E+04 0.32000000E+00 0.0000E+00 0.9000E+01
        2  1    1    2  502    0 0.54255390E+02 0.15947986E+02 0.31803828E+03 0.32302698E+03 0.32000000E+00 0.0000E+00 0.9000E+01
#aMCatNLO 1  0  0  5  1 0.70186742D+02 0.00000000D+00  -5  6  0 0.00000000D+00 0.00000000D+00 0.00000000D+00 0.00000000D+00 0.00000000D+00
  <mgrwgt>
 0.5725624162D-02    6    2    0
 0.124783631420250D+04 0.000000000000000D+00 0.000000000000000D+00 0.124783631420250D+04
 0.124783631420250D+04 -.000000000000000D+00 -.000000000000000D+00 -.124783631420250D+04
 0.598686173067935D+03 -.245269897127845D+03 -.506245518375425D+03 0.162352352956224D+03
 0.109596178591668D+04 0.191021529057743D+03 0.490299596295183D+03 -.961378862623314D+03
 0.801024669420381D+03 0.542483680701027D+02 0.159459220802426D+02 0.799026509667090D+03
 0.000000000000000D+00 0.000000000000000D+00 0.000000000000000D+00 0.000000000000000D+00
 0.124783631420250D+04 0.000000000000000D+00 0.000000000000000D+00 0.124783631420250D+04
 0.124783631420250D+04 -.000000000000000D+00 -.000000000000000D+00 -.124783631420250D+04
 0.606774237503963D+03 -.243088723859354D+03 -.505604378001619D+03 0.194478946358064D+03
 0.104746143108303D+04 0.194899862500286D+03 0.491439604835091D+03 -.904254725176158D+03
 0.267333082280346D+03 0.144211784155501D+03 -.149791064713777D+03 0.168025519264517D+03
 0.574103877537655D+03 -.960229227964328D+02 0.163955837880305D+03 0.541750259553577D+03
0.395757062999D-02 0.000000000000D+00 0.000000000000D+00 0.141463306205D-04 0.000000000000D+00  6 2 2 25 2 2 21 0 0.76905323D-01 0.47921690D+00 0.33581590D+06 0.33581590D+06 0.33581590D+06 0.10809466D+01  1  2  2  3  6  5        2 0.594536301691D-02 0.100000000000D+01
0.164655894665D-02 0.000000000000D+00 -.151981132714D-04 0.141463306205D-04 0.000000000000D+00  6 2 2 25 2 2 21 2 0.76905323D-01 0.47921690D+00 0.33581590D+06 0.33581590D+06 0.33581590D+06 0.10809466D+01  1  2  3  3  6  5        2 0.289025040498D-02 0.100000000000D+01
-.279219599494D-02 0.000000000000D+00 0.000000000000D+00 0.141463306205D-04 0.000000000000D+00  6 2 2 25 2 2 21 2 0.76905323D-01 0.47921690D+00 0.33581590D+06 0.33581590D+06 0.33581590D+06 0.10809466D+01  1  2 15  3  6  5        2 -.490121876388D-02 0.100000000000D+01
-.675529682993D-04 0.000000000000D+00 0.000000000000D+00 0.141463306205D-04 0.000000000000D+00  6 2 2 25 2 2 21 2 0.76905323D-01 0.47921690D+00 0.33581590D+06 0.33581590D+06 0.33581590D+06 0.10809466D+01  1  2  4  3  6  5        2 -.118577591396D-03 0.100000000000D+01
-.127787299560D-02 0.000000000000D+00 0.000000000000D+00 0.141463306205D-04 0.000000000000D+00  6 2 2 25 2 2 21 2 0.76905323D-01 0.47921690D+00 0.33581590D+06 0.33581590D+06 0.33581590D+06 0.10809466D+01  1  2  5  3  6  5        2 -.224308577022D-02 0.100000000000D+01
0.236587905696D-02 0.000000000000D+00 -.000000000000D+00 0.141463306205D-04 0.000000000000D+00  6 2 2 25 2 2 21 2 0.76905323D-01 0.47921690D+00 0.33581590D+06 0.33581590D+06 0.33581590D+06 0.10809466D+01  1  2  6  3  6  5        2 0.415289286572D-02 0.100000000000D+01
  </mgrwgt>
  </event>
  <event>
  5     66 0.18411016E-05 0.51024374E+02 0.75467711E-02 0.93478935E-01
        2 -1    0    0  502    0 0.00000000E+00 0.00000000E+00 0.22457465E+04 0.22457465E+04 0.32000000E+00 0.0000E+00 0.9000E+01
        2 -1    0    0  501    0 0.00000000E+00 0.00000000E+00 -.24652551E+03 0.24652572E+03 0.32000000E+00 0.0000E+00 0.9000E+01
       25  1    1    2    0    0 -.77844395E+02 0.48898702E+03 0.11597822E+04 0.12672363E+04 0.12500000E+03 0.0000E+00 0.9000E+01
        2  1    1    2  501    0 0.78700797E+02 -.54005572E+03 0.19647825E+03 0.58004983E+03 0.32000000E+00 0.0000E+00 0.9000E+01
        2  1    1    2  502    0 -.85640214E+00 0.51068703E+02 0.64296050E+03 0.64498609E+03 0.32000000E+00 0.0000E+00 0.9000E+01
#aMCatNLO 1  0  0  5  1 0.13435215D+01 0.00000000D+00  -5  6  0 0.00000000D+00 0.00000000D+00 0.00000000D+00 0.00000000D+00 0.00000000D+00
  <mgrwgt>
 0.1189704260D-02    9    2    0
 0.744065912217931D+03 0.000000000000000D+00 0.000000000000000D+00 0.744065912217931D+03
 0.744065912217931D+03 -.000000000000000D+00 -.000000000000000D+00 -.744065912217931D+03
 0.564412346259617D+03 -.778616291920056D+02 0.489137537705170D+03 0.240038189706503D+03
 0.707518437495719D+03 0.787171676616725D+02 -.540154739090548D+03 -.450131985921606D+03
 0.216201040680526D+03 -.855538469666915D+00 0.510172013853773D+02 0.210093796215103D+03
 0.000000000000000D+00 0.000000000000000D+00 0.000000000000000D+00 0.000000000000000D+00
 0.744065912217931D+03 0.000000000000000D+00 0.000000000000000D+00 0.744065912217931D+03
 0.744065912217931D+03 -.000000000000000D+00 -.000000000000000D+00 -.744065912217931D+03
 0.564417874225347D+03 -.778616645697089D+02 0.489139647337268D+03 0.240046877376622D+03
 0.707509485111872D+03 0.787171233144915D+02 -.540152094593377D+03 -.450121095625105D+03
 0.166469032563566D+03 -.200215470299552D+01 0.392654057205308D+02 0.161759568782799D+03
 0.497354325350767D+02 0.114669595821293D+01 0.117470415355777D+02 0.483146494656848D+02
0.407549021555D-05 0.000000000000D+00 0.000000000000D+00 0.374168543021D-06 0.000000000000D+00  6 2 2 25 2 2 21 0 0.34549948D+00 0.37927019D-01 0.30675564D+06 0.30675564D+06 0.30675564D+06 0.10838371D+01  1  2  2  3  6  5        2 0.449420304263D-04 0.100000000000D+01
0.101396495517D-05 0.000000000000D+00 -.156509555289D-07 0.374168543021D-06 0.000000000000D+00  6 2 2 25 2 2 21 2 0.34549948D+00 0.37927019D-01 0.30675564D+06 0.30675564D+06 0.30675564D+06 0.10838371D+01  1  2  3  3  6  5        2 0.131348094849D-04 0.100000000000D+01
-.294695668601D-05 0.000000000000D+00 0.000000000000D+00 0.374168543021D-06 0.000000000000D+00  6 2 2 25 2 2 21 2 0.34549948D+00 0.37927019D-01 0.30675564D+06 0.30675564D+06 0.30675564D+06 0.10838371D+01  1  2 15  3  6  5        2 -.381746079423D-04 0.100000000000D+01
0.133940189605D-10 0.000000000000D+00 0.000000000000D+00 0.374168543021D-06 0.000000000000D+00  6 2 2 25 2 2 21 2 0.34549948D+00 0.37927019D-01 0.30680788D+06 0.30680788D+06 0.30680788D+06 0.10838316D+01  1  2 12  3  6  5        2 0.173501727023D-09 0.100000000000D+01
0.465818891985D-06 0.000000000000D+00 0.000000000000D+00 0.374168543021D-06 0.000000000000D+00  6 2 2 25 2 2 21 2 0.34549948D+00 0.37927019D-01 0.30680788D+06 0.30680788D+06 0.30680788D+06 0.10838316D+01  1  2 12  3  6  5        2 0.603406509115D-05 0.100000000000D+01
-.893740339197D-02 0.000000000000D+00 0.000000000000D+00 0.374168543021D-06 0.000000000000D+00  6 2 2 25 2 2 21 2 0.34549948D+00 0.37927019D-01 0.30675564D+06 0.30675564D+06 0.30675564D+06 0.10838371D+01  1  2  4  3  6  5        2 -.115774307824D+00 0.100000000000D+01
-.645419646364D-02 0.000000000000D+00 0.000000000000D+00 0.374168543021D-06 0.000000000000D+00  6 2 2 25 2 2 21 2 0.34549948D+00 0.37927019D-01 0.30675564D+06 0.30675564D+06 0.30675564D+06 0.10838371D+01  1  2  5  3  6  5        2 -.836070719166D-01 0.100000000000D+01
0.911593562461D-02 0.000000000000D+00 -.000000000000D+00 0.374168543021D-06 0.000000000000D+00  6 2 2 25 2 2 21 2 0.34549948D+00 0.37927019D-01 0.30675564D+06 0.30675564D+06 0.30675564D+06 0.10838371D+01  1  2  6  3  6  5        2 0.118086998071D+00 0.100000000000D+01
0.636561973326D-02 0.000000000000D+00 0.000000000000D+00 0.374168543021D-06 0.785653183795D-06  6 2 2 25 2 2 21 2 0.34549948D+00 0.37927019D-01 0.30680788D+06 0.30680788D+06 0.30680788D+06 0.10838316D+01  1  2 11  3  6  5        2 0.824581494588D-01 0.100000000000D+01
  </mgrwgt>
  </event>
  <event>
  5     66 0.18411016E-05 0.33160306E+02 0.75467711E-02 0.94498092E-01
        2 -1    0    0  502    0 0.00000000E+00 0.00000000E+00 0.18950736E+04 0.18950736E+04 0.32000000E+00 0.0000E+00 0.9000E+01
        2 -1    0    0  501    0 0.00000000E+00 0.00000000E+00 -.69726351E+03 0.69726358E+03 0.32000000E+00 0.0000E+00 0.9000E+01
       25  1    1    2    0    0 0.47392877E+03 -.80172356E+01 0.95156297E+03 0.10704064E+04 0.12500000E+03 0.0000E+00 0.9000E+01
        2  1    1    2  501    0 -.21617919E+02 -.25139201E+02 -.57917361E+03 0.58012196E+03 0.32000000E+00 0.0000E+00 0.9000E+01
        2  1    1    2  502    0 -.45231085E+03 0.33156436E+02 0.82542074E+03 0.94180888E+03 0.32000000E+00 0.0000E+00 0.9000E+01
#aMCatNLO 1  0  0  2  5 0.27798409D+02 0.00000000D+00  -5  6  0 0.00000000D+00 0.00000000D+00 0.00000000D+00 0.00000000D+00 0.00000000D+00
  <mgrwgt>
 0.5374990988D-02    9    2    0
 0.114950676723439D+04 0.000000000000000D+00 0.000000000000000D+00 0.114950676723439D+04
 0.114950676723439D+04 0.000000000000000D+00 0.000000000000000D+00 -.114950676723439D+04
 0.711261306329257D+03 0.473835836777370D+03 -.800691722909911D+01 0.515444599295770D+03
 0.955967859600082D+03 -.216208465835063D+02 -.251424917019085D+02 -.955392559470920D+03
 0.631784368539446D+03 -.452214990193864D+03 0.331494089310076D+02 0.439947960175150D+03
 0.000000000000000D+00 -.000000000000000D+00 0.000000000000000D+00 -.000000000000000D+00
 0.114979904526775D+04 0.000000000000000D+00 0.000000000000000D+00 0.114979904526775D+04
 0.207726219861407D+04 0.000000000000000D+00 0.000000000000000D+00 -.207726219861407D+04
 0.713428368365646D+03 0.476879273541931D+03 -.160642557191708D+02 0.515444599295770D+03
 0.956229760419282D+03 -.175359903223561D+02 -.359569334417948D+02 -.955392559470920D+03
 0.629523461083136D+03 -.449520571410402D+03 0.260160771578105D+02 0.439947960175150D+03
 0.927879654013758D+03 -.982271180917364D+01 0.260051120031550D+02 -.927463153346325D+03
0.546910942759D-05 0.000000000000D+00 0.000000000000D+00 0.836203586578D-05 0.000000000000D+00  6 2 2 25 2 2 21 0 0.29154979D+00 0.10727132D+00 0.23848592D+06 0.23848592D+06 0.23848592D+06 0.10920030D+01  1  2  2  2  6  2        2 0.294218800921D-04 0.100000000000D+01
0.339345492042D-05 0.000000000000D+00 -.210028202515D-07 0.836203586578D-05 0.000000000000D+00  6 2 2 25 2 2 21 2 0.29154979D+00 0.10727132D+00 0.23848592D+06 0.23848592D+06 0.23848592D+06 0.10920030D+01  1  2  3  2  6  2        2 0.217692526989D-04 0.100000000000D+01
-.360029637626D-05 0.000000000000D+00 0.000000000000D+00 0.836203586578D-05 0.000000000000D+00  6 2 2 25 2 2 21 2 0.29154979D+00 0.10727132D+00 0.23848592D+06 0.23848592D+06 0.23848592D+06 0.10920030D+01  1  2 15  2  6  2        2 -.230961552294D-04 0.100000000000D+01
0.466048748847D-09 0.000000000000D+00 0.000000000000D+00 0.836203586578D-05 0.000000000000D+00  6 2 2 25 2 2 21 2 0.29154979D+00 0.19387242D+00 0.25569593D+06 0.25569593D+06 0.25569593D+06 0.10897238D+01  1  2 12  2  6  2        2 0.129655367186D-08 0.100000000000D+01
-.735485771410D-03 0.000000000000D+00 0.000000000000D+00 0.836203586578D-05 0.000000000000D+00  6 2 2 25 2 2 21 2 0.29154979D+00 0.10727132D+00 0.23848592D+06 0.23848592D+06 0.23848592D+06 0.10920030D+01  1  2  4  2  6  2        2 -.471819310696D-02 0.100000000000D+01
-.395844304387D-02 0.000000000000D+00 -.321352054479D-05 0.836203586578D-05 0.000000000000D+00  6 2 2 25 2 2 21 2 0.29154979D+00 0.19386310D+00 0.23848592D+06 0.23848592D+06 0.23848592D+06 0.10920030D+01  1  2  5  2  6  2        2 -.111162901144D-01 0.100000000000D+01
0.335584750028D-02 0.000000000000D+00 0.272267923452D-05 0.836203586578D-05 0.000000000000D+00  6 2 2 25 2 2 21 2 0.29154979D+00 0.10727132D+00 0.23848592D+06 0.23848592D+06 0.23848592D+06 0.10920030D+01  1  2  6  2  6  2        2 0.215279984458D-01 0.100000000000D+01
0.302242579458D-10 0.000000000000D+00 0.000000000000D+00 0.836203586578D-05 0.000000000000D+00  6 2 21 25 2 2 -2 2 0.29154979D+00 0.19387242D+00 0.25569593D+06 0.25569593D+06 0.25569593D+06 0.10897238D+01  1  2 12  5  6  2        2 0.403247800665D-10 0.100000000000D+01
-.256523446840D-03 0.000000000000D+00 -.208388920955D-06 0.836203586578D-05 0.000000000000D+00  6 2 21 25 2 2 -2 2 0.29154979D+00 0.19386310D+00 0.23848592D+06 0.23848592D+06 0.23848592D+06 0.10920030D+01  1  2  5  5  6  2        2 -.346620550587D-03 0.100000000000D+01
  </mgrwgt>
  </event>
  <event>
  5     66 0.18411016E-05 0.36709308E+02 0.75467711E-02 0.89388467E-01
        2 -1    0    0  502    0 0.00000000E+00 0.00000000E+00 0.16022772E+04 0.16022772E+04 0.32000000E+00 0.0000E+00 0.9000E+01
        2 -1    0    0  501    0 0.00000000E+00 0.00000000E+00 -.11154155E+04 0.11154156E+04 0.32000000E+00 0.0000E+00 0.9000E+01
       25  1    1    2    0    0 -.31801065E+03 -.44853813E+03 0.92938987E+03 0.10870638E+04 0.12500000E+03 0.0000E+00 0.9000E+01
        2  1    1    2  501    0 0.29441817E+03 0.47668564E+03 -.96017180E+03 0.11116840E+04 0.32000000E+00 0.0000E+00 0.9000E+01
        2  1    1    2  502    0 0.23592479E+02 -.28147519E+02 0.51764363E+03 0.51894501E+03 0.32000000E+00 0.0000E+00 0.9000E+01
#aMCatNLO 1  0  0  1  1 0.33897541D+03 0.00000000D+00  -5  6  0 0.00000000D+00 0.00000000D+00 0.00000000D+00 0.00000000D+00 0.00000000D+00
  <mgrwgt>
 0.4145868082D-02    4    2    0
 0.133686384859277D+04 0.000000000000000D+00 0.000000000000000D+00 0.133686384859277D+04
 0.133686384859277D+04 0.000000000000000D+00 0.000000000000000D+00 -.133686384859277D+04
 0.935902200141027D+03 -.318034793433704D+03 -.448606742174019D+03 0.746922880403600D+03
 0.130481679243760D+04 0.294453812998388D+03 0.476740541873484D+03 -.117837272098943D+04
 0.433008704606915D+03 0.235809804353152D+02 -.281337996994645D+02 0.431449840585830D+03
 0.000000000000000D+00 -.000000000000000D+00 0.000000000000000D+00 -.000000000000000D+00
 0.149260236217547D+04 0.000000000000000D+00 0.000000000000000D+00 0.149260236217547D+04
 0.167746212591657D+04 0.000000000000000D+00 0.000000000000000D+00 -.167746212591657D+04
 0.101227549936002D+04 -.299679244822328D+03 -.601144947210641D+03 0.746922880403600D+03
 0.125160912893923D+04 0.318540219635335D+03 0.276577783899308D+03 -.117837272098943D+04
 0.443308804134579D+03 0.318375622834824D+02 -.967476124229274D+02 0.431449840585830D+03
 0.462871055658211D+03 -.506985370964901D+02 0.421314775734260D+03 -.184859763741094D+03
0.197039108868D-02 0.000000000000D+00 0.000000000000D+00 0.120222220424D-04 0.000000000000D+00  6 2 2 25 2 2 21 0 0.24650419D+00 0.17160239D+00 0.33697122D+06 0.33697122D+06 0.33697122D+06 0.10808374D+01  1  2  2  1  6  1        2 0.794024237892D-02 0.100000000000D+01
0.698684376395D-03 0.000000000000D+00 -.756682059644D-05 0.120222220424D-04 0.000000000000D+00  6 2 2 25 2 2 21 2 0.24650419D+00 0.17160239D+00 0.33697122D+06 0.33697122D+06 0.33697122D+06 0.10808374D+01  1  2  3  1  6  1        2 0.328914546044D-02 0.100000000000D+01
-.146085585929D-02 0.000000000000D+00 0.000000000000D+00 0.120222220424D-04 0.000000000000D+00  6 2 2 25 2 2 21 2 0.24650419D+00 0.17160239D+00 0.33697122D+06 0.33697122D+06 0.33697122D+06 0.10808374D+01  1  2 15  1  6  1        2 -.687716453993D-02 0.100000000000D+01
-.438342323597D-04 0.000000000000D+00 0.000000000000D+00 0.120222220424D-04 0.000000000000D+00  6 2 2 25 2 2 21 2 0.24650419D+00 0.17160239D+00 0.33697122D+06 0.33697122D+06 0.33697122D+06 0.10808374D+01  1  2  4  1  6  1        2 -.206355217390D-03 0.100000000000D+01
  </mgrwgt>
  </event>
  <event>
  5     66 0.18411016E-05 0.29044149E+03 0.75467711E-02 0.90847118E-01
        2 -1    0    0  502    0 0.00000000E+00 0.00000000E+00 0.21108653E+04 0.21108654E+04 0.32000000E+00 0.0000E+00 0.9000E+01
        2 -1    0    0  501    0 0.00000000E+00 0.00000000E+00 -.64505687E+03 0.64505695E+03 0.32000000E+00 0.0000E+00 0.9000E+01
       25  1    1    2    0    0 0.46937245E+03 0.38747376E+03 0.10596054E+04 0.12283465E+04 0.12500000E+03 0.0000E+00 0.9000E+01
        2  1    1    2  501    0 -.48975913E+03 -.97652117E+02 -.41952314E+03 0.65222674E+03 0.32000000E+00 0.0000E+00 0.9000E+01
        2  1    1    2  502    0 0.20386687E+02 -.28982165E+03 0.82572617E+03 0.87534908E+03 0.32000000E+00 0.0000E+00 0.9000E+01
#aMCatNLO 1  0  0  5  1 0.23524190D+02 0.00000000D+00  -5  6  0 0.00000000D+00 0.00000000D+00 0.00000000D+00 0.00000000D+00 0.00000000D+00
  <mgrwgt>
 0.1498597914D-03    8    2    0
 0.116688830892284D+04 0.000000000000000D+00 0.000000000000000D+00 0.116688830892284D+04
 0.116688830892284D+04 -.000000000000000D+00 -.000000000000000D+00 -.116688830892284D+04
 0.785126539232536D+03 0.469443169947134D+03 0.387403015630657D+03 0.479938221313450D+03
 0.103375974470100D+04 -.489823099636077D+03 -.976774271670038D+02 -.905092073244052D+03
 0.514890333912150D+03 0.203799296889434D+02 -.289725588463653D+03 0.425153851930602D+03
 0.000000000000000D+00 0.000000000000000D+00 0.000000000000000D+00 0.000000000000000D+00
 0.116688830892284D+04 0.000000000000000D+00 0.000000000000000D+00 0.116688830892284D+04
 0.116688830892284D+04 -.000000000000000D+00 -.000000000000000D+00 -.116688830892284D+04
 0.785655561367506D+03 0.469526255569697D+03 0.386221852041896D+03 0.481671503665847D+03
 0.103186106360407D+04 -.489713839802538D+03 -.992306891286878D+02 -.902812760223863D+03
 0.519375118375693D+02 0.238922696406230D+02 -.322768242172893D+02 0.329373831040602D+02
 0.464322481036537D+03 -.370468540778256D+01 -.254714338695919D+03 0.388203873453956D+03
0.455926309944D-04 0.000000000000D+00 0.000000000000D+00 0.318440278996D-07 0.000000000000D+00  6 2 2 25 2 2 21 0 0.32474852D+00 0.99239526D-01 0.49791688D+06 0.49791688D+06 0.49791688D+06 0.10686386D+01  1  2  2  3  6  5        2 0.196244155044D-03 0.100000000000D+01
0.201132228793D-05 0.000000000000D+00 -.175087707834D-06 0.318440278996D-07 0.000000000000D+00  6 2 2 25 2 2 21 2 0.32474852D+00 0.99239526D-01 0.49791688D+06 0.49791688D+06 0.49791688D+06 0.10686386D+01  1  2  3  3  6  5        2 0.988656501198D-05 0.100000000000D+01
-.313706113450D-04 0.000000000000D+00 0.000000000000D+00 0.318440278996D-07 0.000000000000D+00  6 2 2 25 2 2 21 2 0.32474852D+00 0.99239526D-01 0.49791688D+06 0.49791688D+06 0.49791688D+06 0.10686386D+01  1  2 15  3  6  5        2 -.154200841103D-03 0.100000000000D+01
0.188381487421D-08 0.000000000000D+00 0.000000000000D+00 0.318440278996D-07 0.000000000000D+00  6 2 2 25 2 2 21 2 0.32474852D+00 0.99239526D-01 0.50073174D+06 0.50073174D+06 0.50073174D+06 0.10684655D+01  1  2 12  3  6  5        2 0.925367282301D-08 0.100000000000D+01
0.551967805732D-04 0.000000000000D+00 0.000000000000D+00 0.318440278996D-07 0.000000000000D+00  6 2 2 25 2 2 21 2 0.32474852D+00 0.99239526D-01 0.50073174D+06 0.50073174D+06 0.50073174D+06 0.10684655D+01  1  2 12  3  6  5        2 0.271137549289D-03 0.100000000000D+01
-.100524418379D-03 0.000000000000D+00 0.000000000000D+00 0.318440278996D-07 0.000000000000D+00  6 2 2 25 2 2 21 2 0.32474852D+00 0.99239526D-01 0.49791688D+06 0.49791688D+06 0.49791688D+06 0.10686386D+01  1  2  4  3  6  5        2 -.494123295684D-03 0.100000000000D+01
-.542155694467D-04 0.000000000000D+00 0.000000000000D+00 0.318440278996D-07 0.000000000000D+00  6 2 2 25 2 2 21 2 0.32474852D+00 0.99239526D-01 0.49791688D+06 0.49791688D+06 0.49791688D+06 0.10686386D+01  1  2  5  3  6  5        2 -.266494213888D-03 0.100000000000D+01
0.119500752350D-03 0.000000000000D+00 -.000000000000D+00 0.318440278996D-07 0.000000000000D+00  6 2 2 25 2 2 21 2 0.32474852D+00 0.99239526D-01 0.49791688D+06 0.49791688D+06 0.49791688D+06 0.10686386D+01  1  2  6  3  6  5        2 0.587400619076D-03 0.100000000000D+01
  </mgrwgt>
  </event>
  <event>
  5     66 0.18411016E-05 0.34619061E+02 0.75467711E-02 0.93823801E-01
        2 -1    0    0  502    0 0.00000000E+00 0.00000000E+00 0.38496291E+04 0.38496291E+04 0.32000000E+00 0.0000E+00 0.9000E+01
        2 -1    0    0  501    0 0.00000000E+00 0.00000000E+00 -.66042047E+03 0.66042054E+03 0.32000000E+00 0.0000E+00 0.9000E+01
       25  1    1    2    0    0 -.42960233E+03 0.13709175E+03 0.71963691E+03 0.85840235E+03 0.12500000E+03 0.0000E+00 0.9000E+01
        2  1    1    2  501    0 0.42838739E+03 -.17169126E+03 -.50082841E+03 0.68104540E+03 0.32000000E+00 0.0000E+00 0.9000E+01
        2  1    1    2  502    0 0.12149465E+01 0.34599507E+02 0.29704001E+04 0.29706019E+04 0.32000000E+00 0.0000E+00 0.9000E+01
#aMCatNLO 1  0  0  5  2 0.41510304D+03 0.00000000D+00  -5  6  0 0.00000000D+00 0.00000000D+00 0.00000000D+00 0.00000000D+00 0.00000000D+00
  <mgrwgt>
 0.1222628496D-01    6    2    0
 0.159448237302772D+04 0.000000000000000D+00 0.000000000000000D+00 0.159448237302772D+04
 0.159448237302772D+04 -.000000000000000D+00 -.000000000000000D+00 -.159448237302772D+04
 0.494374334359420D+03 -.429639863865998D+03 0.137108090805585D+03 0.159348490065560D+03
 0.146405453827323D+04 0.428424979476804D+03 -.171705828641688D+03 -.138939729250103D+04
 0.123053587342279D+04 0.121488438919444D+01 0.345977378361040D+02 0.123004880243547D+04
 0.000000000000000D+00 0.000000000000000D+00 0.000000000000000D+00 0.000000000000000D+00
 0.159448237302772D+04 0.000000000000000D+00 0.000000000000000D+00 0.159448237302772D+04
 0.159448237302772D+04 -.000000000000000D+00 -.000000000000000D+00 -.159448237302772D+04
 0.494814304806773D+03 -.429638548917372D+03 0.137145538194190D+03 0.160679852125309D+03
 0.146030796215802D+04 0.428428866891499D+03 -.171595122013407D+03 -.138546135437167D+04
 0.601706817383426D+03 -.984299411320602D+01 0.886006695570932D+02 0.595066492844803D+03
 0.632135661707220D+03 0.110526761390794D+02 -.541510857378756D+02 0.629715009401554D+03
0.373664217193D-02 0.000000000000D+00 0.000000000000D+00 0.176246766671D-03 0.000000000000D+00  6 2 2 25 2 2 21 0 0.59225063D+00 0.10160316D+00 0.23240165D+06 0.23240165D+06 0.23240165D+06 0.10928520D+01  1  2  2  3  6  5        2 0.126280237025D-02 0.100000000000D+01
0.222751814167D-02 0.000000000000D+00 -.143496898207D-04 0.176246766671D-03 0.000000000000D+00  6 2 2 25 2 2 21 2 0.59225063D+00 0.10160316D+00 0.23240165D+06 0.23240165D+06 0.23240165D+06 0.10928520D+01  1  2  3  3  6  5        2 0.899078936439D-03 0.100000000000D+01
-.257260582580D-02 0.000000000000D+00 0.000000000000D+00 0.176246766671D-03 0.000000000000D+00  6 2 2 25 2 2 21 2 0.59225063D+00 0.10160316D+00 0.23240165D+06 0.23240165D+06 0.23240165D+06 0.10928520D+01  1  2 15  3  6  5        2 -.103836447680D-02 0.100000000000D+01
-.694618101964D-03 0.000000000000D+00 0.000000000000D+00 0.176246766671D-03 0.000000000000D+00  6 2 2 25 2 2 21 2 0.59225063D+00 0.10160316D+00 0.23240165D+06 0.23240165D+06 0.23240165D+06 0.10928520D+01  1  2  4  3  6  5        2 -.280364272982D-03 0.100000000000D+01
-.456722223103D-01 0.000000000000D+00 0.000000000000D+00 0.176246766671D-03 0.000000000000D+00  6 2 2 25 2 2 21 2 0.59225063D+00 0.10160316D+00 0.23240165D+06 0.23240165D+06 0.23240165D+06 0.10928520D+01  1  2  5  3  6  5        2 -.184343877122D-01 0.100000000000D+01
0.738745668517D-01 0.000000000000D+00 -.000000000000D+00 0.176246766671D-03 0.000000000000D+00  6 2 2 25 2 2 21 2 0.59225063D+00 0.10160316D+00 0.23240165D+06 0.23240165D+06 0.23240165D+06 0.10928520D+01  1  2  6  3  6  5        2 0.298175201146D-01 0.100000000000D+01
  </mgrwgt>
  </event>
  <event>
  5     66 0.18411016E-05 0.82829567E+02 0.75467711E-02 0.94516150E-01
        2 -1    0    0  502    0 0.00000000E+00 0.00000000E+00 0.23569779E+04 0.23569780E+04 0.32000000E+00 0.0000E+00 0.9000E+01
        2 -1    0    0  501    0 0.00000000E+00 0.00000000E+00 -.17745637E+04 0.17745637E+04 0.32000000E+00 0.0000E+00 0.9000E+01
       25  1    1    2    0    0 -.12383191E+03 0.47789064E+03 0.10162989E+03 0.51929514E+03 0.12500000E+03 0.0000E+00 0.9000E+01
        2  1    1    2  501    0 0.76111721E+02 -.41018679E+03 -.15370764E+04 0.15926864E+04 0.32000000E+00 0.0000E+00 0.9000E+01
        2  1    1    2  502    0 0.47720191E+02 -.67703849E+02 0.20178607E+04 0.20195601E+04 0.32000000E+00 0.0000E+00 0.9000E+01
#aMCatNLO 1  0  0  5  1 0.34143312D+01 0.00000000D+00  -5  6  0 0.00000000D+00 0.00000000D+00 0.00000000D+00 0.00000000D+00 0.00000000D+00
  <mgrwgt>
 0.2379990062D-01    9    2    0
 0.204514243370877D+04 0.000000000000000D+00 0.000000000000000D+00 0.204514243370877D+04
 0.204514243370877D+04 -.000000000000000D+00 -.000000000000000D+00 -.204514243370877D+04
 0.510089135222501D+03 -.123836131267251D+03 0.477916065453377D+03 0.287536579648934D+02
 0.182762487670550D+04 0.761169509521233D+02 -.410213650102774D+03 -.177936608403102D+04
 0.175257085548955D+04 0.477191803151281D+02 -.677024153506032D+02 0.175061242606613D+04
 0.000000000000000D+00 0.000000000000000D+00 -.000000000000000D+00 0.000000000000000D+00
 0.204514243370877D+04 0.000000000000000D+00 0.000000000000000D+00 0.204514243370877D+04
 0.204514243370877D+04 -.000000000000000D+00 -.000000000000000D+00 -.204514243370877D+04
 0.510089196614919D+03 -.123836007511781D+03 0.477915889873156D+03 0.287581980232502D+02
 0.182760919916499D+04 0.761173943601005D+02 -.410214279195538D+03 -.177934981729069D+04
 0.157455983743675D+04 0.438742517736703D+02 -.575631722652012D+02 0.157289548695993D+04
 0.178026634200888D+03 0.384436137801063D+01 -.101384384124169D+02 0.177696132307514D+03
0.301061008369D-04 0.000000000000D+00 0.000000000000D+00 0.272316153579D-03 0.000000000000D+00  6 2 2 25 2 2 21 0 0.36261199D+00 0.27300980D+00 0.25468345D+06 0.25468345D+06 0.25468345D+06 0.10898532D+01  1  2  2  3  6  5        2 0.203970558497D-04 0.100000000000D+01
0.103344939290D-04 0.000000000000D+00 -.115615354332D-06 0.272316153579D-03 0.000000000000D+00  6 2 2 25 2 2 21 2 0.36261199D+00 0.27300980D+00 0.25468345D+06 0.25468345D+06 0.25468345D+06 0.10898532D+01  1  2  3  3  6  5        2 0.831645441125D-05 0.100000000000D+01
-.212034715707D-04 0.000000000000D+00 0.000000000000D+00 0.272316153579D-03 0.000000000000D+00  6 2 2 25 2 2 21 2 0.36261199D+00 0.27300980D+00 0.25468345D+06 0.25468345D+06 0.25468345D+06 0.10898532D+01  1  2 15  3  6  5        2 -.170630227169D-04 0.100000000000D+01
0.223783117884D-11 0.000000000000D+00 0.000000000000D+00 0.272316153579D-03 0.000000000000D+00  6 2 2 25 2 2 21 2 0.36261199D+00 0.27300980D+00 0.25488083D+06 0.25488083D+06 0.25488083D+06 0.10898280D+01  1  2 12  3  6  5        2 0.180062845842D-11 0.100000000000D+01
0.109973346879D-01 0.000000000000D+00 0.000000000000D+00 0.272316153579D-03 0.000000000000D+00  6 2 2 25 2 2 21 2 0.36261199D+00 0.27300980D+00 0.25488083D+06 0.25488083D+06 0.25488083D+06 0.10898280D+01  1  2 12  3  6  5        2 0.884879699286D-02 0.100000000000D+01
-.201952052152D+00 0.000000000000D+00 0.000000000000D+00 0.272316153579D-03 0.000000000000D+00  6 2 2 25 2 2 21 2 0.36261199D+00 0.27300980D+00 0.25468345D+06 0.25468345D+06 0.25468345D+06 0.10898532D+01  1  2  4  3  6  5        2 -.162516427656D+00 0.100000000000D+01
-.330633422355D+00 0.000000000000D+00 0.000000000000D+00 0.272316153579D-03 0.000000000000D+00  6 2 2 25 2 2 21 2 0.36261199D+00 0.27300980D+00 0.25468345D+06 0.25468345D+06 0.25468345D+06 0.10898532D+01  1  2  5  3  6  5        2 -.266069901704D+00 0.100000000000D+01
0.365915346450D+00 0.000000000000D+00 -.000000000000D+00 0.272316153579D-03 0.000000000000D+00  6 2 2 25 2 2 21 2 0.36261199D+00 0.27300980D+00 0.25468345D+06 0.25468345D+06 0.25468345D+06 0.10898532D+01  1  2  6  3  6  5        2 0.294462246340D+00 0.100000000000D+01
0.185257001400D+00 0.000000000000D+00 0.000000000000D+00 0.272316153579D-03 0.718528454854D-04  6 2 2 25 2 2 21 2 0.36261199D+00 0.27300980D+00 0.25488083D+06 0.25488083D+06 0.25488083D+06 0.10898280D+01  1  2 11  3  6  5        2 0.149063536158D+00 0.100000000000D+01
  </mgrwgt>
  </event>
  <event>
  5     66 0.18411016E-05 0.62847117E+02 0.75467711E-02 0.91230894E-01
        2 -1    0    0  502    0 0.00000000E+00 0.00000000E+00 0.17149396E+04 0.17149396E+04 0.32000000E+00 0.0000E+00 0.9000E+01
        2 -1    0    0  501    0 0.00000000E+00 0.00000000E+00 -.65444051E+03 0.65444059E+03 0.32000000E+00 0.0000E+00 0.9000E+01
       25  1    1    2    0    0 -.46924816E+03 0.25263427E+03 0.78541180E+03 0.95734769E+03 0.12500000E+03 0.0000E+00 0.9000E+01
        2  1    1    2  501    0 0.40860457E+03 -.23604983E+03 -.46899009E+03 0.66530370E+03 0.32000000E+00 0.0000E+00 0.9000E+01
        2  1    1    2  502    0 0.60643594E+02 -.16584444E+02 0.74407737E+03 0.74672881E+03 0.32000000E+00 0.0000E+00 0.9000E+01
#aMCatNLO 1  0  0  1  1 0.14391202D+04 0.00000000D+00  -5  6  0 0.00000000D+00 0.00000000D+00 0.00000000D+00 0.00000000D+00 0.00000000D+00
  <mgrwgt>
 0.9317516095D-02    7    2    0
 0.105939891921934D+04 0.000000000000000D+00 0.000000000000000D+00 0.105939891921934D+04
 0.105939891921934D+04 0.000000000000000D+00 0.000000000000000D+00 -.105939891921934D+04
 0.677593966517063D+03 -.469288310723709D+03 0.252663340488808D+03 0.399297259258627D+03
 0.978758802917046D+03 0.408667191120974D+03 -.236085042790275D+03 -.857451907549115D+03
 0.462445069004580D+03 0.606211196027349D+02 -.165782976985330D+02 0.458154648290487D+03
 0.000000000000000D+00 -.000000000000000D+00 -.000000000000000D+00 0.000000000000000D+00
 0.154864160161975D+04 0.000000000000000D+00 0.000000000000000D+00 0.154864160161975D+04
 0.108787930475025D+04 0.000000000000000D+00 0.000000000000000D+00 -.108787930475025D+04
 0.645833088341513D+03 -.407438471378663D+03 0.275737137117770D+03 0.399297259258627D+03
 0.101368175927253D+04 0.501783111808532D+03 -.201347073547105D+03 -.857451907549115D+03
 0.469852844588576D+03 0.104191693413938D+03 -.323792112539305D+00 0.458154648290487D+03
 0.507153214167380D+03 -.198536333843807D+03 -.740662714581260D+02 0.460762296869499D+03
0.312636697095D-03 0.000000000000D+00 0.000000000000D+00 0.505965804320D-05 0.000000000000D+00  6 2 2 25 2 2 21 0 0.26383687D+00 0.10068316D+00 0.29281634D+06 0.29281634D+06 0.29281634D+06 0.10853315D+01  1  2  2  1  6  1        2 0.224894756268D-02 0.100000000000D+01
0.825238784569D-04 0.000000000000D+00 -.120060723598D-05 0.505965804320D-05 0.000000000000D+00  6 2 2 25 2 2 21 2 0.26383687D+00 0.10068316D+00 0.29281634D+06 0.29281634D+06 0.29281634D+06 0.10853315D+01  1  2  3  1  6  1        2 0.699268245538D-03 0.100000000000D+01
-.223577399021D-03 0.000000000000D+00 0.000000000000D+00 0.505965804320D-05 0.000000000000D+00  6 2 2 25 2 2 21 2 0.26383687D+00 0.10068316D+00 0.29281634D+06 0.29281634D+06 0.29281634D+06 0.10853315D+01  1  2 15  1  6  1        2 -.189448894646D-02 0.100000000000D+01
-.275075452398D-04 0.000000000000D+00 0.000000000000D+00 0.505965804320D-05 0.000000000000D+00  6 2 2 25 2 2 21 2 0.26383687D+00 0.10068316D+00 0.29281634D+06 0.29281634D+06 0.29281634D+06 0.10853315D+01  1  2  4  1  6  1        2 -.233085905057D-03 0.100000000000D+01
-.159274898612D-02 0.000000000000D+00 -.209352486096D-03 0.505965804320D-05 0.000000000000D+00  6 2 2 25 2 2 21 2 0.38846566D+00 0.10068316D+00 0.29281634D+06 0.29281634D+06 0.29281634D+06 0.10853315D+01  1  2  5  1  6  1        2 -.477986181239D-02 0.100000000000D+01
0.156955685622D-02 0.000000000000D+00 0.194606431501D-03 0.505965804320D-05 0.000000000000D+00  6 2 2 25 2 2 21 2 0.26383687D+00 0.10068316D+00 0.29281634D+06 0.29281634D+06 0.29281634D+06 0.10853315D+01  1  2  6  1  6  1        2 0.132996811304D-01 0.100000000000D+01
-.671597293518D-04 0.000000000000D+00 -.972480958142D-05 0.505965804320D-05 0.000000000000D+00  6 21 2 25 2 2 -2 2 0.38846566D+00 0.10068316D+00 0.29281634D+06 0.29281634D+06 0.29281634D+06 0.10853315D+01  1  2  5  4  6  1        2 -.229441794326D-04 0.100000000000D+01
  </mgrwgt>
  </event>
  <event>
  5     66 0.18411016E-05 0.67910064E+02 0.75467711E-02 0.92008422E-01
        2 -1    0    0  502    0 0.00000000E+00 0.00000000E+00 0.16041565E+04 0.16041565E+04 0.32000000E+00 0.0000E+00 0.9000E+01
        2 -1    0    0  501    0 0.00000000E+00 0.00000000E+00 -.68238386E+03 0.68238394E+03 0.32000000E+00 0.0000E+00 0.9000E+01
       25  1    1    2    0    0 0.50578614E+03 0.20475141E+03 0.26249756E+03 0.61828207E+03 0.12500000E+03 0.0000E+00 0.9000E+01
        2  1    1    2  501    0 0.31588695E+02 -.60107480E+02 -.43517961E+03 0.44044540E+03 0.32000000E+00 0.0000E+00 0.9000E+01
        2  1    1    2  502    0 -.53737483E+03 -.14464393E+03 0.10944547E+04 0.12278130E+04 0.32000000E+00 0.0000E+00 0.9000E+01
#aMCatNLO 1  0  0  5  5 0.16703683D+03 0.00000000D+00  -5  6  0 0.00000000D+00 0.00000000D+00 0.00000000D+00 0.00000000D+00 0.00000000D+00
  <mgrwgt>
 0.1889050315D-02    6    2    0
 0.104625552601390D+04 0.000000000000000D+00 0.000000000000000D+00 0.104625552601390D+04
 0.104625552601390D+04 -.000000000000000D+00 -.000000000000000D+00 -.104625552601390D+04
 0.559956788685453D+03 0.505757912333993D+03 0.204751545905964D+03 0.145720196130859D+02
 0.673050496054430D+03 0.315916884198672D+02 -.601144077118557D+02 -.669615705795010D+03
 0.859503767287915D+03 -.537349600753860D+03 -.144637138194108D+03 0.655043686181924D+03
 0.000000000000000D+00 0.000000000000000D+00 0.000000000000000D+00 0.000000000000000D+00
 0.104625552601390D+04 0.000000000000000D+00 0.000000000000000D+00 0.104625552601390D+04
 0.104625552601390D+04 -.000000000000000D+00 -.000000000000000D+00 -.104625552601390D+04
 0.539956903471663D+03 0.484434828009416D+03 0.199012061053175D+03 0.405654357003856D+02
 0.642068486039799D+03 0.609660353093165D+01 -.669768602216894D+02 -.638536508263757D+03
 0.726167802083578D+03 -.568228197108656D+03 -.136965706928188D+03 0.430902295096235D+03
 0.184317860432758D+03 0.776967655683086D+02 0.493050609670180D+01 0.167068777467136D+03
0.334857399170D-03 0.000000000000D+00 0.000000000000D+00 0.285894489567D-05 0.000000000000D+00  6 2 2 25 2 2 21 0 0.24679331D+00 0.10498214D+00 0.35055415D+06 0.35055415D+06 0.35055415D+06 0.10795832D+01  1  2  2  3  6  5        2 0.260759254758D-02 0.100000000000D+01
0.119074775247D-03 0.000000000000D+00 -.128594058279D-05 0.285894489567D-05 0.000000000000D+00  6 2 2 25 2 2 21 2 0.24679331D+00 0.10498214D+00 0.35055415D+06 0.35055415D+06 0.35055415D+06 0.10795832D+01  1  2  3  3  6  5        2 0.108071664431D-02 0.100000000000D+01
-.216323780881D-03 0.000000000000D+00 0.000000000000D+00 0.285894489567D-05 0.000000000000D+00  6 2 2 25 2 2 21 2 0.24679331D+00 0.10498214D+00 0.35055415D+06 0.35055415D+06 0.35055415D+06 0.10795832D+01  1  2 15  3  6  5        2 -.196334370628D-02 0.100000000000D+01
-.875271906810D-04 0.000000000000D+00 0.000000000000D+00 0.285894489567D-05 0.000000000000D+00  6 2 2 25 2 2 21 2 0.24679331D+00 0.10498214D+00 0.35055415D+06 0.35055415D+06 0.35055415D+06 0.10795832D+01  1  2  4  3  6  5        2 -.794392360618D-03 0.100000000000D+01
-.445997573987D-03 0.000000000000D+00 0.000000000000D+00 0.285894489567D-05 0.000000000000D+00  6 2 2 25 2 2 21 2 0.24679331D+00 0.10498214D+00 0.35055415D+06 0.35055415D+06 0.35055415D+06 0.10795832D+01  1  2  5  3  6  5        2 -.404785144905D-02 0.100000000000D+01
0.551603846104D-03 0.000000000000D+00 -.000000000000D+00 0.285894489567D-05 0.000000000000D+00  6 2 2 25 2 2 21 2 0.24679331D+00 0.10498214D+00 0.35055415D+06 0.35055415D+06 0.35055415D+06 0.10795832D+01  1  2  6  3  6  5        2 0.500632863940D-02 0.100000000000D+01
  </mgrwgt>
  </event>
  <event>
  5     66 0.18411016E-05 0.24136134E+02 0.75467711E-02 0.91511935E-01
        2 -1    0    0  502    0 0.00000000E+00 0.00000000E+00 0.23485367E+04 0.23485367E+04 0.32000000E+00 0.0000E+00 0.9000E+01
        2 -1    0    0  501    0 0.00000000E+00 0.00000000E+00 -.93203132E+03 0.93203137E+03 0.32000000E+00 0.0000E+00 0.9000E+01
       25  1    1    2    0    0 -.15785112E+03 -.48183620E+03 -.14380583E+03 0.54165323E+03 0.12500000E+03 0.0000E+00 0.9000E+01
        2  1    1    2  501    0 0.13808328E+03 0.49568584E+03 -.47689245E+03 0.70156821E+03 0.32000000E+00 0.0000E+00 0.9000E+01
        2  1    1    2  502    0 0.19767846E+02 -.13849641E+02 0.20372037E+04 0.20373467E+04 0.32000000E+00 0.0000E+00 0.9000E+01
#aMCatNLO 1  0  0  5  5 0.16703683D+03 0.00000000D+00  -5  6  0 0.00000000D+00 0.00000000D+00 0.00000000D+00 0.00000000D+00 0.00000000D+00
  <mgrwgt>
 0.1451762500D-01    4    2    0
 0.147949649873371D+04 0.000000000000000D+00 0.000000000000000D+00 0.147949649873371D+04
 0.147949649873371D+04 -.000000000000000D+00 -.000000000000000D+00 -.147949649873371D+04
 0.669378331230626D+03 -.157862294525335D+03 -.481875213556344D+03 -.418710072542233D+03
 0.100611878695038D+04 0.138094912006764D+03 0.495724529620893D+03 -.864558846733111D+03
 0.128349587928641D+04 0.197673825185716D+02 -.138493160645497D+02 0.128326891927535D+04
 0.000000000000000D+00 0.000000000000000D+00 0.000000000000000D+00 0.000000000000000D+00
 0.147949649873371D+04 0.000000000000000D+00 0.000000000000000D+00 0.147949649873371D+04
 0.147949649873371D+04 -.000000000000000D+00 -.000000000000000D+00 -.147949649873371D+04
 0.645432730606174D+03 -.157250045064638D+03 -.482304164444686D+03 -.378963752916061D+03
 0.955446442068219D+03 0.139008326327991D+03 0.495084578245405D+03 -.805261354627103D+03
 0.121592905103110D+04 -.462410865410658D+01 -.151341042867395D+03 0.120646506932624D+04
 0.142184773761923D+03 0.228658273907539D+02 0.138560629066676D+03 -.222399617830724D+02
0.703654285530D-02 0.000000000000D+00 0.000000000000D+00 0.416313956948D-04 0.000000000000D+00  6 2 2 25 2 2 21 0 0.36131334D+00 0.14338944D+00 0.28142493D+06 0.28142493D+06 0.28142493D+06 0.10866116D+01  1  2  2  3  6  5        2 0.144485242732D-01 0.100000000000D+01
0.584386035518D-02 0.000000000000D+00 -.270221773287D-04 0.416313956948D-04 0.000000000000D+00  6 2 2 25 2 2 21 2 0.36131334D+00 0.14338944D+00 0.28142493D+06 0.28142493D+06 0.28142493D+06 0.10866116D+01  1  2  3  3  6  5        2 0.141681332482D-01 0.100000000000D+01
-.512271630574D-02 0.000000000000D+00 0.000000000000D+00 0.416313956948D-04 0.000000000000D+00  6 2 2 25 2 2 21 2 0.36131334D+00 0.14338944D+00 0.28142493D+06 0.28142493D+06 0.28142493D+06 0.10866116D+01  1  2 15  3  6  5        2 -.124197572839D-01 0.100000000000D+01
-.692642413428D-03 0.000000000000D+00 0.000000000000D+00 0.416313956948D-04 0.000000000000D+00  6 2 2 25 2 2 21 2 0.36131334D+00 0.14338944D+00 0.28142493D+06 0.28142493D+06 0.28142493D+06 0.10866116D+01  1  2  4  3  6  5        2 -.167927524108D-02 0.100000000000D+01
  </mgrwgt>
  </event>
  <event>
  5     66 0.18411016E-05 0.89479555E+02 0.75467711E-02 0.93574637E-01
        2 -1    0    0  502    0 0.00000000E+00 0.00000000E+00 0.30385067E+04 0.30385067E+04 0.32000000E+00 0.0000E+00 0.9000E+01
        2 -1    0    0  501    0 0.00000000E+00 0.00000000E+00 -.13581017E+04 0.13581017E+04 0.32000000E+00 0.0000E+00 0.9000E+01
       25  1    1    2    0    0 0.19287489E+03 0.44879519E+03 -.26032949E+03 0.56746303E+03 0.12500000E+03 0.0000E+00 0.9000E+01
        2  1    1    2  501    0 -.10340117E+03 -.44772356E+03 -.88754961E+03 0.99944615E+03 0.32000000E+00 0.0000E+00 0.9000E+01
        2  1    1    2  502    0 -.89473724E+02 -.10716380E+01 0.28282841E+04 0.28296992E+04 0.32000000E+00 0.0000E+00 0.9000E+01
#aMCatNLO 1  0  0  2  4 0.30302194D+02 0.00000000D+00  -5  6  0 0.00000000D+00 0.00000000D+00 0.00000000D+00 0.00000000D+00 0.00000000D+00
  <mgrwgt>
 0.1838634900D-01   11    2    0
 0.203140373909438D+04 0.000000000000000D+00 0.000000000000000D+00 0.203140373909438D+04
 0.203140373909438D+04 0.000000000000000D+00 0.000000000000000D+00 -.203140373909438D+04
 0.721764506370413D+03 0.192880300691496D+03 0.448815812809776D+03 -.516411229964245D+03
 0.144866528991133D+04 -.103407162986173D+03 -.447744181812479D+03 -.137384978381558D+04
 0.189237768190701D+04 -.894731377053233D+02 -.107163099729751D+01 0.189026101377982D+04
 0.000000000000000D+00 0.000000000000000D+00 0.000000000000000D+00 -.000000000000000D+00
 0.203218561730458D+04 0.000000000000000D+00 0.000000000000000D+00 0.203218561730458D+04
 0.234792418270530D+04 0.000000000000000D+00 0.000000000000000D+00 -.234792418270530D+04
 0.718341524703613D+03 0.189262560604050D+03 0.444846794788864D+03 -.516411229964245D+03
 0.145169318897256D+04 -.110693253670204D+03 -.455737742579119D+03 -.137384978381558D+04
 0.189288576644598D+04 -.989822287188792D+02 -.115040425810531D+02 0.189026101377982D+04
 0.317189319887729D+03 0.204129217850330D+02 0.223949903713079D+02 -.315738565400724D+03
0.380592824948D-03 0.000000000000D+00 0.000000000000D+00 0.919827137406D-04 0.000000000000D+00  6 2 2 25 2 2 21 0 0.46746257D+00 0.20893872D+00 0.27733655D+06 0.27733655D+06 0.27733655D+06 0.10870848D+01  1  2  2  2  6  2        2 0.169139973559D-03 0.100000000000D+01
0.124897110861D-03 0.000000000000D+00 -.146157666019D-05 0.919827137406D-04 0.000000000000D+00  6 2 2 25 2 2 21 2 0.46746257D+00 0.20893872D+00 0.27733655D+06 0.27733655D+06 0.27733655D+06 0.10870848D+01  1  2  3  2  6  2        2 0.655941231887D-04 0.100000000000D+01
-.251277480941D-03 0.000000000000D+00 0.000000000000D+00 0.919827137406D-04 0.000000000000D+00  6 2 2 25 2 2 21 2 0.46746257D+00 0.20893872D+00 0.27733655D+06 0.27733655D+06 0.27733655D+06 0.10870848D+01  1  2 15  2  6  2        2 -.131967232274D-03 0.100000000000D+01
0.709478153305D-10 0.000000000000D+00 0.000000000000D+00 0.919827137407D-04 0.000000000000D+00  6 2 2 25 2 2 21 2 0.46746257D+00 0.24153381D+00 0.30155056D+06 0.30155056D+06 0.30155056D+06 0.10843863D+01  1  2 12  2  6  2        2 0.280689475372D-10 0.100000000000D+01
0.987124927764D-01 0.000000000000D+00 0.000000000000D+00 0.919827137407D-04 0.000000000000D+00  6 2 2 25 2 2 21 2 0.46746257D+00 0.24380666D+00 0.30155056D+06 0.30155056D+06 0.30155056D+06 0.10843863D+01  1  2 12  2  6  2        2 0.383330654485D-01 0.100000000000D+01
-.622789082862D-01 0.000000000000D+00 0.000000000000D+00 0.919827137406D-04 0.000000000000D+00  6 2 2 25 2 2 21 2 0.46746257D+00 0.20893872D+00 0.27733655D+06 0.27733655D+06 0.27733655D+06 0.10870848D+01  1  2  4  2  6  2        2 -.327079654126D-01 0.100000000000D+01
-.106578358000D+00 0.000000000000D+00 -.561645535066D-03 0.919827137406D-04 0.000000000000D+00  6 2 2 25 2 2 21 2 0.46746257D+00 0.24152704D+00 0.27733655D+06 0.27733655D+06 0.27733655D+06 0.10870848D+01  1  2  5  2  6  2        2 -.427543369043D-01 0.100000000000D+01
0.105554934335D+00 0.000000000000D+00 0.555797288361D-03 0.919827137406D-04 0.000000000000D+00  6 2 2 25 2 2 21 2 0.46746257D+00 0.20893872D+00 0.27733655D+06 0.27733655D+06 0.27733655D+06 0.10870848D+01  1  2  6  2  6  2        2 0.554358969408D-01 0.100000000000D+01
0.157416684679D-11 0.000000000000D+00 0.000000000000D+00 0.919827137407D-04 0.000000000000D+00  6 2 21 25 2 2 -2 2 0.46746257D+00 0.24153381D+00 0.30155056D+06 0.30155056D+06 0.30155056D+06 0.10843863D+01  1  2 12  5  6  2        2 0.200217168819D-12 0.100000000000D+01
0.230411970727D-02 0.000000000000D+00 0.000000000000D+00 0.919827137407D-04 0.000000000000D+00  6 2 21 25 2 2 -2 2 0.46746257D+00 0.24380666D+00 0.30155056D+06 0.30155056D+06 0.30155056D+06 0.10843863D+01  1  2 12  5  6  2        2 0.282659706864D-03 0.100000000000D+01
-.236068857492D-02 0.000000000000D+00 -.124596442351D-04 0.919827137406D-04 0.000000000000D+00  6 2 21 25 2 2 -2 2 0.46746257D+00 0.24152704D+00 0.27733655D+06 0.27733655D+06 0.27733655D+06 0.10870848D+01  1  2  5  5  6  2        2 -.305737670826D-03 0.100000000000D+01
  </mgrwgt>
  </event>
  <event>
  5     66 0.18411016E-05 0.13470605E+03 0.75467711E-02 0.91137536E-01
        2 -1    0    0  502    0 0.00000000E+00 0.00000000E+00 0.13773070E+04 0.13773071E+04 0.32000000E+00 0.0000E+00 0.9000E+01
        2 -1    0    0  501    0 0.00000000E+00 0.00000000E+00 -.89270622E+03 0.89270628E+03 0.32000000E+00 0.0000E+00 0.9000E+01
       25  1    1    2    0    0 -.42004068E+03 0.38170069E+03 0.27083193E+03 0.64117433E+03 0.12500000E+03 0.0000E+00 0.9000E+01
        2  1    1    2  501    0 0.40996215E+03 -.51605708E+03 -.54683424E+03 0.85639457E+03 0.32000000E+00 0.0000E+00 0.9000E+01
        2  1    1    2  502    0 0.10078537E+02 0.13435640E+03 0.76060314E+03 0.77244446E+03 0.32000000E+00 0.0000E+00 0.9000E+01
#aMCatNLO 1  0  0  5  1 0.16318844D+02 0.00000000D+00  -5  6  0 0.00000000D+00 0.00000000D+00 0.00000000D+00 0.00000000D+00 0.00000000D+00
  <mgrwgt>
 0.2425256564D-02    8    2    0
 0.110884204491814D+04 0.000000000000000D+00 0.000000000000000D+00 0.110884204491814D+04
 0.110884204491814D+04 -.000000000000000D+00 -.000000000000000D+00 -.110884204491814D+04
 0.597233598034471D+03 -.420094892743702D+03 0.381786631373585D+03 0.137194095413275D+03
 0.996112632774809D+03 0.410018437263224D+03 -.516115277664479D+03 -.746826806186751D+03
 0.624337859026993D+03 0.100764554804783D+02 0.134328646290893D+03 0.609632710773475D+03
 0.000000000000000D+00 0.000000000000000D+00 0.000000000000000D+00 0.000000000000000D+00
 0.110884204491814D+04 0.000000000000000D+00 0.000000000000000D+00 0.110884204491814D+04
 0.110884204491814D+04 -.000000000000000D+00 -.000000000000000D+00 -.110884204491814D+04
 0.597413008484575D+03 -.420086640099915D+03 0.381896646891480D+03 0.137693386221702D+03
 0.995399346054319D+03 0.410032194669698D+03 -.515931878472994D+03 -.745994473327414D+03
 0.813995431061571D+02 -.276557148612540D+01 0.173476474807229D+01 0.813340508244554D+02
 0.543472192191221D+03 0.128200169163425D+02 0.132300466833442D+03 0.526967036281255D+03
0.307646773106D-04 0.000000000000D+00 0.000000000000D+00 0.306376707321D-06 0.000000000000D+00  6 2 2 25 2 2 21 0 0.21189340D+00 0.13733943D+00 0.47274349D+06 0.47274349D+06 0.47274349D+06 0.10702352D+01  1  2  2  3  6  5        2 0.223301413768D-03 0.100000000000D+01
0.545043558718D-05 0.000000000000D+00 -.118144461398D-06 0.306376707321D-06 0.000000000000D+00  6 2 2 25 2 2 21 2 0.21189340D+00 0.13733943D+00 0.47274349D+06 0.47274349D+06 0.47274349D+06 0.10702352D+01  1  2  3  3  6  5        2 0.453136219652D-04 0.100000000000D+01
-.223816334386D-04 0.000000000000D+00 0.000000000000D+00 0.306376707321D-06 0.000000000000D+00  6 2 2 25 2 2 21 2 0.21189340D+00 0.13733943D+00 0.47274349D+06 0.47274349D+06 0.47274349D+06 0.10702352D+01  1  2 15  3  6  5        2 -.186075564123D-03 0.100000000000D+01
0.671850695915D-09 0.000000000000D+00 0.000000000000D+00 0.306376707321D-06 0.000000000000D+00  6 2 2 25 2 2 21 2 0.21189340D+00 0.13733943D+00 0.47371345D+06 0.47371345D+06 0.47371345D+06 0.10701720D+01  1  2 12  3  6  5        2 0.558435925613D-08 0.100000000000D+01
0.183488303448D-03 0.000000000000D+00 0.000000000000D+00 0.306376707321D-06 0.000000000000D+00  6 2 2 25 2 2 21 2 0.21189340D+00 0.13733943D+00 0.47371345D+06 0.47371345D+06 0.47371345D+06 0.10701720D+01  1  2 12  3  6  5        2 0.152513737350D-02 0.100000000000D+01
-.844459688038D-04 0.000000000000D+00 0.000000000000D+00 0.306376707321D-06 0.000000000000D+00  6 2 2 25 2 2 21 2 0.21189340D+00 0.13733943D+00 0.47274349D+06 0.47274349D+06 0.47274349D+06 0.10702352D+01  1  2  4  3  6  5        2 -.702063650815D-03 0.100000000000D+01
-.189023305459D-03 0.000000000000D+00 0.000000000000D+00 0.306376707321D-06 0.000000000000D+00  6 2 2 25 2 2 21 2 0.21189340D+00 0.13733943D+00 0.47274349D+06 0.47274349D+06 0.47274349D+06 0.10702352D+01  1  2  5  3  6  5        2 -.157149469418D-02 0.100000000000D+01
0.371809132505D-03 0.000000000000D+00 -.000000000000D+00 0.306376707321D-06 0.000000000000D+00  6 2 2 25 2 2 21 2 0.21189340D+00 0.13733943D+00 0.47274349D+06 0.47274349D+06 0.47274349D+06 0.10702352D+01  1  2  6  3  6  5        2 0.309113247998D-02 0.100000000000D+01
  </mgrwgt>
  </event>
  <event>
  5     66 0.18411016E-05 0.20415644E+03 0.75467711E-02 0.94584423E-01
        2 -1    0    0  502    0 0.00000000E+00 0.00000000E+00 0.11150042E+04 0.11150043E+04 0.32000000E+00 0.0000E+00 0.9000E+01
        2 -1    0    0  501    0 0.00000000E+00 0.00000000E+00 -.85929060E+03 0.85929066E+03 0.32000000E+00 0.0000E+00 0.9000E+01
       25  1    1    2    0    0 0.22511438E+02 -.49002141E+03 0.28346771E+03 0.58017815E+03 0.12500000E+03 0.0000E+00 0.9000E+01
        2  1    1    2  501    0 0.31435909E+02 0.20168827E+03 -.66337707E+03 0.69407177E+03 0.32000000E+00 0.0000E+00 0.9000E+01
        2  1    1    2  502    0 -.53947347E+02 0.28833314E+03 0.63562298E+03 0.70004499E+03 0.32000000E+00 0.0000E+00 0.9000E+01
#aMCatNLO 1  0  0  2  5 0.52976408D+03 0.00000000D+00  -5  6  0 0.00000000D+00 0.00000000D+00 0.00000000D+00 0.00000000D+00 0.00000000D+00
  <mgrwgt>
 0.9926200572D-03    1    2    0
 0.978832333599318D+03 0.000000000000000D+00 0.000000000000000D+00 0.978832333599318D+03
 0.978832333599318D+03 0.000000000000000D+00 0.000000000000000D+00 -.978832333599318D+03
 0.548121451277528D+03 0.224985150307678D+02 -.490006793082385D+03 0.210236259729643D+03
 0.786680062802522D+03 0.314399639072986D+02 0.201721044840939D+03 -.759727365538960D+03
 0.622863153118587D+03 -.539384789380664D+02 0.288285748241446D+03 0.549491105809316D+03
 0.000000000000000D+00 0.000000000000000D+00 -.000000000000000D+00 -.000000000000000D+00
 0.149267225347671D+04 0.000000000000000D+00 0.000000000000000D+00 0.149267225347671D+04
 0.350096103649787D+04 0.000000000000000D+00 0.000000000000000D+00 -.350096103649787D+04
 0.672123244091151D+03 -.394958701048361D+03 -.485729343162109D+03 0.210236259729643D+03
 0.972496061032208D+03 -.570390775481441D+03 0.207887666830124D+03 -.759727365538960D+03
 0.832094453333019D+03 -.551693195027144D+03 0.293385961601391D+03 0.549491105809316D+03
 0.251691953151820D+04 0.151704267155695D+04 -.155442852694059D+02 -.200828878302117D+04
0.748744216270D-04 0.000000000000D+00 0.000000000000D+00 0.112350406281D-05 0.000000000000D+00  6 2 2 25 2 2 21 2 0.17153912D+00 0.13219856D+00 0.25182540D+06 0.25182540D+06 0.25182540D+06 0.10902215D+01  1  2 14  2  6  2        2 0.992620057224D-03 0.100000000000D+01
  </mgrwgt>
  </event>
  <event>
  5     66 0.18411016E-05 0.55935265E+02 0.75467711E-02 0.86906408E-01
        2 -1    0    0  502    0 0.00000000E+00 0.00000000E+00 0.52453088E+03 0.52453098E+03 0.32000000E+00 0.0000E+00 0.9000E+01
        2 -1    0    0  501    0 0.00000000E+00 0.00000000E+00 -.24338234E+04 0.24338235E+04 0.32000000E+00 0.0000E+00 0.9000E+01
       25  1    1    2    0    0 -.68195694E+03 0.27314688E+03 -.57301669E+03 0.94002533E+03 0.12500000E+03 0.0000E+00 0.9000E+01
        2  1    1    2  501    0 0.62741955E+03 -.26065849E+03 -.16055076E+04 0.17433453E+04 0.32000000E+00 0.0000E+00 0.9000E+01
        2  1    1    2  502    0 0.54537386E+02 -.12488391E+02 0.26923170E+03 0.27498382E+03 0.32000000E+00 0.0000E+00 0.9000E+01
#aMCatNLO 1  0  0  1  5 0.12522600D+03 0.00000000D+00  -5  6  0 0.00000000D+00 0.00000000D+00 0.00000000D+00 0.00000000D+00 0.00000000D+00
  <mgrwgt>
 0.2294233948D-02    7    2    0
 0.112987420392501D+04 0.000000000000000D+00 0.000000000000000D+00 0.112987420392501D+04
 0.112987420392501D+04 0.000000000000000D+00 0.000000000000000D+00 -.112987420392501D+04
 0.746575630619781D+03 -.682033525507011D+03 0.273180135574596D+03 0.441933914431463D+02
 0.925843475760366D+03 0.627509491610705D+03 -.260694802329874D+03 -.628853082670904D+03
 0.587329301469877D+03 0.545240338963062D+02 -.124853332447219D+02 0.584659691227758D+03
 0.000000000000000D+00 0.000000000000000D+00 -.000000000000000D+00 0.000000000000000D+00
 0.185800288422693D+04 0.000000000000000D+00 0.000000000000000D+00 0.185800288422693D+04
 0.128984797196653D+04 0.000000000000000D+00 0.000000000000000D+00 -.128984797196653D+04
 0.958989302035357D+03 -.891748744001273D+03 0.326904578039472D+03 0.441933914431463D+02
 0.782629194171964D+03 0.417436739523476D+03 -.206878767594859D+03 -.628853082670904D+03
 0.592136904939616D+03 -.905024077523854D+02 0.246672624332788D+02 0.584659691227758D+03
 0.814095455046522D+03 0.564814412230182D+03 -.144693072877893D+03 0.568154912260407D+03
0.385537854831D-03 0.000000000000D+00 0.000000000000D+00 0.138505631486D-05 0.000000000000D+00  6 2 2 25 2 2 21 0 0.80697067D-01 0.37443438D+00 0.54812469D+06 0.54812469D+06 0.54812469D+06 0.10657012D+01  1  2  2  1  6  1        2 0.138002258086D-02 0.100000000000D+01
0.168445400232D-03 0.000000000000D+00 -.148056687700D-05 0.138505631486D-05 0.000000000000D+00  6 2 2 25 2 2 21 2 0.80697067D-01 0.37443438D+00 0.54812469D+06 0.54812469D+06 0.54812469D+06 0.10657012D+01  1  2  3  1  6  1        2 0.684777102214D-03 0.100000000000D+01
-.253847808280D-03 0.000000000000D+00 0.000000000000D+00 0.138505631486D-05 0.000000000000D+00  6 2 2 25 2 2 21 2 0.80697067D-01 0.37443438D+00 0.54812469D+06 0.54812469D+06 0.54812469D+06 0.10657012D+01  1  2 15  1  6  1        2 -.103196149208D-02 0.100000000000D+01
-.115346684997D-04 0.000000000000D+00 0.000000000000D+00 0.138505631486D-05 0.000000000000D+00  6 2 2 25 2 2 21 2 0.80697067D-01 0.37443438D+00 0.54812469D+06 0.54812469D+06 0.54812469D+06 0.10657012D+01  1  2  4  1  6  1        2 -.468916150833D-04 0.100000000000D+01
-.448716417849D-03 0.000000000000D+00 -.253597734519D-03 0.138505631486D-05 0.000000000000D+00  6 2 2 25 2 2 21 2 0.14621641D+00 0.37443438D+00 0.54812469D+06 0.54812469D+06 0.54812469D+06 0.10657012D+01  1  2  5  1  6  1        2 -.865704776341D-03 0.100000000000D+01
0.540213011001D-03 0.000000000000D+00 0.214566131845D-03 0.138505631486D-05 0.000000000000D+00  6 2 2 25 2 2 21 2 0.80697067D-01 0.37443438D+00 0.54812469D+06 0.54812469D+06 0.54812469D+06 0.10657012D+01  1  2  6  1  6  1        2 0.219611517882D-02 0.100000000000D+01
-.155941768587D-04 0.000000000000D+00 -.165081637520D-04 0.138505631486D-05 0.000000000000D+00  6 21 2 25 2 2 -2 2 0.14621641D+00 0.37443438D+00 0.54812469D+06 0.54812469D+06 0.54812469D+06 0.10657012D+01  1  2  5  4  6  1        2 -.221230307642D-04 0.100000000000D+01
  </mgrwgt>
  </event>
  <event>
  5     66 0.18411016E-05 0.66498455E+02 0.75467711E-02 0.94249999E-01
        2 -1    0    0  502    0 0.00000000E+00 0.00000000E+00 0.11001122E+04 0.11001122E+04 0.32000000E+00 0.0000E+00 0.9000E+01
        2 -1    0    0  501    0 0.00000000E+00 0.00000000E+00 -.13658397E+04 0.13658398E+04 0.32000000E+00 0.0000E+00 0.9000E+01
       25  1    1    2    0    0 0.25888917E+02 -.49097906E+03 0.53251162E+03 0.73547556E+03 0.12500000E+03 0.0000E+00 0.9000E+01
        2  1    1    2  501    0 -.40518198E+02 0.42608316E+03 -.12254881E+04 0.12980793E+04 0.32000000E+00 0.0000E+00 0.9000E+01
        2  1    1    2  502    0 0.14629280E+02 0.64895899E+02 0.42724896E+03 0.43239712E+03 0.32000000E+00 0.0000E+00 0.9000E+01
#aMCatNLO 1  0  0  1  5 0.29519295D+02 0.00000000D+00  -5  6  0 0.00000000D+00 0.00000000D+00 0.00000000D+00 0.00000000D+00 0.00000000D+00
  <mgrwgt>
 0.2700924286D-02   11    2    0
 0.122579647555598D+04 0.000000000000000D+00 0.000000000000000D+00 0.122579647555598D+04
 0.122579647555598D+04 0.000000000000000D+00 0.000000000000000D+00 -.122579647555598D+04
 0.797666730816214D+03 0.258993608609161D+02 -.491009746089977D+03 0.615537054776298D+03
 0.117287480611657D+04 -.405229394687099D+02 0.426139140549355D+03 -.109197007060252D+04
 0.481051414179162D+03 0.146235786077938D+02 0.648706055406225D+02 0.476433015826219D+03
 0.000000000000000D+00 0.000000000000000D+00 -.000000000000000D+00 0.000000000000000D+00
 0.186588053117997D+04 0.000000000000000D+00 0.000000000000000D+00 0.186588053117997D+04
 0.122622572057069D+04 0.000000000000000D+00 0.000000000000000D+00 -.122622572057069D+04
 0.796129808595295D+03 0.165357018316049D+02 -.488915510999843D+03 0.615537054776298D+03
 0.117455592022765D+04 -.543142486934944D+02 0.429223644547955D+03 -.109197007060252D+04
 0.481084934739677D+03 0.897096455813039D+01 0.661348445156572D+02 0.476433015826219D+03
 0.640335588188037D+03 0.288075823037591D+02 -.644297806376874D+01 0.639654810609285D+03
0.721271482464D-05 0.000000000000D+00 0.000000000000D+00 0.113289642611D-04 0.000000000000D+00  6 2 2 25 2 2 21 0 0.16924803D+00 0.21012919D+00 0.25094718D+06 0.25094718D+06 0.25094718D+06 0.10903356D+01  1  2  2  1  6  1        2 0.408033013036D-04 0.100000000000D+01
0.144963550735D-05 0.000000000000D+00 -.276987240780D-07 0.113289642611D-04 0.000000000000D+00  6 2 2 25 2 2 21 2 0.16924803D+00 0.21012919D+00 0.25094718D+06 0.25094718D+06 0.25094718D+06 0.10903356D+01  1  2  3  1  6  1        2 0.974935145065D-05 0.100000000000D+01
-.549794404008D-05 0.000000000000D+00 0.000000000000D+00 0.113289642611D-04 0.000000000000D+00  6 2 2 25 2 2 21 2 0.16924803D+00 0.21012919D+00 0.25094718D+06 0.25094718D+06 0.25094718D+06 0.10903356D+01  1  2 15  1  6  1        2 -.369757697235D-04 0.100000000000D+01
0.226577103055D-09 0.000000000000D+00 0.000000000000D+00 0.113289642611D-04 0.000000000000D+00  6 2 2 25 2 2 21 2 0.25764569D+00 0.21012919D+00 0.26719541D+06 0.26719541D+06 0.26719541D+06 0.10882924D+01  1  2 12  1  6  1        2 0.719791155008D-09 0.100000000000D+01
0.257000756514D-02 0.000000000000D+00 0.000000000000D+00 0.113289642611D-04 0.000000000000D+00  6 2 2 25 2 2 21 2 0.27536988D+00 0.21012919D+00 0.26719541D+06 0.26719541D+06 0.26719541D+06 0.10882924D+01  1  2 12  1  6  1        2 0.706846483062D-02 0.100000000000D+01
-.205416705265D-02 0.000000000000D+00 0.000000000000D+00 0.113289642611D-04 0.000000000000D+00  6 2 2 25 2 2 21 2 0.16924803D+00 0.21012919D+00 0.25094718D+06 0.25094718D+06 0.25094718D+06 0.10903356D+01  1  2  4  1  6  1        2 -.138150565663D-01 0.100000000000D+01
-.318732302153D-02 0.000000000000D+00 -.516192001215D-05 0.113289642611D-04 0.000000000000D+00  6 2 2 25 2 2 21 2 0.25765224D+00 0.21012919D+00 0.25094718D+06 0.25094718D+06 0.25094718D+06 0.10903356D+01  1  2  5  1  6  1        2 -.102086329809D-01 0.100000000000D+01
0.292757563218D-02 0.000000000000D+00 0.473739978735D-05 0.113289642611D-04 0.000000000000D+00  6 2 2 25 2 2 21 2 0.16924803D+00 0.21012919D+00 0.25094718D+06 0.25094718D+06 0.25094718D+06 0.10903356D+01  1  2  6  1  6  1        2 0.196890622448D-01 0.100000000000D+01
0.111847698683D-10 0.000000000000D+00 0.000000000000D+00 0.113289642611D-04 0.000000000000D+00  6 21 2 25 2 2 -2 2 0.25764569D+00 0.21012919D+00 0.26719541D+06 0.26719541D+06 0.26719541D+06 0.10882924D+01  1  2 12  4  6  1        2 0.101675919592D-10 0.100000000000D+01
0.141871225169D-03 0.000000000000D+00 0.000000000000D+00 0.113289642611D-04 0.000000000000D+00  6 21 2 25 2 2 -2 2 0.27536988D+00 0.21012919D+00 0.26719541D+06 0.26719541D+06 0.26719541D+06 0.10882924D+01  1  2 12  4  6  1        2 0.979944970493D-04 0.100000000000D+01
-.157158149824D-03 0.000000000000D+00 -.254824882586D-06 0.113289642611D-04 0.000000000000D+00  6 21 2 25 2 2 -2 2 0.25765224D+00 0.21012919D+00 0.25094718D+06 0.25094718D+06 0.25094718D+06 0.10903356D+01  1  2  5  4  6  1        2 -.144485352390D-03 0.100000000000D+01
  </mgrwgt>
  </event>
  <event>
  5     66 0.18411016E-05 0.17242762E+02 0.75467711E-02 0.95100494E-01
        2 -1    0    0  502    0 0.00000000E+00 0.00000000E+00 0.17287112E+04 0.17287112E+04 0.32000000E+00 0.0000E+00 0.9000E+01
        2 -1    0    0  501    0 0.00000000E+00 0.00000000E+00 -.36738026E+03 0.36738040E+03 0.32000000E+00 0.0000E+00 0.9000E+01
       25  1    1    2    0    0 -.44018953E+03 -.11317140E+03 0.73042567E+03 0.86932229E+03 0.12500000E+03 0.0000E+00 0.9000E+01
        2  1    1    2  501    0 0.45313547E+03 0.12457364E+03 -.11245014E+03 0.48321371E+03 0.32000000E+00 0.0000E+00 0.9000E+01
        2  1    1    2  502    0 -.12945944E+02 -.11402247E+02 0.74335541E+03 0.74355563E+03 0.32000000E+00 0.0000E+00 0.9000E+01
#aMCatNLO 1  0  0  5  1 0.14165414D+01 0.00000000D+00  -5  6  0 0.00000000D+00 0.00000000D+00 0.00000000D+00 0.00000000D+00 0.00000000D+00
  <mgrwgt>
 0.3818600848D-02    9    2    0
 0.796928193299374D+03 0.000000000000000D+00 0.000000000000000D+00 0.796928193299374D+03
 0.796928193299374D+03 -.000000000000000D+00 -.000000000000000D+00 -.796928193299374D+03
 0.519527665403379D+03 -.440281329686241D+03 -.113199522378265D+03 0.218225145165568D+03
 0.731552528818477D+03 0.453220837475631D+03 0.124596100558347D+03 -.560567379200976D+03
 0.342776192376892D+03 -.129395077893900D+02 -.113965781800817D+02 0.342342234035407D+03
 0.000000000000000D+00 0.000000000000000D+00 -.000000000000000D+00 0.000000000000000D+00
 0.796928193299374D+03 0.000000000000000D+00 0.000000000000000D+00 0.796928193299374D+03
 0.796928193299374D+03 -.000000000000000D+00 -.000000000000000D+00 -.796928193299374D+03
 0.519534737656077D+03 -.440281911626939D+03 -.113200034927334D+03 0.218240541646018D+03
 0.731535285952954D+03 0.453220018053870D+03 0.124595378845874D+03 -.560545699653269D+03
 0.320044108893422D+03 -.124249907287318D+02 -.926686280589326D+01 0.319668541612265D+03
 0.227422540962946D+02 -.513115698198623D+00 -.212848111264704D+01 0.226366163949870D+02
0.178112125333D-05 0.000000000000D+00 0.000000000000D+00 0.518887158942D-05 0.000000000000D+00  6 2 2 25 2 2 21 0 0.26595558D+00 0.56520053D-01 0.22980096D+06 0.22980096D+06 0.22980096D+06 0.10932223D+01  1  2  2  3  6  5        2 0.245665310524D-04 0.100000000000D+01
0.118426341775D-05 0.000000000000D+00 -.683997459280D-08 0.518887158942D-05 0.000000000000D+00  6 2 2 25 2 2 21 2 0.26595558D+00 0.56520053D-01 0.22980096D+06 0.22980096D+06 0.22980096D+06 0.10932223D+01  1  2  3  3  6  5        2 0.195216113467D-04 0.100000000000D+01
-.141327622286D-05 0.000000000000D+00 0.000000000000D+00 0.518887158942D-05 0.000000000000D+00  6 2 2 25 2 2 21 2 0.26595558D+00 0.56520053D-01 0.22980096D+06 0.22980096D+06 0.22980096D+06 0.10932223D+01  1  2 15  3  6  5        2 -.232966996486D-04 0.100000000000D+01
0.525267908514D-13 0.000000000000D+00 0.000000000000D+00 0.518887158942D-05 0.000000000000D+00  6 2 2 25 2 2 21 2 0.26595558D+00 0.56520053D-01 0.23001508D+06 0.23001508D+06 0.23001508D+06 0.10931917D+01  1  2 12  3  6  5        2 0.865777390753D-12 0.100000000000D+01
0.403301001159D-07 0.000000000000D+00 0.000000000000D+00 0.518887158942D-05 0.000000000000D+00  6 2 2 25 2 2 21 2 0.26595558D+00 0.56520053D-01 0.23001508D+06 0.23001508D+06 0.23001508D+06 0.10931917D+01  1  2 12  3  6  5        2 0.664744376750D-06 0.100000000000D+01
-.796557701656D-03 0.000000000000D+00 0.000000000000D+00 0.518887158942D-05 0.000000000000D+00  6 2 2 25 2 2 21 2 0.26595558D+00 0.56520053D-01 0.22980096D+06 0.22980096D+06 0.22980096D+06 0.10932223D+01  1  2  4  3  6  5        2 -.131306005352D-01 0.100000000000D+01
-.317572803027D-02 0.000000000000D+00 0.000000000000D+00 0.518887158942D-05 0.000000000000D+00  6 2 2 25 2 2 21 2 0.26595558D+00 0.56520053D-01 0.22980096D+06 0.22980096D+06 0.22980096D+06 0.10932223D+01  1  2  5  3  6  5        2 -.523492724849D-01 0.100000000000D+01
0.342729881808D-02 0.000000000000D+00 -.000000000000D+00 0.518887158942D-05 0.000000000000D+00  6 2 2 25 2 2 21 2 0.26595558D+00 0.56520053D-01 0.22980096D+06 0.22980096D+06 0.22980096D+06 0.10932223D+01  1  2  6  3  6  5        2 0.564962106341D-01 0.100000000000D+01
0.775412693573D-03 0.000000000000D+00 0.000000000000D+00 0.518887158942D-05 0.381016328811D-05  6 2 2 25 2 2 21 2 0.26595558D+00 0.56520053D-01 0.23001508D+06 0.23001508D+06 0.23001508D+06 0.10931917D+01  1  2 11  3  6  5        2 0.127808070457D-01 0.100000000000D+01
  </mgrwgt>
  </event>
  <event>
  5     66 0.18411016E-05 0.29140321E+03 0.75467711E-02 0.89134516E-01
        2 -1    0    0  502    0 0.00000000E+00 0.00000000E+00 0.24433139E+04 0.24433139E+04 0.32000000E+00 0.0000E+00 0.9000E+01
        2 -1    0    0  501    0 0.00000000E+00 0.00000000E+00 -.26120086E+04 0.26120086E+04 0.32000000E+00 0.0000E+00 0.9000E+01
       25  1    1    2    0    0 -.42186681E+02 -.76606401E+03 0.78952831E+03 0.11079773E+04 0.12500000E+03 0.0000E+00 0.9000E+01
        2  1    1    2  501    0 -.19961689E+03 0.21226972E+03 -.23824618E+04 0.24002145E+04 0.32000000E+00 0.0000E+00 0.9000E+01
        2  1    1    2  502    0 0.24180357E+03 0.55379429E+03 0.14242388E+04 0.15471307E+04 0.32000000E+00 0.0000E+00 0.9000E+01
#aMCatNLO 1  0  0  1  5 0.58933075D+02 0.00000000D+00  -5  6  0 0.00000000D+00 0.00000000D+00 0.00000000D+00 0.00000000D+00 0.00000000D+00
  <mgrwgt>
 0.3547288013D-04    1    2    0
 0.252625354092948D+04 0.000000000000000D+00 0.000000000000000D+00 0.252625354092948D+04
 0.252625354092948D+04 0.000000000000000D+00 0.000000000000000D+00 -.252625354092948D+04
 0.113503582369823D+04 -.421577552878077D+02 -.766038462073037D+03 0.827096801693841D+03
 0.232203830417237D+04 -.199628727152664D+03 0.212283305607447D+03 -.230368097954111D+04
 0.159543295398837D+04 0.241786482440472D+03 0.553755156465590D+03 0.147658417784727D+04
 0.000000000000000D+00 -.000000000000000D+00 0.000000000000000D+00 0.000000000000000D+00
 0.348384564766393D+04 0.000000000000000D+00 0.000000000000000D+00 0.348384564766393D+04
 0.257761143072591D+04 0.000000000000000D+00 0.000000000000000D+00 -.257761143072591D+04
 0.113868084947049D+04 0.487463017256775D+02 -.771040696491904D+03 0.827096801693841D+03
 0.231257231842896D+04 -.143352324776602D+02 0.202087044548187D+03 -.230368097954111D+04
 0.161748100564773D+04 0.370240004030367D+03 0.546686664166877D+03 0.147658417784727D+04
 0.992722904842670D+03 -.404651073278384D+03 0.222669877768405D+02 0.906234216938020D+03
0.172343133494D-03 0.000000000000D+00 0.000000000000D+00 0.138762725197D-05 0.000000000000D+00  6 2 2 25 2 2 21 2 0.37589445D+00 0.40184748D+00 0.69969619D+06 0.69969619D+06 0.69969619D+06 0.10583465D+01  1  2 14  1  6  1        2 0.354728801284D-04 0.100000000000D+01
  </mgrwgt>
  </event>
  <event>
  5     66 0.18411016E-05 0.26801105E+02 0.75467711E-02 0.91794307E-01
        2 -1    0    0  502    0 0.00000000E+00 0.00000000E+00 0.45179428E+03 0.45179440E+03 0.32000000E+00 0.0000E+00 0.9000E+01
        2 -1    0    0  501    0 -.00000000E+00 -.00000000E+00 -.20834245E+04 0.20834245E+04 0.32000000E+00 0.0000E+00 0.9000E+01
       25  1    1    2    0    0 -.20845083E+03 -.57619521E+03 -.80788634E+03 0.10216448E+04 0.12500000E+03 0.0000E+00 0.9000E+01
        2  1    1    2  501    0 0.22103421E+03 0.59986549E+03 -.10804806E+04 0.12554414E+04 0.32000000E+00 0.0000E+00 0.9000E+01
        2  1    1    2  502    0 -.12583386E+02 -.23670281E+02 0.25673677E+03 0.25813271E+03 0.32000000E+00 0.0000E+00 0.9000E+01
#aMCatNLO 1  0  0  5  1 0.12040620D+01 0.00000000D+00  -5  6  0 0.00000000D+00 0.00000000D+00 0.00000000D+00 0.00000000D+00 0.00000000D+00
  <mgrwgt>
 0.4896292999D-02    4    2    0
 0.970195565516833D+03 0.000000000000000D+00 0.000000000000000D+00 0.970195565516833D+03
 0.970195565516833D+03 -.000000000000000D+00 -.000000000000000D+00 -.970195565516833D+03
 0.655571506267547D+03 -.208485324514400D+03 -.576288239318433D+03 -.196404517553150D+03
 0.731797233100166D+03 0.221065868242863D+03 0.599953174192735D+03 -.355968061835819D+03
 0.553022391665953D+03 -.125805437284626D+02 -.236649348743025D+02 0.552372579388968D+03
 0.000000000000000D+00 0.000000000000000D+00 0.000000000000000D+00 -.000000000000000D+00
 0.970195565516833D+03 0.000000000000000D+00 0.000000000000000D+00 0.970195565516833D+03
 0.970195565516833D+03 -.000000000000000D+00 -.000000000000000D+00 -.970195565516833D+03
 0.651955151359495D+03 -.208822837404405D+03 -.576923126071628D+03 -.181585375419651D+03
 0.723218931228140D+03 0.220690283769873D+03 0.599246671971134D+03 -.339477314805963D+03
 0.217866711717058D+02 -.116552085323351D+00 0.196769689472900D+01 -.216973183892831D+02
 0.543430377274325D+03 -.117508942801445D+02 -.242912427942348D+02 0.542760008614897D+03
0.780738042202D-03 0.000000000000D+00 0.000000000000D+00 0.135186210924D-05 0.000000000000D+00  6 2 2 25 2 2 21 0 0.69506823D-01 0.32052685D+00 0.41708731D+06 0.41708731D+06 0.41708731D+06 0.10741204D+01  1  2  2  3  6  5        2 0.531450307357D-02 0.100000000000D+01
0.542982536884D-03 0.000000000000D+00 -.299823965510D-05 0.135186210924D-05 0.000000000000D+00  6 2 2 25 2 2 21 2 0.69506823D-01 0.32052685D+00 0.41708731D+06 0.41708731D+06 0.41708731D+06 0.10741204D+01  1  2  3  3  6  5        2 0.426431359954D-02 0.100000000000D+01
-.596815883044D-03 0.000000000000D+00 0.000000000000D+00 0.135186210924D-05 0.000000000000D+00  6 2 2 25 2 2 21 2 0.69506823D-01 0.32052685D+00 0.41708731D+06 0.41708731D+06 0.41708731D+06 0.10741204D+01  1  2 15  3  6  5        2 -.468709380801D-02 0.100000000000D+01
0.582131710628D-06 0.000000000000D+00 0.000000000000D+00 0.135186210924D-05 0.902825715348D-10  6 2 2 25 2 2 21 2 0.69506823D-01 0.32052685D+00 0.41841810D+06 0.41841810D+06 0.41841810D+06 0.10740211D+01  1  2 11  3  6  5        2 0.457013359796D-05 0.100000000000D+01
  </mgrwgt>
  </event>
  <event>
  5     66 0.18411016E-05 0.15652825E+03 0.75467711E-02 0.93763698E-01
        2 -1    0    0  502    0 0.00000000E+00 0.00000000E+00 0.78072400E+03 0.78072406E+03 0.32000000E+00 0.0000E+00 0.9000E+01
        2 -1    0    0  501    0 -.00000000E+00 -.00000000E+00 -.27629793E+04 0.27629793E+04 0.32000000E+00 0.0000E+00 0.9000E+01
       25  1    1    2    0    0 -.16392141E+03 -.43624245E+03 0.11175315E+03 0.49526909E+03 0.12500000E+03 0.0000E+00 0.9000E+01
        2  1    1    2  501    0 0.24173025E+03 0.30039843E+03 -.25434488E+04 0.25725094E+04 0.32000000E+00 0.0000E+00 0.9000E+01
        2  1    1    2  502    0 -.77808833E+02 0.13584402E+03 0.44944033E+03 0.47592491E+03 0.32000000E+00 0.0000E+00 0.9000E+01
#aMCatNLO 1  0  0  5  2 0.10118328D+03 0.00000000D+00  -5  6  0 0.00000000D+00 0.00000000D+00 0.00000000D+00 0.00000000D+00 0.00000000D+00
  <mgrwgt>
 0.1436756733D-02    7    2    0
 0.146871522859118D+04 0.000000000000000D+00 0.000000000000000D+00 0.146871522859118D+04
 0.146871522859118D+04 -.000000000000000D+00 -.000000000000000D+00 -.146871522859118D+04
 0.673008235640116D+03 -.163956055494662D+03 -.436256169368843D+03 0.469163139849750D+03
 0.138709466195476D+04 0.241754220839266D+03 0.300430772508869D+03 -.133241429325098D+04
 0.877327559587476D+03 -.777981653446038D+02 0.135825396859974D+03 0.863251153401233D+03
 0.000000000000000D+00 0.000000000000000D+00 0.000000000000000D+00 0.000000000000000D+00
 0.146871522859118D+04 0.000000000000000D+00 0.000000000000000D+00 0.146871522859118D+04
 0.146871522859118D+04 -.000000000000000D+00 -.000000000000000D+00 -.146871522859118D+04
 0.676319393986811D+03 -.164437629965315D+03 -.435415403480544D+03 0.474506706955711D+03
 0.137678809089474D+04 0.240767792232585D+03 0.302152947529103D+03 -.132146884706091D+04
 0.416609762576731D+03 -.165935808123650D+01 -.309906394929108D+02 0.415452188667745D+03
 0.467713209724074D+03 -.746708041860333D+02 0.164253095444351D+03 0.431509951437456D+03
0.431385617298D-03 0.000000000000D+00 0.000000000000D+00 0.840555177415D-05 0.000000000000D+00  6 2 2 25 2 2 21 0 0.12011139D+00 0.42507375D+00 0.26248715D+06 0.26248715D+06 0.26248715D+06 0.10888702D+01  1  2  2  3  6  5        2 0.644635146503D-03 0.100000000000D+01
0.491688907213D-04 0.000000000000D+00 -.165663435687D-05 0.840555177415D-05 0.000000000000D+00  6 2 2 25 2 2 21 2 0.12011139D+00 0.42507375D+00 0.26248715D+06 0.26248715D+06 0.26248715D+06 0.10888702D+01  1  2  3  3  6  5        2 0.871146027378D-04 0.100000000000D+01
-.297971586581D-03 0.000000000000D+00 0.000000000000D+00 0.840555177415D-05 0.000000000000D+00  6 2 2 25 2 2 21 2 0.12011139D+00 0.42507375D+00 0.26248715D+06 0.26248715D+06 0.26248715D+06 0.10888702D+01  1  2 15  3  6  5        2 -.527928859314D-03 0.100000000000D+01
0.419506980226D-10 0.000000000000D+00 0.000000000000D+00 0.840555177415D-05 0.000000000000D+00  6 2 2 25 2 2 21 2 0.12011139D+00 0.42507375D+00 0.29145860D+06 0.29145860D+06 0.29145860D+06 0.10854812D+01  1  2 12  3  6  5        2 0.732491248106D-10 0.100000000000D+01
-.148859417428D-03 0.000000000000D+00 0.000000000000D+00 0.840555177415D-05 0.000000000000D+00  6 2 2 25 2 2 21 2 0.12011139D+00 0.42507375D+00 0.26248715D+06 0.26248715D+06 0.26248715D+06 0.10888702D+01  1  2  4  3  6  5        2 -.263740524197D-03 0.100000000000D+01
-.131569209311D-02 0.000000000000D+00 0.000000000000D+00 0.840555177415D-05 0.000000000000D+00  6 2 2 25 2 2 21 2 0.12011139D+00 0.42507375D+00 0.26248715D+06 0.26248715D+06 0.26248715D+06 0.10888702D+01  1  2  5  3  6  5        2 -.233106731381D-02 0.100000000000D+01
0.216044039993D-02 0.000000000000D+00 -.000000000000D+00 0.840555177415D-05 0.000000000000D+00  6 2 2 25 2 2 21 2 0.12011139D+00 0.42507375D+00 0.26248715D+06 0.26248715D+06 0.26248715D+06 0.10888702D+01  1  2  6  3  6  5        2 0.382774360816D-02 0.100000000000D+01
  </mgrwgt>
  </event>
  <event>
  6     66 -.18411016E-05 0.14528500E+03 0.75467711E-02 0.95506251E-01
        2 -1    0    0  503    0 0.00000000E+00 0.00000000E+00 0.23874474E+04 0.23874474E+04 0.32000000E+00 0.0000E+00 0.9000E+01
        2 -1    0    0  501    0 0.00000000E+00 0.00000000E+00 -.18727943E+04 0.18727943E+04 0.32000000E+00 0.0000E+00 0.9000E+01
       25  1    1    2    0    0 0.29789843E+03 -.33513024E+03 0.37665577E+03 0.59879071E+03 0.12500000E+03 0.0000E+00 0.9000E+01
        2  1    1    2  501    0 -.83935366E+02 0.14465694E+03 -.17381294E+04 0.17461572E+04 0.32000000E+00 0.0000E+00 0.9000E+01
        2  1    1    2  502    0 -.21350415E+03 0.23441464E+03 0.13246694E+04 0.13620879E+04 0.32000000E+00 0.0000E+00 0.9000E+01
       21  1    1    2  503  502 -.45891350E+00 -.43941341E+02 0.55145741E+03 0.55320601E+03 0.75000000E+00 0.0000E+00 0.9000E+01
#aMCatNLO 2  0  0  1  5 0.43943738D+02 0.00000000D+00  -5  6  0 0.00000000D+00 0.00000000D+00 0.00000000D+00 0.00000000D+00 0.00000000D+00
  <mgrwgt>
 -.1108262925D-01    2    2    0
 0.185329627792725D+04 0.000000000000000D+00 0.000000000000000D+00 0.185329627792725D+04
 0.185329627792725D+04 0.000000000000000D+00 0.000000000000000D+00 -.185329627792725D+04
 0.606592923697418D+03 0.297818746030024D+03 -.342294928900781D+03 0.382711577093894D+03
 0.172742298365049D+04 -.841561181502053D+02 0.124179996941714D+03 -.172089721964486D+04
 0.137257664850658D+04 -.213662627879819D+03 0.218114931959068D+03 0.133818564255097D+04
 0.000000000000000D+00 -.000000000000000D+00 -.000000000000000D+00 0.000000000000000D+00
 0.241126906672861D+04 0.000000000000000D+00 0.000000000000000D+00 0.241126906672861D+04
 0.185429192867770D+04 0.000000000000000D+00 0.000000000000000D+00 -.185429192867770D+04
 0.602614547348916D+03 0.297893599434034D+03 -.335127654560288D+03 0.382711577093894D+03
 0.172900610178407D+04 -.839421552952306D+02 0.144667114402485D+03 -.172089721964486D+04
 0.137523238642230D+04 -.213492530634510D+03 0.234401881601861D+03 0.133818564255097D+04
 0.558707959851021D+03 -.458913504293103D+00 -.439413414440579D+02 0.556977138050910D+03
-.170868620991D-10 0.000000000000D+00 0.000000000000D+00 0.954588642653D-04 0.000000000000D+00  6 2 2 25 2 2 21 2 0.36736590D+00 0.28796746D+00 0.24687957D+06 0.24687957D+06 0.24687957D+06 0.10908697D+01  1  2 13  1  6  1        2 -.117515491849D-10 0.100000000000D+01
-.173913044718D-01 0.000000000000D+00 0.000000000000D+00 0.954588642653D-04 0.000000000000D+00  6 2 2 25 2 2 21 2 0.37629485D+00 0.28796746D+00 0.24687957D+06 0.24687957D+06 0.24687957D+06 0.10908697D+01  1  2 13  1  6  1        2 -.110826292408D-01 0.100000000000D+01
  </mgrwgt>
  </event>
  <event>
  5     66 0.18411016E-05 0.21201767E+03 0.75467711E-02 0.89599762E-01
        2 -1    0    0  502    0 0.00000000E+00 0.00000000E+00 0.21960242E+04 0.21960242E+04 0.32000000E+00 0.0000E+00 0.9000E+01
        2 -1    0    0  501    0 0.00000000E+00 0.00000000E+00 -.17073416E+04 0.17073416E+04 0.32000000E+00 0.0000E+00 0.9000E+01
       25  1    1    2    0    0 0.47227086E+03 0.16541843E+03 -.46642189E+03 0.69539730E+03 0.12500000E+03 0.0000E+00 0.9000E+01
        2  1    1    2  501    0 -.19160015E+03 0.90764841E+02 -.10988708E+04 0.11191362E+04 0.32000000E+00 0.0000E+00 0.9000E+01
        2  1    1    2  502    0 -.28067072E+03 -.25618327E+03 0.20539753E+04 0.20888323E+04 0.32000000E+00 0.0000E+00 0.9000E+01
#aMCatNLO 1  0  0  1  1 0.54901765D+03 0.00000000D+00  -5  6  0 0.00000000D+00 0.00000000D+00 0.00000000D+00 0.00000000D+00 0.00000000D+00
  <mgrwgt>
 0.1408955478D-01    7    2    0
 0.193632734535428D+04 0.000000000000000D+00 0.000000000000000D+00 0.193632734535428D+04
 0.193632734535428D+04 0.000000000000000D+00 0.000000000000000D+00 -.193632734535428D+04
 0.759755405791471D+03 0.472276106820463D+03 0.165415919328964D+03 -.557849557845502D+03
 0.126669376162659D+04 -.191606102514040D+03 0.907666977359583D+02 -.124882408441110D+04
 0.184620552329049D+04 -.280670004306424D+03 -.256182617064923D+03 0.180667364225660D+04
 0.000000000000000D+00 -.000000000000000D+00 -.000000000000000D+00 0.000000000000000D+00
 0.256494743868152D+04 0.000000000000000D+00 0.000000000000000D+00 0.256494743868152D+04
 0.207937206280193D+04 0.000000000000000D+00 0.000000000000000D+00 -.207937206280193D+04
 0.816871994809428D+03 0.519213267076757D+03 0.266226050579186D+03 -.557849557845502D+03
 0.127955935414573D+04 -.115802592754827D+03 0.253575050996508D+03 -.124882408441110D+04
 0.181494625201106D+04 -.171675280800764D+03 -.220872367268263D+02 0.180667364225660D+04
 0.732941900517233D+03 -.231735393521165D+03 -.497713864848868D+03 0.485575375879592D+03
0.107476096914D-01 0.000000000000D+00 0.000000000000D+00 0.127760659117D-04 0.000000000000D+00  6 2 2 25 2 2 21 0 0.33784989D+00 0.26266794D+00 0.30680938D+06 0.30680938D+06 0.30680938D+06 0.10838314D+01  1  2  2  1  6  1        2 0.958675464410D-02 0.100000000000D+01
0.107008775272D-02 0.000000000000D+00 -.412736511254D-04 0.127760659117D-04 0.000000000000D+00  6 2 2 25 2 2 21 2 0.33784989D+00 0.26266794D+00 0.30680938D+06 0.30680938D+06 0.30680938D+06 0.10838314D+01  1  2  3  1  6  1        2 0.112125041344D-02 0.100000000000D+01
-.659966288362D-02 0.000000000000D+00 0.000000000000D+00 0.127760659117D-04 0.000000000000D+00  6 2 2 25 2 2 21 2 0.33784989D+00 0.26266794D+00 0.30680938D+06 0.30680938D+06 0.30680938D+06 0.10838314D+01  1  2 15  1  6  1        2 -.691520365315D-02 0.100000000000D+01
-.457947940515D-03 0.000000000000D+00 0.000000000000D+00 0.127760659117D-04 0.000000000000D+00  6 2 2 25 2 2 21 2 0.33784989D+00 0.26266794D+00 0.30680938D+06 0.30680938D+06 0.30680938D+06 0.10838314D+01  1  2  4  1  6  1        2 -.479843187000D-03 0.100000000000D+01
-.127656121450D-01 0.000000000000D+00 -.775423960358D-02 0.127760659117D-04 0.000000000000D+00  6 2 2 25 2 2 21 2 0.45678545D+00 0.26266794D+00 0.30680938D+06 0.30680938D+06 0.30680938D+06 0.10838314D+01  1  2  5  1  6  1        2 -.468870657714D-02 0.100000000000D+01
0.147673927497D-01 0.000000000000D+00 0.741443032715D-02 0.127760659117D-04 0.000000000000D+00  6 2 2 25 2 2 21 2 0.33784989D+00 0.26266794D+00 0.30680938D+06 0.30680938D+06 0.30680938D+06 0.10838314D+01  1  2  6  1  6  1        2 0.154734461579D-01 0.100000000000D+01
-.320060085116D-03 0.000000000000D+00 -.300904897562D-03 0.127760659117D-04 0.000000000000D+00  6 21 2 25 2 2 -2 2 0.45678545D+00 0.26266794D+00 0.30680938D+06 0.30680938D+06 0.30680938D+06 0.10838314D+01  1  2  5  4  6  1        2 -.814302155490D-05 0.100000000000D+01
  </mgrwgt>
  </event>
  <event>
  5     66 0.18411016E-05 0.22875740E+02 0.75467711E-02 0.93036496E-01
        2 -1    0    0  502    0 0.00000000E+00 0.00000000E+00 0.10704354E+04 0.10704355E+04 0.32000000E+00 0.0000E+00 0.9000E+01
        2 -1    0    0  501    0 0.00000000E+00 0.00000000E+00 -.10170260E+04 0.10170261E+04 0.32000000E+00 0.0000E+00 0.9000E+01
       25  1    1    2    0    0 -.38670517E+03 -.39628059E+03 0.35587342E+02 0.56874481E+03 0.12500000E+03 0.0000E+00 0.9000E+01
        2  1    1    2  501    0 0.40773531E+03 0.38726897E+03 -.64487651E+03 0.85562325E+03 0.32000000E+00 0.0000E+00 0.9000E+01
        2  1    1    2  502    0 -.21030141E+02 0.90116222E+01 0.66269859E+03 0.66309351E+03 0.32000000E+00 0.0000E+00 0.9000E+01
#aMCatNLO 1  0  0  5  1 0.35640711D+01 0.00000000D+00  -5  6  0 0.00000000D+00 0.00000000D+00 0.00000000D+00 0.00000000D+00 0.00000000D+00
  <mgrwgt>
 0.2326247718D-01    9    2    0
 0.104338909869187D+04 0.000000000000000D+00 0.000000000000000D+00 0.104338909869187D+04
 0.104338909869187D+04 -.000000000000000D+00 -.000000000000000D+00 -.104338909869187D+04
 0.568100701884064D+03 -.386764184091954D+03 -.396334054012593D+03 0.211232340041623D+02
 0.872437253205879D+03 0.407790775268037D+03 0.387323952862060D+03 -.666958469416966D+03
 0.646240242293793D+03 -.210265911760836D+02 0.901010115053315D+01 0.645835235412804D+03
 0.000000000000000D+00 -.000000000000000D+00 0.000000000000000D+00 0.000000000000000D+00
 0.104338909869187D+04 0.000000000000000D+00 0.000000000000000D+00 0.104338909869187D+04
 0.104338909869187D+04 -.000000000000000D+00 -.000000000000000D+00 -.104338909869187D+04
 0.568101484293866D+03 -.386764697370897D+03 -.396333834067517D+03 0.211389994520400D+02
 0.872418526207374D+03 0.407789987030044D+03 0.387324290629794D+03 -.666934258556276D+03
 0.139911754247860D+03 -.103956064492456D+01 0.135112719933722D+01 0.139901367919225D+03
 0.506346432634637D+03 -.199857290142227D+02 0.765841623838613D+01 0.505893891185012D+03
0.551681619802D-05 0.000000000000D+00 0.000000000000D+00 0.790657056345D-05 0.000000000000D+00  6 2 2 25 2 2 21 0 0.16468238D+00 0.15646555D+00 0.33235274D+06 0.33235274D+06 0.33235274D+06 0.10812764D+01  1  2  2  3  6  5        2 0.511764440264D-04 0.100000000000D+01
0.419179471926D-05 0.000000000000D+00 -.211860268115D-07 0.790657056345D-05 0.000000000000D+00  6 2 2 25 2 2 21 2 0.16468238D+00 0.15646555D+00 0.33235274D+06 0.33235274D+06 0.33235274D+06 0.10812764D+01  1  2  3  3  6  5        2 0.454626852381D-04 0.100000000000D+01
-.423802419627D-05 0.000000000000D+00 0.000000000000D+00 0.790657056345D-05 0.000000000000D+00  6 2 2 25 2 2 21 2 0.16468238D+00 0.15646555D+00 0.33235274D+06 0.33235274D+06 0.33235274D+06 0.10812764D+01  1  2 15  3  6  5        2 -.459640733792D-04 0.100000000000D+01
0.151144829288D-10 0.000000000000D+00 0.000000000000D+00 0.790657056345D-05 0.000000000000D+00  6 2 2 25 2 2 21 2 0.16468238D+00 0.15646555D+00 0.33248633D+06 0.33248633D+06 0.33248633D+06 0.10812637D+01  1  2 12  3  6  5        2 0.163919167847D-09 0.100000000000D+01
0.910987374415D-04 0.000000000000D+00 0.000000000000D+00 0.790657056345D-05 0.000000000000D+00  6 2 2 25 2 2 21 2 0.16468238D+00 0.15646555D+00 0.33248633D+06 0.33248633D+06 0.33248633D+06 0.10812637D+01  1  2 12  3  6  5        2 0.987981481316D-03 0.100000000000D+01
-.980265158960D-03 0.000000000000D+00 0.000000000000D+00 0.790657056345D-05 0.000000000000D+00  6 2 2 25 2 2 21 2 0.16468238D+00 0.15646555D+00 0.33235274D+06 0.33235274D+06 0.33235274D+06 0.10812764D+01  1  2  4  3  6  5        2 -.106316003899D-01 0.100000000000D+01
-.196314408786D-02 0.000000000000D+00 0.000000000000D+00 0.790657056345D-05 0.000000000000D+00  6 2 2 25 2 2 21 2 0.16468238D+00 0.15646555D+00 0.33235274D+06 0.33235274D+06 0.33235274D+06 0.10812764D+01  1  2  5  3  6  5        2 -.212915487806D-01 0.100000000000D+01
0.375053537158D-02 0.000000000000D+00 -.000000000000D+00 0.790657056345D-05 0.000000000000D+00  6 2 2 25 2 2 21 2 0.16468238D+00 0.15646555D+00 0.33235274D+06 0.33235274D+06 0.33235274D+06 0.10812764D+01  1  2  6  3  6  5        2 0.406769463899D-01 0.100000000000D+01
0.124202946643D-02 0.000000000000D+00 0.000000000000D+00 0.790657056345D-05 0.299012873526D-06  6 2 2 25 2 2 21 2 0.16468238D+00 0.15646555D+00 0.33248633D+06 0.33248633D+06 0.33248633D+06 0.10812637D+01  1  2 11  3  6  5        2 0.134700232577D-01 0.100000000000D+01
  </mgrwgt>
  </event>
  <event>
  5     66 0.18411016E-05 0.92686319E+02 0.75467711E-02 0.92937391E-01
        2 -1    0    0  502    0 0.00000000E+00 0.00000000E+00 0.88858796E+03 0.88858802E+03 0.32000000E+00 0.0000E+00 0.9000E+01
        2 -1    0    0  501    0 0.00000000E+00 0.00000000E+00 -.28859140E+04 0.28859140E+04 0.32000000E+00 0.0000E+00 0.9000E+01
       25  1    1    2    0    0 -.41114256E+03 0.39545464E+03 0.12192237E+02 0.58412004E+03 0.12500000E+03 0.0000E+00 0.9000E+01
        2  1    1    2  501    0 0.35509942E+03 -.32161898E+03 -.25740672E+04 0.26182735E+04 0.32000000E+00 0.0000E+00 0.9000E+01
        2  1    1    2  502    0 0.56043141E+02 -.73835657E+02 0.56454890E+03 0.57210847E+03 0.32000000E+00 0.0000E+00 0.9000E+01
#aMCatNLO 1  0  0  1  5 0.51471781D+01 0.00000000D+00  -5  6  0 0.00000000D+00 0.00000000D+00 0.00000000D+00 0.00000000D+00 0.00000000D+00
  <mgrwgt>
 0.4598805091D-02   13    2    0
 0.160137084192251D+04 0.000000000000000D+00 0.000000000000000D+00 0.160137084192251D+04
 0.160137084192251D+04 0.000000000000000D+00 0.000000000000000D+00 -.160137084192251D+04
 0.696091005277024D+03 -.411170700141693D+03 0.395478042454490D+03 0.378752506142114D+03
 0.148044511219688D+04 0.355133377815735D+03 -.321650051051198D+03 -.140076381265636D+04
 0.102620556637112D+04 0.560373223259580D+02 -.738279914032924D+02 0.102201130651425D+04
 0.000000000000000D+00 -.000000000000000D+00 0.000000000000000D+00 0.000000000000000D+00
 0.194452918954304D+04 0.000000000000000D+00 0.000000000000000D+00 0.194452918954304D+04
 0.160139221124426D+04 0.000000000000000D+00 0.000000000000000D+00 -.160139221124426D+04
 0.695220545025430D+03 -.410163812837513D+03 0.394992141637169D+03 0.378752506142114D+03
 0.148118570784825D+04 0.357276699684747D+03 -.322684369235181D+03 -.140076381265636D+04
 0.102633956702531D+04 0.575227420621945D+02 -.745448210434179D+02 0.102201130651425D+04
 0.343175580888309D+03 -.463562890942791D+01 0.223704864142936D+01 0.343136978298782D+03
0.298911322436D-05 0.000000000000D+00 0.000000000000D+00 0.265834339763D-04 0.000000000000D+00  6 2 2 25 2 2 21 0 0.13670585D+00 0.44398677D+00 0.33400207D+06 0.33400207D+06 0.33400207D+06 0.10811189D+01  1  2  2  1  6  1        2 0.311002649462D-05 0.100000000000D+01
0.801771450970D-06 0.000000000000D+00 -.114789818331D-07 0.265834339763D-04 0.000000000000D+00  6 2 2 25 2 2 21 2 0.13670585D+00 0.44398677D+00 0.33400207D+06 0.33400207D+06 0.33400207D+06 0.10811189D+01  1  2  3  1  6  1        2 0.975032802554D-06 0.100000000000D+01
-.208412022698D-05 0.000000000000D+00 0.000000000000D+00 0.265834339763D-04 0.000000000000D+00  6 2 2 25 2 2 21 2 0.13670585D+00 0.44398677D+00 0.33400207D+06 0.33400207D+06 0.33400207D+06 0.10811189D+01  1  2 15  1  6  1        2 -.253449481560D-05 0.100000000000D+01
0.894368754878D-10 0.000000000000D+00 0.000000000000D+00 0.265834339763D-04 0.000000000000D+00  6 2 2 25 2 2 21 2 0.16600149D+00 0.44398677D+00 0.33856287D+06 0.33856287D+06 0.33856287D+06 0.10806876D+01  1  2 12  1  6  1        2 0.823992397548D-10 0.100000000000D+01
0.131276163073D-01 0.000000000000D+00 0.000000000000D+00 0.265834339763D-04 0.000000000000D+00  6 2 2 25 2 2 21 2 0.16676080D+00 0.44398677D+00 0.33856287D+06 0.33856287D+06 0.33856287D+06 0.10806876D+01  1  2 12  1  6  1        2 0.120120470231D-01 0.100000000000D+01
-.212161540016D-01 0.000000000000D+00 0.000000000000D+00 0.265834339763D-04 0.000000000000D+00  6 2 2 25 2 2 21 2 0.13670585D+00 0.44398677D+00 0.33400207D+06 0.33400207D+06 0.33400207D+06 0.10811189D+01  1  2  4  1  6  1        2 -.258009262746D-01 0.100000000000D+01
-.295920379060D-01 0.000000000000D+00 -.404161853189D-05 0.265834339763D-04 0.000000000000D+00  6 2 2 25 2 2 21 2 0.16600143D+00 0.44398677D+00 0.33400207D+06 0.33400207D+06 0.33400207D+06 0.10811189D+01  1  2  5  1  6  1        2 -.273179535440D-01 0.100000000000D+01
0.290437017559D-01 0.000000000000D+00 0.396661268629D-05 0.265834339763D-04 0.000000000000D+00  6 2 2 25 2 2 21 2 0.13670585D+00 0.44398677D+00 0.33400207D+06 0.33400207D+06 0.33400207D+06 0.10811189D+01  1  2  6  1  6  1        2 0.353199928550D-01 0.100000000000D+01
0.112938787724D-01 0.000000000000D+00 0.000000000000D+00 0.265834339763D-04 0.450786785474D-05  6 2 2 25 2 2 21 2 0.16600059D+00 0.44399270D+00 0.33856287D+06 0.33856287D+06 0.33856287D+06 0.10806876D+01  1  2 11  1  6  1        2 0.104046953210D-01 0.100000000000D+01
0.250177520114D-11 0.000000000000D+00 0.000000000000D+00 0.265834339763D-04 0.000000000000D+00  6 21 2 25 2 2 -2 2 0.16600149D+00 0.44398677D+00 0.33856287D+06 0.33856287D+06 0.33856287D+06 0.10806876D+01  1  2 12  4  6  1        2 0.141300888270D-11 0.100000000000D+01
0.373837026876D-03 0.000000000000D+00 0.000000000000D+00 0.265834339763D-04 0.000000000000D+00  6 21 2 25 2 2 -2 2 0.16676080D+00 0.44398677D+00 0.33856287D+06 0.33856287D+06 0.33856287D+06 0.10806876D+01  1  2 12  4  6  1        2 0.208153386248D-03 0.100000000000D+01
-.827718528187D-03 0.000000000000D+00 -.113054102884D-06 0.265834339763D-04 0.000000000000D+00  6 21 2 25 2 2 -2 2 0.16600143D+00 0.44398677D+00 0.33400207D+06 0.33400207D+06 0.33400207D+06 0.10811189D+01  1  2  5  4  6  1        2 -.468707881948D-03 0.100000000000D+01
0.424861240375D-03 0.000000000000D+00 0.000000000000D+00 0.265834339763D-04 0.168458553728D-06  6 21 2 25 2 2 -2 2 0.16600059D+00 0.44399270D+00 0.33856287D+06 0.33856287D+06 0.33856287D+06 0.10806876D+01  1  2 11  4  6  1        2 0.239953558289D-03 0.100000000000D+01
  </mgrwgt>
  </event>
  <event>
  5     66 -.18411016E-05 0.17574362E+02 0.75467711E-02 0.95339528E-01
        2 -1    0    0  502    0 0.00000000E+00 0.00000000E+00 0.31332899E+03 0.31332916E+03 0.32000000E+00 0.0000E+00 0.9000E+01
        2 -1    0    0  501    0 0.00000000E+00 0.00000000E+00 -.15738120E+04 0.15738120E+04 0.32000000E+00 0.0000E+00 0.9000E+01
       25  1    1    2    0    0 -.94575974E+02 0.44735423E+03 -.15558375E+03 0.49890052E+03 0.12500000E+03 0.0000E+00 0.9000E+01
        2  1    1    2  501    0 0.10682005E+03 -.43472489E+03 -.12055931E+04 0.12860214E+04 0.32000000E+00 0.0000E+00 0.9000E+01
        2  1    1    2  502    0 -.12244078E+02 -.12629340E+02 0.10069386E+03 0.10221924E+03 0.32000000E+00 0.0000E+00 0.9000E+01
#aMCatNLO 1  0  0  2  1 0.92611073D+02 0.00000000D+00  -5  6  0 0.00000000D+00 0.00000000D+00 0.00000000D+00 0.00000000D+00 0.00000000D+00
  <mgrwgt>
 -.7861655803D-03    1    2    0
 0.702225823384866D+03 0.000000000000000D+00 0.000000000000000D+00 0.702225823384866D+03
 0.702225823384866D+03 0.000000000000000D+00 0.000000000000000D+00 -.702225823384866D+03
 0.530888580347456D+03 -.946082020968748D+02 0.447442198728824D+03 0.238877482480140D+03
 0.646046905654816D+03 0.106841205355318D+03 -.434824281201214D+03 -.465713866684505D+03
 0.227516160767460D+03 -.122330032584432D+02 -.126179175276101D+02 0.226836384204365D+03
 0.000000000000000D+00 -.000000000000000D+00 0.000000000000000D+00 -.000000000000000D+00
 0.756864537368034D+03 0.000000000000000D+00 0.000000000000000D+00 0.756864537368034D+03
 0.777895705973225D+03 0.000000000000000D+00 0.000000000000000D+00 -.777895705973225D+03
 0.492855778163548D+03 -.837051274158380D+02 0.403996061957843D+03 0.238877482480140D+03
 0.687782762413920D+03 0.121046748332754D+03 -.491429961815066D+03 -.465713866684505D+03
 0.229200925025626D+03 -.736887829100491D+01 -.320002885365899D+02 0.226836384204365D+03
 0.124920777738164D+03 -.299727426259112D+02 0.119434188393813D+03 -.210311686051905D+02
-.328346794073D-04 0.000000000000D+00 0.000000000000D+00 0.244282057215D-05 0.000000000000D+00  6 2 2 25 2 2 21 2 0.48204476D-01 0.24212493D+00 0.22063794D+06 0.22063794D+06 0.22063794D+06 0.10945647D+01  1  2 14  2  6  2        2 -.786165580308D-03 0.100000000000D+01
  </mgrwgt>
  </event>
  <event>
  5     66 0.18411016E-05 0.18304455E+02 0.75467711E-02 0.92524181E-01
        2 -1    0    0  502    0 0.00000000E+00 0.00000000E+00 0.95013819E+03 0.95013824E+03 0.32000000E+00 0.0000E+00 0.9000E+01
        2 -1    0    0  501    0 0.00000000E+00 0.00000000E+00 -.17765333E+04 0.17765333E+04 0.32000000E+00 0.0000E+00 0.9000E+01
       25  1    1    2    0    0 -.57282799E+03 -.18982726E+01 -.40994970E+03 0.71541546E+03 0.12500000E+03 0.0000E+00 0.9000E+01
        2  1    1    2  501    0 -.17519494E+02 -.52988308E+01 -.11044844E+04 0.11046361E+04 0.32000000E+00 0.0000E+00 0.9000E+01
        2  1    1    2  502    0 0.59034749E+03 0.71971033E+01 0.68803904E+03 0.90661998E+03 0.32000000E+00 0.0000E+00 0.9000E+01
#aMCatNLO 1  0  0  1  5 0.15141415D+02 0.00000000D+00  -5  6  0 0.00000000D+00 0.00000000D+00 0.00000000D+00 0.00000000D+00 0.00000000D+00
  <mgrwgt>
 0.6637049751D-02   11    2    0
 0.129921215210825D+04 0.000000000000000D+00 0.000000000000000D+00 0.129921215210825D+04
 0.129921215210825D+04 0.000000000000000D+00 0.000000000000000D+00 -.129921215210825D+04
 0.620317188447537D+03 -.572818220714023D+03 -.189779750075424D+01 -.202593431942215D+03
 0.807935555753526D+03 -.175206040677821D+02 -.529920019085649D+01 -.807728177768484D+03
 0.117017156001543D+04 0.590338824781805D+03 0.719699769161073D+01 0.101032160971070D+04
 0.000000000000000D+00 -.000000000000000D+00 -.000000000000000D+00 0.000000000000000D+00
 0.145603570791630D+04 0.000000000000000D+00 0.000000000000000D+00 0.145603570791630D+04
 0.129959973950393D+04 0.000000000000000D+00 0.000000000000000D+00 -.129959973950393D+04
 0.618566203675010D+03 -.570923523972026D+03 0.117449484985353D+01 -.202593431942215D+03
 0.807869398555882D+03 -.150494591625400D+02 -.129218449207161D+01 -.807728177768484D+03
 0.117203281727933D+04 0.593920894757857D+03 0.130054027745089D+02 0.101032160971070D+04
 0.157167027910017D+03 -.794791162329102D+01 -.128877131322908D+02 0.156435968412370D+03
0.191033743806D-04 0.000000000000D+00 0.000000000000D+00 0.247473315155D-04 0.000000000000D+00  6 2 2 25 2 2 21 0 0.14617511D+00 0.27331282D+00 0.35699940D+06 0.35699940D+06 0.35699940D+06 0.10790065D+01  1  2  2  1  6  1        2 0.778605310366D-04 0.100000000000D+01
0.169813788161D-04 0.000000000000D+00 -.733619876553D-07 0.247473315155D-04 0.000000000000D+00  6 2 2 25 2 2 21 2 0.14617511D+00 0.27331282D+00 0.35699940D+06 0.35699940D+06 0.35699940D+06 0.10790065D+01  1  2  3  1  6  1        2 0.805801988955D-04 0.100000000000D+01
-.139046884834D-04 0.000000000000D+00 0.000000000000D+00 0.247473315155D-04 0.000000000000D+00  6 2 2 25 2 2 21 2 0.14617511D+00 0.27331282D+00 0.35699940D+06 0.35699940D+06 0.35699940D+06 0.10790065D+01  1  2 15  1  6  1        2 -.659806589151D-04 0.100000000000D+01
0.146089519431D-09 0.000000000000D+00 0.000000000000D+00 0.247473315155D-04 0.000000000000D+00  6 2 2 25 2 2 21 2 0.16385369D+00 0.27331282D+00 0.36527399D+06 0.36527399D+06 0.36527399D+06 0.10782825D+01  1  2 12  1  6  1        2 0.586400157470D-09 0.100000000000D+01
0.776887950467D-02 0.000000000000D+00 0.000000000000D+00 0.247473315155D-04 0.000000000000D+00  6 2 2 25 2 2 21 2 0.16419039D+00 0.27331282D+00 0.36527399D+06 0.36527399D+06 0.36527399D+06 0.10782825D+01  1  2 12  1  6  1        2 0.310888599612D-01 0.100000000000D+01
-.633853727508D-02 0.000000000000D+00 0.000000000000D+00 0.247473315155D-04 0.000000000000D+00  6 2 2 25 2 2 21 2 0.14617511D+00 0.27331282D+00 0.35699940D+06 0.35699940D+06 0.35699940D+06 0.10790065D+01  1  2  4  1  6  1        2 -.300776868511D-01 0.100000000000D+01
-.801510109988D-02 0.000000000000D+00 -.413088717740D-04 0.247473315155D-04 0.000000000000D+00  6 2 2 25 2 2 21 2 0.16383878D+00 0.27331282D+00 0.35699940D+06 0.35699940D+06 0.35699940D+06 0.10790065D+01  1  2  5  1  6  1        2 -.322682993164D-01 0.100000000000D+01
0.796817686456D-02 0.000000000000D+00 0.410415309001D-04 0.247473315155D-04 0.000000000000D+00  6 2 2 25 2 2 21 2 0.14617511D+00 0.27331282D+00 0.35699940D+06 0.35699940D+06 0.35699940D+06 0.10790065D+01  1  2  6  1  6  1        2 0.378106679989D-01 0.100000000000D+01
0.265772941766D-11 0.000000000000D+00 0.000000000000D+00 0.247473315155D-04 0.000000000000D+00  6 21 2 25 2 2 -2 2 0.16385369D+00 0.27331282D+00 0.36527399D+06 0.36527399D+06 0.36527399D+06 0.10782825D+01  1  2 12  4  6  1        2 0.665752115098D-11 0.100000000000D+01
0.143482568500D-03 0.000000000000D+00 0.000000000000D+00 0.247473315155D-04 0.000000000000D+00  6 21 2 25 2 2 -2 2 0.16419039D+00 0.27331282D+00 0.36527399D+06 0.36527399D+06 0.36527399D+06 0.10782825D+01  1  2 12  4  6  1        2 0.357130966666D-03 0.100000000000D+01
-.145541968813D-03 0.000000000000D+00 -.751002810386D-06 0.247473315155D-04 0.000000000000D+00  6 21 2 25 2 2 -2 2 0.16383878D+00 0.27331282D+00 0.35699940D+06 0.35699940D+06 0.35699940D+06 0.10790065D+01  1  2  5  4  6  1        2 -.366083672327D-03 0.100000000000D+01
  </mgrwgt>
  </event>
  <event>
  5     66 -.18411016E-05 0.25169813E+02 0.75467711E-02 0.88869782E-01
        2 -1    0    0  502    0 0.00000000E+00 0.00000000E+00 0.55857841E+03 0.55857850E+03 0.32000000E+00 0.0000E+00 0.9000E+01
        2 -1    0    0  501    0 -.00000000E+00 -.00000000E+00 -.14356521E+04 0.14356522E+04 0.32000000E+00 0.0000E+00 0.9000E+01
       25  1    1    2    0    0 0.53547156E+03 0.63762273E+03 -.27458055E+03 0.88561392E+03 0.12500000E+03 0.0000E+00 0.9000E+01
        2  1    1    2  501    0 -.51234758E+03 -.64777127E+03 -.65252862E+03 0.10525689E+04 0.32000000E+00 0.0000E+00 0.9000E+01
        2  1    1    2  502    0 -.23123987E+02 0.10148542E+02 0.50035436E+02 0.56047828E+02 0.32000000E+00 0.0000E+00 0.9000E+01
#aMCatNLO 1  0  0  5  2 0.17605053D+02 0.00000000D+00  -5  6  0 0.00000000D+00 0.00000000D+00 0.00000000D+00 0.00000000D+00 0.00000000D+00
  <mgrwgt>
 -.1884703152D-02    7    2    0
 0.895502329496739D+03 0.000000000000000D+00 0.000000000000000D+00 0.895502329496739D+03
 0.895502329496739D+03 -.000000000000000D+00 -.000000000000000D+00 -.895502329496739D+03
 0.851798205006160D+03 0.535519002129985D+03 0.637758305078475D+03 0.128136352035060D+03
 0.852582702571491D+03 -.512471146490693D+03 -.647873435283417D+03 -.211022748993295D+03
 0.866237514158258D+02 -.230478556392926D+02 0.101151302049422D+02 0.828863969582355D+02
 0.000000000000000D+00 -.000000000000000D+00 0.000000000000000D+00 0.000000000000000D+00
 0.895502329496739D+03 0.000000000000000D+00 0.000000000000000D+00 0.895502329496739D+03
 0.895502329496739D+03 -.000000000000000D+00 -.000000000000000D+00 -.895502329496739D+03
 0.852271423825503D+03 0.533671494665448D+03 0.638569130122282D+03 0.134780494530809D+03
 0.851460124432790D+03 -.514318624897394D+03 -.647062622992370D+03 -.204378710997477D+03
 0.187833300798227D+02 0.143895735562811D+02 0.672977289312660D+01 0.100231640993695D+02
 0.684897806553609D+02 -.337424433243355D+02 0.176371997696187D+01 0.595750523672982D+02
0.846940998452D-04 0.000000000000D+00 0.000000000000D+00 0.274130897645D-07 0.000000000000D+00  6 2 2 25 2 2 21 0 0.85935150D-01 0.22086957D+00 0.71684158D+06 0.71684158D+06 0.71684158D+06 0.10576257D+01  1  2  2  3  6  5        2 0.100429837199D-02 0.100000000000D+01
0.351827589037D-04 0.000000000000D+00 -.325247643874D-06 0.274130897645D-07 0.000000000000D+00  6 2 2 25 2 2 21 2 0.85935150D-01 0.22086957D+00 0.71684158D+06 0.71684158D+06 0.71684158D+06 0.10576257D+01  1  2  3  3  6  5        2 0.466663136727D-03 0.100000000000D+01
-.698557401986D-04 0.000000000000D+00 0.000000000000D+00 0.274130897645D-07 0.000000000000D+00  6 2 2 25 2 2 21 2 0.85935150D-01 0.22086957D+00 0.71684158D+06 0.71684158D+06 0.71684158D+06 0.10576257D+01  1  2 15  3  6  5        2 -.926564597411D-03 0.100000000000D+01
0.112839282811D-07 0.000000000000D+00 0.000000000000D+00 0.274130897645D-07 0.000000000000D+00  6 2 2 25 2 2 21 2 0.85935150D-01 0.22086957D+00 0.73769899D+06 0.73769899D+06 0.73769899D+06 0.10567737D+01  1  2 12  3  6  5        2 0.149245252829D-06 0.100000000000D+01
-.242425840743D-03 0.000000000000D+00 0.000000000000D+00 0.274130897645D-07 0.000000000000D+00  6 2 2 25 2 2 21 2 0.85935150D-01 0.22086957D+00 0.71684158D+06 0.71684158D+06 0.71684158D+06 0.10576257D+01  1  2  4  3  6  5        2 -.321552961706D-02 0.100000000000D+01
-.174118359295D-04 0.000000000000D+00 0.000000000000D+00 0.274130897645D-07 0.000000000000D+00  6 2 2 25 2 2 21 2 0.85935150D-01 0.22086957D+00 0.71684158D+06 0.71684158D+06 0.71684158D+06 0.10576257D+01  1  2  5  3  6  5        2 -.230950108070D-03 0.100000000000D+01
0.766912354253D-04 0.000000000000D+00 -.000000000000D+00 0.274130897645D-07 0.000000000000D+00  6 2 2 25 2 2 21 2 0.85935150D-01 0.22086957D+00 0.71684158D+06 0.71684158D+06 0.71684158D+06 0.10576257D+01  1  2  6  3  6  5        2 0.101723041621D-02 0.100000000000D+01
  </mgrwgt>
  </event>
  <event>
  6     66 0.18411016E-05 0.22686797E+03 0.75467711E-02 0.95081897E-01
        2 -1    0    0  503    0 0.00000000E+00 0.00000000E+00 0.21072180E+04 0.21072180E+04 0.32000000E+00 0.0000E+00 0.9000E+01
        2 -1    0    0  501    0 0.00000000E+00 0.00000000E+00 -.14305726E+04 0.14305726E+04 0.32000000E+00 0.0000E+00 0.9000E+01
       25  1    1    2    0    0 0.21667092E+03 -.40962248E+03 -.61240592E+03 0.77807639E+03 0.12500000E+03 0.0000E+00 0.9000E+01
        2  1    1    2  501    0 -.47648855E+02 0.22555565E+03 -.70831441E+03 0.74488601E+03 0.32000000E+00 0.0000E+00 0.9000E+01
        2  1    1    2  502    0 -.16591867E+03 0.17741016E+03 0.16893444E+04 0.17067185E+04 0.32000000E+00 0.0000E+00 0.9000E+01
       21  1    1    2  503  502 -.31034015E+01 0.66566590E+01 0.30802134E+03 0.30810980E+03 0.75000000E+00 0.0000E+00 0.9000E+01
#aMCatNLO 2  0  0  1  5 0.73445361D+01 0.00000000D+00  -5  6  0 0.00000000D+00 0.00000000D+00 0.00000000D+00 0.00000000D+00 0.00000000D+00
  <mgrwgt>
 0.1926980720D-01    3    2    0
 0.160428339958789D+04 0.000000000000000D+00 0.000000000000000D+00 0.160428339958789D+04
 0.160428339958789D+04 0.000000000000000D+00 0.000000000000000D+00 -.160428339958789D+04
 0.852485757287361D+03 0.215847436446049D+03 -.407858675078980D+03 -.705810280259712D+03
 0.831690993063965D+03 -.484549931002260D+02 0.227286904575805D+03 -.798562887063837D+03
 0.152439004882445D+04 -.167392443345823D+03 0.180571770503175D+03 0.150437316732355D+04
 0.000000000000000D+00 -.000000000000000D+00 0.000000000000000D+00 0.000000000000000D+00
 0.187898622024904D+04 0.000000000000000D+00 0.000000000000000D+00 0.187898622024904D+04
 0.160433669474030D+04 0.000000000000000D+00 0.000000000000000D+00 -.160433669474030D+04
 0.853542928152728D+03 0.216672490950850D+03 -.409628380540698D+03 -.705810280259712D+03
 0.831174763959717D+03 -.476508126691339D+02 0.225561973079974D+03 -.798562887063837D+03
 0.152385751301883D+04 -.165918276818546D+03 0.177409748431155D+03 0.150437316732355D+04
 0.274747709858066D+03 -.310340146317040D+01 0.665665902956984D+01 0.274649525508737D+03
-.467211624660D-09 0.000000000000D+00 0.000000000000D+00 0.105687531918D-04 0.000000000000D+00  6 2 2 25 2 2 21 2 0.32419620D+00 0.22008072D+00 0.23076318D+06 0.23076318D+06 0.23076318D+06 0.10930848D+01  1  2 13  1  6  1        2 -.810046927662D-09 0.100000000000D+01
-.232749002501D-01 0.000000000000D+00 0.000000000000D+00 0.105687531918D-04 0.000000000000D+00  6 2 2 25 2 2 21 2 0.32497958D+00 0.22008072D+00 0.23076318D+06 0.23076318D+06 0.23076318D+06 0.10930848D+01  1  2 13  1  6  1        2 -.400940618576D-01 0.100000000000D+01
0.342389163556D-01 0.000000000000D+00 0.000000000000D+00 0.105687531918D-04 0.184481849591D-05  6 2 2 25 2 2 21 2 0.32418729D+00 0.22008803D+00 0.23076318D+06 0.23076318D+06 0.23076318D+06 0.10930848D+01  1  2  1  1  6  1        2 0.593638698702D-01 0.100000000000D+01
  </mgrwgt>
  </event>
  <event>
  5     66 0.18411016E-05 0.25796978E+02 0.75467711E-02 0.88431015E-01
        2 -1    0    0  502    0 0.00000000E+00 0.00000000E+00 0.21140312E+04 0.21140312E+04 0.32000000E+00 0.0000E+00 0.9000E+01
        2 -1    0    0  501    0 -.00000000E+00 -.00000000E+00 -.25668367E+04 0.25668368E+04 0.32000000E+00 0.0000E+00 0.9000E+01
       25  1    1    2    0    0 -.61688645E+03 0.57893021E+03 0.65804378E+03 0.10790531E+04 0.12500000E+03 0.0000E+00 0.9000E+01
        2  1    1    2  501    0 0.63836455E+03 -.59322423E+03 -.22756116E+04 0.24367668E+04 0.32000000E+00 0.0000E+00 0.9000E+01
        2  1    1    2  502    0 -.21478098E+02 0.14294030E+02 0.11647623E+04 0.11650480E+04 0.32000000E+00 0.0000E+00 0.9000E+01
#aMCatNLO 1  0  0  5  4 0.46009950D+02 0.00000000D+00  -5  6  0 0.00000000D+00 0.00000000D+00 0.00000000D+00 0.00000000D+00 0.00000000D+00
  <mgrwgt>
 0.1600877551D-02    6    2    0
 0.232945766446377D+04 0.000000000000000D+00 0.000000000000000D+00 0.232945766446377D+04
 0.232945766446377D+04 -.000000000000000D+00 -.000000000000000D+00 -.232945766446377D+04
 0.114822199980349D+04 -.616930957593161D+03 0.578971039275736D+03 0.766144562126428D+03
 0.222708983444547D+04 0.638406733468024D+03 -.593263523828829D+03 -.204948880568967D+04
 0.128360349467857D+04 -.214757758748605D+02 0.142924845530918D+02 0.128334424356324D+04
 0.000000000000000D+00 0.000000000000000D+00 0.000000000000000D+00 0.000000000000000D+00
 0.232945766446377D+04 0.000000000000000D+00 0.000000000000000D+00 0.232945766446377D+04
 0.232945766446377D+04 -.000000000000000D+00 -.000000000000000D+00 -.232945766446377D+04
 0.115129536513454D+04 -.617006269606186D+03 0.579021160667815D+03 0.770645039266350D+03
 0.221901691980416D+04 0.638261118020673D+03 -.593166614336754D+03 -.204078715284971D+04
 0.121887850924851D+04 0.158548292951990D+02 -.147790691800172D+02 0.121868577730688D+04
 0.697245347403200D+02 -.371096777096834D+02 0.289245228489547D+02 0.514563362764764D+02
0.247349430291D-02 0.000000000000D+00 0.000000000000D+00 0.549983219649D-04 0.000000000000D+00  6 2 2 25 2 2 21 0 0.32523557D+00 0.39489796D+00 0.76785317D+06 0.76785317D+06 0.76785317D+06 0.10555871D+01  1  2  2  3  6  5        2 0.738190087446D-03 0.100000000000D+01
0.210140986472D-02 0.000000000000D+00 -.949886940917D-05 0.549983219649D-04 0.000000000000D+00  6 2 2 25 2 2 21 2 0.32523557D+00 0.39489796D+00 0.76785317D+06 0.76785317D+06 0.76785317D+06 0.10555871D+01  1  2  3  3  6  5        2 0.698805273200D-03 0.100000000000D+01
-.194221823660D-02 0.000000000000D+00 0.000000000000D+00 0.549983219649D-04 0.000000000000D+00  6 2 2 25 2 2 21 2 0.32523557D+00 0.39489796D+00 0.76785317D+06 0.76785317D+06 0.76785317D+06 0.10555871D+01  1  2 15  3  6  5        2 -.645867504586D-03 0.100000000000D+01
-.369681419829D-04 0.000000000000D+00 0.000000000000D+00 0.549983219649D-04 0.000000000000D+00  6 2 2 25 2 2 21 2 0.32523557D+00 0.39489796D+00 0.76785317D+06 0.76785317D+06 0.76785317D+06 0.10555871D+01  1  2  4  3  6  5        2 -.122934288031D-04 0.100000000000D+01
-.443072077245D-01 0.000000000000D+00 0.000000000000D+00 0.549983219649D-04 0.000000000000D+00  6 2 2 25 2 2 21 2 0.32523557D+00 0.39489796D+00 0.76785317D+06 0.76785317D+06 0.76785317D+06 0.10555871D+01  1  2  5  3  6  5        2 -.147339702351D-01 0.100000000000D+01
0.467792118667D-01 0.000000000000D+00 -.000000000000D+00 0.549983219649D-04 0.000000000000D+00  6 2 2 25 2 2 21 2 0.32523557D+00 0.39489796D+00 0.76785317D+06 0.76785317D+06 0.76785317D+06 0.10555871D+01  1  2  6  3  6  5        2 0.155560133591D-01 0.100000000000D+01
  </mgrwgt>
  </event>
  <event>
  6     66 0.18411016E-05 0.15774923E+03 0.75467711E-02 0.93899904E-01
        2 -1    0    0  502    0 0.00000000E+00 0.00000000E+00 0.59242490E+03 0.59242499E+03 0.32000000E+00 0.0000E+00 0.9000E+01
        2 -1    0    0  501    0 -.00000000E+00 -.00000000E+00 -.21745057E+04 0.21745058E+04 0.32000000E+00 0.0000E+00 0.9000E+01
       25  1    1    2    0    0 -.50269184E+03 -.73969738E+02 -.35800263E+03 0.63400433E+03 0.12500000E+03 0.0000E+00 0.9000E+01
        2  1    1    2  501    0 0.27572974E+03 0.10676506E+03 -.52638672E+03 0.60374560E+03 0.32000000E+00 0.0000E+00 0.9000E+01
        2  1    1    2  503    0 0.50989887E+02 0.31782318E+02 0.40562663E+03 0.41005262E+03 0.32000000E+00 0.0000E+00 0.9000E+01
       21  1    1    2  502  503 0.17597222E+03 -.64577639E+02 -.11033181E+04 0.11191282E+04 0.75000000E+00 0.0000E+00 0.9000E+01
#aMCatNLO 2  0  0  5  5 0.53878701D+03 0.00000000D+00  -5  6  0 0.00000000D+00 0.00000000D+00 0.00000000D+00 0.00000000D+00 0.00000000D+00
  <mgrwgt>
 0.3950578444D-02    1    2    0
 0.113500286590825D+04 0.000000000000000D+00 0.000000000000000D+00 0.113500286590825D+04
 0.113500286590825D+04 -.000000000000000D+00 -.000000000000000D+00 -.113500286590825D+04
 0.868006092558869D+03 -.809613834457358D+03 -.296837464431565D+02 -.285401280606217D+03
 0.420711923691837D+03 0.101631223730341D+03 0.131985038071209D+03 -.386328314811251D+03
 0.981287715565790D+03 0.707982610727017D+03 -.102301291628053D+03 0.671729595417468D+03
 0.000000000000000D+00 0.000000000000000D+00 0.000000000000000D+00 -.000000000000000D+00
 0.113500286590825D+04 0.000000000000000D+00 0.000000000000000D+00 0.113500286590825D+04
 0.113500286590825D+04 -.000000000000000D+00 -.000000000000000D+00 -.113500286590825D+04
 0.523329210528115D+03 -.502727600589856D+03 -.740278555100093D+02 0.577051173953083D+01
 0.369268264885562D+03 0.275876816697445D+03 0.106807090264375D+03 -.221005155889485D+03
 0.782285339502837D+03 0.506598174427912D+02 0.318352973619581D+02 0.779993877629567D+03
 0.595122916899982D+03 0.176190966449620D+03 -.646145321163242D+02 -.564759233479613D+03
0.737294246725D-03 0.000000000000D+00 0.000000000000D+00 0.251204172649D-07 0.155676455634D-08  6 2 2 25 2 2 21 2 0.91142301D-01 0.33453935D+00 0.28442260D+06 0.28442260D+06 0.28442260D+06 0.10862693D+01  1  2  1  3  6  5        2 0.395057844404D-02 0.100000000000D+01
  </mgrwgt>
  </event>
  <event>
  5     66 0.18411016E-05 0.30755030E+02 0.75467711E-02 0.91738975E-01
        2 -1    0    0  502    0 0.00000000E+00 0.00000000E+00 0.22056852E+04 0.22056853E+04 0.32000000E+00 0.0000E+00 0.9000E+01
        2 -1    0    0  501    0 0.00000000E+00 0.00000000E+00 -.15341413E+04 0.15341413E+04 0.32000000E+00 0.0000E+00 0.9000E+01
       25  1    1    2    0    0 0.37467357E+03 0.33729794E+03 -.14663392E+03 0.53970056E+03 0.12500000E+03 0.0000E+00 0.9000E+01
        2  1    1    2  501    0 -.20318585E+02 -.23085284E+02 -.11628585E+04 0.11632651E+04 0.32000000E+00 0.0000E+00 0.9000E+01
        2  1    1    2  502    0 -.35435498E+03 -.31421266E+03 0.19810364E+04 0.20368609E+04 0.32000000E+00 0.0000E+00 0.9000E+01
#aMCatNLO 1  0  0  2  4 0.20521091D+02 0.00000000D+00  -5  6  0 0.00000000D+00 0.00000000D+00 0.00000000D+00 0.00000000D+00 0.00000000D+00
  <mgrwgt>
 0.3174061518D-01    7    2    0
 0.183951972581674D+04 0.000000000000000D+00 0.000000000000000D+00 0.183951972581674D+04
 0.183951972581674D+04 0.000000000000000D+00 0.000000000000000D+00 -.183951972581674D+04
 0.575362263230211D+03 0.374672073056567D+03 0.337296866893224D+03 -.247524534551425D+03
 0.139477781154694D+04 -.203196295614768D+02 -.230864571203812D+02 -.139443869414750D+04
 0.170889937685633D+04 -.354352443495090D+03 -.314210409772843D+03 0.164196322869892D+04
 0.000000000000000D+00 -.000000000000000D+00 -.000000000000000D+00 -.000000000000000D+00
 0.186592918401706D+04 0.000000000000000D+00 0.000000000000000D+00 0.186592918401706D+04
 0.284058169417270D+04 0.000000000000000D+00 0.000000000000000D+00 -.284058169417270D+04
 0.609672456809412D+03 0.385598600613053D+03 0.382257542230863D+03 -.247524534551425D+03
 0.139690717564977D+04 0.542090143377711D+01 0.828311503823899D+02 -.139443869414750D+04
 0.168369425797343D+04 -.323071277456609D+03 -.185494095905666D+03 0.164196322869892D+04
 0.101623698775715D+04 -.679482245902211D+02 -.279594596707588D+03 -.974652510155637D+03
0.404320797355D-02 0.000000000000D+00 0.000000000000D+00 0.310424252577D-03 0.000000000000D+00  6 2 2 25 2 2 21 0 0.33933619D+00 0.23602174D+00 0.26201541D+06 0.26201541D+06 0.26201541D+06 0.10889287D+01  1  2  2  2  6  2        2 0.449069923472D-02 0.100000000000D+01
0.269673204733D-02 0.000000000000D+00 -.155269832195D-04 0.310424252577D-03 0.000000000000D+00  6 2 2 25 2 2 21 2 0.33933619D+00 0.23602174D+00 0.26201541D+06 0.26201541D+06 0.26201541D+06 0.10889287D+01  1  2  3  2  6  2        2 0.355160443419D-02 0.100000000000D+01
-.261781121103D-02 0.000000000000D+00 0.000000000000D+00 0.310424252577D-03 0.000000000000D+00  6 2 2 25 2 2 21 2 0.33933619D+00 0.23602174D+00 0.26201541D+06 0.26201541D+06 0.26201541D+06 0.10889287D+01  1  2 15  2  6  2        2 -.344766544907D-02 0.100000000000D+01
-.639237179816D-04 0.000000000000D+00 0.000000000000D+00 0.310424252577D-03 0.000000000000D+00  6 2 2 25 2 2 21 2 0.33933619D+00 0.23602174D+00 0.26201541D+06 0.26201541D+06 0.26201541D+06 0.10889287D+01  1  2  4  2  6  2        2 -.841877339865D-04 0.100000000000D+01
-.345517590302D-01 0.000000000000D+00 -.237992844690D-02 0.310424252577D-03 0.000000000000D+00  6 2 2 25 2 2 21 2 0.33933619D+00 0.36582803D+00 0.26201541D+06 0.26201541D+06 0.26201541D+06 0.10889287D+01  1  2  5  2  6  2        2 -.156335569543D-01 0.100000000000D+01
0.326231520330D-01 0.000000000000D+00 0.216835422809D-02 0.310424252577D-03 0.000000000000D+00  6 2 2 25 2 2 21 2 0.33933619D+00 0.23602174D+00 0.26201541D+06 0.26201541D+06 0.26201541D+06 0.10889287D+01  1  2  6  2  6  2        2 0.429647919720D-01 0.100000000000D+01
-.166835132100D-02 0.000000000000D+00 -.121225567896D-03 0.310424252577D-03 0.000000000000D+00  6 2 21 25 2 2 -2 2 0.33933619D+00 0.36582803D+00 0.26201541D+06 0.26201541D+06 0.26201541D+06 0.10889287D+01  1  2  5  5  6  2        2 -.101070325389D-03 0.100000000000D+01
  </mgrwgt>
  </event>
  <event>
  5     66 0.18411016E-05 0.11553915E+03 0.75467711E-02 0.89163943E-01
        2 -1    0    0  502    0 0.00000000E+00 0.00000000E+00 0.18081206E+04 0.18081206E+04 0.32000000E+00 0.0000E+00 0.9000E+01
        2 -1    0    0  501    0 0.00000000E+00 0.00000000E+00 -.58053357E+03 0.58053365E+03 0.32000000E+00 0.0000E+00 0.9000E+01
       25  1    1    2    0    0 0.23706036E+03 -.61403366E+03 0.75358306E+03 0.10083389E+04 0.12500000E+03 0.0000E+00 0.9000E+01
        2  1    1    2  501    0 0.54673525E+02 -.10177062E+03 -.27852068E+03 0.30152997E+03 0.32000000E+00 0.0000E+00 0.9000E+01
        2  1    1    2  502    0 -.29173389E+03 0.71580428E+03 0.75252462E+03 0.10787854E+04 0.32000000E+00 0.0000E+00 0.9000E+01
#aMCatNLO 1  0  0  1  4 0.13243521D+03 0.00000000D+00  -5  6  0 0.00000000D+00 0.00000000D+00 0.00000000D+00 0.00000000D+00 0.00000000D+00
  <mgrwgt>
 0.2864361338D-02    7    2    0
 0.102453639216185D+04 0.000000000000000D+00 0.000000000000000D+00 0.102453639216185D+04
 0.102453639216185D+04 0.000000000000000D+00 0.000000000000000D+00 -.102453639216185D+04
 0.723955748216800D+03 0.237035697940072D+03 -.613977128747925D+03 0.274468738935172D+03
 0.518435156236715D+03 0.546795247442422D+02 -.101781357363188D+03 -.505396592874584D+03
 0.806681879870184D+03 -.291715222684314D+03 0.715758486111113D+03 0.230927853939412D+03
 0.000000000000000D+00 0.000000000000000D+00 -.000000000000000D+00 0.000000000000000D+00
 0.110466853904120D+04 0.000000000000000D+00 0.000000000000000D+00 0.110466853904120D+04
 0.108289302287150D+04 0.000000000000000D+00 0.000000000000000D+00 -.108289302287150D+04
 0.683305571166814D+03 0.226443820305396D+03 -.569799623710335D+03 0.274468738935172D+03
 0.512295872345738D+03 0.469216358726919D+02 -.694240939463654D+02 -.505396592874584D+03
 0.857746641844797D+03 -.304242692167659D+03 0.768009122428595D+03 0.230927853939412D+03
 0.134213476555350D+03 0.308772359895715D+02 -.128785404771894D+03 0.217755161697041D+02
0.150907447665D-03 0.000000000000D+00 0.000000000000D+00 0.426257775758D-07 0.000000000000D+00  6 2 2 25 2 2 21 0 0.27817240D+00 0.89312865D-01 0.60712961D+06 0.60712961D+06 0.60712961D+06 0.10626022D+01  1  2  2  1  6  1        2 0.107120806355D-02 0.100000000000D+01
0.311186077786D-04 0.000000000000D+00 -.579524333879D-06 0.426257775758D-07 0.000000000000D+00  6 2 2 25 2 2 21 2 0.27817240D+00 0.89312865D-01 0.60712961D+06 0.60712961D+06 0.60712961D+06 0.10626022D+01  1  2  3  1  6  1        2 0.249416270096D-03 0.100000000000D+01
-.978889217434D-04 0.000000000000D+00 0.000000000000D+00 0.426257775758D-07 0.000000000000D+00  6 2 2 25 2 2 21 2 0.27817240D+00 0.89312865D-01 0.60712961D+06 0.60712961D+06 0.60712961D+06 0.10626022D+01  1  2 15  1  6  1        2 -.784581685617D-03 0.100000000000D+01
-.317134419634D-04 0.000000000000D+00 0.000000000000D+00 0.426257775758D-07 0.000000000000D+00  6 2 2 25 2 2 21 2 0.27817240D+00 0.89312865D-01 0.60712961D+06 0.60712961D+06 0.60712961D+06 0.10626022D+01  1  2  4  1  6  1        2 -.254183878106D-03 0.100000000000D+01
-.135277935023D-02 0.000000000000D+00 -.302499363443D-03 0.426257775758D-07 0.000000000000D+00  6 2 2 25 2 2 21 2 0.30846610D+00 0.89312865D-01 0.60712961D+06 0.60712961D+06 0.60712961D+06 0.10626022D+01  1  2  5  1  6  1        2 -.843891495181D-02 0.100000000000D+01
0.137828756161D-02 0.000000000000D+00 0.300890343962D-03 0.426257775758D-07 0.000000000000D+00  6 2 2 25 2 2 21 2 0.27817240D+00 0.89312865D-01 0.60712961D+06 0.60712961D+06 0.60712961D+06 0.10626022D+01  1  2  6  1  6  1        2 0.110470026546D-01 0.100000000000D+01
-.215477667230D-04 0.000000000000D+00 -.505569980856D-05 0.426257775758D-07 0.000000000000D+00  6 21 2 25 2 2 -2 2 0.30846610D+00 0.89312865D-01 0.60712961D+06 0.60712961D+06 0.60712961D+06 0.10626022D+01  1  2  5  4  6  1        2 -.255851350768D-04 0.100000000000D+01
  </mgrwgt>
  </event>
  <event>
  6     66 0.18411016E-05 0.12875687E+03 0.75467711E-02 0.91665888E-01
        2 -1    0    0  502    0 0.00000000E+00 0.00000000E+00 0.13594931E+04 0.13594932E+04 0.32000000E+00 0.0000E+00 0.9000E+01
        2 -1    0    0  501    0 -.00000000E+00 -.00000000E+00 -.16184247E+04 0.16184247E+04 0.32000000E+00 0.0000E+00 0.9000E+01
       25  1    1    2    0    0 -.36045673E+03 -.42608462E+03 0.15370880E+03 0.59222340E+03 0.12500000E+03 0.0000E+00 0.9000E+01
        2  1    1    2  501    0 -.52743180E+02 0.37826152E+02 -.12822974E+04 0.12839390E+04 0.32000000E+00 0.0000E+00 0.9000E+01
        2  1    1    2  503    0 -.42340170E+02 0.15593896E+03 0.16332463E+03 0.22974918E+03 0.32000000E+00 0.0000E+00 0.9000E+01
       21  1    1    2  502  503 0.45554008E+03 0.23231951E+03 0.70633234E+03 0.87200634E+03 0.75000000E+00 0.0000E+00 0.9000E+01
#aMCatNLO 2  0  0  5  1 0.14494571D+03 0.00000000D+00  -5  6  0 0.00000000D+00 0.00000000D+00 0.00000000D+00 0.00000000D+00 0.00000000D+00
  <mgrwgt>
 0.2917183160D-02    1    2    0
 0.148331970579440D+04 0.000000000000000D+00 0.000000000000000D+00 0.148331970579440D+04
 0.148331970579440D+04 -.000000000000000D+00 -.000000000000000D+00 -.148331970579440D+04
 0.610087014137712D+03 -.364859690643265D+03 -.430252215332476D+03 0.195810117625893D+03
 0.119786128617469D+04 -.615478568819181D+02 0.295833400927895D+02 -.119591318590368D+04
 0.115869111127639D+04 0.426407547525183D+03 0.400668875239686D+03 0.100010306827779D+04
 0.000000000000000D+00 0.000000000000000D+00 0.000000000000000D+00 0.000000000000000D+00
 0.148331970579440D+04 0.000000000000000D+00 0.000000000000000D+00 0.148331970579440D+04
 0.148331970579440D+04 -.000000000000000D+00 -.000000000000000D+00 -.148331970579440D+04
 0.607921594421342D+03 -.360363198671598D+03 -.426027139131859D+03 0.206356261669193D+03
 0.117714143475447D+04 -.527801186308889D+02 0.378218430081919D+02 -.117534919265918D+04
 0.244264049565873D+03 -.423085653961115D+02 0.155572757844533D+03 0.183499395696794D+03
 0.937312332847110D+03 0.455451882698599D+03 0.232632538279134D+03 0.785493535293194D+03
0.901767509806D-03 0.000000000000D+00 0.000000000000D+00 0.146239017493D-04 0.319526259366D-09  6 2 2 25 2 2 21 2 0.20915279D+00 0.24898842D+00 0.42863612D+06 0.42863612D+06 0.42863612D+06 0.10732695D+01  1  2  1  3  6  5        2 0.291718315954D-02 0.100000000000D+01
  </mgrwgt>
  </event>
  <event>
  5     66 0.18411016E-05 0.38719607E+02 0.75467711E-02 0.95159450E-01
        2 -1    0    0  502    0 0.00000000E+00 0.00000000E+00 0.29169380E+04 0.29169380E+04 0.32000000E+00 0.0000E+00 0.9000E+01
        2 -1    0    0  501    0 0.00000000E+00 0.00000000E+00 -.11695302E+04 0.11695302E+04 0.32000000E+00 0.0000E+00 0.9000E+01
       25  1    1    2    0    0 0.14268492E+03 -.44263881E+03 0.16500523E+04 0.17188908E+04 0.12500000E+03 0.0000E+00 0.9000E+01
        2  1    1    2  501    0 -.17040714E+01 0.38678787E+02 -.10976266E+04 0.10983092E+04 0.32000000E+00 0.0000E+00 0.9000E+01
        2  1    1    2  502    0 -.14098085E+03 0.40396002E+03 0.11949821E+04 0.12692681E+04 0.32000000E+00 0.0000E+00 0.9000E+01
#aMCatNLO 1  0  0  2  4 0.55641353D+01 0.00000000D+00  -5  6  0 0.00000000D+00 0.00000000D+00 0.00000000D+00 0.00000000D+00 0.00000000D+00
  <mgrwgt>
 0.4485432241D-01   13    2    0
 0.184701029511717D+04 0.000000000000000D+00 0.000000000000000D+00 0.184701029511717D+04
 0.184701029511717D+04 0.000000000000000D+00 0.000000000000000D+00 -.184701029511717D+04
 0.112109938711659D+04 0.142656576011687D+03 -.442560455929301D+03 0.101243675356116D+04
 0.173424794790885D+04 -.170422546727914D+01 0.386820834934079D+02 -.173381565826884D+04
 0.838673255208912D+03 -.140952350544408D+03 0.403878372435893D+03 0.721378904707680D+03
 0.000000000000000D+00 -.000000000000000D+00 -.000000000000000D+00 -.000000000000000D+00
 0.184702458354607D+04 0.000000000000000D+00 0.000000000000000D+00 0.184702458354607D+04
 0.248178534268833D+04 0.000000000000000D+00 0.000000000000000D+00 -.248178534268833D+04
 0.112110514424845D+04 0.144267088605061D+03 -.442052679716228D+03 0.101243675356116D+04
 0.173426498717096D+04 0.787110039399782D+00 0.394675731035356D+02 -.173381565826884D+04
 0.838654649314532D+03 -.139747572980335D+03 0.404258225031643D+03 0.721378904707680D+03
 0.634785145500461D+03 -.530662566412619D+01 -.167311841894979D+01 -.634760759142261D+03
0.140193018099D-04 0.000000000000D+00 0.000000000000D+00 0.559261507379D-04 0.000000000000D+00  6 2 2 25 2 2 21 0 0.44875969D+00 0.17992772D+00 0.22466679D+06 0.22466679D+06 0.22466679D+06 0.10939671D+01  1  2  2  2  6  2        2 0.970803586889D-05 0.100000000000D+01
0.803001861276D-05 0.000000000000D+00 -.538378103169D-07 0.559261507379D-04 0.000000000000D+00  6 2 2 25 2 2 21 2 0.44875969D+00 0.17992772D+00 0.22466679D+06 0.22466679D+06 0.22466679D+06 0.10939671D+01  1  2  3  2  6  2        2 0.665472434085D-05 0.100000000000D+01
-.109382310772D-04 0.000000000000D+00 0.000000000000D+00 0.559261507379D-04 0.000000000000D+00  6 2 2 25 2 2 21 2 0.44875969D+00 0.17992772D+00 0.22466679D+06 0.22466679D+06 0.22466679D+06 0.10939671D+01  1  2 15  2  6  2        2 -.906484979741D-05 0.100000000000D+01
0.370882448353D-09 0.000000000000D+00 0.000000000000D+00 0.559261507379D-04 0.000000000000D+00  6 2 2 25 2 2 21 2 0.44875969D+00 0.24176636D+00 0.22766136D+06 0.22766136D+06 0.22766136D+06 0.10935305D+01  1  2 12  2  6  2        2 0.182848147994D-09 0.100000000000D+01
0.146437025140D+00 0.000000000000D+00 0.000000000000D+00 0.559261507379D-04 0.000000000000D+00  6 2 2 25 2 2 21 2 0.44875969D+00 0.24840150D+00 0.22766136D+06 0.22766136D+06 0.22766136D+06 0.10935305D+01  1  2 12  2  6  2        2 0.683976266659D-01 0.100000000000D+01
-.141905382477D+00 0.000000000000D+00 0.000000000000D+00 0.559261507379D-04 0.000000000000D+00  6 2 2 25 2 2 21 2 0.44875969D+00 0.17992772D+00 0.22466679D+06 0.22466679D+06 0.22466679D+06 0.10939671D+01  1  2  4  2  6  2        2 -.117601371604D+00 0.100000000000D+01
-.226417793572D+00 0.000000000000D+00 -.116880585044D-04 0.559261507379D-04 0.000000000000D+00  6 2 2 25 2 2 21 2 0.44875969D+00 0.24176535D+00 0.22466679D+06 0.22466679D+06 0.22466679D+06 0.10939671D+01  1  2  5  2  6  2        2 -.111866540757D+00 0.100000000000D+01
0.216888927938D+00 0.000000000000D+00 0.111959677367D-04 0.559261507379D-04 0.000000000000D+00  6 2 2 25 2 2 21 2 0.44875969D+00 0.17992772D+00 0.22466679D+06 0.22466679D+06 0.22466679D+06 0.10939671D+01  1  2  6  2  6  2        2 0.179742550748D+00 0.100000000000D+01
0.533085200040D-01 0.000000000000D+00 0.000000000000D+00 0.559261507379D-04 0.809479979101D-05  6 2 2 25 2 2 21 2 0.44876316D+00 0.24176475D+00 0.22766136D+06 0.22766136D+06 0.22766136D+06 0.10935305D+01  1  2 11  2  6  2        2 0.262810458291D-01 0.100000000000D+01
0.141779074662D-10 0.000000000000D+00 0.000000000000D+00 0.559261507379D-04 0.000000000000D+00  6 2 21 25 2 2 -2 2 0.44875969D+00 0.24176636D+00 0.22766136D+06 0.22766136D+06 0.22766136D+06 0.10935305D+01  1  2 12  5  6  2        2 0.227439430086D-11 0.100000000000D+01
0.559792085412D-02 0.000000000000D+00 0.000000000000D+00 0.559261507379D-04 0.000000000000D+00  6 2 21 25 2 2 -2 2 0.44875969D+00 0.24840150D+00 0.22766136D+06 0.22766136D+06 0.22766136D+06 0.10935305D+01  1  2 12  5  6  2        2 0.808659176815D-03 0.100000000000D+01
-.865501862904D-02 0.000000000000D+00 -.446799489493D-06 0.559261507379D-04 0.000000000000D+00  6 2 21 25 2 2 -2 2 0.44875969D+00 0.24176535D+00 0.22466679D+06 0.22466679D+06 0.22466679D+06 0.10939671D+01  1  2  5  5  6  2        2 -.139231883179D-02 0.100000000000D+01
0.297582348482D-02 0.000000000000D+00 0.000000000000D+00 0.559261507379D-04 0.431945652290D-06  6 2 21 25 2 2 -2 2 0.44876316D+00 0.24176475D+00 0.22766136D+06 0.22766136D+06 0.22766136D+06 0.10935305D+01  1  2 11  5  6  2        2 0.477373083286D-03 0.100000000000D+01
  </mgrwgt>
  </event>
  <event>
  5     66 -.18411016E-05 0.15444641E+02 0.75467711E-02 0.94053932E-01
        2 -1    0    0  502    0 0.00000000E+00 0.00000000E+00 0.59836912E+03 0.59836920E+03 0.32000000E+00 0.0000E+00 0.9000E+01
        2 -1    0    0  501    0 0.00000000E+00 0.00000000E+00 -.73901607E+03 0.73901614E+03 0.32000000E+00 0.0000E+00 0.9000E+01
       25  1    1    2    0    0 -.48072367E+03 -.15489103E+03 -.36831019E+02 0.52160138E+03 0.12500000E+03 0.0000E+00 0.9000E+01
        2  1    1    2  501    0 0.48770667E+03 0.16868130E+03 -.31463029E+03 0.60440343E+03 0.32000000E+00 0.0000E+00 0.9000E+01
        2  1    1    2  502    0 -.69830046E+01 -.13790268E+02 0.21081436E+03 0.21138053E+03 0.32000000E+00 0.0000E+00 0.9000E+01
#aMCatNLO 1  0  0  2  4 0.55641353D+01 0.00000000D+00  -5  6  0 0.00000000D+00 0.00000000D+00 0.00000000D+00 0.00000000D+00 0.00000000D+00
  <mgrwgt>
 -.7210756703D-03    1    2    0
 0.664984583279605D+03 0.000000000000000D+00 0.000000000000000D+00 0.664984583279605D+03
 0.664984583279605D+03 0.000000000000000D+00 0.000000000000000D+00 -.664984583279605D+03
 0.520740469871355D+03 -.480840540255306D+03 -.154936402716590D+03 0.182406941224227D+02
 0.574570779660555D+03 0.487817742398234D+03 0.168715212135165D+03 -.252389794237829D+03
 0.234657917027301D+03 -.697720214292788D+01 -.137788094185758D+02 0.234149100115407D+03
 0.000000000000000D+00 -.000000000000000D+00 0.000000000000000D+00 -.000000000000000D+00
 0.729089091906243D+03 0.000000000000000D+00 0.000000000000000D+00 0.729089091906243D+03
 0.895081907438974D+03 0.000000000000000D+00 0.000000000000000D+00 -.895081907438974D+03
 0.498640029153201D+03 -.428847534193184D+03 -.220848246921417D+03 0.182406941224227D+02
 0.610552527833695D+03 0.548264379713617D+03 0.920866491188847D+02 -.252389794237829D+03
 0.238940061459446D+03 0.171784321761834D+02 -.444010512640985D+02 0.234149100115407D+03
 0.276038380898875D+03 -.136595277696617D+03 0.173162649066631D+03 -.165992815532731D+03
-.200016529492D-04 0.000000000000D+00 0.000000000000D+00 0.664213178208D-06 0.000000000000D+00  6 2 2 25 2 2 21 2 0.92056799D-01 0.11369479D+00 0.27669444D+06 0.27669444D+06 0.27669444D+06 0.10871599D+01  1  2 14  2  6  2        2 -.721075670292D-03 0.100000000000D+01
  </mgrwgt>
  </event>
  <event>
  5     66 0.18411016E-05 0.12083805E+02 0.75467711E-02 0.92104596E-01
        2 -1    0    0  502    0 0.00000000E+00 0.00000000E+00 0.67467968E+03 0.67467976E+03 0.32000000E+00 0.0000E+00 0.9000E+01
        2 -1    0    0  501    0 -.00000000E+00 -.00000000E+00 -.12787975E+04 0.12787976E+04 0.32000000E+00 0.0000E+00 0.9000E+01
       25  1    1    2    0    0 -.22642464E+02 -.45805847E+03 0.21424733E+03 0.52139923E+03 0.12500000E+03 0.0000E+00 0.9000E+01
        2  1    1    2  501    0 0.12917962E+02 0.45087488E+03 -.10798729E+04 0.11702908E+04 0.32000000E+00 0.0000E+00 0.9000E+01
        2  1    1    2  502    0 0.97245017E+01 0.71835896E+01 0.26150773E+03 0.26178726E+03 0.32000000E+00 0.0000E+00 0.9000E+01
#aMCatNLO 1  0  0  5  1 0.32074099D-01 0.00000000D+00  -5  6  0 0.00000000D+00 0.00000000D+00 0.00000000D+00 0.00000000D+00 0.00000000D+00
  <mgrwgt>
 0.1907959148D-02    4    2    0
 0.928858879967332D+03 0.000000000000000D+00 0.000000000000000D+00 0.928858879967332D+03
 0.928858879967332D+03 -.000000000000000D+00 -.000000000000000D+00 -.928858879967332D+03
 0.618109786607475D+03 -.226403050786779D+02 -.458130534297600D+03 0.395017136881527D+03
 0.879472749690938D+03 0.129208458004194D+02 0.450950669599146D+03 -.754949576316739D+03
 0.360135223636250D+03 0.971945927825909D+01 0.717986469845371D+01 0.359932439435212D+03
 0.000000000000000D+00 0.000000000000000D+00 0.000000000000000D+00 -.000000000000000D+00
 0.928858879967332D+03 0.000000000000000D+00 0.000000000000000D+00 0.928858879967332D+03
 0.928858879967332D+03 -.000000000000000D+00 -.000000000000000D+00 -.928858879967332D+03
 0.702006004073079D+03 -.192968160369260D+02 -.455660664497925D+03 0.518833712739253D+03
 0.753994607907573D+03 0.170579678989093D+02 0.454006804313819D+03 -.601743064872049D+03
 0.177476452406192D+03 -.114592631402451D+02 -.163439380259125D+03 -.682212974626194D+02
 0.224240695547821D+03 0.136981112782624D+02 0.165093240443231D+03 0.151130649595416D+03
0.207874116440D-03 0.000000000000D+00 0.000000000000D+00 0.135893520636D-04 0.000000000000D+00  6 2 2 25 2 2 21 0 0.10379688D+00 0.19673809D+00 0.22025956D+06 0.22025956D+06 0.22025956D+06 0.10946214D+01  1  2  2  3  6  5        2 0.254229439806D-02 0.100000000000D+01
0.160121178338D-03 0.000000000000D+00 -.798291341641D-06 0.135893520636D-04 0.000000000000D+00  6 2 2 25 2 2 21 2 0.10379688D+00 0.19673809D+00 0.22025956D+06 0.22025956D+06 0.22025956D+06 0.10946214D+01  1  2  3  3  6  5        2 0.234640018529D-02 0.100000000000D+01
-.153890997021D-03 0.000000000000D+00 0.000000000000D+00 0.135893520636D-04 0.000000000000D+00  6 2 2 25 2 2 21 2 0.10379688D+00 0.19673809D+00 0.22025956D+06 0.22025956D+06 0.22025956D+06 0.10946214D+01  1  2 15  3  6  5        2 -.225510371379D-02 0.100000000000D+01
-.495179837956D-04 0.000000000000D+00 0.000000000000D+00 0.135893520636D-04 0.000000000000D+00  6 2 2 25 2 2 21 2 0.10379688D+00 0.19673809D+00 0.22025956D+06 0.22025956D+06 0.22025956D+06 0.10946214D+01  1  2  4  3  6  5        2 -.725631721922D-03 0.100000000000D+01
  </mgrwgt>
  </event>
  <event>
  6     66 0.18411016E-05 0.18683739E+02 0.75467711E-02 0.90975695E-01
        2 -1    0    0  503    0 0.00000000E+00 0.00000000E+00 0.24465307E+04 0.24465307E+04 0.32000000E+00 0.0000E+00 0.9000E+01
        2 -1    0    0  501    0 0.00000000E+00 0.00000000E+00 -.11535468E+04 0.11535468E+04 0.32000000E+00 0.0000E+00 0.9000E+01
       25  1    1    2    0    0 0.67927413E+03 0.49130853E+02 -.14768549E+03 0.70799943E+03 0.12500000E+03 0.0000E+00 0.9000E+01
        2  1    1    2  501    0 -.70508203E+01 0.27872300E+02 -.65016453E+03 0.65079997E+03 0.32000000E+00 0.0000E+00 0.9000E+01
        2  1    1    2  502    0 -.63990430E+03 -.70043474E+02 0.13087553E+04 0.14585006E+04 0.32000000E+00 0.0000E+00 0.9000E+01
       21  1    1    2  503  502 -.32319007E+02 -.69596780E+01 0.78207864E+03 0.78277744E+03 0.75000000E+00 0.0000E+00 0.9000E+01
#aMCatNLO 2  0  0  1  5 0.33059875D+02 0.00000000D+00  -5  6  0 0.00000000D+00 0.00000000D+00 0.00000000D+00 0.00000000D+00 0.00000000D+00
  <mgrwgt>
 0.5570582169D-02    1    2    0
 0.138519514299258D+04 0.000000000000000D+00 0.000000000000000D+00 0.138519514299258D+04
 0.138519514299258D+04 0.000000000000000D+00 0.000000000000000D+00 -.138519514299258D+04
 0.739143486504113D+03 0.670596686253214D+03 0.472611639678483D+02 -.280668060897686D+03
 0.781782630550046D+03 -.161709520121797D+02 0.259103599201883D+02 -.781185787754473D+03
 0.124946416893099D+04 -.654425734241035D+03 -.731715238880366D+02 0.106185384865216D+04
 0.000000000000000D+00 -.000000000000000D+00 -.000000000000000D+00 0.000000000000000D+00
 0.203663109012854D+04 0.000000000000000D+00 0.000000000000000D+00 0.203663109012854D+04
 0.138571327210539D+04 0.000000000000000D+00 0.000000000000000D+00 -.138571327210539D+04
 0.747137933129556D+03 0.679265758992512D+03 0.491279897142560D+02 -.280668060897686D+03
 0.781714735753067D+03 -.705149978924644D+01 0.278741718196700D+02 -.781185787754473D+03
 0.124173486664473D+04 -.639895252084568D+03 -.700424835612155D+02 0.106185384865216D+04
 0.651756826706584D+03 -.323190071186980D+02 -.695967797271044D+01 0.650917818023146D+03
0.385580933130D-02 0.000000000000D+00 0.000000000000D+00 0.145344471900D-04 0.110615859411D-06  6 2 2 25 2 2 21 2 0.37638928D+00 0.17746871D+00 0.48856313D+06 0.48856313D+06 0.48856313D+06 0.10692214D+01  1  2  1  1  6  1        2 0.557058216856D-02 0.100000000000D+01
  </mgrwgt>
  </event>
  <event>
  5     66 0.18411016E-05 0.19641759E+03 0.75467711E-02 0.93696995E-01
        2 -1    0    0  502    0 0.00000000E+00 0.00000000E+00 0.15321313E+04 0.15321314E+04 0.32000000E+00 0.0000E+00 0.9000E+01
        2 -1    0    0  501    0 0.00000000E+00 0.00000000E+00 -.97092032E+03 0.97092037E+03 0.32000000E+00 0.0000E+00 0.9000E+01
       25  1    1    2    0    0 -.83376391E+02 0.51115554E+03 -.14645788E+03 0.55254549E+03 0.12500000E+03 0.0000E+00 0.9000E+01
        2  1    1    2  501    0 0.14696254E+03 -.32530777E+03 -.56197273E+03 0.66576016E+03 0.32000000E+00 0.0000E+00 0.9000E+01
        2  1    1    2  502    0 -.63586150E+02 -.18584777E+03 0.12696416E+04 0.12847461E+04 0.32000000E+00 0.0000E+00 0.9000E+01
#aMCatNLO 1  0  0  1  5 0.33059875D+02 0.00000000D+00  -5  6  0 0.00000000D+00 0.00000000D+00 0.00000000D+00 0.00000000D+00 0.00000000D+00
  <mgrwgt>
 0.2027353707D-02    5    2    0
 0.121966288720287D+04 0.000000000000000D+00 0.000000000000000D+00 0.121966288720287D+04
 0.121966288720287D+04 0.000000000000000D+00 0.000000000000000D+00 -.121966288720287D+04
 0.600677879676009D+03 -.833911886613712D+02 0.511185380622099D+03 -.277352359687005D+03
 0.812478792975087D+03 0.146975097588175D+03 -.325344164702513D+03 -.729843328541972D+03
 0.102616910175464D+04 -.635839089268034D+02 -.185841215919586D+03 0.100719568822898D+04
 0.000000000000000D+00 -.000000000000000D+00 0.000000000000000D+00 0.000000000000000D+00
 0.275596026855043D+04 0.000000000000000D+00 0.000000000000000D+00 0.275596026855043D+04
 0.240742813532078D+04 0.000000000000000D+00 0.000000000000000D+00 -.240742813532078D+04
 0.355177258014473D+03 0.629335119946154D+01 0.183199200100355D+03 -.277352359687005D+03
 0.133509529337953D+04 0.348474452623425D+03 -.106224936528847D+04 -.729843328541972D+03
 0.145586065162627D+04 0.169296249975417D+03 -.103750945167304D+04 0.100719568822898D+04
 0.201725520085093D+04 -.524064053798303D+03 0.191655961686116D+04 0.348532133229649D+03
0.104012343871D-02 0.000000000000D+00 0.000000000000D+00 0.202355241755D-05 0.000000000000D+00  6 2 2 25 2 2 21 0 0.23571252D+00 0.14937236D+00 0.29497531D+06 0.29497531D+06 0.29497531D+06 0.10850950D+01  1  2  2  1  6  1        2 0.565796485766D-02 0.100000000000D+01
0.133037028628D-03 0.000000000000D+00 -.399434787543D-05 0.202355241755D-05 0.000000000000D+00  6 2 2 25 2 2 21 2 0.23571252D+00 0.14937236D+00 0.29497531D+06 0.29497531D+06 0.29497531D+06 0.10850950D+01  1  2  3  1  6  1        2 0.852085990646D-03 0.100000000000D+01
-.716238173789D-03 0.000000000000D+00 0.000000000000D+00 0.202355241755D-05 0.000000000000D+00  6 2 2 25 2 2 21 2 0.23571252D+00 0.14937236D+00 0.29497531D+06 0.29497531D+06 0.29497531D+06 0.10850950D+01  1  2 15  1  6  1        2 -.458741840633D-02 0.100000000000D+01
0.870565414882D-03 0.000000000000D+00 -.527328365190D-03 0.202355241755D-05 0.000000000000D+00  6 2 2 25 2 2 21 2 0.64665286D+00 0.14937236D+00 0.29497531D+06 0.29497531D+06 0.29497531D+06 0.10850950D+01  1  2  5  1  6  1        2 0.104483848849D-03 0.100000000000D+01
0.128456404723D-03 0.000000000000D+00 -.595365178986D-04 0.202355241755D-05 0.000000000000D+00  6 21 2 25 2 2 -2 2 0.64665286D+00 0.14937236D+00 0.29497531D+06 0.29497531D+06 0.29497531D+06 0.10850950D+01  1  2  5  4  6  1        2 0.237415994744D-06 0.100000000000D+01
  </mgrwgt>
  </event>
  <event>
  5     66 0.18411016E-05 0.94730356E+02 0.75467711E-02 0.90391403E-01
        2 -1    0    0  502    0 0.00000000E+00 0.00000000E+00 0.25222657E+04 0.25222657E+04 0.32000000E+00 0.0000E+00 0.9000E+01
        2 -1    0    0  501    0 0.00000000E+00 0.00000000E+00 -.45162165E+03 0.45162177E+03 0.32000000E+00 0.0000E+00 0.9000E+01
       25  1    1    2    0    0 -.32952469E+03 -.46353511E+03 0.46554920E+03 0.74552826E+03 0.12500000E+03 0.0000E+00 0.9000E+01
        2  1    1    2  501    0 0.35945756E+03 0.37364576E+03 -.93739332E+02 0.52688524E+03 0.32000000E+00 0.0000E+00 0.9000E+01
        2  1    1    2  502    0 -.29932862E+02 0.89889356E+02 0.16988342E+04 0.17014740E+04 0.32000000E+00 0.0000E+00 0.9000E+01
#aMCatNLO 1  0  0  1  5 0.33059875D+02 0.00000000D+00  -5  6  0 0.00000000D+00 0.00000000D+00 0.00000000D+00 0.00000000D+00 0.00000000D+00
  <mgrwgt>
 0.6325756471D-02    7    2    0
 0.106729096943219D+04 0.000000000000000D+00 0.000000000000000D+00 0.106729096943219D+04
 0.106729096943219D+04 0.000000000000000D+00 0.000000000000000D+00 -.106729096943219D+04
 0.587114480512953D+03 -.329574297743675D+03 -.463579757783472D+03 -.745184787027744D+02
 0.825021818553107D+03 0.359503437773198D+03 0.373701579878130D+03 -.641689495406086D+03
 0.722445639798324D+03 -.299291400295234D+02 0.898781779053421D+02 0.716207974108860D+03
 0.000000000000000D+00 0.000000000000000D+00 -.000000000000000D+00 0.000000000000000D+00
 0.149671077453304D+04 0.000000000000000D+00 0.000000000000000D+00 0.149671077453304D+04
 0.109604802592301D+04 0.000000000000000D+00 0.000000000000000D+00 -.109604802592301D+04
 0.556634136953400D+03 -.345006088902610D+03 -.411866917066429D+03 -.745184787027744D+02
 0.852848898523646D+03 0.336865114891568D+03 0.449563932680959D+03 -.641689495406086D+03
 0.734624548110934D+03 -.495883575361956D+02 0.155757373202485D+03 0.716207974108860D+03
 0.448651216868069D+03 0.577293315472383D+02 -.193454388817015D+03 0.400662748610029D+03
0.381504759346D-03 0.000000000000D+00 0.000000000000D+00 0.184761075394D-05 0.000000000000D+00  6 2 2 25 2 2 21 0 0.38804089D+00 0.69480265D-01 0.35739354D+06 0.35739354D+06 0.35739354D+06 0.10789716D+01  1  2  2  1  6  1        2 0.147797659017D-02 0.100000000000D+01
0.103876021922D-03 0.000000000000D+00 -.146507872840D-05 0.184761075394D-05 0.000000000000D+00  6 2 2 25 2 2 21 2 0.38804089D+00 0.69480265D-01 0.35739354D+06 0.35739354D+06 0.35739354D+06 0.10789716D+01  1  2  3  1  6  1        2 0.468492800466D-03 0.100000000000D+01
-.287927941993D-03 0.000000000000D+00 0.000000000000D+00 0.184761075394D-05 0.000000000000D+00  6 2 2 25 2 2 21 2 0.38804089D+00 0.69480265D-01 0.35739354D+06 0.35739354D+06 0.35739354D+06 0.10789716D+01  1  2 15  1  6  1        2 -.129858811861D-02 0.100000000000D+01
-.370516310485D-04 0.000000000000D+00 0.000000000000D+00 0.184761075394D-05 0.000000000000D+00  6 2 2 25 2 2 21 2 0.38804089D+00 0.69480265D-01 0.35739354D+06 0.35739354D+06 0.35739354D+06 0.10789716D+01  1  2  4  1  6  1        2 -.167107115488D-03 0.100000000000D+01
-.166182689687D-02 0.000000000000D+00 -.230837479439D-03 0.184761075394D-05 0.000000000000D+00  6 2 2 25 2 2 21 2 0.54708164D+00 0.69480265D-01 0.35739354D+06 0.35739354D+06 0.35739354D+06 0.10789716D+01  1  2  5  1  6  1        2 -.161935159349D-02 0.100000000000D+01
0.165547217420D-02 0.000000000000D+00 0.217858748903D-03 0.184761075394D-05 0.000000000000D+00  6 2 2 25 2 2 21 2 0.38804089D+00 0.69480265D-01 0.35739354D+06 0.35739354D+06 0.35739354D+06 0.10789716D+01  1  2  6  1  6  1        2 0.746636981888D-02 0.100000000000D+01
-.644716818279D-04 0.000000000000D+00 -.983770799650D-05 0.184761075394D-05 0.000000000000D+00  6 21 2 25 2 2 -2 2 0.54708164D+00 0.69480265D-01 0.35739354D+06 0.35739354D+06 0.35739354D+06 0.10789716D+01  1  2  5  4  6  1        2 -.203591119286D-05 0.100000000000D+01
  </mgrwgt>
  </event>
  <event>
  5     66 0.18411016E-05 0.43345179E+02 0.75467711E-02 0.91805725E-01
        2 -1    0    0  502    0 0.00000000E+00 0.00000000E+00 0.68541414E+03 0.68541421E+03 0.32000000E+00 0.0000E+00 0.9000E+01
        2 -1    0    0  501    0 -.00000000E+00 -.00000000E+00 -.17035306E+04 0.17035306E+04 0.32000000E+00 0.0000E+00 0.9000E+01
       25  1    1    2    0    0 -.53385009E+03 -.21317986E+03 -.34879166E+02 0.58930732E+03 0.12500000E+03 0.0000E+00 0.9000E+01
        2  1    1    2  501    0 0.57034851E+03 0.23658350E+03 -.13214826E+04 0.14586245E+04 0.32000000E+00 0.0000E+00 0.9000E+01
        2  1    1    2  502    0 -.36498423E+02 -.23403647E+02 0.33824530E+03 0.34101298E+03 0.32000000E+00 0.0000E+00 0.9000E+01
#aMCatNLO 1  0  0  5  1 0.52481616D+02 0.00000000D+00  -5  6  0 0.00000000D+00 0.00000000D+00 0.00000000D+00 0.00000000D+00 0.00000000D+00
  <mgrwgt>
 0.1968736401D-02    6    2    0
 0.108056655139854D+04 0.000000000000000D+00 0.000000000000000D+00 0.108056655139854D+04
 0.108056655139854D+04 -.000000000000000D+00 -.000000000000000D+00 -.108056655139854D+04
 0.635125379357991D+03 -.533937771996697D+03 -.213217871001868D+03 0.239181610131854D+03
 0.989850582373074D+03 0.570425893214985D+03 0.236614911898758D+03 -.773583776485354D+03
 0.536157141066018D+03 -.364881212182874D+02 -.233970408968895D+02 0.534402166353500D+03
 0.000000000000000D+00 0.000000000000000D+00 -.000000000000000D+00 0.000000000000000D+00
 0.108056655139854D+04 0.000000000000000D+00 0.000000000000000D+00 0.108056655139854D+04
 0.108056655139854D+04 -.000000000000000D+00 -.000000000000000D+00 -.108056655139854D+04
 0.638480800629213D+03 -.534443121257160D+03 -.213541912824782D+03 0.246582915831893D+03
 0.980353426378790D+03 0.569644143601620D+03 0.236113635673391D+03 -.762134332858784D+03
 0.468953582771051D+03 -.124246635461723D+02 0.283503544677850D+02 0.467930922178820D+03
 0.733452930180280D+02 -.227763587982871D+02 -.509220773163942D+02 0.476204948480720D+02
0.232470821339D-03 0.000000000000D+00 0.000000000000D+00 0.395737496297D-05 0.000000000000D+00  6 2 2 25 2 2 21 0 0.10544834D+00 0.26208164D+00 0.39016654D+06 0.39016654D+06 0.39016654D+06 0.10762078D+01  1  2  2  3  6  5        2 0.157968163707D-02 0.100000000000D+01
0.105339610480D-03 0.000000000000D+00 -.892749164914D-06 0.395737496297D-05 0.000000000000D+00  6 2 2 25 2 2 21 2 0.10544834D+00 0.26208164D+00 0.39016654D+06 0.39016654D+06 0.39016654D+06 0.10762078D+01  1  2  3  3  6  5        2 0.829058305949D-03 0.100000000000D+01
-.187599576813D-03 0.000000000000D+00 0.000000000000D+00 0.395737496297D-05 0.000000000000D+00  6 2 2 25 2 2 21 2 0.10544834D+00 0.26208164D+00 0.39016654D+06 0.39016654D+06 0.39016654D+06 0.10762078D+01  1  2 15  3  6  5        2 -.147647201884D-02 0.100000000000D+01
-.276208281259D-04 0.000000000000D+00 0.000000000000D+00 0.395737496297D-05 0.000000000000D+00  6 2 2 25 2 2 21 2 0.10544834D+00 0.26208164D+00 0.39016654D+06 0.39016654D+06 0.39016654D+06 0.10762078D+01  1  2  4  3  6  5        2 -.217385244454D-03 0.100000000000D+01
-.108187940502D-02 0.000000000000D+00 0.000000000000D+00 0.395737496297D-05 0.000000000000D+00  6 2 2 25 2 2 21 2 0.10544834D+00 0.26208164D+00 0.39016654D+06 0.39016654D+06 0.39016654D+06 0.10762078D+01  1  2  5  3  6  5        2 -.851475625052D-02 0.100000000000D+01
0.124119324537D-02 0.000000000000D+00 -.000000000000D+00 0.395737496297D-05 0.000000000000D+00  6 2 2 25 2 2 21 2 0.10544834D+00 0.26208164D+00 0.39016654D+06 0.39016654D+06 0.39016654D+06 0.10762078D+01  1  2  6  3  6  5        2 0.976860997175D-02 0.100000000000D+01
  </mgrwgt>
  </event>
  <event>
  5     66 0.18411016E-05 0.18320712E+03 0.75467711E-02 0.94095346E-01
        2 -1    0    0  502    0 0.00000000E+00 0.00000000E+00 0.20625467E+03 0.20625492E+03 0.32000000E+00 0.0000E+00 0.9000E+01
        2 -1    0    0  501    0 0.00000000E+00 0.00000000E+00 -.21272069E+04 0.21272069E+04 0.32000000E+00 0.0000E+00 0.9000E+01
       25  1    1    2    0    0 -.45770011E+03 -.27867234E+02 -.69874074E+03 0.84506189E+03 0.12500000E+03 0.0000E+00 0.9000E+01
        2  1    1    2  501    0 0.34811132E+03 0.17476682E+03 -.12442595E+04 0.13038047E+04 0.32000000E+00 0.0000E+00 0.9000E+01
        2  1    1    2  502    0 0.10958879E+03 -.14689959E+03 0.22048001E+02 0.18459526E+03 0.32000000E+00 0.0000E+00 0.9000E+01
#aMCatNLO 1  0  0  1  5 0.50779940D+01 0.00000000D+00  -5  6  0 0.00000000D+00 0.00000000D+00 0.00000000D+00 0.00000000D+00 0.00000000D+00
  <mgrwgt>
 0.5780987183D-02    1    2    0
 0.662379560889505D+03 0.000000000000000D+00 0.000000000000000D+00 0.662379560889505D+03
 0.662379560889505D+03 0.000000000000000D+00 0.000000000000000D+00 -.662379560889505D+03
 0.475366567304448D+03 -.457755419408319D+03 -.279345987605569D+02 -.529221175080212D+01
 0.492401241035436D+03 0.348206348772473D+03 0.174780951260170D+03 -.301102872660442D+03
 0.356991313439125D+03 0.109549070635846D+03 -.146846352499613D+03 0.306395084411245D+03
 0.000000000000000D+00 -.000000000000000D+00 -.000000000000000D+00 -.000000000000000D+00
 0.147381471564539D+04 0.000000000000000D+00 0.000000000000000D+00 0.147381471564539D+04
 0.162357259362543D+04 0.000000000000000D+00 0.000000000000000D+00 -.162357259362543D+04
 0.255408216306171D+03 -.197047429410897D+03 0.103695033699991D+03 -.529221175080212D+01
 0.105019684549396D+04 0.898536841193015D+03 0.452638950356647D+03 -.301102872660442D+03
 0.522769358546086D+03 0.423408609328216D+03 0.116191234634450D+02 0.306395084411245D+03
 0.126901288892460D+04 -.112489802111033D+04 -.567953107520083D+03 -.149757877980039D+03
0.309584791261D-03 0.000000000000D+00 0.000000000000D+00 0.342587325058D-07 0.000000000000D+00  6 2 2 25 2 2 21 2 0.31731509D-01 0.32726262D+00 0.27465688D+06 0.27465688D+06 0.27465688D+06 0.10873992D+01  1  2 14  1  6  1        2 0.578098718312D-02 0.100000000000D+01
  </mgrwgt>
  </event>
  <event>
  5     66 0.18411016E-05 0.59520549E+02 0.75467711E-02 0.93555394E-01
        2 -1    0    0  502    0 0.00000000E+00 0.00000000E+00 0.19273424E+03 0.19273450E+03 0.32000000E+00 0.0000E+00 0.9000E+01
        2 -1    0    0  501    0 0.00000000E+00 0.00000000E+00 -.19646406E+04 0.19646407E+04 0.32000000E+00 0.0000E+00 0.9000E+01
       25  1    1    2    0    0 0.16275796E+03 -.50634130E+03 -.87964487E+03 0.10355056E+04 0.12500000E+03 0.0000E+00 0.9000E+01
        2  1    1    2  501    0 -.10845979E+03 0.48178008E+03 -.92882855E+03 0.10519497E+04 0.32000000E+00 0.0000E+00 0.9000E+01
        2  1    1    2  502    0 -.54298167E+02 0.24561223E+02 0.36567025E+02 0.69919914E+02 0.32000000E+00 0.0000E+00 0.9000E+01
#aMCatNLO 1  0  0  2  1 0.23409623D+00 0.00000000D+00  -5  6  0 0.00000000D+00 0.00000000D+00 0.00000000D+00 0.00000000D+00 0.00000000D+00
  <mgrwgt>
 0.3465705475D-02    9    2    0
 0.615348543486996D+03 0.000000000000000D+00 0.000000000000000D+00 0.615348543486996D+03
 0.615348543486996D+03 0.000000000000000D+00 0.000000000000000D+00 -.615348543486996D+03
 0.548819560623721D+03 0.162753842000875D+03 -.506450104439538D+03 -.509645832941785D+02
 0.506881038995684D+03 -.108523360789126D+03 0.481919498225578D+03 -.113598701957307D+03
 0.174996487354587D+03 -.542304812117497D+02 0.245306062139601D+02 0.164563285251485D+03
 0.000000000000000D+00 -.000000000000000D+00 -.000000000000000D+00 -.000000000000000D+00
 0.615415328592932D+03 0.000000000000000D+00 0.000000000000000D+00 0.615415328592932D+03
 0.615553728295146D+03 0.000000000000000D+00 0.000000000000000D+00 -.615553728295146D+03
 0.548785335215030D+03 0.162836558981987D+03 -.506386424043565D+03 -.509645832941785D+02
 0.506920610853295D+03 -.108446959333339D+03 0.481978316558791D+03 -.113598701957307D+03
 0.174991163169896D+03 -.542041056717103D+02 0.245509116556135D+02 0.164563285251485D+03
 0.271947649855755D+00 -.185493976937660D+00 -.142804170839038D+00 -.138399702213893D+00
0.195984176399D-04 0.000000000000D+00 0.000000000000D+00 0.387555699299D-07 0.000000000000D+00  6 2 2 25 2 2 21 0 0.29651444D-01 0.30225243D+00 0.30247592D+06 0.30247592D+06 0.30247592D+06 0.10842879D+01  1  2  2  2  6  2        2 0.409295880328D-03 0.100000000000D+01
0.393365190103D-05 0.000000000000D+00 -.752630841192D-07 0.387555699299D-07 0.000000000000D+00  6 2 2 25 2 2 21 2 0.29651444D-01 0.30225243D+00 0.30247592D+06 0.30247592D+06 0.30247592D+06 0.10842879D+01  1  2  3  2  6  2        2 0.965831781924D-04 0.100000000000D+01
-.165402523694D-04 0.000000000000D+00 0.000000000000D+00 0.387555699299D-07 0.000000000000D+00  6 2 2 25 2 2 21 2 0.29651444D-01 0.30225243D+00 0.30247592D+06 0.30247592D+06 0.30247592D+06 0.10842879D+01  1  2 15  2  6  2        2 -.406113754377D-03 0.100000000000D+01
-.393959987061D-02 0.000000000000D+00 0.000000000000D+00 0.387555699299D-07 0.000000000000D+00  6 2 2 25 2 2 21 2 0.29651444D-01 0.30225243D+00 0.30247592D+06 0.30247592D+06 0.30247592D+06 0.10842879D+01  1  2  4  2  6  2        2 -.967292190268D-01 0.100000000000D+01
-.151230477089D+00 0.000000000000D+00 -.896506592348D-02 0.387555699299D-07 0.000000000000D+00  6 2 2 25 2 2 21 2 0.29651444D-01 0.30236731D+00 0.30247592D+06 0.30247592D+06 0.30247592D+06 0.10842879D+01  1  2  5  2  6  2        2 -.370967579752D+01 0.100000000000D+01
0.151233873595D+00 0.000000000000D+00 0.896506527618D-02 0.387555699299D-07 0.000000000000D+00  6 2 2 25 2 2 21 2 0.29651444D-01 0.30225243D+00 0.30247592D+06 0.30247592D+06 0.30247592D+06 0.10842879D+01  1  2  6  2  6  2        2 0.371325387441D+01 0.100000000000D+01
0.393676421310D-02 0.000000000000D+00 0.000000000000D+00 0.387555699299D-07 0.215124767248D-05  6 2 2 25 2 2 21 2 0.29654662D-01 0.30235321D+00 0.30259950D+06 0.30259950D+06 0.30259950D+06 0.10842748D+01  1  2 11  2  6  2        2 0.965638153100D-01 0.100000000000D+01
-.107687135323D-04 0.000000000000D+00 -.638406879487D-06 0.387555699299D-07 0.000000000000D+00  6 2 21 25 2 2 -2 2 0.29651444D-01 0.30236731D+00 0.30247592D+06 0.30247592D+06 0.30247592D+06 0.10842879D+01  1  2  5  5  6  2        2 -.543661359258D-04 0.100000000000D+01
0.151191085956D-05 0.000000000000D+00 0.000000000000D+00 0.387555699299D-07 0.277101876366D-09  6 2 21 25 2 2 -2 2 0.29654662D-01 0.30235321D+00 0.30259950D+06 0.30259950D+06 0.30259950D+06 0.10842748D+01  1  2 11  5  6  2        2 0.763313124490D-05 0.100000000000D+01
  </mgrwgt>
  </event>
  <event>
  5     66 0.18411016E-05 0.62729540E+02 0.75467711E-02 0.93458622E-01
        2 -1    0    0  502    0 0.00000000E+00 0.00000000E+00 0.20232566E+04 0.20232567E+04 0.32000000E+00 0.0000E+00 0.9000E+01
        2 -1    0    0  501    0 0.00000000E+00 0.00000000E+00 -.81137783E+03 0.81137789E+03 0.32000000E+00 0.0000E+00 0.9000E+01
       25  1    1    2    0    0 -.49567726E+03 0.75565198E+01 0.88424533E+02 0.51884193E+03 0.12500000E+03 0.0000E+00 0.9000E+01
        2  1    1    2  501    0 -.36366651E+02 -.51107088E+02 -.55292436E+03 0.55647095E+03 0.32000000E+00 0.0000E+00 0.9000E+01
        2  1    1    2  502    0 0.53204391E+03 0.43550568E+02 0.16763786E+04 0.17593217E+04 0.32000000E+00 0.0000E+00 0.9000E+01
#aMCatNLO 1  0  0  5  1 0.50940517D+01 0.00000000D+00  -5  6  0 0.00000000D+00 0.00000000D+00 0.00000000D+00 0.00000000D+00 0.00000000D+00
  <mgrwgt>
 0.9379018894D-02    7    2    0
 0.128125941899829D+04 0.000000000000000D+00 0.000000000000000D+00 0.128125941899829D+04
 0.128125941899829D+04 -.000000000000000D+00 -.000000000000000D+00 -.128125941899829D+04
 0.532094622411798D+03 -.495667127418826D+03 0.756074304133960D+01 -.147501258166112D+03
 0.877097174599500D+03 -.363688773807136D+02 -.511106642147462D+02 -.874851106447274D+03
 0.115332704098527D+04 0.532036004799539D+03 0.435499211734066D+02 0.102235236461339D+04
 0.000000000000000D+00 0.000000000000000D+00 0.000000000000000D+00 0.000000000000000D+00
 0.128125941899829D+04 0.000000000000000D+00 0.000000000000000D+00 0.128125941899829D+04
 0.128125941899829D+04 -.000000000000000D+00 -.000000000000000D+00 -.128125941899829D+04
 0.531728604153766D+03 -.495416850690939D+03 0.758122949652815D+01 -.147020330179557D+03
 0.876287552929569D+03 -.359563733279963D+02 -.510768986071228D+02 -.874058444879441D+03
 0.114821396576998D+04 0.528607682747107D+03 0.483262579728296D+02 0.101815215057490D+04
 0.628871514325725D+01 0.276554127182771D+01 -.483058886223491D+01 0.292662448409470D+01
0.173901517384D-02 0.000000000000D+00 0.000000000000D+00 0.157157795418D-04 0.000000000000D+00  6 2 2 25 2 2 21 0 0.31127026D+00 0.12482737D+00 0.30679782D+06 0.30679782D+06 0.30679782D+06 0.10838327D+01  1  2  2  3  6  5        2 0.648168009988D-02 0.100000000000D+01
0.664527190006D-03 0.000000000000D+00 -.667827616077D-05 0.157157795418D-04 0.000000000000D+00  6 2 2 25 2 2 21 2 0.31127026D+00 0.12482737D+00 0.30679782D+06 0.30679782D+06 0.30679782D+06 0.10838327D+01  1  2  3  3  6  5        2 0.290952063616D-02 0.100000000000D+01
-.122036998468D-02 0.000000000000D+00 0.000000000000D+00 0.157157795418D-04 0.000000000000D+00  6 2 2 25 2 2 21 2 0.31127026D+00 0.12482737D+00 0.30679782D+06 0.30679782D+06 0.30679782D+06 0.10838327D+01  1  2 15  3  6  5        2 -.534318491036D-02 0.100000000000D+01
-.132024237732D-01 0.000000000000D+00 0.000000000000D+00 0.157157795418D-04 0.000000000000D+00  6 2 2 25 2 2 21 2 0.31127026D+00 0.12482737D+00 0.30679782D+06 0.30679782D+06 0.30679782D+06 0.10838327D+01  1  2  4  3  6  5        2 -.578045939926D-01 0.100000000000D+01
-.214060025174D+00 0.000000000000D+00 0.000000000000D+00 0.157157795418D-04 0.000000000000D+00  6 2 2 25 2 2 21 2 0.31127026D+00 0.12482737D+00 0.30679782D+06 0.30679782D+06 0.30679782D+06 0.10838327D+01  1  2  5  3  6  5        2 -.937225850176D+00 0.100000000000D+01
0.215230406610D+00 0.000000000000D+00 -.000000000000D+00 0.157157795418D-04 0.000000000000D+00  6 2 2 25 2 2 21 2 0.31127026D+00 0.12482737D+00 0.30679782D+06 0.30679782D+06 0.30679782D+06 0.10838327D+01  1  2  6  3  6  5        2 0.942350168628D+00 0.100000000000D+01
0.132556576117D-01 0.000000000000D+00 0.000000000000D+00 0.157157795418D-04 0.635324617883D-06  6 2 2 25 2 2 21 2 0.31127026D+00 0.12482737D+00 0.30793696D+06 0.30793696D+06 0.30793696D+06 0.10837138D+01  1  2 11  3  6  5        2 0.580112786091D-01 0.100000000000D+01
  </mgrwgt>
  </event>
  <event>
  5     66 0.18411016E-05 0.17084984E+03 0.75467711E-02 0.89049130E-01
        2 -1    0    0  502    0 0.00000000E+00 0.00000000E+00 0.19642493E+04 0.19642494E+04 0.32000000E+00 0.0000E+00 0.9000E+01
        2 -1    0    0  501    0 0.00000000E+00 0.00000000E+00 -.86426629E+03 0.86426635E+03 0.32000000E+00 0.0000E+00 0.9000E+01
       25  1    1    2    0    0 0.64675113E+03 0.10367149E+02 -.83963714E+02 0.66413057E+03 0.12500000E+03 0.0000E+00 0.9000E+01
        2  1    1    2  501    0 -.52069879E+03 -.12570896E+03 -.33766912E+03 0.63320653E+03 0.32000000E+00 0.0000E+00 0.9000E+01
        2  1    1    2  502    0 -.12605235E+03 0.11534181E+03 0.15216159E+04 0.15311786E+04 0.32000000E+00 0.0000E+00 0.9000E+01
#aMCatNLO 1  0  0  1  1 0.12032319D+03 0.00000000D+00  -5  6  0 0.00000000D+00 0.00000000D+00 0.00000000D+00 0.00000000D+00 0.00000000D+00
  <mgrwgt>
 0.1990146206D-02    7    2    0
 0.130293307409552D+04 0.000000000000000D+00 0.000000000000000D+00 0.130293307409552D+04
 0.130293307409552D+04 0.000000000000000D+00 0.000000000000000D+00 -.130293307409552D+04
 0.756335299062416D+03 0.646804251090175D+03 0.103804074908210D+02 -.371422390978030D+03
 0.829884220769970D+03 -.520758940637130D+03 -.125715779120887D+03 -.633808716025192D+03
 0.101964662835865D+04 -.126045310453045D+03 0.115335371630066D+03 0.100523110700322D+04
 0.000000000000000D+00 0.000000000000000D+00 -.000000000000000D+00 0.000000000000000D+00
 0.183501047158252D+04 0.000000000000000D+00 0.000000000000000D+00 0.183501047158252D+04
 0.133303765416173D+04 0.000000000000000D+00 0.000000000000000D+00 -.133303765416173D+04
 0.708399249553953D+03 0.588862041009028D+03 0.386186600939295D+02 -.371422390978030D+03
 0.869528414141921D+03 -.587984585037774D+03 -.929532261334615D+02 -.633808716025192D+03
 0.103805068353905D+04 -.207444039009025D+03 0.155005205682245D+03 0.100523110700322D+04
 0.552069778509324D+03 0.206566583037771D+03 -.100670639642713D+03 0.501972817420785D+03
0.128846624296D-03 0.000000000000D+00 0.000000000000D+00 0.504523826669D-06 0.000000000000D+00  6 2 2 25 2 2 21 0 0.30219221D+00 0.13296405D+00 0.46609450D+06 0.46609450D+06 0.46609450D+06 0.10706724D+01  1  2  2  1  6  1        2 0.463712078535D-03 0.100000000000D+01
0.229669699431D-04 0.000000000000D+00 -.494804963392D-06 0.504523826669D-06 0.000000000000D+00  6 2 2 25 2 2 21 2 0.30219221D+00 0.13296405D+00 0.46609450D+06 0.46609450D+06 0.46609450D+06 0.10706724D+01  1  2  3  1  6  1        2 0.947528474177D-04 0.100000000000D+01
-.919569845997D-04 0.000000000000D+00 0.000000000000D+00 0.504523826669D-06 0.000000000000D+00  6 2 2 25 2 2 21 2 0.30219221D+00 0.13296405D+00 0.46609450D+06 0.46609450D+06 0.46609450D+06 0.10706724D+01  1  2 15  1  6  1        2 -.379379001774D-03 0.100000000000D+01
-.299319482101D-04 0.000000000000D+00 0.000000000000D+00 0.504523826669D-06 0.000000000000D+00  6 2 2 25 2 2 21 2 0.30219221D+00 0.13296405D+00 0.46609450D+06 0.46609450D+06 0.46609450D+06 0.10706724D+01  1  2  4  1  6  1        2 -.123487657653D-03 0.100000000000D+01
-.721597886581D-03 0.000000000000D+00 -.880178494496D-04 0.504523826669D-06 0.000000000000D+00  6 2 2 25 2 2 21 2 0.42808352D+00 0.13296405D+00 0.46609450D+06 0.46609450D+06 0.46609450D+06 0.10706724D+01  1  2  5  1  6  1        2 -.100621894480D-02 0.100000000000D+01
0.713617508895D-03 0.000000000000D+00 0.829374217741D-04 0.504523826669D-06 0.000000000000D+00  6 2 2 25 2 2 21 2 0.30219221D+00 0.13296405D+00 0.46609450D+06 0.46609450D+06 0.46609450D+06 0.10706724D+01  1  2  6  1  6  1        2 0.294411022013D-02 0.100000000000D+01
-.285887938180D-04 0.000000000000D+00 -.378857121740D-05 0.504523826669D-06 0.000000000000D+00  6 21 2 25 2 2 -2 2 0.42808352D+00 0.13296405D+00 0.46609450D+06 0.46609450D+06 0.46609450D+06 0.10706724D+01  1  2  5  4  6  1        2 -.334333588123D-05 0.100000000000D+01
  </mgrwgt>
  </event>
  <event>
  5     66 0.18411016E-05 0.16834521E+03 0.75467711E-02 0.88194383E-01
        2 -1    0    0  502    0 0.00000000E+00 0.00000000E+00 0.43429061E+04 0.43429061E+04 0.32000000E+00 0.0000E+00 0.9000E+01
        2 -1    0    0  501    0 0.00000000E+00 0.00000000E+00 -.36832551E+03 0.36832565E+03 0.32000000E+00 0.0000E+00 0.9000E+01
       25  1    1    2    0    0 0.13144565E+03 0.81441176E+03 0.79616979E+03 0.11532805E+04 0.12500000E+03 0.0000E+00 0.9000E+01
        2  1    1    2  501    0 0.70823631E+02 -.15270304E+03 -.10766631E+03 0.19981577E+03 0.32000000E+00 0.0000E+00 0.9000E+01
        2  1    1    2  502    0 -.20226928E+03 -.66170872E+03 0.32860771E+04 0.33581356E+04 0.32000000E+00 0.0000E+00 0.9000E+01
#aMCatNLO 1  0  0  5  1 0.19525384D+02 0.00000000D+00  -5  6  0 0.00000000D+00 0.00000000D+00 0.00000000D+00 0.00000000D+00 0.00000000D+00
  <mgrwgt>
 0.7823416793D-04    6    2    0
 0.126475430630013D+04 0.000000000000000D+00 0.000000000000000D+00 0.126475430630013D+04
 0.126475430630013D+04 -.000000000000000D+00 -.000000000000000D+00 -.126475430630013D+04
 0.896951811240152D+03 0.131434971369508D+03 0.814410775398740D+03 -.329176987200670D+03
 0.541395611429178D+03 0.708288389706102D+02 -.152719958048809D+03 -.514557186383029D+03
 0.109116118993093D+04 -.202263810340118D+03 -.661690817349931D+03 0.843734173583699D+03
 0.000000000000000D+00 0.000000000000000D+00 0.000000000000000D+00 0.000000000000000D+00
 0.126475430630013D+04 0.000000000000000D+00 0.000000000000000D+00 0.126475430630013D+04
 0.126475430630013D+04 -.000000000000000D+00 -.000000000000000D+00 -.126475430630013D+04
 0.822799535118250D+03 0.115222786085465D+03 0.761373832637760D+03 -.261548602619091D+03
 0.511734308788473D+03 0.609009285021052D+02 -.185198369196287D+03 -.473143364896766D+03
 0.674986780362979D+03 0.703784147112462D+02 -.610963592803245D+03 0.278168151801142D+03
 0.519987988330561D+03 -.246502129298817D+03 0.347881293617720D+02 0.456523815714714D+03
0.602109306707D-03 0.000000000000D+00 0.000000000000D+00 0.768142878529D-07 0.000000000000D+00  6 2 2 25 2 2 21 0 0.66813942D+00 0.56665474D-01 0.71793811D+06 0.71793811D+06 0.71793811D+06 0.10575803D+01  1  2  2  3  6  5        2 0.134486454021D-03 0.100000000000D+01
0.850267167258D-04 0.000000000000D+00 -.231225827678D-05 0.768142878529D-07 0.000000000000D+00  6 2 2 25 2 2 21 2 0.66813942D+00 0.56665474D-01 0.71793811D+06 0.71793811D+06 0.71793811D+06 0.10575803D+01  1  2  3  3  6  5        2 0.212415046867D-04 0.100000000000D+01
-.413291652704D-03 0.000000000000D+00 0.000000000000D+00 0.768142878529D-07 0.000000000000D+00  6 2 2 25 2 2 21 2 0.66813942D+00 0.56665474D-01 0.71793811D+06 0.71793811D+06 0.71793811D+06 0.10575803D+01  1  2 15  3  6  5        2 -.103249154101D-03 0.100000000000D+01
-.695044079196D-04 0.000000000000D+00 0.000000000000D+00 0.768142878529D-07 0.000000000000D+00  6 2 2 25 2 2 21 2 0.66813942D+00 0.56665474D-01 0.71793811D+06 0.71793811D+06 0.71793811D+06 0.10575803D+01  1  2  4  3  6  5        2 -.173636977108D-04 0.100000000000D+01
-.302884142423D-03 0.000000000000D+00 0.000000000000D+00 0.768142878529D-07 0.000000000000D+00  6 2 2 25 2 2 21 2 0.66813942D+00 0.56665474D-01 0.71793811D+06 0.71793811D+06 0.71793811D+06 0.10575803D+01  1  2  5  3  6  5        2 -.756669806686D-04 0.100000000000D+01
0.475483600039D-03 0.000000000000D+00 -.000000000000D+00 0.768142878529D-07 0.000000000000D+00  6 2 2 25 2 2 21 2 0.66813942D+00 0.56665474D-01 0.71793811D+06 0.71793811D+06 0.71793811D+06 0.10575803D+01  1  2  6  3  6  5        2 0.118786041701D-03 0.100000000000D+01
  </mgrwgt>
  </event>
  <event>
  6     66 -.18411016E-05 0.99023973E+02 0.75467711E-02 0.95093571E-01
        2 -1    0    0  502    0 0.00000000E+00 0.00000000E+00 0.22180102E+04 0.22180102E+04 0.32000000E+00 0.0000E+00 0.9000E+01
        2 -1    0    0  503    0 0.00000000E+00 0.00000000E+00 -.21119049E+04 0.21119050E+04 0.32000000E+00 0.0000E+00 0.9000E+01
       25  1    1    2    0    0 0.43420534E+03 0.11755216E+03 0.49658526E+03 0.68159717E+03 0.12500000E+03 0.0000E+00 0.9000E+01
        2  1    1    2  501    0 -.39317783E+03 -.29054134E+02 -.15341490E+04 0.15839969E+04 0.32000000E+00 0.0000E+00 0.9000E+01
        2  1    1    2  502    0 -.46419487E+02 -.90776686E+02 0.16023559E+04 0.16055963E+04 0.32000000E+00 0.0000E+00 0.9000E+01
       21  1    1    2  503  501 0.53919751E+01 0.22786595E+01 -.45868685E+03 0.45872481E+03 0.75000000E+00 0.0000E+00 0.9000E+01
#aMCatNLO 2  0  0  2  4 0.58536899D+01 0.00000000D+00  -5  6  0 0.00000000D+00 0.00000000D+00 0.00000000D+00 0.00000000D+00 0.00000000D+00
  <mgrwgt>
 -.8244526251D-01    2    2    0
 0.191488188754685D+04 0.000000000000000D+00 0.000000000000000D+00 0.191488188754685D+04
 0.191488188754685D+04 0.000000000000000D+00 0.000000000000000D+00 -.191488188754685D+04
 0.616490041824756D+03 0.435100370750725D+03 0.117916131155030D+03 0.401520142776301D+03
 0.182681598055544D+04 -.390635670930957D+03 -.279696709986393D+02 -.178434248307697D+04
 0.138645775271349D+04 -.444646998197684D+02 -.899464601563907D+02 0.138282234030067D+04
 0.000000000000000D+00 0.000000000000000D+00 0.000000000000000D+00 -.000000000000000D+00
 0.191490024743079D+04 0.000000000000000D+00 0.000000000000000D+00 0.191490024743079D+04
 0.244619819188685D+04 0.000000000000000D+00 0.000000000000000D+00 -.244619819188685D+04
 0.615808019822744D+03 0.434232886881718D+03 0.117549530723342D+03 0.401520142776301D+03
 0.182738473720588D+04 -.393208068206771D+03 -.290567712727523D+02 -.178434248307697D+04
 0.138657549166539D+04 -.464167937835482D+02 -.907714190004511D+02 0.138282234030067D+04
 0.531330190623634D+03 0.539197510860114D+01 0.227865954986133D+01 -.531297944456057D+03
-.643698650968D-10 0.000000000000D+00 0.000000000000D+00 0.147520237051D-03 0.000000000000D+00  6 2 2 25 2 2 21 2 0.34122903D+00 0.32490992D+00 0.23473569D+06 0.23473569D+06 0.23473569D+06 0.10925234D+01  1  2 13  2  6  2        2 -.411003779907D-10 0.100000000000D+01
-.129252002676D+00 0.000000000000D+00 0.000000000000D+00 0.147520237051D-03 0.000000000000D+00  6 2 2 25 2 2 21 2 0.34122903D+00 0.32503132D+00 0.23473569D+06 0.23473569D+06 0.23473569D+06 0.10925234D+01  1  2 13  2  6  2        2 -.824452624695D-01 0.100000000000D+01
  </mgrwgt>
  </event>
  <event>
  5     66 0.18411016E-05 0.11568229E+03 0.75467711E-02 0.87581731E-01
        2 -1    0    0  502    0 0.00000000E+00 0.00000000E+00 0.12153645E+04 0.12153645E+04 0.32000000E+00 0.0000E+00 0.9000E+01
        2 -1    0    0  501    0 -.00000000E+00 -.00000000E+00 -.26945473E+04 0.26945473E+04 0.32000000E+00 0.0000E+00 0.9000E+01
       25  1    1    2    0    0 -.36432763E+03 -.81511562E+03 -.14367960E+04 0.16962181E+04 0.12500000E+03 0.0000E+00 0.9000E+01
        2  1    1    2  501    0 -.11491598E+03 0.13292997E+02 -.92282081E+03 0.93004341E+03 0.32000000E+00 0.0000E+00 0.9000E+01
        2  1    1    2  502    0 0.47924360E+03 0.80182262E+03 0.88043401E+03 0.12836503E+04 0.32000000E+00 0.0000E+00 0.9000E+01
#aMCatNLO 1  0  0  5  1 0.32492391D+02 0.00000000D+00  -5  6  0 0.00000000D+00 0.00000000D+00 0.00000000D+00 0.00000000D+00 0.00000000D+00
  <mgrwgt>
 0.6731504298D-03    8    2    0
 0.180965664241624D+04 0.000000000000000D+00 0.000000000000000D+00 0.180965664241624D+04
 0.180965664241624D+04 -.000000000000000D+00 -.000000000000000D+00 -.180965664241624D+04
 0.124520262768460D+04 -.364327601827165D+03 -.815115799318386D+03 -.858927363774751D+03
 0.627568854546106D+03 -.114915979106122D+03 0.132932155189001D+02 -.616814619933381D+03
 0.174654180260177D+04 0.479243580933287D+03 0.801822583799486D+03 0.147574198370813D+04
 0.000000000000000D+00 0.000000000000000D+00 0.000000000000000D+00 0.000000000000000D+00
 0.180965664241624D+04 0.000000000000000D+00 0.000000000000000D+00 0.180965664241624D+04
 0.180965664241624D+04 -.000000000000000D+00 -.000000000000000D+00 -.180965664241624D+04
 0.124213450836987D+04 -.363453879506133D+03 -.813653974232260D+03 -.856236897459608D+03
 0.626171427577186D+03 -.114475580073201D+03 0.140300472773812D+02 -.615458492551975D+03
 0.168750190255778D+04 0.461938739115315D+03 0.803248163711870D+03 0.141034310007679D+04
 0.635054463276383D+02 0.159907204640194D+02 -.362423675699052D+01 0.613522899347972D+02
0.163347291691D-03 0.000000000000D+00 0.000000000000D+00 0.357521638580D-06 0.000000000000D+00  6 2 2 25 2 2 21 0 0.18697915D+00 0.41454574D+00 0.95194079D+06 0.95194079D+06 0.95194079D+06 0.10492908D+01  1  2  2  3  6  5        2 0.128008370237D-03 0.100000000000D+01
0.338842469169D-04 0.000000000000D+00 -.627296610422D-06 0.357521638580D-06 0.000000000000D+00  6 2 2 25 2 2 21 2 0.18697915D+00 0.41454574D+00 0.95194079D+06 0.95194079D+06 0.95194079D+06 0.10492908D+01  1  2  3  3  6  5        2 0.292358681716D-04 0.100000000000D+01
-.117647372838D-03 0.000000000000D+00 0.000000000000D+00 0.357521638580D-06 0.000000000000D+00  6 2 2 25 2 2 21 2 0.18697915D+00 0.41454574D+00 0.95194079D+06 0.95194079D+06 0.95194079D+06 0.10492908D+01  1  2 15  3  6  5        2 -.101508027948D-03 0.100000000000D+01
0.111966171990D-08 0.000000000000D+00 0.000000000000D+00 0.357521638580D-06 0.000000000000D+00  6 2 2 25 2 2 21 2 0.18697915D+00 0.41454574D+00 0.95863403D+06 0.95863403D+06 0.95863403D+06 0.10490875D+01  1  2 12  3  6  5        2 0.965121202354D-09 0.100000000000D+01
0.129026090806D-02 0.000000000000D+00 0.000000000000D+00 0.357521638580D-06 0.000000000000D+00  6 2 2 25 2 2 21 2 0.18697915D+00 0.41454574D+00 0.95863403D+06 0.95863403D+06 0.95863403D+06 0.10490875D+01  1  2 12  3  6  5        2 0.111217355814D-02 0.100000000000D+01
-.872833835787D-03 0.000000000000D+00 0.000000000000D+00 0.357521638580D-06 0.000000000000D+00  6 2 2 25 2 2 21 2 0.18697915D+00 0.41454574D+00 0.95194079D+06 0.95194079D+06 0.95194079D+06 0.10492908D+01  1  2  4  3  6  5        2 -.753094941769D-03 0.100000000000D+01
-.808747786450D-02 0.000000000000D+00 0.000000000000D+00 0.357521638580D-06 0.000000000000D+00  6 2 2 25 2 2 21 2 0.18697915D+00 0.41454574D+00 0.95194079D+06 0.95194079D+06 0.95194079D+06 0.10492908D+01  1  2  5  3  6  5        2 -.697800477217D-02 0.100000000000D+01
0.838688661152D-02 0.000000000000D+00 -.000000000000D+00 0.357521638580D-06 0.000000000000D+00  6 2 2 25 2 2 21 2 0.18697915D+00 0.41454574D+00 0.95194079D+06 0.95194079D+06 0.95194079D+06 0.10492908D+01  1  2  6  3  6  5        2 0.723633941005D-02 0.100000000000D+01
  </mgrwgt>
  </event>
  <event>
  5     66 -.18411016E-05 0.20671270E+02 0.75467711E-02 0.94147152E-01
        2 -1    0    0  502    0 0.00000000E+00 0.00000000E+00 0.33710112E+03 0.33710127E+03 0.32000000E+00 0.0000E+00 0.9000E+01
        2 -1    0    0  501    0 -.00000000E+00 -.00000000E+00 -.94209712E+03 0.94209718E+03 0.32000000E+00 0.0000E+00 0.9000E+01
       25  1    1    2    0    0 -.46864697E+03 -.16975470E+03 -.22108015E+03 0.55941761E+03 0.12500000E+03 0.0000E+00 0.9000E+01
        2  1    1    2  501    0 -.16702969E+02 0.12181960E+02 -.16202236E+03 0.16333626E+03 0.32000000E+00 0.0000E+00 0.9000E+01
        2  1    1    2  502    0 0.48534993E+03 0.15757274E+03 -.22189350E+03 0.55644457E+03 0.32000000E+00 0.0000E+00 0.9000E+01
#aMCatNLO 1  0  0  5  1 0.21942661D+02 0.00000000D+00  -5  6  0 0.00000000D+00 0.00000000D+00 0.00000000D+00 0.00000000D+00 0.00000000D+00
  <mgrwgt>
 -.1101659870D-01    4    2    0
 0.563544251137144D+03 0.000000000000000D+00 0.000000000000000D+00 0.563544251137144D+03
 0.563544251137144D+03 -.000000000000000D+00 -.000000000000000D+00 -.563544251137144D+03
 0.516251854000996D+03 -.468655841278269D+03 -.169755944283192D+03 0.493517839165475D+02
 0.983954850220438D+02 -.167010812563569D+02 0.121809391509974D+02 -.961996365845083D+02
 0.512441163251248D+03 0.485356922534626D+03 0.157575005132194D+03 0.468478526679609D+02
 0.000000000000000D+00 0.000000000000000D+00 0.000000000000000D+00 0.000000000000000D+00
 0.563544251137144D+03 0.000000000000000D+00 0.000000000000000D+00 0.563544251137144D+03
 0.563544251137144D+03 -.000000000000000D+00 -.000000000000000D+00 -.563544251137144D+03
 0.514930821427512D+03 -.467341642576771D+03 -.169329279168266D+03 0.494786336312331D+02
 0.983396838548985D+02 -.164503506053889D+02 0.122623408613238D+02 -.961754354408746D+02
 0.995849706440172D+02 0.955718447846345D+02 0.143808068305777D+02 0.240079415513511D+02
 0.414233026347860D+03 0.388220148397525D+03 0.142686131476364D+03 0.226888602582905D+02
0.518290362422D-04 0.000000000000D+00 0.000000000000D+00 0.679206325887D-07 0.000000000000D+00  6 2 2 25 2 2 21 0 0.51861726D-01 0.14493803D+00 0.27292998D+06 0.27292998D+06 0.27292998D+06 0.10876035D+01  1  2  2  3  6  5        2 0.219570169242D-02 0.100000000000D+01
0.204674258419D-04 0.000000000000D+00 -.199037146069D-06 0.679206325887D-07 0.000000000000D+00  6 2 2 25 2 2 21 2 0.51861726D-01 0.14493803D+00 0.27292998D+06 0.27292998D+06 0.27292998D+06 0.10876035D+01  1  2  3  3  6  5        2 0.102566292741D-02 0.100000000000D+01
-.353673845866D-04 0.000000000000D+00 0.000000000000D+00 0.679206325887D-07 0.000000000000D+00  6 2 2 25 2 2 21 2 0.51861726D-01 0.14493803D+00 0.27292998D+06 0.27292998D+06 0.27292998D+06 0.10876035D+01  1  2 15  3  6  5        2 -.177232913851D-02 0.100000000000D+01
-.248755645142D-03 0.000000000000D+00 0.000000000000D+00 0.679206325887D-07 0.000000000000D+00  6 2 2 25 2 2 21 2 0.51861726D-01 0.14493803D+00 0.27292998D+06 0.27292998D+06 0.27292998D+06 0.10876035D+01  1  2  5  3  6  5        2 -.124656341827D-01 0.100000000000D+01
  </mgrwgt>
  </event>
  <event>
  5     66 -.18411016E-05 0.29446083E+03 0.75467711E-02 0.91689507E-01
        2 -1    0    0  502    0 0.00000000E+00 0.00000000E+00 0.18808749E+04 0.18808749E+04 0.32000000E+00 0.0000E+00 0.9000E+01
        2 -1    0    0  501    0 0.00000000E+00 0.00000000E+00 -.11499027E+04 0.11499027E+04 0.32000000E+00 0.0000E+00 0.9000E+01
       25  1    1    2    0    0 -.50802023E+02 -.57051899E+03 -.62672624E+03 0.85818619E+03 0.12500000E+03 0.0000E+00 0.9000E+01
        2  1    1    2  501    0 -.17335801E+03 0.23800089E+03 -.32746145E+03 0.44037317E+03 0.32000000E+00 0.0000E+00 0.9000E+01
        2  1    1    2  502    0 0.22416003E+03 0.33251810E+03 0.16851599E+04 0.17322182E+04 0.32000000E+00 0.0000E+00 0.9000E+01
#aMCatNLO 1  0  0  2  4 0.27151057D+02 0.00000000D+00  -5  6  0 0.00000000D+00 0.00000000D+00 0.00000000D+00 0.00000000D+00 0.00000000D+00
  <mgrwgt>
 -.3549417849D-03   11    2    0
 0.147065397904419D+04 0.000000000000000D+00 0.000000000000000D+00 0.147065397904419D+04
 0.147065397904419D+04 0.000000000000000D+00 0.000000000000000D+00 -.147065397904419D+04
 0.104003118026057D+04 -.507960126729891D+02 -.570533927997696D+03 -.859040545035119D+03
 0.535171927211208D+03 -.173362455398966D+03 0.238018146280222D+03 -.446880087690565D+03
 0.136610485061660D+04 0.224158468071956D+03 0.332515781717474D+03 0.130592063272568D+04
 0.000000000000000D+00 -.000000000000000D+00 0.000000000000000D+00 -.000000000000000D+00
 0.147126283954150D+04 0.000000000000000D+00 0.000000000000000D+00 0.147126283954150D+04
 0.180812694081209D+04 0.000000000000000D+00 0.000000000000000D+00 -.180812694081209D+04
 0.104432104484206D+04 -.457697086342640D+02 -.578736486198434D+03 -.859040545035119D+03
 0.532485214314265D+03 -.170787857239503D+03 0.233816591602310D+03 -.446880087690565D+03
 0.136462701124263D+04 0.230743482073254D+03 0.321769523595766D+03 0.130592063272568D+04
 0.337956509954638D+03 -.141859161994874D+02 0.231503710003575D+02 -.336864101270596D+03
0.110256740934D-05 0.000000000000D+00 0.000000000000D+00 0.131471033847D-06 0.000000000000D+00  6 2 2 25 2 2 21 0 0.28936537D+00 0.17690811D+00 0.41071960D+06 0.41071960D+06 0.41071960D+06 0.10746006D+01  1  2  2  2  6  2        2 0.294535127020D-05 0.100000000000D+01
0.392478598863D-07 0.000000000000D+00 -.423414916454D-08 0.131471033847D-06 0.000000000000D+00  6 2 2 25 2 2 21 2 0.28936537D+00 0.17690811D+00 0.41071960D+06 0.41071960D+06 0.41071960D+06 0.10746006D+01  1  2  3  2  6  2        2 0.121071550907D-06 0.100000000000D+01
-.750005742583D-06 0.000000000000D+00 0.000000000000D+00 0.131471033847D-06 0.000000000000D+00  6 2 2 25 2 2 21 2 0.28936537D+00 0.17690811D+00 0.41071960D+06 0.41071960D+06 0.41071960D+06 0.10746006D+01  1  2 15  2  6  2        2 -.231361298952D-05 0.100000000000D+01
0.109369563488D-08 0.000000000000D+00 0.000000000000D+00 0.131471033847D-06 0.000000000000D+00  6 2 2 25 2 2 21 2 0.28936537D+00 0.21753864D+00 0.42673602D+06 0.42673602D+06 0.42673602D+06 0.10734078D+01  1  2 12  2  6  2        2 0.236878231376D-08 0.100000000000D+01
0.300532644421D-03 0.000000000000D+00 0.000000000000D+00 0.131471033847D-06 0.000000000000D+00  6 2 2 25 2 2 21 2 0.28936537D+00 0.21883151D+00 0.42673602D+06 0.42673602D+06 0.42673602D+06 0.10734078D+01  1  2 12  2  6  2        2 0.643902887949D-03 0.100000000000D+01
-.409546929999D-03 0.000000000000D+00 0.000000000000D+00 0.131471033847D-06 0.000000000000D+00  6 2 2 25 2 2 21 2 0.28936537D+00 0.17690811D+00 0.41071960D+06 0.41071960D+06 0.41071960D+06 0.10746006D+01  1  2  4  2  6  2        2 -.126336778942D-02 0.100000000000D+01
-.312287430526D-03 0.000000000000D+00 -.123630177502D-05 0.131471033847D-06 0.000000000000D+00  6 2 2 25 2 2 21 2 0.28936537D+00 0.21753516D+00 0.41071960D+06 0.41071960D+06 0.41071960D+06 0.10746006D+01  1  2  5  2  6  2        2 -.679873358899D-03 0.100000000000D+01
0.306006693751D-03 0.000000000000D+00 0.121034606323D-05 0.131471033847D-06 0.000000000000D+00  6 2 2 25 2 2 21 2 0.28936537D+00 0.17690811D+00 0.41071960D+06 0.41071960D+06 0.41071960D+06 0.10746006D+01  1  2  6  2  6  2        2 0.943967520972D-03 0.100000000000D+01
0.321020977851D-10 0.000000000000D+00 0.000000000000D+00 0.131471033847D-06 0.000000000000D+00  6 2 21 25 2 2 -2 2 0.28936537D+00 0.21753864D+00 0.42673602D+06 0.42673602D+06 0.42673602D+06 0.10734078D+01  1  2 12  5  6  2        2 0.266226427104D-10 0.100000000000D+01
0.901277360696D-05 0.000000000000D+00 0.000000000000D+00 0.131471033847D-06 0.000000000000D+00  6 2 21 25 2 2 -2 2 0.28936537D+00 0.21883151D+00 0.42673602D+06 0.42673602D+06 0.42673602D+06 0.10734078D+01  1  2 12  5  6  2        2 0.731582629775D-05 0.100000000000D+01
-.915063465575D-05 0.000000000000D+00 -.362857259623D-07 0.131471033847D-06 0.000000000000D+00  6 2 21 25 2 2 -2 2 0.28936537D+00 0.21753516D+00 0.41071960D+06 0.41071960D+06 0.41071960D+06 0.10746006D+01  1  2  5  5  6  2        2 -.764207700325D-05 0.100000000000D+01
  </mgrwgt>
  </event>
  <event>
  5     66 0.18411016E-05 0.16946501E+02 0.75467711E-02 0.89720619E-01
        2 -1    0    0  502    0 0.00000000E+00 0.00000000E+00 0.36085897E+03 0.36085911E+03 0.32000000E+00 0.0000E+00 0.9000E+01
        2 -1    0    0  501    0 0.00000000E+00 0.00000000E+00 -.17183539E+04 0.17183539E+04 0.32000000E+00 0.0000E+00 0.9000E+01
       25  1    1    2    0    0 0.51929612E+03 0.25935314E+03 -.87637600E+03 0.10585804E+04 0.12500000E+03 0.0000E+00 0.9000E+01
        2  1    1    2  501    0 0.16777649E+02 -.23973320E+01 -.42298129E+03 0.42332081E+03 0.32000000E+00 0.0000E+00 0.9000E+01
        2  1    1    2  502    0 -.53607376E+03 -.25695581E+03 -.58137643E+02 0.59731186E+03 0.32000000E+00 0.0000E+00 0.9000E+01
#aMCatNLO 1  0  0  2  4 0.27151057D+02 0.00000000D+00  -5  6  0 0.00000000D+00 0.00000000D+00 0.00000000D+00 0.00000000D+00 0.00000000D+00
  <mgrwgt>
 0.2537709098D-02    4    2    0
 0.787453867128326D+03 0.000000000000000D+00 0.000000000000000D+00 0.787453867128326D+03
 0.787453867128326D+03 0.000000000000000D+00 0.000000000000000D+00 -.787453867128326D+03
 0.642171873282660D+03 0.519302068457834D+03 0.259355218898895D+03 -.244581166406330D+03
 0.194263111711191D+03 0.167760780425015D+02 -.239731083720591D+01 -.193522537907027D+03
 0.738472749262801D+03 -.536078146500336D+03 -.256957908061689D+03 0.438103704313357D+03
 0.000000000000000D+00 0.000000000000000D+00 -.000000000000000D+00 0.000000000000000D+00
 0.993554155530285D+03 0.000000000000000D+00 0.000000000000000D+00 0.993554155530285D+03
 0.939793707174371D+03 0.000000000000000D+00 0.000000000000000D+00 -.939793707174371D+03
 0.579355131613694D+03 0.406154807314662D+03 0.308619011179852D+03 -.244581166406330D+03
 0.194934180936310D+03 -.192743797295222D+02 0.132988911333138D+02 -.193522537907027D+03
 0.833098127582936D+03 -.681649173333719D+03 -.193576958707812D+03 0.438103704313357D+03
 0.325960422571717D+03 0.294768745748579D+03 -.128340943605354D+03 0.537604483559142D+02
0.222656856576D-03 0.000000000000D+00 0.000000000000D+00 0.815423227960D-06 0.000000000000D+00  6 2 2 25 2 2 21 0 0.55516778D-01 0.26436215D+00 0.36312599D+06 0.36312599D+06 0.36312599D+06 0.10784687D+01  1  2  2  2  6  2        2 0.311123178184D-02 0.100000000000D+01
0.131985842814D-03 0.000000000000D+00 -.855060956147D-06 0.815423227960D-06 0.000000000000D+00  6 2 2 25 2 2 21 2 0.55516778D-01 0.26436215D+00 0.36312599D+06 0.36312599D+06 0.36312599D+06 0.10784687D+01  1  2  3  2  6  2        2 0.214505651824D-02 0.100000000000D+01
-.163123602967D-03 0.000000000000D+00 0.000000000000D+00 0.815423227960D-06 0.000000000000D+00  6 2 2 25 2 2 21 2 0.55516778D-01 0.26436215D+00 0.36312599D+06 0.36312599D+06 0.36312599D+06 0.10784687D+01  1  2 15  2  6  2        2 -.265111272818D-02 0.100000000000D+01
-.415122833331D-05 0.000000000000D+00 0.000000000000D+00 0.815423227960D-06 0.000000000000D+00  6 2 2 25 2 2 21 2 0.55516778D-01 0.26436215D+00 0.36312599D+06 0.36312599D+06 0.36312599D+06 0.10784687D+01  1  2  4  2  6  2        2 -.674664737157D-04 0.100000000000D+01
  </mgrwgt>
  </event>
  <event>
  5     66 -.18411016E-05 0.54908138E+02 0.75467711E-02 0.93237602E-01
        2 -1    0    0  502    0 0.00000000E+00 0.00000000E+00 0.24696519E+04 0.24696519E+04 0.32000000E+00 0.0000E+00 0.9000E+01
        2 -1    0    0  501    0 0.00000000E+00 0.00000000E+00 -.11324956E+04 0.11324956E+04 0.32000000E+00 0.0000E+00 0.9000E+01
       25  1    1    2    0    0 0.39710682E+03 0.32623200E+03 0.30425212E+03 0.61017661E+03 0.12500000E+03 0.0000E+00 0.9000E+01
        2  1    1    2  501    0 0.53857438E+02 -.10669077E+02 -.94108371E+03 0.94268399E+03 0.32000000E+00 0.0000E+00 0.9000E+01
        2  1    1    2  502    0 -.45096426E+03 -.31556292E+03 0.19739879E+04 0.20492870E+04 0.32000000E+00 0.0000E+00 0.9000E+01
#aMCatNLO 1  0  0  5  2 0.88619705D+02 0.00000000D+00  -5  6  0 0.00000000D+00 0.00000000D+00 0.00000000D+00 0.00000000D+00 0.00000000D+00
  <mgrwgt>
 -.2498726443D-01    6    2    0
 0.167238452841054D+04 0.000000000000000D+00 0.000000000000000D+00 0.167238452841054D+04
 0.167238452841054D+04 -.000000000000000D+00 -.000000000000000D+00 -.167238452841054D+04
 0.535492477516321D+03 0.397090676205061D+03 0.326224398571665D+03 0.838082938862899D+02
 0.139148783006622D+04 0.538614459882836D+02 -.106699674434238D+02 -.139040406992112D+04
 0.141778874923855D+04 -.450952122193345D+03 -.315554431128241D+03 0.130659577603483D+04
 0.000000000000000D+00 0.000000000000000D+00 0.000000000000000D+00 0.000000000000000D+00
 0.167238452841054D+04 0.000000000000000D+00 0.000000000000000D+00 0.167238452841054D+04
 0.167238452841054D+04 -.000000000000000D+00 -.000000000000000D+00 -.167238452841054D+04
 0.535066845614504D+03 0.396490443053389D+03 0.325804384513856D+03 0.855474188665556D+02
 0.138692701209494D+04 0.523036652457046D+02 -.117600268795701D+02 -.138589053148084D+04
 0.881669104193842D+03 -.356939828548109D+03 -.221292653271574D+03 0.775218633479644D+03
 0.541106094917801D+03 -.918542797509850D+02 -.927517043627115D+02 0.525124479134645D+03
0.768651024772D-03 0.000000000000D+00 0.000000000000D+00 0.602232093220D-04 0.000000000000D+00  6 2 2 25 2 2 21 0 0.37994645D+00 0.17423010D+00 0.32159936D+06 0.32159936D+06 0.32159936D+06 0.10823250D+01  1  2  2  3  6  5        2 0.100283402362D-02 0.100000000000D+01
0.384326927911D-03 0.000000000000D+00 -.295182232559D-05 0.602232093220D-04 0.000000000000D+00  6 2 2 25 2 2 21 2 0.37994645D+00 0.17423010D+00 0.32159936D+06 0.32159936D+06 0.32159936D+06 0.10823250D+01  1  2  3  3  6  5        2 0.587375826620D-03 0.100000000000D+01
-.542210697229D-03 0.000000000000D+00 0.000000000000D+00 0.602232093220D-04 0.000000000000D+00  6 2 2 25 2 2 21 2 0.37994645D+00 0.17423010D+00 0.32159936D+06 0.32159936D+06 0.32159936D+06 0.10823250D+01  1  2 15  3  6  5        2 -.828673281411D-03 0.100000000000D+01
-.218569298562D-01 0.000000000000D+00 0.000000000000D+00 0.602232093220D-04 0.000000000000D+00  6 2 2 25 2 2 21 2 0.37994645D+00 0.17423010D+00 0.32159936D+06 0.32159936D+06 0.32159936D+06 0.10823250D+01  1  2  4  3  6  5        2 -.334044567510D-01 0.100000000000D+01
-.112109734298D-01 0.000000000000D+00 0.000000000000D+00 0.602232093220D-04 0.000000000000D+00  6 2 2 25 2 2 21 2 0.37994645D+00 0.17423010D+00 0.32159936D+06 0.32159936D+06 0.32159936D+06 0.10823250D+01  1  2  5  3  6  5        2 -.171339927215D-01 0.100000000000D+01
0.162201592387D-01 0.000000000000D+00 -.000000000000D+00 0.602232093220D-04 0.000000000000D+00  6 2 2 25 2 2 21 2 0.37994645D+00 0.17423010D+00 0.32159936D+06 0.32159936D+06 0.32159936D+06 0.10823250D+01  1  2  6  3  6  5        2 0.247896484707D-01 0.100000000000D+01
  </mgrwgt>
  </event>
  <event>
  5     66 0.18411016E-05 0.46534945E+02 0.75467711E-02 0.83301013E-01
        2 -1    0    0  502    0 0.00000000E+00 0.00000000E+00 0.11327299E+04 0.11327300E+04 0.32000000E+00 0.0000E+00 0.9000E+01
        2 -1    0    0  501    0 -.00000000E+00 -.00000000E+00 -.26849273E+04 0.26849273E+04 0.32000000E+00 0.0000E+00 0.9000E+01
       25  1    1    2    0    0 0.27097583E+03 -.15129388E+04 -.13193298E+03 0.15477219E+04 0.12500000E+03 0.0000E+00 0.9000E+01
        2  1    1    2  501    0 -.25770260E+03 0.14682654E+04 -.15388671E+04 0.21425046E+04 0.32000000E+00 0.0000E+00 0.9000E+01
        2  1    1    2  502    0 -.13273227E+02 0.44673439E+02 0.11860272E+03 0.12743077E+03 0.32000000E+00 0.0000E+00 0.9000E+01
#aMCatNLO 1  0  0  5  2 0.21076943D+02 0.00000000D+00  -5  6  0 0.00000000D+00 0.00000000D+00 0.00000000D+00 0.00000000D+00 0.00000000D+00
  <mgrwgt>
 0.2335081962D-05    5    2    0
 0.174393164902187D+04 0.000000000000000D+00 0.000000000000000D+00 0.174393164902187D+04
 0.174393164902187D+04 -.000000000000000D+00 -.000000000000000D+00 -.174393164902187D+04
 0.163551359171783D+04 0.270986087873516D+03 -.151302840973908D+04 0.544601946558371D+03
 0.166037166734987D+04 -.257732411980356D+03 0.146842077433295D+04 -.730854641539893D+03
 0.191978038976044D+03 -.132536758931600D+02 0.446076354061347D+02 0.186252694981522D+03
 0.000000000000000D+00 0.000000000000000D+00 -.000000000000000D+00 0.000000000000000D+00
 0.174393164902187D+04 0.000000000000000D+00 0.000000000000000D+00 0.174393164902187D+04
 0.174393164902187D+04 -.000000000000000D+00 -.000000000000000D+00 -.174393164902187D+04
 0.163752766829962D+04 0.269630826396804D+03 -.150846703293159D+04 0.563647312121632D+03
 0.165629177617023D+04 -.259105736005057D+03 0.147304294390177D+04 -.711555444641958D+03
 0.168394990992949D+03 -.106074928093578D+02 0.593125207745257D+02 0.157246236734575D+03
 0.256488625809450D+02 0.824024176110838D-01 -.238884317447079D+02 -.933810421425063D+01
0.821652568650D-05 0.000000000000D+00 0.000000000000D+00 0.169824674788D-07 0.000000000000D+00  6 2 2 25 2 2 21 0 0.17426615D+00 0.41306575D+00 0.23709540D+07 0.23709540D+07 0.23709540D+07 0.10237824D+01  1  2  2  3  6  5        2 0.678843850857D-05 0.100000000000D+01
0.347819725828D-05 0.000000000000D+00 -.315536220971D-07 0.169824674788D-07 0.000000000000D+00  6 2 2 25 2 2 21 2 0.17426615D+00 0.41306575D+00 0.23709540D+07 0.23709540D+07 0.23709540D+07 0.10237824D+01  1  2  3  3  6  5        2 0.301197409411D-05 0.100000000000D+01
-.647630517386D-05 0.000000000000D+00 0.000000000000D+00 0.169824674788D-07 0.000000000000D+00  6 2 2 25 2 2 21 2 0.17426615D+00 0.41306575D+00 0.23709540D+07 0.23709540D+07 0.23709540D+07 0.10237824D+01  1  2 15  3  6  5        2 -.560821079449D-05 0.100000000000D+01
0.646828474314D-10 0.000000000000D+00 0.000000000000D+00 0.169824674788D-07 0.000000000000D+00  6 2 2 25 2 2 21 2 0.17426615D+00 0.41306575D+00 0.24293347D+07 0.24293347D+07 0.24293347D+07 0.10231282D+01  1  2 12  3  6  5        2 0.558321333065D-10 0.100000000000D+01
-.214464771288D-05 0.000000000000D+00 0.000000000000D+00 0.169824674788D-07 0.000000000000D+00  6 2 2 25 2 2 21 2 0.17426615D+00 0.41306575D+00 0.23709540D+07 0.23709540D+07 0.23709540D+07 0.10237824D+01  1  2  4  3  6  5        2 -.185717567824D-05 0.100000000000D+01
  </mgrwgt>
  </event>
  <event>
  6     66 0.18411016E-05 0.74888635E+01 0.75467711E-02 0.94921534E-01
        2 -1    0    0  502    0 0.00000000E+00 0.00000000E+00 0.28832818E+04 0.28832818E+04 0.32000000E+00 0.0000E+00 0.9000E+01
        2 -1    0    0  501    0 -.00000000E+00 -.00000000E+00 -.30233973E+04 0.30233973E+04 0.32000000E+00 0.0000E+00 0.9000E+01
       25  1    1    2    0    0 -.33560134E+03 0.33993861E+03 0.18388441E+04 0.19039850E+04 0.12500000E+03 0.0000E+00 0.9000E+01
        2  1    1    2  501    0 0.71560181E+01 -.11853638E+01 -.29347826E+04 0.29347916E+04 0.32000000E+00 0.0000E+00 0.9000E+01
        2  1    1    2  503    0 0.31522351E+03 -.33527808E+03 0.90522754E+03 0.10154872E+04 0.32000000E+00 0.0000E+00 0.9000E+01
       21  1    1    2  502  503 0.13221812E+02 -.34751665E+01 0.50595511E+02 0.52415278E+02 0.75000000E+00 0.0000E+00 0.9000E+01
#aMCatNLO 2  0  0  5  2 0.21076943D+02 0.00000000D+00  -5  6  0 0.00000000D+00 0.00000000D+00 0.00000000D+00 0.00000000D+00 0.00000000D+00
  <mgrwgt>
 0.8308919850D-01    1    2    0
 0.295250851169047D+04 0.000000000000000D+00 0.000000000000000D+00 0.295250851169047D+04
 0.295250851169047D+04 -.000000000000000D+00 -.000000000000000D+00 -.295250851169047D+04
 0.194826053088762D+04 -.335591067493001D+03 0.339926895041139D+03 0.188465446107797D+04
 0.286690034857531D+04 0.687601499361883D+01 -.895453126017135D+00 -.286689196295270D+04
 0.108985614391800D+04 0.328715052499382D+03 -.339031441915122D+03 0.982237501874724D+03
 0.000000000000000D+00 0.000000000000000D+00 0.000000000000000D+00 0.000000000000000D+00
 0.295250851169047D+04 0.000000000000000D+00 0.000000000000000D+00 0.295250851169047D+04
 0.295250851169047D+04 -.000000000000000D+00 -.000000000000000D+00 -.295250851169047D+04
 0.194874593105768D+04 -.335399857882063D+03 0.339729684509978D+03 0.188522581687429D+04
 0.286606061254630D+04 0.715730712017828D+01 -.118557332143168D+01 -.286605143048061D+04
 0.103669660331304D+04 0.315056474780868D+03 -.335108497657016D+03 0.929075648059677D+03
 0.535138764639074D+02 0.131860759810170D+02 -.343561353152986D+01 0.517499655466470D+02
0.108963046360D+01 0.000000000000D+00 0.000000000000D+00 0.208124893550D-03 0.182263117545D-04  6 2 2 25 2 2 21 2 0.44358182D+00 0.46513805D+00 0.23732865D+06 0.23732865D+06 0.23732865D+06 0.10921626D+01  1  2  1  3  6  5        2 0.830891984951D-01 0.100000000000D+01
  </mgrwgt>
  </event>
  <event>
  5     66 0.18411016E-05 0.19257346E+03 0.75467711E-02 0.90942190E-01
        2 -1    0    0  502    0 0.00000000E+00 0.00000000E+00 0.11560225E+04 0.11560226E+04 0.32000000E+00 0.0000E+00 0.9000E+01
        2 -1    0    0  501    0 0.00000000E+00 0.00000000E+00 -.10678903E+04 0.10678903E+04 0.32000000E+00 0.0000E+00 0.9000E+01
       25  1    1    2    0    0 -.40085889E+03 0.53186655E+03 -.11985531E+03 0.68815708E+03 0.12500000E+03 0.0000E+00 0.9000E+01
        2  1    1    2  501    0 0.49666544E+02 -.25516823E+03 -.57672779E+03 0.63260781E+03 0.32000000E+00 0.0000E+00 0.9000E+01
        2  1    1    2  502    0 0.35119234E+03 -.27669832E+03 0.78471534E+03 0.90314799E+03 0.32000000E+00 0.0000E+00 0.9000E+01
#aMCatNLO 1  0  0  1  5 0.16589964D+02 0.00000000D+00  -5  6  0 0.00000000D+00 0.00000000D+00 0.00000000D+00 0.00000000D+00 0.00000000D+00
  <mgrwgt>
 0.3559342930D-03   11    2    0
 0.111108294016352D+04 0.000000000000000D+00 0.000000000000000D+00 0.111108294016352D+04
 0.111108294016352D+04 0.000000000000000D+00 0.000000000000000D+00 -.111108294016352D+04
 0.693436110957699D+03 -.400848578489853D+03 0.531883491318650D+03 -.147136021305071D+03
 0.656047647101301D+03 0.496778114544612D+02 -.255202172545926D+03 -.602330873726465D+03
 0.872682122268040D+03 0.351170767035392D+03 -.276681318772724D+03 0.749466895031536D+03
 0.000000000000000D+00 -.000000000000000D+00 -.000000000000000D+00 0.000000000000000D+00
 0.125827969110686D+04 0.000000000000000D+00 0.000000000000000D+00 0.125827969110686D+04
 0.111158144919665D+04 0.000000000000000D+00 0.000000000000000D+00 -.111158144919665D+04
 0.692132577920155D+03 -.396038882488948D+03 0.533785256643361D+03 -.147136021305071D+03
 0.655710259243256D+03 0.542312896089152D+02 -.253401716371703D+03 -.602330873726465D+03
 0.874384969922749D+03 0.357235324984827D+03 -.274283378026414D+03 0.749466895031536D+03
 0.147633333217345D+03 -.154277321047938D+02 -.610016224524350D+01 0.146698241910215D+03
0.821060340185D-06 0.000000000000D+00 0.000000000000D+00 0.106479521744D-06 0.000000000000D+00  6 2 2 25 2 2 21 0 0.17784962D+00 0.16429082D+00 0.47935604D+06 0.47935604D+06 0.47935604D+06 0.10698070D+01  1  2  2  1  6  1        2 0.618670741050D-05 0.100000000000D+01
0.705652777901D-07 0.000000000000D+00 -.315308789646D-08 0.106479521744D-06 0.000000000000D+00  6 2 2 25 2 2 21 2 0.17784962D+00 0.16429082D+00 0.47935604D+06 0.47935604D+06 0.47935604D+06 0.10698070D+01  1  2  3  1  6  1        2 0.608536198426D-06 0.100000000000D+01
-.558268451141D-06 0.000000000000D+00 0.000000000000D+00 0.106479521744D-06 0.000000000000D+00  6 2 2 25 2 2 21 2 0.17784962D+00 0.16429082D+00 0.47935604D+06 0.47935604D+06 0.47935604D+06 0.10698070D+01  1  2 15  1  6  1        2 -.481435872709D-05 0.100000000000D+01
0.202298304956D-08 0.000000000000D+00 0.000000000000D+00 0.106479521744D-06 0.000000000000D+00  6 2 2 25 2 2 21 2 0.20148041D+00 0.16429082D+00 0.49170194D+06 0.49170194D+06 0.49170194D+06 0.10690244D+01  1  2 12  1  6  1        2 0.141677685347D-07 0.100000000000D+01
0.213010353825D-03 0.000000000000D+00 0.000000000000D+00 0.106479521744D-06 0.000000000000D+00  6 2 2 25 2 2 21 2 0.20216699D+00 0.16429082D+00 0.49170194D+06 0.49170194D+06 0.49170194D+06 0.10690244D+01  1  2 12  1  6  1        2 0.148308012847D-02 0.100000000000D+01
-.170832397281D-03 0.000000000000D+00 0.000000000000D+00 0.106479521744D-06 0.000000000000D+00  6 2 2 25 2 2 21 2 0.17784962D+00 0.16429082D+00 0.47935604D+06 0.47935604D+06 0.47935604D+06 0.10698070D+01  1  2  4  1  6  1        2 -.147321318452D-02 0.100000000000D+01
-.223802092013D-03 0.000000000000D+00 -.157551420438D-05 0.106479521744D-06 0.000000000000D+00  6 2 2 25 2 2 21 2 0.20144524D+00 0.16429082D+00 0.47935604D+06 0.47935604D+06 0.47935604D+06 0.10698070D+01  1  2  5  1  6  1        2 -.157230995237D-02 0.100000000000D+01
0.222283366855D-03 0.000000000000D+00 0.156336679421D-05 0.106479521744D-06 0.000000000000D+00  6 2 2 25 2 2 21 2 0.17784962D+00 0.16429082D+00 0.47935604D+06 0.47935604D+06 0.47935604D+06 0.10698070D+01  1  2  6  1  6  1        2 0.191691266973D-02 0.100000000000D+01
0.396541320619D-10 0.000000000000D+00 0.000000000000D+00 0.106479521744D-06 0.000000000000D+00  6 21 2 25 2 2 -2 2 0.20148041D+00 0.16429082D+00 0.49170194D+06 0.49170194D+06 0.49170194D+06 0.10690244D+01  1  2 12  4  6  1        2 0.120961869593D-09 0.100000000000D+01
0.427010483366D-05 0.000000000000D+00 0.000000000000D+00 0.106479521744D-06 0.000000000000D+00  6 21 2 25 2 2 -2 2 0.20216699D+00 0.16429082D+00 0.49170194D+06 0.49170194D+06 0.49170194D+06 0.10690244D+01  1  2 12  4  6  1        2 0.128730933050D-04 0.100000000000D+01
-.437399027855D-05 0.000000000000D+00 -.308468145646D-07 0.106479521744D-06 0.000000000000D+00  6 21 2 25 2 2 -2 2 0.20144524D+00 0.16429082D+00 0.47935604D+06 0.47935604D+06 0.47935604D+06 0.10698070D+01  1  2  5  4  6  1        2 -.134036352141D-04 0.100000000000D+01
  </mgrwgt>
  </event>
  <event>
  5     66 0.18411016E-05 0.17856399E+03 0.75467711E-02 0.91818649E-01
        2 -1    0    0  502    0 0.00000000E+00 0.00000000E+00 0.17202045E+04 0.17202046E+04 0.32000000E+00 0.0000E+00 0.9000E+01
        2 -1    0    0  501    0 0.00000000E+00 0.00000000E+00 -.13733325E+04 0.13733325E+04 0.32000000E+00 0.0000E+00 0.9000E+01
       25  1    1    2    0    0 0.10257165E+03 0.63028614E+03 -.11512710E+02 0.65079882E+03 0.12500000E+03 0.0000E+00 0.9000E+01
        2  1    1    2  501    0 -.55272729E+02 -.45809176E+03 -.98490505E+03 0.10876310E+04 0.32000000E+00 0.0000E+00 0.9000E+01
        2  1    1    2  502    0 -.47298917E+02 -.17219438E+03 0.13432898E+04 0.13551073E+04 0.32000000E+00 0.0000E+00 0.9000E+01
#aMCatNLO 1  0  0  5  1 0.94454961D+01 0.00000000D+00  -5  6  0 0.00000000D+00 0.00000000D+00 0.00000000D+00 0.00000000D+00 0.00000000D+00
  <mgrwgt>
 0.1368578374D-02    1    2    0
 0.153701426711336D+04 0.000000000000000D+00 0.000000000000000D+00 0.153701426711336D+04
 0.153701426711336D+04 -.000000000000000D+00 -.000000000000000D+00 -.153701426711336D+04
 0.656253827224184D+03 0.102575231860536D+03 0.630322072384774D+03 -.849499418464154D+02
 0.120570079936035D+04 -.552785355604538D+02 -.458135779329938D+03 -.111389869771996D+04
 0.121207390764219D+04 -.472966963000822D+02 -.172186293054836D+03 0.119884863956638D+04
 0.000000000000000D+00 0.000000000000000D+00 0.000000000000000D+00 -.000000000000000D+00
 0.153701426711336D+04 0.000000000000000D+00 0.000000000000000D+00 0.153701426711336D+04
 0.153701426711336D+04 -.000000000000000D+00 -.000000000000000D+00 -.153701426711336D+04
 0.642458341106187D+03 0.100199285430731D+03 0.621672305271033D+03 -.247258592385604D+02
 0.111379635054106D+04 -.595219707931713D+02 -.473584244861317D+03 -.100633861522383D+04
 0.201663712698084D+03 0.178970407396325D+03 0.847435964493115D+02 -.381624050133741D+02
 0.111611012988140D+04 -.219647722033884D+03 -.232831656859027D+03 0.106922687947576D+04
0.487986811365D-03 0.000000000000D+00 0.000000000000D+00 0.372643708730D-05 0.000000000000D+00  6 2 2 25 2 2 21 2 0.26464685D+00 0.21128193D+00 0.41651213D+06 0.41651213D+06 0.41651213D+06 0.10741635D+01  1  2 14  3  6  5        2 0.136857837430D-02 0.100000000000D+01
  </mgrwgt>
  </event>
  <event>
  5     66 -.18411016E-05 0.18491869E+03 0.75467711E-02 0.93940817E-01
        2 -1    0    0  502    0 0.00000000E+00 0.00000000E+00 0.39250079E+03 0.39250092E+03 0.32000000E+00 0.0000E+00 0.9000E+01
        2 -1    0    0  501    0 -.00000000E+00 -.00000000E+00 -.35914789E+04 0.35914789E+04 0.32000000E+00 0.0000E+00 0.9000E+01
       25  1    1    2    0    0 0.48540416E+03 0.60424151E+02 -.57385183E+03 0.76432925E+03 0.12500000E+03 0.0000E+00 0.9000E+01
        2  1    1    2  501    0 -.33346619E+03 -.16585371E+03 -.28804277E+04 0.29044055E+04 0.32000000E+00 0.0000E+00 0.9000E+01
        2  1    1    2  502    0 -.15193797E+03 0.10542956E+03 0.25530146E+03 0.31524510E+03 0.32000000E+00 0.0000E+00 0.9000E+01
#aMCatNLO 1  0  0  5  1 0.15699188D+02 0.00000000D+00  -5  6  0 0.00000000D+00 0.00000000D+00 0.00000000D+00 0.00000000D+00 0.00000000D+00
  <mgrwgt>
 -.3631106373D-02    8    2    0
 0.118729044337954D+04 0.000000000000000D+00 0.000000000000000D+00 0.118729044337954D+04
 0.118729044337954D+04 -.000000000000000D+00 -.000000000000000D+00 -.118729044337954D+04
 0.509324971828532D+03 0.485433857649293D+03 0.604497997075522D+02 0.669829716508431D+02
 0.992485615156227D+03 -.333508361680360D+03 -.165870704670192D+03 -.919938464416795D+03
 0.872770299774320D+03 -.151925495968933D+03 0.105420904962640D+03 0.852955492765952D+03
 0.000000000000000D+00 0.000000000000000D+00 0.000000000000000D+00 0.000000000000000D+00
 0.118729044337954D+04 0.000000000000000D+00 0.000000000000000D+00 0.118729044337954D+04
 0.118729044337954D+04 -.000000000000000D+00 -.000000000000000D+00 -.118729044337954D+04
 0.509321711010871D+03 0.485409075466168D+03 0.604669960323391D+02 0.671221062910504D+02
 0.992244976541972D+03 -.333556647271240D+03 -.165837199361194D+03 -.919667374566470D+03
 0.604809836730014D+03 -.120260464977929D+03 0.764132249906145D+02 0.587786847603119D+03
 0.268204362476222D+03 -.315919632169982D+02 0.289569783382400D+02 0.264758420672301D+03
0.115098215981D-04 0.000000000000D+00 0.000000000000D+00 0.267583866764D-05 0.000000000000D+00  6 2 2 25 2 2 21 0 0.60384748D-01 0.55253523D+00 0.28211995D+06 0.28211995D+06 0.28211995D+06 0.10865319D+01  1  2  2  3  6  5        2 0.108319852809D-04 0.100000000000D+01
0.146717765592D-05 0.000000000000D+00 -.442007455425D-07 0.267583866764D-05 0.000000000000D+00  6 2 2 25 2 2 21 2 0.60384748D-01 0.55253523D+00 0.28211995D+06 0.28211995D+06 0.28211995D+06 0.10865319D+01  1  2  3  3  6  5        2 0.163007318772D-05 0.100000000000D+01
-.871919259995D-05 0.000000000000D+00 0.000000000000D+00 0.267583866764D-05 0.000000000000D+00  6 2 2 25 2 2 21 2 0.60384748D-01 0.55253523D+00 0.28211995D+06 0.28211995D+06 0.28211995D+06 0.10865319D+01  1  2 15  3  6  5        2 -.968725363177D-05 0.100000000000D+01
0.464163461835D-09 0.000000000000D+00 0.000000000000D+00 0.267583866764D-05 0.000000000000D+00  6 2 2 25 2 2 21 2 0.60384748D-01 0.55253523D+00 0.28234653D+06 0.28234653D+06 0.28234653D+06 0.10865059D+01  1  2 12  3  6  5        2 0.515638172419D-09 0.100000000000D+01
0.209256437207D-02 0.000000000000D+00 0.000000000000D+00 0.267583866764D-05 0.000000000000D+00  6 2 2 25 2 2 21 2 0.60384748D-01 0.55253523D+00 0.28234653D+06 0.28234653D+06 0.28234653D+06 0.10865059D+01  1  2 12  3  6  5        2 0.232462517454D-02 0.100000000000D+01
-.613125942876D-02 0.000000000000D+00 0.000000000000D+00 0.267583866764D-05 0.000000000000D+00  6 2 2 25 2 2 21 2 0.60384748D-01 0.55253523D+00 0.28211995D+06 0.28211995D+06 0.28211995D+06 0.10865319D+01  1  2  4  3  6  5        2 -.681199141867D-02 0.100000000000D+01
-.218543468909D-02 0.000000000000D+00 0.000000000000D+00 0.267583866764D-05 0.000000000000D+00  6 2 2 25 2 2 21 2 0.60384748D-01 0.55253523D+00 0.28211995D+06 0.28211995D+06 0.28211995D+06 0.10865319D+01  1  2  5  3  6  5        2 -.242807575200D-02 0.100000000000D+01
0.295362931491D-02 0.000000000000D+00 -.000000000000D+00 0.267583866764D-05 0.000000000000D+00  6 2 2 25 2 2 21 2 0.60384748D-01 0.55253523D+00 0.28211995D+06 0.28211995D+06 0.28211995D+06 0.10865319D+01  1  2  6  3  6  5        2 0.328156030271D-02 0.100000000000D+01
  </mgrwgt>
  </event>
  <event>
  5     66 0.18411016E-05 0.33763675E+02 0.75467711E-02 0.92393490E-01
        2 -1    0    0  502    0 0.00000000E+00 0.00000000E+00 0.65979763E+03 0.65979771E+03 0.32000000E+00 0.0000E+00 0.9000E+01
        2 -1    0    0  501    0 -.00000000E+00 -.00000000E+00 -.16507378E+04 0.16507378E+04 0.32000000E+00 0.0000E+00 0.9000E+01
       25  1    1    2    0    0 0.56955710E+03 -.67102188E+02 -.43712491E+03 0.73184778E+03 0.12500000E+03 0.0000E+00 0.9000E+01
        2  1    1    2  501    0 -.21072380E+02 -.26376461E+02 -.91481787E+03 0.91544066E+03 0.32000000E+00 0.0000E+00 0.9000E+01
        2  1    1    2  502    0 -.54848472E+03 0.93478649E+02 0.36100260E+03 0.66324710E+03 0.32000000E+00 0.0000E+00 0.9000E+01
#aMCatNLO 1  0  0  5  1 0.62372249D+01 0.00000000D+00  -5  6  0 0.00000000D+00 0.00000000D+00 0.00000000D+00 0.00000000D+00 0.00000000D+00
  <mgrwgt>
 0.2768056456D-02    4    2    0
 0.104362494088670D+04 0.000000000000000D+00 0.000000000000000D+00 0.104362494088670D+04
 0.104362494088670D+04 -.000000000000000D+00 -.000000000000000D+00 -.104362494088670D+04
 0.602579976759593D+03 0.569544427628649D+03 -.670972017044813D+02 -.136362527375282D+03
 0.579106767377380D+03 -.210746031502402D+02 -.263789095527168D+02 -.578121667346198D+03
 0.905563137636436D+03 -.548469824478409D+03 0.934761112571981D+02 0.714484194721480D+03
 0.000000000000000D+00 0.000000000000000D+00 0.000000000000000D+00 -.000000000000000D+00
 0.104362494088670D+04 0.000000000000000D+00 0.000000000000000D+00 0.104362494088670D+04
 0.104362494088670D+04 -.000000000000000D+00 -.000000000000000D+00 -.104362494088670D+04
 0.551426561585697D+03 0.527454178947265D+03 -.599237299964874D+02 -.815321318045780D+02
 0.529399370593071D+03 -.615053090966017D+02 -.194882749205504D+02 -.525453135567666D+03
 0.823133899087938D+03 -.442177037717880D+03 -.825933646908780D+02 0.689352753858134D+03
 0.183290050506703D+03 -.237718321327832D+02 0.162005369607916D+03 -.823674864858894D+02
0.433442842632D-03 0.000000000000D+00 0.000000000000D+00 0.663149321348D-05 0.000000000000D+00  6 2 2 25 2 2 21 0 0.10150734D+00 0.25395967D+00 0.34638523D+06 0.34638523D+06 0.34638523D+06 0.10799624D+01  1  2  2  3  6  5        2 0.331748734217D-02 0.100000000000D+01
0.243879135543D-03 0.000000000000D+00 -.166453464383D-05 0.663149321348D-05 0.000000000000D+00  6 2 2 25 2 2 21 2 0.10150734D+00 0.25395967D+00 0.34638523D+06 0.34638523D+06 0.34638523D+06 0.10799624D+01  1  2  3  3  6  5        2 0.217705488744D-02 0.100000000000D+01
-.301894511366D-03 0.000000000000D+00 0.000000000000D+00 0.663149321348D-05 0.000000000000D+00  6 2 2 25 2 2 21 2 0.10150734D+00 0.25395967D+00 0.34638523D+06 0.34638523D+06 0.34638523D+06 0.10799624D+01  1  2 15  3  6  5        2 -.269494526457D-02 0.100000000000D+01
-.353324678639D-05 0.000000000000D+00 0.000000000000D+00 0.663149321348D-05 0.000000000000D+00  6 2 2 25 2 2 21 2 0.10150734D+00 0.25395967D+00 0.34638523D+06 0.34638523D+06 0.34638523D+06 0.10799624D+01  1  2  4  3  6  5        2 -.315405094729D-04 0.100000000000D+01
  </mgrwgt>
  </event>
  <event>
  5     66 0.18411016E-05 0.36718613E+02 0.75467711E-02 0.91244008E-01
        2 -1    0    0  502    0 0.00000000E+00 0.00000000E+00 0.11907008E+04 0.11907008E+04 0.32000000E+00 0.0000E+00 0.9000E+01
        2 -1    0    0  501    0 0.00000000E+00 0.00000000E+00 -.14322307E+04 0.14322307E+04 0.32000000E+00 0.0000E+00 0.9000E+01
       25  1    1    2    0    0 0.59856716E+03 -.32227581E+02 -.73671563E+03 0.95796460E+03 0.12500000E+03 0.0000E+00 0.9000E+01
        2  1    1    2  501    0 0.35171047E+02 -.10561083E+02 -.49075939E+03 0.49213151E+03 0.32000000E+00 0.0000E+00 0.9000E+01
        2  1    1    2  502    0 -.63373820E+03 0.42788664E+02 0.98594515E+03 0.11728354E+04 0.32000000E+00 0.0000E+00 0.9000E+01
#aMCatNLO 1  0  0  2  4 0.50772513D+02 0.00000000D+00  -5  6  0 0.00000000D+00 0.00000000D+00 0.00000000D+00 0.00000000D+00 0.00000000D+00
  <mgrwgt>
 0.5736990099D-02    7    2    0
 0.130589366915021D+04 0.000000000000000D+00 0.000000000000000D+00 0.130589366915021D+04
 0.130589366915021D+04 0.000000000000000D+00 0.000000000000000D+00 -.130589366915021D+04
 0.893972901172009D+03 0.598574155534751D+03 -.322289123798485D+02 -.651331578815714D+03
 0.448790971383498D+03 0.351673633487098D+02 -.105599757768712D+02 -.447286350632383D+03
 0.126902346574491D+04 -.633741518883461D+03 0.427888881567197D+02 0.109861792944810D+04
 0.000000000000000D+00 -.000000000000000D+00 -.000000000000000D+00 -.000000000000000D+00
 0.131615869310759D+04 0.000000000000000D+00 0.000000000000000D+00 0.131615869310759D+04
 0.145810433951423D+04 0.000000000000000D+00 0.000000000000000D+00 -.145810433951423D+04
 0.901940592811529D+03 0.611192812301375D+03 -.907488786586591D+01 -.651331578815714D+03
 0.449206472092838D+03 0.414769776784062D+02 0.101756116430144D+01 -.447286350632383D+03
 0.126176665987021D+04 -.615959386252639D+03 0.754173954899214D+02 0.109861792944810D+04
 0.161349307847234D+03 -.367104037271421D+02 -.673600687883569D+02 -.141945646406642D+03
0.283875705986D-03 0.000000000000D+00 0.000000000000D+00 0.695728175346D-05 0.000000000000D+00  6 2 2 25 2 2 21 0 0.18318474D+00 0.22034318D+00 0.41231711D+06 0.41231711D+06 0.41231711D+06 0.10744794D+01  1  2  2  2  6  2        2 0.126605124159D-02 0.100000000000D+01
0.115994492006D-03 0.000000000000D+00 -.109015745718D-05 0.695728175346D-05 0.000000000000D+00  6 2 2 25 2 2 21 2 0.18318474D+00 0.22034318D+00 0.41231711D+06 0.41231711D+06 0.41231711D+06 0.10744794D+01  1  2  3  2  6  2        2 0.597250619335D-03 0.100000000000D+01
-.230774727056D-03 0.000000000000D+00 0.000000000000D+00 0.695728175346D-05 0.000000000000D+00  6 2 2 25 2 2 21 2 0.18318474D+00 0.22034318D+00 0.41231711D+06 0.41231711D+06 0.41231711D+06 0.10744794D+01  1  2 15  2  6  2        2 -.118824908215D-02 0.100000000000D+01
-.208381684230D-04 0.000000000000D+00 0.000000000000D+00 0.695728175346D-05 0.000000000000D+00  6 2 2 25 2 2 21 2 0.18318474D+00 0.22034318D+00 0.41231711D+06 0.41231711D+06 0.41231711D+06 0.10744794D+01  1  2  4  2  6  2        2 -.107294827377D-03 0.100000000000D+01
-.507190483111D-02 0.000000000000D+00 -.518064123637D-03 0.695728175346D-05 0.000000000000D+00  6 2 2 25 2 2 21 2 0.18318474D+00 0.24677123D+00 0.41231711D+06 0.41231711D+06 0.41231711D+06 0.10744794D+01  1  2  5  2  6  2        2 -.209836340440D-01 0.100000000000D+01
0.510113266398D-02 0.000000000000D+00 0.514758077005D-03 0.695728175346D-05 0.000000000000D+00  6 2 2 25 2 2 21 2 0.18318474D+00 0.22034318D+00 0.41231711D+06 0.41231711D+06 0.41231711D+06 0.10744794D+01  1  2  6  2  6  2        2 0.262655113202D-01 0.100000000000D+01
-.895038237393D-04 0.000000000000D+00 -.936231205287D-05 0.695728175346D-05 0.000000000000D+00  6 2 21 25 2 2 -2 2 0.18318474D+00 0.24677123D+00 0.41231711D+06 0.41231711D+06 0.41231711D+06 0.10744794D+01  1  2  5  5  6  2        2 -.112645128380D-03 0.100000000000D+01
  </mgrwgt>
  </event>
  <event>
  5     66 0.18411016E-05 0.33027426E+02 0.75467711E-02 0.93293095E-01
        2 -1    0    0  502    0 0.00000000E+00 0.00000000E+00 0.33504803E+03 0.33504818E+03 0.32000000E+00 0.0000E+00 0.9000E+01
        2 -1    0    0  501    0 0.00000000E+00 0.00000000E+00 -.36336080E+04 0.36336080E+04 0.32000000E+00 0.0000E+00 0.9000E+01
       25  1    1    2    0    0 0.27434155E+03 0.45067803E+03 -.84497390E+03 0.10039820E+04 0.12500000E+03 0.0000E+00 0.9000E+01
        2  1    1    2  501    0 0.32765070E+02 -.41281763E+01 -.24215418E+04 0.24217670E+04 0.32000000E+00 0.0000E+00 0.9000E+01
        2  1    1    2  502    0 -.30710662E+03 -.44654986E+03 -.32044240E+02 0.54290716E+03 0.32000000E+00 0.0000E+00 0.9000E+01
#aMCatNLO 1  0  0  2  4 0.83908364D+01 0.00000000D+00  -5  6  0 0.00000000D+00 0.00000000D+00 0.00000000D+00 0.00000000D+00 0.00000000D+00
  <mgrwgt>
 0.7900294473D-02   13    2    0
 0.110337370170280D+04 0.000000000000000D+00 0.000000000000000D+00 0.110337370170280D+04
 0.110337370170280D+04 0.000000000000000D+00 0.000000000000000D+00 -.110337370170280D+04
 0.542522417044766D+03 0.274326862460175D+03 0.450662007549063D+03 -.188175577772321D+02
 0.735783542131363D+03 0.327683433884312D+02 -.412874763740450D+01 -.735041910360151D+03
 0.928441444229472D+03 -.307095205848606D+03 -.446533259911658D+03 0.753859468137383D+03
 0.000000000000000D+00 -.000000000000000D+00 -.000000000000000D+00 -.000000000000000D+00
 0.110343228569239D+04 0.000000000000000D+00 0.000000000000000D+00 0.110343228569239D+04
 0.145118456999536D+04 0.000000000000000D+00 0.000000000000000D+00 -.145118456999536D+04
 0.544185811825560D+03 0.276207090661713D+03 0.451518261402278D+03 -.188175577772321D+02
 0.735895746998601D+03 0.353146505107380D+02 -.296916217689412D+01 -.735041910360151D+03
 0.926681796991871D+03 -.303885462015987D+03 -.445071546103586D+03 0.753859468137383D+03
 0.347853499871717D+03 -.763627915646461D+01 -.347755312179812D+01 -.347752284302968D+03
0.892493106101D-05 0.000000000000D+00 0.000000000000D+00 0.115083573656D-04 0.000000000000D+00  6 2 2 25 2 2 21 0 0.51545863D-01 0.55901663D+00 0.31201375D+06 0.31201375D+06 0.31201375D+06 0.10832925D+01  1  2  2  2  6  2        2 0.924466847248D-05 0.100000000000D+01
0.548116192987D-05 0.000000000000D+00 -.342740852626D-07 0.115083573656D-04 0.000000000000D+00  6 2 2 25 2 2 21 2 0.51545863D-01 0.55901663D+00 0.31201375D+06 0.31201375D+06 0.31201375D+06 0.10832925D+01  1  2  3  2  6  2        2 0.666270487015D-05 0.100000000000D+01
-.658989071393D-05 0.000000000000D+00 0.000000000000D+00 0.115083573656D-04 0.000000000000D+00  6 2 2 25 2 2 21 2 0.51545863D-01 0.55901663D+00 0.31201375D+06 0.31201375D+06 0.31201375D+06 0.10832925D+01  1  2 15  2  6  2        2 -.801043601981D-05 0.100000000000D+01
0.864301836064D-09 0.000000000000D+00 0.000000000000D+00 0.115083573656D-04 0.000000000000D+00  6 2 2 25 2 2 21 2 0.51545863D-01 0.73524939D+00 0.31731293D+06 0.31731293D+06 0.31731293D+06 0.10827537D+01  1  2 12  2  6  2        2 0.968554164756D-10 0.100000000000D+01
0.839402856961D-02 0.000000000000D+00 0.000000000000D+00 0.115083573656D-04 0.000000000000D+00  6 2 2 25 2 2 21 2 0.51545863D-01 0.78237496D+00 0.31731293D+06 0.31731293D+06 0.31731293D+06 0.10827537D+01  1  2 12  2  6  2        2 0.389396385827D-03 0.100000000000D+01
-.422362477614D-02 0.000000000000D+00 0.000000000000D+00 0.115083573656D-04 0.000000000000D+00  6 2 2 25 2 2 21 2 0.51545863D-01 0.55901663D+00 0.31201375D+06 0.31201375D+06 0.31201375D+06 0.10832925D+01  1  2  4  2  6  2        2 -.513408757591D-02 0.100000000000D+01
-.110947630029D-01 0.000000000000D+00 -.424467346533D-05 0.115083573656D-04 0.000000000000D+00  6 2 2 25 2 2 21 2 0.51545863D-01 0.73523705D+00 0.31201375D+06 0.31201375D+06 0.31201375D+06 0.10832925D+01  1  2  5  2  6  2        2 -.124707320646D-02 0.100000000000D+01
0.114216872627D-01 0.000000000000D+00 0.436937407150D-05 0.115083573656D-04 0.000000000000D+00  6 2 2 25 2 2 21 2 0.51545863D-01 0.55901663D+00 0.31201375D+06 0.31201375D+06 0.31201375D+06 0.10832925D+01  1  2  6  2  6  2        2 0.138837955026D-01 0.100000000000D+01
0.578741434839D-05 0.000000000000D+00 0.000000000000D+00 0.115083573656D-04 0.356471883953D-06  6 2 2 25 2 2 21 2 0.51548600D-01 0.73523259D+00 0.31731293D+06 0.31731293D+06 0.31731293D+06 0.10827537D+01  1  2 11  2  6  2        2 0.648697515836D-06 0.100000000000D+01
0.312861931728D-10 0.000000000000D+00 0.000000000000D+00 0.115083573656D-04 0.000000000000D+00  6 2 21 25 2 2 -2 2 0.51545863D-01 0.73524939D+00 0.31731293D+06 0.31731293D+06 0.31731293D+06 0.10827537D+01  1  2 12  5  6  2        2 0.296448638897D-13 0.100000000000D+01
0.352212459994D-03 0.000000000000D+00 0.000000000000D+00 0.115083573656D-04 0.000000000000D+00  6 2 21 25 2 2 -2 2 0.51545863D-01 0.78237496D+00 0.31731293D+06 0.31731293D+06 0.31731293D+06 0.10827537D+01  1  2 12  5  6  2        2 0.989617015060D-07 0.100000000000D+01
-.401510301097D-03 0.000000000000D+00 -.153642793644D-06 0.115083573656D-04 0.000000000000D+00  6 2 21 25 2 2 -2 2 0.51545863D-01 0.73523705D+00 0.31201375D+06 0.31201375D+06 0.31201375D+06 0.10832925D+01  1  2  5  5  6  2        2 -.381799670752D-06 0.100000000000D+01
0.499656186751D-06 0.000000000000D+00 0.000000000000D+00 0.115083573656D-04 0.287959908646D-07  6 2 21 25 2 2 -2 2 0.51548600D-01 0.73523259D+00 0.31731293D+06 0.31731293D+06 0.31731293D+06 0.10827537D+01  1  2 11  5  6  2        2 0.473605609030D-09 0.100000000000D+01
  </mgrwgt>
  </event>
  <event>
  5     66 0.18411016E-05 0.57547189E+02 0.75467711E-02 0.91472775E-01
        2 -1    0    0  502    0 0.00000000E+00 0.00000000E+00 0.16602397E+04 0.16602397E+04 0.32000000E+00 0.0000E+00 0.9000E+01
        2 -1    0    0  501    0 0.00000000E+00 0.00000000E+00 -.63426629E+03 0.63426637E+03 0.32000000E+00 0.0000E+00 0.9000E+01
       25  1    1    2    0    0 0.94540563E+02 -.52184087E+03 0.93692045E+03 0.10838361E+04 0.12500000E+03 0.0000E+00 0.9000E+01
        2  1    1    2  501    0 -.13845031E+03 0.48458820E+03 -.44572304E+03 0.67280260E+03 0.32000000E+00 0.0000E+00 0.9000E+01
        2  1    1    2  502    0 0.43909747E+02 0.37252675E+02 0.53477600E+03 0.53786736E+03 0.32000000E+00 0.0000E+00 0.9000E+01
#aMCatNLO 1  0  0  2  4 0.24303589D+03 0.00000000D+00  -5  6  0 0.00000000D+00 0.00000000D+00 0.00000000D+00 0.00000000D+00 0.00000000D+00
  <mgrwgt>
 0.1763853572D-02    7    2    0
 0.102617454358102D+04 0.000000000000000D+00 0.000000000000000D+00 0.102617454358102D+04
 0.102617454358102D+04 0.000000000000000D+00 0.000000000000000D+00 -.102617454358102D+04
 0.743526538054485D+03 0.945857439521884D+02 -.521894514881640D+03 0.505852117885017D+03
 0.975036882255618D+03 -.138468012801345D+03 0.484665152261745D+03 -.834639575728771D+03
 0.333785666851936D+03 0.438822688491566D+02 0.372293626198951D+02 0.328787457843754D+03
 0.000000000000000D+00 0.000000000000000D+00 -.000000000000000D+00 -.000000000000000D+00
 0.107172366359856D+04 0.000000000000000D+00 0.000000000000000D+00 0.107172366359856D+04
 0.122646744351375D+04 0.000000000000000D+00 0.000000000000000D+00 -.122646744351375D+04
 0.700004231042147D+03 0.904108494058894D+02 -.458607061238547D+03 0.505852117885017D+03
 0.102219095963695D+04 -.144244277362752D+03 0.572227861117317D+03 -.834639575728771D+03
 0.338093327898777D+03 0.419391000501202D+02 0.666859642001048D+02 0.328787457843754D+03
 0.237902588534443D+03 0.118943279067426D+02 -.180306764078875D+03 -.154743779915189D+03
0.147812911875D-03 0.000000000000D+00 0.000000000000D+00 0.239541435716D-05 0.000000000000D+00  6 2 2 25 2 2 21 0 0.25542150D+00 0.97579437D-01 0.30610291D+06 0.30610291D+06 0.30610291D+06 0.10839054D+01  1  2  2  2  6  2        2 0.117948909707D-02 0.100000000000D+01
0.342200058141D-04 0.000000000000D+00 -.567640501633D-06 0.239541435716D-05 0.000000000000D+00  6 2 2 25 2 2 21 2 0.25542150D+00 0.97579437D-01 0.30610291D+06 0.30610291D+06 0.30610291D+06 0.10839054D+01  1  2  3  2  6  2        2 0.320807400672D-03 0.100000000000D+01
-.100338295741D-03 0.000000000000D+00 0.000000000000D+00 0.239541435716D-05 0.000000000000D+00  6 2 2 25 2 2 21 2 0.25542150D+00 0.97579437D-01 0.30610291D+06 0.30610291D+06 0.30610291D+06 0.10839054D+01  1  2 15  2  6  2        2 -.940656410739D-03 0.100000000000D+01
-.372635941228D-04 0.000000000000D+00 0.000000000000D+00 0.239541435716D-05 0.000000000000D+00  6 2 2 25 2 2 21 2 0.25542150D+00 0.97579437D-01 0.30610291D+06 0.30610291D+06 0.30610291D+06 0.10839054D+01  1  2  4  2  6  2        2 -.349340582675D-03 0.100000000000D+01
-.688589361878D-03 0.000000000000D+00 -.182511536183D-03 0.239541435716D-05 0.000000000000D+00  6 2 2 25 2 2 21 2 0.25542150D+00 0.11986273D+00 0.30610291D+06 0.30610291D+06 0.30610291D+06 0.10839054D+01  1  2  5  2  6  2        2 -.501403150933D-02 0.100000000000D+01
0.714750110570D-03 0.000000000000D+00 0.178717911899D-03 0.239541435716D-05 0.000000000000D+00  6 2 2 25 2 2 21 2 0.25542150D+00 0.97579437D-01 0.30610291D+06 0.30610291D+06 0.30610291D+06 0.10839054D+01  1  2  6  2  6  2        2 0.670067463891D-02 0.100000000000D+01
-.179265842165D-04 0.000000000000D+00 -.533599904074D-05 0.239541435716D-05 0.000000000000D+00  6 2 21 25 2 2 -2 2 0.25542150D+00 0.11986273D+00 0.30610291D+06 0.30610291D+06 0.30610291D+06 0.10839054D+01  1  2  5  5  6  2        2 -.133089061650D-03 0.100000000000D+01
  </mgrwgt>
  </event>
  <event>
  5     66 0.18411016E-05 0.64530219E+02 0.75467711E-02 0.93575630E-01
        2 -1    0    0  502    0 0.00000000E+00 0.00000000E+00 0.13548892E+04 0.13548893E+04 0.32000000E+00 0.0000E+00 0.9000E+01
        2 -1    0    0  501    0 0.00000000E+00 0.00000000E+00 -.75433158E+03 0.75433165E+03 0.32000000E+00 0.0000E+00 0.9000E+01
       25  1    1    2    0    0 0.22675421E+03 0.47713871E+03 -.71914708E+02 0.54760894E+03 0.12500000E+03 0.0000E+00 0.9000E+01
        2  1    1    2  501    0 -.16538394E+03 -.45717241E+03 -.31028002E+03 0.57674280E+03 0.32000000E+00 0.0000E+00 0.9000E+01
        2  1    1    2  502    0 -.61370265E+02 -.19966298E+02 0.98275237E+03 0.98486917E+03 0.32000000E+00 0.0000E+00 0.9000E+01
#aMCatNLO 1  0  0  5  2 0.28485463D+01 0.00000000D+00  -5  6  0 0.00000000D+00 0.00000000D+00 0.00000000D+00 0.00000000D+00 0.00000000D+00
  <mgrwgt>
 0.2738235045D-02    6    2    0
 0.101095787992767D+04 0.000000000000000D+00 0.000000000000000D+00 0.101095787992767D+04
 0.101095787992767D+04 -.000000000000000D+00 -.000000000000000D+00 -.101095787992767D+04
 0.592649330639748D+03 0.226775441342162D+03 0.477199759441485D+03 -.237616324987990D+03
 0.693844164336460D+03 -.165411168345978D+03 -.457235410848294D+03 -.494969341309713D+03
 0.735422264879130D+03 -.613642729961839D+02 -.199643485931916D+02 0.732585666297703D+03
 0.000000000000000D+00 0.000000000000000D+00 -.000000000000000D+00 0.000000000000000D+00
 0.101095787992767D+04 0.000000000000000D+00 0.000000000000000D+00 0.101095787992767D+04
 0.101095787992767D+04 -.000000000000000D+00 -.000000000000000D+00 -.101095787992767D+04
 0.592376374598399D+03 0.226725138927686D+03 0.477183393975252D+03 -.237015799209300D+03
 0.693369532136719D+03 -.165470053311948D+03 -.457254568575260D+03 -.494266354377361D+03
 0.300379128629887D+01 0.101114311490528D+01 0.260054624263682D+01 0.111243468693026D+01
 0.733166061833922D+03 -.622662287306446D+02 -.225293716426292D+02 0.730169718899731D+03
0.494788163804D-03 0.000000000000D+00 0.000000000000D+00 0.307875271658D-05 0.000000000000D+00  6 2 2 25 2 2 21 0 0.20844450D+00 0.11605102D+00 0.29904200D+06 0.29904200D+06 0.29904200D+06 0.10846546D+01  1  2  2  3  6  5        2 0.471264584902D-02 0.100000000000D+01
0.185361256481D-03 0.000000000000D+00 -.190011682972D-05 0.307875271658D-05 0.000000000000D+00  6 2 2 25 2 2 21 2 0.20844450D+00 0.11605102D+00 0.29904200D+06 0.29904200D+06 0.29904200D+06 0.10846546D+01  1  2  3  3  6  5        2 0.207705229667D-02 0.100000000000D+01
-.337628393944D-03 0.000000000000D+00 0.000000000000D+00 0.307875271658D-05 0.000000000000D+00  6 2 2 25 2 2 21 2 0.20844450D+00 0.11605102D+00 0.29904200D+06 0.29904200D+06 0.29904200D+06 0.10846546D+01  1  2 15  3  6  5        2 -.378327081061D-02 0.100000000000D+01
0.744804147286D-12 0.000000000000D+00 0.000000000000D+00 0.307875271658D-05 0.000000000000D+00  6 2 2 25 2 2 21 2 0.20844450D+00 0.11605102D+00 0.30149656D+06 0.30149656D+06 0.30149656D+06 0.10843920D+01  1  2 12  3  6  5        2 0.833850347814D-11 0.100000000000D+01
-.101798352923D-03 0.000000000000D+00 0.000000000000D+00 0.307875271658D-05 0.000000000000D+00  6 2 2 25 2 2 21 2 0.20844450D+00 0.11605102D+00 0.29904200D+06 0.29904200D+06 0.29904200D+06 0.10846546D+01  1  2  5  3  6  5        2 -.114069415988D-02 0.100000000000D+01
0.779328097560D-04 0.000000000000D+00 0.000000000000D+00 0.307875271658D-05 0.252045650984D-08  6 2 2 25 2 2 21 2 0.20844450D+00 0.11605102D+00 0.30149656D+06 0.30149656D+06 0.30149656D+06 0.10843920D+01  1  2 11  3  6  5        2 0.872501861838D-03 0.100000000000D+01
  </mgrwgt>
  </event>
  <event>
  5     66 0.18411016E-05 0.15449114E+02 0.75467711E-02 0.85271593E-01
        2 -1    0    0  502    0 0.00000000E+00 0.00000000E+00 0.21922082E+04 0.21922082E+04 0.32000000E+00 0.0000E+00 0.9000E+01
        2 -1    0    0  501    0 0.00000000E+00 0.00000000E+00 -.20200176E+04 0.20200176E+04 0.32000000E+00 0.0000E+00 0.9000E+01
       25  1    1    2    0    0 0.35835739E+03 0.39127155E+03 -.63459078E+02 0.54878548E+03 0.12500000E+03 0.0000E+00 0.9000E+01
        2  1    1    2  501    0 0.19013137E+01 -.15330798E+02 -.16790923E+04 0.16791634E+04 0.32000000E+00 0.0000E+00 0.9000E+01
        2  1    1    2  502    0 -.36025870E+03 -.37594076E+03 0.19147420E+04 0.19842769E+04 0.32000000E+00 0.0000E+00 0.9000E+01
#aMCatNLO 1  0  0  5  2 0.28485463D+01 0.00000000D+00  -5  6  0 0.00000000D+00 0.00000000D+00 0.00000000D+00 0.00000000D+00 0.00000000D+00
  <mgrwgt>
 0.1947956802D-01    3    2    0
 0.210435242223200D+04 0.000000000000000D+00 0.000000000000000D+00 0.210435242223200D+04
 0.210435242223200D+04 -.000000000000000D+00 -.000000000000000D+00 -.210435242223200D+04
 0.551827399970536D+03 0.358353338673642D+03 0.391268274301666D+03 -.859098454467974D+02
 0.174929934793649D+04 0.190139152898450D+01 -.153316609322511D+02 -.174923112640221D+04
 0.190757809655698D+04 -.360254730202626D+03 -.375936613369415D+03 0.183514097184900D+04
 0.000000000000000D+00 0.000000000000000D+00 0.000000000000000D+00 -.000000000000000D+00
 0.210435242223200D+04 0.000000000000000D+00 0.000000000000000D+00 0.210435242223200D+04
 0.210435242223200D+04 -.000000000000000D+00 -.000000000000000D+00 -.210435242223200D+04
 0.506076993792929D+03 0.326293758553085D+03 0.357813141124681D+03 0.774019561398696D+02
 0.128830253205969D+04 -.901525231916545D+02 -.111392681222004D+03 -.128030762211422D+04
 0.135063448633719D+04 -.704517257701016D+02 0.797924850076580D+03 0.108745850663353D+04
 0.106369083227419D+04 -.165689509591329D+03 -.104434530997926D+04 0.115447159340825D+03
0.215817440208D-01 0.000000000000D+00 0.000000000000D+00 0.465470818517D-03 0.000000000000D+00  6 2 2 25 2 2 21 0 0.33726280D+00 0.31077194D+00 0.29226574D+06 0.29226574D+06 0.29226574D+06 0.10853921D+01  1  2  2  3  6  5        2 0.131190437315D-01 0.100000000000D+01
0.231638794166D-01 0.000000000000D+00 -.828795796437D-04 0.465470818517D-03 0.000000000000D+00  6 2 2 25 2 2 21 2 0.33726280D+00 0.31077194D+00 0.29226574D+06 0.29226574D+06 0.29226574D+06 0.10853921D+01  1  2  3  3  6  5        2 0.165882375759D-01 0.100000000000D+01
-.142820185753D-01 0.000000000000D+00 0.000000000000D+00 0.465470818517D-03 0.000000000000D+00  6 2 2 25 2 2 21 2 0.33726280D+00 0.31077194D+00 0.29226574D+06 0.29226574D+06 0.29226574D+06 0.10853921D+01  1  2 15  3  6  5        2 -.102277132828D-01 0.100000000000D+01
  </mgrwgt>
  </event>
  <event>
  6     66 0.18411016E-05 0.50066345E+02 0.75467711E-02 0.93500168E-01
        2 -1    0    0  503    0 0.00000000E+00 0.00000000E+00 0.82767099E+03 0.82767106E+03 0.32000000E+00 0.0000E+00 0.9000E+01
        2 -1    0    0  501    0 0.00000000E+00 0.00000000E+00 -.85093657E+03 0.85093663E+03 0.32000000E+00 0.0000E+00 0.9000E+01
       25  1    1    2    0    0 0.59677380E+02 -.52810937E+03 -.23849068E+03 0.59578830E+03 0.12500000E+03 0.0000E+00 0.9000E+01
        2  1    1    2  501    0 -.56904912E+01 0.22163172E+02 -.31099178E+03 0.31183261E+03 0.32000000E+00 0.0000E+00 0.9000E+01
        2  1    1    2  502    0 -.63928098E+00 0.47533073E+03 0.36769598E+03 0.60094937E+03 0.32000000E+00 0.0000E+00 0.9000E+01
       21  1    1    2  503  502 -.53347608E+02 0.30615471E+02 0.15852091E+03 0.17003739E+03 0.75000000E+00 0.0000E+00 0.9000E+01
#aMCatNLO 2  0  0  1  2 0.61508327D+02 0.00000000D+00  -5  6  0 0.00000000D+00 0.00000000D+00 0.00000000D+00 0.00000000D+00 0.00000000D+00
  <mgrwgt>
 0.4843957834D-02    1    2    0
 0.748156853807005D+03 0.000000000000000D+00 0.000000000000000D+00 0.748156853807005D+03
 0.748156853807005D+03 0.000000000000000D+00 0.000000000000000D+00 -.748156853807005D+03
 0.558744685139156D+03 0.395433654121741D+02 -.516548094289573D+03 -.167883923318894D+03
 0.277289448121472D+03 -.155567687406612D+02 0.278271205065996D+02 -.275450678616284D+03
 0.660279574353381D+03 -.239865966715129D+02 0.488720973782973D+03 0.443334601935179D+03
 0.000000000000000D+00 -.000000000000000D+00 0.000000000000000D+00 0.000000000000000D+00
 0.934214174824795D+03 0.000000000000000D+00 0.000000000000000D+00 0.934214174824795D+03
 0.753889487422804D+03 0.000000000000000D+00 0.000000000000000D+00 -.753889487422804D+03
 0.571195264812599D+03 0.596775624714015D+02 -.528102837876169D+03 -.167883923318894D+03
 0.276399624071649D+03 -.569068259196543D+01 0.221651070021077D+02 -.275450678616284D+03
 0.649982483369304D+03 -.639272355257301D+00 0.475322259887710D+03 0.443334601935179D+03
 0.190526289994046D+03 -.533476075241787D+02 0.306154709863506D+02 0.180324687401991D+03
0.242132490476D-03 0.000000000000D+00 0.000000000000D+00 0.141931249983D-05 0.405698368273D-08  6 2 2 25 2 2 21 2 0.12733388D+00 0.13091320D+00 0.30563268D+06 0.30563268D+06 0.30563268D+06 0.10839547D+01  1  2  1  1  6  1        2 0.484395783385D-02 0.100000000000D+01
  </mgrwgt>
  </event>
  <event>
  6     66 0.18411016E-05 0.18891735E+03 0.75467711E-02 0.86695804E-01
        2 -1    0    0  502    0 0.00000000E+00 0.00000000E+00 0.20527748E+04 0.20527748E+04 0.32000000E+00 0.0000E+00 0.9000E+01
        2 -1    0    0  501    0 0.00000000E+00 0.00000000E+00 -.11539075E+04 0.11539075E+04 0.32000000E+00 0.0000E+00 0.9000E+01
       25  1    1    2    0    0 0.18895762E+03 0.91221907E+03 0.46828777E+03 0.10501272E+04 0.12500000E+03 0.0000E+00 0.9000E+01
        2  1    1    2  501    0 0.21754193E+03 -.19534449E+02 -.65135026E+03 0.68699589E+03 0.32000000E+00 0.0000E+00 0.9000E+01
        2  1    1    2  503    0 -.40044384E+03 -.77973017E+03 0.90783973E+03 0.12619459E+04 0.32000000E+00 0.0000E+00 0.9000E+01
       21  1    1    2  502  503 -.60557205E+01 -.11295446E+03 0.17409008E+03 0.20761334E+03 0.75000000E+00 0.0000E+00 0.9000E+01
#aMCatNLO 2  0  0  5  1 0.55677074D+02 0.00000000D+00  -5  6  0 0.00000000D+00 0.00000000D+00 0.00000000D+00 0.00000000D+00 0.00000000D+00
  <mgrwgt>
 0.2446555656D-03    3    2    0
 0.153906212533054D+04 0.000000000000000D+00 0.000000000000000D+00 0.153906212533054D+04
 0.153906212533054D+04 -.000000000000000D+00 -.000000000000000D+00 -.153906212533054D+04
 0.959456144192975D+03 0.189987474277499D+03 0.914647334004852D+03 0.179599851461865D+03
 0.908262568698719D+03 0.218718938751005D+03 -.171163967372960D+02 -.881368225257503D+03
 0.121040553776938D+04 -.408706413028504D+03 -.897530937267556D+03 0.701768373795638D+03
 0.000000000000000D+00 0.000000000000000D+00 0.000000000000000D+00 0.000000000000000D+00
 0.153906212533054D+04 0.000000000000000D+00 0.000000000000000D+00 0.153906212533054D+04
 0.153906212533054D+04 -.000000000000000D+00 -.000000000000000D+00 -.153906212533054D+04
 0.957151426607373D+03 0.188815829767994D+03 0.912074369252556D+03 0.181611620878471D+03
 0.906196802687449D+03 0.217609738624390D+03 -.195522318441673D+02 -.879463675819924D+03
 0.104928602232045D+04 -.400369339620174D+03 -.779537470814502D+03 0.577084811899702D+03
 0.165489999045798D+03 -.605622877221004D+01 -.112984666593887D+03 0.120767243041750D+03
-.377856364341D-08 0.000000000000D+00 0.000000000000D+00 0.238621457434D-07 0.000000000000D+00  6 2 2 25 2 2 21 2 0.31581151D+00 0.17752423D+00 0.11531951D+07 0.11531951D+07 0.11531951D+07 0.10437680D+01  1  2 13  3  6  5        2 -.816787627680D-08 0.100000000000D+01
-.244816427798D-03 0.000000000000D+00 0.000000000000D+00 0.238621457434D-07 0.000000000000D+00  6 2 2 25 2 2 21 2 0.31581151D+00 0.17752423D+00 0.11531951D+07 0.11531951D+07 0.11531951D+07 0.10437680D+01  1  2 13  3  6  5        2 -.529203814330D-03 0.100000000000D+01
0.358000988502D-03 0.000000000000D+00 0.000000000000D+00 0.238621457434D-07 0.513873798099D-10  6 2 2 25 2 2 21 2 0.31581151D+00 0.17752423D+00 0.11531951D+07 0.11531951D+07 0.11531951D+07 0.10437680D+01  1  2  1  3  6  5        2 0.773867547833D-03 0.100000000000D+01
  </mgrwgt>
  </event>
  <event>
  5     66 0.18411016E-05 0.10214941E+03 0.75467711E-02 0.93131678E-01
        2 -1    0    0  502    0 0.00000000E+00 0.00000000E+00 0.16961248E+04 0.16961248E+04 0.32000000E+00 0.0000E+00 0.9000E+01
        2 -1    0    0  501    0 0.00000000E+00 0.00000000E+00 -.11714666E+04 0.11714666E+04 0.32000000E+00 0.0000E+00 0.9000E+01
       25  1    1    2    0    0 -.30293025E+03 0.34634997E+03 0.88201061E+03 0.10026429E+04 0.12500000E+03 0.0000E+00 0.9000E+01
        2  1    1    2  501    0 -.91237764E+02 0.45912956E+02 -.10056503E+04 0.10108239E+04 0.32000000E+00 0.0000E+00 0.9000E+01
        2  1    1    2  502    0 0.39416801E+03 -.39226292E+03 0.64829791E+03 0.85412465E+03 0.32000000E+00 0.0000E+00 0.9000E+01
#aMCatNLO 1  0  0  1  5 0.12083140D+02 0.00000000D+00  -5  6  0 0.00000000D+00 0.00000000D+00 0.00000000D+00 0.00000000D+00 0.00000000D+00
  <mgrwgt>
 0.4900029112D-02   11    2    0
 0.140959342700722D+04 0.000000000000000D+00 0.000000000000000D+00 0.140959342700722D+04
 0.140959342700722D+04 0.000000000000000D+00 0.000000000000000D+00 -.140959342700722D+04
 0.855787035810452D+03 -.302845739261263D+03 0.346270735829198D+03 0.710723213621762D+03
 0.121540239352056D+04 -.912473304075132D+02 0.459176061685067D+02 -.121110217418382D+04
 0.747997424683420D+03 0.394093069668776D+03 -.392188341997704D+03 0.500378960562054D+03
 0.000000000000000D+00 -.000000000000000D+00 -.000000000000000D+00 0.000000000000000D+00
 0.144933146102678D+04 0.000000000000000D+00 0.000000000000000D+00 0.144933146102678D+04
 0.141052520327540D+04 0.000000000000000D+00 0.000000000000000D+00 -.141052520327540D+04
 0.854971339286242D+03 -.299330242791168D+03 0.347310970702980D+03 0.710723213621762D+03
 0.121509438180647D+04 -.862528186409077D+02 0.473954814448259D+02 -.121110217418382D+04
 0.749147027196425D+03 0.397169603510388D+03 -.391277996099297D+03 0.500378960562054D+03
 0.406439160130459D+02 -.115865420783123D+02 -.342845604850923D+01 0.388062577513790D+02
0.112574284398D-03 0.000000000000D+00 0.000000000000D+00 0.172992980006D-05 0.000000000000D+00  6 2 2 25 2 2 21 0 0.26094228D+00 0.18022563D+00 0.32196380D+06 0.32196380D+06 0.32196380D+06 0.10822889D+01  1  2  2  1  6  1        2 0.374649934502D-03 0.100000000000D+01
0.304059909350D-04 0.000000000000D+00 -.432314893578D-06 0.172992980006D-05 0.000000000000D+00  6 2 2 25 2 2 21 2 0.26094228D+00 0.18022563D+00 0.32196380D+06 0.32196380D+06 0.32196380D+06 0.10822889D+01  1  2  3  1  6  1        2 0.118531017839D-03 0.100000000000D+01
-.690632440662D-04 0.000000000000D+00 0.000000000000D+00 0.172992980006D-05 0.000000000000D+00  6 2 2 25 2 2 21 2 0.26094228D+00 0.18022563D+00 0.32196380D+06 0.32196380D+06 0.32196380D+06 0.10822889D+01  1  2 15  1  6  1        2 -.269227752910D-03 0.100000000000D+01
0.628541234834D-09 0.000000000000D+00 0.000000000000D+00 0.172992980006D-05 0.000000000000D+00  6 2 2 25 2 2 21 2 0.26839763D+00 0.18022563D+00 0.32676510D+06 0.32676510D+06 0.32676510D+06 0.10818166D+01  1  2 12  1  6  1        2 0.230132935702D-08 0.100000000000D+01
0.208731864974D-02 0.000000000000D+00 0.000000000000D+00 0.172992980006D-05 0.000000000000D+00  6 2 2 25 2 2 21 2 0.26928797D+00 0.18022563D+00 0.32676510D+06 0.32676510D+06 0.32676510D+06 0.10818166D+01  1  2 12  1  6  1        2 0.758715571009D-02 0.100000000000D+01
-.150349919155D-02 0.000000000000D+00 0.000000000000D+00 0.172992980006D-05 0.000000000000D+00  6 2 2 25 2 2 21 2 0.26094228D+00 0.18022563D+00 0.32196380D+06 0.32196380D+06 0.32196380D+06 0.10822889D+01  1  2  4  1  6  1        2 -.586105843007D-02 0.100000000000D+01
-.126525141330D-01 0.000000000000D+00 -.816436648089D-03 0.172992980006D-05 0.000000000000D+00  6 2 2 25 2 2 21 2 0.26836390D+00 0.18022563D+00 0.32196380D+06 0.32196380D+06 0.32196380D+06 0.10822889D+01  1  2  5  1  6  1        2 -.464249202908D-01 0.100000000000D+01
0.126707486686D-01 0.000000000000D+00 0.816115688122D-03 0.172992980006D-05 0.000000000000D+00  6 2 2 25 2 2 21 2 0.26094228D+00 0.18022563D+00 0.32196380D+06 0.32196380D+06 0.32196380D+06 0.10822889D+01  1  2  6  1  6  1        2 0.493941059076D-01 0.100000000000D+01
0.241111151550D-10 0.000000000000D+00 0.000000000000D+00 0.172992980006D-05 0.000000000000D+00  6 21 2 25 2 2 -2 2 0.26839763D+00 0.18022563D+00 0.32676510D+06 0.32676510D+06 0.32676510D+06 0.10818166D+01  1  2 12  4  6  1        2 0.230931946248D-10 0.100000000000D+01
0.890505926039D-04 0.000000000000D+00 0.000000000000D+00 0.172992980006D-05 0.000000000000D+00  6 21 2 25 2 2 -2 2 0.26928797D+00 0.18022563D+00 0.32676510D+06 0.32676510D+06 0.32676510D+06 0.10818166D+01  1  2 12  4  6  1        2 0.841210402175D-04 0.100000000000D+01
-.107550413167D-03 0.000000000000D+00 -.411812256698D-05 0.172992980006D-05 0.000000000000D+00  6 21 2 25 2 2 -2 2 0.26836390D+00 0.18022563D+00 0.32196380D+06 0.32196380D+06 0.32196380D+06 0.10822889D+01  1  2  5  4  6  1        2 -.103330348931D-03 0.100000000000D+01
  </mgrwgt>
  </event>
  <event>
  5     66 0.18411016E-05 0.14584578E+03 0.75467711E-02 0.91242118E-01
        2 -1    0    0  502    0 0.00000000E+00 0.00000000E+00 0.70821753E+03 0.70821760E+03 0.32000000E+00 0.0000E+00 0.9000E+01
        2 -1    0    0  501    0 -.00000000E+00 -.00000000E+00 -.15061786E+04 0.15061786E+04 0.32000000E+00 0.0000E+00 0.9000E+01
       25  1    1    2    0    0 -.22134912E+03 -.55018734E+03 0.24549748E+03 0.65390791E+03 0.12500000E+03 0.0000E+00 0.9000E+01
        2  1    1    2  501    0 0.35570086E+03 0.49314867E+03 -.12007387E+04 0.13459168E+04 0.32000000E+00 0.0000E+00 0.9000E+01
        2  1    1    2  502    0 -.13435174E+03 0.57038673E+02 0.15728009E+03 0.21457150E+03 0.32000000E+00 0.0000E+00 0.9000E+01
#aMCatNLO 1  0  0  5  1 0.85512976D+01 0.00000000D+00  -5  6  0 0.00000000D+00 0.00000000D+00 0.00000000D+00 0.00000000D+00 0.00000000D+00
  <mgrwgt>
 0.1453183566D-02    9    2    0
 0.103281276679227D+04 0.000000000000000D+00 0.000000000000000D+00 0.103281276679227D+04
 0.103281276679227D+04 -.000000000000000D+00 -.000000000000000D+00 -.103281276679227D+04
 0.796021920651476D+03 -.221489691726197D+03 -.550225966304790D+03 0.515964728078053D+03
 0.979044342438458D+03 0.355737935540669D+03 0.493231232601404D+03 -.767268725326737D+03
 0.290559270494604D+03 -.134248243814472D+03 0.569947337033864D+02 0.251303997248684D+03
 0.000000000000000D+00 -.000000000000000D+00 0.000000000000000D+00 0.000000000000000D+00
 0.103281276679227D+04 0.000000000000000D+00 0.000000000000000D+00 0.103281276679227D+04
 0.103281276679227D+04 -.000000000000000D+00 -.000000000000000D+00 -.103281276679227D+04
 0.796483066537856D+03 -.221874324908597D+03 -.550062671313500D+03 0.516684736425761D+03
 0.978280388257969D+03 0.355265188487307D+03 0.493431936101501D+03 -.766383773532794D+03
 0.190771303466655D+02 -.446679605223647D+01 0.111858970363412D+02 0.147939292543862D+02
 0.271784948442047D+03 -.128924067526474D+03 0.454448381756586D+02 0.234905107852647D+03
0.775632576415D-04 0.000000000000D+00 0.000000000000D+00 0.386561022975D-07 0.000000000000D+00  6 2 2 25 2 2 21 0 0.10895655D+00 0.23171979D+00 0.46249557D+06 0.46249557D+06 0.46249557D+06 0.10709119D+01  1  2  2  3  6  5        2 0.644347139928D-03 0.100000000000D+01
0.635937255664D-05 0.000000000000D+00 -.297863332218D-06 0.386561022975D-07 0.000000000000D+00  6 2 2 25 2 2 21 2 0.10895655D+00 0.23171979D+00 0.46249557D+06 0.46249557D+06 0.46249557D+06 0.10709119D+01  1  2  3  3  6  5        2 0.605878576836D-04 0.100000000000D+01
-.608598961128D-04 0.000000000000D+00 0.000000000000D+00 0.386561022975D-07 0.000000000000D+00  6 2 2 25 2 2 21 2 0.10895655D+00 0.23171979D+00 0.46249557D+06 0.46249557D+06 0.46249557D+06 0.10709119D+01  1  2 15  3  6  5        2 -.579832474270D-03 0.100000000000D+01
0.714263766733D-08 0.000000000000D+00 0.000000000000D+00 0.386561022975D-07 0.000000000000D+00  6 2 2 25 2 2 21 2 0.10895655D+00 0.23171979D+00 0.46438607D+06 0.46438607D+06 0.46438607D+06 0.10707858D+01  1  2 12  3  6  5        2 0.680206328937D-07 0.100000000000D+01
0.982517586480D-04 0.000000000000D+00 0.000000000000D+00 0.386561022975D-07 0.000000000000D+00  6 2 2 25 2 2 21 2 0.10895655D+00 0.23171979D+00 0.46438607D+06 0.46438607D+06 0.46438607D+06 0.10707858D+01  1  2 12  3  6  5        2 0.935669302773D-03 0.100000000000D+01
-.159382164707D-03 0.000000000000D+00 0.000000000000D+00 0.386561022975D-07 0.000000000000D+00  6 2 2 25 2 2 21 2 0.10895655D+00 0.23171979D+00 0.46249557D+06 0.46249557D+06 0.46249557D+06 0.10709119D+01  1  2  4  3  6  5        2 -.151848689892D-02 0.100000000000D+01
-.971695595145D-04 0.000000000000D+00 0.000000000000D+00 0.386561022975D-07 0.000000000000D+00  6 2 2 25 2 2 21 2 0.10895655D+00 0.23171979D+00 0.46249557D+06 0.46249557D+06 0.46249557D+06 0.10709119D+01  1  2  5  3  6  5        2 -.925766715287D-03 0.100000000000D+01
0.297636844487D-03 0.000000000000D+00 -.000000000000D+00 0.386561022975D-07 0.000000000000D+00  6 2 2 25 2 2 21 2 0.10895655D+00 0.23171979D+00 0.46249557D+06 0.46249557D+06 0.46249557D+06 0.10709119D+01  1  2  6  3  6  5        2 0.283568522124D-02 0.100000000000D+01
0.957781354224D-07 0.000000000000D+00 0.000000000000D+00 0.386561022975D-07 0.941678159342D-10  6 2 2 25 2 2 21 2 0.10895655D+00 0.23171979D+00 0.46438607D+06 0.46438607D+06 0.46438607D+06 0.10707858D+01  1  2 11  3  6  5        2 0.912112540526D-06 0.100000000000D+01
  </mgrwgt>
  </event>
  <event>
  5     66 0.18411016E-05 0.15976945E+03 0.75467711E-02 0.85714985E-01
        2 -1    0    0  502    0 0.00000000E+00 0.00000000E+00 0.16930802E+04 0.16930802E+04 0.32000000E+00 0.0000E+00 0.9000E+01
        2 -1    0    0  501    0 0.00000000E+00 0.00000000E+00 -.12284506E+04 0.12284506E+04 0.32000000E+00 0.0000E+00 0.9000E+01
       25  1    1    2    0    0 0.78640191E+02 0.58026735E+03 0.52335034E+02 0.60104778E+03 0.12500000E+03 0.0000E+00 0.9000E+01
        2  1    1    2  501    0 -.67035341E+02 -.14500934E+03 -.91228903E+03 0.92617105E+03 0.32000000E+00 0.0000E+00 0.9000E+01
        2  1    1    2  502    0 -.11604851E+02 -.43525800E+03 0.13245836E+04 0.13943120E+04 0.32000000E+00 0.0000E+00 0.9000E+01
#aMCatNLO 1  0  0  2  4 0.88138475D+02 0.00000000D+00  -5  6  0 0.00000000D+00 0.00000000D+00 0.00000000D+00 0.00000000D+00 0.00000000D+00
  <mgrwgt>
 0.7964926540D-02    7    2    0
 0.144217384756291D+04 0.000000000000000D+00 0.000000000000000D+00 0.144217384756291D+04
 0.144217384756291D+04 0.000000000000000D+00 0.000000000000000D+00 -.144217384756291D+04
 0.600358814891706D+03 0.786457264984962D+02 0.580266051014751D+03 -.437248940701285D+02
 0.108511685139132D+04 -.670412814265272D+02 -.145023256403029D+03 -.107329040937687D+04
 0.119887202884279D+04 -.116044450719689D+02 -.435242794611722D+03 0.111701530344699D+04
 0.000000000000000D+00 -.000000000000000D+00 0.000000000000000D+00 -.000000000000000D+00
 0.186654679395202D+04 0.000000000000000D+00 0.000000000000000D+00 0.186654679395202D+04
 0.199847608390860D+04 0.000000000000000D+00 0.000000000000000D+00 -.199847608390860D+04
 0.618394330134418D+03 0.251390770318832D+03 0.549251637939711D+03 -.437248940701285D+02
 0.111920539774729D+04 0.245397496742475D+03 -.201118094856815D+03 -.107329040937687D+04
 0.126891004833976D+04 0.338176907125323D+03 -.498042068634746D+03 0.111701530344699D+04
 0.858513101639157D+03 -.834965174186629D+03 0.149908525551851D+03 -.131929289956578D+03
0.307617476958D-02 0.000000000000D+00 0.000000000000D+00 0.553415307029D-05 0.000000000000D+00  6 2 2 25 2 2 21 0 0.26047387D+00 0.18899240D+00 0.35636802D+06 0.35636802D+06 0.35636802D+06 0.10790625D+01  1  2  2  2  6  2        2 0.945778161870D-02 0.100000000000D+01
0.561680944443D-03 0.000000000000D+00 -.118133210906D-04 0.553415307029D-05 0.000000000000D+00  6 2 2 25 2 2 21 2 0.26047387D+00 0.18899240D+00 0.35636802D+06 0.35636802D+06 0.35636802D+06 0.10790625D+01  1  2  3  2  6  2        2 0.201076422077D-02 0.100000000000D+01
-.194325740778D-02 0.000000000000D+00 0.000000000000D+00 0.553415307029D-05 0.000000000000D+00  6 2 2 25 2 2 21 2 0.26047387D+00 0.18899240D+00 0.35636802D+06 0.35636802D+06 0.35636802D+06 0.10790625D+01  1  2 15  2  6  2        2 -.695667621624D-02 0.100000000000D+01
-.261533036243D-04 0.000000000000D+00 0.000000000000D+00 0.553415307029D-05 0.000000000000D+00  6 2 2 25 2 2 21 2 0.26047387D+00 0.18899240D+00 0.35636802D+06 0.35636802D+06 0.35636802D+06 0.10790625D+01  1  2  4  2  6  2        2 -.936263330685D-04 0.100000000000D+01
-.648245929290D-04 0.000000000000D+00 -.182726081402D-02 0.553415307029D-05 0.000000000000D+00  6 2 2 25 2 2 21 2 0.26047387D+00 0.30461020D+00 0.35636802D+06 0.35636802D+06 0.35636802D+06 0.10790625D+01  1  2  5  2  6  2        2 -.891055422763D-04 0.100000000000D+01
0.100985637283D-02 0.000000000000D+00 0.163718442355D-02 0.553415307029D-05 0.000000000000D+00  6 2 2 25 2 2 21 2 0.26047387D+00 0.18899240D+00 0.35636802D+06 0.35636802D+06 0.35636802D+06 0.10790625D+01  1  2  6  2  6  2        2 0.361518951764D-02 0.100000000000D+01
0.745897969982D-04 0.000000000000D+00 -.993446440487D-04 0.553415307029D-05 0.000000000000D+00  6 2 21 25 2 2 -2 2 0.26047387D+00 0.30461020D+00 0.35636802D+06 0.35636802D+06 0.35636802D+06 0.10790625D+01  1  2  5  5  6  2        2 0.205992747591D-04 0.100000000000D+01
  </mgrwgt>
  </event>
  <event>
  6     66 0.18411016E-05 0.77534774E+02 0.75467711E-02 0.89165897E-01
        2 -1    0    0  502    0 0.00000000E+00 0.00000000E+00 0.39336648E+04 0.39336648E+04 0.32000000E+00 0.0000E+00 0.9000E+01
        2 -1    0    0  501    0 0.00000000E+00 0.00000000E+00 -.72630469E+03 0.72630476E+03 0.32000000E+00 0.0000E+00 0.9000E+01
       25  1    1    2    0    0 -.85051304E+02 -.79548717E+03 0.57145673E+03 0.99107082E+03 0.12500000E+03 0.0000E+00 0.9000E+01
        2  1    1    2  501    0 -.40886915E+02 0.47457447E+02 -.46417688E+03 0.46838470E+03 0.32000000E+00 0.0000E+00 0.9000E+01
        2  1    1    2  503    0 0.26150952E+02 0.66538951E+03 0.25883752E+04 0.26726604E+04 0.32000000E+00 0.0000E+00 0.9000E+01
       21  1    1    2  502  503 0.99787266E+02 0.82640220E+02 0.51170499E+03 0.52785364E+03 0.75000000E+00 0.0000E+00 0.9000E+01
#aMCatNLO 2  0  0  5  1 0.62120333D+01 0.00000000D+00  -5  6  0 0.00000000D+00 0.00000000D+00 0.00000000D+00 0.00000000D+00 0.00000000D+00
  <mgrwgt>
 0.3317254450D-02    1    2    0
 0.169027789636590D+04 0.000000000000000D+00 0.000000000000000D+00 0.169027789636590D+04
 0.169027789636590D+04 -.000000000000000D+00 -.000000000000000D+00 -.169027789636590D+04
 0.827054146186490D+03 -.854451652057193D+02 -.797912910758684D+03 -.156293542130938D+03
 0.109158735725924D+04 -.414497706000713D+02 0.442006090993309D+02 -.108990420735066D+04
 0.146191428928607D+04 0.126894935805791D+03 0.753712301659353D+03 0.124619774948159D+04
 0.000000000000000D+00 0.000000000000000D+00 0.000000000000000D+00 0.000000000000000D+00
 0.169027789636590D+04 0.000000000000000D+00 0.000000000000000D+00 0.169027789636590D+04
 0.169027789636590D+04 -.000000000000000D+00 -.000000000000000D+00 -.169027789636590D+04
 0.823850631243778D+03 -.850275466414150D+02 -.795432400032872D+03 -.152192233346052D+03
 0.108630245496048D+04 -.408988440844862D+02 0.474729232344062D+02 -.108449372048219D+04
 0.122819458216255D+04 0.261128594192653D+02 0.665292624395971D+03 0.103206868674072D+04
 0.242208124364982D+03 0.998135313066359D+02 0.826668524024942D+02 0.204617267087521D+03
0.128048641789D-01 0.000000000000D+00 0.000000000000D+00 0.916175487165D-05 0.427153995537D-08  6 2 2 25 2 2 21 2 0.60517920D+00 0.11173919D+00 0.69533793D+06 0.69533793D+06 0.69533793D+06 0.10585328D+01  1  2  1  3  6  5        2 0.331725444998D-02 0.100000000000D+01
  </mgrwgt>
  </event>
  <event>
  5     66 -.18411016E-05 0.33536299E+03 0.75467711E-02 0.89089576E-01
        2 -1    0    0  502    0 0.00000000E+00 0.00000000E+00 0.16376343E+04 0.16376343E+04 0.32000000E+00 0.0000E+00 0.9000E+01
        2 -1    0    0  501    0 0.00000000E+00 0.00000000E+00 -.15922588E+04 0.15922588E+04 0.32000000E+00 0.0000E+00 0.9000E+01
       25  1    1    2    0    0 0.80265260E+03 0.45517287E+02 -.72272043E+01 0.81363398E+03 0.12500000E+03 0.0000E+00 0.9000E+01
        2  1    1    2  501    0 -.37396514E+03 0.35603390E+02 -.11114032E+04 0.11731730E+04 0.32000000E+00 0.0000E+00 0.9000E+01
        2  1    1    2  502    0 -.42868747E+03 -.81120677E+02 0.11640059E+04 0.12430862E+04 0.32000000E+00 0.0000E+00 0.9000E+01
#aMCatNLO 1  0  0  2  4 0.10524053D+03 0.00000000D+00  -5  6  0 0.00000000D+00 0.00000000D+00 0.00000000D+00 0.00000000D+00 0.00000000D+00
  <mgrwgt>
 -.1893435179D-03   11    2    0
 0.161478719583262D+04 0.000000000000000D+00 0.000000000000000D+00 0.161478719583262D+04
 0.161478719583262D+04 0.000000000000000D+00 0.000000000000000D+00 -.161478719583262D+04
 0.813826392493629D+03 0.802666245840334D+03 0.455105524316617D+02 -.185495154962173D+02
 0.118896046329380D+04 -.374002211991093D+03 0.356056910458949D+02 -.112804324538854D+04
 0.122678753587781D+04 -.428664033849240D+03 -.811162434775565D+02 0.114659276088476D+04
 0.000000000000000D+00 -.000000000000000D+00 -.000000000000000D+00 -.000000000000000D+00
 0.161958921277562D+04 0.000000000000000D+00 0.000000000000000D+00 0.161958921277562D+04
 0.231753788458545D+04 0.000000000000000D+00 0.000000000000000D+00 -.231753788458545D+04
 0.840299638939911D+03 0.829239306776481D+03 0.499656959749512D+02 -.185495154962173D+02
 0.117776374473577D+04 -.335981465443431D+03 0.419801122651849D+02 -.112804324538854D+04
 0.121322526339998D+04 -.389465927073787D+03 -.745444302894010D+02 0.114659276088476D+04
 0.705838450285405D+03 -.103791914259264D+03 -.174013779507352D+02 -.697948671809837D+03
0.583229654028D-05 0.000000000000D+00 0.000000000000D+00 0.266875744920D-06 0.000000000000D+00  6 2 2 25 2 2 21 0 0.25194374D+00 0.24496290D+00 0.66062724D+06 0.66062724D+06 0.66062724D+06 0.10600633D+01  1  2  2  2  6  2        2 0.114948763176D-04 0.100000000000D+01
0.594802238422D-06 0.000000000000D+00 -.223975543936D-07 0.266875744920D-06 0.000000000000D+00  6 2 2 25 2 2 21 2 0.25194374D+00 0.24496290D+00 0.66062724D+06 0.66062724D+06 0.66062724D+06 0.10600633D+01  1  2  3  2  6  2        2 0.131734926609D-05 0.100000000000D+01
-.405155988712D-05 0.000000000000D+00 0.000000000000D+00 0.266875744920D-06 0.000000000000D+00  6 2 2 25 2 2 21 2 0.25194374D+00 0.24496290D+00 0.66062724D+06 0.66062724D+06 0.66062724D+06 0.10600633D+01  1  2 15  2  6  2        2 -.897326724590D-05 0.100000000000D+01
0.160816191139D-09 0.000000000000D+00 0.000000000000D+00 0.266875744920D-06 0.000000000000D+00  6 2 2 25 2 2 21 2 0.25194374D+00 0.35196692D+00 0.70599074D+06 0.70599074D+06 0.70599074D+06 0.10580797D+01  1  2 12  2  6  2        2 0.144643611919D-09 0.100000000000D+01
0.195339562733D-03 0.000000000000D+00 0.000000000000D+00 0.266875744920D-06 0.000000000000D+00  6 2 2 25 2 2 21 2 0.25194374D+00 0.37284033D+00 0.70599074D+06 0.70599074D+06 0.70599074D+06 0.10580797D+01  1  2 12  2  6  2        2 0.146785531147D-03 0.100000000000D+01
-.281865395290D-03 0.000000000000D+00 0.000000000000D+00 0.266875744920D-06 0.000000000000D+00  6 2 2 25 2 2 21 2 0.25194374D+00 0.24496290D+00 0.66062724D+06 0.66062724D+06 0.66062724D+06 0.10600633D+01  1  2  4  2  6  2        2 -.624266600958D-03 0.100000000000D+01
-.240861107994D-03 0.000000000000D+00 -.384989787937D-05 0.266875744920D-06 0.000000000000D+00  6 2 2 25 2 2 21 2 0.25194374D+00 0.35185120D+00 0.66062724D+06 0.66062724D+06 0.66062724D+06 0.10600633D+01  1  2  5  2  6  2        2 -.218918685227D-03 0.100000000000D+01
0.227421375630D-03 0.000000000000D+00 0.361059403176D-05 0.266875744920D-06 0.000000000000D+00  6 2 2 25 2 2 21 2 0.25194374D+00 0.24496290D+00 0.66062724D+06 0.66062724D+06 0.66062724D+06 0.10600633D+01  1  2  6  2  6  2        2 0.503685700771D-03 0.100000000000D+01
0.712442530343D-11 0.000000000000D+00 0.000000000000D+00 0.266875744920D-06 0.000000000000D+00  6 2 21 25 2 2 -2 2 0.25194374D+00 0.35196692D+00 0.70599074D+06 0.70599074D+06 0.70599074D+06 0.10580797D+01  1  2 12  5  6  2        2 0.895393655270D-12 0.100000000000D+01
0.963974968022D-05 0.000000000000D+00 0.000000000000D+00 0.266875744920D-06 0.000000000000D+00  6 2 21 25 2 2 -2 2 0.25194374D+00 0.37284033D+00 0.70599074D+06 0.70599074D+06 0.70599074D+06 0.10580797D+01  1  2 12  5  6  2        2 0.876662162612D-06 0.100000000000D+01
-.105491845405D-04 0.000000000000D+00 -.170444941562D-06 0.266875744920D-06 0.000000000000D+00  6 2 21 25 2 2 -2 2 0.25194374D+00 0.35185120D+00 0.66062724D+06 0.66062724D+06 0.66062724D+06 0.10600633D+01  1  2  5  5  6  2        2 -.134522962826D-05 0.100000000000D+01
  </mgrwgt>
  </event>
  <event>
  5     66 0.18411016E-05 0.47727463E+02 0.75467711E-02 0.86734969E-01
        2 -1    0    0  502    0 0.00000000E+00 0.00000000E+00 0.12745115E+04 0.12745115E+04 0.32000000E+00 0.0000E+00 0.9000E+01
        2 -1    0    0  501    0 -.00000000E+00 -.00000000E+00 -.25322963E+04 0.25322963E+04 0.32000000E+00 0.0000E+00 0.9000E+01
       25  1    1    2    0    0 -.95118183E+02 0.70739045E+03 -.72971177E+03 0.10283739E+04 0.12500000E+03 0.0000E+00 0.9000E+01
        2  1    1    2  501    0 -.36568836E+02 -.30665748E+02 -.15472462E+04 0.15479821E+04 0.32000000E+00 0.0000E+00 0.9000E+01
        2  1    1    2  502    0 0.13168702E+03 -.67672470E+03 0.10191731E+04 0.12304518E+04 0.32000000E+00 0.0000E+00 0.9000E+01
#aMCatNLO 1  0  0  5  1 0.48401018D+02 0.00000000D+00  -5  6  0 0.00000000D+00 0.00000000D+00 0.00000000D+00 0.00000000D+00 0.00000000D+00
  <mgrwgt>
 0.5101908933D-02    3    2    0
 0.179650794261891D+04 0.000000000000000D+00 0.000000000000000D+00 0.179650794261891D+04
 0.179650794261891D+04 -.000000000000000D+00 -.000000000000000D+00 -.179650794261891D+04
 0.834086260349824D+03 -.951152557070097D+02 0.707386673847586D+03 -.413076350689547D+03
 0.109850131401707D+04 -.365706895269843D+02 -.306674976820277D+02 -.109746399765581D+04
 0.166042831087093D+04 0.131685945233994D+03 -.676719176165558D+03 0.151054034834536D+04
 0.000000000000000D+00 -.000000000000000D+00 0.000000000000000D+00 0.000000000000000D+00
 0.179650794261891D+04 0.000000000000000D+00 0.000000000000000D+00 0.179650794261891D+04
 0.179650794261891D+04 -.000000000000000D+00 -.000000000000000D+00 -.179650794261891D+04
 0.683094487752394D+03 -.792174669975456D+02 0.625689736036902D+03 -.230716333054836D+03
 0.871606125587685D+03 -.159269054235035D+02 -.136753568952759D+03 -.860663716688631D+03
 0.930796889056151D+03 0.193734257674618D+03 -.907653622948744D+03 0.708151595909558D+02
 0.110751838284159D+04 -.985898852535684D+02 0.418717455864601D+03 0.102056489015251D+04
0.655969898585D-02 0.000000000000D+00 0.000000000000D+00 0.301187692402D-04 0.000000000000D+00  6 2 2 25 2 2 21 0 0.19607869D+00 0.38958406D+00 0.53418259D+06 0.53418259D+06 0.53418259D+06 0.10664865D+01  1  2  2  3  6  5        2 0.623354094687D-02 0.100000000000D+01
0.358381661751D-02 0.000000000000D+00 -.251909713141D-04 0.301187692402D-04 0.000000000000D+00  6 2 2 25 2 2 21 2 0.19607869D+00 0.38958406D+00 0.53418259D+06 0.53418259D+06 0.53418259D+06 0.10664865D+01  1  2  3  3  6  5        2 0.387353463455D-02 0.100000000000D+01
-.463080909317D-02 0.000000000000D+00 0.000000000000D+00 0.301187692402D-04 0.000000000000D+00  6 2 2 25 2 2 21 2 0.19607869D+00 0.38958406D+00 0.53418259D+06 0.53418259D+06 0.53418259D+06 0.10664865D+01  1  2 15  3  6  5        2 -.500516664853D-02 0.100000000000D+01
  </mgrwgt>
  </event>
  <event>
  6     66 -.18411016E-05 0.14579113E+03 0.75467711E-02 0.91769570E-01
        2 -1    0    0  502    0 0.00000000E+00 0.00000000E+00 0.16724225E+04 0.16724226E+04 0.32000000E+00 0.0000E+00 0.9000E+01
        2 -1    0    0  501    0 0.00000000E+00 0.00000000E+00 -.93848679E+03 0.93848685E+03 0.32000000E+00 0.0000E+00 0.9000E+01
       25  1    1    2    0    0 -.60045618E+03 -.21206841E+03 0.42695898E+03 0.77681375E+03 0.12500000E+03 0.0000E+00 0.9000E+01
        2  1    1    2  501    0 0.44816368E+03 0.20976476E+03 -.67684938E+03 0.83843731E+03 0.32000000E+00 0.0000E+00 0.9000E+01
        2  1    1    2  503    0 0.65038102E+02 0.60264663E+01 0.45632667E+03 0.46097767E+03 0.32000000E+00 0.0000E+00 0.9000E+01
       21  1    1    2  502  503 0.87254398E+02 -.37228176E+01 0.52749947E+03 0.53468069E+03 0.75000000E+00 0.0000E+00 0.9000E+01
#aMCatNLO 2  0  0  5  1 0.74068686D+01 0.00000000D+00  -5  6  0 0.00000000D+00 0.00000000D+00 0.00000000D+00 0.00000000D+00 0.00000000D+00
  <mgrwgt>
 -.3907284518D-03    3    2    0
 0.125281546112792D+04 0.000000000000000D+00 0.000000000000000D+00 0.125281546112792D+04
 0.125281546112792D+04 -.000000000000000D+00 -.000000000000000D+00 -.125281546112792D+04
 0.684662599358360D+03 -.600585722327085D+03 -.212155895756613D+03 0.217771763534002D+03
 0.107211634598966D+04 0.448357188276190D+03 0.209853214671571D+03 -.950984184595780D+03
 0.748851976907812D+03 0.152228534050896D+03 0.230268108504182D+01 0.733212421061779D+03
 0.000000000000000D+00 0.000000000000000D+00 0.000000000000000D+00 0.000000000000000D+00
 0.125281546112792D+04 0.000000000000000D+00 0.000000000000000D+00 0.125281546112792D+04
 0.125281546112792D+04 -.000000000000000D+00 -.000000000000000D+00 -.125281546112792D+04
 0.684667920478510D+03 -.600577539200238D+03 -.212155771974750D+03 0.217811177762645D+03
 0.107206699910208D+04 0.448370001927855D+03 0.209853408496950D+03 -.950922467332204D+03
 0.347093898661669D+03 0.651394822642271D+02 0.601177326392043D+01 0.340873702301496D+03
 0.401802104013576D+03 0.870680550081569D+02 -.370940978611977D+01 0.392237587268063D+03
-.245350555832D-09 0.000000000000D+00 0.000000000000D+00 0.120961209703D-05 0.000000000000D+00  6 2 2 25 2 2 21 2 0.25729578D+00 0.14438259D+00 0.42036494D+06 0.42036494D+06 0.42036494D+06 0.10738764D+01  1  2 13  3  6  5        2 -.132423599047D-08 0.100000000000D+01
-.540271686034D-03 0.000000000000D+00 0.000000000000D+00 0.120961209703D-05 0.000000000000D+00  6 2 2 25 2 2 21 2 0.25729578D+00 0.14438259D+00 0.42036494D+06 0.42036494D+06 0.42036494D+06 0.10738764D+01  1  2 13  3  6  5        2 -.291602034016D-02 0.100000000000D+01
0.467878911165D-03 0.000000000000D+00 0.000000000000D+00 0.120961209703D-05 0.329245827966D-07  6 2 2 25 2 2 21 2 0.25729578D+00 0.14438259D+00 0.42036494D+06 0.42036494D+06 0.42036494D+06 0.10738764D+01  1  2  1  3  6  5        2 0.252529321258D-02 0.100000000000D+01
  </mgrwgt>
  </event>
  <event>
  5     66 0.18411016E-05 0.50065798E+02 0.75467711E-02 0.94912703E-01
        2 -1    0    0  502    0 0.00000000E+00 0.00000000E+00 0.16358292E+04 0.16358292E+04 0.32000000E+00 0.0000E+00 0.9000E+01
        2 -1    0    0  501    0 0.00000000E+00 0.00000000E+00 -.13130299E+04 0.13130300E+04 0.32000000E+00 0.0000E+00 0.9000E+01
       25  1    1    2    0    0 0.14517704E+03 0.43860498E+03 0.11525712E+03 0.49230063E+03 0.12500000E+03 0.0000E+00 0.9000E+01
        2  1    1    2  501    0 -.39205028E+02 -.31130534E+02 -.10906504E+04 0.10917987E+04 0.32000000E+00 0.0000E+00 0.9000E+01
        2  1    1    2  502    0 -.10597201E+03 -.40747445E+03 0.12981925E+04 0.13647598E+04 0.32000000E+00 0.0000E+00 0.9000E+01
#aMCatNLO 1  0  0  1  4 0.48994279D+02 0.00000000D+00  -5  6  0 0.00000000D+00 0.00000000D+00 0.00000000D+00 0.00000000D+00 0.00000000D+00
  <mgrwgt>
 0.3211980231D-01    9    2    0
 0.146556909456458D+04 0.000000000000000D+00 0.000000000000000D+00 0.146556909456458D+04
 0.146556909456458D+04 0.000000000000000D+00 0.000000000000000D+00 -.146556909456458D+04
 0.482584364826826D+03 0.145177037796687D+03 0.438594708110026D+03 0.618140670864731D+02
 0.121854929584994D+04 -.392084210931916D+02 -.311333231347682D+02 -.121752034985965D+04
 0.123000452845239D+04 -.105968616703495D+03 -.407461384975258D+03 0.115570628277317D+04
 0.000000000000000D+00 -.000000000000000D+00 -.000000000000000D+00 0.000000000000000D+00
 0.150379319338267D+04 0.000000000000000D+00 0.000000000000000D+00 0.150379319338267D+04
 0.148155813214949D+04 0.000000000000000D+00 0.000000000000000D+00 -.148155813214949D+04
 0.487040449691711D+03 0.152953760098871D+03 0.440871373552140D+03 0.618140670864731D+02
 0.121794432685197D+04 -.196669097672844D+02 -.254124703392568D+02 -.121752034985965D+04
 0.122656285622277D+04 -.862661069480011D+02 -.401693399268652D+03 0.115570628277317D+04
 0.538036927657115D+02 -.470207433835853D+02 -.137655039442309D+02 0.222350612331845D+02
0.289527341201D-02 0.000000000000D+00 0.000000000000D+00 0.110435974501D-03 0.000000000000D+00  6 2 2 25 2 2 21 0 0.25166603D+00 0.20200461D+00 0.22547802D+06 0.22547802D+06 0.22547802D+06 0.10938482D+01  1  2  2  1  6  1        2 0.883244810746D-02 0.100000000000D+01
0.137054807015D-02 0.000000000000D+00 -.111186122451D-04 0.110435974501D-03 0.000000000000D+00  6 2 2 25 2 2 21 2 0.25166603D+00 0.20200461D+00 0.22547802D+06 0.22547802D+06 0.22547802D+06 0.10938482D+01  1  2  3  1  6  1        2 0.500264749239D-02 0.100000000000D+01
-.191172079738D-02 0.000000000000D+00 0.000000000000D+00 0.110435974501D-03 0.000000000000D+00  6 2 2 25 2 2 21 2 0.25166603D+00 0.20200461D+00 0.22547802D+06 0.22547802D+06 0.22547802D+06 0.10938482D+01  1  2 15  1  6  1        2 -.697798600532D-02 0.100000000000D+01
0.169815496829D-10 0.000000000000D+00 0.000000000000D+00 0.110435974501D-03 0.000000000000D+00  6 2 2 25 2 2 21 2 0.25985624D+00 0.20200461D+00 0.23769624D+06 0.23769624D+06 0.23769624D+06 0.10921118D+01  1  2 12  1  6  1        2 0.575997276967D-10 0.100000000000D+01
-.287170963264D-03 0.000000000000D+00 0.000000000000D+00 0.110435974501D-03 0.000000000000D+00  6 2 2 25 2 2 21 2 0.25166603D+00 0.20200461D+00 0.22547802D+06 0.22547802D+06 0.22547802D+06 0.10938482D+01  1  2  4  1  6  1        2 -.104820482444D-02 0.100000000000D+01
-.108958299625D+00 0.000000000000D+00 -.191885014728D-01 0.110435974501D-03 0.000000000000D+00  6 2 2 25 2 2 21 2 0.25962222D+00 0.20200461D+00 0.22547802D+06 0.22547802D+06 0.22547802D+06 0.10938482D+01  1  2  5  1  6  1        2 -.372834527481D+00 0.100000000000D+01
0.109511776751D+00 0.000000000000D+00 0.191792108580D-01 0.110435974501D-03 0.000000000000D+00  6 2 2 25 2 2 21 2 0.25166603D+00 0.20200461D+00 0.22547802D+06 0.22547802D+06 0.22547802D+06 0.10938482D+01  1  2  6  1  6  1        2 0.399729733878D+00 0.100000000000D+01
0.406296939960D-12 0.000000000000D+00 0.000000000000D+00 0.110435974501D-03 0.000000000000D+00  6 21 2 25 2 2 -2 2 0.25985624D+00 0.20200461D+00 0.23769624D+06 0.23769624D+06 0.23769624D+06 0.10921118D+01  1  2 12  4  6  1        2 0.390186264935D-12 0.100000000000D+01
-.600496379134D-03 0.000000000000D+00 -.106933015084D-03 0.110435974501D-03 0.000000000000D+00  6 21 2 25 2 2 -2 2 0.25962222D+00 0.20200461D+00 0.22547802D+06 0.22547802D+06 0.22547802D+06 0.10938482D+01  1  2  5  4  6  1        2 -.584308912903D-03 0.100000000000D+01
  </mgrwgt>
  </event>
  <event>
  5     66 -.18411016E-05 0.19553391E+02 0.75467711E-02 0.94386108E-01
        2 -1    0    0  502    0 0.00000000E+00 0.00000000E+00 0.11595205E+04 0.11595206E+04 0.32000000E+00 0.0000E+00 0.9000E+01
        2 -1    0    0  501    0 0.00000000E+00 0.00000000E+00 -.60420676E+03 0.60420684E+03 0.32000000E+00 0.0000E+00 0.9000E+01
       25  1    1    2    0    0 -.16510148E+03 0.45701264E+03 -.59680116E+02 0.50527791E+03 0.12500000E+03 0.0000E+00 0.9000E+01
        2  1    1    2  501    0 -.18519287E+02 -.62725302E+01 -.25811160E+03 0.25885132E+03 0.32000000E+00 0.0000E+00 0.9000E+01
        2  1    1    2  502    0 0.18362076E+03 -.45074011E+03 0.87310549E+03 0.99959818E+03 0.32000000E+00 0.0000E+00 0.9000E+01
#aMCatNLO 1  0  0  1  5 0.11884960D+02 0.00000000D+00  -5  6  0 0.00000000D+00 0.00000000D+00 0.00000000D+00 0.00000000D+00 0.00000000D+00
  <mgrwgt>
 -.7041661273D-02   11    2    0
 0.837012695580038D+03 0.000000000000000D+00 0.000000000000000D+00 0.837012695580038D+03
 0.837012695580038D+03 0.000000000000000D+00 0.000000000000000D+00 -.837012695580038D+03
 0.552140580040939D+03 -.165099838060251D+03 0.457010451938968D+03 -.230472797568310D+03
 0.358357791637554D+03 -.185198490831448D+02 -.627297954651851D+01 -.357823939591653D+03
 0.763527019481584D+03 0.183619687143396D+03 -.450737472392449D+03 0.588296737159963D+03
 0.000000000000000D+00 0.000000000000000D+00 -.000000000000000D+00 0.000000000000000D+00
 0.891721547484857D+03 0.000000000000000D+00 0.000000000000000D+00 0.891721547484857D+03
 0.837679511706447D+03 0.000000000000000D+00 0.000000000000000D+00 -.837679511706447D+03
 0.553595856388723D+03 -.169010990662206D+03 0.457341171148170D+03 -.230472797568310D+03
 0.358494087038218D+03 -.210554597387476D+02 -.605857340178110D+01 -.357823939591653D+03
 0.761977636610624D+03 0.178223752535113D+03 -.450281202998700D+03 0.588296737159963D+03
 0.553334791537391D+02 0.118426978658406D+02 -.100139474768901D+01 0.540420357784105D+02
0.176029320019D-04 0.000000000000D+00 0.000000000000D+00 0.513212040703D-05 0.000000000000D+00  6 2 2 25 2 2 21 0 0.17838778D+00 0.92954896D-01 0.25401375D+06 0.25401375D+06 0.25401375D+06 0.10899391D+01  1  2  2  1  6  1        2 0.285731468826D-03 0.100000000000D+01
0.111268866541D-04 0.000000000000D+00 -.675998938458D-07 0.513212040703D-05 0.000000000000D+00  6 2 2 25 2 2 21 2 0.17838778D+00 0.92954896D-01 0.25401375D+06 0.25401375D+06 0.25401375D+06 0.10899391D+01  1  2  3  1  6  1        2 0.214561204472D-03 0.100000000000D+01
-.121546101562D-04 0.000000000000D+00 0.000000000000D+00 0.513212040703D-05 0.000000000000D+00  6 2 2 25 2 2 21 2 0.17838778D+00 0.92954896D-01 0.25401375D+06 0.25401375D+06 0.25401375D+06 0.10899391D+01  1  2 15  1  6  1        2 -.234378930609D-03 0.100000000000D+01
0.142648248041D-08 0.000000000000D+00 0.000000000000D+00 0.513212040703D-05 0.000000000000D+00  6 2 2 25 2 2 21 2 0.19021398D+00 0.92954896D-01 0.26081637D+06 0.26081637D+06 0.26081637D+06 0.10890780D+01  1  2 12  1  6  1        2 0.247630353346D-07 0.100000000000D+01
0.178180514474D-02 0.000000000000D+00 0.000000000000D+00 0.513212040703D-05 0.000000000000D+00  6 2 2 25 2 2 21 2 0.19074054D+00 0.92954896D-01 0.26081637D+06 0.26081637D+06 0.26081637D+06 0.10890780D+01  1  2 12  1  6  1        2 0.307918816934D-01 0.100000000000D+01
-.218486985007D-02 0.000000000000D+00 0.000000000000D+00 0.513212040703D-05 0.000000000000D+00  6 2 2 25 2 2 21 2 0.17838778D+00 0.92954896D-01 0.25401375D+06 0.25401375D+06 0.25401375D+06 0.10899391D+01  1  2  4  1  6  1        2 -.421311298675D-01 0.100000000000D+01
-.218227929054D-02 0.000000000000D+00 -.637681598113D-04 0.513212040703D-05 0.000000000000D+00  6 2 2 25 2 2 21 2 0.19010801D+00 0.92954896D-01 0.25401375D+06 0.25401375D+06 0.25401375D+06 0.10899391D+01  1  2  5  1  6  1        2 -.380187908278D-01 0.100000000000D+01
0.218204674365D-02 0.000000000000D+00 0.636392750043D-04 0.513212040703D-05 0.000000000000D+00  6 2 2 25 2 2 21 2 0.17838778D+00 0.92954896D-01 0.25401375D+06 0.25401375D+06 0.25401375D+06 0.10899391D+01  1  2  6  1  6  1        2 0.420766915388D-01 0.100000000000D+01
0.214543822397D-10 0.000000000000D+00 0.000000000000D+00 0.513212040703D-05 0.000000000000D+00  6 21 2 25 2 2 -2 2 0.19021398D+00 0.92954896D-01 0.26081637D+06 0.26081637D+06 0.26081637D+06 0.10890780D+01  1  2 12  4  6  1        2 0.184327622492D-09 0.100000000000D+01
0.278433790007D-04 0.000000000000D+00 0.000000000000D+00 0.513212040703D-05 0.000000000000D+00  6 21 2 25 2 2 -2 2 0.19074054D+00 0.92954896D-01 0.26081637D+06 0.26081637D+06 0.26081637D+06 0.10890780D+01  1  2 12  4  6  1        2 0.237030874261D-03 0.100000000000D+01
-.304690560441D-04 0.000000000000D+00 -.693262046766D-06 0.513212040703D-05 0.000000000000D+00  6 21 2 25 2 2 -2 2 0.19010801D+00 0.92954896D-01 0.25401375D+06 0.25401375D+06 0.25401375D+06 0.10899391D+01  1  2  5  4  6  1        2 -.263283374426D-03 0.100000000000D+01
  </mgrwgt>
  </event>
  <event>
  5     66 0.18411016E-05 0.55185544E+02 0.75467711E-02 0.85110527E-01
        2 -1    0    0  502    0 0.00000000E+00 0.00000000E+00 0.18942839E+04 0.18942839E+04 0.32000000E+00 0.0000E+00 0.9000E+01
        2 -1    0    0  501    0 0.00000000E+00 0.00000000E+00 -.55552198E+03 0.55552207E+03 0.32000000E+00 0.0000E+00 0.9000E+01
       25  1    1    2    0    0 -.45591174E+03 -.36606648E+03 0.86905894E+03 0.10548690E+04 0.12500000E+03 0.0000E+00 0.9000E+01
        2  1    1    2  501    0 0.45145498E+03 0.31103725E+03 -.29885679E+03 0.62439671E+03 0.32000000E+00 0.0000E+00 0.9000E+01
        2  1    1    2  502    0 0.44567665E+01 0.55029224E+02 0.76855973E+03 0.77054023E+03 0.32000000E+00 0.0000E+00 0.9000E+01
#aMCatNLO 1  0  0  2  4 0.46400445D+01 0.00000000D+00  -5  6  0 0.00000000D+00 0.00000000D+00 0.00000000D+00 0.00000000D+00 0.00000000D+00
  <mgrwgt>
 0.2890334669D-02    5    2    0
 0.102582476916984D+04 0.000000000000000D+00 0.000000000000000D+00 0.102582476916984D+04
 0.102582476916984D+04 0.000000000000000D+00 0.000000000000000D+00 -.102582476916984D+04
 0.692639281020707D+03 -.455978334337611D+03 -.366094272783958D+03 0.349546728868066D+03
 0.940622925116690D+03 0.451523493943307D+03 0.311088830793727D+03 -.764278588623088D+03
 0.418387332202277D+03 0.445484039430467D+01 0.550054419902303D+02 0.414731859755022D+03
 0.000000000000000D+00 0.000000000000000D+00 0.000000000000000D+00 -.000000000000000D+00
 0.148207710531012D+04 0.000000000000000D+00 0.000000000000000D+00 0.148207710531012D+04
 0.210015199427522D+04 0.000000000000000D+00 0.000000000000000D+00 -.210015199427522D+04
 0.105756036384592D+04 -.887421110437676D+03 -.439442579030657D+03 0.349546728868066D+03
 0.800819302514974D+03 0.222395140779462D+02 0.238107535089605D+03 -.764278588623088D+03
 0.466934281823573D+03 -.213786327701584D+03 0.179029085376318D+02 0.414731859755022D+03
 0.125691515140087D+04 0.107896792406131D+04 0.183432135403420D+03 -.618074888965107D+03
0.698247210087D-03 0.000000000000D+00 0.000000000000D+00 0.249563408521D-05 0.000000000000D+00  6 2 2 25 2 2 21 0 0.29142829D+00 0.85464929D-01 0.36088214D+06 0.36088214D+06 0.36088214D+06 0.10786645D+01  1  2  2  2  6  2        2 0.480980310791D-02 0.100000000000D+01
0.219649433606D-03 0.000000000000D+00 -.268145313945D-05 0.249563408521D-05 0.000000000000D+00  6 2 2 25 2 2 21 2 0.29142829D+00 0.85464929D-01 0.36088214D+06 0.36088214D+06 0.36088214D+06 0.10786645D+01  1  2  3  2  6  2        2 0.176043890631D-02 0.100000000000D+01
-.525520193486D-03 0.000000000000D+00 0.000000000000D+00 0.249563408521D-05 0.000000000000D+00  6 2 2 25 2 2 21 2 0.29142829D+00 0.85464929D-01 0.36088214D+06 0.36088214D+06 0.36088214D+06 0.10786645D+01  1  2 15  2  6  2        2 -.421192160378D-02 0.100000000000D+01
0.259960794011D-03 0.000000000000D+00 -.388458264605D-03 0.249563408521D-05 0.000000000000D+00  6 2 2 25 2 2 21 2 0.29142829D+00 0.23292078D+00 0.36088214D+06 0.36088214D+06 0.36088214D+06 0.10786645D+01  1  2  5  2  6  2        2 0.498344052371D-03 0.100000000000D+01
0.515113887059D-04 0.000000000000D+00 -.435176155995D-04 0.249563408521D-05 0.000000000000D+00  6 2 21 25 2 2 -2 2 0.29142829D+00 0.23292078D+00 0.36088214D+06 0.36088214D+06 0.36088214D+06 0.10786645D+01  1  2  5  5  6  2        2 0.336702066089D-04 0.100000000000D+01
  </mgrwgt>
  </event>
  <event>
  6     66 0.18411016E-05 0.12107746E+03 0.75467711E-02 0.94489288E-01
        2 -1    0    0  502    0 0.00000000E+00 0.00000000E+00 0.37376313E+03 0.37376327E+03 0.32000000E+00 0.0000E+00 0.9000E+01
        2 -1    0    0  501    0 -.00000000E+00 -.00000000E+00 -.12271827E+04 0.12271827E+04 0.32000000E+00 0.0000E+00 0.9000E+01
       25  1    1    2    0    0 0.11869140E+03 -.47845829E+03 -.86487674E+03 0.10033179E+04 0.12500000E+03 0.0000E+00 0.9000E+01
        2  1    1    2  501    0 -.19040397E+02 0.25214460E+02 -.88444180E+02 0.93919014E+02 0.32000000E+00 0.0000E+00 0.9000E+01
        2  1    1    2  503    0 -.18812927E+02 0.28156789E+03 -.13730990E+02 0.28252973E+03 0.32000000E+00 0.0000E+00 0.9000E+01
       21  1    1    2  502  503 -.80838079E+02 0.17167593E+03 0.11363239E+03 0.22117935E+03 0.75000000E+00 0.0000E+00 0.9000E+01
#aMCatNLO 2  0  0  5  1 0.44907560D+02 0.00000000D+00  -5  6  0 0.00000000D+00 0.00000000D+00 0.00000000D+00 0.00000000D+00 0.00000000D+00
  <mgrwgt>
 0.1190569238D-02    1    2    0
 0.677256062154064D+03 0.000000000000000D+00 0.000000000000000D+00 0.677256062154064D+03
 0.677256062154064D+03 -.000000000000000D+00 -.000000000000000D+00 -.677256062154064D+03
 0.651224686072375D+03 0.120345989179029D+03 -.485969461081726D+03 -.397264543515428D+03
 0.554783704171371D+02 -.189041478418166D+02 0.245803590386112D+02 -.460031382413067D+02
 0.647809067818617D+03 -.101441841337212D+03 0.461389102043114D+03 0.443267681756735D+03
 0.000000000000000D+00 0.000000000000000D+00 0.000000000000000D+00 0.000000000000000D+00
 0.677256062154064D+03 0.000000000000000D+00 0.000000000000000D+00 0.677256062154064D+03
 0.677256062154064D+03 -.000000000000000D+00 -.000000000000000D+00 -.677256062154064D+03
 0.640921383479775D+03 0.118695412850496D+03 -.478462125646601D+03 -.390052064590890D+03
 0.553061018743186D+02 -.190456629784114D+02 0.252240139736785D+02 -.453847633606362D+02
 0.324994196801009D+03 -.187683046739841D+02 0.281354609390817D+03 0.161581442215800D+03
 0.333290442153025D+03 -.808814451981009D+02 0.171883502282106D+03 0.273855385735726D+03
0.393099491562D-04 0.000000000000D+00 0.000000000000D+00 0.688040825738D-07 0.292660989954D-10  6 2 2 25 2 2 21 2 0.57502034D-01 0.18879735D+00 0.25609439D+06 0.25609439D+06 0.25609439D+06 0.10896731D+01  1  2  1  3  6  5        2 0.119056923767D-02 0.100000000000D+01
  </mgrwgt>
  </event>
  <event>
  5     66 0.18411016E-05 0.47763249E+02 0.75467711E-02 0.85541391E-01
        2 -1    0    0  502    0 0.00000000E+00 0.00000000E+00 0.28781558E+04 0.28781558E+04 0.32000000E+00 0.0000E+00 0.9000E+01
        2 -1    0    0  501    0 0.00000000E+00 0.00000000E+00 -.34020478E+04 0.34020478E+04 0.32000000E+00 0.0000E+00 0.9000E+01
       25  1    1    2    0    0 -.71495699E+03 -.45212514E+02 0.10732226E+04 0.12963948E+04 0.12500000E+03 0.0000E+00 0.9000E+01
        2  1    1    2  501    0 0.73674598E+03 0.27048141E+01 -.32488715E+04 0.33313613E+04 0.32000000E+00 0.0000E+00 0.9000E+01
        2  1    1    2  502    0 -.21788989E+02 0.42507700E+02 0.16517569E+04 0.16524475E+04 0.32000000E+00 0.0000E+00 0.9000E+01
#aMCatNLO 1  0  0  2  4 0.63865851D+02 0.00000000D+00  -5  6  0 0.00000000D+00 0.00000000D+00 0.00000000D+00 0.00000000D+00 0.00000000D+00
  <mgrwgt>
 0.2994806827D-02    7    2    0
 0.312915699987608D+04 0.000000000000000D+00 0.000000000000000D+00 0.312915699987608D+04
 0.312915699987608D+04 0.000000000000000D+00 0.000000000000000D+00 -.312915699987608D+04
 0.139089847371858D+04 -.714995215127455D+03 -.452096896647335D+02 0.118562704527939D+04
 0.307105001664765D+04 0.736782596381068D+03 0.270512576144635D+01 -.298135745805768D+04
 0.179636550938593D+04 -.217873812536127D+02 0.425045639032872D+02 0.179573041277828D+04
 0.000000000000000D+00 0.000000000000000D+00 0.000000000000000D+00 -.000000000000000D+00
 0.329052295958099D+04 0.000000000000000D+00 0.000000000000000D+00 0.329052295958099D+04
 0.411071253562680D+04 0.000000000000000D+00 0.000000000000000D+00 -.411071253562680D+04
 0.142983448884640D+04 -.762874987788740D+03 -.202760765443010D+03 0.118562704527939D+04
 0.306665166633050D+04 0.632599830715597D+03 -.340114104485722D+03 -.298135745805768D+04
 0.180462871238513D+04 -.829114887041159D+02 -.158627737892302D+03 0.179573041277828D+04
 0.110012062764575D+04 0.213186645777259D+03 0.701502607821034D+03 -.820189576045815D+03
0.466967550090D-01 0.000000000000D+00 0.000000000000D+00 0.253582940996D-03 0.000000000000D+00  6 2 2 25 2 2 21 0 0.44279320D+00 0.52339197D+00 0.57138257D+06 0.57138257D+06 0.57138257D+06 0.10644383D+01  1  2  2  2  6  2        2 0.149695832035D-02 0.100000000000D+01
0.242818780326D-01 0.000000000000D+00 -.179327834773D-03 0.253582940996D-03 0.000000000000D+00  6 2 2 25 2 2 21 2 0.44279320D+00 0.52339197D+00 0.57138257D+06 0.57138257D+06 0.57138257D+06 0.10644383D+01  1  2  3  2  6  2        2 0.881954602426D-03 0.100000000000D+01
-.315153463944D-01 0.000000000000D+00 0.000000000000D+00 0.253582940996D-03 0.000000000000D+00  6 2 2 25 2 2 21 2 0.44279320D+00 0.52339197D+00 0.57138257D+06 0.57138257D+06 0.57138257D+06 0.10644383D+01  1  2 15  2  6  2        2 -.114468513359D-02 0.100000000000D+01
-.314943598494D-02 0.000000000000D+00 0.000000000000D+00 0.253582940996D-03 0.000000000000D+00  6 2 2 25 2 2 21 2 0.44279320D+00 0.52339197D+00 0.57138257D+06 0.57138257D+06 0.57138257D+06 0.10644383D+01  1  2  4  2  6  2        2 -.114392287048D-03 0.100000000000D+01
-.521520560458D-01 0.000000000000D+00 -.235834993724D-01 0.253582940996D-03 0.000000000000D+00  6 2 2 25 2 2 21 2 0.44279320D+00 0.69263627D+00 0.57138257D+06 0.57138257D+06 0.57138257D+06 0.10644383D+01  1  2  5  2  6  2        2 -.232585267158D-03 0.100000000000D+01
0.580269790250D-01 0.000000000000D+00 0.232445114349D-01 0.253582940996D-03 0.000000000000D+00  6 2 2 25 2 2 21 2 0.44279320D+00 0.52339197D+00 0.57138257D+06 0.57138257D+06 0.57138257D+06 0.10644383D+01  1  2  6  2  6  2        2 0.210762780157D-02 0.100000000000D+01
-.144353124980D-02 0.000000000000D+00 -.867567311801D-03 0.253582940996D-03 0.000000000000D+00  6 2 21 25 2 2 -2 2 0.44279320D+00 0.69263627D+00 0.57138257D+06 0.57138257D+06 0.57138257D+06 0.10644383D+01  1  2  5  5  6  2        2 -.712100350141D-07 0.100000000000D+01
  </mgrwgt>
  </event>
  <event>
  5     66 0.18411016E-05 0.88696201E+02 0.75467711E-02 0.93143717E-01
        2 -1    0    0  502    0 0.00000000E+00 0.00000000E+00 0.93834340E+03 0.93834346E+03 0.32000000E+00 0.0000E+00 0.9000E+01
        2 -1    0    0  501    0 0.00000000E+00 0.00000000E+00 -.33354709E+04 0.33354709E+04 0.32000000E+00 0.0000E+00 0.9000E+01
       25  1    1    2    0    0 0.41482689E+03 -.26960536E+03 -.20259590E+03 0.54903415E+03 0.12500000E+03 0.0000E+00 0.9000E+01
        2  1    1    2  501    0 -.42502426E+03 0.18149378E+03 -.29389656E+04 0.29750805E+04 0.32000000E+00 0.0000E+00 0.9000E+01
        2  1    1    2  502    0 0.10197362E+02 0.88111580E+02 0.74443394E+03 0.74969970E+03 0.32000000E+00 0.0000E+00 0.9000E+01
#aMCatNLO 1  0  0  2  5 0.69986004D+02 0.00000000D+00  -5  6  0 0.00000000D+00 0.00000000D+00 0.00000000D+00 0.00000000D+00 0.00000000D+00
  <mgrwgt>
 0.2040390006D-01    9    2    0
 0.176912896240189D+04 0.000000000000000D+00 0.000000000000000D+00 0.176912896240189D+04
 0.176912896240189D+04 0.000000000000000D+00 0.000000000000000D+00 -.176912896240189D+04
 0.525960501745998D+03 0.414860518766332D+03 -.269617091414571D+03 0.127306022571513D+03
 0.160245573137106D+04 -.425057478601365D+03 0.181508987028519D+03 -.153435491282718D+04
 0.140984169168672D+04 0.101969598350334D+02 0.881081043860515D+02 0.140704889025566D+04
 0.000000000000000D+00 -.000000000000000D+00 -.000000000000000D+00 -.000000000000000D+00
 0.178602177466260D+04 0.000000000000000D+00 0.000000000000000D+00 0.178602177466260D+04
 0.184347798498659D+04 0.000000000000000D+00 0.000000000000000D+00 -.184347798498659D+04
 0.529122825805651D+03 0.422996050580368D+03 -.263084554086685D+03 0.127306022571513D+03
 0.159846131131158D+04 -.400375861751952D+03 0.201327431239283D+03 -.153435491282718D+04
 0.141136587428992D+04 0.319507145458219D+02 0.105575581364597D+03 0.140704889025566D+04
 0.905497482420421D+02 -.545709033742372D+02 -.438184585171952D+02 -.574562103239825D+02
0.879503143788D-02 0.000000000000D+00 0.000000000000D+00 0.782489050577D-04 0.000000000000D+00  6 2 2 25 2 2 21 0 0.14436053D+00 0.51314938D+00 0.28154011D+06 0.28154011D+06 0.28154011D+06 0.10865983D+01  1  2  2  2  6  2        2 0.440785197802D-02 0.100000000000D+01
0.274470078718D-02 0.000000000000D+00 -.337752365064D-04 0.782489050577D-04 0.000000000000D+00  6 2 2 25 2 2 21 2 0.14436053D+00 0.51314938D+00 0.28154011D+06 0.28154011D+06 0.28154011D+06 0.10865983D+01  1  2  3  2  6  2        2 0.162413711311D-02 0.100000000000D+01
-.595561086230D-02 0.000000000000D+00 0.000000000000D+00 0.782489050577D-04 0.000000000000D+00  6 2 2 25 2 2 21 2 0.14436053D+00 0.51314938D+00 0.28154011D+06 0.28154011D+06 0.28154011D+06 0.10865983D+01  1  2 15  2  6  2        2 -.352414684976D-02 0.100000000000D+01
0.434015913750D-10 0.000000000000D+00 0.000000000000D+00 0.782489050577D-04 0.000000000000D+00  6 2 2 25 2 2 21 2 0.14436053D+00 0.53773305D+00 0.32604938D+06 0.32604938D+06 0.32604938D+06 0.10818865D+01  1  2 12  2  6  2        2 0.194340283129D-10 0.100000000000D+01
-.160847145203D-02 0.000000000000D+00 0.000000000000D+00 0.782489050577D-04 0.000000000000D+00  6 2 2 25 2 2 21 2 0.14436053D+00 0.51314938D+00 0.28154011D+06 0.28154011D+06 0.28154011D+06 0.10865983D+01  1  2  4  2  6  2        2 -.951789788094D-03 0.100000000000D+01
-.146228017831D+00 0.000000000000D+00 -.250692093713D-01 0.782489050577D-04 0.000000000000D+00  6 2 2 25 2 2 21 2 0.14436053D+00 0.53597321D+00 0.28154011D+06 0.28154011D+06 0.28154011D+06 0.10865983D+01  1  2  5  2  6  2        2 -.682727407344D-01 0.100000000000D+01
0.147260361855D+00 0.000000000000D+00 0.251038740517D-01 0.782489050577D-04 0.000000000000D+00  6 2 2 25 2 2 21 2 0.14436053D+00 0.51314938D+00 0.28154011D+06 0.28154011D+06 0.28154011D+06 0.10865983D+01  1  2  6  2  6  2        2 0.871391956800D-01 0.100000000000D+01
0.728157840620D-12 0.000000000000D+00 0.000000000000D+00 0.782489050577D-04 0.000000000000D+00  6 2 21 25 2 2 -2 2 0.14436053D+00 0.53773305D+00 0.32604938D+06 0.32604938D+06 0.32604938D+06 0.10818865D+01  1  2 12  5  6  2        2 0.115297415358D-13 0.100000000000D+01
-.110213772030D-02 0.000000000000D+00 -.191838313209D-03 0.782489050577D-04 0.000000000000D+00  6 2 21 25 2 2 -2 2 0.14436053D+00 0.53597321D+00 0.28154011D+06 0.28154011D+06 0.28154011D+06 0.10865983D+01  1  2  5  5  6  2        2 -.186073571382D-04 0.100000000000D+01
  </mgrwgt>
  </event>
  <event>
  6     66 -.18411016E-05 0.60445361E+02 0.75467711E-02 0.93867418E-01
        2 -1    0    0  502    0 0.00000000E+00 0.00000000E+00 0.69156662E+03 0.69156669E+03 0.32000000E+00 0.0000E+00 0.9000E+01
        2 -1    0    0  503    0 0.00000000E+00 0.00000000E+00 -.10765096E+04 0.10765096E+04 0.32000000E+00 0.0000E+00 0.9000E+01
       25  1    1    2    0    0 0.47307601E+03 -.57604588E+02 -.19193938E+03 0.52875791E+03 0.12500000E+03 0.0000E+00 0.9000E+01
        2  1    1    2  501    0 -.50776366E+03 0.87060461E+01 -.38323380E+03 0.63621378E+03 0.32000000E+00 0.0000E+00 0.9000E+01
        2  1    1    2  502    0 0.32663068E+02 0.54247404E+02 0.39409922E+03 0.39915404E+03 0.32000000E+00 0.0000E+00 0.9000E+01
       21  1    1    2  503  501 0.20245870E+01 -.53488616E+01 -.20386898E+03 0.20395056E+03 0.75000000E+00 0.0000E+00 0.9000E+01
#aMCatNLO 2  0  0  2  4 0.57192021D+01 0.00000000D+00  -5  6  0 0.00000000D+00 0.00000000D+00 0.00000000D+00 0.00000000D+00 0.00000000D+00
  <mgrwgt>
 -.8550300552D-03    3    2    0
 0.776799334501920D+03 0.000000000000000D+00 0.000000000000000D+00 0.776799334501920D+03
 0.776799334501920D+03 0.000000000000000D+00 0.000000000000000D+00 -.776799334501920D+03
 0.510859369173190D+03 0.473838510374504D+03 -.593590464320383D+02 -.131551756980967D+03
 0.595211551127871D+03 -.507076156791899D+03 0.666713637034047D+01 -.311618534592894D+03
 0.447527748702780D+03 0.332376464173952D+02 0.526919100616979D+02 0.443170291573860D+03
 0.000000000000000D+00 0.000000000000000D+00 -.000000000000000D+00 -.000000000000000D+00
 0.776849646262936D+03 0.000000000000000D+00 0.000000000000000D+00 0.776849646262936D+03
 0.958327906923966D+03 0.000000000000000D+00 0.000000000000000D+00 -.958327906923966D+03
 0.510040977090020D+03 0.473173314588128D+03 -.576016311214099D+02 -.131551756980967D+03
 0.595899339515440D+03 -.507852257954429D+03 0.871755835671238D+01 -.311618534592894D+03
 0.447668879300526D+03 0.326543563567098D+02 0.542329343799229D+02 0.443170291573860D+03
 0.181568357280918D+03 0.202458700959132D+01 -.534886161522531D+01 -.181478260661030D+03
-.838973996244D-08 0.000000000000D+00 0.000000000000D+00 0.640576045653D-06 0.000000000000D+00  6 2 2 25 2 2 21 2 0.10638788D+00 0.16562395D+00 0.28608329D+06 0.28608329D+06 0.28608329D+06 0.10860814D+01  1  2 13  2  6  2        2 -.152390697782D-06 0.100000000000D+01
-.945685783271D-03 0.000000000000D+00 0.000000000000D+00 0.640576045653D-06 0.000000000000D+00  6 2 2 25 2 2 21 2 0.10638788D+00 0.16564188D+00 0.28608329D+06 0.28608329D+06 0.28608329D+06 0.10860814D+01  1  2 13  2  6  2        2 -.171746009803D-01 0.100000000000D+01
0.898480673832D-03 0.000000000000D+00 0.000000000000D+00 0.640576045653D-06 0.119537949314D-06  6 2 2 25 2 2 21 2 0.10639477D+00 0.16561670D+00 0.28608329D+06 0.28608329D+06 0.28608329D+06 0.10860814D+01  1  2  1  2  6  2        2 0.163197233158D-01 0.100000000000D+01
  </mgrwgt>
  </event>
  <event>
  5     66 0.18411016E-05 0.21872510E+03 0.75467711E-02 0.93564849E-01
        2 -1    0    0  502    0 0.00000000E+00 0.00000000E+00 0.12058744E+04 0.12058744E+04 0.32000000E+00 0.0000E+00 0.9000E+01
        2 -1    0    0  501    0 0.00000000E+00 0.00000000E+00 -.37335043E+03 0.37335057E+03 0.32000000E+00 0.0000E+00 0.9000E+01
       25  1    1    2    0    0 0.21150563E+03 -.40303848E+03 0.25241276E+03 0.53526802E+03 0.12500000E+03 0.0000E+00 0.9000E+01
        2  1    1    2  501    0 -.21880998E+03 -.52557093E+01 -.10779199E+03 0.24397673E+03 0.32000000E+00 0.0000E+00 0.9000E+01
        2  1    1    2  502    0 0.73043543E+01 0.40829419E+03 0.68790319E+03 0.79998025E+03 0.32000000E+00 0.0000E+00 0.9000E+01
#aMCatNLO 1  0  0  1  4 0.19015814D+03 0.00000000D+00  -5  6  0 0.00000000D+00 0.00000000D+00 0.00000000D+00 0.00000000D+00 0.00000000D+00
  <mgrwgt>
 0.2951552174D-02    9    2    0
 0.670979781248231D+03 0.000000000000000D+00 0.000000000000000D+00 0.670979781248231D+03
 0.670979781248231D+03 0.000000000000000D+00 0.000000000000000D+00 -.670979781248231D+03
 0.473304743723304D+03 0.211543301810415D+03 -.403013864350109D+03 -.349519245782291D+02
 0.354044170766980D+03 -.218846956896352D+03 -.524124382180548D+01 -.278254943665849D+03
 0.514610648006178D+03 0.730365508593739D+01 0.408255108171914D+03 0.313206868244078D+03
 0.000000000000000D+00 0.000000000000000D+00 -.000000000000000D+00 0.000000000000000D+00
 0.911615004441996D+03 0.000000000000000D+00 0.000000000000000D+00 0.911615004441996D+03
 0.716326530747594D+03 0.000000000000000D+00 0.000000000000000D+00 -.716326530747594D+03
 0.413942115946155D+03 0.176449472821349D+03 -.351236418759965D+03 -.349519245782291D+02
 0.374365071654648D+03 -.247658182440868D+03 0.372668468023689D+02 -.278254943665849D+03
 0.567058292677122D+03 -.354802718600152D+02 0.471378526544612D+03 0.313206868244078D+03
 0.272576054911664D+03 0.106688981479534D+03 -.157408954587016D+03 0.195288473694402D+03
0.735452258151D-04 0.000000000000D+00 0.000000000000D+00 0.153600271506D-07 0.000000000000D+00  6 2 2 25 2 2 21 0 0.18551915D+00 0.57438542D-01 0.30208356D+06 0.30208356D+06 0.30208356D+06 0.10843296D+01  1  2  2  1  6  1        2 0.192187492693D-02 0.100000000000D+01
0.297973197917D-05 0.000000000000D+00 -.282433032033D-06 0.153600271506D-07 0.000000000000D+00  6 2 2 25 2 2 21 2 0.18551915D+00 0.57438542D-01 0.30208356D+06 0.30208356D+06 0.30208356D+06 0.10843296D+01  1  2  3  1  6  1        2 0.915525455934D-04 0.100000000000D+01
-.467820415648D-04 0.000000000000D+00 0.000000000000D+00 0.153600271506D-07 0.000000000000D+00  6 2 2 25 2 2 21 2 0.18551915D+00 0.57438542D-01 0.30208356D+06 0.30208356D+06 0.30208356D+06 0.10843296D+01  1  2 15  1  6  1        2 -.143738263147D-02 0.100000000000D+01
0.111035688818D-06 0.000000000000D+00 0.000000000000D+00 0.153600271506D-07 0.000000000000D+00  6 2 2 25 2 2 21 2 0.26411488D+00 0.57438542D-01 0.43942336D+06 0.43942336D+06 0.43942336D+06 0.10724970D+01  1  2 12  1  6  1        2 0.170768544310D-05 0.100000000000D+01
-.394603291791D-04 0.000000000000D+00 0.000000000000D+00 0.153600271506D-07 0.000000000000D+00  6 2 2 25 2 2 21 2 0.18551915D+00 0.57438542D-01 0.30208356D+06 0.30208356D+06 0.30208356D+06 0.10843296D+01  1  2  4  1  6  1        2 -.121242232910D-02 0.100000000000D+01
-.236453364426D-03 0.000000000000D+00 -.604028430618D-04 0.153600271506D-07 0.000000000000D+00  6 2 2 25 2 2 21 2 0.25917711D+00 0.57438542D-01 0.30208356D+06 0.30208356D+06 0.30208356D+06 0.10843296D+01  1  2  5  1  6  1        2 -.393330513882D-02 0.100000000000D+01
0.245996305818D-03 0.000000000000D+00 0.571769853576D-04 0.153600271506D-07 0.000000000000D+00  6 2 2 25 2 2 21 2 0.18551915D+00 0.57438542D-01 0.30208356D+06 0.30208356D+06 0.30208356D+06 0.10843296D+01  1  2  6  1  6  1        2 0.755825965611D-02 0.100000000000D+01
0.482846635395D-08 0.000000000000D+00 0.000000000000D+00 0.153600271506D-07 0.000000000000D+00  6 21 2 25 2 2 -2 2 0.26411488D+00 0.57438542D-01 0.43942336D+06 0.43942336D+06 0.43942336D+06 0.10724970D+01  1  2 12  4  6  1        2 0.197590670202D-07 0.100000000000D+01
-.828625526893D-05 0.000000000000D+00 -.252470455278D-05 0.153600271506D-07 0.000000000000D+00  6 21 2 25 2 2 -2 2 0.25917711D+00 0.57438542D-01 0.30208356D+06 0.30208356D+06 0.30208356D+06 0.10843296D+01  1  2  5  4  6  1        2 -.387523002219D-04 0.100000000000D+01
  </mgrwgt>
  </event>
  <event>
  5     66 -.18411016E-05 0.16840347E+03 0.75467711E-02 0.94937924E-01
        2 -1    0    0  502    0 0.00000000E+00 0.00000000E+00 0.53941905E+03 0.53941914E+03 0.32000000E+00 0.0000E+00 0.9000E+01
        2 -1    0    0  501    0 0.00000000E+00 0.00000000E+00 -.26724565E+04 0.26724566E+04 0.32000000E+00 0.0000E+00 0.9000E+01
       25  1    1    2    0    0 0.39134968E+03 0.26158664E+03 -.39150561E+03 0.62488702E+03 0.12500000E+03 0.0000E+00 0.9000E+01
        2  1    1    2  501    0 -.15638005E+03 -.76334862E+02 -.21072737E+04 0.21144465E+04 0.32000000E+00 0.0000E+00 0.9000E+01
        2  1    1    2  502    0 -.23496963E+03 -.18525178E+03 0.36574177E+03 0.47254216E+03 0.32000000E+00 0.0000E+00 0.9000E+01
#aMCatNLO 1  0  0  1  5 0.29399876D+02 0.00000000D+00  -5  6  0 0.00000000D+00 0.00000000D+00 0.00000000D+00 0.00000000D+00 0.00000000D+00
  <mgrwgt>
 -.2697084811D-01   11    2    0
 0.120065571795275D+04 0.000000000000000D+00 0.000000000000000D+00 0.120065571795275D+04
 0.120065571795275D+04 0.000000000000000D+00 0.000000000000000D+00 -.120065571795275D+04
 0.488060890376462D+03 0.391355107894322D+03 0.261585876396944D+03 0.315030396903355D+02
 0.956371240740112D+03 -.156397976736365D+03 -.763439498814719D+02 -.940402692629093D+03
 0.956879304788924D+03 -.234957131157957D+03 -.185241926515472D+03 0.908899652938758D+03
 0.000000000000000D+00 -.000000000000000D+00 -.000000000000000D+00 0.000000000000000D+00
 0.153689668391888D+04 0.000000000000000D+00 0.000000000000000D+00 0.153689668391888D+04
 0.120138853288953D+04 0.000000000000000D+00 0.000000000000000D+00 -.120138853288953D+04
 0.493703999950997D+03 0.395442104357363D+03 0.265991992660125D+03 0.315030396903355D+02
 0.954455445354545D+03 -.148443381919933D+03 -.677682464511795D+02 -.940402692629093D+03
 0.953331958998211D+03 -.227005098287689D+03 -.176668985072560D+03 0.908899652938758D+03
 0.336793812504655D+03 -.199936241497404D+02 -.215547611363851D+02 0.335508151029349D+03
0.407699897887D-04 0.000000000000D+00 0.000000000000D+00 0.876893189230D-05 0.000000000000D+00  6 2 2 25 2 2 21 0 0.82987555D-01 0.41114717D+00 0.23053329D+06 0.23053329D+06 0.23053329D+06 0.10931176D+01  1  2  2  1  6  1        2 0.108525427599D-03 0.100000000000D+01
0.580699808880D-05 0.000000000000D+00 -.156567495773D-06 0.876893189230D-05 0.000000000000D+00  6 2 2 25 2 2 21 2 0.82987555D-01 0.41114717D+00 0.23053329D+06 0.23053329D+06 0.23053329D+06 0.10931176D+01  1  2  3  1  6  1        2 0.184704023280D-04 0.100000000000D+01
-.264460528611D-04 0.000000000000D+00 0.000000000000D+00 0.876893189230D-05 0.000000000000D+00  6 2 2 25 2 2 21 2 0.82987555D-01 0.41114717D+00 0.23053329D+06 0.23053329D+06 0.23053329D+06 0.10931176D+01  1  2 15  1  6  1        2 -.841173406402D-04 0.100000000000D+01
0.572485827562D-09 0.000000000000D+00 0.000000000000D+00 0.876893189230D-05 0.000000000000D+00  6 2 2 25 2 2 21 2 0.10625606D+00 0.41114717D+00 0.23664810D+06 0.23664810D+06 0.23664810D+06 0.10922569D+01  1  2 12  1  6  1        2 0.135684861702D-08 0.100000000000D+01
0.915586526220D-02 0.000000000000D+00 0.000000000000D+00 0.876893189230D-05 0.000000000000D+00  6 2 2 25 2 2 21 2 0.10762474D+00 0.41114717D+00 0.23664810D+06 0.23664810D+06 0.23664810D+06 0.10922569D+01  1  2 12  1  6  1        2 0.213648740074D-01 0.100000000000D+01
-.173815178780D-01 0.000000000000D+00 0.000000000000D+00 0.876893189230D-05 0.000000000000D+00  6 2 2 25 2 2 21 2 0.82987555D-01 0.41114717D+00 0.23053329D+06 0.23053329D+06 0.23053329D+06 0.10931176D+01  1  2  4  1  6  1        2 -.552856438679D-01 0.100000000000D+01
-.979217339039D-02 0.000000000000D+00 -.477391404184D-04 0.876893189230D-05 0.000000000000D+00  6 2 2 25 2 2 21 2 0.10625368D+00 0.41114717D+00 0.23053329D+06 0.23053329D+06 0.23053329D+06 0.10931176D+01  1  2  5  1  6  1        2 -.232911101316D-01 0.100000000000D+01
0.951338420671D-02 0.000000000000D+00 0.463174471014D-04 0.876893189230D-05 0.000000000000D+00  6 2 2 25 2 2 21 2 0.82987555D-01 0.41114717D+00 0.23053329D+06 0.23053329D+06 0.23053329D+06 0.10931176D+01  1  2  6  1  6  1        2 0.302593579526D-01 0.100000000000D+01
0.192120905333D-10 0.000000000000D+00 0.000000000000D+00 0.876893189230D-05 0.000000000000D+00  6 21 2 25 2 2 -2 2 0.10625606D+00 0.41114717D+00 0.23664810D+06 0.23664810D+06 0.23664810D+06 0.10922569D+01  1  2 12  4  6  1        2 0.558458133066D-10 0.100000000000D+01
0.318897894770D-03 0.000000000000D+00 0.000000000000D+00 0.876893189230D-05 0.000000000000D+00  6 21 2 25 2 2 -2 2 0.10762474D+00 0.41114717D+00 0.23664810D+06 0.23664810D+06 0.23664810D+06 0.10922569D+01  1  2 12  4  6  1        2 0.896127871829D-03 0.100000000000D+01
-.327809118384D-03 0.000000000000D+00 -.160197375301D-05 0.876893189230D-05 0.000000000000D+00  6 21 2 25 2 2 -2 2 0.10625368D+00 0.41114717D+00 0.23053329D+06 0.23053329D+06 0.23053329D+06 0.10931176D+01  1  2  5  4  6  1        2 -.957333840827D-03 0.100000000000D+01
  </mgrwgt>
  </event>
  <event>
  5     66 0.18411016E-05 0.11460601E+03 0.75467711E-02 0.88865354E-01
        2 -1    0    0  502    0 0.00000000E+00 0.00000000E+00 0.14394866E+04 0.14394866E+04 0.32000000E+00 0.0000E+00 0.9000E+01
        2 -1    0    0  501    0 0.00000000E+00 0.00000000E+00 -.13640529E+04 0.13640530E+04 0.32000000E+00 0.0000E+00 0.9000E+01
       25  1    1    2    0    0 -.17254315E+03 -.71895941E+03 0.45409366E+03 0.87664121E+03 0.12500000E+03 0.0000E+00 0.9000E+01
        2  1    1    2  501    0 0.19338236E+03 0.83168871E+03 -.98858469E+03 0.13062935E+04 0.32000000E+00 0.0000E+00 0.9000E+01
        2  1    1    2  502    0 -.20839208E+02 -.11272930E+03 0.60992473E+03 0.62060491E+03 0.32000000E+00 0.0000E+00 0.9000E+01
#aMCatNLO 1  0  0  2  4 0.43101903D+02 0.00000000D+00  -5  6  0 0.00000000D+00 0.00000000D+00 0.00000000D+00 0.00000000D+00 0.00000000D+00
  <mgrwgt>
 0.2674003559D-03    1    2    0
 0.140126228940053D+04 0.000000000000000D+00 0.000000000000000D+00 0.140126228940053D+04
 0.140126228940053D+04 0.000000000000000D+00 0.000000000000000D+00 -.140126228940053D+04
 0.864897467487004D+03 -.172569048507251D+03 -.719075707102933D+03 0.430781476176903D+03
 0.133338994618878D+04 0.193402206380924D+03 0.831772273376117D+03 -.102405039934909D+04
 0.604237165125286D+03 -.208331578736729D+02 -.112696566273183D+03 0.593268923172187D+03
 0.000000000000000D+00 0.000000000000000D+00 0.000000000000000D+00 0.000000000000000D+00
 0.317789511924184D+04 0.000000000000000D+00 0.000000000000000D+00 0.317789511924184D+04
 0.209466823765276D+04 0.000000000000000D+00 0.000000000000000D+00 -.209466823765276D+04
 0.144983340546932D+04 -.402254882871500D+03 -.131871537209651D+04 0.430781476176903D+03
 0.104726398507817D+04 -.428250332191655D+02 0.215054994279502D+03 -.102405039934909D+04
 0.772724663384437D+03 -.157466159214795D+03 -.469403663069267D+03 0.593268923172187D+03
 0.200274130296268D+04 0.602546075305460D+03 0.157306404088627D+04 0.108322688158907D+04
0.707127503618D-04 0.000000000000D+00 0.000000000000D+00 0.291497143731D-06 0.000000000000D+00  6 2 2 25 2 2 21 2 0.22145948D+00 0.20985430D+00 0.73835386D+06 0.73835386D+06 0.73835386D+06 0.10567474D+01  1  2 14  2  6  2        2 0.267400355851D-03 0.100000000000D+01
  </mgrwgt>
  </event>
  <event>
  6     66 0.18411016E-05 0.58478110E+02 0.75467711E-02 0.90812307E-01
        2 -1    0    0  502    0 0.00000000E+00 0.00000000E+00 0.31550163E+04 0.31550163E+04 0.32000000E+00 0.0000E+00 0.9000E+01
        2 -1    0    0  501    0 0.00000000E+00 0.00000000E+00 -.28576628E+04 0.28576628E+04 0.32000000E+00 0.0000E+00 0.9000E+01
       25  1    1    2    0    0 0.52932969E+03 -.46077283E+03 -.68562354E+03 0.98904306E+03 0.12500000E+03 0.0000E+00 0.9000E+01
        2  1    1    2  501    0 -.76352435E+02 0.57391702E+02 -.19857053E+04 0.19880013E+04 0.32000000E+00 0.0000E+00 0.9000E+01
        2  1    1    2  503    0 -.37270021E+03 0.36840313E+03 0.21798745E+04 0.22419811E+04 0.32000000E+00 0.0000E+00 0.9000E+01
       21  1    1    2  502  503 -.80277053E+02 0.34978002E+02 0.78880788E+03 0.79365377E+03 0.75000000E+00 0.0000E+00 0.9000E+01
#aMCatNLO 2  0  0  5  1 0.81079687D+02 0.00000000D+00  -5  6  0 0.00000000D+00 0.00000000D+00 0.00000000D+00 0.00000000D+00 0.00000000D+00
  <mgrwgt>
 0.4193107012D-02    3    2    0
 0.300266096636866D+04 0.000000000000000D+00 0.000000000000000D+00 0.300266096636866D+04
 0.300266096636866D+04 -.000000000000000D+00 -.000000000000000D+00 -.300266096636866D+04
 0.102490784762824D+04 0.529494608536538D+03 -.460918084416072D+03 -.736207222946706D+03
 0.209092710120953D+04 -.760421317527101D+02 0.571137688192155D+02 -.208876321161166D+04
 0.288948698389955D+04 -.453452476783827D+03 0.403804315596856D+03 0.282497043455836D+04
 0.000000000000000D+00 0.000000000000000D+00 0.000000000000000D+00 0.000000000000000D+00
 0.300266096636866D+04 0.000000000000000D+00 0.000000000000000D+00 0.300266096636866D+04
 0.300266096636866D+04 -.000000000000000D+00 -.000000000000000D+00 -.300266096636866D+04
 0.102405569509534D+04 0.529336546657067D+03 -.460777328609610D+03 -.735222510856250D+03
 0.208894001149209D+04 -.763645765585825D+02 0.574009093925265D+02 -.208675440784500D+04
 0.213663391111761D+04 -.372679902832721D+03 0.368389376869968D+03 0.207137718129067D+04
 0.755692315032270D+03 -.802920672657623D+02 0.349870423471151D+02 0.750599737410574D+03
-.788634548723D-11 0.000000000000D+00 0.000000000000D+00 0.175974287870D-03 0.000000000000D+00  6 2 2 25 2 2 21 2 0.48538713D+00 0.43964043D+00 0.50408425D+06 0.50408425D+06 0.50408425D+06 0.10682608D+01  1  2 13  3  6  5        2 -.444245135610D-12 0.100000000000D+01
-.910007668264D-01 0.000000000000D+00 0.000000000000D+00 0.175974287870D-03 0.000000000000D+00  6 2 2 25 2 2 21 2 0.48538713D+00 0.43964043D+00 0.50408425D+06 0.50408425D+06 0.50408425D+06 0.10682608D+01  1  2 13  3  6  5        2 -.512615736464D-02 0.100000000000D+01
0.165437801496D+00 0.000000000000D+00 0.000000000000D+00 0.175974287870D-03 0.302415088509D-06  6 2 2 25 2 2 21 2 0.48538713D+00 0.43964043D+00 0.50408425D+06 0.50408425D+06 0.50408425D+06 0.10682608D+01  1  2  1  3  6  5        2 0.931926437661D-02 0.100000000000D+01
  </mgrwgt>
  </event>
  <event>
  6     66 0.18411016E-05 0.83065650E+01 0.75467711E-02 0.92993760E-01
        2 -1    0    0  502    0 0.00000000E+00 0.00000000E+00 0.82385017E+03 0.82385023E+03 0.32000000E+00 0.0000E+00 0.9000E+01
        2 -1    0    0  503    0 0.00000000E+00 0.00000000E+00 -.23893154E+04 0.23893155E+04 0.32000000E+00 0.0000E+00 0.9000E+01
       25  1    1    2    0    0 -.54299523E+02 -.55715691E+03 0.10940072E+03 0.58392275E+03 0.12500000E+03 0.0000E+00 0.9000E+01
        2  1    1    2  501    0 0.57470800E+02 0.56287188E+03 -.19840128E+04 0.20631128E+04 0.32000000E+00 0.0000E+00 0.9000E+01
        2  1    1    2  502    0 -.30053409E+01 0.59007732E+01 0.43734962E+03 0.43739987E+03 0.32000000E+00 0.0000E+00 0.9000E+01
       21  1    1    2  503  501 -.16593607E+00 -.11615743E+02 -.12820282E+03 0.12873026E+03 0.75000000E+00 0.0000E+00 0.9000E+01
#aMCatNLO 2  0  0  2  4 0.25157598D+02 0.00000000D+00  -5  6  0 0.00000000D+00 0.00000000D+00 0.00000000D+00 0.00000000D+00 0.00000000D+00
  <mgrwgt>
 0.7531996246D-02    1    2    0
 0.136454054609945D+04 0.000000000000000D+00 0.000000000000000D+00 0.136454054609945D+04
 0.136454054609945D+04 0.000000000000000D+00 0.000000000000000D+00 -.136454054609945D+04
 0.720071799514538D+03 -.543501507899697D+02 -.560278035734831D+03 0.431292221397898D+03
 0.128449347286247D+04 0.573989563282503D+02 0.557462188023534D+03 -.115579615441596D+04
 0.724515819821892D+03 -.304880553828061D+01 0.281584771129653D+01 0.724503933018065D+03
 0.000000000000000D+00 -.000000000000000D+00 -.000000000000000D+00 -.000000000000000D+00
 0.136498804396408D+04 0.000000000000000D+00 0.000000000000000D+00 0.136498804396408D+04
 0.144208798190623D+04 0.000000000000000D+00 0.000000000000000D+00 -.144208798190623D+04
 0.717690316297739D+03 -.543064409281717D+02 -.557218287875524D+03 0.431292221397898D+03
 0.128688131733495D+04 0.574771295082738D+02 0.562934413521239D+03 -.115579615441596D+04
 0.724534183448337D+03 -.300475250983819D+01 0.589961768740952D+01 0.724503933018065D+03
 0.779702087892836D+02 -.165936070263874D+00 -.116157433331246D+02 -.770999379421542D+02
0.284325132378D-02 0.000000000000D+00 0.000000000000D+00 0.425864854793D-04 0.110853158117D-05  6 2 2 25 2 2 21 2 0.12674602D+00 0.36758651D+00 0.33509155D+06 0.33509155D+06 0.33509155D+06 0.10810153D+01  1  2  1  2  6  2        2 0.753199624610D-02 0.100000000000D+01
  </mgrwgt>
  </event>
  <event>
  5     66 0.18411016E-05 0.40063312E+02 0.75467711E-02 0.93823859E-01
        2 -1    0    0  502    0 0.00000000E+00 0.00000000E+00 0.27549145E+04 0.27549146E+04 0.32000000E+00 0.0000E+00 0.9000E+01
        2 -1    0    0  501    0 0.00000000E+00 0.00000000E+00 -.43514965E+03 0.43514977E+03 0.32000000E+00 0.0000E+00 0.9000E+01
       25  1    1    2    0    0 0.47475448E+03 0.63931474E+02 0.22061378E+03 0.54200968E+03 0.12500000E+03 0.0000E+00 0.9000E+01
        2  1    1    2  501    0 -.15403185E+02 0.36981466E+02 -.24954181E+03 0.25273722E+03 0.32000000E+00 0.0000E+00 0.9000E+01
        2  1    1    2  502    0 -.45935130E+03 -.10091294E+03 0.23486929E+04 0.23953174E+04 0.32000000E+00 0.0000E+00 0.9000E+01
#aMCatNLO 1  0  0  2  4 0.37333439D+02 0.00000000D+00  -5  6  0 0.00000000D+00 0.00000000D+00 0.00000000D+00 0.00000000D+00 0.00000000D+00
  <mgrwgt>
 0.2925905360D-02    7    2    0
 0.109489739874228D+04 0.000000000000000D+00 0.000000000000000D+00 0.109489739874228D+04
 0.109489739874228D+04 0.000000000000000D+00 0.000000000000000D+00 -.109489739874228D+04
 0.555863947317114D+03 0.474751188477619D+03 0.639285036048008D+02 -.252753206493811D+03
 0.632567510970115D+03 -.154042783881977D+02 0.369834717809113D+02 -.631297542334275D+03
 0.100136333919734D+04 -.459346910089421D+03 -.100911975385712D+03 0.884050748828086D+03
 0.000000000000000D+00 0.000000000000000D+00 -.000000000000000D+00 -.000000000000000D+00
 0.109658133864502D+04 0.000000000000000D+00 0.000000000000000D+00 0.109658133864502D+04
 0.154176296651854D+04 0.000000000000000D+00 0.000000000000000D+00 -.154176296651854D+04
 0.550308703597774D+03 0.466792092460622D+03 0.737267134680060D+02 -.252753206493811D+03
 0.633609259531370D+03 -.245146306307497D+02 0.481989594455431D+02 -.631297542334275D+03
 0.100644726389281D+04 -.473793440981974D+03 -.831272745631281D+02 0.884050748828086D+03
 0.447979078141595D+03 0.315159791521014D+02 -.387983983504210D+02 -.445181627873523D+03
0.478482084792D-04 0.000000000000D+00 0.000000000000D+00 0.191991484109D-04 0.000000000000D+00  6 2 2 25 2 2 21 0 0.42383302D+00 0.66946110D-01 0.25272759D+06 0.25272759D+06 0.25272759D+06 0.10901048D+01  1  2  2  2  6  2        2 0.143965399818D-03 0.100000000000D+01
0.216733712946D-04 0.000000000000D+00 -.183749719283D-06 0.191991484109D-04 0.000000000000D+00  6 2 2 25 2 2 21 2 0.42383302D+00 0.66946110D-01 0.25272759D+06 0.25272759D+06 0.25272759D+06 0.10901048D+01  1  2  3  2  6  2        2 0.774917349588D-04 0.100000000000D+01
-.335745436752D-04 0.000000000000D+00 0.000000000000D+00 0.191991484109D-04 0.000000000000D+00  6 2 2 25 2 2 21 2 0.42383302D+00 0.66946110D-01 0.25272759D+06 0.25272759D+06 0.25272759D+06 0.10901048D+01  1  2 15  2  6  2        2 -.120043605790D-03 0.100000000000D+01
-.271088771421D-03 0.000000000000D+00 0.000000000000D+00 0.191991484109D-04 0.000000000000D+00  6 2 2 25 2 2 21 2 0.42383302D+00 0.66946110D-01 0.25272759D+06 0.25272759D+06 0.25272759D+06 0.10901048D+01  1  2  4  2  6  2        2 -.969260339784D-03 0.100000000000D+01
-.462135977596D-02 0.000000000000D+00 -.405851706806D-04 0.191991484109D-04 0.000000000000D+00  6 2 2 25 2 2 21 2 0.42383302D+00 0.94324899D-01 0.25272759D+06 0.25272759D+06 0.25272759D+06 0.10901048D+01  1  2  5  2  6  2        2 -.111752979539D-01 0.100000000000D+01
0.437771560761D-02 0.000000000000D+00 0.383112610308D-04 0.191991484109D-04 0.000000000000D+00  6 2 2 25 2 2 21 2 0.42383302D+00 0.66946110D-01 0.25272759D+06 0.25272759D+06 0.25272759D+06 0.10901048D+01  1  2  6  2  6  2        2 0.156522385456D-01 0.100000000000D+01
-.195576489343D-03 0.000000000000D+00 -.172734921274D-05 0.191991484109D-04 0.000000000000D+00  6 2 21 25 2 2 -2 2 0.42383302D+00 0.94324899D-01 0.25272759D+06 0.25272759D+06 0.25272759D+06 0.10901048D+01  1  2  5  5  6  2        2 -.683188421170D-03 0.100000000000D+01
  </mgrwgt>
  </event>
  <event>
  5     66 0.18411016E-05 0.64591997E+02 0.75467711E-02 0.87898485E-01
        2 -1    0    0  502    0 0.00000000E+00 0.00000000E+00 0.25415119E+04 0.25415119E+04 0.32000000E+00 0.0000E+00 0.9000E+01
        2 -1    0    0  501    0 0.00000000E+00 0.00000000E+00 -.26899392E+04 0.26899392E+04 0.32000000E+00 0.0000E+00 0.9000E+01
       25  1    1    2    0    0 -.24368344E+03 0.47170386E+03 0.84829415E+03 0.10085208E+04 0.12500000E+03 0.0000E+00 0.9000E+01
        2  1    1    2  501    0 0.64379257E+02 -.51909976E+01 -.25706988E+04 0.25715100E+04 0.32000000E+00 0.0000E+00 0.9000E+01
        2  1    1    2  502    0 0.17930418E+03 -.46651286E+03 0.15739774E+04 0.16514203E+04 0.32000000E+00 0.0000E+00 0.9000E+01
#aMCatNLO 1  0  0  2  5 0.49261881D+03 0.00000000D+00  -5  6  0 0.00000000D+00 0.00000000D+00 0.00000000D+00 0.00000000D+00 0.00000000D+00
  <mgrwgt>
 0.2427695442D-01    7    2    0
 0.261467254812476D+04 0.000000000000000D+00 0.000000000000000D+00 0.261467254812476D+04
 0.261467254812476D+04 0.000000000000000D+00 0.000000000000000D+00 -.261467254812476D+04
 0.103309262730513D+04 -.243675892395072D+03 0.471674707559463D+03 0.877382702306335D+03
 0.249959930697504D+04 0.643830427212006D+02 -.519133171418395D+01 -.249876460862465D+04
 0.169665316196935D+04 0.179292849673872D+03 -.466483375845279D+03 0.162138190631831D+04
 0.000000000000000D+00 0.000000000000000D+00 0.000000000000000D+00 -.000000000000000D+00
 0.266698011612611D+04 0.000000000000000D+00 0.000000000000000D+00 0.266698011612611D+04
 0.503643249564852D+04 0.000000000000000D+00 0.000000000000000D+00 -.503643249564852D+04
 0.105738042009392D+04 -.358953096628446D+03 0.451420669567173D+03 0.877382702306335D+03
 0.250829767340656D+04 -.211772808082718D+03 -.537115151378945D+02 -.249876460862465D+04
 0.169655538080228D+04 -.782249949467678D+01 -.499359271961983D+03 0.162138190631831D+04
 0.244117913747188D+04 0.578548404205840D+03 0.101650117532705D+03 -.236945237952242D+04
0.242971271660D-01 0.000000000000D+00 0.000000000000D+00 0.254248535662D-03 0.000000000000D+00  6 2 2 25 2 2 21 0 0.39100184D+00 0.41383680D+00 0.30789284D+06 0.30789284D+06 0.30789284D+06 0.10837184D+01  1  2  2  2  6  2        2 0.385964811483D-02 0.100000000000D+01
0.110199408508D-01 0.000000000000D+00 -.933073658978D-04 0.254248535662D-03 0.000000000000D+00  6 2 2 25 2 2 21 2 0.39100184D+00 0.41383680D+00 0.30789284D+06 0.30789284D+06 0.30789284D+06 0.10837184D+01  1  2  3  2  6  2        2 0.205591411136D-02 0.100000000000D+01
-.175645052109D-01 0.000000000000D+00 0.000000000000D+00 0.254248535662D-03 0.000000000000D+00  6 2 2 25 2 2 21 2 0.39100184D+00 0.41383680D+00 0.30789284D+06 0.30789284D+06 0.30789284D+06 0.10837184D+01  1  2 15  2  6  2        2 -.327688819850D-02 0.100000000000D+01
-.442692960376D-03 0.000000000000D+00 0.000000000000D+00 0.254248535662D-03 0.000000000000D+00  6 2 2 25 2 2 21 2 0.39100184D+00 0.41383680D+00 0.30789284D+06 0.30789284D+06 0.30789284D+06 0.10837184D+01  1  2  4  2  6  2        2 -.825901623757D-04 0.100000000000D+01
-.135983474293D+00 0.000000000000D+00 -.901393625716D-02 0.254248535662D-03 0.000000000000D+00  6 2 2 25 2 2 21 2 0.39100184D+00 0.79826536D+00 0.30789284D+06 0.30789284D+06 0.30789284D+06 0.10837184D+01  1  2  5  2  6  2        2 -.165281967180D-03 0.100000000000D+01
0.117312669059D+00 0.000000000000D+00 0.736625980447D-02 0.254248535662D-03 0.000000000000D+00  6 2 2 25 2 2 21 2 0.39100184D+00 0.41383680D+00 0.30789284D+06 0.30789284D+06 0.30789284D+06 0.10837184D+01  1  2  6  2  6  2        2 0.218862129140D-01 0.100000000000D+01
-.916771250480D-02 0.000000000000D+00 -.642382750491D-03 0.254248535662D-03 0.000000000000D+00  6 2 21 25 2 2 -2 2 0.39100184D+00 0.79826536D+00 0.30789284D+06 0.30789284D+06 0.30789284D+06 0.10837184D+01  1  2  5  5  6  2        2 -.603910189817D-07 0.100000000000D+01
  </mgrwgt>
  </event>
  <event>
  5     66 -.18411016E-05 0.13801403E+02 0.75467711E-02 0.94974198E-01
        2 -1    0    0  502    0 0.00000000E+00 0.00000000E+00 0.31100786E+04 0.31100787E+04 0.32000000E+00 0.0000E+00 0.9000E+01
        2 -1    0    0  501    0 0.00000000E+00 0.00000000E+00 -.21264988E+04 0.21264988E+04 0.32000000E+00 0.0000E+00 0.9000E+01
       25  1    1    2    0    0 -.44587088E+03 0.15840057E+03 0.27430067E+04 0.27863242E+04 0.12500000E+03 0.0000E+00 0.9000E+01
        2  1    1    2  501    0 0.43547019E+03 -.16749546E+03 -.20788331E+04 0.21305483E+04 0.32000000E+00 0.0000E+00 0.9000E+01
        2  1    1    2  502    0 0.10400700E+02 0.90948920E+01 0.31940616E+03 0.31970500E+03 0.32000000E+00 0.0000E+00 0.9000E+01
#aMCatNLO 1  0  0  5  1 0.12937821D+01 0.00000000D+00  -5  6  0 0.00000000D+00 0.00000000D+00 0.00000000D+00 0.00000000D+00 0.00000000D+00
  <mgrwgt>
 -.2940655293D-01    9    2    0
 0.257168788853093D+04 0.000000000000000D+00 0.000000000000000D+00 0.257168788853093D+04
 0.257168788853093D+04 -.000000000000000D+00 -.000000000000000D+00 -.257168788853093D+04
 0.231254516881129D+04 -.445886795767716D+03 0.158420723794172D+03 0.226016105563851D+04
 0.256669942338400D+04 0.435497350590757D+03 -.167505774343455D+03 -.252393141808366D+04
 0.264131184866565D+03 0.103894451769582D+02 0.908505054928333D+01 0.263770362445153D+03
 0.000000000000000D+00 0.000000000000000D+00 0.000000000000000D+00 0.000000000000000D+00
 0.257168788853093D+04 0.000000000000000D+00 0.000000000000000D+00 0.257168788853093D+04
 0.257168788853093D+04 -.000000000000000D+00 -.000000000000000D+00 -.257168788853093D+04
 0.231255082395088D+04 -.445886566631901D+03 0.158420924161990D+03 0.226016687300756D+04
 0.256669310291133D+04 0.435497604908523D+03 -.167505551955280D+03 -.252392496138766D+04
 0.151526707111574D+03 0.711865785895838D+01 0.578365290023766D+01 0.151248857970873D+03
 0.112605143088075D+03 0.327030386441989D+01 0.330097489305271D+01 0.112509230409223D+03
0.247850776825D-04 0.000000000000D+00 0.000000000000D+00 0.191907306482D-03 0.000000000000D+00  6 2 2 25 2 2 21 0 0.47847364D+00 0.32715366D+00 0.23514127D+06 0.23514127D+06 0.23514127D+06 0.10924667D+01  1  2  2  3  6  5        2 0.383319980654D-05 0.100000000000D+01
0.563118189708D-05 0.000000000000D+00 -.951812243616D-07 0.191907306482D-03 0.000000000000D+00  6 2 2 25 2 2 21 2 0.47847364D+00 0.32715366D+00 0.23514127D+06 0.23514127D+06 0.23514127D+06 0.10924667D+01  1  2  3  3  6  5        2 0.103941064444D-05 0.100000000000D+01
-.175317628728D-04 0.000000000000D+00 0.000000000000D+00 0.191907306482D-03 0.000000000000D+00  6 2 2 25 2 2 21 2 0.47847364D+00 0.32715366D+00 0.23514127D+06 0.23514127D+06 0.23514127D+06 0.10924667D+01  1  2 15  3  6  5        2 -.323603486425D-05 0.100000000000D+01
0.111577360619D-14 0.000000000000D+00 0.000000000000D+00 0.191907306482D-03 0.000000000000D+00  6 2 2 25 2 2 21 2 0.47847364D+00 0.32715366D+00 0.23514965D+06 0.23514965D+06 0.23514965D+06 0.10924655D+01  1  2 12  3  6  5        2 0.205949589893D-15 0.100000000000D+01
0.140883724882D-05 0.000000000000D+00 0.000000000000D+00 0.191907306482D-03 0.000000000000D+00  6 2 2 25 2 2 21 2 0.47847364D+00 0.32715366D+00 0.23514965D+06 0.23514965D+06 0.23514965D+06 0.10924655D+01  1  2 12  3  6  5        2 0.260043302702D-06 0.100000000000D+01
-.334051219345D+00 0.000000000000D+00 0.000000000000D+00 0.191907306482D-03 0.000000000000D+00  6 2 2 25 2 2 21 2 0.47847364D+00 0.32715366D+00 0.23514127D+06 0.23514127D+06 0.23514127D+06 0.10924667D+01  1  2  4  3  6  5        2 -.616595946505D-01 0.100000000000D+01
-.542361584753D-01 0.000000000000D+00 0.000000000000D+00 0.191907306482D-03 0.000000000000D+00  6 2 2 25 2 2 21 2 0.47847364D+00 0.32715366D+00 0.23514127D+06 0.23514127D+06 0.23514127D+06 0.10924667D+01  1  2  5  3  6  5        2 -.100109784168D-01 0.100000000000D+01
0.136683902632D+00 0.000000000000D+00 -.000000000000D+00 0.191907306482D-03 0.000000000000D+00  6 2 2 25 2 2 21 2 0.47847364D+00 0.32715366D+00 0.23514127D+06 0.23514127D+06 0.23514127D+06 0.10924667D+01  1  2  6  3  6  5        2 0.252292868383D-01 0.100000000000D+01
0.922788417048D-01 0.000000000000D+00 0.000000000000D+00 0.191907306482D-03 0.474144879982D-03  6 2 2 25 2 2 21 2 0.47847364D+00 0.32715366D+00 0.23514965D+06 0.23514965D+06 0.23514965D+06 0.10924655D+01  1  2 11  3  6  5        2 0.170328366790D-01 0.100000000000D+01
  </mgrwgt>
  </event>
  <event>
  6     66 0.18411016E-05 0.21860715E+02 0.75467711E-02 0.92692786E-01
        2 -1    0    0  502    0 0.00000000E+00 0.00000000E+00 0.15183006E+04 0.15183006E+04 0.32000000E+00 0.0000E+00 0.9000E+01
        2 -1    0    0  501    0 0.00000000E+00 0.00000000E+00 -.13330969E+04 0.13330970E+04 0.32000000E+00 0.0000E+00 0.9000E+01
       25  1    1    2    0    0 -.31423230E+03 0.46158321E+03 -.65360670E+03 0.86869311E+03 0.12500000E+03 0.0000E+00 0.9000E+01
        2  1    1    2  501    0 -.22865332E+02 0.19643912E+02 -.50810166E+03 0.50899519E+03 0.32000000E+00 0.0000E+00 0.9000E+01
        2  1    1    2  503    0 0.38508664E+02 -.46520842E+02 0.71675688E+02 0.93726264E+02 0.32000000E+00 0.0000E+00 0.9000E+01
       21  1    1    2  502  503 0.29858897E+03 -.43470628E+03 0.12752363E+04 0.13799830E+04 0.75000000E+00 0.0000E+00 0.9000E+01
#aMCatNLO 2  0  0  5  1 0.26906790D+02 0.00000000D+00  -5  6  0 0.00000000D+00 0.00000000D+00 0.00000000D+00 0.00000000D+00 0.00000000D+00
  <mgrwgt>
 0.1666990877D-02    3    2    0
 0.142268829451446D+04 0.000000000000000D+00 0.000000000000000D+00 0.142268829451446D+04
 0.142268829451446D+04 -.000000000000000D+00 -.000000000000000D+00 -.142268829451446D+04
 0.914363944847883D+03 -.314576536966656D+03 0.462076988179012D+03 -.712715148585507D+03
 0.544050295932115D+03 -.230777001283359D+02 0.199447160848365D+02 -.543194580754359D+03
 0.138696234824892D+04 0.337654237094992D+03 -.482021704263848D+03 0.125590972933987D+04
 0.000000000000000D+00 0.000000000000000D+00 0.000000000000000D+00 0.000000000000000D+00
 0.142268829451446D+04 0.000000000000000D+00 0.000000000000000D+00 0.142268829451446D+04
 0.142268829451446D+04 -.000000000000000D+00 -.000000000000000D+00 -.142268829451446D+04
 0.912983341082890D+03 -.314228293097040D+03 0.461579849138271D+03 -.711419850567643D+03
 0.543261237320490D+03 -.228704874223919D+02 0.196489075011102D+02 -.542423850152318D+03
 0.888345217817702D+02 0.383130207131967D+02 -.462885202917709D+02 0.654297913279895D+02
 0.130029748884377D+04 0.298785759806236D+03 -.434940236347610D+03 0.118841390939197D+04
-.883870029492D-10 0.000000000000D+00 0.000000000000D+00 0.203791244655D-04 0.000000000000D+00  6 2 2 25 2 2 21 2 0.23358471D+00 0.20509184D+00 0.35409988D+06 0.35409988D+06 0.35409988D+06 0.10792645D+01  1  2 13  3  6  5        2 -.344110622468D-09 0.100000000000D+01
-.378404269070D-02 0.000000000000D+00 0.000000000000D+00 0.203791244655D-04 0.000000000000D+00  6 2 2 25 2 2 21 2 0.23358471D+00 0.20509184D+00 0.35409988D+06 0.35409988D+06 0.35409988D+06 0.10792645D+01  1  2 13  3  6  5        2 -.147321352947D-01 0.100000000000D+01
0.421221999279D-02 0.000000000000D+00 0.000000000000D+00 0.203791244655D-04 0.607047991200D-08  6 2 2 25 2 2 21 2 0.23358471D+00 0.20509184D+00 0.35409988D+06 0.35409988D+06 0.35409988D+06 0.10792645D+01  1  2  1  3  6  5        2 0.163991265155D-01 0.100000000000D+01
  </mgrwgt>
  </event>
  <event>
  5     66 0.18411016E-05 0.17192348E+03 0.75467711E-02 0.89235192E-01
        2 -1    0    0  502    0 0.00000000E+00 0.00000000E+00 0.20404626E+04 0.20404626E+04 0.32000000E+00 0.0000E+00 0.9000E+01
        2 -1    0    0  501    0 0.00000000E+00 0.00000000E+00 -.10985534E+04 0.10985534E+04 0.32000000E+00 0.0000E+00 0.9000E+01
       25  1    1    2    0    0 -.55968868E+03 0.34616846E+03 0.99475178E+03 0.11992665E+04 0.12500000E+03 0.0000E+00 0.9000E+01
        2  1    1    2  501    0 0.61412228E+03 -.18303781E+03 -.88352574E+03 0.10914517E+04 0.32000000E+00 0.0000E+00 0.9000E+01
        2  1    1    2  502    0 -.54433600E+02 -.16313065E+03 0.83068317E+03 0.84829786E+03 0.32000000E+00 0.0000E+00 0.9000E+01
#aMCatNLO 1  0  0  2  4 0.14899537D+03 0.00000000D+00  -5  6  0 0.00000000D+00 0.00000000D+00 0.00000000D+00 0.00000000D+00 0.00000000D+00
  <mgrwgt>
 0.3286041558D-03   11    2    0
 0.149718309573750D+04 0.000000000000000D+00 0.000000000000000D+00 0.149718309573750D+04
 0.149718309573750D+04 0.000000000000000D+00 0.000000000000000D+00 -.149718309573750D+04
 0.944445824393706D+03 -.559766393727497D+03 0.346146302292012D+03 0.665730603981511D+03
 0.142212354681327D+04 0.614184400311724D+03 -.183062386472228D+03 -.126952789156977D+04
 0.627796820268031D+03 -.544180065842273D+02 -.163083915819784D+03 0.603797287588256D+03
 0.000000000000000D+00 -.000000000000000D+00 0.000000000000000D+00 -.000000000000000D+00
 0.150894731520271D+04 0.000000000000000D+00 0.000000000000000D+00 0.150894731520271D+04
 0.205895791243274D+04 0.000000000000000D+00 0.000000000000000D+00 -.205895791243274D+04
 0.917001785243793D+03 -.513532070483603D+03 0.344027396652564D+03 0.665730603981511D+03
 0.145482889989346D+04 0.685641662224270D+03 -.186337252083375D+03 -.126952789156977D+04
 0.626240112717115D+03 -.232704477599920D+02 -.164511399416756D+03 0.603797287588256D+03
 0.569834429781076D+03 -.148839143980675D+03 0.682125484756651D+01 -.550010597230025D+03
0.159399302983D-04 0.000000000000D+00 0.000000000000D+00 0.312485303703D-06 0.000000000000D+00  6 2 2 25 2 2 21 0 0.31391733D+00 0.16900822D+00 0.54961465D+06 0.54961465D+06 0.54961465D+06 0.10656186D+01  1  2  2  2  6  2        2 0.365596895724D-04 0.100000000000D+01
0.162908633506D-05 0.000000000000D+00 -.612135294256D-07 0.312485303703D-06 0.000000000000D+00  6 2 2 25 2 2 21 2 0.31391733D+00 0.16900822D+00 0.54961465D+06 0.54961465D+06 0.54961465D+06 0.10656186D+01  1  2  3  2  6  2        2 0.424290914606D-05 0.100000000000D+01
-.115279294884D-04 0.000000000000D+00 0.000000000000D+00 0.312485303703D-06 0.000000000000D+00  6 2 2 25 2 2 21 2 0.31391733D+00 0.16900822D+00 0.54961465D+06 0.54961465D+06 0.54961465D+06 0.10656186D+01  1  2 15  2  6  2        2 -.300241653303D-04 0.100000000000D+01
0.303707790175D-09 0.000000000000D+00 0.000000000000D+00 0.312485303703D-06 0.000000000000D+00  6 2 2 25 2 2 21 2 0.31391733D+00 0.23399221D+00 0.68582102D+06 0.68582102D+06 0.68582102D+06 0.10589440D+01  1  2 12  2  6  2        2 0.438907033815D-09 0.100000000000D+01
0.212213623421D-03 0.000000000000D+00 0.000000000000D+00 0.312485303703D-06 0.000000000000D+00  6 2 2 25 2 2 21 2 0.31391733D+00 0.24636192D+00 0.68582102D+06 0.68582102D+06 0.68582102D+06 0.10589440D+01  1  2 12  2  6  2        2 0.276696387528D-03 0.100000000000D+01
-.887655588899D-04 0.000000000000D+00 0.000000000000D+00 0.312485303703D-06 0.000000000000D+00  6 2 2 25 2 2 21 2 0.31391733D+00 0.16900822D+00 0.54961465D+06 0.54961465D+06 0.54961465D+06 0.10656186D+01  1  2  4  2  6  2        2 -.231187380044D-03 0.100000000000D+01
-.269251152705D-03 0.000000000000D+00 -.126326593283D-04 0.312485303703D-06 0.000000000000D+00  6 2 2 25 2 2 21 2 0.31391733D+00 0.23304038D+00 0.54961465D+06 0.54961465D+06 0.54961465D+06 0.10656186D+01  1  2  5  2  6  2        2 -.404271185984D-03 0.100000000000D+01
0.260381520256D-03 0.000000000000D+00 0.120076515732D-04 0.312485303703D-06 0.000000000000D+00  6 2 2 25 2 2 21 2 0.31391733D+00 0.16900822D+00 0.54961465D+06 0.54961465D+06 0.54961465D+06 0.10656186D+01  1  2  6  2  6  2        2 0.678156283053D-03 0.100000000000D+01
0.124468865447D-10 0.000000000000D+00 0.000000000000D+00 0.312485303703D-06 0.000000000000D+00  6 2 21 25 2 2 -2 2 0.31391733D+00 0.23399221D+00 0.68582102D+06 0.68582102D+06 0.68582102D+06 0.10589440D+01  1  2 12  5  6  2        2 0.590269282113D-11 0.100000000000D+01
0.967119338004D-05 0.000000000000D+00 0.000000000000D+00 0.312485303703D-06 0.000000000000D+00  6 2 21 25 2 2 -2 2 0.31391733D+00 0.24636192D+00 0.68582102D+06 0.68582102D+06 0.68582102D+06 0.10589440D+01  1  2 12  5  6  2        2 0.375740023557D-05 0.100000000000D+01
-.106204092874D-04 0.000000000000D+00 -.513044822154D-06 0.312485303703D-06 0.000000000000D+00  6 2 21 25 2 2 -2 2 0.31391733D+00 0.23304038D+00 0.54961465D+06 0.54961465D+06 0.54961465D+06 0.10656186D+01  1  2  5  5  6  2        2 -.532622715546D-05 0.100000000000D+01
  </mgrwgt>
  </event>
  <event>
  5     66 0.18411016E-05 0.60304666E+02 0.75467711E-02 0.86651318E-01
        2 -1    0    0  502    0 0.00000000E+00 0.00000000E+00 0.23685621E+04 0.23685622E+04 0.32000000E+00 0.0000E+00 0.9000E+01
        2 -1    0    0  501    0 0.00000000E+00 0.00000000E+00 -.19391316E+04 0.19391316E+04 0.32000000E+00 0.0000E+00 0.9000E+01
       25  1    1    2    0    0 -.61130867E+03 -.54744537E+03 0.71621624E+03 0.10963510E+04 0.12500000E+03 0.0000E+00 0.9000E+01
        2  1    1    2  501    0 0.55512952E+03 0.52550679E+03 -.16648533E+04 0.18319560E+04 0.32000000E+00 0.0000E+00 0.9000E+01
        2  1    1    2  502    0 0.56179157E+02 0.21938576E+02 0.13780676E+04 0.13793868E+04 0.32000000E+00 0.0000E+00 0.9000E+01
#aMCatNLO 1  0  0  2  5 0.59186576D+02 0.00000000D+00  -5  6  0 0.00000000D+00 0.00000000D+00 0.00000000D+00 0.00000000D+00 0.00000000D+00
  <mgrwgt>
 0.1720810365D-02    7    2    0
 0.214311776232232D+04 0.000000000000000D+00 0.000000000000000D+00 0.214311776232232D+04
 0.214311776232232D+04 0.000000000000000D+00 0.000000000000000D+00 -.214311776232232D+04
 0.103019527658442D+04 -.611343615588138D+03 -.547481193427045D+03 0.610082481653234D+03
 0.200794207850454D+04 0.555170220033505D+03 0.525544867250960D+03 -.185672292222702D+04
 0.124809816955569D+04 0.561733955546327D+02 0.219363261760849D+02 0.124664044057379D+04
 0.000000000000000D+00 -.000000000000000D+00 -.000000000000000D+00 -.000000000000000D+00
 0.224343215136471D+04 0.000000000000000D+00 0.000000000000000D+00 0.224343215136471D+04
 0.246408850298151D+04 0.000000000000000D+00 0.000000000000000D+00 -.246408850298151D+04
 0.979180400735562D+03 -.591934988169482D+03 -.469661146514465D+03 0.610082481653234D+03
 0.206586434540779D+04 0.594519253641246D+03 0.683317159709710D+03 -.185672292222702D+04
 0.125487015926832D+04 0.803496510369492D+02 0.118872461597798D+03 0.124664044057379D+04
 0.407605748934553D+03 -.829339165087130D+02 -.332528474793042D+03 -.220656351616800D+03
0.145548817158D-02 0.000000000000D+00 0.000000000000D+00 0.280711471244D-04 0.000000000000D+00  6 2 2 25 2 2 21 0 0.36439418D+00 0.29832794D+00 0.68466869D+06 0.68466869D+06 0.68466869D+06 0.10589943D+01  1  2  2  2  6  2        2 0.718059145451D-03 0.100000000000D+01
0.709474316264D-03 0.000000000000D+00 -.558945781769D-05 0.280711471244D-04 0.000000000000D+00  6 2 2 25 2 2 21 2 0.36439418D+00 0.29832794D+00 0.68466869D+06 0.68466869D+06 0.68466869D+06 0.10589943D+01  1  2  3  2  6  2        2 0.392532324646D-03 0.100000000000D+01
-.874504800792D-03 0.000000000000D+00 0.000000000000D+00 0.280711471244D-04 0.000000000000D+00  6 2 2 25 2 2 21 2 0.36439418D+00 0.29832794D+00 0.68466869D+06 0.68466869D+06 0.68466869D+06 0.10589943D+01  1  2 15  2  6  2        2 -.483839082683D-03 0.100000000000D+01
-.156276729514D-03 0.000000000000D+00 0.000000000000D+00 0.280711471244D-04 0.000000000000D+00  6 2 2 25 2 2 21 2 0.36439418D+00 0.29832794D+00 0.68466869D+06 0.68466869D+06 0.68466869D+06 0.10589943D+01  1  2  4  2  6  2        2 -.864635498677D-04 0.100000000000D+01
-.551766151428D-02 0.000000000000D+00 -.176943184018D-02 0.280711471244D-04 0.000000000000D+00  6 2 2 25 2 2 21 2 0.36439418D+00 0.34914468D+00 0.68466869D+06 0.68466869D+06 0.68466869D+06 0.10589943D+01  1  2  5  2  6  2        2 -.199275835969D-02 0.100000000000D+01
0.574641330698D-02 0.000000000000D+00 0.174776639167D-02 0.280711471244D-04 0.000000000000D+00  6 2 2 25 2 2 21 2 0.36439418D+00 0.29832794D+00 0.68466869D+06 0.68466869D+06 0.68466869D+06 0.10589943D+01  1  2  6  2  6  2        2 0.317932999413D-02 0.100000000000D+01
-.117402238937D-03 0.000000000000D+00 -.419369019906D-04 0.280711471244D-04 0.000000000000D+00  6 2 21 25 2 2 -2 2 0.36439418D+00 0.34914468D+00 0.68466869D+06 0.68466869D+06 0.68466869D+06 0.10589943D+01  1  2  5  5  6  2        2 -.605010732397D-05 0.100000000000D+01
  </mgrwgt>
  </event>
  <event>
  5     66 0.18411016E-05 0.28830754E+02 0.75467711E-02 0.88006676E-01
        2 -1    0    0  502    0 0.00000000E+00 0.00000000E+00 0.83851520E+03 0.83851526E+03 0.32000000E+00 0.0000E+00 0.9000E+01
        2 -1    0    0  501    0 -.00000000E+00 -.00000000E+00 -.29579460E+04 0.29579461E+04 0.32000000E+00 0.0000E+00 0.9000E+01
       25  1    1    2    0    0 -.66653925E+03 0.21934421E+03 -.17102783E+03 0.73298157E+03 0.12500000E+03 0.0000E+00 0.9000E+01
        2  1    1    2  501    0 0.28174815E+02 0.61022784E+01 -.23003003E+04 0.23004810E+04 0.32000000E+00 0.0000E+00 0.9000E+01
        2  1    1    2  502    0 0.63836444E+03 -.22544649E+03 0.35189733E+03 0.76299876E+03 0.32000000E+00 0.0000E+00 0.9000E+01
#aMCatNLO 1  0  0  5  2 0.72705228D+01 0.00000000D+00  -5  6  0 0.00000000D+00 0.00000000D+00 0.00000000D+00 0.00000000D+00 0.00000000D+00
  <mgrwgt>
 0.1911471291D-02    4    2    0
 0.157489138233481D+04 0.000000000000000D+00 0.000000000000000D+00 0.157489138233481D+04
 0.157489138233481D+04 -.000000000000000D+00 -.000000000000000D+00 -.157489138233481D+04
 0.768397101095036D+03 -.666500314601888D+03 0.219328999879498D+03 0.287195448116257D+03
 0.122502653636726D+04 0.281774386465926D+02 0.610281426878777D+01 -.122468722636161D+04
 0.115635912720731D+04 0.638322875955296D+03 -.225431814148286D+03 0.937491778245353D+03
 0.000000000000000D+00 -.000000000000000D+00 0.000000000000000D+00 0.000000000000000D+00
 0.157489138233481D+04 0.000000000000000D+00 0.000000000000000D+00 0.157489138233481D+04
 0.157489138233481D+04 -.000000000000000D+00 -.000000000000000D+00 -.157489138233481D+04
 0.749505741843997D+03 -.598317293728918D+03 0.195249301863818D+03 0.387334459096678D+03
 0.108104441511661D+04 0.131764360926235D+03 -.304802202599212D+02 -.107255122806205D+04
 0.954677832482315D+03 0.741141620636965D+03 0.589392897370953D+02 0.598869787281034D+03
 0.364554775226697D+03 -.274588687834282D+03 -.223708371340992D+03 0.863469816843379D+02
0.168103523503D-02 0.000000000000D+00 0.000000000000D+00 0.172222484092D-04 0.000000000000D+00  6 2 2 25 2 2 21 0 0.12900234D+00 0.45506863D+00 0.50303517D+06 0.50303517D+06 0.50303517D+06 0.10683247D+01  1  2  2  3  6  5        2 0.164643764711D-02 0.100000000000D+01
0.141597550828D-02 0.000000000000D+00 -.645561792924D-05 0.172222484092D-04 0.000000000000D+00  6 2 2 25 2 2 21 2 0.12900234D+00 0.45506863D+00 0.50303517D+06 0.50303517D+06 0.50303517D+06 0.10683247D+01  1  2  3  3  6  5        2 0.158281713386D-02 0.100000000000D+01
-.114472652183D-02 0.000000000000D+00 0.000000000000D+00 0.172222484092D-04 0.000000000000D+00  6 2 2 25 2 2 21 2 0.12900234D+00 0.45506863D+00 0.50303517D+06 0.50303517D+06 0.50303517D+06 0.10683247D+01  1  2 15  3  6  5        2 -.127960740969D-02 0.100000000000D+01
-.341520150901D-04 0.000000000000D+00 0.000000000000D+00 0.172222484092D-04 0.000000000000D+00  6 2 2 25 2 2 21 2 0.12900234D+00 0.45506863D+00 0.50303517D+06 0.50303517D+06 0.50303517D+06 0.10683247D+01  1  2  4  3  6  5        2 -.381760802532D-04 0.100000000000D+01
  </mgrwgt>
  </event>
  <event>
  6     66 0.18411016E-05 0.15476177E+03 0.75467711E-02 0.88213373E-01
        2 -1    0    0  502    0 0.00000000E+00 0.00000000E+00 0.15996483E+04 0.15996483E+04 0.32000000E+00 0.0000E+00 0.9000E+01
        2 -1    0    0  503    0 0.00000000E+00 0.00000000E+00 -.36026068E+04 0.36026068E+04 0.32000000E+00 0.0000E+00 0.9000E+01
       25  1    1    2    0    0 -.64799460E+03 -.58614921E+03 -.55149143E+03 0.10407861E+04 0.12500000E+03 0.0000E+00 0.9000E+01
        2  1    1    2  501    0 0.51458670E+02 0.18578257E+03 -.18281578E+04 0.18382938E+04 0.32000000E+00 0.0000E+00 0.9000E+01
        2  1    1    2  502    0 0.52844464E+03 0.43425081E+03 0.12615576E+04 0.14350454E+04 0.32000000E+00 0.0000E+00 0.9000E+01
       21  1    1    2  503  501 0.68091288E+02 -.33884166E+02 -.88486696E+03 0.88812986E+03 0.75000000E+00 0.0000E+00 0.9000E+01
#aMCatNLO 2  0  0  2  5 0.76056296D+02 0.00000000D+00  -5  6  0 0.00000000D+00 0.00000000D+00 0.00000000D+00 0.00000000D+00 0.00000000D+00
  <mgrwgt>
 0.1380963950D-03    2    2    0
 0.208301244795594D+04 0.000000000000000D+00 0.000000000000000D+00 0.208301244795594D+04
 0.208301244795594D+04 0.000000000000000D+00 0.000000000000000D+00 -.208301244795594D+04
 0.923924711501218D+03 -.632844257982238D+03 -.593690839267170D+03 -.291635397425900D+03
 0.141238360791064D+04 0.745493620630474D+02 0.174305873923293D+03 -.139960255459417D+04
 0.182971657650002D+04 0.558294895919190D+03 0.419384965343877D+03 0.169123795202007D+04
 0.000000000000000D+00 0.000000000000000D+00 -.000000000000000D+00 -.000000000000000D+00
 0.208548629121709D+04 0.000000000000000D+00 0.000000000000000D+00 0.208548629121709D+04
 0.276333762684457D+04 0.000000000000000D+00 0.000000000000000D+00 -.276333762684457D+04
 0.929593387839602D+03 -.647990341295196D+03 -.586153716418724D+03 -.291635397425900D+03
 0.141281819931304D+04 0.514631337907966D+02 0.185794239265002D+03 -.139960255459417D+04
 0.182430750507884D+04 0.528435919528923D+03 0.434243643229912D+03 0.169123795202007D+04
 0.682104825830167D+03 0.680912879754761D+02 -.338841660761896D+02 -.677851335627485D+03
-.122577193770D-09 0.000000000000D+00 0.000000000000D+00 0.189799641101D-05 0.000000000000D+00  6 2 2 25 2 2 21 2 0.24580779D+00 0.55448938D+00 0.84224336D+06 0.84224336D+06 0.84224336D+06 0.10528637D+01  1  2 13  2  6  2        2 -.161759694267D-10 0.100000000000D+01
0.104619588743D-02 0.000000000000D+00 0.000000000000D+00 0.189799641101D-05 0.857147924199D-09  6 2 2 25 2 2 21 2 0.24609971D+00 0.55424715D+00 0.84224336D+06 0.84224336D+06 0.84224336D+06 0.10528637D+01  1  2  1  2  6  2        2 0.138096411132D-03 0.100000000000D+01
  </mgrwgt>
  </event>
  <event>
  5     66 0.18411016E-05 0.14218742E+03 0.75467711E-02 0.93344403E-01
        2 -1    0    0  502    0 0.00000000E+00 0.00000000E+00 0.24926025E+03 0.24926046E+03 0.32000000E+00 0.0000E+00 0.9000E+01
        2 -1    0    0  501    0 -.00000000E+00 -.00000000E+00 -.27324012E+04 0.27324012E+04 0.32000000E+00 0.0000E+00 0.9000E+01
       25  1    1    2    0    0 0.54559778E+03 0.31241947E+02 -.97893325E+03 0.11280906E+04 0.12500000E+03 0.0000E+00 0.9000E+01
        2  1    1    2  501    0 -.41735210E+03 0.30233187E+02 -.16181242E+04 0.16713536E+04 0.32000000E+00 0.0000E+00 0.9000E+01
        2  1    1    2  502    0 -.12824568E+03 -.61475134E+02 0.11391651E+03 0.18221751E+03 0.32000000E+00 0.0000E+00 0.9000E+01
#aMCatNLO 1  0  0  5  2 0.72705228D+01 0.00000000D+00  -5  6  0 0.00000000D+00 0.00000000D+00 0.00000000D+00 0.00000000D+00 0.00000000D+00
  <mgrwgt>
 0.2519840552D-02    1    2    0
 0.825275309144883D+03 0.000000000000000D+00 0.000000000000000D+00 0.825275309144883D+03
 0.825275309144883D+03 -.000000000000000D+00 -.000000000000000D+00 -.825275309144883D+03
 0.565157842437253D+03 0.545655579034557D+03 0.312294636448274D+02 -.711554392667848D+02
 0.584953684392496D+03 -.417438070627069D+03 0.302321664785408D+02 -.408659132022667D+03
 0.500439091460017D+03 -.128217508407489D+03 -.614616301233682D+02 0.479814571289452D+03
 0.000000000000000D+00 0.000000000000000D+00 0.000000000000000D+00 0.000000000000000D+00
 0.825275309144883D+03 0.000000000000000D+00 0.000000000000000D+00 0.825275309144883D+03
 0.825275309144883D+03 -.000000000000000D+00 -.000000000000000D+00 -.825275309144883D+03
 0.547769214624866D+03 0.532314422803062D+03 0.248343213596391D+02 -.212302672896743D+02
 0.560457314682319D+03 -.431168626453673D+03 0.236503637740223D+02 -.357276751883362D+03
 0.166255620587090D+03 -.292166019698982D+02 -.161412509650717D+03 0.270799422892358D+02
 0.376068468395491D+03 -.719291943794907D+02 0.112927824517055D+03 0.351427076883801D+03
0.378049321176D-03 0.000000000000D+00 0.000000000000D+00 0.222957724629D-06 0.000000000000D+00  6 2 2 25 2 2 21 2 0.38347748D-01 0.42036943D+00 0.31437294D+06 0.31437294D+06 0.31437294D+06 0.10830514D+01  1  2 14  3  6  5        2 0.251984055150D-02 0.100000000000D+01
  </mgrwgt>
  </event>
  <event>
  5     66 0.18411016E-05 0.12444784E+03 0.75467711E-02 0.95370340E-01
        2 -1    0    0  502    0 0.00000000E+00 0.00000000E+00 0.37402147E+04 0.37402147E+04 0.32000000E+00 0.0000E+00 0.9000E+01
        2 -1    0    0  501    0 0.00000000E+00 0.00000000E+00 -.12556047E+04 0.12556047E+04 0.32000000E+00 0.0000E+00 0.9000E+01
       25  1    1    2    0    0 0.27816732E+03 0.36401239E+03 0.18611851E+04 0.19208115E+04 0.12500000E+03 0.0000E+00 0.9000E+01
        2  1    1    2  501    0 -.22544593E+03 -.25126334E+03 -.12003881E+04 0.12469526E+04 0.32000000E+00 0.0000E+00 0.9000E+01
        2  1    1    2  502    0 -.52721390E+02 -.11274905E+03 0.18238130E+04 0.18280552E+04 0.32000000E+00 0.0000E+00 0.9000E+01
#aMCatNLO 1  0  0  1  5 0.44201887D+02 0.00000000D+00  -5  6  0 0.00000000D+00 0.00000000D+00 0.00000000D+00 0.00000000D+00 0.00000000D+00
  <mgrwgt>
 0.7832015962D-02    1    2    0
 0.216707894006615D+04 0.000000000000000D+00 0.000000000000000D+00 0.216707894006615D+04
 0.216707894006615D+04 0.000000000000000D+00 0.000000000000000D+00 -.216707894006615D+04
 0.114724919668960D+04 0.278175810448246D+03 0.364013941236749D+03 0.104435041455044D+04
 0.212546089675956D+04 -.225462294561103D+03 -.251281733048189D+03 -.209847760722422D+04
 0.106144778668315D+04 -.527135158871433D+02 -.112732208188560D+03 0.105412719267378D+04
 0.000000000000000D+00 -.000000000000000D+00 0.000000000000000D+00 -.000000000000000D+00
 0.328442387225715D+04 0.000000000000000D+00 0.000000000000000D+00 0.328442387225715D+04
 0.378152296415291D+04 0.000000000000000D+00 0.000000000000000D+00 -.378152296415291D+04
 0.138009322631551D+04 0.860979104145661D+03 0.238913179156822D+03 0.104435041455044D+04
 0.229208553794486D+04 0.793220646370085D+03 -.469945583452710D+03 -.209847760722422D+04
 0.117256627153071D+04 0.462448473814768D+03 -.223313528169537D+03 0.105412719267378D+04
 0.222120180061898D+04 -.211664822433051D+04 0.454345932465425D+03 -.497099091895756D+03
0.383723231593D-01 0.000000000000D+00 0.000000000000D+00 0.966485569311D-04 0.000000000000D+00  6 2 2 25 2 2 21 2 0.57541764D+00 0.19316995D+00 0.21946078D+06 0.21946078D+06 0.21946078D+06 0.10947415D+01  1  2 14  1  6  1        2 0.783201596159D-02 0.100000000000D+01
  </mgrwgt>
  </event>
  <event>
  5     66 -.18411016E-05 0.23200792E+03 0.75467711E-02 0.93934541E-01
        2 -1    0    0  502    0 0.00000000E+00 0.00000000E+00 0.19397674E+04 0.19397674E+04 0.32000000E+00 0.0000E+00 0.9000E+01
        2 -1    0    0  501    0 0.00000000E+00 0.00000000E+00 -.86608682E+03 0.86608688E+03 0.32000000E+00 0.0000E+00 0.9000E+01
       25  1    1    2    0    0 0.14642203E+03 0.50348811E+03 0.77171733E+03 0.94133540E+03 0.12500000E+03 0.0000E+00 0.9000E+01
        2  1    1    2  501    0 -.84311647E+02 -.27990455E+03 -.74072465E+03 0.79632161E+03 0.32000000E+00 0.0000E+00 0.9000E+01
        2  1    1    2  502    0 -.62110381E+02 -.22358357E+03 0.10426879E+04 0.10681973E+04 0.32000000E+00 0.0000E+00 0.9000E+01
#aMCatNLO 1  0  0  5  1 0.16616851D+02 0.00000000D+00  -5  6  0 0.00000000D+00 0.00000000D+00 0.00000000D+00 0.00000000D+00 0.00000000D+00
  <mgrwgt>
 -.6556764924D-02    8    2    0
 0.129615086501610D+04 0.000000000000000D+00 0.000000000000000D+00 0.129615086501610D+04
 0.129615086501610D+04 -.000000000000000D+00 -.000000000000000D+00 -.129615086501610D+04
 0.699346176677341D+03 0.146421132999899D+03 0.503482136121964D+03 0.445563312280427D+03
 0.116875374481040D+04 -.843220771763387D+02 -.279939337485698D+03 -.113159580709592D+04
 0.724201808544469D+03 -.620990558235604D+02 -.223542798636265D+03 0.686032494815492D+03
 0.000000000000000D+00 0.000000000000000D+00 0.000000000000000D+00 0.000000000000000D+00
 0.129615086501610D+04 0.000000000000000D+00 0.000000000000000D+00 0.129615086501610D+04
 0.129615086501610D+04 -.000000000000000D+00 -.000000000000000D+00 -.129615086501610D+04
 0.699472270157029D+03 0.146391393911583D+03 0.503375082013930D+03 0.445891851590406D+03
 0.116826876849420D+04 -.843717626227066D+02 -.280118194049382D+03 -.113104691258737D+04
 0.592824465506152D+03 -.525467274771126D+02 -.198584268473812D+03 0.556097092825364D+03
 0.131736225874823D+03 -.947290381176422D+01 -.246726194907363D+02 0.129057968171596D+03
0.650086971639D-05 0.000000000000D+00 0.000000000000D+00 0.244675297788D-05 0.000000000000D+00  6 2 2 25 2 2 21 0 0.29842575D+00 0.13324413D+00 0.28270799D+06 0.28270799D+06 0.28270799D+06 0.10864646D+01  1  2  2  3  6  5        2 0.248466107568D-04 0.100000000000D+01
0.582992449541D-06 0.000000000000D+00 -.249650514292D-07 0.244675297788D-05 0.000000000000D+00  6 2 2 25 2 2 21 2 0.29842575D+00 0.13324413D+00 0.28270799D+06 0.28270799D+06 0.28270799D+06 0.10864646D+01  1  2  3  3  6  5        2 0.263020606276D-05 0.100000000000D+01
-.429019240241D-05 0.000000000000D+00 0.000000000000D+00 0.244675297788D-05 0.000000000000D+00  6 2 2 25 2 2 21 2 0.29842575D+00 0.13324413D+00 0.28270799D+06 0.28270799D+06 0.28270799D+06 0.10864646D+01  1  2 15  3  6  5        2 -.193554651970D-04 0.100000000000D+01
0.137184089066D-09 0.000000000000D+00 0.000000000000D+00 0.244675297788D-05 0.000000000000D+00  6 2 2 25 2 2 21 2 0.29842575D+00 0.13324413D+00 0.28266387D+06 0.28266387D+06 0.28266387D+06 0.10864696D+01  1  2 12  3  6  5        2 0.618926406657D-09 0.100000000000D+01
0.669402919392D-03 0.000000000000D+00 0.000000000000D+00 0.244675297788D-05 0.000000000000D+00  6 2 2 25 2 2 21 2 0.29842575D+00 0.13324413D+00 0.28266387D+06 0.28266387D+06 0.28266387D+06 0.10864696D+01  1  2 12  3  6  5        2 0.302011076011D-02 0.100000000000D+01
-.226421582885D-02 0.000000000000D+00 0.000000000000D+00 0.244675297788D-05 0.000000000000D+00  6 2 2 25 2 2 21 2 0.29842575D+00 0.13324413D+00 0.28270799D+06 0.28270799D+06 0.28270799D+06 0.10864646D+01  1  2  4  3  6  5        2 -.102151480781D-01 0.100000000000D+01
-.704991967319D-03 0.000000000000D+00 0.000000000000D+00 0.244675297788D-05 0.000000000000D+00  6 2 2 25 2 2 21 2 0.29842575D+00 0.13324413D+00 0.28270799D+06 0.28270799D+06 0.28270799D+06 0.10864646D+01  1  2  5  3  6  5        2 -.318061434260D-02 0.100000000000D+01
0.844666551800D-03 0.000000000000D+00 -.000000000000D+00 0.244675297788D-05 0.000000000000D+00  6 2 2 25 2 2 21 2 0.29842575D+00 0.13324413D+00 0.28270799D+06 0.28270799D+06 0.28270799D+06 0.10864646D+01  1  2  6  3  6  5        2 0.381076476600D-02 0.100000000000D+01
  </mgrwgt>
  </event>
  <event>
  6     66 0.18411016E-05 0.24223108E+02 0.75467711E-02 0.91656275E-01
        2 -1    0    0  502    0 0.00000000E+00 0.00000000E+00 0.76131781E+03 0.76131788E+03 0.32000000E+00 0.0000E+00 0.9000E+01
        2 -1    0    0  501    0 -.00000000E+00 -.00000000E+00 -.26290789E+04 0.26290789E+04 0.32000000E+00 0.0000E+00 0.9000E+01
       25  1    1    2    0    0 0.12053925E+03 0.62924823E+03 -.15698462E+04 0.17001545E+04 0.12500000E+03 0.0000E+00 0.9000E+01
        2  1    1    2  501    0 0.22440786E+02 -.31757447E+02 -.85531605E+03 0.85619961E+03 0.32000000E+00 0.0000E+00 0.9000E+01
        2  1    1    2  503    0 -.85529385E+02 -.48645212E+03 0.42077685E+03 0.64884837E+03 0.32000000E+00 0.0000E+00 0.9000E+01
       21  1    1    2  502  503 -.57450650E+02 -.11103866E+03 0.13662436E+03 0.18519433E+03 0.75000000E+00 0.0000E+00 0.9000E+01
#aMCatNLO 2  0  0  5  5 0.35753593D+02 0.00000000D+00  -5  6  0 0.00000000D+00 0.00000000D+00 0.00000000D+00 0.00000000D+00 0.00000000D+00
  <mgrwgt>
 0.2803200129D-02    1    2    0
 0.141476667342064D+04 0.000000000000000D+00 0.000000000000000D+00 0.141476667342064D+04
 0.141476667342064D+04 -.000000000000000D+00 -.000000000000000D+00 -.141476667342064D+04
 0.100171440971046D+04 0.120633587258777D+03 0.629673046949610D+03 -.759451216466111D+03
 0.461861642437459D+03 0.224928761500148D+02 -.315703605192879D+02 -.460232071475043D+03
 0.136595729469337D+04 -.143126463408791D+03 -.598102686430321D+03 0.121968328794115D+04
 0.000000000000000D+00 0.000000000000000D+00 0.000000000000000D+00 0.000000000000000D+00
 0.141476667342064D+04 0.000000000000000D+00 0.000000000000000D+00 0.141476667342064D+04
 0.141476667342064D+04 -.000000000000000D+00 -.000000000000000D+00 -.141476667342064D+04
 0.100077755376422D+04 0.120531839799576D+03 0.629247860528900D+03 -.758584153362458D+03
 0.461474426738931D+03 0.224459610558516D+02 -.317664112228742D+02 -.459832274296100D+03
 0.105510784569075D+04 -.855105832445309D+02 -.486412853224830D+03 0.932385672567444D+03
 0.312173520647378D+03 -.574672176108963D+02 -.111068596081196D+03 0.286030755091114D+03
0.136239531861D-02 0.000000000000D+00 0.000000000000D+00 0.925508640366D-05 0.335821729796D-07  6 2 2 25 2 2 21 2 0.11712582D+00 0.40447368D+00 0.42941217D+06 0.42941217D+06 0.42941217D+06 0.10732133D+01  1  2  1  3  6  5        2 0.280320012923D-02 0.100000000000D+01
  </mgrwgt>
  </event>
  <event>
  5     66 0.18411016E-05 0.43381160E+02 0.75467711E-02 0.93865670E-01
        2 -1    0    0  502    0 0.00000000E+00 0.00000000E+00 0.64065869E+03 0.64065877E+03 0.32000000E+00 0.0000E+00 0.9000E+01
        2 -1    0    0  501    0 -.00000000E+00 -.00000000E+00 -.14915965E+04 0.14915965E+04 0.32000000E+00 0.0000E+00 0.9000E+01
       25  1    1    2    0    0 -.53281772E+02 -.46070083E+03 -.76288893E+03 0.90150359E+03 0.12500000E+03 0.0000E+00 0.9000E+01
        2  1    1    2  501    0 0.30557500E+02 0.42374430E+03 -.58993640E+03 0.72699247E+03 0.32000000E+00 0.0000E+00 0.9000E+01
        2  1    1    2  502    0 0.22724272E+02 0.36956523E+02 0.50188753E+03 0.50375924E+03 0.32000000E+00 0.0000E+00 0.9000E+01
#aMCatNLO 1  0  0  5  1 0.12764181D+01 0.00000000D+00  -5  6  0 0.00000000D+00 0.00000000D+00 0.00000000D+00 0.00000000D+00 0.00000000D+00
  <mgrwgt>
 0.1634462726D-02    4    2    0
 0.977550192990204D+03 0.000000000000000D+00 0.000000000000000D+00 0.977550192990204D+03
 0.977550192990204D+03 -.000000000000000D+00 -.000000000000000D+00 -.977550192990204D+03
 0.651166265253005D+03 -.532862951168135D+02 -.460755916663486D+03 -.439610123877807D+03
 0.536138405826100D+03 0.305635455890866D+02 0.423801868740072D+03 -.326959073792422D+03
 0.767795714901304D+03 0.227227495277262D+02 0.369540479234130D+02 0.766569197670229D+03
 0.000000000000000D+00 0.000000000000000D+00 0.000000000000000D+00 -.000000000000000D+00
 0.977550192990204D+03 0.000000000000000D+00 0.000000000000000D+00 0.977550192990204D+03
 0.977550192990204D+03 -.000000000000000D+00 -.000000000000000D+00 -.977550192990204D+03
 0.629760579535432D+03 -.523793034354895D+02 -.459280874480898D+03 -.409012071269880D+03
 0.522143114579484D+03 0.313128877856468D+02 0.425020525285528D+03 -.301679446179718D+03
 0.714262736527347D+03 -.678660530260903D+02 0.340679654804594D+02 0.710214636125035D+03
 0.889339553381449D+02 0.889324686759323D+02 0.192383714909202D+00 0.476881324563665D+00
0.393912456085D-03 0.000000000000D+00 0.000000000000D+00 0.362682466701D-05 0.000000000000D+00  6 2 2 25 2 2 21 0 0.98562885D-01 0.22947639D+00 0.22498847D+06 0.22498847D+06 0.22498847D+06 0.10939199D+01  1  2  2  3  6  5        2 0.389932785717D-02 0.100000000000D+01
0.189102733418D-03 0.000000000000D+00 -.151272755090D-05 0.362682466701D-05 0.000000000000D+00  6 2 2 25 2 2 21 2 0.98562885D-01 0.22947639D+00 0.22498847D+06 0.22498847D+06 0.22498847D+06 0.10939199D+01  1  2  3  3  6  5        2 0.224005609557D-02 0.100000000000D+01
-.284180425986D-03 0.000000000000D+00 0.000000000000D+00 0.362682466701D-05 0.000000000000D+00  6 2 2 25 2 2 21 2 0.98562885D-01 0.22947639D+00 0.22498847D+06 0.22498847D+06 0.22498847D+06 0.10939199D+01  1  2 15  3  6  5        2 -.336631884672D-02 0.100000000000D+01
-.961193885781D-04 0.000000000000D+00 0.000000000000D+00 0.362682466701D-05 0.000000000000D+00  6 2 2 25 2 2 21 2 0.98562885D-01 0.22947639D+00 0.22498847D+06 0.22498847D+06 0.22498847D+06 0.10939199D+01  1  2  4  3  6  5        2 -.113860237975D-02 0.100000000000D+01
  </mgrwgt>
  </event>
  <event>
  6     66 -.18411016E-05 0.63172738E+02 0.75467711E-02 0.93978124E-01
        2 -1    0    0  502    0 0.00000000E+00 0.00000000E+00 0.38412640E+03 0.38412653E+03 0.32000000E+00 0.0000E+00 0.9000E+01
        2 -1    0    0  501    0 -.00000000E+00 -.00000000E+00 -.23053056E+04 0.23053057E+04 0.32000000E+00 0.0000E+00 0.9000E+01
       25  1    1    2    0    0 -.28075125E+03 -.42647603E+03 -.37871570E+03 0.64788398E+03 0.12500000E+03 0.0000E+00 0.9000E+01
        2  1    1    2  501    0 0.28548620E+03 0.33882386E+03 -.17542126E+04 0.18092999E+04 0.32000000E+00 0.0000E+00 0.9000E+01
        2  1    1    2  503    0 0.40204177E+01 0.72053274E+02 0.19421204E+03 0.20718653E+03 0.32000000E+00 0.0000E+00 0.9000E+01
       21  1    1    2  502  503 -.87553686E+01 0.15598898E+02 0.17537068E+02 0.25061791E+02 0.75000000E+00 0.0000E+00 0.9000E+01
#aMCatNLO 2  0  0  5  1 0.11047922D+02 0.00000000D+00  -5  6  0 0.00000000D+00 0.00000000D+00 0.00000000D+00 0.00000000D+00 0.00000000D+00
  <mgrwgt>
 -.4805402291D-02    6    2    0
 0.941025481633950D+03 0.000000000000000D+00 0.000000000000000D+00 0.941025481633950D+03
 0.941025481633950D+03 -.000000000000000D+00 -.000000000000000D+00 -.941025481633950D+03
 0.539484993920200D+03 -.280910997928166D+03 -.426675470236005D+03 0.120233576870040D+03
 0.795337395449470D+03 0.285650036169111D+03 0.338947633556303D+03 -.660363635539931D+03
 0.547228573898229D+03 -.473903824094487D+01 0.877278366797025D+02 0.540130058669891D+03
 0.000000000000000D+00 -.000000000000000D+00 0.000000000000000D+00 0.000000000000000D+00
 0.941025481633950D+03 0.000000000000000D+00 0.000000000000000D+00 0.941025481633950D+03
 0.941025481633950D+03 -.000000000000000D+00 -.000000000000000D+00 -.941025481633950D+03
 0.539520829268806D+03 -.280914163639289D+03 -.426616867419512D+03 0.120594387576295D+03
 0.794931079205889D+03 0.285645370456942D+03 0.339034003999902D+03 -.659831862792144D+03
 0.494012683072817D+03 0.402946180644444D+01 0.719988855072126D+02 0.488721244637548D+03
 0.535863717203859D+02 -.876066862409774D+01 0.155839779123976D+02 0.505162305783005D+02
-.131502436379D-08 0.000000000000D+00 0.000000000000D+00 0.246357407462D-05 0.000000000000D+00  6 2 2 25 2 2 21 2 0.59096381D-01 0.35466242D+00 0.28046818D+06 0.28046818D+06 0.28046818D+06 0.10867216D+01  1  2 13  3  6  5        2 -.973379581684D-08 0.100000000000D+01
-.102922631792D-02 0.000000000000D+00 0.000000000000D+00 0.246357407462D-05 0.000000000000D+00  6 2 2 25 2 2 21 2 0.59096381D-01 0.35466242D+00 0.28046818D+06 0.28046818D+06 0.28046818D+06 0.10867216D+01  1  2 13  3  6  5        2 -.761832183780D-02 0.100000000000D+01
-.198753428620D-03 0.000000000000D+00 0.000000000000D+00 0.246357407462D-05 0.000000000000D+00  6 2 2 25 2 2 21 2 0.59096381D-01 0.35466242D+00 0.27933038D+06 0.27933038D+06 0.27933038D+06 0.10868531D+01  1  2  8  3  6  5        2 -.147186807035D-02 0.100000000000D+01
-.882440854015D-03 0.000000000000D+00 0.000000000000D+00 0.246357407462D-05 0.000000000000D+00  6 2 2 25 2 2 21 2 0.59096381D-01 0.35466242D+00 0.27933038D+06 0.27933038D+06 0.27933038D+06 0.10868531D+01  1  2  9  3  6  5        2 -.653491376734D-02 0.100000000000D+01
0.973060758060D-03 0.000000000000D+00 0.000000000000D+00 0.246357407462D-05 0.000000000000D+00  6 2 2 25 2 2 21 2 0.59096381D-01 0.35466242D+00 0.27933038D+06 0.27933038D+06 0.27933038D+06 0.10868531D+01  1  2 10  3  6  5        2 0.720599926372D-02 0.100000000000D+01
0.488208220346D-03 0.000000000000D+00 0.000000000000D+00 0.246357407462D-05 0.205784670512D-07  6 2 2 25 2 2 21 2 0.59096381D-01 0.35466242D+00 0.28046818D+06 0.28046818D+06 0.28046818D+06 0.10867216D+01  1  2  1  3  6  5        2 0.361371185492D-02 0.100000000000D+01
  </mgrwgt>
  </event>
  <event>
  5     66 0.18411016E-05 0.65777367E+02 0.75467711E-02 0.95049384E-01
        2 -1    0    0  502    0 0.00000000E+00 0.00000000E+00 0.13129227E+04 0.13129227E+04 0.32000000E+00 0.0000E+00 0.9000E+01
        2 -1    0    0  501    0 0.00000000E+00 0.00000000E+00 -.22458070E+04 0.22458071E+04 0.32000000E+00 0.0000E+00 0.9000E+01
       25  1    1    2    0    0 0.26451296E+03 0.36430640E+03 -.41102046E+03 0.62229341E+03 0.12500000E+03 0.0000E+00 0.9000E+01
        2  1    1    2  501    0 -.29982760E+03 -.30881174E+03 -.17014346E+04 0.17550330E+04 0.32000000E+00 0.0000E+00 0.9000E+01
        2  1    1    2  502    0 0.35314638E+02 -.55494661E+02 0.11795707E+04 0.11814034E+04 0.32000000E+00 0.0000E+00 0.9000E+01
#aMCatNLO 1  0  0  2  1 0.33832573D+02 0.00000000D+00  -5  6  0 0.00000000D+00 0.00000000D+00 0.00000000D+00 0.00000000D+00 0.00000000D+00
  <mgrwgt>
 0.1109270200D-01    4    2    0
 0.171714040132741D+04 0.000000000000000D+00 0.000000000000000D+00 0.171714040132741D+04
 0.171714040132741D+04 0.000000000000000D+00 0.000000000000000D+00 -.171714040132741D+04
 0.533207091332137D+03 0.264531904666108D+03 0.364326061675272D+03 -.256854422669310D+03
 0.135646347277500D+04 -.299846056537834D+03 -.308832164093804D+03 -.128635461276145D+04
 0.154461023854768D+04 0.353141518717262D+02 -.554938975814680D+02 0.154320903543076D+04
 0.000000000000000D+00 0.000000000000000D+00 0.000000000000000D+00 0.000000000000000D+00
 0.177731836518055D+04 0.000000000000000D+00 0.000000000000000D+00 0.177731836518055D+04
 0.172198555895580D+04 0.000000000000000D+00 0.000000000000000D+00 -.172198555895580D+04
 0.530593537320820D+03 0.259292282197710D+03 0.364277119504559D+03 -.256854422669310D+03
 0.135951149479753D+04 -.313223265650521D+03 -.308957117686548D+03 -.128635461276145D+04
 0.154434241609053D+04 0.200998858738270D+02 -.556360107219141D+02 0.154320903543076D+04
 0.648564759274819D+02 0.338310975789835D+02 0.316008903903122D+00 0.553328062247523D+02
0.128396560500D-01 0.000000000000D+00 0.000000000000D+00 0.131094638785D-03 0.000000000000D+00  6 2 2 25 2 2 21 0 0.20198811D+00 0.34550878D+00 0.23207763D+06 0.23207763D+06 0.23207763D+06 0.10928979D+01  1  2  2  2  6  2        2 0.181456267196D-01 0.100000000000D+01
0.514036147071D-02 0.000000000000D+00 -.493076599910D-04 0.131094638785D-03 0.000000000000D+00  6 2 2 25 2 2 21 2 0.20198811D+00 0.34550878D+00 0.23207763D+06 0.23207763D+06 0.23207763D+06 0.10928979D+01  1  2  3  2  6  2        2 0.867703628739D-02 0.100000000000D+01
-.930828269204D-02 0.000000000000D+00 0.000000000000D+00 0.131094638785D-03 0.000000000000D+00  6 2 2 25 2 2 21 2 0.20198811D+00 0.34550878D+00 0.23207763D+06 0.23207763D+06 0.23207763D+06 0.10928979D+01  1  2 15  2  6  2        2 -.157125733574D-01 0.100000000000D+01
-.103006171161D-04 0.000000000000D+00 0.000000000000D+00 0.131094638785D-03 0.000000000000D+00  6 2 2 25 2 2 21 2 0.20198811D+00 0.34550878D+00 0.23207763D+06 0.23207763D+06 0.23207763D+06 0.10928979D+01  1  2  4  2  6  2        2 -.173876543523D-04 0.100000000000D+01
  </mgrwgt>
  </event>
  <event>
  5     66 0.18411016E-05 0.14494814E+03 0.75467711E-02 0.89237833E-01
        2 -1    0    0  502    0 0.00000000E+00 0.00000000E+00 0.17871436E+04 0.17871436E+04 0.32000000E+00 0.0000E+00 0.9000E+01
        2 -1    0    0  501    0 0.00000000E+00 0.00000000E+00 -.93326567E+03 0.93326573E+03 0.32000000E+00 0.0000E+00 0.9000E+01
       25  1    1    2    0    0 0.55328622E+03 0.41485221E+03 0.40125795E+03 0.80923479E+03 0.12500000E+03 0.0000E+00 0.9000E+01
        2  1    1    2  501    0 -.51172063E+03 -.27596868E+03 -.60768201E+03 0.84100788E+03 0.32000000E+00 0.0000E+00 0.9000E+01
        2  1    1    2  502    0 -.41565593E+02 -.13888353E+03 0.10603019E+04 0.10701666E+04 0.32000000E+00 0.0000E+00 0.9000E+01
#aMCatNLO 1  0  0  1  5 0.17629807D+01 0.00000000D+00  -5  6  0 0.00000000D+00 0.00000000D+00 0.00000000D+00 0.00000000D+00 0.00000000D+00
  <mgrwgt>
 0.6717873662D-03    7    2    0
 0.129146422560480D+04 0.000000000000000D+00 0.000000000000000D+00 0.129146422560480D+04
 0.129146422560480D+04 0.000000000000000D+00 0.000000000000000D+00 -.129146422560480D+04
 0.719735086847082D+03 0.553340956071370D+03 0.414869083019407D+03 0.155212839441315D+03
 0.108670316909987D+04 -.511781665398594D+03 -.276006605809526D+03 -.918054278484143D+03
 0.776490195262646D+03 -.415592906727765D+02 -.138862477209881D+03 0.762841439042828D+03
 0.000000000000000D+00 0.000000000000000D+00 -.000000000000000D+00 0.000000000000000D+00
 0.150414701355539D+04 0.000000000000000D+00 0.000000000000000D+00 0.150414701355539D+04
 0.133735458587075D+04 0.000000000000000D+00 0.000000000000000D+00 -.133735458587075D+04
 0.693642472258929D+03 0.504769381529305D+03 0.432008941185904D+03 0.155212839441315D+03
 0.111811246328674D+04 -.587551487941774D+03 -.249269074157837D+03 -.918054278484143D+03
 0.778043186096906D+03 -.949817704089010D+02 -.120010839514118D+03 0.762841439042828D+03
 0.251703477783568D+03 0.177763876821370D+03 -.627290275139493D+02 0.166792427684635D+03
0.593470788737D-04 0.000000000000D+00 0.000000000000D+00 0.780388086305D-06 0.000000000000D+00  6 2 2 25 2 2 21 0 0.27494517D+00 0.14357934D+00 0.51066153D+06 0.51066153D+06 0.51066153D+06 0.10678634D+01  1  2  2  1  6  1        2 0.239334378110D-03 0.100000000000D+01
0.113996062398D-04 0.000000000000D+00 -.227908409320D-06 0.780388086305D-06 0.000000000000D+00  6 2 2 25 2 2 21 2 0.27494517D+00 0.14357934D+00 0.51066153D+06 0.51066153D+06 0.51066153D+06 0.10678634D+01  1  2  3  1  6  1        2 0.524236178790D-04 0.100000000000D+01
-.359213666683D-04 0.000000000000D+00 0.000000000000D+00 0.780388086305D-06 0.000000000000D+00  6 2 2 25 2 2 21 2 0.27494517D+00 0.14357934D+00 0.51066153D+06 0.51066153D+06 0.51066153D+06 0.10678634D+01  1  2 15  1  6  1        2 -.165192372464D-03 0.100000000000D+01
-.408636043329D-05 0.000000000000D+00 0.000000000000D+00 0.780388086305D-06 0.000000000000D+00  6 2 2 25 2 2 21 2 0.27494517D+00 0.14357934D+00 0.51066153D+06 0.51066153D+06 0.51066153D+06 0.10678634D+01  1  2  4  1  6  1        2 -.187920348619D-04 0.100000000000D+01
-.340303488644D-03 0.000000000000D+00 -.774684013106D-04 0.780388086305D-06 0.000000000000D+00  6 2 2 25 2 2 21 2 0.32451655D+00 0.14357934D+00 0.51066153D+06 0.51066153D+06 0.51066153D+06 0.10678634D+01  1  2  5  1  6  1        2 -.103864546363D-02 0.100000000000D+01
0.349386098214D-03 0.000000000000D+00 0.764161147022D-04 0.780388086305D-06 0.000000000000D+00  6 2 2 25 2 2 21 2 0.27494517D+00 0.14357934D+00 0.51066153D+06 0.51066153D+06 0.51066153D+06 0.10678634D+01  1  2  6  1  6  1        2 0.160672947115D-02 0.100000000000D+01
-.776789495942D-05 0.000000000000D+00 -.191461922720D-05 0.780388086305D-06 0.000000000000D+00  6 21 2 25 2 2 -2 2 0.32451655D+00 0.14357934D+00 0.51066153D+06 0.51066153D+06 0.51066153D+06 0.10678634D+01  1  2  5  4  6  1        2 -.407022997844D-05 0.100000000000D+01
  </mgrwgt>
  </event>
  <event>
  6     66 0.18411016E-05 0.21053742E+03 0.75467711E-02 0.86547237E-01
       21 -1    0    0  502  503 0.00000000E+00 0.00000000E+00 0.10364630E+04 0.10364633E+04 0.75000000E+00 0.0000E+00 0.9000E+01
        2 -1    0    0  501    0 0.00000000E+00 0.00000000E+00 -.20506490E+04 0.20506490E+04 0.32000000E+00 0.0000E+00 0.9000E+01
       25  1    1    2    0    0 0.50496060E+03 0.70737592E+03 -.63504245E+03 0.10836373E+04 0.12500000E+03 0.0000E+00 0.9000E+01
        2  1    1    2  501    0 -.67419632E+02 0.24554131E+03 -.82277224E+03 0.86127243E+03 0.32000000E+00 0.0000E+00 0.9000E+01
        2  1    1    2  502    0 -.19773095E+03 -.46724323E+03 0.16798453E+03 0.53444613E+03 0.32000000E+00 0.0000E+00 0.9000E+01
       -2  1    1    2    0  503 -.23981002E+03 -.48567400E+03 0.27564417E+03 0.60775644E+03 0.32000000E+00 0.0000E+00 0.9000E+01
#aMCatNLO 2  0  0  1  1 0.54165310D+03 0.00000000D+00  -5  6  0 0.00000000D+00 0.00000000D+00 0.00000000D+00 0.00000000D+00 0.00000000D+00
  <mgrwgt>
 0.6543132982D-03    1    2    0
 0.102349348040500D+04 0.000000000000000D+00 0.000000000000000D+00 0.102349348040500D+04
 0.102349348040500D+04 0.000000000000000D+00 0.000000000000000D+00 -.102349348040500D+04
 0.685362392358145D+03 0.414706588323217D+03 0.524551572796783D+03 -.834308212630036D+02
 0.474442997860599D+03 -.123964365688691D+03 0.131060405021913D+03 -.438807662300746D+03
 0.887181570591258D+03 -.290742222634526D+03 -.655611977818696D+03 0.522238483563749D+03
 0.000000000000000D+00 -.000000000000000D+00 -.000000000000000D+00 0.000000000000000D+00
 0.184497603403017D+04 0.000000000000000D+00 0.000000000000000D+00 0.184497603403017D+04
 0.115200531491836D+04 0.000000000000000D+00 0.000000000000000D+00 -.115200531491836D+04
 0.881991075840853D+03 0.504963244826915D+03 0.707343394187123D+03 -.834308212630036D+02
 0.507344886475719D+03 -.674277301218219D+02 0.245560930422236D+03 -.438807662300746D+03
 0.728102040855856D+03 -.197725490268496D+03 -.467230327227998D+03 0.522238483563749D+03
 0.879543345776097D+03 -.239810024436597D+03 -.485673997381361D+03 0.692970719111811D+03
0.413661812591D-03 0.000000000000D+00 0.000000000000D+00 0.223689429367D-07 0.810006797008D-11  6 21 2 25 2 2 -2 2 0.15945587D+00 0.31548448D+00 0.11899373D+07 0.11899373D+07 0.11899373D+07 0.10428733D+01  1  2  1  4  6  1        2 0.654313298244D-03 0.100000000000D+01
  </mgrwgt>
  </event>
  <event>
  6     66 0.18411016E-05 0.50995828E+02 0.75467711E-02 0.95319747E-01
        2 -1    0    0  503    0 0.00000000E+00 0.00000000E+00 0.35603053E+04 0.35603053E+04 0.32000000E+00 0.0000E+00 0.9000E+01
        2 -1    0    0  501    0 0.00000000E+00 0.00000000E+00 -.41245327E+03 0.41245339E+03 0.32000000E+00 0.0000E+00 0.9000E+01
       25  1    1    2    0    0 -.23288003E+03 -.38782324E+03 0.55364043E+03 0.72579798E+03 0.12500000E+03 0.0000E+00 0.9000E+01
        2  1    1    2  501    0 0.54150794E+02 0.13061539E+02 -.30197775E+03 0.30707259E+03 0.32000000E+00 0.0000E+00 0.9000E+01
        2  1    1    2  502    0 0.17151135E+03 0.36869313E+03 0.18720047E+04 0.19156598E+04 0.32000000E+00 0.0000E+00 0.9000E+01
       21  1    1    2  503  502 0.72178903E+01 0.60685745E+01 0.10241846E+04 0.10242283E+04 0.75000000E+00 0.0000E+00 0.9000E+01
#aMCatNLO 2  0  0  1  5 0.94300338D+01 0.00000000D+00  -5  6  0 0.00000000D+00 0.00000000D+00 0.00000000D+00 0.00000000D+00 0.00000000D+00
  <mgrwgt>
 0.3756798704D-02    3    2    0
 0.102271444527713D+04 0.000000000000000D+00 0.000000000000000D+00 0.102271444527713D+04
 0.102271444527713D+04 0.000000000000000D+00 0.000000000000000D+00 -.102271444527713D+04
 0.469455696189682D+03 -.231216933352952D+03 -.386408443272782D+03 0.446194507283637D+02
 0.756465218151813D+03 0.568265404757991D+02 0.153075305732913D+02 -.754172427286207D+03
 0.819507976212763D+03 0.174390392877153D+03 0.371100912699491D+03 0.709552976557844D+03
 0.000000000000000D+00 0.000000000000000D+00 0.000000000000000D+00 0.000000000000000D+00
 0.143575362113598D+04 0.000000000000000D+00 0.000000000000000D+00 0.143575362113598D+04
 0.102277913936095D+04 0.000000000000000D+00 0.000000000000000D+00 -.102277913936095D+04
 0.471423035024362D+03 -.232877006561996D+03 -.387804180460969D+03 0.446194507283637D+02
 0.756227312567386D+03 0.541575670359088D+02 0.130635418961390D+02 -.754172427286207D+03
 0.817800280473184D+03 0.171501549201875D+03 0.368672064064095D+03 0.709552976557844D+03
 0.413082132431991D+03 0.721789032421177D+01 0.606857450073539D+01 0.412974481775034D+03
-.130894712894D-08 0.000000000000D+00 0.000000000000D+00 0.151664013416D-04 0.000000000000D+00  6 2 2 25 2 2 21 2 0.54775280D+00 0.63450325D-01 0.22139745D+06 0.22139745D+06 0.22139745D+06 0.10944511D+01  1  2 13  1  6  1        2 -.150122867204D-08 0.100000000000D+01
-.180724900623D-01 0.000000000000D+00 0.000000000000D+00 0.151664013416D-04 0.000000000000D+00  6 2 2 25 2 2 21 2 0.54800128D+00 0.63450325D-01 0.22139745D+06 0.22139745D+06 0.22139745D+06 0.10944511D+01  1  2 13  1  6  1        2 -.206719574140D-01 0.100000000000D+01
0.212982089300D-01 0.000000000000D+00 0.000000000000D+00 0.151664013416D-04 0.135617525764D-05  6 2 2 25 2 2 21 2 0.54773910D+00 0.63454339D-01 0.22139745D+06 0.22139745D+06 0.22139745D+06 0.10944511D+01  1  2  1  1  6  1        2 0.244287576189D-01 0.100000000000D+01
  </mgrwgt>
  </event>
  <event>
  6     66 0.18411016E-05 0.11991423E+03 0.75467711E-02 0.94708372E-01
        2 -1    0    0  503    0 0.00000000E+00 0.00000000E+00 0.21191207E+04 0.21191208E+04 0.32000000E+00 0.0000E+00 0.9000E+01
        2 -1    0    0  501    0 0.00000000E+00 0.00000000E+00 -.72009766E+03 0.72009773E+03 0.32000000E+00 0.0000E+00 0.9000E+01
       25  1    1    2    0    0 0.39878672E+03 -.21572661E+03 0.78965259E+02 0.47689551E+03 0.12500000E+03 0.0000E+00 0.9000E+01
        2  1    1    2  501    0 -.12185008E+03 -.56121574E+02 -.48704288E+03 0.50518110E+03 0.32000000E+00 0.0000E+00 0.9000E+01
        2  1    1    2  502    0 -.25903323E+03 0.24966663E+03 0.12892199E+04 0.13384766E+04 0.32000000E+00 0.0000E+00 0.9000E+01
       21  1    1    2  503  502 -.17903410E+02 0.22181554E+02 0.51788084E+03 0.51866528E+03 0.75000000E+00 0.0000E+00 0.9000E+01
#aMCatNLO 2  0  0  1  2 0.36835556D+03 0.00000000D+00  -5  6  0 0.00000000D+00 0.00000000D+00 0.00000000D+00 0.00000000D+00 0.00000000D+00
  <mgrwgt>
 0.1454529753D-01    1    2    0
 0.107328269955116D+04 0.000000000000000D+00 0.000000000000000D+00 0.107328269955116D+04
 0.107328269955116D+04 0.000000000000000D+00 0.000000000000000D+00 -.107328269955116D+04
 0.477563980343297D+03 0.394786192840872D+03 -.210751819293719D+03 -.110317215011668D+03
 0.746534464535938D+03 -.128087412242657D+03 -.484142533340250D+02 -.733868776852543D+03
 0.922466954223090D+03 -.266698780598215D+03 0.259166072627744D+03 0.844185991864211D+03
 0.000000000000000D+00 -.000000000000000D+00 0.000000000000000D+00 0.000000000000000D+00
 0.142088177253870D+04 0.000000000000000D+00 0.000000000000000D+00 0.142088177253870D+04
 0.107396189283736D+04 0.000000000000000D+00 0.000000000000000D+00 -.107396189283736D+04
 0.483076603197720D+03 0.398792123345784D+03 -.215714994811388D+03 -.110317215011668D+03
 0.746032262753672D+03 -.121863316898457D+03 -.561256396384276D+02 -.733868776852543D+03
 0.917645793071254D+03 -.259025396906997D+03 0.249659080425251D+03 0.844185991864211D+03
 0.348089006353415D+03 -.179034095403299D+02 0.221815540245647D+02 0.346919879701343D+03
0.314040324429D-02 0.000000000000D+00 0.000000000000D+00 0.443068594724D-05 0.606846145016D-07  6 2 2 25 2 2 21 2 0.32601846D+00 0.11078422D+00 0.24638276D+06 0.24638276D+06 0.24638276D+06 0.10909356D+01  1  2  1  1  6  1        2 0.145452975315D-01 0.100000000000D+01
  </mgrwgt>
  </event>
  <event>
  5     66 0.18411016E-05 0.38216341E+02 0.75467711E-02 0.93718103E-01
        2 -1    0    0  502    0 0.00000000E+00 0.00000000E+00 0.10026358E+04 0.10026358E+04 0.32000000E+00 0.0000E+00 0.9000E+01
        2 -1    0    0  501    0 -.00000000E+00 -.00000000E+00 -.13359726E+04 0.13359726E+04 0.32000000E+00 0.0000E+00 0.9000E+01
       25  1    1    2    0    0 -.47183552E+03 0.15492696E+03 0.25029888E+03 0.57000495E+03 0.12500000E+03 0.0000E+00 0.9000E+01
        2  1    1    2  501    0 0.43480949E+03 -.14543038E+03 -.11307446E+04 0.12201609E+04 0.32000000E+00 0.0000E+00 0.9000E+01
        2  1    1    2  502    0 0.37026030E+02 -.94965763E+01 0.54710882E+03 0.54844259E+03 0.32000000E+00 0.0000E+00 0.9000E+01
#aMCatNLO 1  0  0  5  1 0.10779642D+02 0.00000000D+00  -5  6  0 0.00000000D+00 0.00000000D+00 0.00000000D+00 0.00000000D+00 0.00000000D+00
  <mgrwgt>
 0.6425115786D-02    6    2    0
 0.115736511289635D+04 0.000000000000000D+00 0.000000000000000D+00 0.115736511289635D+04
 0.115736511289635D+04 -.000000000000000D+00 -.000000000000000D+00 -.115736511289635D+04
 0.612043519944344D+03 -.471885584427844D+03 0.154944225444754D+03 0.335094841076940D+03
 0.106993418958185D+04 0.434867451163008D+03 -.145449674562998D+03 -.966692227197817D+03
 0.632752516266497D+03 0.370181332648369D+02 -.949455088175652D+01 0.631597386120877D+03
 0.000000000000000D+00 0.000000000000000D+00 0.000000000000000D+00 0.000000000000000D+00
 0.115736511289635D+04 0.000000000000000D+00 0.000000000000000D+00 0.115736511289635D+04
 0.115736511289635D+04 -.000000000000000D+00 -.000000000000000D+00 -.115736511289635D+04
 0.613241778058106D+03 -.471745119051777D+03 0.154908198353635D+03 0.337491438542553D+03
 0.106626904644385D+04 0.435112343182354D+03 -.145512485394694D+03 -.962513919280598D+03
 0.394553643115038D+03 0.467564267652684D+02 -.517856971952858D+02 0.388335750887671D+03
 0.240665758175696D+03 -.101236508958447D+02 0.423899842363450D+02 0.236686729850374D+03
0.196495129527D-03 0.000000000000D+00 0.000000000000D+00 0.269647436202D-04 0.000000000000D+00  6 2 2 25 2 2 21 0 0.15425166D+00 0.20553425D+00 0.25448197D+06 0.25448197D+06 0.25448197D+06 0.10898790D+01  1  2  2  3  6  5        2 0.132270533522D-02 0.100000000000D+01
0.893332294687D-04 0.000000000000D+00 -.754593035740D-06 0.269647436202D-04 0.000000000000D+00  6 2 2 25 2 2 21 2 0.15425166D+00 0.20553425D+00 0.25448197D+06 0.25448197D+06 0.25448197D+06 0.10898790D+01  1  2  3  3  6  5        2 0.714300486534D-03 0.100000000000D+01
-.135390370428D-03 0.000000000000D+00 0.000000000000D+00 0.269647436202D-04 0.000000000000D+00  6 2 2 25 2 2 21 2 0.15425166D+00 0.20553425D+00 0.25448197D+06 0.25448197D+06 0.25448197D+06 0.10898790D+01  1  2 15  3  6  5        2 -.108256925272D-02 0.100000000000D+01
-.608579099580D-04 0.000000000000D+00 0.000000000000D+00 0.269647436202D-04 0.000000000000D+00  6 2 2 25 2 2 21 2 0.15425166D+00 0.20553425D+00 0.25448197D+06 0.25448197D+06 0.25448197D+06 0.10898790D+01  1  2  4  3  6  5        2 -.486614386953D-03 0.100000000000D+01
-.167380658350D-02 0.000000000000D+00 0.000000000000D+00 0.269647436202D-04 0.000000000000D+00  6 2 2 25 2 2 21 2 0.15425166D+00 0.20553425D+00 0.25448197D+06 0.25448197D+06 0.25448197D+06 0.10898790D+01  1  2  5  3  6  5        2 -.133836072430D-01 0.100000000000D+01
0.241884916234D-02 0.000000000000D+00 -.000000000000D+00 0.269647436202D-04 0.000000000000D+00  6 2 2 25 2 2 21 2 0.15425166D+00 0.20553425D+00 0.25448197D+06 0.25448197D+06 0.25448197D+06 0.10898790D+01  1  2  6  3  6  5        2 0.193409008472D-01 0.100000000000D+01
  </mgrwgt>
  </event>
  <event>
  5     66 -.18411016E-05 0.28211305E+02 0.75467711E-02 0.92055310E-01
        2 -1    0    0  502    0 0.00000000E+00 0.00000000E+00 0.18854267E+04 0.18854267E+04 0.32000000E+00 0.0000E+00 0.9000E+01
        2 -1    0    0  501    0 -.00000000E+00 -.00000000E+00 -.30817522E+04 0.30817522E+04 0.32000000E+00 0.0000E+00 0.9000E+01
       25  1    1    2    0    0 -.17228159E+03 -.57854770E+03 0.71465804E+02 0.62058903E+03 0.12500000E+03 0.0000E+00 0.9000E+01
        2  1    1    2  501    0 -.27371199E+02 -.68267122E+01 -.27449928E+04 0.27451378E+04 0.32000000E+00 0.0000E+00 0.9000E+01
        2  1    1    2  502    0 0.19965279E+03 0.58537441E+03 0.14772015E+04 0.16014521E+04 0.32000000E+00 0.0000E+00 0.9000E+01
#aMCatNLO 1  0  0  5  4 0.36364899D+02 0.00000000D+00  -5  6  0 0.00000000D+00 0.00000000D+00 0.00000000D+00 0.00000000D+00 0.00000000D+00
  <mgrwgt>
 -.6514207407D-02    6    2    0
 0.241048086678572D+04 0.000000000000000D+00 0.000000000000000D+00 0.241048086678572D+04
 0.241048086678572D+04 -.000000000000000D+00 -.000000000000000D+00 -.241048086678572D+04
 0.657158156596507D+03 -.172275549479737D+03 -.578534222905026D+03 0.227708433661230D+03
 0.214725669051136D+04 -.273727730055319D+02 -.682708136770743D+01 -.214707135820023D+04
 0.201654688646358D+04 0.199648322485269D+03 0.585361304272734D+03 0.191936292453900D+04
 0.000000000000000D+00 0.000000000000000D+00 0.000000000000000D+00 0.000000000000000D+00
 0.241048086678572D+04 0.000000000000000D+00 0.000000000000000D+00 0.241048086678572D+04
 0.241048086678572D+04 -.000000000000000D+00 -.000000000000000D+00 -.241048086678572D+04
 0.657183667250033D+03 -.172223686760426D+03 -.578382163380353D+03 0.228207027285118D+03
 0.214562465585119D+04 -.272033798566097D+02 -.633042708404696D+01 -.214544286002071D+04
 0.182637204565808D+04 0.178292294137932D+03 0.495424080927519D+03 0.174882866143297D+04
 0.191781364812153D+03 0.211347724791042D+02 0.892885095368809D+02 0.168407171302623D+03
0.874500730775D-03 0.000000000000D+00 0.000000000000D+00 0.297216609137D-03 0.000000000000D+00  6 2 2 25 2 2 21 0 0.29006565D+00 0.47411572D+00 0.39887378D+06 0.39887378D+06 0.39887378D+06 0.10755159D+01  1  2  2  3  6  5        2 0.180104415306D-03 0.100000000000D+01
0.758339340457D-03 0.000000000000D+00 -.335831306751D-05 0.297216609137D-03 0.000000000000D+00  6 2 2 25 2 2 21 2 0.29006565D+00 0.47411572D+00 0.39887378D+06 0.39887378D+06 0.39887378D+06 0.10755159D+01  1  2  3  3  6  5        2 0.180659766975D-03 0.100000000000D+01
-.688254926518D-03 0.000000000000D+00 0.000000000000D+00 0.297216609137D-03 0.000000000000D+00  6 2 2 25 2 2 21 2 0.29006565D+00 0.47411572D+00 0.39887378D+06 0.39887378D+06 0.39887378D+06 0.10755159D+01  1  2 15  3  6  5        2 -.163963502894D-03 0.100000000000D+01
-.381683744008D-01 0.000000000000D+00 0.000000000000D+00 0.297216609137D-03 0.000000000000D+00  6 2 2 25 2 2 21 2 0.29006565D+00 0.47411572D+00 0.39887378D+06 0.39887378D+06 0.39887378D+06 0.10755159D+01  1  2  4  3  6  5        2 -.909288132262D-02 0.100000000000D+01
-.100379537815D+00 0.000000000000D+00 0.000000000000D+00 0.297216609137D-03 0.000000000000D+00  6 2 2 25 2 2 21 2 0.29006565D+00 0.47411572D+00 0.39887378D+06 0.39887378D+06 0.39887378D+06 0.10755159D+01  1  2  5  3  6  5        2 -.239134948476D-01 0.100000000000D+01
0.110377713996D+00 0.000000000000D+00 -.000000000000D+00 0.297216609137D-03 0.000000000000D+00  6 2 2 25 2 2 21 2 0.29006565D+00 0.47411572D+00 0.39887378D+06 0.39887378D+06 0.39887378D+06 0.10755159D+01  1  2  6  3  6  5        2 0.262953680837D-01 0.100000000000D+01
  </mgrwgt>
  </event>
  <event>
  5     66 0.18411016E-05 0.53811231E+02 0.75467711E-02 0.86039335E-01
        2 -1    0    0  502    0 0.00000000E+00 0.00000000E+00 0.80029898E+03 0.80029905E+03 0.32000000E+00 0.0000E+00 0.9000E+01
        2 -1    0    0  501    0 0.00000000E+00 0.00000000E+00 -.23349894E+04 0.23349894E+04 0.32000000E+00 0.0000E+00 0.9000E+01
       25  1    1    2    0    0 0.34119248E+03 0.41040073E+03 -.52306979E+03 0.75767280E+03 0.12500000E+03 0.0000E+00 0.9000E+01
        2  1    1    2  501    0 -.38232776E+03 -.44509700E+03 -.16426474E+04 0.17442983E+04 0.32000000E+00 0.0000E+00 0.9000E+01
        2  1    1    2  502    0 0.41135284E+02 0.34696274E+02 0.63102682E+03 0.63331737E+03 0.32000000E+00 0.0000E+00 0.9000E+01
#aMCatNLO 1  0  0  1  5 0.62457391D+01 0.00000000D+00  -5  6  0 0.00000000D+00 0.00000000D+00 0.00000000D+00 0.00000000D+00 0.00000000D+00
  <mgrwgt>
 0.9259169337D-02    4    2    0
 0.136700028609883D+04 0.000000000000000D+00 0.000000000000000D+00 0.136700028609883D+04
 0.136700028609883D+04 0.000000000000000D+00 0.000000000000000D+00 -.136700028609883D+04
 0.575307880213672D+03 0.341230164410923D+03 0.410444514729433D+03 -.174503387533202D+03
 0.107825649470687D+04 -.382363357325995D+03 -.445139025342183D+03 -.904591940860266D+03
 0.108043619727712D+04 0.411331929150719D+02 0.346945106127496D+02 0.107909532839347D+04
 0.000000000000000D+00 -.000000000000000D+00 0.000000000000000D+00 -.000000000000000D+00
 0.171363393113643D+04 0.000000000000000D+00 0.000000000000000D+00 0.171363393113643D+04
 0.192428126293818D+04 0.000000000000000D+00 0.000000000000000D+00 -.192428126293818D+04
 0.621530180647889D+03 0.483432777418030D+03 0.326368017602099D+03 -.174503387533202D+03
 0.109127005081960D+04 -.124590519169379D+03 -.597545769694317D+03 -.904591940860266D+03
 0.112739981268409D+04 0.303457779652948D+03 -.120403429550937D+03 0.107909532839347D+04
 0.797715149923020D+03 -.662300037901599D+03 0.391581181643155D+03 -.210647331801750D+03
0.507309796525D-02 0.000000000000D+00 0.000000000000D+00 0.140807061651D-04 0.000000000000D+00  6 2 2 25 2 2 21 0 0.12312293D+00 0.35922915D+00 0.35332870D+06 0.35332870D+06 0.35332870D+06 0.10793335D+01  1  2  2  1  6  1        2 0.127745532994D-01 0.100000000000D+01
0.253885568286D-02 0.000000000000D+00 -.194820319639D-04 0.140807061651D-04 0.000000000000D+00  6 2 2 25 2 2 21 2 0.12312293D+00 0.35922915D+00 0.35332870D+06 0.35332870D+06 0.35332870D+06 0.10793335D+01  1  2  3  1  6  1        2 0.744769407288D-02 0.100000000000D+01
-.363709232203D-02 0.000000000000D+00 0.000000000000D+00 0.140807061651D-04 0.000000000000D+00  6 2 2 25 2 2 21 2 0.12312293D+00 0.35922915D+00 0.35332870D+06 0.35332870D+06 0.35332870D+06 0.10793335D+01  1  2 15  1  6  1        2 -.106693543521D-01 0.100000000000D+01
-.100127910138D-03 0.000000000000D+00 0.000000000000D+00 0.140807061651D-04 0.000000000000D+00  6 2 2 25 2 2 21 2 0.12312293D+00 0.35922915D+00 0.35332870D+06 0.35332870D+06 0.35332870D+06 0.10793335D+01  1  2  4  1  6  1        2 -.293723683428D-03 0.100000000000D+01
  </mgrwgt>
  </event>
  <event>
  5     66 0.18411016E-05 0.37160800E+02 0.75467711E-02 0.76375395E-01
        2 -1    0    0  502    0 0.00000000E+00 0.00000000E+00 0.33213575E+04 0.33213575E+04 0.32000000E+00 0.0000E+00 0.9000E+01
        2 -1    0    0  501    0 0.00000000E+00 0.00000000E+00 -.16477814E+04 0.16477814E+04 0.32000000E+00 0.0000E+00 0.9000E+01
       25  1    1    2    0    0 -.59576456E+03 -.68766403E+02 -.12095291E+03 0.62443481E+03 0.12500000E+03 0.0000E+00 0.9000E+01
        2  1    1    2  501    0 0.56577629E+03 0.90713111E+02 -.12105925E+04 0.13393528E+04 0.32000000E+00 0.0000E+00 0.9000E+01
        2  1    1    2  502    0 0.29988271E+02 -.21946708E+02 0.30051216E+04 0.30053513E+04 0.32000000E+00 0.0000E+00 0.9000E+01
#aMCatNLO 1  0  0  2  4 0.10018813D+02 0.00000000D+00  -5  6  0 0.00000000D+00 0.00000000D+00 0.00000000D+00 0.00000000D+00 0.00000000D+00
  <mgrwgt>
 0.5542651153D-01    5    2    0
 0.233941685006970D+04 0.000000000000000D+00 0.000000000000000D+00 0.233941685006970D+04
 0.233941685006970D+04 0.000000000000000D+00 0.000000000000000D+00 -.233941685006970D+04
 0.706456876913217D+03 -.595793655012436D+03 -.687710172797285D+02 -.351790828145375D+03
 0.185548103272399D+04 0.565805702676442D+03 0.907174922860338D+02 -.176477876976426D+04
 0.211689579050218D+04 0.299879523359940D+02 -.219464750063053D+02 0.211656959790963D+04
 0.000000000000000D+00 -.000000000000000D+00 -.000000000000000D+00 -.000000000000000D+00
 0.392016418263824D+04 0.000000000000000D+00 0.000000000000000D+00 0.392016418263824D+04
 0.588531723458852D+04 0.000000000000000D+00 0.000000000000000D+00 -.588531723458852D+04
 0.660113289511227D+03 -.419939304737216D+03 0.346437221670750D+03 -.351790828145375D+03
 0.253413893273034D+04 0.113067517366733D+04 0.142442608647180D+04 -.176477876976426D+04
 0.262785478307883D+04 0.640556695775045D+03 0.141966229000164D+04 0.211656959790963D+04
 0.398337441190635D+04 -.135129256470516D+04 -.319052559814419D+04 -.196515305195028D+04
0.273888427507D+00 0.000000000000D+00 0.000000000000D+00 0.269319092134D-03 0.000000000000D+00  6 2 2 25 2 2 21 0 0.51097808D+00 0.25350483D+00 0.37382844D+06 0.37382844D+06 0.37382844D+06 0.10775526D+01  1  2  2  2  6  2        2 0.531582950785D-01 0.100000000000D+01
0.198523550233D+00 0.000000000000D+00 -.105180367811D-02 0.269319092134D-03 0.000000000000D+00  6 2 2 25 2 2 21 2 0.51097808D+00 0.25350483D+00 0.37382844D+06 0.37382844D+06 0.37382844D+06 0.10775526D+01  1  2  3  2  6  2        2 0.447390064647D-01 0.100000000000D+01
-.189137051026D+00 0.000000000000D+00 0.000000000000D+00 0.269319092134D-03 0.000000000000D+00  6 2 2 25 2 2 21 2 0.51097808D+00 0.25350483D+00 0.37382844D+06 0.37382844D+06 0.37382844D+06 0.10775526D+01  1  2 15  2  6  2        2 -.426236773354D-01 0.100000000000D+01
0.345317613903D+00 0.000000000000D+00 -.128921629526D+00 0.269319092134D-03 0.000000000000D+00  6 2 2 25 2 2 21 2 0.51097808D+00 0.79078204D+00 0.37382844D+06 0.37382844D+06 0.37382844D+06 0.10775526D+01  1  2  5  2  6  2        2 0.152759270926D-03 0.100000000000D+01
0.509663587704D-01 0.000000000000D+00 -.168109111978D-01 0.269319092134D-03 0.000000000000D+00  6 2 21 25 2 2 -2 2 0.51097808D+00 0.79078204D+00 0.37382844D+06 0.37382844D+06 0.37382844D+06 0.10775526D+01  1  2  5  5  6  2        2 0.128047719181D-06 0.100000000000D+01
  </mgrwgt>
  </event>
  <event>
  5     66 0.18411016E-05 0.33084351E+02 0.75467711E-02 0.91249048E-01
        2 -1    0    0  502    0 0.00000000E+00 0.00000000E+00 0.18168036E+04 0.18168036E+04 0.32000000E+00 0.0000E+00 0.9000E+01
        2 -1    0    0  501    0 0.00000000E+00 0.00000000E+00 -.30000894E+04 0.30000894E+04 0.32000000E+00 0.0000E+00 0.9000E+01
       25  1    1    2    0    0 0.12067681E+03 -.65756662E+03 -.11485147E+04 0.13347912E+04 0.12500000E+03 0.0000E+00 0.9000E+01
        2  1    1    2  501    0 -.10216084E+03 0.63014853E+03 -.17003284E+04 0.18162160E+04 0.32000000E+00 0.0000E+00 0.9000E+01
        2  1    1    2  502    0 -.18515978E+02 0.27418092E+02 0.16655572E+04 0.16658858E+04 0.32000000E+00 0.0000E+00 0.9000E+01
#aMCatNLO 1  0  0  2  4 0.67985124D+01 0.00000000D+00  -5  6  0 0.00000000D+00 0.00000000D+00 0.00000000D+00 0.00000000D+00 0.00000000D+00
  <mgrwgt>
 0.8802988501D-02   13    2    0
 0.233464629366400D+04 0.000000000000000D+00 0.000000000000000D+00 0.233464629366400D+04
 0.233464629366400D+04 0.000000000000000D+00 0.000000000000000D+00 -.233464629366400D+04
 0.108593754375180D+04 0.120682019081559D+03 -.657597601587177D+03 -.846543911198283D+03
 0.144274441289833D+04 -.102166201464871D+03 0.630179746287901D+03 -.129381103550561D+04
 0.214061063067786D+04 -.185158176166880D+02 0.274178552992754D+02 0.214035494670390D+04
 0.000000000000000D+00 0.000000000000000D+00 -.000000000000000D+00 -.000000000000000D+00
 0.233470066986970D+04 0.000000000000000D+00 0.000000000000000D+00 0.233470066986970D+04
 0.255728074783491D+04 0.000000000000000D+00 0.000000000000000D+00 -.255728074783491D+04
 0.108497933695536D+04 0.120137283708264D+03 -.656114015317773D+03 -.846543911198283D+03
 0.144365853361657D+04 -.102890469538201D+03 0.632152289694548D+03 -.129381103550561D+04
 0.214065966608674D+04 -.195900915301715D+02 0.303436392776181D+02 0.214035494670390D+04
 0.222683881045931D+03 0.234327736010866D+01 -.638191365439320D+01 -.222580077965212D+03
0.934967800769D-04 0.000000000000D+00 0.000000000000D+00 0.829389531565D-04 0.000000000000D+00  6 2 2 25 2 2 21 0 0.27950825D+00 0.46155222D+00 0.45674389D+06 0.45674389D+06 0.45674389D+06 0.10712988D+01  1  2  2  2  6  2        2 0.233414727629D-04 0.100000000000D+01
0.759455773785D-04 0.000000000000D+00 -.359052253763D-06 0.829389531565D-04 0.000000000000D+00  6 2 2 25 2 2 21 2 0.27950825D+00 0.46155222D+00 0.45674389D+06 0.45674389D+06 0.45674389D+06 0.10712988D+01  1  2  3  2  6  2        2 0.217598231856D-04 0.100000000000D+01
-.754386264836D-04 0.000000000000D+00 0.000000000000D+00 0.829389531565D-04 0.000000000000D+00  6 2 2 25 2 2 21 2 0.27950825D+00 0.46155222D+00 0.45674389D+06 0.45674389D+06 0.45674389D+06 0.10712988D+01  1  2 15  2  6  2        2 -.216145723070D-04 0.100000000000D+01
0.132402484135D-09 0.000000000000D+00 0.000000000000D+00 0.829389531565D-04 0.000000000000D+00  6 2 2 25 2 2 21 2 0.27950825D+00 0.50557194D+00 0.46377529D+06 0.46377529D+06 0.46377529D+06 0.10708265D+01  1  2 12  2  6  2        2 0.245553318600D-10 0.100000000000D+01
0.258763615041D+00 0.000000000000D+00 0.000000000000D+00 0.829389531565D-04 0.000000000000D+00  6 2 2 25 2 2 21 2 0.27950825D+00 0.50574194D+00 0.46377529D+06 0.46377529D+06 0.46377529D+06 0.10708265D+01  1  2 12  2  6  2        2 0.479075592001D-01 0.100000000000D+01
-.242538321899D+00 0.000000000000D+00 0.000000000000D+00 0.829389531565D-04 0.000000000000D+00  6 2 2 25 2 2 21 2 0.27950825D+00 0.46155222D+00 0.45674389D+06 0.45674389D+06 0.45674389D+06 0.10712988D+01  1  2  4  2  6  2        2 -.694917489920D-01 0.100000000000D+01
-.277773189185D+00 0.000000000000D+00 -.144624681251D-03 0.829389531565D-04 0.000000000000D+00  6 2 2 25 2 2 21 2 0.27950825D+00 0.50556913D+00 0.45674389D+06 0.45674389D+06 0.45674389D+06 0.10712988D+01  1  2  5  2  6  2        2 -.516501507581D-01 0.100000000000D+01
0.276638489196D+00 0.000000000000D+00 0.144026750534D-03 0.829389531565D-04 0.000000000000D+00  6 2 2 25 2 2 21 2 0.27950825D+00 0.46155222D+00 0.45674389D+06 0.45674389D+06 0.45674389D+06 0.10712988D+01  1  2  6  2  6  2        2 0.792620823884D-01 0.100000000000D+01
0.148395430923D-01 0.000000000000D+00 0.000000000000D+00 0.829389531565D-04 0.922911931060D-05  6 2 2 25 2 2 21 2 0.27951476D+00 0.50556635D+00 0.46377529D+06 0.46377529D+06 0.46377529D+06 0.10708265D+01  1  2 11  2  6  2        2 0.275214696679D-02 0.100000000000D+01
0.202669663775D-11 0.000000000000D+00 0.000000000000D+00 0.829389531565D-04 0.000000000000D+00  6 2 21 25 2 2 -2 2 0.27950825D+00 0.50557194D+00 0.46377529D+06 0.46377529D+06 0.46377529D+06 0.10708265D+01  1  2 12  5  6  2        2 0.172366191801D-13 0.100000000000D+01
0.397369684610D-02 0.000000000000D+00 0.000000000000D+00 0.829389531565D-04 0.000000000000D+00  6 2 21 25 2 2 -2 2 0.27950825D+00 0.50574194D+00 0.46377529D+06 0.46377529D+06 0.46377529D+06 0.10708265D+01  1  2 12  5  6  2        2 0.336894376312D-04 0.100000000000D+01
-.424535106616D-02 0.000000000000D+00 -.216598644797D-05 0.829389531565D-04 0.000000000000D+00  6 2 21 25 2 2 -2 2 0.27950825D+00 0.50556913D+00 0.45674389D+06 0.45674389D+06 0.45674389D+06 0.10712988D+01  1  2  5  5  6  2        2 -.362264378143D-04 0.100000000000D+01
0.252780118490D-03 0.000000000000D+00 0.000000000000D+00 0.829389531565D-04 0.157119866174D-06  6 2 21 25 2 2 -2 2 0.27951476D+00 0.50556635D+00 0.46377529D+06 0.46377529D+06 0.46377529D+06 0.10708265D+01  1  2 11  5  6  2        2 0.214994781512D-05 0.100000000000D+01
  </mgrwgt>
  </event>
  <event>
  5     66 0.18411016E-05 0.35923848E+02 0.75467711E-02 0.85377568E-01
        2 -1    0    0  502    0 0.00000000E+00 0.00000000E+00 0.32589828E+04 0.32589828E+04 0.32000000E+00 0.0000E+00 0.9000E+01
        2 -1    0    0  501    0 0.00000000E+00 0.00000000E+00 -.29237465E+04 0.29237465E+04 0.32000000E+00 0.0000E+00 0.9000E+01
       25  1    1    2    0    0 0.20615079E+03 -.53868048E+03 0.20940433E+03 0.62621879E+03 0.12500000E+03 0.0000E+00 0.9000E+01
        2  1    1    2  501    0 -.35554411E+02 -.51276133E+01 -.26866355E+04 0.26868757E+04 0.32000000E+00 0.0000E+00 0.9000E+01
        2  1    1    2  502    0 -.17059638E+03 0.54380809E+03 0.28124675E+04 0.28696348E+04 0.32000000E+00 0.0000E+00 0.9000E+01
#aMCatNLO 1  0  0  5  1 0.49735521D+01 0.00000000D+00  -5  6  0 0.00000000D+00 0.00000000D+00 0.00000000D+00 0.00000000D+00 0.00000000D+00
  <mgrwgt>
 0.1978555569D-01    4    2    0
 0.308681706451453D+04 0.000000000000000D+00 0.000000000000000D+00 0.308681706451453D+04
 0.308681706451453D+04 -.000000000000000D+00 -.000000000000000D+00 -.308681706451453D+04
 0.615779904434769D+03 0.206150357760750D+03 -.538673864801732D+03 0.175762305630000D+03
 0.283674447625388D+04 -.355559881789854D+02 -.512781881719968D+01 -.283651700166520D+04
 0.272110974834040D+04 -.170594369581764D+03 0.543801683618931D+03 0.266075469603520D+04
 0.000000000000000D+00 0.000000000000000D+00 -.000000000000000D+00 0.000000000000000D+00
 0.308681706451453D+04 0.000000000000000D+00 0.000000000000000D+00 0.308681706451453D+04
 0.308681706451453D+04 -.000000000000000D+00 -.000000000000000D+00 -.308681706451453D+04
 0.626182253909222D+03 0.201548024255274D+03 -.524003059927051D+03 0.247544747907759D+03
 0.252774167312044D+04 -.554351400348230D+02 0.582407218598690D+02 -.252646253279092D+04
 0.221951711751405D+04 0.243649507450119D+03 0.107063914469597D+04 0.192889164400230D+04
 0.800193084485335D+03 -.389762391670570D+03 -.604876806628790D+03 0.350026140880860D+03
0.463301945562D+00 0.000000000000D+00 0.000000000000D+00 0.123727506037D-02 0.000000000000D+00  6 2 2 25 2 2 21 0 0.50138197D+00 0.44980716D+00 0.35761546D+06 0.35761546D+06 0.35761546D+06 0.10789520D+01  1  2  2  3  6  5        2 0.185746262443D-01 0.100000000000D+01
0.345726287999D+00 0.000000000000D+00 -.177920146116D-02 0.123727506037D-02 0.000000000000D+00  6 2 2 25 2 2 21 2 0.50138197D+00 0.44980716D+00 0.35761546D+06 0.35761546D+06 0.35761546D+06 0.10789520D+01  1  2  3  3  6  5        2 0.161358770691D-01 0.100000000000D+01
-.316865949615D+00 0.000000000000D+00 0.000000000000D+00 0.123727506037D-02 0.000000000000D+00  6 2 2 25 2 2 21 2 0.50138197D+00 0.44980716D+00 0.35761546D+06 0.35761546D+06 0.35761546D+06 0.10789520D+01  1  2 15  3  6  5        2 -.147888956895D-01 0.100000000000D+01
-.291504019876D-02 0.000000000000D+00 0.000000000000D+00 0.123727506037D-02 0.000000000000D+00  6 2 2 25 2 2 21 2 0.50138197D+00 0.44980716D+00 0.35761546D+06 0.35761546D+06 0.35761546D+06 0.10789520D+01  1  2  4  3  6  5        2 -.136051934525D-03 0.100000000000D+01
  </mgrwgt>
  </event>
  <event>
  5     66 0.18411016E-05 0.68595811E+02 0.75467711E-02 0.82518354E-01
        2 -1    0    0  502    0 0.00000000E+00 0.00000000E+00 0.17834547E+04 0.17834548E+04 0.32000000E+00 0.0000E+00 0.9000E+01
        2 -1    0    0  501    0 -.00000000E+00 -.00000000E+00 -.22291130E+04 0.22291130E+04 0.32000000E+00 0.0000E+00 0.9000E+01
       25  1    1    2    0    0 -.71698588E+03 0.49005937E+03 -.16311142E+03 0.89244455E+03 0.12500000E+03 0.0000E+00 0.9000E+01
        2  1    1    2  501    0 0.64850227E+03 -.48607723E+03 -.16038784E+04 0.17970121E+04 0.32000000E+00 0.0000E+00 0.9000E+01
        2  1    1    2  502    0 0.68483608E+02 -.39821445E+01 0.13213316E+04 0.13231112E+04 0.32000000E+00 0.0000E+00 0.9000E+01
#aMCatNLO 1  0  0  5  1 0.15874314D+02 0.00000000D+00  -5  6  0 0.00000000D+00 0.00000000D+00 0.00000000D+00 0.00000000D+00 0.00000000D+00
  <mgrwgt>
 0.1404892167D-02    4    2    0
 0.199387116452992D+04 0.000000000000000D+00 0.000000000000000D+00 0.199387116452992D+04
 0.199387116452992D+04 -.000000000000000D+00 -.000000000000000D+00 -.199387116452992D+04
 0.879823935712997D+03 -.717031758032350D+03 0.490094936641732D+03 -.643239372604124D+02
 0.162897714844382D+04 0.648551619342250D+03 -.486112993837114D+03 -.141302565596787D+04
 0.147894124490302D+04 0.684801386901005D+02 -.398194280461816D+01 0.147734959322828D+04
 0.000000000000000D+00 -.000000000000000D+00 0.000000000000000D+00 0.000000000000000D+00
 0.199387116452992D+04 0.000000000000000D+00 0.000000000000000D+00 0.199387116452992D+04
 0.199387116452992D+04 -.000000000000000D+00 -.000000000000000D+00 -.199387116452992D+04
 0.938627012837860D+03 -.696641080231283D+03 0.488909271508682D+03 0.375572361597554D+03
 0.112183578297879D+04 0.679397070642625D+03 -.487906576987063D+03 -.747584320666658D+03
 0.104934912947861D+04 0.820163621663035D+03 0.276794383459834D+03 0.593169536071416D+03
 0.877930403764579D+03 -.802919612074377D+03 -.277797077981454D+03 -.221157577002312D+03
0.271186453361D-02 0.000000000000D+00 0.000000000000D+00 0.127326686534D-04 0.000000000000D+00  6 2 2 25 2 2 21 0 0.27437765D+00 0.34294047D+00 0.77138837D+06 0.77138837D+06 0.77138837D+06 0.10554513D+01  1  2  2  3  6  5        2 0.193900871109D-02 0.100000000000D+01
0.147079106931D-02 0.000000000000D+00 -.104142738594D-04 0.127326686534D-04 0.000000000000D+00  6 2 2 25 2 2 21 2 0.27437765D+00 0.34294047D+00 0.77138837D+06 0.77138837D+06 0.77138837D+06 0.10554513D+01  1  2  3  3  6  5        2 0.117149144293D-02 0.100000000000D+01
-.206739953192D-02 0.000000000000D+00 0.000000000000D+00 0.127326686534D-04 0.000000000000D+00  6 2 2 25 2 2 21 2 0.27437765D+00 0.34294047D+00 0.77138837D+06 0.77138837D+06 0.77138837D+06 0.10554513D+01  1  2 15  3  6  5        2 -.164669266172D-02 0.100000000000D+01
-.739673648468D-04 0.000000000000D+00 0.000000000000D+00 0.127326686534D-04 0.000000000000D+00  6 2 2 25 2 2 21 2 0.27437765D+00 0.34294047D+00 0.77138837D+06 0.77138837D+06 0.77138837D+06 0.10554513D+01  1  2  4  3  6  5        2 -.589153257607D-04 0.100000000000D+01
  </mgrwgt>
  </event>
  <event>
  6     66 0.18411016E-05 0.55635624E+02 0.75467711E-02 0.94557960E-01
        2 -1    0    0  502    0 0.00000000E+00 0.00000000E+00 0.13877846E+04 0.13877846E+04 0.32000000E+00 0.0000E+00 0.9000E+01
        2 -1    0    0  503    0 0.00000000E+00 0.00000000E+00 -.19945340E+04 0.19945341E+04 0.32000000E+00 0.0000E+00 0.9000E+01
       25  1    1    2    0    0 0.17365427E+03 -.43220045E+03 0.26049074E+03 0.54811811E+03 0.12500000E+03 0.0000E+00 0.9000E+01
        2  1    1    2  501    0 -.41389610E+02 0.35829890E+03 -.14820353E+04 0.15252934E+04 0.32000000E+00 0.0000E+00 0.9000E+01
        2  1    1    2  502    0 -.42287382E+02 0.57740121E+02 0.95446763E+03 0.95714717E+03 0.32000000E+00 0.0000E+00 0.9000E+01
       21  1    1    2  503  501 -.89977279E+02 0.16161429E+02 -.33967258E+03 0.35176005E+03 0.75000000E+00 0.0000E+00 0.9000E+01
#aMCatNLO 2  0  0  2  5 0.91417189D+02 0.00000000D+00  -5  6  0 0.00000000D+00 0.00000000D+00 0.00000000D+00 0.00000000D+00 0.00000000D+00
  <mgrwgt>
 0.7168860908D-02    2    2    0
 0.150869135980958D+04 0.000000000000000D+00 0.000000000000000D+00 0.150869135980958D+04
 0.150869135980958D+04 0.000000000000000D+00 0.000000000000000D+00 -.150869135980958D+04
 0.566149469303147D+03 0.156672800078309D+03 -.429180521539745D+03 0.310093429854181D+03
 0.140394197004290D+04 -.831968418919303D+02 0.365842632366428D+03 -.135288229683530D+04
 0.104729128027312D+04 -.734759581863785D+02 0.633378891733174D+02 0.104278886698112D+04
 0.000000000000000D+00 -.000000000000000D+00 0.000000000000000D+00 -.000000000000000D+00
 0.151598522022914D+04 0.000000000000000D+00 0.000000000000000D+00 0.151598522022914D+04
 0.182586351393278D+04 0.000000000000000D+00 0.000000000000000D+00 -.182586351393278D+04
 0.573379908290850D+03 0.173659083267288D+03 -.432231543031810D+03 0.310093429854181D+03
 0.140014576773873D+04 -.413979823475878D+02 0.358334855803729D+03 -.135288229683530D+04
 0.104524155234816D+04 -.422838222256623D+02 0.577352581479914D+02 0.104278886698112D+04
 0.323081505784183D+03 -.899772786940381D+02 0.161614290800896D+02 -.309878293703641D+03
-.196084370427D-10 0.000000000000D+00 0.000000000000D+00 0.600365334813D-04 0.000000000000D+00  6 2 2 25 2 2 21 2 0.21247802D+00 0.30767674D+00 0.25300479D+06 0.25300479D+06 0.25300479D+06 0.10900690D+01  1  2 13  2  6  2        2 -.409404940314D-10 0.100000000000D+01
0.343971425330D-02 0.000000000000D+00 0.000000000000D+00 0.600365334813D-04 0.545107911497D-07  6 2 2 25 2 2 21 2 0.21350526D+00 0.30685131D+00 0.25300479D+06 0.25300479D+06 0.25300479D+06 0.10900690D+01  1  2  1  2  6  2        2 0.716886094943D-02 0.100000000000D+01
  </mgrwgt>
  </event>
  <event>
  5     66 0.18411016E-05 0.80025924E+02 0.75467711E-02 0.93707361E-01
        2 -1    0    0  502    0 0.00000000E+00 0.00000000E+00 0.27504354E+04 0.27504354E+04 0.32000000E+00 0.0000E+00 0.9000E+01
        2 -1    0    0  501    0 0.00000000E+00 0.00000000E+00 -.23089605E+03 0.23089628E+03 0.32000000E+00 0.0000E+00 0.9000E+01
       25  1    1    2    0    0 -.21886578E+03 0.48086808E+03 0.83356538E+03 0.99478268E+03 0.12500000E+03 0.0000E+00 0.9000E+01
        2  1    1    2  501    0 0.16014589E+03 -.42646253E+03 0.19847865E+03 0.49690127E+03 0.32000000E+00 0.0000E+00 0.9000E+01
        2  1    1    2  502    0 0.58719894E+02 -.54405546E+02 0.14874953E+04 0.14896478E+04 0.32000000E+00 0.0000E+00 0.9000E+01
#aMCatNLO 1  0  0  5  2 0.22976465D+02 0.00000000D+00  -5  6  0 0.00000000D+00 0.00000000D+00 0.00000000D+00 0.00000000D+00 0.00000000D+00
  <mgrwgt>
 0.1007424208D-02    7    2    0
 0.796909683995699D+03 0.000000000000000D+00 0.000000000000000D+00 0.796909683995699D+03
 0.796909683995699D+03 -.000000000000000D+00 -.000000000000000D+00 -.796909683995699D+03
 0.543150084026130D+03 -.218885624822133D+03 0.480937993228317D+03 -.132190655243104D+02
 0.615787469723826D+03 0.160183331636969D+03 -.426548754699458D+03 -.414236246601978D+03
 0.434881814241442D+03 0.587022931851645D+02 -.543892385288594D+02 0.427455312126288D+03
 0.000000000000000D+00 0.000000000000000D+00 0.000000000000000D+00 0.000000000000000D+00
 0.796909683995699D+03 0.000000000000000D+00 0.000000000000000D+00 0.796909683995699D+03
 0.796909683995699D+03 -.000000000000000D+00 -.000000000000000D+00 -.796909683995699D+03
 0.542920164658946D+03 -.218720520539876D+03 0.480785019712249D+03 -.120168177299545D+02
 0.615040797461111D+03 0.160370442017610D+03 -.426722117451946D+03 -.412873755942423D+03
 0.340511973383736D+03 0.231427014137300D+02 -.443871215044886D+02 0.336812414904064D+03
 0.953464324876054D+02 0.352073771085359D+02 -.967578075581447D+01 0.880781587683135D+02
0.860968884678D-04 0.000000000000D+00 0.000000000000D+00 0.707236541157D-06 0.000000000000D+00  6 2 2 25 2 2 21 0 0.42314393D+00 0.35522488D-01 0.29087110D+06 0.29087110D+06 0.29087110D+06 0.10855462D+01  1  2  2  3  6  5        2 0.522522420650D-03 0.100000000000D+01
0.208277442847D-04 0.000000000000D+00 -.330634721548D-06 0.707236541157D-06 0.000000000000D+00  6 2 2 25 2 2 21 2 0.42314393D+00 0.35522488D-01 0.29087110D+06 0.29087110D+06 0.29087110D+06 0.10855462D+01  1  2  3  3  6  5        2 0.148955423836D-03 0.100000000000D+01
-.526765449105D-04 0.000000000000D+00 0.000000000000D+00 0.707236541157D-06 0.000000000000D+00  6 2 2 25 2 2 21 2 0.42314393D+00 0.35522488D-01 0.29087110D+06 0.29087110D+06 0.29087110D+06 0.10855462D+01  1  2 15  3  6  5        2 -.376731006782D-03 0.100000000000D+01
0.117010805194D-07 0.000000000000D+00 0.000000000000D+00 0.707236541157D-06 0.000000000000D+00  6 2 2 25 2 2 21 2 0.42314393D+00 0.35522488D-01 0.29442571D+06 0.29442571D+06 0.29442571D+06 0.10851550D+01  1  2 12  3  6  5        2 0.835630662392D-07 0.100000000000D+01
-.350568368668D-03 0.000000000000D+00 0.000000000000D+00 0.707236541157D-06 0.000000000000D+00  6 2 2 25 2 2 21 2 0.42314393D+00 0.35522488D-01 0.29087110D+06 0.29087110D+06 0.29087110D+06 0.10855462D+01  1  2  4  3  6  5        2 -.250718749110D-02 0.100000000000D+01
-.185603742384D-02 0.000000000000D+00 0.000000000000D+00 0.707236541157D-06 0.000000000000D+00  6 2 2 25 2 2 21 2 0.42314393D+00 0.35522488D-01 0.29087110D+06 0.29087110D+06 0.29087110D+06 0.10855462D+01  1  2  5  3  6  5        2 -.132739694393D-01 0.100000000000D+01
0.230624447114D-02 0.000000000000D+00 -.000000000000D+00 0.707236541157D-06 0.000000000000D+00  6 2 2 25 2 2 21 2 0.42314393D+00 0.35522488D-01 0.29087110D+06 0.29087110D+06 0.29087110D+06 0.10855462D+01  1  2  6  3  6  5        2 0.164937507381D-01 0.100000000000D+01
  </mgrwgt>
  </event>
  <event>
  5     66 0.18411016E-05 0.23670094E+02 0.75467711E-02 0.95417598E-01
        2 -1    0    0  502    0 0.00000000E+00 0.00000000E+00 0.26417224E+04 0.26417224E+04 0.32000000E+00 0.0000E+00 0.9000E+01
        2 -1    0    0  501    0 0.00000000E+00 0.00000000E+00 -.64238315E+03 0.64238323E+03 0.32000000E+00 0.0000E+00 0.9000E+01
       25  1    1    2    0    0 -.45554198E+03 -.42719001E+02 0.34067417E+03 0.58397543E+03 0.12500000E+03 0.0000E+00 0.9000E+01
        2  1    1    2  501    0 0.21666216E+02 0.95260830E+01 -.49872862E+03 0.49929000E+03 0.32000000E+00 0.0000E+00 0.9000E+01
        2  1    1    2  502    0 0.43387577E+03 0.33192918E+02 0.21573937E+04 0.22008402E+04 0.32000000E+00 0.0000E+00 0.9000E+01
#aMCatNLO 1  0  0  5  1 0.14912099D+02 0.00000000D+00  -5  6  0 0.00000000D+00 0.00000000D+00 0.00000000D+00 0.00000000D+00 0.00000000D+00
  <mgrwgt>
 0.1251312530D-01    6    2    0
 0.130268879539464D+04 0.000000000000000D+00 0.000000000000000D+00 0.130268879539464D+04
 0.130268879539464D+04 -.000000000000000D+00 -.000000000000000D+00 -.130268879539464D+04
 0.474664730468894D+03 -.455531818618666D+03 -.427189168749561D+02 -.186403518772753D+02
 0.101212333397025D+04 0.216682022160058D+02 0.952692815210057D+01 -.101184651495164D+04
 0.111858952635014D+04 0.433863616402661D+03 0.331919887228556D+02 0.103048686682891D+04
 0.000000000000000D+00 0.000000000000000D+00 0.000000000000000D+00 0.000000000000000D+00
 0.130268879539464D+04 0.000000000000000D+00 0.000000000000000D+00 0.130268879539464D+04
 0.130268879539464D+04 -.000000000000000D+00 -.000000000000000D+00 -.130268879539464D+04
 0.460510447696403D+03 -.440976263254312D+03 -.416053691810648D+02 0.159311311309866D+02
 0.941154168292169D+03 0.520700343966948D+02 0.118527679615375D+02 -.939637904675679D+03
 0.680569370526494D+03 -.425977912603535D+02 0.162656261232296D+03 0.659471786326375D+03
 0.523143604274223D+03 0.431504020117971D+03 -.132903660012768D+03 0.264234987218319D+03
0.384985873866D-02 0.000000000000D+00 0.000000000000D+00 0.928475094192D-04 0.000000000000D+00  6 2 2 25 2 2 21 0 0.40641884D+00 0.98828184D-01 0.21766894D+06 0.21766894D+06 0.21766894D+06 0.10950127D+01  1  2  2  3  6  5        2 0.875398717481D-02 0.100000000000D+01
0.288309512929D-02 0.000000000000D+00 -.147844712475D-04 0.928475094192D-04 0.000000000000D+00  6 2 2 25 2 2 21 2 0.40641884D+00 0.98828184D-01 0.21766894D+06 0.21766894D+06 0.21766894D+06 0.10950127D+01  1  2  3  3  6  5        2 0.786064940122D-02 0.100000000000D+01
-.270731499859D-02 0.000000000000D+00 0.000000000000D+00 0.928475094192D-04 0.000000000000D+00  6 2 2 25 2 2 21 2 0.40641884D+00 0.98828184D-01 0.21766894D+06 0.21766894D+06 0.21766894D+06 0.10950127D+01  1  2 15  3  6  5        2 -.738139154908D-02 0.100000000000D+01
-.130245215331D-03 0.000000000000D+00 0.000000000000D+00 0.928475094192D-04 0.000000000000D+00  6 2 2 25 2 2 21 2 0.40641884D+00 0.98828184D-01 0.21766894D+06 0.21766894D+06 0.21766894D+06 0.10950127D+01  1  2  4  3  6  5        2 -.355108634295D-03 0.100000000000D+01
-.238755799969D-02 0.000000000000D+00 0.000000000000D+00 0.928475094192D-04 0.000000000000D+00  6 2 2 25 2 2 21 2 0.40641884D+00 0.98828184D-01 0.21766894D+06 0.21766894D+06 0.21766894D+06 0.10950127D+01  1  2  5  3  6  5        2 -.650958623249D-02 0.100000000000D+01
0.372078357491D-02 0.000000000000D+00 -.000000000000D+00 0.928475094192D-04 0.000000000000D+00  6 2 2 25 2 2 21 2 0.40641884D+00 0.98828184D-01 0.21766894D+06 0.21766894D+06 0.21766894D+06 0.10950127D+01  1  2  6  3  6  5        2 0.101445751418D-01 0.100000000000D+01
  </mgrwgt>
  </event>
  <event>
  6     66 0.18411016E-05 0.10775967E+02 0.75467711E-02 0.94003694E-01
        2 -1    0    0  502    0 0.00000000E+00 0.00000000E+00 0.51209699E+03 0.51209709E+03 0.32000000E+00 0.0000E+00 0.9000E+01
        2 -1    0    0  501    0 -.00000000E+00 -.00000000E+00 -.85110117E+03 0.85110123E+03 0.32000000E+00 0.0000E+00 0.9000E+01
       25  1    1    2    0    0 -.22370918E+03 -.45199996E+03 -.21612393E+03 0.56274711E+03 0.12500000E+03 0.0000E+00 0.9000E+01
        2  1    1    2  501    0 0.19186802E+03 0.46041118E+03 -.32431286E+03 0.59495439E+03 0.32000000E+00 0.0000E+00 0.9000E+01
        2  1    1    2  503    0 0.12628536E+02 -.12838043E+02 0.58528925E+02 0.61237510E+02 0.32000000E+00 0.0000E+00 0.9000E+01
       21  1    1    2  502  503 0.19212619E+02 0.44268256E+01 0.14290368E+03 0.14425930E+03 0.75000000E+00 0.0000E+00 0.9000E+01
#aMCatNLO 2  0  0  5  1 0.10787823D+02 0.00000000D+00  -5  6  0 0.00000000D+00 0.00000000D+00 0.00000000D+00 0.00000000D+00 0.00000000D+00
  <mgrwgt>
 0.1663868260D-02    3    2    0
 0.660186682460471D+03 0.000000000000000D+00 0.000000000000000D+00 0.660186682460471D+03
 0.660186682460471D+03 -.000000000000000D+00 -.000000000000000D+00 -.660186682460471D+03
 0.525912223239615D+03 -.223886027947744D+03 -.452369700121285D+03 -.787106565516713D+02
 0.531424613716168D+03 0.192016051710407D+03 0.460788530978258D+03 -.182252258333948D+03
 0.263036527965158D+03 0.318699762373377D+02 -.841883085697232D+01 0.260962914885619D+03
 0.000000000000000D+00 0.000000000000000D+00 0.000000000000000D+00 0.000000000000000D+00
 0.660186682460471D+03 0.000000000000000D+00 0.000000000000000D+00 0.660186682460471D+03
 0.660186682460471D+03 -.000000000000000D+00 -.000000000000000D+00 -.660186682460471D+03
 0.525839093393855D+03 -.223834555769397D+03 -.452383297105485D+03 -.782891837022072D+02
 0.531285597866412D+03 0.192068060211539D+03 0.460774792318056D+03 -.181826393879160D+03
 0.777227558161214D+02 0.125389021895736D+02 -.127363062743919D+02 0.756398651903719D+02
 0.185525917844554D+03 0.192275933682839D+02 0.434481106182110D+01 0.184475712390995D+03
-.104189481112D-07 0.000000000000D+00 0.000000000000D+00 0.351883409197D-06 0.000000000000D+00  6 2 2 25 2 2 21 2 0.78784164D-01 0.13093865D+00 0.27918887D+06 0.27918887D+06 0.27918887D+06 0.10868695D+01  1  2 13  3  6  5        2 -.374903162023D-06 0.100000000000D+01
-.195654055770D-03 0.000000000000D+00 0.000000000000D+00 0.351883409197D-06 0.000000000000D+00  6 2 2 25 2 2 21 2 0.78784164D-01 0.13093865D+00 0.27918887D+06 0.27918887D+06 0.27918887D+06 0.10868695D+01  1  2 13  3  6  5        2 -.704018518836D-02 0.100000000000D+01
0.241905101145D-03 0.000000000000D+00 0.000000000000D+00 0.351883409197D-06 0.402466541660D-08  6 2 2 25 2 2 21 2 0.78784164D-01 0.13093865D+00 0.27918887D+06 0.27918887D+06 0.27918887D+06 0.10868695D+01  1  2  1  3  6  5        2 0.870442835117D-02 0.100000000000D+01
  </mgrwgt>
  </event>
  <event>
  5     66 0.18411016E-05 0.33669751E+02 0.75467711E-02 0.86595405E-01
        2 -1    0    0  502    0 0.00000000E+00 0.00000000E+00 0.11419251E+04 0.11419252E+04 0.32000000E+00 0.0000E+00 0.9000E+01
        2 -1    0    0  501    0 -.00000000E+00 -.00000000E+00 -.22421956E+04 0.22421956E+04 0.32000000E+00 0.0000E+00 0.9000E+01
       25  1    1    2    0    0 -.92653960E+03 -.52873108E+03 -.95844392E+03 0.14395388E+04 0.12500000E+03 0.0000E+00 0.9000E+01
        2  1    1    2  501    0 0.93766988E+03 0.49694875E+03 -.77275343E+03 0.13127570E+04 0.32000000E+00 0.0000E+00 0.9000E+01
        2  1    1    2  502    0 -.11130278E+02 0.31782337E+02 0.63092689E+03 0.63182501E+03 0.32000000E+00 0.0000E+00 0.9000E+01
#aMCatNLO 1  0  0  5  1 0.62661782D+01 0.00000000D+00  -5  6  0 0.00000000D+00 0.00000000D+00 0.00000000D+00 0.00000000D+00 0.00000000D+00
  <mgrwgt>
 0.1783238244D-02    9    2    0
 0.160013110848275D+04 0.000000000000000D+00 0.000000000000000D+00 0.160013110848275D+04
 0.160013110848275D+04 -.000000000000000D+00 -.000000000000000D+00 -.160013110848275D+04
 0.119278504640962D+04 -.926629527353946D+03 -.528777910826666D+03 -.518519823146618D+03
 0.112257229851636D+04 0.937758097607263D+03 0.497000449898159D+03 -.365744266625388D+03
 0.884904872039509D+03 -.111285702533167D+02 0.317774609285059D+02 0.884264089772006D+03
 0.000000000000000D+00 -.000000000000000D+00 0.000000000000000D+00 0.000000000000000D+00
 0.160013110848275D+04 0.000000000000000D+00 0.000000000000000D+00 0.160013110848275D+04
 0.160013110848275D+04 -.000000000000000D+00 -.000000000000000D+00 -.160013110848275D+04
 0.119276729982876D+04 -.926630033967810D+03 -.528776464198579D+03 -.518479568159874D+03
 0.112256016013388D+04 0.937757620814023D+03 0.497001811373910D+03 -.365706381153076D+03
 0.255342829813935D+03 0.184575710819230D+01 0.547034486116237D+01 0.255277553351613D+03
 0.629591927188921D+03 -.129733439544044D+02 0.263043079635053D+02 0.628908395961337D+03
0.239124401311D-05 0.000000000000D+00 0.000000000000D+00 0.617890894504D-06 0.000000000000D+00  6 2 2 25 2 2 21 0 0.17568079D+00 0.34495317D+00 0.11763295D+07 0.11763295D+07 0.11763295D+07 0.10432011D+01  1  2  2  3  6  5        2 0.376159454528D-05 0.100000000000D+01
0.194271940679D-05 0.000000000000D+00 -.918300663935D-08 0.617890894504D-06 0.000000000000D+00  6 2 2 25 2 2 21 2 0.17568079D+00 0.34495317D+00 0.11763295D+07 0.11763295D+07 0.11763295D+07 0.10432011D+01  1  2  3  3  6  5        2 0.332578550751D-05 0.100000000000D+01
-.184585776651D-05 0.000000000000D+00 0.000000000000D+00 0.617890894504D-06 0.000000000000D+00  6 2 2 25 2 2 21 2 0.17568079D+00 0.34495317D+00 0.11763295D+07 0.11763295D+07 0.11763295D+07 0.10432011D+01  1  2 15  3  6  5        2 -.315996586400D-05 0.100000000000D+01
0.472653637897D-09 0.000000000000D+00 0.000000000000D+00 0.617890894504D-06 0.000000000000D+00  6 2 2 25 2 2 21 2 0.17568079D+00 0.34495317D+00 0.11778844D+07 0.11778844D+07 0.11778844D+07 0.10431634D+01  1  2 12  3  6  5        2 0.809008878897D-09 0.100000000000D+01
0.688611305089D-03 0.000000000000D+00 0.000000000000D+00 0.617890894504D-06 0.000000000000D+00  6 2 2 25 2 2 21 2 0.17568079D+00 0.34495317D+00 0.11778844D+07 0.11778844D+07 0.11778844D+07 0.10431634D+01  1  2 12  3  6  5        2 0.117864883555D-02 0.100000000000D+01
-.456984123453D-03 0.000000000000D+00 0.000000000000D+00 0.617890894504D-06 0.000000000000D+00  6 2 2 25 2 2 21 2 0.17568079D+00 0.34495317D+00 0.11763295D+07 0.11763295D+07 0.11763295D+07 0.10432011D+01  1  2  4  3  6  5        2 -.782321507487D-03 0.100000000000D+01
-.861526159848D-03 0.000000000000D+00 0.000000000000D+00 0.617890894504D-06 0.000000000000D+00  6 2 2 25 2 2 21 2 0.17568079D+00 0.34495317D+00 0.11763295D+07 0.11763295D+07 0.11763295D+07 0.10432011D+01  1  2  5  3  6  5        2 -.147486621421D-02 0.100000000000D+01
0.159064112500D-02 0.000000000000D+00 -.000000000000D+00 0.617890894504D-06 0.000000000000D+00  6 2 2 25 2 2 21 2 0.17568079D+00 0.34495317D+00 0.11763295D+07 0.11763295D+07 0.11763295D+07 0.10432011D+01  1  2  6  3  6  5        2 0.272305469471D-02 0.100000000000D+01
0.787518855772D-04 0.000000000000D+00 0.000000000000D+00 0.617890894504D-06 0.894927294810D-08  6 2 2 25 2 2 21 2 0.17568079D+00 0.34495317D+00 0.11778844D+07 0.11778844D+07 0.11778844D+07 0.10431634D+01  1  2 11  3  6  5        2 0.134794211984D-03 0.100000000000D+01
  </mgrwgt>
  </event>
  <event>
  5     66 -.18411016E-05 0.34891199E+02 0.75467711E-02 0.90320152E-01
        2 -1    0    0  502    0 0.00000000E+00 0.00000000E+00 0.15795641E+04 0.15795642E+04 0.32000000E+00 0.0000E+00 0.9000E+01
        2 -1    0    0  501    0 0.00000000E+00 0.00000000E+00 -.12193943E+04 0.12193944E+04 0.32000000E+00 0.0000E+00 0.9000E+01
       25  1    1    2    0    0 -.73692936E+03 -.30067677E+02 -.44936151E+03 0.87265097E+03 0.12500000E+03 0.0000E+00 0.9000E+01
        2  1    1    2  501    0 0.31037677E+02 0.15936316E+02 -.46659096E+03 0.46789372E+03 0.32000000E+00 0.0000E+00 0.9000E+01
        2  1    1    2  502    0 0.70589169E+03 0.14131361E+02 0.12761223E+04 0.14584138E+04 0.32000000E+00 0.0000E+00 0.9000E+01
#aMCatNLO 1  0  0  5  1 0.62661782D+01 0.00000000D+00  -5  6  0 0.00000000D+00 0.00000000D+00 0.00000000D+00 0.00000000D+00 0.00000000D+00
  <mgrwgt>
 -.2655336009D-03    1    2    0
 0.138784424376781D+04 0.000000000000000D+00 0.000000000000000D+00 0.138784424376781D+04
 0.138784424376781D+04 -.000000000000000D+00 -.000000000000000D+00 -.138784424376781D+04
 0.938258911965206D+03 -.736927955752420D+03 -.300681356063860D+02 -.566337250349867D+03
 0.532381991676788D+03 0.310388993126072D+02 0.159368274295382D+02 -.531237413331071D+03
 0.130504758389363D+04 0.705889056439813D+03 0.141313081768477D+02 0.109757466368094D+04
 0.000000000000000D+00 0.000000000000000D+00 0.000000000000000D+00 0.000000000000000D+00
 0.138784424376781D+04 0.000000000000000D+00 0.000000000000000D+00 0.138784424376781D+04
 0.138784424376781D+04 -.000000000000000D+00 -.000000000000000D+00 -.138784424376781D+04
 0.887546655312318D+03 -.707396209258037D+03 -.294769347556213D+02 -.520418849390427D+03
 0.507605498508469D+03 0.478603218495519D+02 0.162735782314864D+02 -.505082074874997D+03
 0.113978021102235D+04 0.766658806425577D+03 0.115141320528188D+03 0.835509234105334D+03
 0.240756122692491D+03 -.107122919017092D+03 -.101937964004053D+03 0.189991690160090D+03
-.670382728041D-04 0.000000000000D+00 0.000000000000D+00 0.628758644118D-05 0.000000000000D+00  6 2 2 25 2 2 21 2 0.24300987D+00 0.18759913D+00 0.55426569D+06 0.55426569D+06 0.55426569D+06 0.10653621D+01  1  2 14  3  6  5        2 -.265533600857D-03 0.100000000000D+01
  </mgrwgt>
  </event>
  <event>
  5     66 0.18411016E-05 0.10224337E+03 0.75467711E-02 0.95040932E-01
        2 -1    0    0  502    0 0.00000000E+00 0.00000000E+00 0.15735423E+04 0.15735423E+04 0.32000000E+00 0.0000E+00 0.9000E+01
        2 -1    0    0  501    0 0.00000000E+00 0.00000000E+00 -.24655506E+03 0.24655527E+03 0.32000000E+00 0.0000E+00 0.9000E+01
       25  1    1    2    0    0 -.25592574E+03 -.38289616E+03 0.72336451E+03 0.86659603E+03 0.12500000E+03 0.0000E+00 0.9000E+01
        2  1    1    2  501    0 0.65914803E+02 0.78126218E+02 -.11272132E+03 0.15216657E+03 0.32000000E+00 0.0000E+00 0.9000E+01
        2  1    1    2  502    0 0.19001094E+03 0.30476994E+03 0.71634401E+03 0.80133496E+03 0.32000000E+00 0.0000E+00 0.9000E+01
#aMCatNLO 1  0  0  2  4 0.22120012D+02 0.00000000D+00  -5  6  0 0.00000000D+00 0.00000000D+00 0.00000000D+00 0.00000000D+00 0.00000000D+00
  <mgrwgt>
 0.7715903520D-02   11    2    0
 0.622868383884111D+03 0.000000000000000D+00 0.000000000000000D+00 0.622868383884111D+03
 0.622868383884111D+03 0.000000000000000D+00 0.000000000000000D+00 -.622868383884111D+03
 0.495594602686944D+03 -.255901276896301D+03 -.382850985965725D+03 0.133897980717951D+03
 0.342495991345528D+03 0.659309228291188D+02 0.781461411579754D+02 -.326878873781673D+03
 0.407646173735750D+03 0.189970354067182D+03 0.304704844807750D+03 0.192980893063722D+03
 0.000000000000000D+00 -.000000000000000D+00 -.000000000000000D+00 -.000000000000000D+00
 0.623733915602606D+03 0.000000000000000D+00 0.000000000000000D+00 0.623733915602606D+03
 0.782378097904206D+03 0.000000000000000D+00 0.000000000000000D+00 -.782378097904206D+03
 0.490526199019745D+03 -.247183582984514D+03 -.382050466545130D+03 0.133897980717951D+03
 0.343842669015004D+03 0.719984252593418D+02 0.787033015238987D+02 -.326878873781673D+03
 0.411564272021834D+03 0.197212495094014D+03 0.305369868677288D+03 0.192980893063722D+03
 0.160178873450229D+03 -.220273373688422D+02 -.202270365605613D+01 -.158644182301601D+03
0.742762792671D-05 0.000000000000D+00 0.000000000000D+00 0.136058191359D-06 0.000000000000D+00  6 2 2 25 2 2 21 0 0.24208344D+00 0.37931566D-01 0.22018651D+06 0.22018651D+06 0.22018651D+06 0.10946324D+01  1  2  2  2  6  2        2 0.193742891644D-03 0.100000000000D+01
0.106830655956D-05 0.000000000000D+00 -.285240469779D-07 0.136058191359D-06 0.000000000000D+00  6 2 2 25 2 2 21 2 0.24208344D+00 0.37931566D-01 0.22018651D+06 0.22018651D+06 0.22018651D+06 0.10946324D+01  1  2  3  2  6  2        2 0.333893616128D-04 0.100000000000D+01
-.454436574956D-05 0.000000000000D+00 0.000000000000D+00 0.136058191359D-06 0.000000000000D+00  6 2 2 25 2 2 21 2 0.24208344D+00 0.37931566D-01 0.22018651D+06 0.22018651D+06 0.22018651D+06 0.10946324D+01  1  2 15  2  6  2        2 -.142031769771D-03 0.100000000000D+01
0.761308411003D-07 0.000000000000D+00 0.000000000000D+00 0.136058191359D-06 0.000000000000D+00  6 2 2 25 2 2 21 2 0.24208344D+00 0.47698705D-01 0.23242074D+06 0.23242074D+06 0.23242074D+06 0.10928493D+01  1  2 12  2  6  2        2 0.183541378403D-05 0.100000000000D+01
0.589163616935D-03 0.000000000000D+00 0.000000000000D+00 0.136058191359D-06 0.000000000000D+00  6 2 2 25 2 2 21 2 0.24208344D+00 0.49874004D-01 0.23242074D+06 0.23242074D+06 0.23242074D+06 0.10928493D+01  1  2 12  2  6  2        2 0.135214773188D-01 0.100000000000D+01
-.329473114805D-03 0.000000000000D+00 0.000000000000D+00 0.136058191359D-06 0.000000000000D+00  6 2 2 25 2 2 21 2 0.24208344D+00 0.37931566D-01 0.22018651D+06 0.22018651D+06 0.22018651D+06 0.10946324D+01  1  2  4  2  6  2        2 -.102975095243D-01 0.100000000000D+01
-.759471393771D-03 0.000000000000D+00 -.893794133421D-05 0.136058191359D-06 0.000000000000D+00  6 2 2 25 2 2 21 2 0.24208344D+00 0.47674751D-01 0.22018651D+06 0.22018651D+06 0.22018651D+06 0.10946324D+01  1  2  5  2  6  2        2 -.184171924666D-01 0.100000000000D+01
0.742261105115D-03 0.000000000000D+00 0.870934556943D-05 0.136058191359D-06 0.000000000000D+00  6 2 2 25 2 2 21 2 0.24208344D+00 0.37931566D-01 0.22018651D+06 0.22018651D+06 0.22018651D+06 0.10946324D+01  1  2  6  2  6  2        2 0.231989818166D-01 0.100000000000D+01
0.241488488892D-08 0.000000000000D+00 0.000000000000D+00 0.136058191359D-06 0.000000000000D+00  6 2 21 25 2 2 -2 2 0.24208344D+00 0.47698705D-01 0.23242074D+06 0.23242074D+06 0.23242074D+06 0.10928493D+01  1  2 12  5  6  2        2 0.191245715933D-06 0.100000000000D+01
0.213088526926D-04 0.000000000000D+00 0.000000000000D+00 0.136058191359D-06 0.000000000000D+00  6 2 21 25 2 2 -2 2 0.24208344D+00 0.49874004D-01 0.23242074D+06 0.23242074D+06 0.23242074D+06 0.10928493D+01  1  2 12  5  6  2        2 0.153305043567D-02 0.100000000000D+01
-.239218711775D-04 0.000000000000D+00 -.283047908800D-06 0.136058191359D-06 0.000000000000D+00  6 2 21 25 2 2 -2 2 0.24208344D+00 0.47674751D-01 0.22018651D+06 0.22018651D+06 0.22018651D+06 0.10946324D+01  1  2  5  5  6  2        2 -.191003120367D-02 0.100000000000D+01
  </mgrwgt>
  </event>
  <event>
  5     66 0.18411016E-05 0.14192990E+03 0.75467711E-02 0.92681556E-01
        2 -1    0    0  502    0 0.00000000E+00 0.00000000E+00 0.45773716E+03 0.45773728E+03 0.32000000E+00 0.0000E+00 0.9000E+01
        2 -1    0    0  501    0 -.00000000E+00 -.00000000E+00 -.17193858E+04 0.17193858E+04 0.32000000E+00 0.0000E+00 0.9000E+01
       25  1    1    2    0    0 0.11308858E+03 0.50009315E+03 -.33441311E+03 0.62477141E+03 0.12500000E+03 0.0000E+00 0.9000E+01
        2  1    1    2  501    0 0.27356350E+02 -.52080710E+03 -.11644484E+04 0.12759030E+04 0.32000000E+00 0.0000E+00 0.9000E+01
        2  1    1    2  502    0 -.14044493E+03 0.20713947E+02 0.23721283E+03 0.27644869E+03 0.32000000E+00 0.0000E+00 0.9000E+01
#aMCatNLO 1  0  0  5  5 0.28738489D+01 0.00000000D+00  -5  6  0 0.00000000D+00 0.00000000D+00 0.00000000D+00 0.00000000D+00 0.00000000D+00
  <mgrwgt>
 0.1524164781D-02    1    2    0
 0.887145384179615D+03 0.000000000000000D+00 0.000000000000000D+00 0.887145384179615D+03
 0.887145384179615D+03 -.000000000000000D+00 -.000000000000000D+00 -.887145384179615D+03
 0.528911824419049D+03 0.113065817723312D+03 0.500182262008079D+03 0.340079938444807D+02
 0.737613296967642D+03 0.273451415306142D+02 -.520891198426719D+03 -.521534254387688D+03
 0.507765646972540D+03 -.140410959253926D+03 0.207089364186398D+02 0.487526260543208D+03
 0.000000000000000D+00 0.000000000000000D+00 0.000000000000000D+00 0.000000000000000D+00
 0.887145384179615D+03 0.000000000000000D+00 0.000000000000000D+00 0.887145384179615D+03
 0.887145384179615D+03 -.000000000000000D+00 -.000000000000000D+00 -.887145384179615D+03
 0.540573055262369D+03 0.876267536225123D+02 0.503934219574728D+03 0.122335941026673D+03
 0.656828994322152D+03 -.582344972946410D+01 -.515999228090852D+03 -.406368320400524D+03
 0.314043229085363D+03 -.124620464938387D+03 -.225368821650922D+03 0.179726969819715D+03
 0.262845489689346D+03 0.428171610453389D+02 0.237433830167047D+03 0.104305409554135D+03
0.122140722988D-03 0.000000000000D+00 0.000000000000D+00 0.195987580162D-06 0.000000000000D+00  6 2 2 25 2 2 21 2 0.70421113D-01 0.26452090D+00 0.35483213D+06 0.35483213D+06 0.35483213D+06 0.10791991D+01  1  2 14  3  6  5        2 0.152416478054D-02 0.100000000000D+01
  </mgrwgt>
  </event>
  <event>
  5     66 0.18411016E-05 0.23978473E+02 0.75467711E-02 0.87089883E-01
        2 -1    0    0  502    0 0.00000000E+00 0.00000000E+00 0.32083550E+04 0.32083550E+04 0.32000000E+00 0.0000E+00 0.9000E+01
        2 -1    0    0  501    0 0.00000000E+00 0.00000000E+00 -.12276774E+04 0.12276774E+04 0.32000000E+00 0.0000E+00 0.9000E+01
       25  1    1    2    0    0 0.68759880E+03 0.24414862E+03 0.29435257E+03 0.79666121E+03 0.12500000E+03 0.0000E+00 0.9000E+01
        2  1    1    2  501    0 -.13207070E+02 -.20011610E+02 -.92895008E+03 0.92925952E+03 0.32000000E+00 0.0000E+00 0.9000E+01
        2  1    1    2  502    0 -.67439173E+03 -.22413701E+03 0.26152751E+04 0.27101117E+04 0.32000000E+00 0.0000E+00 0.9000E+01
#aMCatNLO 1  0  0  5  1 0.16189441D+02 0.00000000D+00  -5  6  0 0.00000000D+00 0.00000000D+00 0.00000000D+00 0.00000000D+00 0.00000000D+00
  <mgrwgt>
 0.3187442863D-02    6    2    0
 0.198464733202285D+04 0.000000000000000D+00 0.000000000000000D+00 0.198464733202285D+04
 0.198464733202285D+04 -.000000000000000D+00 -.000000000000000D+00 -.198464733202285D+04
 0.743436653634107D+03 0.687586783164284D+03 0.244145632462828D+03 -.684863762641603D+02
 0.150212717317191D+04 -.132079689242394D+02 -.200129134401862D+02 -.150193577666756D+04
 0.172373083723967D+04 -.674378814240045D+03 -.224132719022641D+03 0.157042215293172D+04
 0.000000000000000D+00 0.000000000000000D+00 0.000000000000000D+00 0.000000000000000D+00
 0.198464733202285D+04 0.000000000000000D+00 0.000000000000000D+00 0.198464733202285D+04
 0.198464733202285D+04 -.000000000000000D+00 -.000000000000000D+00 -.198464733202285D+04
 0.711974519869349D+03 0.660300737729859D+03 0.235076997112109D+03 -.494551568061630D+01
 0.137834233086861D+04 -.672110047608603D+02 -.379610562376119D+02 -.137617921075443D+04
 0.138995461979321D+04 -.760685129535079D+03 -.510594274974527D+03 0.104528726441678D+04
 0.489023193514520D+03 0.167595396566080D+03 0.313478334100030D+03 0.335837462018261D+03
0.540327576803D-02 0.000000000000D+00 0.000000000000D+00 0.723776391329D-04 0.000000000000D+00  6 2 2 25 2 2 21 0 0.49359308D+00 0.18887345D+00 0.54383476D+06 0.54383476D+06 0.54383476D+06 0.10659405D+01  1  2  2  3  6  5        2 0.206707640403D-02 0.100000000000D+01
0.514904329772D-02 0.000000000000D+00 -.207500016644D-04 0.723776391329D-04 0.000000000000D+00  6 2 2 25 2 2 21 2 0.49359308D+00 0.18887345D+00 0.54383476D+06 0.54383476D+06 0.54383476D+06 0.10659405D+01  1  2  3  3  6  5        2 0.223816383429D-02 0.100000000000D+01
-.375855485262D-02 0.000000000000D+00 0.000000000000D+00 0.723776391329D-04 0.000000000000D+00  6 2 2 25 2 2 21 2 0.49359308D+00 0.18887345D+00 0.54383476D+06 0.54383476D+06 0.54383476D+06 0.10659405D+01  1  2 15  3  6  5        2 -.163375234076D-02 0.100000000000D+01
-.253070231750D-03 0.000000000000D+00 0.000000000000D+00 0.723776391329D-04 0.000000000000D+00  6 2 2 25 2 2 21 2 0.49359308D+00 0.18887345D+00 0.54383476D+06 0.54383476D+06 0.54383476D+06 0.10659405D+01  1  2  4  3  6  5        2 -.110003472002D-03 0.100000000000D+01
-.447497293799D-02 0.000000000000D+00 0.000000000000D+00 0.723776391329D-04 0.000000000000D+00  6 2 2 25 2 2 21 2 0.49359308D+00 0.18887345D+00 0.54383476D+06 0.54383476D+06 0.54383476D+06 0.10659405D+01  1  2  5  3  6  5        2 -.194516185049D-02 0.100000000000D+01
0.591503154557D-02 0.000000000000D+00 -.000000000000D+00 0.723776391329D-04 0.000000000000D+00  6 2 2 25 2 2 21 2 0.49359308D+00 0.18887345D+00 0.54383476D+06 0.54383476D+06 0.54383476D+06 0.10659405D+01  1  2  6  3  6  5        2 0.257112028750D-02 0.100000000000D+01
  </mgrwgt>
  </event>
  <event>
  6     66 0.18411016E-05 0.38467308E+02 0.75467711E-02 0.94696600E-01
        2 -1    0    0  502    0 0.00000000E+00 0.00000000E+00 0.13765747E+03 0.13765784E+03 0.32000000E+00 0.0000E+00 0.9000E+01
        2 -1    0    0  501    0 -.00000000E+00 -.00000000E+00 -.28483646E+04 0.28483646E+04 0.32000000E+00 0.0000E+00 0.9000E+01
       25  1    1    2    0    0 0.46513386E+03 -.11249183E+03 -.19432871E+04 0.20052416E+04 0.12500000E+03 0.0000E+00 0.9000E+01
        2  1    1    2  501    0 -.27370171E+02 -.25067396E+02 -.36718879E+03 0.36905991E+03 0.32000000E+00 0.0000E+00 0.9000E+01
        2  1    1    2  503    0 -.23436246E+03 0.45270362E+02 -.22184382E+03 0.32586800E+03 0.32000000E+00 0.0000E+00 0.9000E+01
       21  1    1    2  502  503 -.20340123E+03 0.92288864E+02 -.17838736E+03 0.28585295E+03 0.75000000E+00 0.0000E+00 0.9000E+01
#aMCatNLO 2  0  0  5  5 0.11787934D+03 0.00000000D+00  -5  6  0 0.00000000D+00 0.00000000D+00 0.00000000D+00 0.00000000D+00 0.00000000D+00
  <mgrwgt>
 0.4714932526D-02    1    2    0
 0.626178274745739D+03 0.000000000000000D+00 0.000000000000000D+00 0.626178274745739D+03
 0.626178274745739D+03 -.000000000000000D+00 -.000000000000000D+00 -.626178274745739D+03
 0.576193524837555D+03 0.466135081258360D+03 -.112792947642937D+03 -.293887419000893D+03
 0.853174725512355D+02 -.272376228176424D+02 -.251225437637726D+02 -.768507698114469D+02
 0.590845552102688D+03 -.438897458440717D+03 0.137915491406710D+03 0.370738188812340D+03
 0.000000000000000D+00 0.000000000000000D+00 0.000000000000000D+00 0.000000000000000D+00
 0.626178274745739D+03 0.000000000000000D+00 0.000000000000000D+00 0.626178274745739D+03
 0.626178274745739D+03 -.000000000000000D+00 -.000000000000000D+00 -.626178274745739D+03
 0.574892865929001D+03 0.465135528300935D+03 -.112478856424911D+03 -.293043093188722D+03
 0.852385588022658D+02 -.273857261979911D+02 -.250760049878308D+02 -.767256663779876D+02
 0.296464050731157D+03 -.234112000029765D+03 0.451963718143117D+02 0.176181136313772D+03
 0.295761074029055D+03 -.203637802073179D+03 0.923584895984299D+02 0.193587623252938D+03
0.407536098656D-03 0.000000000000D+00 0.000000000000D+00 0.115856310050D-06 0.281579852490D-09  6 2 2 25 2 2 21 2 0.21178102D-01 0.43820996D+00 0.24689393D+06 0.24689393D+06 0.24689393D+06 0.10908678D+01  1  2  1  3  6  5        2 0.471493252598D-02 0.100000000000D+01
  </mgrwgt>
  </event>
  <event>
  5     66 0.18411016E-05 0.87408744E+02 0.75467711E-02 0.93554071E-01
        2 -1    0    0  502    0 0.00000000E+00 0.00000000E+00 0.27515198E+04 0.27515199E+04 0.32000000E+00 0.0000E+00 0.9000E+01
        2 -1    0    0  501    0 0.00000000E+00 0.00000000E+00 -.45785177E+03 0.45785189E+03 0.32000000E+00 0.0000E+00 0.9000E+01
       25  1    1    2    0    0 0.43294834E+03 0.13381280E+03 0.15064800E+03 0.49362937E+03 0.12500000E+03 0.0000E+00 0.9000E+01
        2  1    1    2  501    0 -.41156864E+03 -.21857083E+03 -.95354010E+02 0.47566211E+03 0.32000000E+00 0.0000E+00 0.9000E+01
        2  1    1    2  502    0 -.21379696E+02 0.84758032E+02 0.22383741E+04 0.22400803E+04 0.32000000E+00 0.0000E+00 0.9000E+01
#aMCatNLO 1  0  0  5  2 0.38999328D+02 0.00000000D+00  -5  6  0 0.00000000D+00 0.00000000D+00 0.00000000D+00 0.00000000D+00 0.00000000D+00
  <mgrwgt>
 0.3490635018D-02    5    2    0
 0.112240297968691D+04 0.000000000000000D+00 0.000000000000000D+00 0.112240297968691D+04
 0.112240297968691D+04 -.000000000000000D+00 -.000000000000000D+00 -.112240297968691D+04
 0.551835228024418D+03 0.432993417291283D+03 0.133835842119067D+03 -.288966757319001D+03
 0.777495033742608D+03 -.411614737813460D+03 -.218589842062911D+03 -.622326534912410D+03
 0.915475697606802D+03 -.213786794778229D+02 0.847539999438438D+02 0.911293292231411D+03
 0.000000000000000D+00 0.000000000000000D+00 -.000000000000000D+00 0.000000000000000D+00
 0.112240297968691D+04 0.000000000000000D+00 0.000000000000000D+00 0.112240297968691D+04
 0.112240297968691D+04 -.000000000000000D+00 -.000000000000000D+00 -.112240297968691D+04
 0.544747140761588D+03 0.432667412115172D+03 0.135128262574994D+03 -.275070373749972D+03
 0.761701171083128D+03 -.412072328546366D+03 -.216775761591232D+03 -.602821150311040D+03
 0.896882928888700D+03 -.283529845152095D+02 0.121058536141908D+03 0.888222904021413D+03
 0.414747186404117D+02 0.775790094640396D+01 -.394110371256702D+02 -.103313799603998D+02
0.341542029759D-02 0.000000000000D+00 0.000000000000D+00 0.474218836742D-05 0.000000000000D+00  6 2 2 25 2 2 21 0 0.42331075D+00 0.70438744D-01 0.26193553D+06 0.26193553D+06 0.26193553D+06 0.10889386D+01  1  2  2  3  6  5        2 0.973046397342D-02 0.100000000000D+01
0.983469540189D-03 0.000000000000D+00 -.131161132436D-04 0.474218836742D-05 0.000000000000D+00  6 2 2 25 2 2 21 2 0.42331075D+00 0.70438744D-01 0.26193553D+06 0.26193553D+06 0.26193553D+06 0.10889386D+01  1  2  3  3  6  5        2 0.332243983351D-02 0.100000000000D+01
-.252137923357D-02 0.000000000000D+00 0.000000000000D+00 0.474218836742D-05 0.000000000000D+00  6 2 2 25 2 2 21 2 0.42331075D+00 0.70438744D-01 0.26193553D+06 0.26193553D+06 0.26193553D+06 0.10889386D+01  1  2 15  3  6  5        2 -.851793620309D-02 0.100000000000D+01
0.116718666200D-08 0.000000000000D+00 0.000000000000D+00 0.474218836742D-05 0.000000000000D+00  6 2 2 25 2 2 21 2 0.42331075D+00 0.70438744D-01 0.30267174D+06 0.30267174D+06 0.30267174D+06 0.10842671D+01  1  2 12  3  6  5        2 0.387033571360D-08 0.100000000000D+01
-.309132187646D-03 0.000000000000D+00 0.000000000000D+00 0.474218836742D-05 0.000000000000D+00  6 2 2 25 2 2 21 2 0.42331075D+00 0.70438744D-01 0.26193553D+06 0.26193553D+06 0.26193553D+06 0.10889386D+01  1  2  4  3  6  5        2 -.104433645587D-02 0.100000000000D+01
  </mgrwgt>
  </event>
  <event>
  6     66 0.18411016E-05 0.19683650E+02 0.75467711E-02 0.90070138E-01
        2 -1    0    0  502    0 0.00000000E+00 0.00000000E+00 0.43917058E+04 0.43917058E+04 0.32000000E+00 0.0000E+00 0.9000E+01
        2 -1    0    0  501    0 0.00000000E+00 0.00000000E+00 -.23003327E+04 0.23003327E+04 0.32000000E+00 0.0000E+00 0.9000E+01
       25  1    1    2    0    0 -.74238377E+03 -.10429172E+03 0.21073699E+03 0.78869861E+03 0.12500000E+03 0.0000E+00 0.9000E+01
        2  1    1    2  501    0 0.95405471E+01 -.19974138E+02 -.19751508E+04 0.19752748E+04 0.32000000E+00 0.0000E+00 0.9000E+01
        2  1    1    2  503    0 0.67003976E+03 0.10869581E+03 0.33436510E+04 0.34118573E+04 0.32000000E+00 0.0000E+00 0.9000E+01
       21  1    1    2  502  503 0.62803460E+02 0.15570051E+02 0.51213585E+03 0.51620770E+03 0.75000000E+00 0.0000E+00 0.9000E+01
#aMCatNLO 2  0  0  5  1 0.20459898D+02 0.00000000D+00  -5  6  0 0.00000000D+00 0.00000000D+00 0.00000000D+00 0.00000000D+00 0.00000000D+00
  <mgrwgt>
 0.2616378745D-01    1    2    0
 0.317842480990276D+04 0.000000000000000D+00 0.000000000000000D+00 0.317842480990276D+04
 0.317842480990276D+04 -.000000000000000D+00 -.000000000000000D+00 -.317842480990276D+04
 0.760982571367983D+03 -.742413922564601D+03 -.104293384567106D+03 -.376022797661079D+02
 0.273010914988599D+04 0.934849292477224D+01 -.200101574018626D+02 -.273001981120504D+04
 0.286575789855155D+04 0.733065429639829D+03 0.124303541968969D+03 0.276762209097115D+04
 0.000000000000000D+00 0.000000000000000D+00 0.000000000000000D+00 0.000000000000000D+00
 0.317842480990276D+04 0.000000000000000D+00 0.000000000000000D+00 0.317842480990276D+04
 0.317842480990276D+04 -.000000000000000D+00 -.000000000000000D+00 -.317842480990276D+04
 0.760918617928488D+03 -.742359948852401D+03 -.104284232418705D+03 -.373985069074010D+02
 0.272937861277254D+04 0.954211181628403D+01 -.199773260705327D+02 -.272928882062806D+04
 0.249165232782002D+04 0.670029557617188D+03 0.108693196700296D+03 0.239741058303356D+04
 0.374900061284480D+03 0.627882794189290D+02 0.155683617889427D+02 0.369276744501906D+03
0.208163818498D+01 0.000000000000D+00 0.000000000000D+00 0.574392043217D-03 0.525509329259D-05  6 2 2 25 2 2 21 2 0.67564704D+00 0.35389733D+00 0.58187628D+06 0.58187628D+06 0.58187628D+06 0.10638866D+01  1  2  1  3  6  5        2 0.261637874504D-01 0.100000000000D+01
  </mgrwgt>
  </event>
  <event>
  5     66 0.18411016E-05 0.40989062E+02 0.75467711E-02 0.83112127E-01
        2 -1    0    0  502    0 0.00000000E+00 0.00000000E+00 0.32490143E+04 0.32490143E+04 0.32000000E+00 0.0000E+00 0.9000E+01
        2 -1    0    0  501    0 0.00000000E+00 0.00000000E+00 -.18936123E+04 0.18936123E+04 0.32000000E+00 0.0000E+00 0.9000E+01
       25  1    1    2    0    0 -.95973767E+03 0.11065924E+04 -.10652871E+04 0.18155178E+04 0.12500000E+03 0.0000E+00 0.9000E+01
        2  1    1    2  501    0 -.19562146E+02 -.36020753E+02 -.26842794E+03 0.27153975E+03 0.32000000E+00 0.0000E+00 0.9000E+01
        2  1    1    2  502    0 0.97929981E+03 -.10705717E+04 0.26891171E+04 0.30555691E+04 0.32000000E+00 0.0000E+00 0.9000E+01
#aMCatNLO 1  0  0  2  5 0.39386928D+02 0.00000000D+00  -5  6  0 0.00000000D+00 0.00000000D+00 0.00000000D+00 0.00000000D+00 0.00000000D+00
  <mgrwgt>
 0.9033276899D-04    7    2    0
 0.248039785603804D+04 0.000000000000000D+00 0.000000000000000D+00 0.248039785603804D+04
 0.248039785603804D+04 0.000000000000000D+00 0.000000000000000D+00 -.248039785603804D+04
 0.217313596895981D+04 -.959739035851464D+03 0.110659266622088D+04 -.160039013797136D+04
 0.354818949312627D+03 -.195615822152364D+02 -.360201018329369D+02 -.352443447316726D+03
 0.243284079380363D+04 0.979300618066700D+03 -.107057256438794D+04 0.195283358528808D+04
 0.000000000000000D+00 0.000000000000000D+00 0.000000000000000D+00 -.000000000000000D+00
 0.248943836277192D+04 0.000000000000000D+00 0.000000000000000D+00 0.248943836277192D+04
 0.402690287953441D+04 0.000000000000000D+00 0.000000000000000D+00 -.402690287953441D+04
 0.217775389505387D+04 -.103067522013968D+04 0.105045086715007D+04 -.160039013797136D+04
 0.356693977474043D+03 -.311619705669257D+02 -.452011238813991D+02 -.352443447316726D+03
 0.243063895585378D+04 0.900007253585750D+03 -.113332857785281D+04 0.195283358528808D+04
 0.155125441392465D+04 0.161829937120855D+03 0.128078834584142D+03 -.153746451676249D+04
0.264455477403D-04 0.000000000000D+00 0.000000000000D+00 0.478352203217D-06 0.000000000000D+00  6 2 2 25 2 2 21 0 0.49984836D+00 0.29132497D+00 0.21934065D+07 0.21934065D+07 0.21934065D+07 0.10258844D+01  1  2  2  2  6  2        2 0.346871308102D-05 0.100000000000D+01
0.120228922410D-04 0.000000000000D+00 -.101557866595D-06 0.478352203217D-06 0.000000000000D+00  6 2 2 25 2 2 21 2 0.49984836D+00 0.29132497D+00 0.21934065D+07 0.21934065D+07 0.21934065D+07 0.10258844D+01  1  2  3  2  6  2        2 0.165966958523D-05 0.100000000000D+01
-.188336896526D-04 0.000000000000D+00 0.000000000000D+00 0.478352203217D-06 0.000000000000D+00  6 2 2 25 2 2 21 2 0.49984836D+00 0.29132497D+00 0.21934065D+07 0.21934065D+07 0.21934065D+07 0.10258844D+01  1  2 15  2  6  2        2 -.259984879407D-05 0.100000000000D+01
-.284840459781D-04 0.000000000000D+00 0.000000000000D+00 0.478352203217D-06 0.000000000000D+00  6 2 2 25 2 2 21 2 0.49984836D+00 0.29132497D+00 0.21934065D+07 0.21934065D+07 0.21934065D+07 0.10258844D+01  1  2  4  2  6  2        2 -.393200769220D-05 0.100000000000D+01
-.942787160728D-03 0.000000000000D+00 -.135988830461D-04 0.478352203217D-06 0.000000000000D+00  6 2 2 25 2 2 21 2 0.49984836D+00 0.47331237D+00 0.21934065D+07 0.21934065D+07 0.21934065D+07 0.10258844D+01  1  2  5  2  6  2        2 -.253709980206D-04 0.100000000000D+01
0.848896275710D-03 0.000000000000D+00 0.121408236207D-04 0.478352203217D-06 0.000000000000D+00  6 2 2 25 2 2 21 2 0.49984836D+00 0.29132497D+00 0.21934065D+07 0.21934065D+07 0.21934065D+07 0.10258844D+01  1  2  6  2  6  2        2 0.117183727639D-03 0.100000000000D+01
-.513316445318D-04 0.000000000000D+00 -.748964510984D-06 0.478352203217D-06 0.000000000000D+00  6 2 21 25 2 2 -2 2 0.49984836D+00 0.47331237D+00 0.21934065D+07 0.21934065D+07 0.21934065D+07 0.10258844D+01  1  2  5  5  6  2        2 -.764868097605D-07 0.100000000000D+01
  </mgrwgt>
  </event>
  <event>
  5     66 -.18411016E-05 0.27466917E+02 0.75467711E-02 0.93781158E-01
        2 -1    0    0  502    0 0.00000000E+00 0.00000000E+00 0.21326994E+04 0.21326994E+04 0.32000000E+00 0.0000E+00 0.9000E+01
        2 -1    0    0  501    0 0.00000000E+00 0.00000000E+00 -.20358322E+03 0.20358347E+03 0.32000000E+00 0.0000E+00 0.9000E+01
       25  1    1    2    0    0 -.43699433E+03 -.25133232E+03 0.12033603E+04 0.13106613E+04 0.12500000E+03 0.0000E+00 0.9000E+01
        2  1    1    2  501    0 -.21425509E+02 -.17180629E+02 -.66373052E+02 0.71831127E+02 0.32000000E+00 0.0000E+00 0.9000E+01
        2  1    1    2  502    0 0.45841984E+03 0.26851295E+03 0.79212893E+03 0.95379049E+03 0.32000000E+00 0.0000E+00 0.9000E+01
#aMCatNLO 1  0  0  5  1 0.55011852D+02 0.00000000D+00  -5  6  0 0.00000000D+00 0.00000000D+00 0.00000000D+00 0.00000000D+00 0.00000000D+00
  <mgrwgt>
 -.8457975441D-02    1    2    0
 0.658924983533827D+03 0.000000000000000D+00 0.000000000000000D+00 0.658924983533827D+03
 0.658924983533827D+03 -.000000000000000D+00 -.000000000000000D+00 -.658924983533827D+03
 0.562001560924837D+03 -.436961389104181D+03 -.251312328115120D+03 0.214773398379446D+03
 0.224551492543527D+03 -.214283848600358D+02 -.171830101631545D+02 -.222865298527045D+03
 0.531296913599289D+03 0.458389773964217D+03 0.268495338278275D+03 0.809190014759852D+01
 0.000000000000000D+00 0.000000000000000D+00 0.000000000000000D+00 0.000000000000000D+00
 0.658924983533827D+03 0.000000000000000D+00 0.000000000000000D+00 0.658924983533827D+03
 0.658924983533827D+03 -.000000000000000D+00 -.000000000000000D+00 -.658924983533827D+03
 0.521151159654121D+03 -.396992864111239D+03 -.227901328900069D+03 0.215478957996304D+03
 0.222755159116965D+03 -.492269111368627D+01 -.751503308849646D+01 -.222573925478935D+03
 0.145791280833595D+03 0.113598840171087D+03 -.756954839779723D+02 -.511917452742591D+02
 0.428152367462972D+03 0.288316715053839D+03 0.311111845966538D+03 0.582867127568902D+02
-.452020837410D-03 0.000000000000D+00 0.000000000000D+00 0.124474513025D-06 0.000000000000D+00  6 2 2 25 2 2 21 2 0.32810762D+00 0.31320517D-01 0.29054588D+06 0.29054588D+06 0.29054588D+06 0.10855822D+01  1  2 14  3  6  5        2 -.845797544059D-02 0.100000000000D+01
  </mgrwgt>
  </event>
  <event>
  5     66 0.18411016E-05 0.85753517E+02 0.75467711E-02 0.80768168E-01
        2 -1    0    0  502    0 0.00000000E+00 0.00000000E+00 0.12454356E+04 0.12454356E+04 0.32000000E+00 0.0000E+00 0.9000E+01
        2 -1    0    0  501    0 0.00000000E+00 0.00000000E+00 -.13554215E+04 0.13554215E+04 0.32000000E+00 0.0000E+00 0.9000E+01
       25  1    1    2    0    0 0.22479658E+03 -.58232095E+03 -.56674774E+03 0.85232575E+03 0.12500000E+03 0.0000E+00 0.9000E+01
        2  1    1    2  501    0 -.14346598E+03 0.60952262E+03 -.49172554E+03 0.79617487E+03 0.32000000E+00 0.0000E+00 0.9000E+01
        2  1    1    2  502    0 -.81330600E+02 -.27201674E+02 0.94848736E+03 0.95235653E+03 0.32000000E+00 0.0000E+00 0.9000E+01
#aMCatNLO 1  0  0  1  5 0.35092054D+03 0.00000000D+00  -5  6  0 0.00000000D+00 0.00000000D+00 0.00000000D+00 0.00000000D+00 0.00000000D+00
  <mgrwgt>
 0.2629150005D-02    3    2    0
 0.129926527618958D+04 0.000000000000000D+00 0.000000000000000D+00 0.129926527618958D+04
 0.129926527618958D+04 0.000000000000000D+00 0.000000000000000D+00 -.129926527618958D+04
 0.829129951136777D+03 0.224813483105912D+03 -.582384355701751D+03 -.531148600600358D+03
 0.776108503788155D+03 -.143488036181243D+03 0.609584305938608D+03 -.458434910405484D+03
 0.993292097454236D+03 -.813254469246696D+02 -.271999502368576D+02 0.989583511005842D+03
 0.000000000000000D+00 0.000000000000000D+00 0.000000000000000D+00 -.000000000000000D+00
 0.188446309503699D+04 0.000000000000000D+00 0.000000000000000D+00 0.188446309503699D+04
 0.429337487103744D+04 0.000000000000000D+00 0.000000000000000D+00 -.429337487103744D+04
 0.119649877358728D+04 -.212475370780482D+03 -.104341731636381D+04 -.531148600600358D+03
 0.706471007593291D+03 -.463544464792443D+03 0.272149309482284D+03 -.458434910405484D+03
 0.126279688645994D+04 -.568365620674153D+03 -.540685650294105D+03 0.989583511005842D+03
 0.301207129843392D+04 0.124438545624708D+04 0.131195365717563D+04 -.240891177600045D+04
0.999358569760D-03 0.000000000000D+00 0.000000000000D+00 0.107986963301D-05 0.000000000000D+00  6 2 2 25 2 2 21 0 0.19160548D+00 0.20852639D+00 0.45472033D+06 0.45472033D+06 0.45472033D+06 0.10714363D+01  1  2  2  1  6  1        2 0.454760694892D-02 0.100000000000D+01
0.353641757446D-03 0.000000000000D+00 -.383780004503D-05 0.107986963301D-05 0.000000000000D+00  6 2 2 25 2 2 21 2 0.19160548D+00 0.20852639D+00 0.45472033D+06 0.45472033D+06 0.45472033D+06 0.10714363D+01  1  2  3  1  6  1        2 0.184738662882D-02 0.100000000000D+01
-.720888371939D-03 0.000000000000D+00 0.000000000000D+00 0.107986963301D-05 0.000000000000D+00  6 2 2 25 2 2 21 2 0.19160548D+00 0.20852639D+00 0.45472033D+06 0.45472033D+06 0.45472033D+06 0.10714363D+01  1  2 15  1  6  1        2 -.376584357235D-02 0.100000000000D+01
  </mgrwgt>
  </event>
  <event>
  5     66 0.18411016E-05 0.70029020E+02 0.75467711E-02 0.92879182E-01
        2 -1    0    0  502    0 0.00000000E+00 0.00000000E+00 0.15618846E+04 0.15618847E+04 0.32000000E+00 0.0000E+00 0.9000E+01
        2 -1    0    0  501    0 0.00000000E+00 0.00000000E+00 -.11046730E+04 0.11046731E+04 0.32000000E+00 0.0000E+00 0.9000E+01
       25  1    1    2    0    0 0.63670727E+02 0.46223319E+03 -.66163286E+03 0.81920482E+03 0.12500000E+03 0.0000E+00 0.9000E+01
        2  1    1    2  501    0 0.52781340E+01 -.69838200E+02 -.33379809E+03 0.34106671E+03 0.32000000E+00 0.0000E+00 0.9000E+01
        2  1    1    2  502    0 -.68948861E+02 -.39239499E+03 0.14526425E+04 0.15062862E+04 0.32000000E+00 0.0000E+00 0.9000E+01
#aMCatNLO 1  0  0  2  2 0.24755073D+03 0.00000000D+00  -5  6  0 0.00000000D+00 0.00000000D+00 0.00000000D+00 0.00000000D+00 0.00000000D+00
  <mgrwgt>
 0.9673566788D-02    7    2    0
 0.131353415050152D+04 0.000000000000000D+00 0.000000000000000D+00 0.131353415050152D+04
 0.131353415050152D+04 0.000000000000000D+00 0.000000000000000D+00 -.131353415050152D+04
 0.946719443323242D+03 0.636713666886439D+02 0.462226826965684D+03 -.814214358669451D+03
 0.404230110335509D+03 0.527784306588705D+01 -.698298502913534D+02 -.398117970559879D+03
 0.127611874734428D+04 -.689492097545310D+02 -.392396976674330D+03 0.121233232922933D+04
 0.000000000000000D+00 -.000000000000000D+00 -.000000000000000D+00 -.000000000000000D+00
 0.134216483490142D+04 0.000000000000000D+00 0.000000000000000D+00 0.134216483490142D+04
 0.199094878252190D+04 0.000000000000000D+00 0.000000000000000D+00 -.199094878252190D+04
 0.984582723335896D+03 0.131001844766872D+03 0.523136343504923D+03 -.814214358669451D+03
 0.401975276707611D+03 0.333843688472752D+02 -.444036993741866D+02 -.398117970559879D+03
 0.125214797477651D+04 0.191930861784446D+02 -.312660358352707D+03 0.121233232922933D+04
 0.694407642603313D+03 -.183579299792592D+03 -.166072285778029D+03 -.648783947620480D+03
0.588340476344D-03 0.000000000000D+00 0.000000000000D+00 0.107181841031D-04 0.000000000000D+00  6 2 2 25 2 2 21 0 0.24028995D+00 0.16994971D+00 0.22632988D+06 0.22632988D+06 0.22632988D+06 0.10937238D+01  1  2  2  2  6  2        2 0.259554796306D-02 0.100000000000D+01
0.763807779088D-04 0.000000000000D+00 -.225938234277D-05 0.107181841031D-04 0.000000000000D+00  6 2 2 25 2 2 21 2 0.24028995D+00 0.16994971D+00 0.22632988D+06 0.22632988D+06 0.22632988D+06 0.10937238D+01  1  2  3  2  6  2        2 0.403087905961D-03 0.100000000000D+01
-.408664953888D-03 0.000000000000D+00 0.000000000000D+00 0.107181841031D-04 0.000000000000D+00  6 2 2 25 2 2 21 2 0.24028995D+00 0.16994971D+00 0.22632988D+06 0.22632988D+06 0.22632988D+06 0.10937238D+01  1  2 15  2  6  2        2 -.215666696533D-02 0.100000000000D+01
-.743037656911D-04 0.000000000000D+00 0.000000000000D+00 0.107181841031D-04 0.000000000000D+00  6 2 2 25 2 2 21 2 0.24028995D+00 0.16994971D+00 0.22632988D+06 0.22632988D+06 0.22632988D+06 0.10937238D+01  1  2  4  2  6  2        2 -.392126790764D-03 0.100000000000D+01
-.358633875946D-02 0.000000000000D+00 -.384716044281D-03 0.107181841031D-04 0.000000000000D+00  6 2 2 25 2 2 21 2 0.24028995D+00 0.25941906D+00 0.22632988D+06 0.22632988D+06 0.22632988D+06 0.10937238D+01  1  2  5  2  6  2        2 -.895320476875D-02 0.100000000000D+01
0.346638671713D-02 0.000000000000D+00 0.352697693629D-03 0.107181841031D-04 0.000000000000D+00  6 2 2 25 2 2 21 2 0.24028995D+00 0.16994971D+00 0.22632988D+06 0.22632988D+06 0.22632988D+06 0.10937238D+01  1  2  6  2  6  2        2 0.182933272129D-01 0.100000000000D+01
-.163744176026D-03 0.000000000000D+00 -.190824979653D-04 0.107181841031D-04 0.000000000000D+00  6 2 21 25 2 2 -2 2 0.24028995D+00 0.25941906D+00 0.22632988D+06 0.22632988D+06 0.22632988D+06 0.10937238D+01  1  2  5  5  6  2        2 -.116397768611D-03 0.100000000000D+01
  </mgrwgt>
  </event>
  <event>
  6     66 -.18411016E-05 0.31662107E+02 0.75467711E-02 0.94751280E-01
        2 -1    0    0  503    0 0.00000000E+00 0.00000000E+00 0.95524455E+03 0.95524461E+03 0.32000000E+00 0.0000E+00 0.9000E+01
        2 -1    0    0  501    0 0.00000000E+00 0.00000000E+00 -.23837716E+04 0.23837716E+04 0.32000000E+00 0.0000E+00 0.9000E+01
       25  1    1    2    0    0 -.19719669E+03 -.41511836E+03 -.93464308E+03 0.10489959E+04 0.12500000E+03 0.0000E+00 0.9000E+01
        2  1    1    2  501    0 0.29995669E+02 -.23049907E+02 -.13287880E+04 0.13293264E+04 0.32000000E+00 0.0000E+00 0.9000E+01
        2  1    1    2  502    0 0.17463825E+03 0.42833118E+03 0.81841148E+03 0.94008701E+03 0.32000000E+00 0.0000E+00 0.9000E+01
       21  1    1    2  503  502 -.74372308E+01 0.98370836E+01 0.16492501E+02 0.20606934E+02 0.75000000E+00 0.0000E+00 0.9000E+01
#aMCatNLO 2  0  0  1  5 0.12332097D+02 0.00000000D+00  -5  6  0 0.00000000D+00 0.00000000D+00 0.00000000D+00 0.00000000D+00 0.00000000D+00
  <mgrwgt>
 -.3209860236D-01    6    2    0
 0.149362032630555D+04 0.000000000000000D+00 0.000000000000000D+00 0.149362032630555D+04
 0.149362032630555D+04 0.000000000000000D+00 0.000000000000000D+00 -.149362032630555D+04
 0.712312457410856D+03 -.198970807765853D+03 -.412772588659503D+03 -.530842203193217D+03
 0.833753551086745D+03 0.279190755607655D+02 -.203034603619153D+02 -.833038581739719D+03
 0.144117464411349D+04 0.171051732205088D+03 0.433076049021419D+03 0.136388078493294D+04
 0.000000000000000D+00 -.000000000000000D+00 0.000000000000000D+00 0.000000000000000D+00
 0.152320738654073D+04 0.000000000000000D+00 0.000000000000000D+00 0.152320738654073D+04
 0.149491863319535D+04 0.000000000000000D+00 0.000000000000000D+00 -.149491863319535D+04
 0.713182430331673D+03 -.197196312405190D+03 -.415119679871429D+03 -.530842203193217D+03
 0.833897024823400D+03 0.299950130022853D+02 -.230492632721457D+02 -.833038581739719D+03
 0.144018665237997D+04 0.174638530233609D+03 0.428331859592516D+03 0.136388078493294D+04
 0.308599122010325D+02 -.743723083070411D+01 0.983708355105931D+01 0.282887533453798D+02
-.436722976777D-10 0.000000000000D+00 0.000000000000D+00 0.974427170100D-04 0.000000000000D+00  6 2 2 25 2 2 21 2 0.14707227D+00 0.36641448D+00 0.24452949D+06 0.24452949D+06 0.24452949D+06 0.10911827D+01  1  2 13  1  6  1        2 -.997788033617D-10 0.100000000000D+01
-.912703607783D-02 0.000000000000D+00 0.000000000000D+00 0.974427170100D-04 0.000000000000D+00  6 2 2 25 2 2 21 2 0.14936395D+00 0.36641448D+00 0.24452949D+06 0.24452949D+06 0.24452949D+06 0.10911827D+01  1  2 13  1  6  1        2 -.204070838479D-01 0.100000000000D+01
-.799754780710D-01 0.000000000000D+00 0.000000000000D+00 0.974427170100D-04 0.000000000000D+00  6 2 2 25 2 2 21 2 0.14410568D+00 0.36641448D+00 0.23771600D+06 0.23771600D+06 0.23771600D+06 0.10921091D+01  1  2  8  1  6  1        2 -.188670095819D+00 0.100000000000D+01
-.784104088527D-02 0.000000000000D+00 0.000000000000D+00 0.974427170100D-04 0.000000000000D+00  6 2 2 25 2 2 21 2 0.14701831D+00 0.36641448D+00 0.23771600D+06 0.23771600D+06 0.23771600D+06 0.10921091D+01  1  2  9  1  6  1        2 -.179928407368D-01 0.100000000000D+01
0.783947132942D-02 0.000000000000D+00 0.000000000000D+00 0.974427170100D-04 0.000000000000D+00  6 2 2 25 2 2 21 2 0.14410568D+00 0.36641448D+00 0.23771600D+06 0.23771600D+06 0.23771600D+06 0.10921091D+01  1  2 10  1  6  1        2 0.184940914712D-01 0.100000000000D+01
0.773699412949D-01 0.000000000000D+00 0.000000000000D+00 0.974427170100D-04 0.287051542954D-05  6 2 2 25 2 2 21 2 0.14696026D+00 0.36673298D+00 0.24452949D+06 0.24452949D+06 0.24452949D+06 0.10911827D+01  1  2  1  1  6  1        2 0.176477326673D+00 0.100000000000D+01
  </mgrwgt>
  </event>
  <event>
  6     66 -.18411016E-05 0.31389783E+02 0.75467711E-02 0.93838394E-01
        2 -1    0    0  503    0 0.00000000E+00 0.00000000E+00 0.20050317E+04 0.20050317E+04 0.32000000E+00 0.0000E+00 0.9000E+01
        2 -1    0    0  501    0 0.00000000E+00 0.00000000E+00 -.13269115E+04 0.13269115E+04 0.32000000E+00 0.0000E+00 0.9000E+01
       25  1    1    2    0    0 -.69364061E+02 -.50340920E+03 0.52433700E+00 0.52331393E+03 0.12500000E+03 0.0000E+00 0.9000E+01
        2  1    1    2  501    0 0.12468338E+02 0.39706881E+02 -.10266531E+04 0.10274963E+04 0.32000000E+00 0.0000E+00 0.9000E+01
        2  1    1    2  502    0 0.63893618E+02 0.48293150E+03 0.15298548E+04 0.16055407E+04 0.32000000E+00 0.0000E+00 0.9000E+01
       21  1    1    2  503  502 -.69978950E+01 -.19229182E+02 0.17439419E+03 0.17559222E+03 0.75000000E+00 0.0000E+00 0.9000E+01
#aMCatNLO 2  0  0  1  5 0.20462942D+02 0.00000000D+00  -5  6  0 0.00000000D+00 0.00000000D+00 0.00000000D+00 0.00000000D+00 0.00000000D+00
  <mgrwgt>
 -.1784569976D-01    6    2    0
 0.155791469650809D+04 0.000000000000000D+00 0.000000000000000D+00 0.155791469650809D+04
 0.155791469650809D+04 0.000000000000000D+00 0.000000000000000D+00 -.155791469650809D+04
 0.533280922077003D+03 -.705577019622824D+02 -.506683892394217D+03 -.840034864356628D+02
 0.120660371103907D+04 0.975896895322490D+01 0.322623841474786D+02 -.120613283538230D+04
 0.137594475990012D+04 0.607987330090575D+02 0.474421508246738D+03 0.129013632181796D+04
 0.000000000000000D+00 -.000000000000000D+00 -.000000000000000D+00 0.000000000000000D+00
 0.170692246892636D+04 0.000000000000000D+00 0.000000000000000D+00 0.170692246892636D+04
 0.155865098553851D+04 0.000000000000000D+00 0.000000000000000D+00 -.155865098553851D+04
 0.530006981815979D+03 -.693636865094417D+02 -.503402914209043D+03 -.840034864356628D+02
 0.120685075522405D+04 0.124691492504849D+02 0.397095594851526D+02 -.120613283538230D+04
 0.137903884955780D+04 0.638924322695983D+02 0.482922537074441D+03 0.129013632181796D+04
 0.149676867867027D+03 -.699789501064151D+01 -.192291823505504D+02 0.148271483387848D+03
-.249124311956D-10 0.000000000000D+00 0.000000000000D+00 0.124711214348D-03 0.000000000000D+00  6 2 2 25 2 2 21 2 0.30854939D+00 0.20404367D+00 0.28757617D+06 0.28757617D+06 0.28757617D+06 0.10859135D+01  1  2 13  1  6  1        2 -.544560948674D-10 0.100000000000D+01
-.164454305181D-01 0.000000000000D+00 0.000000000000D+00 0.124711214348D-03 0.000000000000D+00  6 2 2 25 2 2 21 2 0.31096528D+00 0.20404367D+00 0.28757617D+06 0.28757617D+06 0.28757617D+06 0.10859135D+01  1  2 13  1  6  1        2 -.352418267954D-01 0.100000000000D+01
-.176253843822D-03 0.000000000000D+00 0.000000000000D+00 0.124711214348D-03 0.000000000000D+00  6 2 2 25 2 2 21 2 0.28153831D+00 0.20404367D+00 0.26968841D+06 0.26968841D+06 0.26968841D+06 0.10879910D+01  1  2  8  1  6  1        2 -.484595637747D-03 0.100000000000D+01
-.347987818965D-03 0.000000000000D+00 0.000000000000D+00 0.124711214348D-03 0.000000000000D+00  6 2 2 25 2 2 21 2 0.30851455D+00 0.20404367D+00 0.26968841D+06 0.26968841D+06 0.26968841D+06 0.10879910D+01  1  2  9  1  6  1        2 -.767630511517D-03 0.100000000000D+01
0.346536148057D-03 0.000000000000D+00 0.000000000000D+00 0.124711214348D-03 0.000000000000D+00  6 2 2 25 2 2 21 2 0.28153831D+00 0.20404367D+00 0.26968841D+06 0.26968841D+06 0.26968841D+06 0.10879910D+01  1  2 10  1  6  1        2 0.952773012086D-03 0.100000000000D+01
0.809638392197D-02 0.000000000000D+00 0.000000000000D+00 0.124711214348D-03 0.850376894069D-06  6 2 2 25 2 2 21 2 0.30846623D+00 0.20414011D+00 0.28757617D+06 0.28757617D+06 0.28757617D+06 0.10859135D+01  1  2  1  1  6  1        2 0.176955802301D-01 0.100000000000D+01
  </mgrwgt>
  </event>
  <event>
  5     66 0.18411016E-05 0.62233048E+02 0.75467711E-02 0.93045204E-01
        2 -1    0    0  502    0 0.00000000E+00 0.00000000E+00 0.31291186E+04 0.31291186E+04 0.32000000E+00 0.0000E+00 0.9000E+01
        2 -1    0    0  501    0 0.00000000E+00 0.00000000E+00 -.17705274E+04 0.17705274E+04 0.32000000E+00 0.0000E+00 0.9000E+01
       25  1    1    2    0    0 -.53155030E+03 -.15640730E+03 0.53978616E+03 0.78358347E+03 0.12500000E+03 0.0000E+00 0.9000E+01
        2  1    1    2  501    0 -.23558903E+02 -.57597451E+02 -.16121581E+04 0.16133587E+04 0.32000000E+00 0.0000E+00 0.9000E+01
        2  1    1    2  502    0 0.55510920E+03 0.21400475E+03 0.24309632E+04 0.25027038E+04 0.32000000E+00 0.0000E+00 0.9000E+01
#aMCatNLO 1  0  0  5  1 0.39015758D+03 0.00000000D+00  -5  6  0 0.00000000D+00 0.00000000D+00 0.00000000D+00 0.00000000D+00 0.00000000D+00
  <mgrwgt>
 0.7730936086D-02    4    2    0
 0.235376087744087D+04 0.000000000000000D+00 0.000000000000000D+00 0.235376087744087D+04
 0.235376087744087D+04 -.000000000000000D+00 -.000000000000000D+00 -.235376087744087D+04
 0.659805826406399D+03 -.531533130469299D+03 -.156397739612652D+03 0.335754384658475D+03
 0.214450168543050D+04 -.235602723844316D+02 -.576009191353458D+02 -.214359849936834D+04
 0.190321424304485D+04 0.555093402853731D+03 0.213998658747998D+03 0.180784411470986D+04
 0.000000000000000D+00 0.000000000000000D+00 0.000000000000000D+00 0.000000000000000D+00
 0.235376087744087D+04 0.000000000000000D+00 0.000000000000000D+00 0.235376087744087D+04
 0.235376087744087D+04 -.000000000000000D+00 -.000000000000000D+00 -.235376087744087D+04
 0.669494333807672D+03 -.520201470327561D+03 -.152029177386451D+03 0.372659660404532D+03
 0.202826080831669D+04 0.120105699629591D+02 -.438877088652467D+02 -.202775035982569D+04
 0.458696667915381D+03 0.426361054795807D+03 0.130574884741996D+03 0.107559674528587D+03
 0.155106994484200D+04 0.818298455687952D+02 0.653420015097021D+02 0.154753102489257D+04
0.710414907956D-01 0.000000000000D+00 0.000000000000D+00 0.156071677452D-03 0.000000000000D+00  6 2 2 25 2 2 21 0 0.48140287D+00 0.27238883D+00 0.37524098D+06 0.37524098D+06 0.37524098D+06 0.10774338D+01  1  2  2  3  6  5        2 0.158611561761D-01 0.100000000000D+01
0.362108532183D-01 0.000000000000D+00 -.272818030309D-03 0.156071677452D-03 0.000000000000D+00  6 2 2 25 2 2 21 2 0.48140287D+00 0.27238883D+00 0.37524098D+06 0.37524098D+06 0.37524098D+06 0.10774338D+01  1  2  3  3  6  5        2 0.938518262238D-02 0.100000000000D+01
-.495774948574D-01 0.000000000000D+00 0.000000000000D+00 0.156071677452D-03 0.000000000000D+00  6 2 2 25 2 2 21 2 0.48140287D+00 0.27238883D+00 0.37524098D+06 0.37524098D+06 0.37524098D+06 0.10774338D+01  1  2 15  3  6  5        2 -.128495686194D-01 0.100000000000D+01
-.180021892244D-01 0.000000000000D+00 0.000000000000D+00 0.156071677452D-03 0.000000000000D+00  6 2 2 25 2 2 21 2 0.48140287D+00 0.27238883D+00 0.37524098D+06 0.37524098D+06 0.37524098D+06 0.10774338D+01  1  2  5  3  6  5        2 -.466583409274D-02 0.100000000000D+01
  </mgrwgt>
  </event>
  <event>
  5     66 -.18411016E-05 0.60331143E+02 0.75467711E-02 0.91997643E-01
        2 -1    0    0  502    0 0.00000000E+00 0.00000000E+00 0.34159878E+04 0.34159878E+04 0.32000000E+00 0.0000E+00 0.9000E+01
        2 -1    0    0  501    0 0.00000000E+00 0.00000000E+00 -.21096884E+04 0.21096884E+04 0.32000000E+00 0.0000E+00 0.9000E+01
       25  1    1    2    0    0 -.43496554E+03 0.41149911E+03 0.78798808E+03 0.99753534E+03 0.12500000E+03 0.0000E+00 0.9000E+01
        2  1    1    2  501    0 0.38982841E+03 -.45153400E+03 -.19601674E+04 0.20489279E+04 0.32000000E+00 0.0000E+00 0.9000E+01
        2  1    1    2  502    0 0.45137135E+02 0.40034895E+02 0.24784787E+04 0.24792130E+04 0.32000000E+00 0.0000E+00 0.9000E+01
#aMCatNLO 1  0  0  5  1 0.56315438D+01 0.00000000D+00  -5  6  0 0.00000000D+00 0.00000000D+00 0.00000000D+00 0.00000000D+00 0.00000000D+00
  <mgrwgt>
 -.5052871403D-01    9    2    0
 0.268452413026812D+04 0.000000000000000D+00 0.000000000000000D+00 0.268452413026812D+04
 0.268452413026812D+04 -.000000000000000D+00 -.000000000000000D+00 -.268452413026812D+04
 0.834994384372239D+03 -.434985708608966D+03 0.411525928125418D+03 0.568352413313820D+03
 0.258561702660247D+04 0.389850477044953D+03 -.451559135018475D+03 -.251585499609691D+04
 0.194843684956153D+04 0.451352315640131D+02 0.400332068930562D+02 0.194750258278309D+04
 0.000000000000000D+00 0.000000000000000D+00 0.000000000000000D+00 0.000000000000000D+00
 0.268452413026812D+04 0.000000000000000D+00 0.000000000000000D+00 0.268452413026812D+04
 0.268452413026812D+04 -.000000000000000D+00 -.000000000000000D+00 -.268452413026812D+04
 0.834998021775930D+03 -.434985584405157D+03 0.411526038289399D+03 0.568357772480727D+03
 0.258560087782608D+04 0.389850861648475D+03 -.451558793890007D+03 -.251583840115926D+04
 0.120426851094629D+04 0.276868944339595D+02 0.303695706062883D+02 0.120356710303771D+04
 0.744180849987936D+03 0.174478283227217D+02 0.966318499431896D+01 0.743913525640819D+03
0.136225872268D-03 0.000000000000D+00 0.000000000000D+00 0.320653799004D-03 0.000000000000D+00  6 2 2 25 2 2 21 0 0.52553659D+00 0.32456744D+00 0.40234104D+06 0.40234104D+06 0.40234104D+06 0.10752450D+01  1  2  2  3  6  5        2 0.125781786904D-04 0.100000000000D+01
0.630342158324D-04 0.000000000000D+00 -.523143218605D-06 0.320653799004D-03 0.000000000000D+00  6 2 2 25 2 2 21 2 0.52553659D+00 0.32456744D+00 0.40234104D+06 0.40234104D+06 0.40234104D+06 0.10752450D+01  1  2  3  3  6  5        2 0.672898186664D-05 0.100000000000D+01
-.934075294042D-04 0.000000000000D+00 0.000000000000D+00 0.320653799004D-03 0.000000000000D+00  6 2 2 25 2 2 21 2 0.52553659D+00 0.32456744D+00 0.40234104D+06 0.40234104D+06 0.40234104D+06 0.10752450D+01  1  2 15  3  6  5        2 -.997137131427D-05 0.100000000000D+01
0.358103375507D-10 0.000000000000D+00 0.000000000000D+00 0.320653799004D-03 0.000000000000D+00  6 2 2 25 2 2 21 2 0.52553659D+00 0.32456744D+00 0.40279138D+06 0.40279138D+06 0.40279138D+06 0.10752100D+01  1  2 12  3  6  5        2 0.382202240975D-11 0.100000000000D+01
0.607009878765D+00 0.000000000000D+00 0.000000000000D+00 0.320653799004D-03 0.000000000000D+00  6 2 2 25 2 2 21 2 0.52553659D+00 0.32456744D+00 0.40279138D+06 0.40279138D+06 0.40279138D+06 0.10752100D+01  1  2 12  3  6  5        2 0.647859115067D-01 0.100000000000D+01
-.191096499639D+01 0.000000000000D+00 0.000000000000D+00 0.320653799004D-03 0.000000000000D+00  6 2 2 25 2 2 21 2 0.52553659D+00 0.32456744D+00 0.40234104D+06 0.40234104D+06 0.40234104D+06 0.10752450D+01  1  2  4  3  6  5        2 -.203997918253D+00 0.100000000000D+01
-.925788611735D+00 0.000000000000D+00 0.000000000000D+00 0.320653799004D-03 0.000000000000D+00  6 2 2 25 2 2 21 2 0.52553659D+00 0.32456744D+00 0.40234104D+06 0.40234104D+06 0.40234104D+06 0.10752450D+01  1  2  5  3  6  5        2 -.988290993779D-01 0.100000000000D+01
0.133977954534D+01 0.000000000000D+00 -.000000000000D+00 0.320653799004D-03 0.000000000000D+00  6 2 2 25 2 2 21 2 0.52553659D+00 0.32456744D+00 0.40234104D+06 0.40234104D+06 0.40234104D+06 0.10752450D+01  1  2  6  3  6  5        2 0.143023152535D+00 0.100000000000D+01
0.416753278041D+00 0.000000000000D+00 0.000000000000D+00 0.320653799004D-03 0.358019286180D-04  6 2 2 25 2 2 21 2 0.52553659D+00 0.32456744D+00 0.40279138D+06 0.40279138D+06 0.40279138D+06 0.10752100D+01  1  2 11  3  6  5        2 0.444799037640D-01 0.100000000000D+01
  </mgrwgt>
  </event>
  <event>
  5     66 -.18411016E-05 0.39137310E+02 0.75467711E-02 0.90119317E-01
        2 -1    0    0  502    0 0.00000000E+00 0.00000000E+00 0.18292397E+04 0.18292397E+04 0.32000000E+00 0.0000E+00 0.9000E+01
        2 -1    0    0  501    0 0.00000000E+00 0.00000000E+00 -.89584820E+03 0.89584826E+03 0.32000000E+00 0.0000E+00 0.9000E+01
       25  1    1    2    0    0 0.61237015E+03 0.41343018E+03 0.12880398E+02 0.74947489E+03 0.12500000E+03 0.0000E+00 0.9000E+01
        2  1    1    2  501    0 -.29459691E+02 0.25760899E+02 -.43465281E+03 0.43641112E+03 0.32000000E+00 0.0000E+00 0.9000E+01
        2  1    1    2  502    0 -.58291046E+03 -.43919108E+03 0.13551639E+04 0.15392020E+04 0.32000000E+00 0.0000E+00 0.9000E+01
#aMCatNLO 1  0  0  1  4 0.62031307D+02 0.00000000D+00  -5  6  0 0.00000000D+00 0.00000000D+00 0.00000000D+00 0.00000000D+00 0.00000000D+00
  <mgrwgt>
 -.6002882606D-03    1    2    0
 0.128012546473541D+04 0.000000000000000D+00 0.000000000000000D+00 0.128012546473541D+04
 0.128012546473541D+04 0.000000000000000D+00 0.000000000000000D+00 -.128012546473541D+04
 0.793000465652985D+03 0.612362739288776D+03 0.413421031765785D+03 -.259460333288754D+03
 0.623021624717534D+03 -.294620857956186D+02 0.257626583825555D+02 -.621791135188747D+03
 0.114422883910030D+04 -.582900653493157D+03 -.439183690148341D+03 0.881251468477502D+03
 0.000000000000000D+00 0.000000000000000D+00 0.000000000000000D+00 -.000000000000000D+00
 0.129720008416527D+04 0.000000000000000D+00 0.000000000000000D+00 0.129720008416527D+04
 0.136921331966407D+04 0.000000000000000D+00 0.000000000000000D+00 -.136921331966407D+04
 0.773251928232000D+03 0.589319590029311D+03 0.409482967621218D+03 -.259460333288754D+03
 0.624036793631484D+03 -.478091627938608D+02 0.226271509364670D+02 -.621791135188747D+03
 0.116410317188283D+04 -.616861488462768D+03 -.444987582012576D+03 0.881251468477502D+03
 0.105021510083033D+03 0.753510612273181D+02 0.128774634548906D+02 -.720132354987986D+02
-.132006242091D-03 0.000000000000D+00 0.000000000000D+00 0.393283121887D-05 0.000000000000D+00  6 2 2 25 2 2 21 2 0.28142150D+00 0.13782281D+00 0.57632612D+06 0.57632612D+06 0.57632612D+06 0.10641770D+01  1  2 14  1  6  1        2 -.600288260642D-03 0.100000000000D+01
  </mgrwgt>
  </event>
  <event>
  6     66 0.18411016E-05 0.15282310E+03 0.75467711E-02 0.91615547E-01
        2 -1    0    0  502    0 0.00000000E+00 0.00000000E+00 0.22769008E+04 0.22769008E+04 0.32000000E+00 0.0000E+00 0.9000E+01
        2 -1    0    0  501    0 0.00000000E+00 0.00000000E+00 -.77925356E+03 0.77925363E+03 0.32000000E+00 0.0000E+00 0.9000E+01
       25  1    1    2    0    0 -.29573929E+03 0.34651102E+03 0.60959355E+02 0.47631151E+03 0.12500000E+03 0.0000E+00 0.9000E+01
        2  1    1    2  501    0 0.23814988E+03 0.98660354E+02 -.49474589E+03 0.55787349E+03 0.32000000E+00 0.0000E+00 0.9000E+01
        2  1    1    2  503    0 0.18825871E+03 -.93467191E+02 0.90572077E+03 0.92978905E+03 0.32000000E+00 0.0000E+00 0.9000E+01
       21  1    1    2  502  503 -.13066930E+03 -.35170419E+03 0.10257130E+04 0.10921804E+04 0.75000000E+00 0.0000E+00 0.9000E+01
#aMCatNLO 2  0  0  5  2 0.19669277D+03 0.00000000D+00  -5  6  0 0.00000000D+00 0.00000000D+00 0.00000000D+00 0.00000000D+00 0.00000000D+00
  <mgrwgt>
 0.4317316042D-03    2    2    0
 0.133202222742768D+04 0.000000000000000D+00 0.000000000000000D+00 0.133202222742768D+04
 0.133202222742768D+04 -.000000000000000D+00 -.000000000000000D+00 -.133202222742768D+04
 0.520373523876976D+03 -.296451570270159D+03 0.351326179015367D+03 -.209403884335897D+03
 0.939337301952231D+03 0.237104592907251D+03 0.107431352923124D+03 -.902548881374462D+03
 0.120433362902616D+04 0.593469773629079D+02 -.458757531938490D+03 0.111195276571036D+04
 0.000000000000000D+00 0.000000000000000D+00 -.000000000000000D+00 0.000000000000000D+00
 0.133202222742768D+04 0.000000000000000D+00 0.000000000000000D+00 0.133202222742768D+04
 0.133202222742768D+04 -.000000000000000D+00 -.000000000000000D+00 -.133202222742768D+04
 0.512076356362545D+03 -.295822255936684D+03 0.346461521988726D+03 -.197612756216107D+03
 0.918283005834538D+03 0.238236877493862D+03 0.986786901003929D+02 -.881333867003055D+03
 0.557098952906255D+03 0.188208803100489D+03 -.933410265921161D+02 0.515969129424869D+03
 0.676586139752031D+03 -.130623424657667D+03 -.351799185497003D+03 0.562977493794293D+03
-.269390310893D-09 0.000000000000D+00 0.000000000000D+00 0.611543359307D-06 0.000000000000D+00  6 2 2 25 2 2 21 2 0.35029244D+00 0.11988517D+00 0.43271754D+06 0.43271754D+06 0.43271754D+06 0.10729748D+01  1  2 13  3  6  5        2 -.859634720509D-09 0.100000000000D+01
0.135295306105D-03 0.000000000000D+00 0.000000000000D+00 0.611543359307D-06 0.985116003263D-11  6 2 2 25 2 2 21 2 0.35029244D+00 0.11988517D+00 0.43271754D+06 0.43271754D+06 0.43271754D+06 0.10729748D+01  1  2  1  3  6  5        2 0.431732463817D-03 0.100000000000D+01
  </mgrwgt>
  </event>
  <event>
  5     66 0.18411016E-05 0.12820184E+03 0.75467711E-02 0.88055699E-01
        2 -1    0    0  502    0 0.00000000E+00 0.00000000E+00 0.16756610E+04 0.16756611E+04 0.32000000E+00 0.0000E+00 0.9000E+01
        2 -1    0    0  501    0 0.00000000E+00 0.00000000E+00 -.21238360E+04 0.21238360E+04 0.32000000E+00 0.0000E+00 0.9000E+01
       25  1    1    2    0    0 -.53593115E+03 0.40620342E+03 0.11032460E+04 0.12980755E+04 0.12500000E+03 0.0000E+00 0.9000E+01
        2  1    1    2  501    0 0.46521772E+03 -.29919603E+03 -.19790909E+04 0.20549323E+04 0.32000000E+00 0.0000E+00 0.9000E+01
        2  1    1    2  502    0 0.70713425E+02 -.10700739E+03 0.42766997E+03 0.44648928E+03 0.32000000E+00 0.0000E+00 0.9000E+01
#aMCatNLO 1  0  0  2  4 0.14691807D+03 0.00000000D+00  -5  6  0 0.00000000D+00 0.00000000D+00 0.00000000D+00 0.00000000D+00 0.00000000D+00
  <mgrwgt>
 0.4961319087D-03    7    2    0
 0.188648595536589D+04 0.000000000000000D+00 0.000000000000000D+00 0.188648595536589D+04
 0.188648595536589D+04 0.000000000000000D+00 0.000000000000000D+00 -.188648595536589D+04
 0.143845641324788D+04 -.535938624820957D+03 0.406180719483691D+03 0.126543228438297D+04
 0.183431845180161D+04 0.465258002490304D+03 -.299222965703975D+03 -.174892103610595D+04
 0.500197045682294D+03 0.706806223306536D+02 -.106957753779716D+03 0.483488751722979D+03
 0.000000000000000D+00 -.000000000000000D+00 0.000000000000000D+00 -.000000000000000D+00
 0.196426116620874D+04 0.000000000000000D+00 0.000000000000000D+00 0.196426116620874D+04
 0.248287720865874D+04 0.000000000000000D+00 0.000000000000000D+00 -.248287720865874D+04
 0.137873735486656D+04 -.449587350692087D+03 0.286083976208730D+03 0.126543228438297D+04
 0.189864300891276D+04 0.579678949339977D+03 -.458358811905565D+03 -.174892103610595D+04
 0.516451907732710D+03 0.101842459142441D+03 -.150297416724079D+03 0.483488751722979D+03
 0.653306103355455D+03 -.231934057790331D+03 0.322572252420914D+03 -.518616042449998D+03
0.257864216120D-03 0.000000000000D+00 0.000000000000D+00 0.128031520948D-05 0.000000000000D+00  6 2 2 25 2 2 21 0 0.25779401D+00 0.32674400D+00 0.46605252D+06 0.46605252D+06 0.46605252D+06 0.10706752D+01  1  2  2  2  6  2        2 0.253175337914D-03 0.100000000000D+01
0.188564222965D-04 0.000000000000D+00 -.990266487107D-06 0.128031520948D-05 0.000000000000D+00  6 2 2 25 2 2 21 2 0.25779401D+00 0.32674400D+00 0.46605252D+06 0.46605252D+06 0.46605252D+06 0.10706752D+01  1  2  3  2  6  2        2 0.212229170229D-04 0.100000000000D+01
-.200987013551D-03 0.000000000000D+00 0.000000000000D+00 0.128031520948D-05 0.000000000000D+00  6 2 2 25 2 2 21 2 0.25779401D+00 0.32674400D+00 0.46605252D+06 0.46605252D+06 0.46605252D+06 0.10706752D+01  1  2 15  2  6  2        2 -.226211030078D-03 0.100000000000D+01
-.378233950631D-04 0.000000000000D+00 0.000000000000D+00 0.128031520948D-05 0.000000000000D+00  6 2 2 25 2 2 21 2 0.25779401D+00 0.32674400D+00 0.46605252D+06 0.46605252D+06 0.46605252D+06 0.10706752D+01  1  2  4  2  6  2        2 -.425702586804D-04 0.100000000000D+01
-.665069363535D-03 0.000000000000D+00 -.181047559581D-03 0.128031520948D-05 0.000000000000D+00  6 2 2 25 2 2 21 2 0.25779401D+00 0.43489152D+00 0.46605252D+06 0.46605252D+06 0.46605252D+06 0.10706752D+01  1  2  5  2  6  2        2 -.291391614862D-03 0.100000000000D+01
0.695373219362D-03 0.000000000000D+00 0.173891199692D-03 0.128031520948D-05 0.000000000000D+00  6 2 2 25 2 2 21 2 0.25779401D+00 0.32674400D+00 0.46605252D+06 0.46605252D+06 0.46605252D+06 0.10706752D+01  1  2  6  2  6  2        2 0.782643064650D-03 0.100000000000D+01
-.210638251301D-04 0.000000000000D+00 -.675909581388D-05 0.128031520948D-05 0.000000000000D+00  6 2 21 25 2 2 -2 2 0.25779401D+00 0.43489152D+00 0.46605252D+06 0.46605252D+06 0.46605252D+06 0.10706752D+01  1  2  5  5  6  2        2 -.736507310491D-06 0.100000000000D+01
  </mgrwgt>
  </event>
  <event>
  6     66 0.18411016E-05 0.79147555E+02 0.75467711E-02 0.91820199E-01
        2 -1    0    0  502    0 0.00000000E+00 0.00000000E+00 0.28859164E+04 0.28859164E+04 0.32000000E+00 0.0000E+00 0.9000E+01
        2 -1    0    0  501    0 0.00000000E+00 0.00000000E+00 -.17914606E+04 0.17914606E+04 0.32000000E+00 0.0000E+00 0.9000E+01
       25  1    1    2    0    0 0.21840731E+03 0.58323730E+03 -.15918894E+03 0.65485389E+03 0.12500000E+03 0.0000E+00 0.9000E+01
        2  1    1    2  501    0 -.22957121E+01 -.38091943E+02 -.13453888E+04 0.13459299E+04 0.32000000E+00 0.0000E+00 0.9000E+01
        2  1    1    2  503    0 -.25199160E+03 -.45372730E+03 0.18596808E+04 0.19307463E+04 0.32000000E+00 0.0000E+00 0.9000E+01
       21  1    1    2  502  503 0.35880003E+02 -.91418055E+02 0.73935269E+03 0.74584690E+03 0.75000000E+00 0.0000E+00 0.9000E+01
#aMCatNLO 2  0  0  5  1 0.13803759D+01 0.00000000D+00  -5  6  0 0.00000000D+00 0.00000000D+00 0.00000000D+00 0.00000000D+00 0.00000000D+00
  <mgrwgt>
 0.1174437406D-01    1    2    0
 0.227376460373154D+04 0.000000000000000D+00 0.000000000000000D+00 0.227376460373154D+04
 0.227376460373154D+04 -.000000000000000D+00 -.000000000000000D+00 -.227376460373154D+04
 0.713383192006633D+03 0.218648634790302D+03 0.583852846973836D+03 -.323418005408569D+03
 0.171387897891310D+04 -.170232121459638D+01 -.366019143373702D+02 -.171348725012167D+04
 0.212026703654334D+04 -.216946313575706D+03 -.547250932636465D+03 0.203690525553024D+04
 0.000000000000000D+00 0.000000000000000D+00 0.000000000000000D+00 0.000000000000000D+00
 0.227376460373154D+04 0.000000000000000D+00 0.000000000000000D+00 0.227376460373154D+04
 0.227376460373154D+04 -.000000000000000D+00 -.000000000000000D+00 -.227376460373154D+04
 0.711746116704835D+03 0.218401290185529D+03 0.583228915811264D+03 -.321095691112988D+03
 0.170833705154642D+04 -.229627901641094D+01 -.381001834512001D+02 -.170791059040278D+04
 0.153810596398253D+04 -.251984333128192D+03 -.453683435896630D+03 0.144791062993873D+04
 0.589340075229291D+03 0.358793219590744D+02 -.914452964634328D+02 0.581095651577034D+03
0.331448417045D-01 0.000000000000D+00 0.000000000000D+00 0.280143826897D-03 0.193224225203D-06  6 2 2 25 2 2 21 2 0.44398714D+00 0.27560932D+00 0.41639109D+06 0.41639109D+06 0.41639109D+06 0.10741725D+01  1  2  1  3  6  5        2 0.117443740604D-01 0.100000000000D+01
  </mgrwgt>
  </event>
  <event>
  5     66 0.18411016E-05 0.70991396E+02 0.75467711E-02 0.90856238E-01
        2 -1    0    0  502    0 0.00000000E+00 0.00000000E+00 0.26162855E+04 0.26162856E+04 0.32000000E+00 0.0000E+00 0.9000E+01
        2 -1    0    0  501    0 0.00000000E+00 0.00000000E+00 -.11112163E+04 0.11112163E+04 0.32000000E+00 0.0000E+00 0.9000E+01
       25  1    1    2    0    0 -.42964248E+03 -.24994821E+03 0.48688310E+03 0.70692780E+03 0.12500000E+03 0.0000E+00 0.9000E+01
        2  1    1    2  501    0 0.37254123E+03 0.29213566E+03 -.94455050E+03 0.10565538E+04 0.32000000E+00 0.0000E+00 0.9000E+01
        2  1    1    2  502    0 0.57101249E+02 -.42187448E+02 0.19627367E+04 0.19640203E+04 0.32000000E+00 0.0000E+00 0.9000E+01
#aMCatNLO 1  0  0  5  1 0.13803759D+01 0.00000000D+00  -5  6  0 0.00000000D+00 0.00000000D+00 0.00000000D+00 0.00000000D+00 0.00000000D+00
  <mgrwgt>
 0.9629071414D-02    4    2    0
 0.170506867901696D+04 0.000000000000000D+00 0.000000000000000D+00 0.170506867901696D+04
 0.170506867901696D+04 -.000000000000000D+00 -.000000000000000D+00 -.170506867901696D+04
 0.557892310201957D+03 -.429671304443537D+03 -.249974568079852D+03 0.220259200111043D+03
 0.157177049940169D+04 0.372573199622173D+03 0.292159693162922D+03 -.149876430014986D+04
 0.128047454843028D+04 0.570981048213645D+02 -.421851250830695D+02 0.127850510003881D+04
 0.000000000000000D+00 -.000000000000000D+00 0.000000000000000D+00 0.000000000000000D+00
 0.170506867901696D+04 0.000000000000000D+00 0.000000000000000D+00 0.170506867901696D+04
 0.170506867901696D+04 -.000000000000000D+00 -.000000000000000D+00 -.170506867901696D+04
 0.666236967716267D+03 -.420267280011208D+03 -.256922433481045D+03 0.430828241504575D+03
 0.113901495858260D+04 0.393398036620630D+03 0.276773922367851D+03 -.103246755714408D+04
 0.109466821690216D+04 0.225302160073645D+03 0.867299345062420D+00 0.107123138936168D+04
 0.510217214832899D+03 -.198432916683067D+03 -.207187882318681D+02 -.469592073722177D+03
0.134680736007D-01 0.000000000000D+00 0.000000000000D+00 0.889412713796D-04 0.000000000000D+00  6 2 2 25 2 2 21 0 0.40250547D+00 0.17095636D+00 0.27932651D+06 0.27932651D+06 0.27932651D+06 0.10868535D+01  1  2  2  3  6  5        2 0.150340056728D-01 0.100000000000D+01
0.485885198106D-02 0.000000000000D+00 -.517209488518D-04 0.889412713796D-04 0.000000000000D+00  6 2 2 25 2 2 21 2 0.40250547D+00 0.17095636D+00 0.27932651D+06 0.27932651D+06 0.27932651D+06 0.10868535D+01  1  2  3  3  6  5        2 0.640685571829D-02 0.100000000000D+01
-.867736405931D-02 0.000000000000D+00 0.000000000000D+00 0.889412713796D-04 0.000000000000D+00  6 2 2 25 2 2 21 2 0.40250547D+00 0.17095636D+00 0.27932651D+06 0.27932651D+06 0.27932651D+06 0.10868535D+01  1  2 15  3  6  5        2 -.114419249156D-01 0.100000000000D+01
-.280499463016D-03 0.000000000000D+00 0.000000000000D+00 0.889412713796D-04 0.000000000000D+00  6 2 2 25 2 2 21 2 0.40250547D+00 0.17095636D+00 0.27932651D+06 0.27932651D+06 0.27932651D+06 0.10868535D+01  1  2  4  3  6  5        2 -.369865061872D-03 0.100000000000D+01
  </mgrwgt>
  </event>
  <event>
  5     66 0.18411016E-05 0.68287815E+02 0.75467711E-02 0.93589361E-01
        2 -1    0    0  502    0 0.00000000E+00 0.00000000E+00 0.67704292E+03 0.67704300E+03 0.32000000E+00 0.0000E+00 0.9000E+01
        2 -1    0    0  501    0 0.00000000E+00 0.00000000E+00 -.41993687E+04 0.41993688E+04 0.32000000E+00 0.0000E+00 0.9000E+01
       25  1    1    2    0    0 -.24673830E+03 -.40223744E+03 -.13559421E+04 0.14411380E+04 0.12500000E+03 0.0000E+00 0.9000E+01
        2  1    1    2  501    0 -.67071848E+02 0.12826842E+02 -.27017727E+04 0.27026355E+04 0.32000000E+00 0.0000E+00 0.9000E+01
        2  1    1    2  502    0 0.31381014E+03 0.38941060E+03 0.53538891E+03 0.73263826E+03 0.32000000E+00 0.0000E+00 0.9000E+01
#aMCatNLO 1  0  0  2  5 0.30623503D+02 0.00000000D+00  -5  6  0 0.00000000D+00 0.00000000D+00 0.00000000D+00 0.00000000D+00 0.00000000D+00
  <mgrwgt>
 0.5042187525D-01    9    2    0
 0.168616520612203D+04 0.000000000000000D+00 0.000000000000000D+00 0.168616520612203D+04
 0.168616520612203D+04 0.000000000000000D+00 0.000000000000000D+00 -.168616520612203D+04
 0.667637945101495D+03 -.246737666294656D+03 -.402237435579880D+03 -.455456908158099D+03
 0.108609168619555D+04 -.670722898602352D+02 0.128270667072364D+02 -.108394276837649D+04
 0.161860078094701D+04 0.313809956154892D+03 0.389410368872644D+03 0.153939967653459D+04
 0.000000000000000D+00 0.000000000000000D+00 -.000000000000000D+00 -.000000000000000D+00
 0.168707820671180D+04 0.000000000000000D+00 0.000000000000000D+00 0.168707820671180D+04
 0.196418988632675D+04 0.000000000000000D+00 0.000000000000000D+00 -.196418988632675D+04
 0.664648090116517D+03 -.248171624746529D+03 -.396360862317745D+03 -.455456908158099D+03
 0.108639401018073D+04 -.694105671847302D+02 0.224096721074406D+02 -.108394276837649D+04
 0.162142735224215D+04 0.310322667687493D+03 0.403701791429625D+03 0.153939967653459D+04
 0.278798640499152D+03 0.725952424376665D+01 -.297506012193211D+02 -.277111679614950D+03
0.344005663186D-02 0.000000000000D+00 0.000000000000D+00 0.620845863356D-04 0.000000000000D+00  6 2 2 25 2 2 21 0 0.10416046D+00 0.64605674D+00 0.27908195D+06 0.27908195D+06 0.27908195D+06 0.10868819D+01  1  2  2  2  6  2        2 0.567734964802D-03 0.100000000000D+01
0.110285276428D-02 0.000000000000D+00 -.132107232540D-04 0.620845863356D-04 0.000000000000D+00  6 2 2 25 2 2 21 2 0.10416046D+00 0.64605674D+00 0.27908195D+06 0.27908195D+06 0.27908195D+06 0.10868819D+01  1  2  3  2  6  2        2 0.215011788124D-03 0.100000000000D+01
-.256646029502D-02 0.000000000000D+00 0.000000000000D+00 0.620845863356D-04 0.000000000000D+00  6 2 2 25 2 2 21 2 0.10416046D+00 0.64605674D+00 0.27908195D+06 0.27908195D+06 0.27908195D+06 0.10868819D+01  1  2 15  2  6  2        2 -.500356198990D-03 0.100000000000D+01
0.691809119017D-09 0.000000000000D+00 0.000000000000D+00 0.620845863356D-04 0.000000000000D+00  6 2 2 25 2 2 21 2 0.10416046D+00 0.75275224D+00 0.30075071D+06 0.30075071D+06 0.30075071D+06 0.10844716D+01  1  2 12  2  6  2        2 0.257950669156D-10 0.100000000000D+01
-.304374323981D-01 0.000000000000D+00 0.000000000000D+00 0.620845863356D-04 0.000000000000D+00  6 2 2 25 2 2 21 2 0.10416046D+00 0.64605674D+00 0.27908195D+06 0.27908195D+06 0.27908195D+06 0.10868819D+01  1  2  4  2  6  2        2 -.593407114509D-02 0.100000000000D+01
-.309316875228D+00 0.000000000000D+00 -.216681062089D-02 0.620845863356D-04 0.000000000000D+00  6 2 2 25 2 2 21 2 0.10416046D+00 0.75262891D+00 0.27908195D+06 0.27908195D+06 0.27908195D+06 0.10868819D+01  1  2  5  2  6  2        2 -.117234060375D-01 0.100000000000D+01
0.347759132120D+00 0.000000000000D+00 0.243781562620D-02 0.620845863356D-04 0.000000000000D+00  6 2 2 25 2 2 21 2 0.10416046D+00 0.64605674D+00 0.27908195D+06 0.27908195D+06 0.27908195D+06 0.10868819D+01  1  2  6  2  6  2        2 0.677989984296D-01 0.100000000000D+01
0.160226018500D-10 0.000000000000D+00 0.000000000000D+00 0.620845863356D-04 0.000000000000D+00  6 2 21 25 2 2 -2 2 0.10416046D+00 0.75275224D+00 0.30075071D+06 0.30075071D+06 0.30075071D+06 0.10844716D+01  1  2 12  5  6  2        2 0.448263963154D-14 0.100000000000D+01
-.714219237748D-02 0.000000000000D+00 -.501408741718D-04 0.620845863356D-04 0.000000000000D+00  6 2 21 25 2 2 -2 2 0.10416046D+00 0.75262891D+00 0.27908195D+06 0.27908195D+06 0.27908195D+06 0.10868819D+01  1  2  5  5  6  2        2 -.203657360509D-05 0.100000000000D+01
  </mgrwgt>
  </event>
  <event>
  6     66 0.18411016E-05 0.15364700E+03 0.75467711E-02 0.94190888E-01
        2 -1    0    0  502    0 0.00000000E+00 0.00000000E+00 0.36222687E+03 0.36222701E+03 0.32000000E+00 0.0000E+00 0.9000E+01
        2 -1    0    0  503    0 0.00000000E+00 0.00000000E+00 -.20141283E+04 0.20141283E+04 0.32000000E+00 0.0000E+00 0.9000E+01
       25  1    1    2    0    0 -.86911208E+02 0.46579968E+03 -.67765759E+03 0.83628207E+03 0.12500000E+03 0.0000E+00 0.9000E+01
        2  1    1    2  501    0 -.16293621E+01 -.33027136E+03 -.58708407E+03 0.67360941E+03 0.32000000E+00 0.0000E+00 0.9000E+01
        2  1    1    2  502    0 -.40203484E+02 -.16459182E+02 0.22527023E+03 0.22942102E+03 0.32000000E+00 0.0000E+00 0.9000E+01
       21  1    1    2  503  501 0.12874405E+03 -.11906914E+03 -.61242998E+03 0.63704281E+03 0.75000000E+00 0.0000E+00 0.9000E+01
#aMCatNLO 2  0  0  2  1 0.99992492D+03 0.00000000D+00  -5  6  0 0.00000000D+00 0.00000000D+00 0.00000000D+00 0.00000000D+00 0.00000000D+00
  <mgrwgt>
 0.4415161891D-02    1    2    0
 0.691728745276942D+03 0.000000000000000D+00 0.000000000000000D+00 0.691728745276942D+03
 0.691728745276942D+03 0.000000000000000D+00 0.000000000000000D+00 -.691728745276942D+03
 0.494080130256413D+03 -.390921692646813D+02 0.421637675897737D+03 -.221773866088705D+03
 0.434099010120475D+03 0.371492682808580D+02 -.366209749760793D+03 -.230113671114757D+03
 0.455278350176995D+03 0.194290098382322D+01 -.554279261369433D+02 0.451887537203463D+03
 0.000000000000000D+00 0.000000000000000D+00 -.000000000000000D+00 -.000000000000000D+00
 0.721785560166363D+03 0.000000000000000D+00 0.000000000000000D+00 0.721785560166363D+03
 0.101078601742375D+04 0.000000000000000D+00 0.000000000000000D+00 -.101078601742375D+04
 0.537960353396505D+03 -.869214676290842D+02 0.465872678541861D+03 -.221773866088705D+03
 0.402597123082590D+03 -.162691310852443D+01 -.330347536746083D+03 -.230113671114757D+03
 0.453970085282328D+03 -.401956734188220D+02 -.164559985974853D+02 0.451887537203463D+03
 0.338044015828690D+03 0.128744054156431D+03 -.119069143198293D+03 -.289000457257386D+03
0.383580227234D-03 0.000000000000D+00 0.000000000000D+00 0.112120592413D-05 0.586380824120D-09  6 2 2 25 2 2 21 2 0.55727192D-01 0.30986573D+00 0.27002016D+06 0.27002016D+06 0.27002016D+06 0.10879511D+01  1  2  1  2  6  2        2 0.441516189077D-02 0.100000000000D+01
  </mgrwgt>
  </event>
  <event>
  6     66 0.18411016E-05 0.21382250E+03 0.75467711E-02 0.91653709E-01
        2 -1    0    0  502    0 0.00000000E+00 0.00000000E+00 0.44494549E+04 0.44494549E+04 0.32000000E+00 0.0000E+00 0.9000E+01
        2 -1    0    0  503    0 0.00000000E+00 0.00000000E+00 -.58817030E+03 0.58817038E+03 0.32000000E+00 0.0000E+00 0.9000E+01
       25  1    1    2    0    0 0.23635036E+03 -.50363323E+03 0.54465705E+03 0.78853296E+03 0.12500000E+03 0.0000E+00 0.9000E+01
        2  1    1    2  501    0 -.37700106E+03 0.30104183E+03 -.25893249E+03 0.54754189E+03 0.32000000E+00 0.0000E+00 0.9000E+01
        2  1    1    2  502    0 -.76002748E+01 0.28573748E+02 0.34308806E+04 0.34310080E+04 0.32000000E+00 0.0000E+00 0.9000E+01
       21  1    1    2  503  501 0.14825098E+03 0.17401765E+03 0.14467942E+03 0.27054241E+03 0.75000000E+00 0.0000E+00 0.9000E+01
#aMCatNLO 2  0  0  2  2 0.22860555D+03 0.00000000D+00  -5  6  0 0.00000000D+00 0.00000000D+00 0.00000000D+00 0.00000000D+00 0.00000000D+00
  <mgrwgt>
 0.2846983327D-03    1    2    0
 0.148825944320950D+04 0.000000000000000D+00 0.000000000000000D+00 0.148825944320950D+04
 0.148825944320950D+04 0.000000000000000D+00 0.000000000000000D+00 -.148825944320950D+04
 0.565161768727872D+03 0.264882216009071D+03 -.470207635770545D+03 -.111915216734879D+03
 0.119907722730884D+04 -.317452737015794D+03 0.371006623487924D+03 -.109515480282010D+04
 0.121227989038228D+04 0.525705210067232D+02 0.992010122826213D+02 0.120707001955498D+04
 0.000000000000000D+00 0.000000000000000D+00 0.000000000000000D+00 -.000000000000000D+00
 0.156569705854467D+04 0.000000000000000D+00 0.000000000000000D+00 0.156569705854467D+04
 0.167148275111590D+04 0.000000000000000D+00 0.000000000000000D+00 -.167148275111590D+04
 0.581123207849596D+03 0.236377776558068D+03 -.503666272162485D+03 -.111915216734879D+03
 0.119672950260134D+04 -.377028784215619D+03 0.301075997265495D+03 -.109515480282010D+04
 0.120743206286489D+04 -.759997260485412D+01 0.285726222476637D+02 0.120707001955498D+04
 0.251895036344746D+03 0.148250980262405D+03 0.174017652649326D+03 -.105785692571233D+03
0.226521474498D-02 0.000000000000D+00 0.000000000000D+00 0.124586250476D-04 0.525457141683D-09  6 2 2 25 2 2 21 2 0.68453129D+00 0.90487714D-01 0.42961953D+06 0.42961953D+06 0.42961953D+06 0.10731982D+01  1  2  1  2  6  2        2 0.284698332706D-03 0.100000000000D+01
  </mgrwgt>
  </event>
  <event>
  5     66 0.18411016E-05 0.48663294E+02 0.75467711E-02 0.91740584E-01
        2 -1    0    0  502    0 0.00000000E+00 0.00000000E+00 0.24928824E+04 0.24928824E+04 0.32000000E+00 0.0000E+00 0.9000E+01
        2 -1    0    0  501    0 0.00000000E+00 0.00000000E+00 -.50880754E+03 0.50880764E+03 0.32000000E+00 0.0000E+00 0.9000E+01
       25  1    1    2    0    0 -.58302245E+03 0.63037293E+02 0.73128159E+03 0.94566730E+03 0.12500000E+03 0.0000E+00 0.9000E+01
        2  1    1    2  501    0 0.59343086E+03 -.11058415E+03 -.17413765E+03 0.62826193E+03 0.32000000E+00 0.0000E+00 0.9000E+01
        2  1    1    2  502    0 -.10408407E+02 0.47546854E+02 0.14269309E+04 0.14277608E+04 0.32000000E+00 0.0000E+00 0.9000E+01
#aMCatNLO 1  0  0  1  2 0.52220725D+02 0.00000000D+00  -5  6  0 0.00000000D+00 0.00000000D+00 0.00000000D+00 0.00000000D+00 0.00000000D+00
  <mgrwgt>
 0.3314175954D-01    7    2    0
 0.112623156987563D+04 0.000000000000000D+00 0.000000000000000D+00 0.112623156987563D+04
 0.112623156987563D+04 0.000000000000000D+00 0.000000000000000D+00 -.112623156987563D+04
 0.616173665388795D+03 -.583102565412063D+03 0.630579340657367D+02 0.141633615642244D+03
 0.990652077437996D+03 0.593508946386520D+03 -.110595533709068D+03 -.785434463857416D+03
 0.645637396924474D+03 -.104063809744577D+02 0.475375996433311D+02 0.643800848215172D+03
 0.000000000000000D+00 -.000000000000000D+00 0.000000000000000D+00 0.000000000000000D+00
 0.115433262530420D+04 0.000000000000000D+00 0.000000000000000D+00 0.115433262530420D+04
 0.115105900393956D+04 0.000000000000000D+00 0.000000000000000D+00 -.115105900393956D+04
 0.606239253255612D+03 -.573659461161373D+03 0.524954638808922D+02 0.141633615642244D+03
 0.100200068161218D+04 0.608902131006986D+03 -.127813394413253D+03 -.785434463857416D+03
 0.644828461788139D+03 -.437569740613027D+00 0.363871062631341D+02 0.643800848215172D+03
 0.523232325878243D+02 -.348051001050003D+02 0.389308242692266D+02 0.327362136464517D+01
0.202781100727D-02 0.000000000000D+00 0.000000000000D+00 0.497277919464D-05 0.000000000000D+00  6 2 2 25 2 2 21 0 0.38352038D+00 0.78278093D-01 0.39191571D+06 0.39191571D+06 0.39191571D+06 0.10760674D+01  1  2  2  1  6  1        2 0.709670008189D-02 0.100000000000D+01
0.926716455025D-03 0.000000000000D+00 -.778732820282D-05 0.497277919464D-05 0.000000000000D+00  6 2 2 25 2 2 21 2 0.38352038D+00 0.78278093D-01 0.39191571D+06 0.39191571D+06 0.39191571D+06 0.10760674D+01  1  2  3  1  6  1        2 0.375538816569D-02 0.100000000000D+01
-.130754655758D-02 0.000000000000D+00 0.000000000000D+00 0.497277919464D-05 0.000000000000D+00  6 2 2 25 2 2 21 2 0.38352038D+00 0.78278093D-01 0.39191571D+06 0.39191571D+06 0.39191571D+06 0.10760674D+01  1  2 15  1  6  1        2 -.529864862308D-02 0.100000000000D+01
-.109327339340D-03 0.000000000000D+00 0.000000000000D+00 0.497277919464D-05 0.000000000000D+00  6 2 2 25 2 2 21 2 0.38352038D+00 0.78278093D-01 0.39191571D+06 0.39191571D+06 0.39191571D+06 0.10760674D+01  1  2  4  1  6  1        2 -.443033674560D-03 0.100000000000D+01
-.607132182803D-01 0.000000000000D+00 -.101779967581D-01 0.497277919464D-05 0.000000000000D+00  6 2 2 25 2 2 21 2 0.39674723D+00 0.78278093D-01 0.39191571D+06 0.39191571D+06 0.39191571D+06 0.10760674D+01  1  2  5  1  6  1        2 -.219141890366D+00 0.100000000000D+01
0.610290827746D-01 0.000000000000D+00 0.101721489517D-01 0.497277919464D-05 0.000000000000D+00  6 2 2 25 2 2 21 2 0.38352038D+00 0.78278093D-01 0.39191571D+06 0.39191571D+06 0.39191571D+06 0.10760674D+01  1  2  6  1  6  1        2 0.247311779101D+00 0.100000000000D+01
-.362881986642D-03 0.000000000000D+00 -.615385404998D-04 0.497277919464D-05 0.000000000000D+00  6 21 2 25 2 2 -2 2 0.39674723D+00 0.78278093D-01 0.39191571D+06 0.39191571D+06 0.39191571D+06 0.10760674D+01  1  2  5  4  6  1        2 -.138535147792D-03 0.100000000000D+01
  </mgrwgt>
  </event>
  <event>
  5     66 0.18411016E-05 0.41210037E+02 0.75467711E-02 0.88946230E-01
        2 -1    0    0  502    0 0.00000000E+00 0.00000000E+00 0.12523944E+04 0.12523944E+04 0.32000000E+00 0.0000E+00 0.9000E+01
        2 -1    0    0  501    0 0.00000000E+00 0.00000000E+00 -.24633639E+04 0.24633639E+04 0.32000000E+00 0.0000E+00 0.9000E+01
       25  1    1    2    0    0 0.52832310E+03 -.10994813E+02 -.39688328E+03 0.67259760E+03 0.12500000E+03 0.0000E+00 0.9000E+01
        2  1    1    2  501    0 0.36960434E+02 0.18221311E+02 -.18566917E+04 0.18571490E+04 0.32000000E+00 0.0000E+00 0.9000E+01
        2  1    1    2  502    0 -.56528354E+03 -.72264983E+01 0.10426054E+04 0.11860118E+04 0.32000000E+00 0.0000E+00 0.9000E+01
#aMCatNLO 1  0  0  1  2 0.52220725D+02 0.00000000D+00  -5  6  0 0.00000000D+00 0.00000000D+00 0.00000000D+00 0.00000000D+00 0.00000000D+00
  <mgrwgt>
 0.2483216161D-01    7    2    0
 0.175644617642611D+04 0.000000000000000D+00 0.000000000000000D+00 0.175644617642611D+04
 0.175644617642611D+04 0.000000000000000D+00 0.000000000000000D+00 -.175644617642611D+04
 0.574601212422639D+03 0.528315909390677D+03 -.109958768315526D+02 -.187890776503198D+03
 0.132439500275007D+04 0.369623415802075D+02 0.182223076066505D+02 -.132375369919021D+04
 0.161389613767951D+04 -.565278250970884D+03 -.722643077509784D+01 0.151164447569340D+04
 0.000000000000000D+00 -.000000000000000D+00 0.000000000000000D+00 0.000000000000000D+00
 0.229429895196906D+04 0.000000000000000D+00 0.000000000000000D+00 0.229429895196906D+04
 0.186905155893016D+04 0.000000000000000D+00 0.000000000000000D+00 -.186905155893016D+04
 0.620224519295022D+03 0.573036534956078D+03 -.733460295128375D+02 -.187890776503198D+03
 0.133623255405980D+04 0.136545841984097D+03 -.120618470585034D+03 -.132375369919021D+04
 0.158552969149193D+04 -.445528298544800D+03 -.174183572428308D+03 0.151164447569340D+04
 0.621363746052469D+03 -.264054078395375D+03 0.368148072526180D+03 0.425247393038905D+03
0.120862524010D-01 0.000000000000D+00 0.000000000000D+00 0.990841976305D-04 0.000000000000D+00  6 2 2 25 2 2 21 0 0.19267606D+00 0.37897907D+00 0.33036511D+06 0.33036511D+06 0.33036511D+06 0.10814675D+01  1  2  2  1  6  1        2 0.135093981327D-01 0.100000000000D+01
0.707898908415D-02 0.000000000000D+00 -.464143916032D-04 0.990841976305D-04 0.000000000000D+00  6 2 2 25 2 2 21 2 0.19267606D+00 0.37897907D+00 0.33036511D+06 0.33036511D+06 0.33036511D+06 0.10814675D+01  1  2  3  1  6  1        2 0.925427692266D-02 0.100000000000D+01
-.854094508944D-02 0.000000000000D+00 0.000000000000D+00 0.990841976305D-04 0.000000000000D+00  6 2 2 25 2 2 21 2 0.19267606D+00 0.37897907D+00 0.33036511D+06 0.33036511D+06 0.33036511D+06 0.10814675D+01  1  2 15  1  6  1        2 -.111654743494D-01 0.100000000000D+01
-.209250047885D-02 0.000000000000D+00 0.000000000000D+00 0.990841976305D-04 0.000000000000D+00  6 2 2 25 2 2 21 2 0.19267606D+00 0.37897907D+00 0.33036511D+06 0.33036511D+06 0.33036511D+06 0.10814675D+01  1  2  4  1  6  1        2 -.273550060070D-02 0.100000000000D+01
-.232335738556D-01 0.000000000000D+00 -.108363456932D-01 0.990841976305D-04 0.000000000000D+00  6 2 2 25 2 2 21 2 0.25859768D+00 0.37897907D+00 0.33036511D+06 0.33036511D+06 0.33036511D+06 0.10814675D+01  1  2  5  1  6  1        2 -.175578846856D-01 0.100000000000D+01
0.257521073696D-01 0.000000000000D+00 0.103835330487D-01 0.990841976305D-04 0.000000000000D+00  6 2 2 25 2 2 21 2 0.19267606D+00 0.37897907D+00 0.33036511D+06 0.33036511D+06 0.33036511D+06 0.10814675D+01  1  2  6  1  6  1        2 0.336654189047D-01 0.100000000000D+01
-.649873517766D-03 0.000000000000D+00 -.413074556649D-03 0.990841976305D-04 0.000000000000D+00  6 21 2 25 2 2 -2 2 0.25859768D+00 0.37897907D+00 0.33036511D+06 0.33036511D+06 0.33036511D+06 0.10814675D+01  1  2  5  4  6  1        2 -.138072718990D-03 0.100000000000D+01
  </mgrwgt>
  </event>
  <event>
  6     66 0.18411016E-05 0.32814661E+03 0.75467711E-02 0.87826729E-01
        2 -1    0    0  503    0 0.00000000E+00 0.00000000E+00 0.74688966E+03 0.74688973E+03 0.32000000E+00 0.0000E+00 0.9000E+01
        2 -1    0    0  501    0 0.00000000E+00 0.00000000E+00 -.32620257E+04 0.32620257E+04 0.32000000E+00 0.0000E+00 0.9000E+01
       25  1    1    2    0    0 -.66955821E+03 0.48948344E+03 -.14171495E+04 0.16467665E+04 0.12500000E+03 0.0000E+00 0.9000E+01
        2  1    1    2  501    0 -.15469745E+02 -.51393499E+02 -.12512526E+04 0.12524032E+04 0.32000000E+00 0.0000E+00 0.9000E+01
        2  1    1    2  502    0 0.65665957E+03 -.84241427E+02 -.10558467E+03 0.67040781E+03 0.32000000E+00 0.0000E+00 0.9000E+01
       21  1    1    2  503  502 0.28368390E+02 -.35384852E+03 0.25885074E+03 0.43933792E+03 0.75000000E+00 0.0000E+00 0.9000E+01
#aMCatNLO 2  0  0  1  1 0.35498386D+03 0.00000000D+00  -5  6  0 0.00000000D+00 0.00000000D+00 0.00000000D+00 0.00000000D+00 0.00000000D+00
  <mgrwgt>
 0.2150465052D-02    1    2    0
 0.110915142851913D+04 0.000000000000000D+00 0.000000000000000D+00 0.110915142851913D+04
 0.110915142851913D+04 0.000000000000000D+00 0.000000000000000D+00 -.110915142851913D+04
 0.791076062300920D+03 -.659009718129996D+03 0.358102919856595D+03 -.218276949185966D+03
 0.458663688444330D+03 -.972740339527388D+01 -.123014695326676D+03 -.441752353082842D+03
 0.968563106293020D+03 0.668737121525270D+03 -.235088224529919D+03 0.660029302268808D+03
 0.000000000000000D+00 0.000000000000000D+00 -.000000000000000D+00 0.000000000000000D+00
 0.210900803592348D+04 0.000000000000000D+00 0.000000000000000D+00 0.210900803592348D+04
 0.115522219214238D+04 0.000000000000000D+00 0.000000000000000D+00 -.115522219214238D+04
 0.866690734319981D+03 -.669542746923951D+03 0.489484946093039D+03 -.218276949185966D+03
 0.445001226632548D+03 -.154690605390851D+02 -.513970662225175D+02 -.441752353082842D+03
 0.934834491971110D+03 0.656643417061092D+03 -.842393634577498D+02 0.660029302268808D+03
 0.101770377514223D+04 0.283683904019442D+02 -.353848516412771D+03 0.953785843781100D+03
0.284640593493D-02 0.000000000000D+00 0.000000000000D+00 0.102534417594D-06 0.437882493592D-10  6 2 2 25 2 2 21 2 0.11490609D+00 0.50185006D+00 0.91148740D+06 0.91148740D+06 0.91148740D+06 0.10505538D+01  1  2  1  1  6  1        2 0.215046505166D-02 0.100000000000D+01
  </mgrwgt>
  </event>
  <event>
  6     66 0.18411016E-05 0.23999285E+03 0.75467711E-02 0.90370084E-01
        2 -1    0    0  502    0 0.00000000E+00 0.00000000E+00 0.20868471E+04 0.20868471E+04 0.32000000E+00 0.0000E+00 0.9000E+01
        2 -1    0    0  501    0 0.00000000E+00 0.00000000E+00 -.16042825E+04 0.16042825E+04 0.32000000E+00 0.0000E+00 0.9000E+01
       25  1    1    2    0    0 -.65412299E+00 0.61160464E+03 0.37746575E+02 0.62538825E+03 0.12500000E+03 0.0000E+00 0.9000E+01
        2  1    1    2  501    0 -.13157718E+03 -.99411472E+02 -.12244973E+04 0.12355520E+04 0.32000000E+00 0.0000E+00 0.9000E+01
        2  1    1    2  503    0 0.28949471E+03 -.23074840E+03 0.12349720E+04 0.12892664E+04 0.32000000E+00 0.0000E+00 0.9000E+01
       21  1    1    2  502  503 -.15726340E+03 -.28144476E+03 0.43434332E+03 0.54092293E+03 0.75000000E+00 0.0000E+00 0.9000E+01
#aMCatNLO 2  0  0  5  2 0.20435125D+03 0.00000000D+00  -5  6  0 0.00000000D+00 0.00000000D+00 0.00000000D+00 0.00000000D+00 0.00000000D+00
  <mgrwgt>
 0.5984827516D-03    1    2    0
 0.182972466900050D+04 0.000000000000000D+00 0.000000000000000D+00 0.182972466900050D+04
 0.182972466900050D+04 -.000000000000000D+00 -.000000000000000D+00 -.182972466900050D+04
 0.632058617814837D+03 -.194746892846117D+01 0.616782168659645D+03 -.587286994771691D+02
 0.144030576272599D+04 -.134649349740106D+03 -.876793424256396D+02 -.143131498129101D+04
 0.158708495746017D+04 0.136596818668567D+03 -.529102826234006D+03 0.149004368076817D+04
 0.000000000000000D+00 0.000000000000000D+00 -.000000000000000D+00 0.000000000000000D+00
 0.182972466900050D+04 0.000000000000000D+00 0.000000000000000D+00 0.182972466900050D+04
 0.182972466900050D+04 -.000000000000000D+00 -.000000000000000D+00 -.182972466900050D+04
 0.625787149029931D+03 -.606402308066447D+00 0.611587595711789D+03 -.440998972643097D+02
 0.140788737184685D+04 -.131612716122620D+03 -.994416326818083D+02 -.139819036845854D+04
 0.113729991254518D+04 0.289498941735634D+03 -.230631187867927D+03 0.107538398211609D+04
 0.488474904579039D+03 -.157279823304948D+03 -.281514775162054D+03 0.366906283606759D+03
0.474079596979D-03 0.000000000000D+00 0.000000000000D+00 0.765591811984D-05 0.660965405748D-10  6 2 2 25 2 2 21 2 0.32105341D+00 0.24681269D+00 0.54892844D+06 0.54892844D+06 0.54892844D+06 0.10656566D+01  1  2  1  3  6  5        2 0.598482751566D-03 0.100000000000D+01
  </mgrwgt>
  </event>
  <event>
  5     66 0.18411016E-05 0.10383030E+03 0.75467711E-02 0.89974120E-01
        2 -1    0    0  502    0 0.00000000E+00 0.00000000E+00 0.12053613E+04 0.12053613E+04 0.32000000E+00 0.0000E+00 0.9000E+01
        2 -1    0    0  501    0 0.00000000E+00 0.00000000E+00 -.10300905E+04 0.10300906E+04 0.32000000E+00 0.0000E+00 0.9000E+01
       25  1    1    2    0    0 -.50669846E+03 0.23088744E+03 0.36545920E+03 0.67767084E+03 0.12500000E+03 0.0000E+00 0.9000E+01
        2  1    1    2  501    0 0.41218485E+03 -.18783865E+03 -.81068689E+03 0.92865119E+03 0.32000000E+00 0.0000E+00 0.9000E+01
        2  1    1    2  502    0 0.94513611E+02 -.43048792E+02 0.62049844E+03 0.62912990E+03 0.32000000E+00 0.0000E+00 0.9000E+01
#aMCatNLO 1  0  0  1  5 0.31647540D+03 0.00000000D+00  -5  6  0 0.00000000D+00 0.00000000D+00 0.00000000D+00 0.00000000D+00 0.00000000D+00
  <mgrwgt>
 0.5311249062D-02    7    2    0
 0.111428513991041D+04 0.000000000000000D+00 0.000000000000000D+00 0.111428513991041D+04
 0.111428513991041D+04 0.000000000000000D+00 0.000000000000000D+00 -.111428513991041D+04
 0.651126975414578D+03 -.506735019081438D+03 0.230904108163303D+03 0.313439390285236D+03
 0.995314035036044D+03 0.412244587417403D+03 -.187865873544476D+03 -.886234078583169D+03
 0.582129269370203D+03 0.944904316640355D+02 -.430382346188266D+02 0.572794688297933D+03
 0.000000000000000D+00 0.000000000000000D+00 0.000000000000000D+00 0.000000000000000D+00
 0.154697845954251D+04 0.000000000000000D+00 0.000000000000000D+00 0.154697845954251D+04
 0.119197370703338D+04 0.000000000000000D+00 0.000000000000000D+00 -.119197370703338D+04
 0.645097041841349D+03 -.532099111990438D+03 0.138388861651023D+03 0.313439390285236D+03
 0.101701927001190D+04 0.372867899257309D+03 -.331491905235744D+03 -.886234078583169D+03
 0.591000087769238D+03 0.715350153064904D+02 -.126767860224984D+03 0.572794688297933D+03
 0.485835766953405D+03 0.876961974266379D+02 0.319870903809706D+03 0.355004752509136D+03
0.361695033750D-03 0.000000000000D+00 0.000000000000D+00 0.284436729260D-05 0.000000000000D+00  6 2 2 25 2 2 21 0 0.18544021D+00 0.15847548D+00 0.31786158D+06 0.31786158D+06 0.31786158D+06 0.10826985D+01  1  2  2  1  6  1        2 0.274668117287D-02 0.100000000000D+01
0.690990765085D-04 0.000000000000D+00 -.138900416609D-05 0.284436729260D-05 0.000000000000D+00  6 2 2 25 2 2 21 2 0.18544021D+00 0.15847548D+00 0.31786158D+06 0.31786158D+06 0.31786158D+06 0.10826985D+01  1  2  3  1  6  1        2 0.615110319530D-03 0.100000000000D+01
-.225336664512D-03 0.000000000000D+00 0.000000000000D+00 0.284436729260D-05 0.000000000000D+00  6 2 2 25 2 2 21 2 0.18544021D+00 0.15847548D+00 0.31786158D+06 0.31786158D+06 0.31786158D+06 0.10826985D+01  1  2 15  1  6  1        2 -.200591548706D-02 0.100000000000D+01
-.128958448021D-04 0.000000000000D+00 0.000000000000D+00 0.284436729260D-05 0.000000000000D+00  6 2 2 25 2 2 21 2 0.18544021D+00 0.15847548D+00 0.31786158D+06 0.31786158D+06 0.31786158D+06 0.10826985D+01  1  2  4  1  6  1        2 -.114797007683D-03 0.100000000000D+01
-.827162255454D-03 0.000000000000D+00 -.283830583365D-03 0.284436729260D-05 0.000000000000D+00  6 2 2 25 2 2 21 2 0.26477759D+00 0.15847548D+00 0.31786158D+06 0.31786158D+06 0.31786158D+06 0.10826985D+01  1  2  5  1  6  1        2 -.380369054295D-02 0.100000000000D+01
0.888403275455D-03 0.000000000000D+00 0.266733643019D-03 0.284436729260D-05 0.000000000000D+00  6 2 2 25 2 2 21 2 0.18544021D+00 0.15847548D+00 0.31786158D+06 0.31786158D+06 0.31786158D+06 0.10826985D+01  1  2  6  1  6  1        2 0.790844176578D-02 0.100000000000D+01
-.279524738968D-04 0.000000000000D+00 -.124164691191D-04 0.284436729260D-05 0.000000000000D+00  6 21 2 25 2 2 -2 2 0.26477759D+00 0.15847548D+00 0.31786158D+06 0.31786158D+06 0.31786158D+06 0.10826985D+01  1  2  5  4  6  1        2 -.345811584894D-04 0.100000000000D+01
  </mgrwgt>
  </event>
  <event>
  6     66 0.18411016E-05 0.18132524E+03 0.75467711E-02 0.90295273E-01
        2 -1    0    0  502    0 0.00000000E+00 0.00000000E+00 0.18763170E+04 0.18763171E+04 0.32000000E+00 0.0000E+00 0.9000E+01
        2 -1    0    0  501    0 -.00000000E+00 -.00000000E+00 -.34844344E+04 0.34844344E+04 0.32000000E+00 0.0000E+00 0.9000E+01
       25  1    1    2    0    0 0.41983396E+03 -.56347830E+03 -.39278057E+03 0.81465940E+03 0.12500000E+03 0.0000E+00 0.9000E+01
        2  1    1    2  501    0 -.34223432E+02 -.95348803E+01 -.27973581E+04 0.27975837E+04 0.32000000E+00 0.0000E+00 0.9000E+01
        2  1    1    2  503    0 -.16451281E+03 0.47284065E+03 0.10167159E+04 0.11332934E+04 0.32000000E+00 0.0000E+00 0.9000E+01
       21  1    1    2  502  503 -.22109772E+03 0.10017253E+03 0.56530540E+03 0.61521500E+03 0.75000000E+00 0.0000E+00 0.9000E+01
#aMCatNLO 2  0  0  5  1 0.40763082D+02 0.00000000D+00  -5  6  0 0.00000000D+00 0.00000000D+00 0.00000000D+00 0.00000000D+00 0.00000000D+00
  <mgrwgt>
 0.4447810739D-02    1    2    0
 0.255693249031909D+04 0.000000000000000D+00 0.000000000000000D+00 0.255693249031909D+04
 0.255693249031909D+04 -.000000000000000D+00 -.000000000000000D+00 -.255693249031909D+04
 0.731569320682520D+03 0.420223450929419D+03 -.564045278079876D+03 -.157587583675396D+03
 0.205954996775145D+04 -.331105995941964D+02 -.112003379195304D+02 -.205925333805484D+04
 0.232274569220421D+04 -.387112851335223D+03 0.575245615999406D+03 0.221684092173024D+04
 0.000000000000000D+00 0.000000000000000D+00 0.000000000000000D+00 0.000000000000000D+00
 0.255693249031909D+04 0.000000000000000D+00 0.000000000000000D+00 0.255693249031909D+04
 0.255693249031909D+04 -.000000000000000D+00 -.000000000000000D+00 -.255693249031909D+04
 0.730396807158602D+03 0.419825484185955D+03 -.563453903694598D+03 -.155308586841898D+03
 0.205314973960222D+04 -.342301314890970D+02 -.953672532622123D+01 -.205284222535415D+04
 0.150746028974140D+04 -.164461804051810D+03 0.472782283671983D+03 0.142192325826718D+04
 0.822858144135955D+03 -.221133548645048D+03 0.100208345348836D+03 0.786227553928864D+03
0.366452750308D-01 0.000000000000D+00 0.000000000000D+00 0.243710181634D-03 0.375812306395D-07  6 2 2 25 2 2 21 2 0.28866416D+00 0.53606684D+00 0.55694669D+06 0.55694669D+06 0.55694669D+06 0.10652154D+01  1  2  1  3  6  5        2 0.444781073857D-02 0.100000000000D+01
  </mgrwgt>
  </event>
  <event>
  5     66 0.18411016E-05 0.15468448E+03 0.75467711E-02 0.93340632E-01
        2 -1    0    0  502    0 0.00000000E+00 0.00000000E+00 0.11985348E+04 0.11985348E+04 0.32000000E+00 0.0000E+00 0.9000E+01
        2 -1    0    0  501    0 0.00000000E+00 0.00000000E+00 -.18133737E+04 0.18133738E+04 0.32000000E+00 0.0000E+00 0.9000E+01
       25  1    1    2    0    0 0.42785936E+02 0.44986674E+03 -.46355434E+03 0.65933174E+03 0.12500000E+03 0.0000E+00 0.9000E+01
        2  1    1    2  501    0 -.11362981E+03 -.10494353E+03 -.12187538E+04 0.12285299E+04 0.32000000E+00 0.0000E+00 0.9000E+01
        2  1    1    2  502    0 0.70843871E+02 -.34492321E+03 0.10674692E+04 0.11240469E+04 0.32000000E+00 0.0000E+00 0.9000E+01
#aMCatNLO 1  0  0  2  4 0.24979493D+03 0.00000000D+00  -5  6  0 0.00000000D+00 0.00000000D+00 0.00000000D+00 0.00000000D+00 0.00000000D+00
  <mgrwgt>
 0.2720780750D-01    7    2    0
 0.147424270863515D+04 0.000000000000000D+00 0.000000000000000D+00 0.147424270863515D+04
 0.147424270863515D+04 0.000000000000000D+00 0.000000000000000D+00 -.147424270863515D+04
 0.576834030297753D+03 0.427916032801477D+02 0.449870280573329D+03 -.336003136674552D+03
 0.100083886080975D+04 -.113634996271342D+03 -.104949397335780D+03 -.988812993911496D+03
 0.137081252616281D+04 0.708433929911945D+02 -.344920883237549D+03 0.132481613058605D+04
 0.000000000000000D+00 -.000000000000000D+00 -.000000000000000D+00 -.000000000000000D+00
 0.149813266157222D+04 0.000000000000000D+00 0.000000000000000D+00 0.149813266157222D+04
 0.231780476344183D+04 0.000000000000000D+00 0.000000000000000D+00 -.231780476344183D+04
 0.612123906348562D+03 0.717928205124470D+02 0.490936207455871D+03 -.336003136674552D+03
 0.991607868565876D+03 -.650349754956739D+02 -.361314272596544D+02 -.988812993911496D+03
 0.135531600517488D+04 0.137339476076775D+03 -.250761963489636D+03 0.132481613058605D+04
 0.856889644924734D+03 -.144097321093548D+03 -.204042816706580D+03 -.819672101869610D+03
0.161807420869D-02 0.000000000000D+00 0.000000000000D+00 0.169988399558D-04 0.000000000000D+00  6 2 2 25 2 2 21 0 0.18438997D+00 0.27898058D+00 0.23798583D+06 0.23798583D+06 0.23798583D+06 0.10920718D+01  1  2  2  2  6  2        2 0.457842623854D-02 0.100000000000D+01
0.217933484368D-03 0.000000000000D+00 -.621383101008D-05 0.169988399558D-04 0.000000000000D+00  6 2 2 25 2 2 21 2 0.18438997D+00 0.27898058D+00 0.23798583D+06 0.23798583D+06 0.23798583D+06 0.10920718D+01  1  2  3  2  6  2        2 0.735434788969D-03 0.100000000000D+01
-.106748276859D-02 0.000000000000D+00 0.000000000000D+00 0.169988399558D-04 0.000000000000D+00  6 2 2 25 2 2 21 2 0.18438997D+00 0.27898058D+00 0.23798583D+06 0.23798583D+06 0.23798583D+06 0.10920718D+01  1  2 15  2  6  2        2 -.360230997510D-02 0.100000000000D+01
-.643007334716D-03 0.000000000000D+00 0.000000000000D+00 0.169988399558D-04 0.000000000000D+00  6 2 2 25 2 2 21 2 0.18438997D+00 0.27898058D+00 0.23798583D+06 0.23798583D+06 0.23798583D+06 0.10920718D+01  1  2  4  2  6  2        2 -.216988208528D-02 0.100000000000D+01
-.119411172457D-01 0.000000000000D+00 -.877355125984D-03 0.169988399558D-04 0.000000000000D+00  6 2 2 25 2 2 21 2 0.18438997D+00 0.44022353D+00 0.23798583D+06 0.23798583D+06 0.23798583D+06 0.10920718D+01  1  2  5  2  6  2        2 -.102103449868D-01 0.100000000000D+01
0.112359815730D-01 0.000000000000D+00 0.793377405299D-03 0.169988399558D-04 0.000000000000D+00  6 2 2 25 2 2 21 2 0.18438997D+00 0.27898058D+00 0.23798583D+06 0.23798583D+06 0.23798583D+06 0.10920718D+01  1  2  6  2  6  2        2 0.379167605244D-01 0.100000000000D+01
-.591442959788D-03 0.000000000000D+00 -.460640296069D-04 0.169988399558D-04 0.000000000000D+00  6 2 21 25 2 2 -2 2 0.18438997D+00 0.44022353D+00 0.23798583D+06 0.23798583D+06 0.23798583D+06 0.10920718D+01  1  2  5  5  6  2        2 -.402770061123D-04 0.100000000000D+01
  </mgrwgt>
  </event>
  <event>
  5     66 0.18411016E-05 0.54992367E+02 0.75467711E-02 0.88038513E-01
        2 -1    0    0  502    0 0.00000000E+00 0.00000000E+00 0.11892541E+04 0.11892542E+04 0.32000000E+00 0.0000E+00 0.9000E+01
        2 -1    0    0  501    0 0.00000000E+00 0.00000000E+00 -.56295932E+03 0.56295942E+03 0.32000000E+00 0.0000E+00 0.9000E+01
       25  1    1    2    0    0 -.91887254E+02 0.55728945E+03 -.32771226E+01 0.57848988E+03 0.12500000E+03 0.0000E+00 0.9000E+01
        2  1    1    2  501    0 0.54559411E+02 -.51688490E+03 -.21626267E+02 0.52020624E+03 0.32000000E+00 0.0000E+00 0.9000E+01
        2  1    1    2  502    0 0.37327843E+02 -.40404548E+02 0.65119818E+03 0.65351746E+03 0.32000000E+00 0.0000E+00 0.9000E+01
#aMCatNLO 1  0  0  1  1 0.10957200D+04 0.00000000D+00  -5  6  0 0.00000000D+00 0.00000000D+00 0.00000000D+00 0.00000000D+00 0.00000000D+00
  <mgrwgt>
 0.4206077742D-02    7    2    0
 0.818230904322183D+03 0.000000000000000D+00 0.000000000000000D+00 0.818230904322183D+03
 0.818230904322183D+03 0.000000000000000D+00 0.000000000000000D+00 -.818230904322183D+03
 0.620713798301178D+03 -.918944160770050D+02 0.557379821781794D+03 -.224819416345291D+03
 0.565356468108832D+03 0.545772757182953D+02 -.516986858433660D+03 -.222202261947436D+03
 0.450391542234355D+03 0.373171403587097D+02 -.403929633481346D+02 0.447021678292726D+03
 0.000000000000000D+00 0.000000000000000D+00 -.000000000000000D+00 0.000000000000000D+00
 0.119989937196575D+04 0.000000000000000D+00 0.000000000000000D+00 0.119989937196575D+04
 0.110669336738333D+04 0.000000000000000D+00 0.000000000000000D+00 -.110669336738333D+04
 0.725268939531901D+03 -.314268361358855D+03 0.600900708713770D+03 -.224819416345291D+03
 0.545369194369527D+03 -.128929125031504D+03 -.481072752992020D+03 -.222202261947436D+03
 0.461286583622385D+03 -.113304005050859D+03 -.109148433704273D+02 0.447021678292726D+03
 0.574668021825270D+03 0.556501491441218D+03 -.108913112351323D+03 0.932060045824147D+02
0.193999632939D-03 0.000000000000D+00 0.000000000000D+00 0.424246812713D-06 0.000000000000D+00  6 2 2 25 2 2 21 0 0.18296218D+00 0.86609137D-01 0.33259491D+06 0.33259491D+06 0.33259491D+06 0.10812533D+01  1  2  2  1  6  1        2 0.325176583886D-02 0.100000000000D+01
0.699949849254D-04 0.000000000000D+00 -.745009671761D-06 0.424246812713D-06 0.000000000000D+00  6 2 2 25 2 2 21 2 0.18296218D+00 0.86609137D-01 0.33259491D+06 0.33259491D+06 0.33259491D+06 0.10812533D+01  1  2  3  1  6  1        2 0.137163999753D-02 0.100000000000D+01
-.129561810128D-03 0.000000000000D+00 0.000000000000D+00 0.424246812713D-06 0.000000000000D+00  6 2 2 25 2 2 21 2 0.18296218D+00 0.86609137D-01 0.33259491D+06 0.33259491D+06 0.33259491D+06 0.10812533D+01  1  2 15  1  6  1        2 -.253892705475D-02 0.100000000000D+01
-.107136350636D-04 0.000000000000D+00 0.000000000000D+00 0.424246812713D-06 0.000000000000D+00  6 2 2 25 2 2 21 2 0.18296218D+00 0.86609137D-01 0.33259491D+06 0.33259491D+06 0.33259491D+06 0.10812533D+01  1  2  4  1  6  1        2 -.209947189614D-03 0.100000000000D+01
-.921379174409D-04 0.000000000000D+00 -.117436554204D-03 0.424246812713D-06 0.000000000000D+00  6 2 2 25 2 2 21 2 0.31701573D+00 0.86609137D-01 0.33259491D+06 0.33259491D+06 0.33259491D+06 0.10812533D+01  1  2  5  1  6  1        2 -.594697898067D-03 0.100000000000D+01
0.149311500032D-03 0.000000000000D+00 0.101684435337D-03 0.424246812713D-06 0.000000000000D+00  6 2 2 25 2 2 21 2 0.18296218D+00 0.86609137D-01 0.33259491D+06 0.33259491D+06 0.33259491D+06 0.10812533D+01  1  2  6  1  6  1        2 0.292594713399D-02 0.100000000000D+01
0.248807275160D-06 0.000000000000D+00 -.715086577926D-05 0.424246812713D-06 0.000000000000D+00  6 21 2 25 2 2 -2 2 0.31701573D+00 0.86609137D-01 0.33259491D+06 0.33259491D+06 0.33259491D+06 0.10812533D+01  1  2  5  4  6  1        2 0.296913735285D-06 0.100000000000D+01
  </mgrwgt>
  </event>
  <event>
  6     66 0.18411016E-05 0.54551092E+02 0.75467711E-02 0.91925783E-01
        2 -1    0    0  503    0 0.00000000E+00 0.00000000E+00 0.11088398E+04 0.11088398E+04 0.32000000E+00 0.0000E+00 0.9000E+01
        2 -1    0    0  501    0 0.00000000E+00 0.00000000E+00 -.16488658E+04 0.16488658E+04 0.32000000E+00 0.0000E+00 0.9000E+01
       25  1    1    2    0    0 0.58539153E+03 -.61547918E+01 -.21335593E+03 0.63550522E+03 0.12500000E+03 0.0000E+00 0.9000E+01
        2  1    1    2  501    0 0.22165019E+02 0.11333068E+02 -.11037077E+04 0.11039885E+04 0.32000000E+00 0.0000E+00 0.9000E+01
        2  1    1    2  502    0 -.58454479E+03 0.57745037E+02 0.66150653E+03 0.88465705E+03 0.32000000E+00 0.0000E+00 0.9000E+01
       21  1    1    2  503  502 -.23011759E+02 -.62923313E+02 0.11553115E+03 0.13355483E+03 0.75000000E+00 0.0000E+00 0.9000E+01
#aMCatNLO 2  0  0  1  1 0.11176348D+00 0.00000000D+00  -5  6  0 0.00000000D+00 0.00000000D+00 0.00000000D+00 0.00000000D+00 0.00000000D+00
  <mgrwgt>
 0.6143273980D-02    1    2    0
 0.127003180742245D+04 0.000000000000000D+00 0.000000000000000D+00 0.127003180742245D+04
 0.127003180742245D+04 0.000000000000000D+00 0.000000000000000D+00 -.127003180742245D+04
 0.596302050763408D+03 0.579949241598798D+03 -.209840854326691D+02 -.562999207120252D+02
 0.855258680618288D+03 0.144190262416669D+02 -.985174294653224D+01 -.855080373775525D+03
 0.108850288346321D+04 -.594368267840465D+03 0.308358283792013D+02 0.911380294487550D+03
 0.000000000000000D+00 -.000000000000000D+00 -.000000000000000D+00 0.000000000000000D+00
 0.143122551405688D+04 0.000000000000000D+00 0.000000000000000D+00 0.143122551405688D+04
 0.127745461082760D+04 0.000000000000000D+00 0.000000000000000D+00 -.127745461082760D+04
 0.601243688766653D+03 0.585372893690393D+03 -.615366086871784D+01 -.562999207120252D+02
 0.855442728041793D+03 0.221667464054208D+02 0.113336091908602D+02 -.855080373775525D+03
 0.108426066093302D+04 -.584527880827997D+03 0.577433649991524D+02 0.911380294487550D+03
 0.167733047143013D+03 -.230117592678167D+02 -.629233133212949D+02 0.153770903229286D+03
0.140391079151D-02 0.000000000000D+00 0.000000000000D+00 0.200051559775D-04 0.211792023429D-07  6 2 2 25 2 2 21 2 0.17059063D+00 0.25367149D+00 0.40823810D+06 0.40823810D+06 0.40823810D+06 0.10747900D+01  1  2  1  1  6  1        2 0.614327398014D-02 0.100000000000D+01
  </mgrwgt>
  </event>
  <event>
  5     66 0.18411016E-05 0.22808115E+02 0.75467711E-02 0.92412023E-01
        2 -1    0    0  502    0 0.00000000E+00 0.00000000E+00 0.14063912E+04 0.14063912E+04 0.32000000E+00 0.0000E+00 0.9000E+01
        2 -1    0    0  501    0 0.00000000E+00 0.00000000E+00 -.10057645E+04 0.10057645E+04 0.32000000E+00 0.0000E+00 0.9000E+01
       25  1    1    2    0    0 0.56005912E+03 -.11047131E+03 -.23822878E+03 0.63106900E+03 0.12500000E+03 0.0000E+00 0.9000E+01
        2  1    1    2  501    0 0.16779116E+02 0.15447889E+02 -.50022485E+03 0.50074463E+03 0.32000000E+00 0.0000E+00 0.9000E+01
        2  1    1    2  502    0 -.57683824E+03 0.95023420E+02 0.11390804E+04 0.12803421E+04 0.32000000E+00 0.0000E+00 0.9000E+01
#aMCatNLO 1  0  0  2  2 0.34379696D+02 0.00000000D+00  -5  6  0 0.00000000D+00 0.00000000D+00 0.00000000D+00 0.00000000D+00 0.00000000D+00
  <mgrwgt>
 0.9512433491D-02    7    2    0
 0.118932686965154D+04 0.000000000000000D+00 0.000000000000000D+00 0.118932686965154D+04
 0.118932686965154D+04 0.000000000000000D+00 0.000000000000000D+00 -.118932686965154D+04
 0.680064188257816D+03 0.560055688643511D+03 -.110471433208825D+03 -.347844776033208D+03
 0.592070834057673D+03 0.167795649620398D+02 0.154485047616103D+02 -.591631356878642D+03
 0.110651871698759D+04 -.576835253605551D+03 0.950229284472145D+02 0.939476132911850D+03
 0.000000000000000D+00 0.000000000000000D+00 0.000000000000000D+00 -.000000000000000D+00
 0.120277020360855D+04 0.000000000000000D+00 0.000000000000000D+00 0.120277020360855D+04
 0.121163656387909D+04 0.000000000000000D+00 0.000000000000000D+00 -.121163656387909D+04
 0.676492688878243D+03 0.554107491102685D+03 -.118263511684759D+03 -.347844776033208D+03
 0.591808034088524D+03 0.115885217475375D+02 0.864829077716515D+01 -.591631356878642D+03
 0.111060145555875D+04 -.586556828115496D+03 0.822877643960531D+02 0.939476132911850D+03
 0.355045889621214D+02 0.208608152652737D+02 0.273274565115412D+02 -.886636027054748D+01
0.472596267787D-03 0.000000000000D+00 0.000000000000D+00 0.139249877252D-04 0.000000000000D+00  6 2 2 25 2 2 21 0 0.21636788D+00 0.15473300D+00 0.35509097D+06 0.35509097D+06 0.35509097D+06 0.10791761D+01  1  2  2  2  6  2        2 0.283965089036D-02 0.100000000000D+01
0.326338919204D-03 0.000000000000D+00 -.181489410576D-05 0.139249877252D-04 0.000000000000D+00  6 2 2 25 2 2 21 2 0.21636788D+00 0.15473300D+00 0.35509097D+06 0.35509097D+06 0.35509097D+06 0.10791761D+01  1  2  3  2  6  2        2 0.228364262107D-02 0.100000000000D+01
-.320421712914D-03 0.000000000000D+00 0.000000000000D+00 0.139249877252D-04 0.000000000000D+00  6 2 2 25 2 2 21 2 0.21636788D+00 0.15473300D+00 0.35509097D+06 0.35509097D+06 0.35509097D+06 0.10791761D+01  1  2 15  2  6  2        2 -.224223541009D-02 0.100000000000D+01
-.974808362011D-05 0.000000000000D+00 0.000000000000D+00 0.139249877252D-04 0.000000000000D+00  6 2 2 25 2 2 21 2 0.21636788D+00 0.15473300D+00 0.35509097D+06 0.35509097D+06 0.35509097D+06 0.10791761D+01  1  2  4  2  6  2        2 -.682147850553D-04 0.100000000000D+01
-.252027729869D-01 0.000000000000D+00 -.385477523836D-02 0.139249877252D-04 0.000000000000D+00  6 2 2 25 2 2 21 2 0.21636788D+00 0.15883429D+00 0.35509097D+06 0.35509097D+06 0.35509097D+06 0.10791761D+01  1  2  5  2  6  2        2 -.169795662784D+00 0.100000000000D+01
0.252962775637D-01 0.000000000000D+00 0.385345657764D-02 0.139249877252D-04 0.000000000000D+00  6 2 2 25 2 2 21 2 0.21636788D+00 0.15473300D+00 0.35509097D+06 0.35509097D+06 0.35509097D+06 0.10791761D+01  1  2  6  2  6  2        2 0.177017371204D+00 0.100000000000D+01
-.117953303677D-03 0.000000000000D+00 -.181874195991D-04 0.139249877252D-04 0.000000000000D+00  6 2 21 25 2 2 -2 2 0.21636788D+00 0.15883429D+00 0.35509097D+06 0.35509097D+06 0.35509097D+06 0.10791761D+01  1  2  5  5  6  2        2 -.522118244610D-03 0.100000000000D+01
  </mgrwgt>
  </event>
  <event>
  6     66 0.18411016E-05 0.13582172E+03 0.75467711E-02 0.91965392E-01
        2 -1    0    0  503    0 0.00000000E+00 0.00000000E+00 0.62373065E+03 0.62373074E+03 0.32000000E+00 0.0000E+00 0.9000E+01
        2 -1    0    0  501    0 0.00000000E+00 0.00000000E+00 -.30783218E+04 0.30783218E+04 0.32000000E+00 0.0000E+00 0.9000E+01
       25  1    1    2    0    0 0.35673869E+03 -.41675765E+03 -.11224983E+04 0.12556181E+04 0.12500000E+03 0.0000E+00 0.9000E+01
        2  1    1    2  501    0 -.40914195E+03 0.15096811E+03 -.15677809E+04 0.16273062E+04 0.32000000E+00 0.0000E+00 0.9000E+01
        2  1    1    2  502    0 -.25346263E+01 0.92294865E+02 0.49432907E+03 0.50287782E+03 0.32000000E+00 0.0000E+00 0.9000E+01
       21  1    1    2  503  502 0.54937881E+02 0.17349468E+03 -.25864106E+03 0.31625043E+03 0.75000000E+00 0.0000E+00 0.9000E+01
#aMCatNLO 2  0  0  1  4 0.18198509D+03 0.00000000D+00  -5  6  0 0.00000000D+00 0.00000000D+00 0.00000000D+00 0.00000000D+00 0.00000000D+00
  <mgrwgt>
 0.6936192201D-04    1    2    0
 0.128533465312402D+04 0.000000000000000D+00 0.000000000000000D+00 0.128533465312402D+04
 0.128533465312402D+04 0.000000000000000D+00 0.000000000000000D+00 -.128533465312402D+04
 0.674392048296297D+03 0.371369038194093D+03 -.370687932602908D+03 -.404790228264779D+03
 0.805529683399292D+03 -.392020980036813D+03 0.205172700358035D+03 -.673128357058394D+03
 0.109074757455245D+04 0.206519418427194D+02 0.165515232244872D+03 0.107791858532317D+04
 0.000000000000000D+00 0.000000000000000D+00 0.000000000000000D+00 -.000000000000000D+00
 0.135093885676195D+04 0.000000000000000D+00 0.000000000000000D+00 0.135093885676195D+04
 0.142126479923571D+04 0.000000000000000D+00 0.000000000000000D+00 -.142126479923571D+04
 0.693161054084314D+03 0.356774283981014D+03 -.416778392302745D+03 -.404790228264779D+03
 0.802076444683632D+03 -.409177620075117D+03 0.150991765569738D+03 -.673128357058394D+03
 0.108186538169947D+04 -.253454505965365D+01 0.922919477309788D+02 0.107791858532317D+04
 0.195100775530244D+03 0.549378811537559D+02 0.173494679002028D+03 -.703259424737552D+02
0.496508680294D-04 0.000000000000D+00 0.000000000000D+00 0.147394836590D-05 0.115005074456D-09  6 2 2 25 2 2 21 2 0.95958519D-01 0.47358773D+00 0.40522580D+06 0.40522580D+06 0.40522580D+06 0.10750215D+01  1  2  1  1  6  1        2 0.693619220057D-04 0.100000000000D+01
  </mgrwgt>
  </event>
  <event>
  5     66 -.18411016E-05 0.33386536E+03 0.75467711E-02 0.92952755E-01
        2 -1    0    0  502    0 0.00000000E+00 0.00000000E+00 0.12726325E+04 0.12726326E+04 0.32000000E+00 0.0000E+00 0.9000E+01
        2 -1    0    0  501    0 0.00000000E+00 0.00000000E+00 -.54644082E+03 0.54644092E+03 0.32000000E+00 0.0000E+00 0.9000E+01
       25  1    1    2    0    0 -.38052002E+03 0.27700379E+03 0.34826853E+03 0.59870073E+03 0.12500000E+03 0.0000E+00 0.9000E+01
        2  1    1    2  501    0 0.33693468E+03 0.54066961E+02 -.30659544E+03 0.45874730E+03 0.32000000E+00 0.0000E+00 0.9000E+01
        2  1    1    2  502    0 0.43585341E+02 -.33107075E+03 0.68451862E+03 0.76162548E+03 0.32000000E+00 0.0000E+00 0.9000E+01
#aMCatNLO 1  0  0  5  1 0.25357856D+01 0.00000000D+00  -5  6  0 0.00000000D+00 0.00000000D+00 0.00000000D+00 0.00000000D+00 0.00000000D+00
  <mgrwgt>
 -.2038914453D-02    9    2    0
 0.833917561183387D+03 0.000000000000000D+00 0.000000000000000D+00 0.833917561183387D+03
 0.833917561183387D+03 -.000000000000000D+00 -.000000000000000D+00 -.833917561183387D+03
 0.501387149127433D+03 -.380571214334468D+03 0.276949168742436D+03 0.119284458597910D+03
 0.633903900823825D+03 0.336993974264066D+03 0.540600495540763D+02 -.534178554260261D+03
 0.532544072415515D+03 0.435772400704021D+02 -.331009218296513D+03 0.414894095662351D+03
 0.000000000000000D+00 0.000000000000000D+00 0.000000000000000D+00 0.000000000000000D+00
 0.833917561183387D+03 0.000000000000000D+00 0.000000000000000D+00 0.833917561183387D+03
 0.833917561183387D+03 -.000000000000000D+00 -.000000000000000D+00 -.833917561183387D+03
 0.501369580267130D+03 -.380564680083029D+03 0.276899535092910D+03 0.119346670485061D+03
 0.633836667329662D+03 0.337002235226460D+03 0.539972999467137D+02 -.534099902548584D+03
 0.520106131810858D+03 0.418522250582490D+02 -.325213755097056D+03 0.403726136261451D+03
 0.125227429591231D+02 0.171021979832029D+01 -.568307994256863D+01 0.110270958020721D+02
0.476160524633D-05 0.000000000000D+00 0.000000000000D+00 0.358245528519D-07 0.000000000000D+00  6 2 2 25 2 2 21 0 0.19578963D+00 0.84067830D-01 0.33765336D+06 0.33765336D+06 0.33765336D+06 0.10807731D+01  1  2  2  3  6  5        2 0.739085391379D-04 0.100000000000D+01
0.197425596689D-06 0.000000000000D+00 -.182858179054D-07 0.358245528519D-07 0.000000000000D+00  6 2 2 25 2 2 21 2 0.19578963D+00 0.84067830D-01 0.33765336D+06 0.33765336D+06 0.33765336D+06 0.10807731D+01  1  2  3  3  6  5        2 0.357942894228D-05 0.100000000000D+01
-.305849089975D-05 0.000000000000D+00 0.000000000000D+00 0.358245528519D-07 0.000000000000D+00  6 2 2 25 2 2 21 2 0.19578963D+00 0.84067830D-01 0.33765336D+06 0.33765336D+06 0.33765336D+06 0.10807731D+01  1  2 15  3  6  5        2 -.554520337277D-04 0.100000000000D+01
0.426274796324D-10 0.000000000000D+00 0.000000000000D+00 0.358245528519D-07 0.000000000000D+00  6 2 2 25 2 2 21 2 0.19578963D+00 0.84067830D-01 0.33761273D+06 0.33761273D+06 0.33761273D+06 0.10807769D+01  1  2 12  3  6  5        2 0.772867559157D-09 0.100000000000D+01
0.418709564947D-06 0.000000000000D+00 0.000000000000D+00 0.358245528519D-07 0.000000000000D+00  6 2 2 25 2 2 21 2 0.19578963D+00 0.84067830D-01 0.33761273D+06 0.33761273D+06 0.33761273D+06 0.10807769D+01  1  2 12  3  6  5        2 0.759151238231D-05 0.100000000000D+01
-.471515024066D-02 0.000000000000D+00 0.000000000000D+00 0.358245528519D-07 0.000000000000D+00  6 2 2 25 2 2 21 2 0.19578963D+00 0.84067830D-01 0.33765336D+06 0.33765336D+06 0.33765336D+06 0.10807731D+01  1  2  4  3  6  5        2 -.854881308287D-01 0.100000000000D+01
-.255174626729D-02 0.000000000000D+00 0.000000000000D+00 0.358245528519D-07 0.000000000000D+00  6 2 2 25 2 2 21 2 0.19578963D+00 0.84067830D-01 0.33765336D+06 0.33765336D+06 0.33765336D+06 0.10807731D+01  1  2  5  3  6  5        2 -.462644894873D-01 0.100000000000D+01
0.261245573023D-02 0.000000000000D+00 -.000000000000D+00 0.358245528519D-07 0.000000000000D+00  6 2 2 25 2 2 21 2 0.19578963D+00 0.84067830D-01 0.33765336D+06 0.33765336D+06 0.33765336D+06 0.10807731D+01  1  2  6  3  6  5        2 0.473651836847D-01 0.100000000000D+01
0.454029533781D-02 0.000000000000D+00 0.000000000000D+00 0.358245528519D-07 0.606591883150D-07  6 2 2 25 2 2 21 2 0.19578963D+00 0.84067830D-01 0.33761273D+06 0.33761273D+06 0.33761273D+06 0.10807769D+01  1  2 11  3  6  5        2 0.823188939586D-01 0.100000000000D+01
  </mgrwgt>
  </event>
  <event>
  5     66 -.18411016E-05 0.14867038E+03 0.75467711E-02 0.95256395E-01
        2 -1    0    0  502    0 0.00000000E+00 0.00000000E+00 0.16048441E+04 0.16048441E+04 0.32000000E+00 0.0000E+00 0.9000E+01
        2 -1    0    0  501    0 0.00000000E+00 0.00000000E+00 -.15245145E+04 0.15245145E+04 0.32000000E+00 0.0000E+00 0.9000E+01
       25  1    1    2    0    0 0.28760695E+03 0.35207277E+03 0.44489058E+03 0.64824811E+03 0.12500000E+03 0.0000E+00 0.9000E+01
        2  1    1    2  501    0 -.22267787E+03 -.21831349E+03 -.14003765E+04 0.14346779E+04 0.32000000E+00 0.0000E+00 0.9000E+01
        2  1    1    2  502    0 -.64929074E+02 -.13375927E+03 0.10358155E+04 0.10464326E+04 0.32000000E+00 0.0000E+00 0.9000E+01
#aMCatNLO 1  0  0  1  5 0.29363711D+02 0.00000000D+00  -5  6  0 0.00000000D+00 0.00000000D+00 0.00000000D+00 0.00000000D+00 0.00000000D+00
  <mgrwgt>
 -.2010570571D-01   11    2    0
 0.156416372117673D+04 0.000000000000000D+00 0.000000000000000D+00 0.156416372117673D+04
 0.156416372117673D+04 0.000000000000000D+00 0.000000000000000D+00 -.156416372117673D+04
 0.637124164662336D+03 0.287622005899141D+03 0.352080898692629D+03 0.428503003134196D+03
 0.147112615715958D+04 -.222699460135336D+03 -.218335074853300D+03 -.143768804537819D+04
 0.102007712053154D+04 -.649225457638054D+02 -.133745823839329D+03 0.100918504224399D+04
 0.000000000000000D+00 -.000000000000000D+00 -.000000000000000D+00 0.000000000000000D+00
 0.207641233220192D+04 0.000000000000000D+00 0.000000000000000D+00 0.207641233220192D+04
 0.156465348629014D+04 0.000000000000000D+00 0.000000000000000D+00 -.156465348629014D+04
 0.641017158772605D+03 0.293028328505540D+03 0.354679535410669D+03 0.428503003134196D+03
 0.146841912821975D+04 -.210265678488898D+03 -.212358575875550D+03 -.143768804537819D+04
 0.101902896198784D+04 -.562974703448030D+02 -.129600041334016D+03 0.100918504224399D+04
 0.512600569511868D+03 -.264651796718393D+02 -.127209182011035D+02 0.511758845911773D+03
0.386664452867D-04 0.000000000000D+00 0.000000000000D+00 0.363688337829D-04 0.000000000000D+00  6 2 2 25 2 2 21 0 0.24689909D+00 0.23454070D+00 0.21717664D+06 0.21717664D+06 0.21717664D+06 0.10950877D+01  1  2  2  1  6  1        2 0.939116354124D-04 0.100000000000D+01
0.518414597438D-05 0.000000000000D+00 -.148489331010D-06 0.363688337829D-04 0.000000000000D+00  6 2 2 25 2 2 21 2 0.24689909D+00 0.23454070D+00 0.21717664D+06 0.21717664D+06 0.21717664D+06 0.10950877D+01  1  2  3  1  6  1        2 0.150994163633D-04 0.100000000000D+01
-.277082076269D-04 0.000000000000D+00 0.000000000000D+00 0.363688337829D-04 0.000000000000D+00  6 2 2 25 2 2 21 2 0.24689909D+00 0.23454070D+00 0.21717664D+06 0.21717664D+06 0.21717664D+06 0.10950877D+01  1  2 15  1  6  1        2 -.807033146263D-04 0.100000000000D+01
0.774970657297D-10 0.000000000000D+00 0.000000000000D+00 0.363688337829D-04 0.000000000000D+00  6 2 2 25 2 2 21 2 0.32778915D+00 0.23454070D+00 0.22384960D+06 0.22384960D+06 0.22384960D+06 0.10940874D+01  1  2 12  1  6  1        2 0.116330114546D-09 0.100000000000D+01
0.129731678946D-01 0.000000000000D+00 0.000000000000D+00 0.363688337829D-04 0.000000000000D+00  6 2 2 25 2 2 21 2 0.33995116D+00 0.23454070D+00 0.22384960D+06 0.22384960D+06 0.22384960D+06 0.10940874D+01  1  2 12  1  6  1        2 0.176073198163D-01 0.100000000000D+01
-.197269685765D-01 0.000000000000D+00 0.000000000000D+00 0.363688337829D-04 0.000000000000D+00  6 2 2 25 2 2 21 2 0.24689909D+00 0.23454070D+00 0.21717664D+06 0.21717664D+06 0.21717664D+06 0.10950877D+01  1  2  4  1  6  1        2 -.574570456917D-01 0.100000000000D+01
-.152666851243D-01 0.000000000000D+00 -.333056964544D-04 0.363688337829D-04 0.000000000000D+00  6 2 2 25 2 2 21 2 0.32778586D+00 0.23454070D+00 0.21717664D+06 0.21717664D+06 0.21717664D+06 0.10950877D+01  1  2  5  1  6  1        2 -.230179468039D-01 0.100000000000D+01
0.146838694564D-01 0.000000000000D+00 0.320117261726D-04 0.363688337829D-04 0.000000000000D+00  6 2 2 25 2 2 21 2 0.24689909D+00 0.23454070D+00 0.21717664D+06 0.21717664D+06 0.21717664D+06 0.10950877D+01  1  2  6  1  6  1        2 0.427684443767D-01 0.100000000000D+01
0.287462628193D-11 0.000000000000D+00 0.000000000000D+00 0.363688337829D-04 0.000000000000D+00  6 21 2 25 2 2 -2 2 0.32778915D+00 0.23454070D+00 0.22384960D+06 0.22384960D+06 0.22384960D+06 0.10940874D+01  1  2 12  4  6  1        2 0.756318042017D-12 0.100000000000D+01
0.525168690587D-03 0.000000000000D+00 0.000000000000D+00 0.363688337829D-04 0.000000000000D+00  6 21 2 25 2 2 -2 2 0.33995116D+00 0.23454070D+00 0.22384960D+06 0.22384960D+06 0.22384960D+06 0.10940874D+01  1  2 12  4  6  1        2 0.114923369946D-03 0.100000000000D+01
-.565594994980D-03 0.000000000000D+00 -.123538822162D-05 0.363688337829D-04 0.000000000000D+00  6 21 2 25 2 2 -2 2 0.32778586D+00 0.23454070D+00 0.21717664D+06 0.21717664D+06 0.21717664D+06 0.10950877D+01  1  2  5  4  6  1        2 -.149708631939D-03 0.100000000000D+01
  </mgrwgt>
  </event>
  <event>
  6     66 0.18411016E-05 0.60584340E+02 0.75467711E-02 0.92527547E-01
        2 -1    0    0  502    0 0.00000000E+00 0.00000000E+00 0.17301902E+04 0.17301902E+04 0.32000000E+00 0.0000E+00 0.9000E+01
        2 -1    0    0  503    0 0.00000000E+00 0.00000000E+00 -.12837884E+04 0.12837884E+04 0.32000000E+00 0.0000E+00 0.9000E+01
       25  1    1    2    0    0 -.47591493E+03 -.25908828E+03 -.22190027E+03 0.59873741E+03 0.12500000E+03 0.0000E+00 0.9000E+01
        2  1    1    2  501    0 0.44870302E+03 0.15736101E+03 -.35799790E+03 0.59519701E+03 0.32000000E+00 0.0000E+00 0.9000E+01
        2  1    1    2  502    0 -.58173163E+02 0.51062491E+02 0.14158885E+04 0.14180028E+04 0.32000000E+00 0.0000E+00 0.9000E+01
       21  1    1    2  503  501 0.85385076E+02 0.50664786E+02 -.38958852E+03 0.40204143E+03 0.75000000E+00 0.0000E+00 0.9000E+01
#aMCatNLO 2  0  0  2  1 0.94527422D+02 0.00000000D+00  -5  6  0 0.00000000D+00 0.00000000D+00 0.00000000D+00 0.00000000D+00 0.00000000D+00
  <mgrwgt>
 0.4559169733D-02    1    2    0
 0.123627247112654D+04 0.000000000000000D+00 0.000000000000000D+00 0.123627247112654D+04
 0.123627247112654D+04 0.000000000000000D+00 0.000000000000000D+00 -.123627247112654D+04
 0.685795001158100D+03 -.451924112542259D+03 -.244843570272263D+03 -.436469937352690D+03
 0.768535832747285D+03 0.474944299086193D+03 0.172925982546452D+03 -.578940276317368D+03
 0.101821410834769D+04 -.230201865439347D+02 0.719175877258113D+02 0.101541021367006D+04
 0.000000000000000D+00 0.000000000000000D+00 0.000000000000000D+00 -.000000000000000D+00
 0.124173716997590D+04 0.000000000000000D+00 0.000000000000000D+00 0.124173716997590D+04
 0.178878210295359D+04 0.000000000000000D+00 0.000000000000000D+00 -.178878210295359D+04
 0.706971171719847D+03 -.475962815292327D+03 -.259107371352639D+03 -.436469937352690D+03
 0.749210387355662D+03 0.448748480329550D+03 0.157382217486947D+03 -.578940276317368D+03
 0.101835597816040D+04 -.581707408096862D+02 0.510603676368361D+02 0.101541021367006D+04
 0.555981735693585D+03 0.853850757724634D+02 0.506647862288558D+02 -.547044932977691D+03
0.144005009172D-02 0.000000000000D+00 0.000000000000D+00 0.461357314380D-05 0.553524299115D-08  6 2 2 25 2 2 21 2 0.26618306D+00 0.19750587D+00 0.36504705D+06 0.36504705D+06 0.36504705D+06 0.10783021D+01  1  2  1  2  6  2        2 0.455916973255D-02 0.100000000000D+01
  </mgrwgt>
  </event>
  <event>
  5     66 0.18411016E-05 0.60609454E+02 0.75467711E-02 0.94264477E-01
        2 -1    0    0  502    0 0.00000000E+00 0.00000000E+00 0.14726651E+04 0.14726651E+04 0.32000000E+00 0.0000E+00 0.9000E+01
        2 -1    0    0  501    0 0.00000000E+00 0.00000000E+00 -.67317669E+03 0.67317677E+03 0.32000000E+00 0.0000E+00 0.9000E+01
       25  1    1    2    0    0 0.39196560E+03 -.30483855E+03 0.93853701E+03 0.10691306E+04 0.12500000E+03 0.0000E+00 0.9000E+01
        2  1    1    2  501    0 -.59203793E+02 -.12933093E+02 -.49268256E+03 0.49639557E+03 0.32000000E+00 0.0000E+00 0.9000E+01
        2  1    1    2  502    0 -.33276181E+03 0.31777164E+03 0.35363396E+03 0.58031570E+03 0.32000000E+00 0.0000E+00 0.9000E+01
#aMCatNLO 1  0  0  1  5 0.84148139D+01 0.00000000D+00  -5  6  0 0.00000000D+00 0.00000000D+00 0.00000000D+00 0.00000000D+00 0.00000000D+00
  <mgrwgt>
 0.6004018628D-02    3    2    0
 0.995672607956172D+03 0.000000000000000D+00 0.000000000000000D+00 0.995672607956172D+03
 0.995672607956172D+03 0.000000000000000D+00 0.000000000000000D+00 -.995672607956172D+03
 0.775308050052242D+03 0.391868810714687D+03 -.304735489840820D+03 0.582282310306902D+03
 0.732830018246373D+03 -.592131522302004D+02 -.129347794266199D+02 -.730319334077311D+03
 0.483207147613728D+03 -.332655658484486D+03 0.317670269267440D+03 0.148037023770410D+03
 0.000000000000000D+00 0.000000000000000D+00 -.000000000000000D+00 -.000000000000000D+00
 0.151841763696633D+04 0.000000000000000D+00 0.000000000000000D+00 0.151841763696633D+04
 0.296264006298390D+04 0.000000000000000D+00 0.000000000000000D+00 -.296264006298390D+04
 0.683027966323209D+03 0.296730531744920D+03 0.154274124251779D+03 0.582282310306902D+03
 0.901251286735382D+03 -.165816624480049D+03 0.501390465766050D+03 -.730319334077311D+03
 0.865985498458896D+03 -.420673690614722D+03 0.742327130825009D+03 0.148037023770410D+03
 0.203079294843275D+04 0.289759783349851D+03 -.139799172084284D+04 -.144422242601758D+04
0.970561197659D-03 0.000000000000D+00 0.000000000000D+00 0.644274453189D-06 0.000000000000D+00  6 2 2 25 2 2 21 0 0.22656387D+00 0.10356565D+00 0.26650863D+06 0.26650863D+06 0.26650863D+06 0.10883760D+01  1  2  2  1  6  1        2 0.919830863814D-02 0.100000000000D+01
0.353782343679D-03 0.000000000000D+00 -.372721055364D-05 0.644274453189D-06 0.000000000000D+00  6 2 2 25 2 2 21 2 0.22656387D+00 0.10356565D+00 0.26650863D+06 0.26650863D+06 0.26650863D+06 0.10883760D+01  1  2  3  1  6  1        2 0.397172466458D-02 0.100000000000D+01
-.638314505771D-03 0.000000000000D+00 0.000000000000D+00 0.644274453189D-06 0.000000000000D+00  6 2 2 25 2 2 21 2 0.22656387D+00 0.10356565D+00 0.26650863D+06 0.26650863D+06 0.26650863D+06 0.10883760D+01  1  2 15  1  6  1        2 -.716601467435D-02 0.100000000000D+01
  </mgrwgt>
  </event>
  <event>
  5     66 -.18411016E-05 0.17129614E+03 0.75467711E-02 0.90958191E-01
        2 -1    0    0  502    0 0.00000000E+00 0.00000000E+00 0.79447743E+03 0.79447749E+03 0.32000000E+00 0.0000E+00 0.9000E+01
        2 -1    0    0  501    0 -.00000000E+00 -.00000000E+00 -.20426297E+04 0.20426297E+04 0.32000000E+00 0.0000E+00 0.9000E+01
       25  1    1    2    0    0 0.40552166E+02 -.49986030E+03 -.93680452E+03 0.10699217E+04 0.12500000E+03 0.0000E+00 0.9000E+01
        2  1    1    2  501    0 0.12592545E+03 0.11611661E+03 -.97105147E+03 0.98604327E+03 0.32000000E+00 0.0000E+00 0.9000E+01
        2  1    1    2  502    0 -.16647762E+03 0.38374369E+03 0.65970373E+03 0.78114220E+03 0.32000000E+00 0.0000E+00 0.9000E+01
#aMCatNLO 1  0  0  5  1 0.27755575D+03 0.00000000D+00  -5  6  0 0.00000000D+00 0.00000000D+00 0.00000000D+00 0.00000000D+00 0.00000000D+00
  <mgrwgt>
 -.7550736473D-03    4    2    0
 0.127390082256934D+04 0.000000000000000D+00 0.000000000000000D+00 0.127390082256934D+04
 0.127390082256934D+04 -.000000000000000D+00 -.000000000000000D+00 -.127390082256934D+04
 0.732465027109063D+03 0.405480131143181D+02 -.499863948218711D+03 -.519010508411499D+03
 0.622314982616945D+03 0.125928931208801D+03 0.116121802504504D+03 -.598275495785380D+03
 0.119302163541268D+04 -.166476944323119D+03 0.383742145714207D+03 0.111728600419688D+04
 0.000000000000000D+00 -.000000000000000D+00 0.000000000000000D+00 0.000000000000000D+00
 0.127390082256934D+04 0.000000000000000D+00 0.000000000000000D+00 0.127390082256934D+04
 0.127390082256934D+04 -.000000000000000D+00 -.000000000000000D+00 -.127390082256934D+04
 0.678092770748033D+03 0.319402619473685D+02 -.480022420516425D+03 -.461240827777671D+03
 0.577334152004158D+03 0.118608223575159D+03 0.132996595989585D+03 -.549143622220898D+03
 0.596317938856324D+03 0.172336263045426D+03 -.797295655039386D+02 0.565277359378514D+03
 0.696056783530168D+03 -.322884748567953D+03 0.426755390030778D+03 0.445107090620056D+03
0.571688021346D-03 0.000000000000D+00 0.000000000000D+00 0.134602805245D-05 0.000000000000D+00  6 2 2 25 2 2 21 0 0.12222730D+00 0.31425073D+00 0.30605382D+06 0.30605382D+06 0.30605382D+06 0.10839105D+01  1  2  2  3  6  5        2 0.213662806711D-02 0.100000000000D+01
0.478689939002D-04 0.000000000000D+00 -.219543253088D-05 0.134602805245D-05 0.000000000000D+00  6 2 2 25 2 2 21 2 0.12222730D+00 0.31425073D+00 0.30605382D+06 0.30605382D+06 0.30605382D+06 0.10839105D+01  1  2  3  3  6  5        2 0.210189491289D-03 0.100000000000D+01
-.440991457712D-03 0.000000000000D+00 0.000000000000D+00 0.134602805245D-05 0.000000000000D+00  6 2 2 25 2 2 21 2 0.12222730D+00 0.31425073D+00 0.30605382D+06 0.30605382D+06 0.30605382D+06 0.10839105D+01  1  2 15  3  6  5        2 -.193636344964D-02 0.100000000000D+01
-.265439726321D-03 0.000000000000D+00 0.000000000000D+00 0.134602805245D-05 0.000000000000D+00  6 2 2 25 2 2 21 2 0.12222730D+00 0.31425073D+00 0.30605382D+06 0.30605382D+06 0.30605382D+06 0.10839105D+01  1  2  5  3  6  5        2 -.116552775602D-02 0.100000000000D+01
  </mgrwgt>
  </event>
  <event>
  5     66 0.18411016E-05 0.21217666E+03 0.75467711E-02 0.94750462E-01
        2 -1    0    0  502    0 0.00000000E+00 0.00000000E+00 0.12860237E+04 0.12860237E+04 0.32000000E+00 0.0000E+00 0.9000E+01
        2 -1    0    0  501    0 0.00000000E+00 0.00000000E+00 -.11843874E+04 0.11843875E+04 0.32000000E+00 0.0000E+00 0.9000E+01
       25  1    1    2    0    0 -.16739554E+03 0.43684006E+03 0.18976602E+03 0.52008331E+03 0.12500000E+03 0.0000E+00 0.9000E+01
        2  1    1    2  501    0 0.15982287E+03 -.15438301E+03 -.98512791E+03 0.10098785E+04 0.32000000E+00 0.0000E+00 0.9000E+01
        2  1    1    2  502    0 0.75726634E+01 -.28245705E+03 0.89699815E+03 0.94044942E+03 0.32000000E+00 0.0000E+00 0.9000E+01
#aMCatNLO 1  0  0  5  1 0.13418738D+02 0.00000000D+00  -5  6  0 0.00000000D+00 0.00000000D+00 0.00000000D+00 0.00000000D+00 0.00000000D+00
  <mgrwgt>
 0.4112214650D-02    8    2    0
 0.123415980329364D+04 0.000000000000000D+00 0.000000000000000D+00 0.123415980329364D+04
 0.123415980329364D+04 -.000000000000000D+00 -.000000000000000D+00 -.123415980329364D+04
 0.512746227060965D+03 -.167413017182125D+03 0.436836536311503D+03 0.168613212965654D+03
 0.105133513553136D+04 0.159840964910429D+03 -.154402280738306D+03 -.102757791375742D+04
 0.904238243994956D+03 0.757205227169581D+01 -.282434255573197D+03 0.858964700791767D+03
 0.000000000000000D+00 0.000000000000000D+00 0.000000000000000D+00 0.000000000000000D+00
 0.123415980329364D+04 0.000000000000000D+00 0.000000000000000D+00 0.123415980329364D+04
 0.123415980329364D+04 -.000000000000000D+00 -.000000000000000D+00 -.123415980329364D+04
 0.512752347603567D+03 -.167411843732526D+03 0.436792767151971D+03 0.168746327707509D+03
 0.105108195133471D+04 0.159843370648036D+03 -.154492013704447D+03 -.102730500971376D+04
 0.741415682153348D+03 0.172425289896008D+01 -.219536494628819D+03 0.708165212518199D+03
 0.163069625495655D+03 0.584422018553008D+01 -.627642588187045D+02 0.150393469488057D+03
0.511494518907D-05 0.000000000000D+00 0.000000000000D+00 0.495014680746D-05 0.000000000000D+00  6 2 2 25 2 2 21 0 0.19784981D+00 0.18221346D+00 0.24453130D+06 0.24453130D+06 0.24453130D+06 0.10911825D+01  1  2  2  3  6  5        2 0.286693492492D-04 0.100000000000D+01
0.583964110840D-06 0.000000000000D+00 -.196427363220D-07 0.495014680746D-05 0.000000000000D+00  6 2 2 25 2 2 21 2 0.19784981D+00 0.18221346D+00 0.24453130D+06 0.24453130D+06 0.24453130D+06 0.10911825D+01  1  2  3  3  6  5        2 0.389724551471D-05 0.100000000000D+01
-.363537458356D-05 0.000000000000D+00 0.000000000000D+00 0.495014680746D-05 0.000000000000D+00  6 2 2 25 2 2 21 2 0.19784981D+00 0.18221346D+00 0.24453130D+06 0.24453130D+06 0.24453130D+06 0.10911825D+01  1  2 15  3  6  5        2 -.242616746939D-04 0.100000000000D+01
0.126156376049D-09 0.000000000000D+00 0.000000000000D+00 0.495014680746D-05 0.000000000000D+00  6 2 2 25 2 2 21 2 0.19784981D+00 0.18221346D+00 0.24456467D+06 0.24456467D+06 0.24456467D+06 0.10911780D+01  1  2 12  3  6  5        2 0.841925809217D-09 0.100000000000D+01
0.128291739185D-02 0.000000000000D+00 0.000000000000D+00 0.495014680746D-05 0.000000000000D+00  6 2 2 25 2 2 21 2 0.19784981D+00 0.18221346D+00 0.24456467D+06 0.24456467D+06 0.24456467D+06 0.10911780D+01  1  2 12  3  6  5        2 0.856176514514D-02 0.100000000000D+01
-.927738158570D-03 0.000000000000D+00 0.000000000000D+00 0.495014680746D-05 0.000000000000D+00  6 2 2 25 2 2 21 2 0.19784981D+00 0.18221346D+00 0.24453130D+06 0.24453130D+06 0.24453130D+06 0.10911825D+01  1  2  4  3  6  5        2 -.619151641377D-02 0.100000000000D+01
-.132344963466D-02 0.000000000000D+00 0.000000000000D+00 0.495014680746D-05 0.000000000000D+00  6 2 2 25 2 2 21 2 0.19784981D+00 0.18221346D+00 0.24453130D+06 0.24453130D+06 0.24453130D+06 0.10911825D+01  1  2  5  3  6  5        2 -.883240606211D-02 0.100000000000D+01
0.158322164742D-02 0.000000000000D+00 -.000000000000D+00 0.495014680746D-05 0.000000000000D+00  6 2 2 25 2 2 21 2 0.19784981D+00 0.18221346D+00 0.24453130D+06 0.24453130D+06 0.24453130D+06 0.10911825D+01  1  2  6  3  6  5        2 0.105660662183D-01 0.100000000000D+01
  </mgrwgt>
  </event>
  <event>
  5     66 0.18411016E-05 0.10079309E+03 0.75467711E-02 0.91406877E-01
        2 -1    0    0  502    0 0.00000000E+00 0.00000000E+00 0.19620126E+04 0.19620127E+04 0.32000000E+00 0.0000E+00 0.9000E+01
        2 -1    0    0  501    0 0.00000000E+00 0.00000000E+00 -.95355812E+03 0.95355818E+03 0.32000000E+00 0.0000E+00 0.9000E+01
       25  1    1    2    0    0 0.24423188E+03 0.46455778E+03 0.10814730E+04 0.12085826E+04 0.12500000E+03 0.0000E+00 0.9000E+01
        2  1    1    2  501    0 -.34502042E+03 -.46160733E+03 -.79282757E+03 0.98015105E+03 0.32000000E+00 0.0000E+00 0.9000E+01
        2  1    1    2  502    0 0.10078854E+03 -.29504491E+01 0.71980910E+03 0.72683717E+03 0.32000000E+00 0.0000E+00 0.9000E+01
#aMCatNLO 1  0  0  1  1 0.96848266D+02 0.00000000D+00  -5  6  0 0.00000000D+00 0.00000000D+00 0.00000000D+00 0.00000000D+00 0.00000000D+00
  <mgrwgt>
 0.1736368882D-02    7    2    0
 0.136780597799450D+04 0.000000000000000D+00 0.000000000000000D+00 0.136780597799450D+04
 0.136780597799450D+04 0.000000000000000D+00 0.000000000000000D+00 -.136780597799450D+04
 0.889598747797679D+03 0.244306182407520D+03 0.464609590182433D+03 0.707257626350663D+03
 0.133690717219321D+04 -.345056115337271D+03 -.461660271271291D+03 -.120628639147580D+04
 0.509106035998109D+03 0.100749932929751D+03 -.294931891114165D+01 0.499028765125137D+03
 0.000000000000000D+00 -.000000000000000D+00 0.000000000000000D+00 0.000000000000000D+00
 0.198835412373303D+04 0.000000000000000D+00 0.000000000000000D+00 0.198835412373303D+04
 0.137352929431389D+04 0.000000000000000D+00 0.000000000000000D+00 -.137352929431389D+04
 0.877934277309650D+03 0.259254411247469D+03 0.433263655864154D+03 0.707257626350663D+03
 0.134848187818041D+04 -.322345473171566D+03 -.509283725880818D+03 -.120628639147580D+04
 0.511308659802987D+03 0.109379696655697D+03 -.210456438893105D+02 0.499028765125137D+03
 0.624158602753878D+03 -.462886347315998D+02 0.970657139059745D+02 0.614824829419145D+03
0.322826727671D-04 0.000000000000D+00 0.000000000000D+00 0.165823459328D-05 0.000000000000D+00  6 2 2 25 2 2 21 0 0.30184810D+00 0.14670126D+00 0.37012614D+06 0.37012614D+06 0.37012614D+06 0.10778662D+01  1  2  2  1  6  1        2 0.103386340740D-03 0.100000000000D+01
0.442468544869D-05 0.000000000000D+00 -.123973963649D-06 0.165823459328D-05 0.000000000000D+00  6 2 2 25 2 2 21 2 0.30184810D+00 0.14670126D+00 0.37012614D+06 0.37012614D+06 0.37012614D+06 0.10778662D+01  1  2  3  1  6  1        2 0.164628798652D-04 0.100000000000D+01
-.233708302353D-04 0.000000000000D+00 0.000000000000D+00 0.165823459328D-05 0.000000000000D+00  6 2 2 25 2 2 21 2 0.30184810D+00 0.14670126D+00 0.37012614D+06 0.37012614D+06 0.37012614D+06 0.10778662D+01  1  2 15  1  6  1        2 -.869555983074D-04 0.100000000000D+01
-.153643153467D-03 0.000000000000D+00 0.000000000000D+00 0.165823459328D-05 0.000000000000D+00  6 2 2 25 2 2 21 2 0.30184810D+00 0.14670126D+00 0.37012614D+06 0.37012614D+06 0.37012614D+06 0.10778662D+01  1  2  4  1  6  1        2 -.571658439220D-03 0.100000000000D+01
-.961527094507D-03 0.000000000000D+00 -.209401349259D-04 0.165823459328D-05 0.000000000000D+00  6 2 2 25 2 2 21 2 0.43921524D+00 0.14670126D+00 0.37012614D+06 0.37012614D+06 0.37012614D+06 0.10778662D+01  1  2  5  1  6  1        2 -.109301198120D-02 0.100000000000D+01
0.906276553998D-03 0.000000000000D+00 0.195489247897D-04 0.165823459328D-05 0.000000000000D+00  6 2 2 25 2 2 21 2 0.30184810D+00 0.14670126D+00 0.37012614D+06 0.37012614D+06 0.37012614D+06 0.10778662D+01  1  2  6  1  6  1        2 0.337197348966D-02 0.100000000000D+01
-.430145231761D-04 0.000000000000D+00 -.951010670291D-06 0.165823459328D-05 0.000000000000D+00  6 21 2 25 2 2 -2 2 0.43921524D+00 0.14670126D+00 0.37012614D+06 0.37012614D+06 0.37012614D+06 0.10778662D+01  1  2  5  4  6  1        2 -.382780988895D-05 0.100000000000D+01
  </mgrwgt>
  </event>
  <event>
  5     66 0.18411016E-05 0.62304664E+02 0.75467711E-02 0.93895956E-01
        2 -1    0    0  502    0 0.00000000E+00 0.00000000E+00 0.46649150E+04 0.46649151E+04 0.32000000E+00 0.0000E+00 0.9000E+01
        2 -1    0    0  501    0 0.00000000E+00 0.00000000E+00 -.96938246E+03 0.96938251E+03 0.32000000E+00 0.0000E+00 0.9000E+01
       25  1    1    2    0    0 -.52105413E+03 0.73166055E+02 -.54996801E+03 0.77132386E+03 0.12500000E+03 0.0000E+00 0.9000E+01
        2  1    1    2  501    0 0.61372208E+02 -.10791213E+02 -.29364545E+03 0.30018453E+03 0.32000000E+00 0.0000E+00 0.9000E+01
        2  1    1    2  502    0 0.45968193E+03 -.62374842E+02 0.45391460E+04 0.45627892E+04 0.32000000E+00 0.0000E+00 0.9000E+01
#aMCatNLO 1  0  0  1  1 0.96848266D+02 0.00000000D+00  -5  6  0 0.00000000D+00 0.00000000D+00 0.00000000D+00 0.00000000D+00 0.00000000D+00
  <mgrwgt>
 0.3335076462D-02    1    2    0
 0.212651992621483D+04 0.000000000000000D+00 0.000000000000000D+00 0.212651992621483D+04
 0.212651992621483D+04 0.000000000000000D+00 0.000000000000000D+00 -.212651992621483D+04
 0.149981096085204D+04 -.521046462141683D+03 0.731647058967674D+02 -.139891580461177D+04
 0.652713921269391D+03 0.613632918064837D+02 -.107896955595062D+02 -.649733477594675D+03
 0.210051497030823D+04 0.459683170335199D+03 -.623750103372612D+02 0.204864928220645D+04
 0.000000000000000D+00 -.000000000000000D+00 -.000000000000000D+00 -.000000000000000D+00
 0.214468831201603D+04 0.000000000000000D+00 0.000000000000000D+00 0.214468831201603D+04
 0.225096817899518D+04 0.000000000000000D+00 0.000000000000000D+00 -.225096817899518D+04
 0.149106799629738D+04 -.492597833291705D+03 0.896700386193224D+02 -.139891580461177D+04
 0.653920193932977D+03 0.737917282355992D+02 -.357896215068539D+01 -.649733477594675D+03
 0.210908041586713D+04 0.499723980567125D+03 -.391441228718660D+02 0.204864928220645D+04
 0.141587884913719D+03 -.809178755110187D+02 -.469469535967710D+02 -.106279866979153D+03
0.774062190862D-01 0.000000000000D+00 0.000000000000D+00 0.612547564784D-04 0.000000000000D+00  6 2 2 25 2 2 21 2 0.71767924D+00 0.14913577D+00 0.28462387D+06 0.28462387D+06 0.28462387D+06 0.10862465D+01  1  2 14  1  6  1        2 0.333507646221D-02 0.100000000000D+01
  </mgrwgt>
  </event>
  <event>
  5     66 0.18411016E-05 0.10788508E+03 0.75467711E-02 0.93043752E-01
        2 -1    0    0  502    0 0.00000000E+00 0.00000000E+00 0.11041140E+04 0.11041140E+04 0.32000000E+00 0.0000E+00 0.9000E+01
        2 -1    0    0  501    0 -.00000000E+00 -.00000000E+00 -.17653378E+04 0.17653378E+04 0.32000000E+00 0.0000E+00 0.9000E+01
       25  1    1    2    0    0 0.90202808E+02 -.46589528E+03 -.22160955E+03 0.53845218E+03 0.12500000E+03 0.0000E+00 0.9000E+01
        2  1    1    2  501    0 -.20159066E+02 0.54795668E+03 -.13276546E+04 0.14364295E+04 0.32000000E+00 0.0000E+00 0.9000E+01
        2  1    1    2  502    0 -.70043743E+02 -.82061398E+02 0.88804029E+03 0.89457020E+03 0.32000000E+00 0.0000E+00 0.9000E+01
#aMCatNLO 1  0  0  5  1 0.15812786D+02 0.00000000D+00  -5  6  0 0.00000000D+00 0.00000000D+00 0.00000000D+00 0.00000000D+00 0.00000000D+00
  <mgrwgt>
 0.3772015099D-02    8    2    0
 0.139611398766003D+04 0.000000000000000D+00 0.000000000000000D+00 0.139611398766003D+04
 0.139611398766003D+04 -.000000000000000D+00 -.000000000000000D+00 -.139611398766003D+04
 0.500907730538410D+03 0.902040907151693D+02 -.465947413083633D+03 -.100198726399394D+03
 0.116176246544729D+04 -.201633811114055D+02 0.548005257102999D+03 -.102419514857853D+04
 0.112955777933436D+04 -.700407096037635D+02 -.820578440193661D+02 0.112439387497792D+04
 0.000000000000000D+00 0.000000000000000D+00 0.000000000000000D+00 0.000000000000000D+00
 0.139611398766003D+04 0.000000000000000D+00 0.000000000000000D+00 0.139611398766003D+04
 0.139611398766003D+04 -.000000000000000D+00 -.000000000000000D+00 -.139611398766003D+04
 0.500893814719883D+03 0.901980402932218D+02 -.465954501598059D+03 -.100101596352921D+03
 0.116155637347491D+04 -.201774128918121D+02 0.547988817839970D+03 -.102396989032467D+04
 0.808354236147514D+03 -.645581132876379D+02 -.522912929077137D+02 0.804073654457359D+03
 0.321423550977759D+03 -.546251411377152D+01 -.297430233341974D+02 0.319997832220236D+03
0.159899765036D-04 0.000000000000D+00 0.000000000000D+00 0.713217823341D-05 0.000000000000D+00  6 2 2 25 2 2 21 0 0.16986369D+00 0.27159044D+00 0.32892805D+06 0.32892805D+06 0.32892805D+06 0.10816063D+01  1  2  2  3  6  5        2 0.533970523240D-04 0.100000000000D+01
0.427946755404D-05 0.000000000000D+00 -.614057200312D-07 0.713217823341D-05 0.000000000000D+00  6 2 2 25 2 2 21 2 0.16986369D+00 0.27159044D+00 0.32892805D+06 0.32892805D+06 0.32892805D+06 0.10816063D+01  1  2  3  3  6  5        2 0.167185126175D-04 0.100000000000D+01
-.124377759826D-04 0.000000000000D+00 0.000000000000D+00 0.713217823341D-05 0.000000000000D+00  6 2 2 25 2 2 21 2 0.16986369D+00 0.27159044D+00 0.32892805D+06 0.32892805D+06 0.32892805D+06 0.10816063D+01  1  2 15  3  6  5        2 -.485904173996D-04 0.100000000000D+01
0.203067966253D-09 0.000000000000D+00 0.000000000000D+00 0.713217823341D-05 0.000000000000D+00  6 2 2 25 2 2 21 2 0.16986369D+00 0.27159044D+00 0.33204628D+06 0.33204628D+06 0.33204628D+06 0.10813058D+01  1  2 12  3  6  5        2 0.792388316875D-09 0.100000000000D+01
0.424340341604D-02 0.000000000000D+00 0.000000000000D+00 0.713217823341D-05 0.000000000000D+00  6 2 2 25 2 2 21 2 0.16986369D+00 0.27159044D+00 0.33204628D+06 0.33204628D+06 0.33204628D+06 0.10813058D+01  1  2 12  3  6  5        2 0.165581177214D-01 0.100000000000D+01
-.491163513618D-02 0.000000000000D+00 0.000000000000D+00 0.713217823341D-05 0.000000000000D+00  6 2 2 25 2 2 21 2 0.16986369D+00 0.27159044D+00 0.32892805D+06 0.32892805D+06 0.32892805D+06 0.10816063D+01  1  2  4  3  6  5        2 -.191881894091D-01 0.100000000000D+01
-.505844022012D-02 0.000000000000D+00 0.000000000000D+00 0.713217823341D-05 0.000000000000D+00  6 2 2 25 2 2 21 2 0.16986369D+00 0.27159044D+00 0.32892805D+06 0.32892805D+06 0.32892805D+06 0.10816063D+01  1  2  5  3  6  5        2 -.197617099738D-01 0.100000000000D+01
0.669168378332D-02 0.000000000000D+00 -.000000000000D+00 0.713217823341D-05 0.000000000000D+00  6 2 2 25 2 2 21 2 0.16986369D+00 0.27159044D+00 0.32892805D+06 0.32892805D+06 0.32892805D+06 0.10816063D+01  1  2  6  3  6  5        2 0.261422708202D-01 0.100000000000D+01
  </mgrwgt>
  </event>
  <event>
  5     66 -.18411016E-05 0.21137876E+02 0.75467711E-02 0.94513090E-01
        2 -1    0    0  502    0 0.00000000E+00 0.00000000E+00 0.22554175E+03 0.22554198E+03 0.32000000E+00 0.0000E+00 0.9000E+01
        2 -1    0    0  501    0 -.00000000E+00 -.00000000E+00 -.21767564E+04 0.21767564E+04 0.32000000E+00 0.0000E+00 0.9000E+01
       25  1    1    2    0    0 -.33541376E+03 0.33766161E+03 -.11901969E+04 0.12879097E+04 0.12500000E+03 0.0000E+00 0.9000E+01
        2  1    1    2  501    0 -.17360514E+02 0.12066466E+02 -.58798648E+03 0.58836654E+03 0.32000000E+00 0.0000E+00 0.9000E+01
        2  1    1    2  502    0 0.35277427E+03 -.34972808E+03 -.17303132E+03 0.52602220E+03 0.32000000E+00 0.0000E+00 0.9000E+01
#aMCatNLO 1  0  0  5  1 0.15812786D+02 0.00000000D+00  -5  6  0 0.00000000D+00 0.00000000D+00 0.00000000D+00 0.00000000D+00 0.00000000D+00
  <mgrwgt>
 -.5779155264D-02    1    2    0
 0.700678069169957D+03 0.000000000000000D+00 0.000000000000000D+00 0.700678069169957D+03
 0.700678069169957D+03 -.000000000000000D+00 -.000000000000000D+00 -.700678069169957D+03
 0.550654315060664D+03 -.335423281906030D+03 0.337670089470253D+03 -.247113956156808D+03
 0.189872686404592D+03 -.173570929605442D+02 0.120640418553147D+02 -.188692414422437D+03
 0.660829136874657D+03 0.352780374866574D+03 -.349734131325567D+03 0.435806370579245D+03
 0.000000000000000D+00 0.000000000000000D+00 -.000000000000000D+00 0.000000000000000D+00
 0.700678069169957D+03 0.000000000000000D+00 0.000000000000000D+00 0.700678069169957D+03
 0.700678069169957D+03 -.000000000000000D+00 -.000000000000000D+00 -.700678069169957D+03
 0.470091926155630D+03 -.289474112574812D+03 0.292117689263005D+03 -.190350762555284D+03
 0.168797340146668D+03 -.121146428362771D+01 -.394217000429399D+01 -.168746951648131D+03
 0.393325044835687D+03 0.256710795033487D+03 0.726551573633922D+02 0.289007589375731D+03
 0.369141827201928D+03 0.339747818249527D+02 -.360830676622103D+03 0.700901248276834D+02
-.362067767779D-03 0.000000000000D+00 0.000000000000D+00 0.118673344055D-05 0.000000000000D+00  6 2 2 25 2 2 21 2 0.34698751D-01 0.33488562D+00 0.25501876D+06 0.25501876D+06 0.25501876D+06 0.10898103D+01  1  2 14  3  6  5        2 -.577915526362D-02 0.100000000000D+01
  </mgrwgt>
  </event>
  <event>
  5     66 0.18411016E-05 0.88961563E+02 0.75467711E-02 0.93712602E-01
        2 -1    0    0  502    0 0.00000000E+00 0.00000000E+00 0.16996080E+04 0.16996080E+04 0.32000000E+00 0.0000E+00 0.9000E+01
        2 -1    0    0  501    0 0.00000000E+00 0.00000000E+00 -.33572177E+04 0.33572177E+04 0.32000000E+00 0.0000E+00 0.9000E+01
       25  1    1    2    0    0 0.29020904E+03 -.40898047E+03 -.29026870E+03 0.59276237E+03 0.12500000E+03 0.0000E+00 0.9000E+01
        2  1    1    2  501    0 -.88925558E+02 0.23769637E+01 -.28817657E+04 0.28831384E+04 0.32000000E+00 0.0000E+00 0.9000E+01
        2  1    1    2  502    0 -.20128349E+03 0.40660350E+03 0.15144247E+04 0.15809249E+04 0.32000000E+00 0.0000E+00 0.9000E+01
#aMCatNLO 1  0  0  2  5 0.64038199D+02 0.00000000D+00  -5  6  0 0.00000000D+00 0.00000000D+00 0.00000000D+00 0.00000000D+00 0.00000000D+00
  <mgrwgt>
 0.2597535934D-01    9    2    0
 0.238871389731623D+04 0.000000000000000D+00 0.000000000000000D+00 0.238871389731623D+04
 0.238871389731623D+04 0.000000000000000D+00 0.000000000000000D+00 -.238871389731623D+04
 0.526705856242205D+03 0.290211680202079D+03 -.408977466070976D+03 -.101531630146886D+03
 0.205190205707806D+04 -.889297956805833D+02 0.237719780715690D+01 -.204997265645471D+04
 0.219881988131220D+04 -.201281884521496D+03 0.406600268263819D+03 0.215150428660160D+04
 0.000000000000000D+00 -.000000000000000D+00 0.000000000000000D+00 -.000000000000000D+00
 0.239670452887893D+04 0.000000000000000D+00 0.000000000000000D+00 0.239670452887893D+04
 0.252077222523664D+04 0.000000000000000D+00 0.000000000000000D+00 -.252077222523664D+04
 0.533343806766158D+03 0.295382630076034D+03 -.413849062032159D+03 -.101531630146886D+03
 0.205119689440991D+04 -.689147720959267D+02 -.164791265500241D+02 -.204997265645471D+04
 0.219331626861917D+04 -.179856929952457D+03 0.386415635905886D+03 0.215150428660160D+04
 0.139619784320329D+03 -.466109280276496D+02 0.439125526762979D+02 -.124067696357705D+03
0.179029258316D-01 0.000000000000D+00 0.000000000000D+00 0.351200209803D-03 0.000000000000D+00  6 2 2 25 2 2 21 0 0.26147815D+00 0.51649504D+00 0.28062591D+06 0.28062591D+06 0.28062591D+06 0.10867035D+01  1  2  2  2  6  2        2 0.317773819037D-02 0.100000000000D+01
0.601824814608D-02 0.000000000000D+00 -.687519491420D-04 0.351200209803D-03 0.000000000000D+00  6 2 2 25 2 2 21 2 0.26147815D+00 0.51649504D+00 0.28062591D+06 0.28062591D+06 0.28062591D+06 0.10867035D+01  1  2  3  2  6  2        2 0.126149722582D-02 0.100000000000D+01
-.126111810188D-01 0.000000000000D+00 0.000000000000D+00 0.351200209803D-03 0.000000000000D+00  6 2 2 25 2 2 21 2 0.26147815D+00 0.51649504D+00 0.28062591D+06 0.28062591D+06 0.28062591D+06 0.10867035D+01  1  2 15  2  6  2        2 -.264345528523D-02 0.100000000000D+01
0.164340848005D-10 0.000000000000D+00 0.000000000000D+00 0.351200209803D-03 0.000000000000D+00  6 2 2 25 2 2 21 2 0.26147815D+00 0.54597266D+00 0.29414825D+06 0.29414825D+06 0.29414825D+06 0.10851854D+01  1  2 12  2  6  2        2 0.250683053257D-11 0.100000000000D+01
-.820613889479D-03 0.000000000000D+00 0.000000000000D+00 0.351200209803D-03 0.000000000000D+00  6 2 2 25 2 2 21 2 0.26147815D+00 0.51649504D+00 0.28062591D+06 0.28062591D+06 0.28062591D+06 0.10867035D+01  1  2  4  2  6  2        2 -.172010545249D-03 0.100000000000D+01
-.433850247612D+00 0.000000000000D+00 -.406613205242D-01 0.351200209803D-03 0.000000000000D+00  6 2 2 25 2 2 21 2 0.26147815D+00 0.54546152D+00 0.28062591D+06 0.28062591D+06 0.28062591D+06 0.10867035D+01  1  2  5  2  6  2        2 -.671063754047D-01 0.100000000000D+01
0.436419635679D+00 0.000000000000D+00 0.407504545051D-01 0.351200209803D-03 0.000000000000D+00  6 2 2 25 2 2 21 2 0.26147815D+00 0.51649504D+00 0.28062591D+06 0.28062591D+06 0.28062591D+06 0.10867035D+01  1  2  6  2  6  2        2 0.914788068455D-01 0.100000000000D+01
0.258620651591D-12 0.000000000000D+00 0.000000000000D+00 0.351200209803D-03 0.000000000000D+00  6 2 21 25 2 2 -2 2 0.26147815D+00 0.54597266D+00 0.29414825D+06 0.29414825D+06 0.29414825D+06 0.10851854D+01  1  2 12  5  6  2        2 0.130207465126D-14 0.100000000000D+01
-.405488333015D-02 0.000000000000D+00 -.384002457743D-03 0.351200209803D-03 0.000000000000D+00  6 2 21 25 2 2 -2 2 0.26147815D+00 0.54546152D+00 0.28062591D+06 0.28062591D+06 0.28062591D+06 0.10867035D+01  1  2  5  5  6  2        2 -.208416923177D-04 0.100000000000D+01
  </mgrwgt>
  </event>
  <event>
  6     66 0.18411016E-05 0.17136296E+02 0.75467711E-02 0.90771675E-01
        2 -1    0    0  503    0 0.00000000E+00 0.00000000E+00 0.40963969E+03 0.40963982E+03 0.32000000E+00 0.0000E+00 0.9000E+01
        2 -1    0    0  501    0 0.00000000E+00 0.00000000E+00 -.27078360E+04 0.27078360E+04 0.32000000E+00 0.0000E+00 0.9000E+01
       25  1    1    2    0    0 -.81542733E+02 -.68897490E+03 -.15608608E+04 0.17126725E+04 0.12500000E+03 0.0000E+00 0.9000E+01
        2  1    1    2  501    0 0.62162093E+02 0.69561849E+03 -.95660742E+03 0.11844185E+04 0.32000000E+00 0.0000E+00 0.9000E+01
        2  1    1    2  502    0 0.13459625E+02 -.57144802E+00 0.12247191E+03 0.12321104E+03 0.32000000E+00 0.0000E+00 0.9000E+01
       21  1    1    2  503  502 0.59210145E+01 -.60721428E+01 0.96800066E+02 0.97173786E+02 0.75000000E+00 0.0000E+00 0.9000E+01
#aMCatNLO 2  0  0  1  4 0.84811161D+01 0.00000000D+00  -5  6  0 0.00000000D+00 0.00000000D+00 0.00000000D+00 0.00000000D+00 0.00000000D+00
  <mgrwgt>
 0.2125173591D-02    2    2    0
 0.920074028177108D+03 0.000000000000000D+00 0.000000000000000D+00 0.920074028177108D+03
 0.920074028177108D+03 0.000000000000000D+00 0.000000000000000D+00 -.920074028177108D+03
 0.781658280964730D+03 -.790403867288643D+02 -.691667517352564D+03 -.332736128044175D+03
 0.696998828562449D+03 0.644245658752504D+02 0.693431438593085D+03 -.284549169729178D+02
 0.361490946827037D+03 0.146158208536139D+02 -.176392124052091D+01 0.361191045017093D+03
 0.000000000000000D+00 0.000000000000000D+00 -.000000000000000D+00 0.000000000000000D+00
 0.120549908310362D+04 0.000000000000000D+00 0.000000000000000D+00 0.120549908310362D+04
 0.920146804444979D+03 0.000000000000000D+00 0.000000000000000D+00 -.920146804444979D+03
 0.779638537134701D+03 -.815522530874481D+02 -.689091537965797D+03 -.332736128044175D+03
 0.699087127007895D+03 0.621784962587395D+02 0.695734837025730D+03 -.284549169729178D+02
 0.361441936549062D+03 0.134527423356695D+02 -.571156236452343D+00 0.361191045017093D+03
 0.285478286856944D+03 0.592101449303900D+01 -.607214282348008D+01 0.285352278658644D+03
-.421065341689D-07 0.000000000000D+00 0.000000000000D+00 0.215425058938D-06 0.000000000000D+00  6 2 2 25 2 2 21 2 0.63026272D-01 0.41655699D+00 0.50802910D+06 0.50802910D+06 0.50802910D+06 0.10680218D+01  1  2 13  1  6  1        2 -.157596528335D-06 0.100000000000D+01
0.567965024082D-03 0.000000000000D+00 0.000000000000D+00 0.215425058938D-06 0.739183823974D-07  6 2 2 25 2 2 21 2 0.63021468D-01 0.41658994D+00 0.50802910D+06 0.50802910D+06 0.50802910D+06 0.10680218D+01  1  2  1  1  6  1        2 0.212533118758D-02 0.100000000000D+01
  </mgrwgt>
  </event>
  <event>
  5     66 0.18411016E-05 0.32220461E+02 0.75467711E-02 0.89946291E-01
        2 -1    0    0  502    0 0.00000000E+00 0.00000000E+00 0.11016096E+04 0.11016097E+04 0.32000000E+00 0.0000E+00 0.9000E+01
        2 -1    0    0  501    0 0.00000000E+00 0.00000000E+00 -.21219988E+04 0.21219988E+04 0.32000000E+00 0.0000E+00 0.9000E+01
       25  1    1    2    0    0 -.50635370E+03 -.24755133E+03 -.23627478E+03 0.62380005E+03 0.12500000E+03 0.0000E+00 0.9000E+01
        2  1    1    2  501    0 0.22689279E+02 0.22873248E+02 -.16134664E+04 0.16137880E+04 0.32000000E+00 0.0000E+00 0.9000E+01
        2  1    1    2  502    0 0.48366442E+03 0.22467808E+03 0.82935195E+03 0.98602042E+03 0.32000000E+00 0.0000E+00 0.9000E+01
#aMCatNLO 1  0  0  2  4 0.40304652D+03 0.00000000D+00  -5  6  0 0.00000000D+00 0.00000000D+00 0.00000000D+00 0.00000000D+00 0.00000000D+00
  <mgrwgt>
 0.4138201974D-02    7    2    0
 0.152892590069825D+04 0.000000000000000D+00 0.000000000000000D+00 0.152892590069825D+04
 0.152892590069825D+04 0.000000000000000D+00 0.000000000000000D+00 -.152892590069825D+04
 0.578754607202751D+03 -.506343541896550D+03 -.247547583939179D+03 -.408449094005938D+02
 0.116291002217879D+04 0.226911504851194D+02 0.228750909636499D+02 -.116246357430542D+04
 0.131618717201495D+04 0.483652391411431D+03 0.224672492975529D+03 0.120330848370602D+04
 0.000000000000000D+00 -.000000000000000D+00 -.000000000000000D+00 -.000000000000000D+00
 0.160326214410639D+04 0.000000000000000D+00 0.000000000000000D+00 0.160326214410639D+04
 0.176037204296619D+04 0.000000000000000D+00 0.000000000000000D+00 -.176037204296619D+04
 0.538253632657003D+03 -.460757235377596D+03 -.245206925864079D+03 -.408449094005938D+02
 0.116875171389076D+04 0.117848771356679D+03 0.277610198907436D+02 -.116246357430542D+04
 0.136107636441120D+04 0.592914393112389D+03 0.230282620360528D+03 0.120330848370602D+04
 0.295552476113608D+03 -.250005929091471D+03 -.128367143871925D+02 -.157109898859801D+03
0.730128526639D-03 0.000000000000D+00 0.000000000000D+00 0.679224786649D-04 0.000000000000D+00  6 2 2 25 2 2 21 0 0.16947841D+00 0.32646136D+00 0.32651006D+06 0.32651006D+06 0.32651006D+06 0.10818415D+01  1  2  2  2  6  2        2 0.156013977353D-02 0.100000000000D+01
0.505245987752D-03 0.000000000000D+00 -.280388578955D-05 0.679224786649D-04 0.000000000000D+00  6 2 2 25 2 2 21 2 0.16947841D+00 0.32646136D+00 0.32651006D+06 0.32651006D+06 0.32651006D+06 0.10818415D+01  1  2  3  2  6  2        2 0.126355557049D-02 0.100000000000D+01
-.531408911925D-03 0.000000000000D+00 0.000000000000D+00 0.679224786649D-04 0.000000000000D+00  6 2 2 25 2 2 21 2 0.16947841D+00 0.32646136D+00 0.32651006D+06 0.32651006D+06 0.32651006D+06 0.10818415D+01  1  2 15  2  6  2        2 -.132898569637D-02 0.100000000000D+01
-.100134043927D-04 0.000000000000D+00 0.000000000000D+00 0.679224786649D-04 0.000000000000D+00  6 2 2 25 2 2 21 2 0.16947841D+00 0.32646136D+00 0.32651006D+06 0.32651006D+06 0.32651006D+06 0.10818415D+01  1  2  4  2  6  2        2 -.250422431977D-04 0.100000000000D+01
-.254437355700D-02 0.000000000000D+00 -.847804938073D-03 0.679224786649D-04 0.000000000000D+00  6 2 2 25 2 2 21 2 0.16947841D+00 0.38240354D+00 0.32651006D+06 0.32651006D+06 0.32651006D+06 0.10818415D+01  1  2  5  2  6  2        2 -.396302435294D-02 0.100000000000D+01
0.265567482460D-02 0.000000000000D+00 0.837309964270D-03 0.679224786649D-04 0.000000000000D+00  6 2 2 25 2 2 21 2 0.16947841D+00 0.32646136D+00 0.32651006D+06 0.32651006D+06 0.32651006D+06 0.10818415D+01  1  2  6  2  6  2        2 0.664150294980D-02 0.100000000000D+01
-.541016704206D-04 0.000000000000D+00 -.201829142708D-04 0.679224786649D-04 0.000000000000D+00  6 2 21 25 2 2 -2 2 0.16947841D+00 0.38240354D+00 0.32651006D+06 0.32651006D+06 0.32651006D+06 0.10818415D+01  1  2  5  5  6  2        2 -.994402724406D-05 0.100000000000D+01
  </mgrwgt>
  </event>
  <event>
  5     66 -.18411016E-05 0.61902833E+02 0.75467711E-02 0.92829554E-01
        2 -1    0    0  502    0 0.00000000E+00 0.00000000E+00 0.11655387E+04 0.11655388E+04 0.32000000E+00 0.0000E+00 0.9000E+01
        2 -1    0    0  501    0 0.00000000E+00 0.00000000E+00 -.96499575E+03 0.96499580E+03 0.32000000E+00 0.0000E+00 0.9000E+01
       25  1    1    2    0    0 0.27290168E+03 -.50608372E+03 0.59871081E+03 0.83944963E+03 0.12500000E+03 0.0000E+00 0.9000E+01
        2  1    1    2  501    0 -.21812243E+03 0.47716893E+03 -.76026572E+03 0.92372704E+03 0.32000000E+00 0.0000E+00 0.9000E+01
        2  1    1    2  502    0 -.54779258E+02 0.28914790E+02 0.36209790E+03 0.36735789E+03 0.32000000E+00 0.0000E+00 0.9000E+01
#aMCatNLO 1  0  0  5  1 0.90275561D+01 0.00000000D+00  -5  6  0 0.00000000D+00 0.00000000D+00 0.00000000D+00 0.00000000D+00 0.00000000D+00
  <mgrwgt>
 -.2018823308D-01    9    2    0
 0.106053760722664D+04 0.000000000000000D+00 0.000000000000000D+00 0.106053760722664D+04
 0.106053760722664D+04 -.000000000000000D+00 -.000000000000000D+00 -.106053760722664D+04
 0.786759012372728D+03 0.272903563369454D+03 -.506138310382671D+03 0.522218727558615D+03
 0.999768295203660D+03 -.218159091508662D+03 0.477241882152900D+03 -.850989683137055D+03
 0.334547906876900D+03 -.547444718607918D+02 0.288964282297709D+02 0.328770955578439D+03
 0.000000000000000D+00 0.000000000000000D+00 0.000000000000000D+00 0.000000000000000D+00
 0.106053760722664D+04 0.000000000000000D+00 0.000000000000000D+00 0.106053760722664D+04
 0.106053760722664D+04 -.000000000000000D+00 -.000000000000000D+00 -.106053760722664D+04
 0.786857576652221D+03 0.272873698156968D+03 -.506122546270975D+03 0.522398084745083D+03
 0.999592176962898D+03 -.218197036790730D+03 0.477261911264200D+03 -.850761800645523D+03
 0.151336669319367D+03 -.334698460319964D+02 0.145983268414001D+02 0.146865400080160D+03
 0.183288791518802D+03 -.212068153342413D+02 0.142623081653749D+02 0.181498315820280D+03
0.781724759587D-05 0.000000000000D+00 0.000000000000D+00 0.176017411909D-05 0.000000000000D+00  6 2 2 25 2 2 21 0 0.17931366D+00 0.14846089D+00 0.34521340D+06 0.34521340D+06 0.34521340D+06 0.10800699D+01  1  2  2  3  6  5        2 0.684749814059D-04 0.100000000000D+01
0.176365500896D-05 0.000000000000D+00 -.300202890967D-07 0.176017411909D-05 0.000000000000D+00  6 2 2 25 2 2 21 2 0.17931366D+00 0.14846089D+00 0.34521340D+06 0.34521340D+06 0.34521340D+06 0.10800699D+01  1  2  3  3  6  5        2 0.180216866272D-04 0.100000000000D+01
-.609328002606D-05 0.000000000000D+00 0.000000000000D+00 0.176017411909D-05 0.000000000000D+00  6 2 2 25 2 2 21 2 0.17931366D+00 0.14846089D+00 0.34521340D+06 0.34521340D+06 0.34521340D+06 0.10800699D+01  1  2 15  3  6  5        2 -.622634146724D-04 0.100000000000D+01
0.430718603272D-09 0.000000000000D+00 0.000000000000D+00 0.176017411909D-05 0.000000000000D+00  6 2 2 25 2 2 21 2 0.17931366D+00 0.14846089D+00 0.34531643D+06 0.34531643D+06 0.34531643D+06 0.10800605D+01  1  2 12  3  6  5        2 0.440110241628D-08 0.100000000000D+01
0.398872454540D-03 0.000000000000D+00 0.000000000000D+00 0.176017411909D-05 0.000000000000D+00  6 2 2 25 2 2 21 2 0.17931366D+00 0.14846089D+00 0.34531643D+06 0.34531643D+06 0.34531643D+06 0.10800605D+01  1  2 12  3  6  5        2 0.407569700990D-02 0.100000000000D+01
-.281745317590D-02 0.000000000000D+00 0.000000000000D+00 0.176017411909D-05 0.000000000000D+00  6 2 2 25 2 2 21 2 0.17931366D+00 0.14846089D+00 0.34521340D+06 0.34521340D+06 0.34521340D+06 0.10800699D+01  1  2  4  3  6  5        2 -.287897905005D-01 0.100000000000D+01
-.407953946792D-03 0.000000000000D+00 0.000000000000D+00 0.176017411909D-05 0.000000000000D+00  6 2 2 25 2 2 21 2 0.17931366D+00 0.14846089D+00 0.34521340D+06 0.34521340D+06 0.34521340D+06 0.10800699D+01  1  2  5  3  6  5        2 -.416862603519D-02 0.100000000000D+01
0.848376763638D-03 0.000000000000D+00 -.000000000000D+00 0.176017411909D-05 0.000000000000D+00  6 2 2 25 2 2 21 2 0.17931366D+00 0.14846089D+00 0.34521340D+06 0.34521340D+06 0.34521340D+06 0.10800699D+01  1  2  6  3  6  5        2 0.866903113051D-02 0.100000000000D+01
0.119167441641D-06 0.000000000000D+00 0.000000000000D+00 0.176017411909D-05 0.647905726490D-07  6 2 2 25 2 2 21 2 0.17931366D+00 0.14846089D+00 0.34531643D+06 0.34531643D+06 0.34531643D+06 0.10800605D+01  1  2 11  3  6  5        2 0.121765837688D-05 0.100000000000D+01
  </mgrwgt>
  </event>
  <event>
  5     66 -.18411016E-05 0.46896565E+02 0.75467711E-02 0.89369645E-01
        2 -1    0    0  502    0 0.00000000E+00 0.00000000E+00 0.20154175E+04 0.20154175E+04 0.32000000E+00 0.0000E+00 0.9000E+01
        2 -1    0    0  501    0 0.00000000E+00 0.00000000E+00 -.16679181E+04 0.16679181E+04 0.32000000E+00 0.0000E+00 0.9000E+01
       25  1    1    2    0    0 -.69887820E+03 -.37563784E+03 0.47291084E+02 0.80460920E+03 0.12500000E+03 0.0000E+00 0.9000E+01
        2  1    1    2  501    0 0.71110608E+03 0.33036065E+03 -.11696327E+04 0.14081373E+04 0.32000000E+00 0.0000E+00 0.9000E+01
        2  1    1    2  502    0 -.12227875E+02 0.45277192E+02 0.14698410E+04 0.14705891E+04 0.32000000E+00 0.0000E+00 0.9000E+01
#aMCatNLO 1  0  0  5  1 0.12508530D+01 0.00000000D+00  -5  6  0 0.00000000D+00 0.00000000D+00 0.00000000D+00 0.00000000D+00 0.00000000D+00
  <mgrwgt>
 -.7248906558D-02    9    2    0
 0.183345337617229D+04 0.000000000000000D+00 0.000000000000000D+00 0.183345337617229D+04
 0.183345337617229D+04 -.000000000000000D+00 -.000000000000000D+00 -.183345337617229D+04
 0.803791490043346D+03 -.698935193955472D+03 -.375662870570429D+03 -.286838245586836D+02
 0.152530727698889D+04 0.711162353928107D+03 0.330388325943387D+03 -.130830193368008D+04
 0.133780798531234D+04 -.122271599726338D+02 0.452745446270393D+02 0.133698575823876D+04
 0.000000000000000D+00 0.000000000000000D+00 0.000000000000000D+00 0.000000000000000D+00
 0.183345337617229D+04 0.000000000000000D+00 0.000000000000000D+00 0.183345337617229D+04
 0.183345337617229D+04 -.000000000000000D+00 -.000000000000000D+00 -.183345337617229D+04
 0.803791454849175D+03 -.698935201344530D+03 -.375662843210337D+03 -.286830165979894D+02
 0.152530596661012D+04 0.711162339906338D+03 0.330388377862983D+03 -.130830040046177D+04
 0.107345904987107D+04 -.995055370184852D+01 0.375706323781111D+02 0.107275522176023D+04
 0.264350281014209D+03 -.227658485995875D+01 0.770383296924081D+01 0.264228195299534D+03
0.460577994355D-06 0.000000000000D+00 0.000000000000D+00 0.178811222943D-04 0.000000000000D+00  6 2 2 25 2 2 21 0 0.31006423D+00 0.25660278D+00 0.66776436D+06 0.66776436D+06 0.66776436D+06 0.10597416D+01  1  2  2  3  6  5        2 0.509146085683D-06 0.100000000000D+01
0.305241508745D-06 0.000000000000D+00 -.176874077129D-08 0.178811222943D-04 0.000000000000D+00  6 2 2 25 2 2 21 2 0.31006423D+00 0.25660278D+00 0.66776436D+06 0.66776436D+06 0.66776436D+06 0.10597416D+01  1  2  3  3  6  5        2 0.378950767830D-06 0.100000000000D+01
-.324752387870D-06 0.000000000000D+00 0.000000000000D+00 0.178811222943D-04 0.000000000000D+00  6 2 2 25 2 2 21 2 0.31006423D+00 0.25660278D+00 0.66776436D+06 0.66776436D+06 0.66776436D+06 0.10597416D+01  1  2 15  3  6  5        2 -.403173104614D-06 0.100000000000D+01
0.997244569943D-14 0.000000000000D+00 0.000000000000D+00 0.178811222943D-04 0.000000000000D+00  6 2 2 25 2 2 21 2 0.31006423D+00 0.25660278D+00 0.66776650D+06 0.66776650D+06 0.66776650D+06 0.10597415D+01  1  2 12  3  6  5        2 0.123805713842D-13 0.100000000000D+01
0.168270224956D-05 0.000000000000D+00 0.000000000000D+00 0.178811222943D-04 0.000000000000D+00  6 2 2 25 2 2 21 2 0.31006423D+00 0.25660278D+00 0.66776650D+06 0.66776650D+06 0.66776650D+06 0.10597415D+01  1  2 12  3  6  5        2 0.208903772926D-05 0.100000000000D+01
-.539688085144D-01 0.000000000000D+00 0.000000000000D+00 0.178811222943D-04 0.000000000000D+00  6 2 2 25 2 2 21 2 0.31006423D+00 0.25660278D+00 0.66776436D+06 0.66776436D+06 0.66776436D+06 0.10597416D+01  1  2  4  3  6  5        2 -.670011149842D-01 0.100000000000D+01
-.310222247747D-01 0.000000000000D+00 0.000000000000D+00 0.178811222943D-04 0.000000000000D+00  6 2 2 25 2 2 21 2 0.31006423D+00 0.25660278D+00 0.66776436D+06 0.66776436D+06 0.66776436D+06 0.10597416D+01  1  2  5  3  6  5        2 -.385134248173D-01 0.100000000000D+01
0.377434580179D-01 0.000000000000D+00 -.000000000000D+00 0.178811222943D-04 0.000000000000D+00  6 2 2 25 2 2 21 2 0.31006423D+00 0.25660278D+00 0.66776436D+06 0.66776436D+06 0.66776436D+06 0.10597416D+01  1  2  6  3  6  5        2 0.468576913252D-01 0.100000000000D+01
0.414065897851D-01 0.000000000000D+00 0.000000000000D+00 0.178811222943D-04 0.604560964938D-04  6 2 2 25 2 2 21 2 0.31006423D+00 0.25660278D+00 0.66776650D+06 0.66776650D+06 0.66776650D+06 0.10597415D+01  1  2 11  3  6  5        2 0.514053679572D-01 0.100000000000D+01
  </mgrwgt>
  </event>
  <event>
  5     66 0.18411016E-05 0.19454226E+02 0.75467711E-02 0.90101200E-01
        2 -1    0    0  502    0 0.00000000E+00 0.00000000E+00 0.16507934E+04 0.16507934E+04 0.32000000E+00 0.0000E+00 0.9000E+01
        2 -1    0    0  501    0 0.00000000E+00 0.00000000E+00 -.69521031E+03 0.69521039E+03 0.32000000E+00 0.0000E+00 0.9000E+01
       25  1    1    2    0    0 -.76493585E+02 -.68610697E+03 0.44922909E+03 0.83308212E+03 0.12500000E+03 0.0000E+00 0.9000E+01
        2  1    1    2  501    0 0.16188961E+02 0.10783782E+02 -.38918600E+03 0.38967194E+03 0.32000000E+00 0.0000E+00 0.9000E+01
        2  1    1    2  502    0 0.60304624E+02 0.67532318E+03 0.89553999E+03 0.11232498E+04 0.32000000E+00 0.0000E+00 0.9000E+01
#aMCatNLO 1  0  0  5  1 0.32785802D+02 0.00000000D+00  -5  6  0 0.00000000D+00 0.00000000D+00 0.00000000D+00 0.00000000D+00 0.00000000D+00
  <mgrwgt>
 0.4250866949D-02    6    2    0
 0.107128367703726D+04 0.000000000000000D+00 0.000000000000000D+00 0.107128367703726D+04
 0.107128367703726D+04 -.000000000000000D+00 -.000000000000000D+00 -.107128367703726D+04
 0.711803381489193D+03 -.764914527352789D+02 -.686062433331456D+03 0.120442721362556D+03
 0.600328400577354D+03 0.161909324826168D+02 0.107852033888334D+02 -.600013101217772D+03
 0.830435572007967D+03 0.603005202526621D+02 0.675277229942622D+03 0.479570379855216D+03
 0.000000000000000D+00 0.000000000000000D+00 0.000000000000000D+00 0.000000000000000D+00
 0.107128367703726D+04 0.000000000000000D+00 0.000000000000000D+00 0.107128367703726D+04
 0.107128367703726D+04 -.000000000000000D+00 -.000000000000000D+00 -.107128367703726D+04
 0.654612417146699D+03 -.701936620166647D+02 -.615536430348315D+03 0.170529086696048D+03
 0.562287672534296D+03 0.215494132041248D+02 0.707923144910145D+02 -.557397073623102D+03
 0.390585559838852D+03 0.284721911295150D+03 0.832834648570961D+02 0.254075534564947D+03
 0.535081704554667D+03 -.236077662482610D+03 0.461460651000204D+03 0.132792452362107D+03
0.401133109219D-03 0.000000000000D+00 0.000000000000D+00 0.223659890514D-05 0.000000000000D+00  6 2 2 25 2 2 21 0 0.25396822D+00 0.10695544D+00 0.48927080D+06 0.48927080D+06 0.48927080D+06 0.10691768D+01  1  2  2  3  6  5        2 0.282916500088D-02 0.100000000000D+01
0.353871832631D-03 0.000000000000D+00 -.154045676017D-05 0.223659890514D-05 0.000000000000D+00  6 2 2 25 2 2 21 2 0.25396822D+00 0.10695544D+00 0.48927080D+06 0.48927080D+06 0.48927080D+06 0.10691768D+01  1  2  3  3  6  5        2 0.285308588886D-02 0.100000000000D+01
-.246167632768D-03 0.000000000000D+00 0.000000000000D+00 0.223659890514D-05 0.000000000000D+00  6 2 2 25 2 2 21 2 0.25396822D+00 0.10695544D+00 0.48927080D+06 0.48927080D+06 0.48927080D+06 0.10691768D+01  1  2 15  3  6  5        2 -.198472253111D-02 0.100000000000D+01
-.978322050362D-05 0.000000000000D+00 0.000000000000D+00 0.223659890514D-05 0.000000000000D+00  6 2 2 25 2 2 21 2 0.25396822D+00 0.10695544D+00 0.48927080D+06 0.48927080D+06 0.48927080D+06 0.10691768D+01  1  2  4  3  6  5        2 -.788770560206D-04 0.100000000000D+01
-.101125406875D-03 0.000000000000D+00 0.000000000000D+00 0.223659890514D-05 0.000000000000D+00  6 2 2 25 2 2 21 2 0.25396822D+00 0.10695544D+00 0.48927080D+06 0.48927080D+06 0.48927080D+06 0.10691768D+01  1  2  5  3  6  5        2 -.815321946408D-03 0.100000000000D+01
0.179539908963D-03 0.000000000000D+00 -.000000000000D+00 0.223659890514D-05 0.000000000000D+00  6 2 2 25 2 2 21 2 0.25396822D+00 0.10695544D+00 0.48927080D+06 0.48927080D+06 0.48927080D+06 0.10691768D+01  1  2  6  3  6  5        2 0.144753759276D-02 0.100000000000D+01
  </mgrwgt>
  </event>
  <event>
  5     66 0.18411016E-05 0.31592952E+02 0.75467711E-02 0.86953150E-01
        2 -1    0    0  502    0 0.00000000E+00 0.00000000E+00 0.24921057E+04 0.24921058E+04 0.32000000E+00 0.0000E+00 0.9000E+01
        2 -1    0    0  501    0 0.00000000E+00 0.00000000E+00 -.13287792E+04 0.13287792E+04 0.32000000E+00 0.0000E+00 0.9000E+01
       25  1    1    2    0    0 0.10043417E+04 0.96254504E+02 0.12870642E+04 0.16401605E+04 0.12500000E+03 0.0000E+00 0.9000E+01
        2  1    1    2  501    0 -.10357971E+04 -.99322661E+02 -.91692950E+03 0.13869032E+04 0.32000000E+00 0.0000E+00 0.9000E+01
        2  1    1    2  502    0 0.31455356E+02 0.30681573E+01 0.79319182E+03 0.79382128E+03 0.32000000E+00 0.0000E+00 0.9000E+01
#aMCatNLO 1  0  0  1  1 0.15176783D+01 0.00000000D+00  -5  6  0 0.00000000D+00 0.00000000D+00 0.00000000D+00 0.00000000D+00 0.00000000D+00
  <mgrwgt>
 0.4721477963D-02   10    2    0
 0.181974127453232D+04 0.000000000000000D+00 0.000000000000000D+00 0.181974127453232D+04
 0.181974127453232D+04 0.000000000000000D+00 0.000000000000000D+00 -.181974127453232D+04
 0.131070287017038D+04 0.100444124364381D+04 0.962640634065545D+02 0.827132415056155D+03
 0.174914282889066D+04 -.103588497115614D+04 -.993310864395913D+02 -.140590764193783D+04
 0.579636850003593D+03 0.314437275123387D+02 0.306702303303681D+01 0.578775226881673D+03
 0.000000000000000D+00 0.000000000000000D+00 0.000000000000000D+00 0.000000000000000D+00
 0.182071748966225D+04 0.000000000000000D+00 0.000000000000000D+00 0.182071748966225D+04
 0.182033139513392D+04 0.000000000000000D+00 0.000000000000000D+00 -.182033139513392D+04
 0.131030102782871D+04 0.100393699863879D+04 0.960533927379931D+02 0.827132415056155D+03
 0.174955752899512D+04 -.103655807285617D+04 -.996123044660333D+02 -.140590764193783D+04
 0.579624308679659D+03 0.312207016522005D+02 0.297384410891405D+01 0.578775226881673D+03
 0.156601929268560D+01 0.140037256518102D+01 0.585067619126107D+00 0.386094528324274D+00
0.558277629532D-03 0.000000000000D+00 0.000000000000D+00 0.345001130159D-05 0.000000000000D+00  6 2 2 25 2 2 21 0 0.38340089D+00 0.20442757D+00 0.10909657D+07 0.10909657D+07 0.10909657D+07 0.10453562D+01  1  2  2  1  6  1        2 0.491010377011D-03 0.100000000000D+01
0.351874772846D-03 0.000000000000D+00 -.214393309528D-05 0.345001130159D-05 0.000000000000D+00  6 2 2 25 2 2 21 2 0.38340089D+00 0.20442757D+00 0.10909657D+07 0.10909657D+07 0.10909657D+07 0.10453562D+01  1  2  3  1  6  1        2 0.338187230716D-03 0.100000000000D+01
-.476823952747D-03 0.000000000000D+00 0.000000000000D+00 0.345001130159D-05 0.000000000000D+00  6 2 2 25 2 2 21 2 0.38340089D+00 0.20442757D+00 0.10909657D+07 0.10909657D+07 0.10909657D+07 0.10453562D+01  1  2 15  1  6  1        2 -.458276024775D-03 0.100000000000D+01
-.163816604563D-02 0.000000000000D+00 0.000000000000D+00 0.345001130159D-05 0.000000000000D+00  6 2 2 25 2 2 21 2 0.38340089D+00 0.20442757D+00 0.10909657D+07 0.10909657D+07 0.10909657D+07 0.10453562D+01  1  2  4  1  6  1        2 -.157444318597D-02 0.100000000000D+01
-.198258339990D+01 0.000000000000D+00 -.140112720192D+00 0.345001130159D-05 0.000000000000D+00  6 2 2 25 2 2 21 2 0.38365658D+00 0.20442757D+00 0.10909657D+07 0.10909657D+07 0.10909657D+07 0.10453562D+01  1  2  5  1  6  1        2 -.190116775170D+01 0.100000000000D+01
0.198267640331D+01 0.000000000000D+00 0.140112689052D+00 0.345001130159D-05 0.000000000000D+00  6 2 2 25 2 2 21 2 0.38340089D+00 0.20442757D+00 0.10909657D+07 0.10909657D+07 0.10909657D+07 0.10453562D+01  1  2  6  1  6  1        2 0.190555246919D+01 0.100000000000D+01
0.163315288446D-02 0.000000000000D+00 0.000000000000D+00 0.345001130159D-05 0.379361690273D-06  6 2 2 25 2 2 21 2 0.38360657D+00 0.20449386D+00 0.10924970D+07 0.10924970D+07 0.10924970D+07 0.10453160D+01  1  2 11  1  6  1        2 0.156558008039D-02 0.100000000000D+01
0.408367074218D-15 0.000000000000D+00 0.000000000000D+00 0.345001130159D-05 0.000000000000D+00  6 21 2 25 2 2 -2 2 0.38367825D+00 0.20442757D+00 0.10924970D+07 0.10924970D+07 0.10924970D+07 0.10453160D+01  1  2 12  4  6  1        2 0.430050637440D-16 0.100000000000D+01
-.247563679973D-03 0.000000000000D+00 -.174974178319D-04 0.345001130159D-05 0.000000000000D+00  6 21 2 25 2 2 -2 2 0.38365658D+00 0.20442757D+00 0.10909657D+07 0.10909657D+07 0.10909657D+07 0.10453562D+01  1  2  5  4  6  1        2 -.260866302404D-04 0.100000000000D+01
0.748447821238D-05 0.000000000000D+00 0.000000000000D+00 0.345001130159D-05 0.577816331599D-09  6 21 2 25 2 2 -2 2 0.38360657D+00 0.20449386D+00 0.10924970D+07 0.10924970D+07 0.10924970D+07 0.10453160D+01  1  2 11  4  6  1        2 0.788629169707D-06 0.100000000000D+01
  </mgrwgt>
  </event>
  <event>
  5     66 0.18411016E-05 0.61522509E+02 0.75467711E-02 0.92746286E-01
        2 -1    0    0  502    0 0.00000000E+00 0.00000000E+00 0.21766875E+04 0.21766875E+04 0.32000000E+00 0.0000E+00 0.9000E+01
        2 -1    0    0  501    0 0.00000000E+00 0.00000000E+00 -.48069148E+03 0.48069158E+03 0.32000000E+00 0.0000E+00 0.9000E+01
       25  1    1    2    0    0 0.39794206E+03 0.26940026E+03 0.29483520E+03 0.57748349E+03 0.12500000E+03 0.0000E+00 0.9000E+01
        2  1    1    2  501    0 -.34956173E+03 -.23138664E+03 -.20909881E+03 0.46846089E+03 0.32000000E+00 0.0000E+00 0.9000E+01
        2  1    1    2  502    0 -.48380329E+02 -.38013616E+02 0.16102596E+04 0.16114347E+04 0.32000000E+00 0.0000E+00 0.9000E+01
#aMCatNLO 1  0  0  5  1 0.15159719D+01 0.00000000D+00  -5  6  0 0.00000000D+00 0.00000000D+00 0.00000000D+00 0.00000000D+00 0.00000000D+00
  <mgrwgt>
 0.8428115875D-02    6    2    0
 0.102289554739012D+04 0.000000000000000D+00 0.000000000000000D+00 0.102289554739012D+04
 0.102289554739012D+04 -.000000000000000D+00 -.000000000000000D+00 -.102289554739012D+04
 0.505735852113104D+03 0.397985982914470D+03 0.269429098098207D+03 -.957019885590587D+02
 0.781883401014207D+03 -.349609949275220D+03 -.231418856483445D+03 -.659969581884814D+03
 0.758171841652924D+03 -.483760336392495D+02 -.380102416147616D+02 0.755671570443872D+03
 0.000000000000000D+00 0.000000000000000D+00 0.000000000000000D+00 0.000000000000000D+00
 0.102289554739012D+04 0.000000000000000D+00 0.000000000000000D+00 0.102289554739012D+04
 0.102289554739012D+04 -.000000000000000D+00 -.000000000000000D+00 -.102289554739012D+04
 0.502807846167515D+03 0.397253082496956D+03 0.268853240181516D+03 -.842535094710128D+02
 0.767873525831913D+03 -.350736144898341D+03 -.232303736133967D+03 -.642377523356463D+03
 0.507514756030725D+03 -.151833466155652D+03 -.539917558198689D+02 0.481251198905077D+03
 0.267594966750083D+03 0.105316528557037D+03 0.174422517723198D+02 0.245379833922399D+03
0.881220686324D-03 0.000000000000D+00 0.000000000000D+00 0.109259103559D-04 0.000000000000D+00  6 2 2 25 2 2 21 0 0.33487501D+00 0.73952545D-01 0.23881998D+06 0.23881998D+06 0.23881998D+06 0.10919570D+01  1  2  2  3  6  5        2 0.512317373415D-02 0.100000000000D+01
0.325172816406D-03 0.000000000000D+00 -.338411946622D-05 0.109259103559D-04 0.000000000000D+00  6 2 2 25 2 2 21 2 0.33487501D+00 0.73952545D-01 0.23881998D+06 0.23881998D+06 0.23881998D+06 0.10919570D+01  1  2  3  3  6  5        2 0.225413398749D-02 0.100000000000D+01
-.610836414808D-03 0.000000000000D+00 0.000000000000D+00 0.109259103559D-04 0.000000000000D+00  6 2 2 25 2 2 21 2 0.33487501D+00 0.73952545D-01 0.23881998D+06 0.23881998D+06 0.23881998D+06 0.10919570D+01  1  2 15  3  6  5        2 -.423438569877D-02 0.100000000000D+01
-.383975828973D-04 0.000000000000D+00 0.000000000000D+00 0.109259103559D-04 0.000000000000D+00  6 2 2 25 2 2 21 2 0.33487501D+00 0.73952545D-01 0.23881998D+06 0.23881998D+06 0.23881998D+06 0.10919570D+01  1  2  4  3  6  5        2 -.266176298509D-03 0.100000000000D+01
-.195434147382D-02 0.000000000000D+00 0.000000000000D+00 0.109259103559D-04 0.000000000000D+00  6 2 2 25 2 2 21 2 0.33487501D+00 0.73952545D-01 0.23881998D+06 0.23881998D+06 0.23881998D+06 0.10919570D+01  1  2  5  3  6  5        2 -.135477116077D-01 0.100000000000D+01
0.275516106878D-02 0.000000000000D+00 -.000000000000D+00 0.109259103559D-04 0.000000000000D+00  6 2 2 25 2 2 21 2 0.33487501D+00 0.73952545D-01 0.23881998D+06 0.23881998D+06 0.23881998D+06 0.10919570D+01  1  2  6  3  6  5        2 0.190990817585D-01 0.100000000000D+01
  </mgrwgt>
  </event>
  <event>
  6     66 0.18411016E-05 0.88603787E+02 0.75467711E-02 0.93768965E-01
        2 -1    0    0  502    0 0.00000000E+00 0.00000000E+00 0.15531520E+04 0.15531520E+04 0.32000000E+00 0.0000E+00 0.9000E+01
        2 -1    0    0  501    0 0.00000000E+00 0.00000000E+00 -.84743546E+03 0.84743552E+03 0.32000000E+00 0.0000E+00 0.9000E+01
       25  1    1    2    0    0 0.14072344E+03 -.44988520E+03 0.15342750E+03 0.51123847E+03 0.12500000E+03 0.0000E+00 0.9000E+01
        2  1    1    2  501    0 -.57871664E+02 -.15683269E+02 -.60543015E+03 0.60839203E+03 0.32000000E+00 0.0000E+00 0.9000E+01
        2  1    1    2  503    0 0.81259427E+02 0.86618033E+02 0.40909334E+03 0.42598503E+03 0.32000000E+00 0.0000E+00 0.9000E+01
       21  1    1    2  502  503 -.16411120E+03 0.37895043E+03 0.74862586E+03 0.85497203E+03 0.75000000E+00 0.0000E+00 0.9000E+01
#aMCatNLO 2  0  0  5  4 0.12899898D+03 0.00000000D+00  -5  6  0 0.00000000D+00 0.00000000D+00 0.00000000D+00 0.00000000D+00 0.00000000D+00
  <mgrwgt>
 0.3061327254D-02    1    2    0
 0.114725594113787D+04 0.000000000000000D+00 0.000000000000000D+00 0.114725594113787D+04
 0.114725594113787D+04 -.000000000000000D+00 -.000000000000000D+00 -.114725594113787D+04
 0.491740245721218D+03 0.141488711627936D+03 -.454037427994049D+03 -.379838444333692D+01
 0.835584083979475D+03 -.566207409828784D+02 -.228606210037487D+02 -.833350013558344D+03
 0.967187552575040D+03 -.848679706450576D+02 0.476898048997797D+03 0.837148398001680D+03
 0.000000000000000D+00 -.000000000000000D+00 0.000000000000000D+00 0.000000000000000D+00
 0.114725594113787D+04 0.000000000000000D+00 0.000000000000000D+00 0.114725594113787D+04
 0.114725594113787D+04 -.000000000000000D+00 -.000000000000000D+00 -.114725594113787D+04
 0.487617863461989D+03 0.140735890337347D+03 -.449807104092144D+03 0.362753999680243D+01
 0.822963266241832D+03 -.578956472148163D+02 -.156965485033096D+02 -.820774177214467D+03
 0.319371162111995D+03 0.812033271029742D+02 0.864360188527658D+02 0.296534607594220D+03
 0.664559590459917D+03 -.164043570225505D+03 0.379067633742688D+03 0.520612029623444D+03
0.407299520065D-03 0.000000000000D+00 0.000000000000D+00 0.136462415050D-04 0.499825236141D-09  6 2 2 25 2 2 21 2 0.23894647D+00 0.13037469D+00 0.29118294D+06 0.29118294D+06 0.29118294D+06 0.10855117D+01  1  2  1  3  6  5        2 0.306132725360D-02 0.100000000000D+01
  </mgrwgt>
  </event>
  <event>
  5     66 0.18411016E-05 0.66990166E+02 0.75467711E-02 0.89820346E-01
        2 -1    0    0  502    0 0.00000000E+00 0.00000000E+00 0.13188946E+04 0.13188946E+04 0.32000000E+00 0.0000E+00 0.9000E+01
        2 -1    0    0  501    0 0.00000000E+00 0.00000000E+00 -.13694912E+04 0.13694913E+04 0.32000000E+00 0.0000E+00 0.9000E+01
       25  1    1    2    0    0 0.27769997E+03 0.42688169E+03 0.25601970E+03 0.58353778E+03 0.12500000E+03 0.0000E+00 0.9000E+01
        2  1    1    2  501    0 -.25174670E+03 -.48864926E+03 -.11416711E+04 0.12671099E+04 0.32000000E+00 0.0000E+00 0.9000E+01
        2  1    1    2  502    0 -.25953270E+02 0.61767576E+02 0.83505475E+03 0.83773823E+03 0.32000000E+00 0.0000E+00 0.9000E+01
#aMCatNLO 1  0  0  1  5 0.40429026D+01 0.00000000D+00  -5  6  0 0.00000000D+00 0.00000000D+00 0.00000000D+00 0.00000000D+00 0.00000000D+00
  <mgrwgt>
 0.1645826825D-01    7    2    0
 0.134395487669401D+04 0.000000000000000D+00 0.000000000000000D+00 0.134395487669401D+04
 0.134395487669401D+04 0.000000000000000D+00 0.000000000000000D+00 -.134395487669401D+04
 0.588556337422121D+03 0.277725280662388D+03 0.426941425248696D+03 0.267139009145709D+03
 0.124585474785341D+04 -.251775258060986D+03 -.488701272224657D+03 -.111800462373964D+04
 0.853498668112499D+03 -.259500226014027D+02 0.617598469759608D+02 0.850865614593928D+03
 0.000000000000000D+00 -.000000000000000D+00 -.000000000000000D+00 0.000000000000000D+00
 0.175332551203497D+04 0.000000000000000D+00 0.000000000000000D+00 0.175332551203497D+04
 0.145999818767489D+04 0.000000000000000D+00 0.000000000000000D+00 -.145999818767489D+04
 0.670347091429283D+03 0.319839296423046D+03 0.509980192991806D+03 0.267139009145709D+03
 0.117779618612415D+04 -.170697018624472D+03 -.328834373474085D+03 -.111800462373964D+04
 0.869333820044334D+03 0.316837822611410D+02 0.175399927355174D+03 0.850865614593928D+03
 0.495846602112100D+03 -.180826060059714D+03 -.356545746872895D+03 0.293327324360083D+03
0.236007670616D-02 0.000000000000D+00 0.000000000000D+00 0.145892186926D-04 0.000000000000D+00  6 2 2 25 2 2 21 0 0.20290687D+00 0.21069097D+00 0.32556918D+06 0.32556918D+06 0.32556918D+06 0.10819335D+01  1  2  2  1  6  1        2 0.977232259247D-02 0.100000000000D+01
0.822585556453D-03 0.000000000000D+00 -.906331597412D-05 0.145892186926D-04 0.000000000000D+00  6 2 2 25 2 2 21 2 0.20290687D+00 0.21069097D+00 0.32556918D+06 0.32556918D+06 0.32556918D+06 0.10819335D+01  1  2  3  1  6  1        2 0.398707054302D-02 0.100000000000D+01
-.174614255924D-02 0.000000000000D+00 0.000000000000D+00 0.145892186926D-04 0.000000000000D+00  6 2 2 25 2 2 21 2 0.20290687D+00 0.21069097D+00 0.32556918D+06 0.32556918D+06 0.32556918D+06 0.10819335D+01  1  2 15  1  6  1        2 -.846354948400D-02 0.100000000000D+01
-.447849401504D-04 0.000000000000D+00 0.000000000000D+00 0.145892186926D-04 0.000000000000D+00  6 2 2 25 2 2 21 2 0.20290687D+00 0.21069097D+00 0.32556918D+06 0.32556918D+06 0.32556918D+06 0.10819335D+01  1  2  4  1  6  1        2 -.217072515125D-03 0.100000000000D+01
-.418178993630D-02 0.000000000000D+00 -.204054417886D-02 0.145892186926D-04 0.000000000000D+00  6 2 2 25 2 2 21 2 0.27482593D+00 0.21069097D+00 0.32556918D+06 0.32556918D+06 0.32556918D+06 0.10819335D+01  1  2  5  1  6  1        2 -.112000755984D-01 0.100000000000D+01
0.467452174022D-02 0.000000000000D+00 0.195010400053D-02 0.145892186926D-04 0.000000000000D+00  6 2 2 25 2 2 21 2 0.20290687D+00 0.21069097D+00 0.32556918D+06 0.32556918D+06 0.32556918D+06 0.10819335D+01  1  2  6  1  6  1        2 0.226573975035D-01 0.100000000000D+01
-.116410565857D-03 0.000000000000D+00 -.795207024704D-04 0.145892186926D-04 0.000000000000D+00  6 21 2 25 2 2 -2 2 0.27482593D+00 0.21069097D+00 0.32556918D+06 0.32556918D+06 0.32556918D+06 0.10819335D+01  1  2  5  4  6  1        2 -.778247895708D-04 0.100000000000D+01
  </mgrwgt>
  </event>
  <event>
  5     66 -.18411016E-05 0.23021594E+03 0.75467711E-02 0.93945414E-01
        2 -1    0    0  502    0 0.00000000E+00 0.00000000E+00 0.66691730E+03 0.66691738E+03 0.32000000E+00 0.0000E+00 0.9000E+01
        2 -1    0    0  501    0 -.00000000E+00 -.00000000E+00 -.85942021E+03 0.85942027E+03 0.32000000E+00 0.0000E+00 0.9000E+01
       25  1    1    2    0    0 -.54597989E+01 -.51691538E+03 -.54239125E+03 0.75963451E+03 0.12500000E+03 0.0000E+00 0.9000E+01
        2  1    1    2  501    0 -.57317438E+02 0.25257922E+03 -.68440062E+02 0.26789120E+03 0.32000000E+00 0.0000E+00 0.9000E+01
        2  1    1    2  502    0 0.62777237E+02 0.26433616E+03 0.41832841E+03 0.49881194E+03 0.32000000E+00 0.0000E+00 0.9000E+01
#aMCatNLO 1  0  0  5  1 0.69160547D+01 0.00000000D+00  -5  6  0 0.00000000D+00 0.00000000D+00 0.00000000D+00 0.00000000D+00 0.00000000D+00
  <mgrwgt>
 -.6866530860D-03    9    2    0
 0.757074838636207D+03 0.000000000000000D+00 0.000000000000000D+00 0.757074838636207D+03
 0.757074838636207D+03 -.000000000000000D+00 -.000000000000000D+00 -.757074838636207D+03
 0.696778739965099D+03 -.545123775773302D+01 -.516961951043256D+03 -.450106918018165D+03
 0.261423145640725D+03 -.573187985833488D+02 0.252656106955667D+03 -.349500790222282D+02
 0.555947791666589D+03 0.627700363410818D+02 0.264305844087589D+03 0.485056997040393D+03
 0.000000000000000D+00 0.000000000000000D+00 0.000000000000000D+00 0.000000000000000D+00
 0.757074838636207D+03 0.000000000000000D+00 0.000000000000000D+00 0.757074838636207D+03
 0.757074838636207D+03 -.000000000000000D+00 -.000000000000000D+00 -.757074838636207D+03
 0.696457481218712D+03 -.541169027057469D+01 -.516795428406274D+03 -.449801313840126D+03
 0.261464988192263D+03 -.573039562246421D+02 0.252718603687785D+03 -.348353843308924D+02
 0.522437631562029D+03 0.607462932681800D+02 0.254126169999191D+03 0.452405632643826D+03
 0.337895762994106D+02 0.196935322703680D+01 0.995065471929831D+01 0.322310655271922D+02
0.254833017476D-06 0.000000000000D+00 0.000000000000D+00 0.471004678194D-08 0.000000000000D+00  6 2 2 25 2 2 21 0 0.10260267D+00 0.13221850D+00 0.28229092D+06 0.28229092D+06 0.28229092D+06 0.10865123D+01  1  2  2  3  6  5        2 0.562657860835D-05 0.100000000000D+01
0.886952044322D-08 0.000000000000D+00 -.978625886183D-09 0.471004678194D-08 0.000000000000D+00  6 2 2 25 2 2 21 2 0.10260267D+00 0.13221850D+00 0.28229092D+06 0.28229092D+06 0.28229092D+06 0.10865123D+01  1  2  3  3  6  5        2 0.231184181464D-06 0.100000000000D+01
-.196700413686D-06 0.000000000000D+00 0.000000000000D+00 0.471004678194D-08 0.000000000000D+00  6 2 2 25 2 2 21 2 0.10260267D+00 0.13221850D+00 0.28229092D+06 0.28229092D+06 0.28229092D+06 0.10865123D+01  1  2 15  3  6  5        2 -.512699919040D-05 0.100000000000D+01
0.367124690150D-07 0.000000000000D+00 0.000000000000D+00 0.471004678194D-08 0.000000000000D+00  6 2 2 25 2 2 21 2 0.10260267D+00 0.13221850D+00 0.28211432D+06 0.28211432D+06 0.28211432D+06 0.10865325D+01  1  2 12  3  6  5        2 0.956966542140D-06 0.100000000000D+01
0.163668267309D-04 0.000000000000D+00 0.000000000000D+00 0.471004678194D-08 0.000000000000D+00  6 2 2 25 2 2 21 2 0.10260267D+00 0.13221850D+00 0.28211432D+06 0.28211432D+06 0.28211432D+06 0.10865325D+01  1  2 12  3  6  5        2 0.426626320776D-03 0.100000000000D+01
-.494423369734D-04 0.000000000000D+00 0.000000000000D+00 0.471004678194D-08 0.000000000000D+00  6 2 2 25 2 2 21 2 0.10260267D+00 0.13221850D+00 0.28229092D+06 0.28229092D+06 0.28229092D+06 0.10865123D+01  1  2  4  3  6  5        2 -.128871524408D-02 0.100000000000D+01
-.220915292735D-04 0.000000000000D+00 0.000000000000D+00 0.471004678194D-08 0.000000000000D+00  6 2 2 25 2 2 21 2 0.10260267D+00 0.13221850D+00 0.28229092D+06 0.28229092D+06 0.28229092D+06 0.10865123D+01  1  2  5  3  6  5        2 -.575816037077D-03 0.100000000000D+01
0.234749384750D-04 0.000000000000D+00 -.000000000000D+00 0.471004678194D-08 0.000000000000D+00  6 2 2 25 2 2 21 2 0.10260267D+00 0.13221850D+00 0.28229092D+06 0.28229092D+06 0.28229092D+06 0.10865123D+01  1  2  6  3  6  5        2 0.611874618364D-03 0.100000000000D+01
0.528223530279D-05 0.000000000000D+00 0.000000000000D+00 0.471004678194D-08 0.149870261090D-08  6 2 2 25 2 2 21 2 0.10260267D+00 0.13221850D+00 0.28211432D+06 0.28211432D+06 0.28211432D+06 0.10865325D+01  1  2 11  3  6  5        2 0.137689525878D-03 0.100000000000D+01
  </mgrwgt>
  </event>
  <event>
  6     66 0.18411016E-05 0.73124746E+02 0.75467711E-02 0.95157822E-01
        2 -1    0    0  502    0 0.00000000E+00 0.00000000E+00 0.25053605E+04 0.25053605E+04 0.32000000E+00 0.0000E+00 0.9000E+01
        2 -1    0    0  501    0 0.00000000E+00 0.00000000E+00 -.11860083E+04 0.11860084E+04 0.32000000E+00 0.0000E+00 0.9000E+01
       25  1    1    2    0    0 -.29433062E+03 0.35108537E+03 0.63087671E+02 0.47905793E+03 0.12500000E+03 0.0000E+00 0.9000E+01
        2  1    1    2  501    0 -.41631980E+01 -.46431900E+02 -.95592366E+03 0.95705977E+03 0.32000000E+00 0.0000E+00 0.9000E+01
        2  1    1    2  503    0 0.16666706E+03 -.11711656E+03 0.86202262E+03 0.88576368E+03 0.32000000E+00 0.0000E+00 0.9000E+01
       21  1    1    2  502  503 0.13182675E+03 -.18753691E+03 0.13501656E+04 0.13694875E+04 0.75000000E+00 0.0000E+00 0.9000E+01
#aMCatNLO 2  0  0  5  2 0.99650454D+02 0.00000000D+00  -5  6  0 0.00000000D+00 0.00000000D+00 0.00000000D+00 0.00000000D+00 0.00000000D+00
  <mgrwgt>
 0.3153440919D-01    1    2    0
 0.172376868833074D+04 0.000000000000000D+00 0.000000000000000D+00 0.172376868833074D+04
 0.172376868833074D+04 -.000000000000000D+00 -.000000000000000D+00 -.172376868833074D+04
 0.488956400910790D+03 -.294403723377087D+03 0.351174211233068D+03 -.116002081956204D+03
 0.139201967293906D+04 -.442152401428359D+01 -.461824747013212D+02 -.139124634734659D+04
 0.156656130281164D+04 0.298825247391371D+03 -.304991736531746D+03 0.150724842930279D+04
 0.000000000000000D+00 0.000000000000000D+00 0.000000000000000D+00 0.000000000000000D+00
 0.172376868833074D+04 0.000000000000000D+00 0.000000000000000D+00 0.172376868833074D+04
 0.172376868833074D+04 -.000000000000000D+00 -.000000000000000D+00 -.172376868833074D+04
 0.488727763652006D+03 -.294313346830565D+03 0.351081969696898D+03 -.115546230554824D+03
 0.139073086860136D+04 -.416428819837032D+01 -.464450187764234D+02 -.138994887237457D+04
 0.618192509140883D+03 0.166589084004140D+03 -.117053890217916D+03 0.583702357570547D+03
 0.949886235267237D+03 0.131888551024795D+03 -.187583060702558D+03 0.921792745358850D+03
0.221328122520D-01 0.000000000000D+00 0.000000000000D+00 0.270867434503D-03 0.198840972987D-06  6 2 2 25 2 2 21 2 0.38544008D+00 0.18246282D+00 0.22772599D+06 0.22772599D+06 0.22772599D+06 0.10935211D+01  1  2  1  3  6  5        2 0.315344091868D-01 0.100000000000D+01
  </mgrwgt>
  </event>
  <event>
  5     66 0.18411016E-05 0.15504139E+03 0.75467711E-02 0.92977398E-01
        2 -1    0    0  502    0 0.00000000E+00 0.00000000E+00 0.53363846E+03 0.53363855E+03 0.32000000E+00 0.0000E+00 0.9000E+01
        2 -1    0    0  501    0 0.00000000E+00 0.00000000E+00 -.23935099E+04 0.23935099E+04 0.32000000E+00 0.0000E+00 0.9000E+01
       25  1    1    2    0    0 0.13799190E+03 0.44562379E+03 -.10814449E+04 0.11843860E+04 0.12500000E+03 0.0000E+00 0.9000E+01
        2  1    1    2  501    0 -.77054299E+02 -.30305578E+03 -.12280088E+04 0.12671961E+04 0.32000000E+00 0.0000E+00 0.9000E+01
        2  1    1    2  502    0 -.60937605E+02 -.14256801E+03 0.44958225E+03 0.47556632E+03 0.32000000E+00 0.0000E+00 0.9000E+01
#aMCatNLO 1  0  0  1  5 0.69864497D+01 0.00000000D+00  -5  6  0 0.00000000D+00 0.00000000D+00 0.00000000D+00 0.00000000D+00 0.00000000D+00
  <mgrwgt>
 0.1855334468D-02    7    2    0
 0.113016330100002D+04 0.000000000000000D+00 0.000000000000000D+00 0.113016330100002D+04
 0.113016330100002D+04 0.000000000000000D+00 0.000000000000000D+00 -.113016330100002D+04
 0.643937866619556D+03 0.137999122138853D+03 0.445651633987071D+03 -.425889468618450D+03
 0.630618399080146D+03 -.770630308622391D+02 -.303087169480014D+03 -.547612109279301D+03
 0.985770336300331D+03 -.609360912766136D+02 -.142564464507057D+03 0.973501577897751D+03
 0.000000000000000D+00 0.000000000000000D+00 -.000000000000000D+00 0.000000000000000D+00
 0.126604105898976D+04 0.000000000000000D+00 0.000000000000000D+00 0.126604105898976D+04
 0.118953379047570D+04 0.000000000000000D+00 0.000000000000000D+00 -.118953379047570D+04
 0.641114157625046D+03 0.897327381496116D+02 0.453837591359884D+03 -.425889468618450D+03
 0.634381863109750D+03 -.124576273322006D+03 -.295028944577430D+03 -.547612109279301D+03
 0.991401041947766D+03 -.135198386619215D+03 -.129969612068614D+03 0.973501577897751D+03
 0.188677786782896D+03 0.170041921791609D+03 -.288390347138398D+02 0.765072685140578D+02
0.347333654620D-03 0.000000000000D+00 0.000000000000D+00 0.334372598542D-05 0.000000000000D+00  6 2 2 25 2 2 21 0 0.82098233D-01 0.36823230D+00 0.22598462D+06 0.22598462D+06 0.22598462D+06 0.10937742D+01  1  2  2  1  6  1        2 0.136022002137D-02 0.100000000000D+01
0.490135384463D-04 0.000000000000D+00 -.133385268879D-05 0.334372598542D-05 0.000000000000D+00  6 2 2 25 2 2 21 2 0.82098233D-01 0.36823230D+00 0.22598462D+06 0.22598462D+06 0.22598462D+06 0.10937742D+01  1  2  3  1  6  1        2 0.229632678895D-03 0.100000000000D+01
-.245838046434D-03 0.000000000000D+00 0.000000000000D+00 0.334372598542D-05 0.000000000000D+00  6 2 2 25 2 2 21 2 0.82098233D-01 0.36823230D+00 0.22598462D+06 0.22598462D+06 0.22598462D+06 0.10937742D+01  1  2 15  1  6  1        2 -.115177257074D-02 0.100000000000D+01
-.183536049157D-04 0.000000000000D+00 0.000000000000D+00 0.334372598542D-05 0.000000000000D+00  6 2 2 25 2 2 21 2 0.82098233D-01 0.36823230D+00 0.22598462D+06 0.22598462D+06 0.22598462D+06 0.10937742D+01  1  2  4  1  6  1        2 -.859882309620D-04 0.100000000000D+01
-.164565498588D-02 0.000000000000D+00 -.585680069378D-03 0.334372598542D-05 0.000000000000D+00  6 2 2 25 2 2 21 2 0.96542230D-01 0.36823230D+00 0.22598462D+06 0.22598462D+06 0.22598462D+06 0.10937742D+01  1  2  5  1  6  1        2 -.638823332432D-02 0.100000000000D+01
0.172547157140D-02 0.000000000000D+00 0.578071980354D-03 0.334372598542D-05 0.000000000000D+00  6 2 2 25 2 2 21 2 0.82098233D-01 0.36823230D+00 0.22598462D+06 0.22598462D+06 0.22598462D+06 0.10937742D+01  1  2  6  1  6  1        2 0.808398397380D-02 0.100000000000D+01
-.352795867903D-04 0.000000000000D+00 -.142170255981D-04 0.334372598542D-05 0.000000000000D+00  6 21 2 25 2 2 -2 2 0.96542230D-01 0.36823230D+00 0.22598462D+06 0.22598462D+06 0.22598462D+06 0.10937742D+01  1  2  5  4  6  1        2 -.192508079678D-03 0.100000000000D+01
  </mgrwgt>
  </event>
  <event>
  5     66 -.18411016E-05 0.13527299E+03 0.75467711E-02 0.92091353E-01
        2 -1    0    0  502    0 0.00000000E+00 0.00000000E+00 0.10725611E+04 0.10725611E+04 0.32000000E+00 0.0000E+00 0.9000E+01
        2 -1    0    0  501    0 0.00000000E+00 0.00000000E+00 -.20659311E+04 0.20659311E+04 0.32000000E+00 0.0000E+00 0.9000E+01
       25  1    1    2    0    0 -.93839565E+02 0.48373108E+03 0.67472210E+02 0.51281490E+03 0.12500000E+03 0.0000E+00 0.9000E+01
        2  1    1    2  501    0 0.20304276E+03 -.56358521E+03 -.17881861E+04 0.18858590E+04 0.32000000E+00 0.0000E+00 0.9000E+01
        2  1    1    2  502    0 -.10920320E+03 0.79854135E+02 0.72734385E+03 0.73981836E+03 0.32000000E+00 0.0000E+00 0.9000E+01
#aMCatNLO 1  0  0  1  4 0.17817812D+02 0.00000000D+00  -5  6  0 0.00000000D+00 0.00000000D+00 0.00000000D+00 0.00000000D+00 0.00000000D+00
  <mgrwgt>
 -.2526402119D-02    9    2    0
 0.148856892598387D+04 0.000000000000000D+00 0.000000000000000D+00 0.148856892598387D+04
 0.148856892598387D+04 0.000000000000000D+00 0.000000000000000D+00 -.148856892598387D+04
 0.563207259436064D+03 -.938662607651333D+02 0.483791396258663D+03 0.242306473453655D+03
 0.139141623215792D+04 0.203059791275470D+03 -.563638463379920D+03 -.125583340251740D+04
 0.102251436037376D+04 -.109193530510336D+03 0.798470671212564D+02 0.101352692906375D+04
 0.000000000000000D+00 -.000000000000000D+00 -.000000000000000D+00 0.000000000000000D+00
 0.161692227247977D+04 0.000000000000000D+00 0.000000000000000D+00 0.161692227247977D+04
 0.148921407383505D+04 0.000000000000000D+00 0.000000000000000D+00 -.148921407383505D+04
 0.565077615167686D+03 -.916997978191452D+02 0.486380952717087D+03 0.242306473453655D+03
 0.138963369782489D+04 0.208399791624554D+03 -.557255602127869D+03 -.125583340251740D+04
 0.102247985723068D+04 -.105266858889611D+03 0.845405874394253D+02 0.101352692906375D+04
 0.128945176091559D+03 -.114331349157973D+02 -.136659380286433D+02 0.127708198644714D+03
0.222426227703D-04 0.000000000000D+00 0.000000000000D+00 0.340040556245D-05 0.000000000000D+00  6 2 2 25 2 2 21 0 0.16500940D+00 0.31783556D+00 0.38613346D+06 0.38613346D+06 0.38613346D+06 0.10765340D+01  1  2  2  1  6  1        2 0.525070586070D-04 0.100000000000D+01
0.433158570990D-05 0.000000000000D+00 -.854175280550D-07 0.340040556245D-05 0.000000000000D+00  6 2 2 25 2 2 21 2 0.16500940D+00 0.31783556D+00 0.38613346D+06 0.38613346D+06 0.38613346D+06 0.10765340D+01  1  2  3  1  6  1        2 0.118504289679D-04 0.100000000000D+01
-.184752257168D-04 0.000000000000D+00 0.000000000000D+00 0.340040556245D-05 0.000000000000D+00  6 2 2 25 2 2 21 2 0.16500940D+00 0.31783556D+00 0.38613346D+06 0.38613346D+06 0.38613346D+06 0.10765340D+01  1  2 15  1  6  1        2 -.505448500125D-04 0.100000000000D+01
0.391861309174D-09 0.000000000000D+00 0.000000000000D+00 0.340040556245D-05 0.000000000000D+00  6 2 2 25 2 2 21 2 0.17927616D+00 0.31783556D+00 0.39581019D+06 0.39581019D+06 0.39581019D+06 0.10757574D+01  1  2 12  1  6  1        2 0.940696105624D-09 0.100000000000D+01
-.157887709692D-02 0.000000000000D+00 0.000000000000D+00 0.340040556245D-05 0.000000000000D+00  6 2 2 25 2 2 21 2 0.16500940D+00 0.31783556D+00 0.38613346D+06 0.38613346D+06 0.38613346D+06 0.10765340D+01  1  2  4  1  6  1        2 -.431951994930D-02 0.100000000000D+01
-.590247562506D-02 0.000000000000D+00 -.635599460472D-04 0.340040556245D-05 0.000000000000D+00  6 2 2 25 2 2 21 2 0.17926832D+00 0.31783556D+00 0.38613346D+06 0.38613346D+06 0.38613346D+06 0.10765340D+01  1  2  5  1  6  1        2 -.142169103728D-01 0.100000000000D+01
0.588772738890D-02 0.000000000000D+00 0.633422631654D-04 0.340040556245D-05 0.000000000000D+00  6 2 2 25 2 2 21 2 0.16500940D+00 0.31783556D+00 0.38613346D+06 0.38613346D+06 0.38613346D+06 0.10765340D+01  1  2  6  1  6  1        2 0.161077489578D-01 0.100000000000D+01
0.575046338931D-11 0.000000000000D+00 0.000000000000D+00 0.340040556245D-05 0.000000000000D+00  6 21 2 25 2 2 -2 2 0.17927616D+00 0.31783556D+00 0.39581019D+06 0.39581019D+06 0.39581019D+06 0.10757574D+01  1  2 12  4  6  1        2 0.740563060626D-11 0.100000000000D+01
-.862148501301D-04 0.000000000000D+00 -.876019597588D-06 0.340040556245D-05 0.000000000000D+00  6 21 2 25 2 2 -2 2 0.17926832D+00 0.31783556D+00 0.38613346D+06 0.38613346D+06 0.38613346D+06 0.10765340D+01  1  2  5  4  6  1        2 -.111534340491D-03 0.100000000000D+01
  </mgrwgt>
  </event>
  <event>
  5     66 -.18411016E-05 0.23719039E+02 0.75467711E-02 0.92815543E-01
        2 -1    0    0  502    0 0.00000000E+00 0.00000000E+00 0.35036903E+04 0.35036903E+04 0.32000000E+00 0.0000E+00 0.9000E+01
        2 -1    0    0  501    0 0.00000000E+00 0.00000000E+00 -.28549981E+04 0.28549981E+04 0.32000000E+00 0.0000E+00 0.9000E+01
       25  1    1    2    0    0 -.20968673E+03 0.52882087E+03 0.74382819E+03 0.94473563E+03 0.12500000E+03 0.0000E+00 0.9000E+01
        2  1    1    2  501    0 0.18810565E+03 -.53866391E+03 -.27249443E+04 0.27840374E+04 0.32000000E+00 0.0000E+00 0.9000E+01
        2  1    1    2  502    0 0.21581079E+02 0.98430368E+01 0.26298084E+04 0.26299154E+04 0.32000000E+00 0.0000E+00 0.9000E+01
#aMCatNLO 1  0  0  2  4 0.17271446D+02 0.00000000D+00  -5  6  0 0.00000000D+00 0.00000000D+00 0.00000000D+00 0.00000000D+00 0.00000000D+00
  <mgrwgt>
 -.1102011995D-01    1    2    0
 0.316275659304956D+04 0.000000000000000D+00 0.000000000000000D+00 0.316275659304956D+04
 0.316275659304956D+04 0.000000000000000D+00 0.000000000000000D+00 -.316275659304956D+04
 0.873481610029454D+03 -.209695074807962D+03 0.528846835652956D+03 0.650917908096548D+03
 0.307808947327903D+04 0.188114677001659D+03 -.538689561751697D+03 -.302474151455418D+04
 0.237394210279064D+04 0.215803978063029D+02 0.984272609874152D+01 0.237382360645763D+04
 0.000000000000000D+00 -.000000000000000D+00 0.000000000000000D+00 -.000000000000000D+00
 0.339620906732574D+04 0.000000000000000D+00 0.000000000000000D+00 0.339620906732574D+04
 0.425972628571064D+04 0.000000000000000D+00 0.000000000000000D+00 -.425972628571064D+04
 0.800616039298866D+03 -.181567795582622D+03 0.410731122401364D+03 0.650917908096548D+03
 0.319341484491299D+04 0.293485085467072D+03 -.981174625870207D+03 -.302474151455418D+04
 0.239838210632622D+04 0.101762396531130D+03 -.326867906076053D+03 0.237382360645763D+04
 0.126352236249830D+04 -.213679686415580D+03 0.897311409544895D+03 -.863517218384897D+03
-.313922612237D+00 0.000000000000D+00 0.000000000000D+00 0.172021414199D-02 0.000000000000D+00  6 2 2 25 2 2 21 2 0.53902928D+00 0.43923048D+00 0.34620492D+06 0.34620492D+06 0.34620492D+06 0.10799789D+01  1  2 14  2  6  2        2 -.110201199462D-01 0.100000000000D+01
  </mgrwgt>
  </event>
  <event>
  5     66 -.18411016E-05 0.23717434E+03 0.75467711E-02 0.93363075E-01
        2 -1    0    0  502    0 0.00000000E+00 0.00000000E+00 0.25595797E+04 0.25595797E+04 0.32000000E+00 0.0000E+00 0.9000E+01
        2 -1    0    0  501    0 0.00000000E+00 0.00000000E+00 -.31459288E+03 0.31459304E+03 0.32000000E+00 0.0000E+00 0.9000E+01
       25  1    1    2    0    0 -.47817354E+03 -.15138690E+03 0.35044975E+03 0.62450617E+03 0.12500000E+03 0.0000E+00 0.9000E+01
        2  1    1    2  501    0 0.25363151E+03 -.83989633E+02 -.55333899E+02 0.27284638E+03 0.32000000E+00 0.0000E+00 0.9000E+01
        2  1    1    2  502    0 0.22454203E+03 0.23537653E+03 0.19498710E+04 0.19768202E+04 0.32000000E+00 0.0000E+00 0.9000E+01
#aMCatNLO 1  0  0  1  5 0.13421886D+02 0.00000000D+00  -5  6  0 0.00000000D+00 0.00000000D+00 0.00000000D+00 0.00000000D+00 0.00000000D+00
  <mgrwgt>
 -.1082253344D-02   11    2    0
 0.897343748182622D+03 0.000000000000000D+00 0.000000000000000D+00 0.897343748182622D+03
 0.897343748182622D+03 0.000000000000000D+00 0.000000000000000D+00 -.897343748182622D+03
 0.561749449045712D+03 -.478200548382191D+03 -.151370451606828D+03 -.219883299526084D+03
 0.506230042589871D+03 0.253671302766205D+03 -.839926813231882D+02 -.429959248833631D+03
 0.726708004729661D+03 0.224529245615987D+03 0.235363132930016D+03 0.649842548359715D+03
 0.000000000000000D+00 0.000000000000000D+00 -.000000000000000D+00 0.000000000000000D+00
 0.115457709372500D+04 0.000000000000000D+00 0.000000000000000D+00 0.115457709372500D+04
 0.897543940717645D+03 0.000000000000000D+00 0.000000000000000D+00 -.897543940717645D+03
 0.565310164517679D+03 -.482413461945145D+03 -.151258614401389D+03 -.219883299526084D+03
 0.504331072682500D+03 0.249893856943917D+03 -.838924041686369D+02 -.429959248833631D+03
 0.725096447428498D+03 0.219102446009606D+03 0.235507194300701D+03 0.649842548359715D+03
 0.257383349813970D+03 0.134171589916215D+02 -.356175730675825D+00 0.257033153007356D+03
0.214969059033D-05 0.000000000000D+00 0.000000000000D+00 0.129234972444D-06 0.000000000000D+00  6 2 2 25 2 2 21 0 0.39378151D+00 0.48398918D-01 0.30770627D+06 0.30770627D+06 0.30770627D+06 0.10837379D+01  1  2  2  1  6  1        2 0.119482563901D-04 0.100000000000D+01
0.130907373682D-06 0.000000000000D+00 -.825537789341D-08 0.129234972444D-06 0.000000000000D+00  6 2 2 25 2 2 21 2 0.39378151D+00 0.48398918D-01 0.30770627D+06 0.30770627D+06 0.30770627D+06 0.10837379D+01  1  2  3  1  6  1        2 0.854557282478D-06 0.100000000000D+01
-.149581279305D-05 0.000000000000D+00 0.000000000000D+00 0.129234972444D-06 0.000000000000D+00  6 2 2 25 2 2 21 2 0.39378151D+00 0.48398918D-01 0.30770627D+06 0.30770627D+06 0.30770627D+06 0.10837379D+01  1  2 15  1  6  1        2 -.976459674938D-05 0.100000000000D+01
0.176973700985D-07 0.000000000000D+00 0.000000000000D+00 0.129234972444D-06 0.000000000000D+00  6 2 2 25 2 2 21 2 0.50674383D+00 0.48398918D-01 0.31331056D+06 0.31331056D+06 0.31331056D+06 0.10831597D+01  1  2 12  1  6  1        2 0.400122865413D-07 0.100000000000D+01
0.925326714847D-03 0.000000000000D+00 0.000000000000D+00 0.129234972444D-06 0.000000000000D+00  6 2 2 25 2 2 21 2 0.50780064D+00 0.48398918D-01 0.31331056D+06 0.31331056D+06 0.31331056D+06 0.10831597D+01  1  2 12  1  6  1        2 0.206984109005D-02 0.100000000000D+01
-.106647763853D-02 0.000000000000D+00 0.000000000000D+00 0.129234972444D-06 0.000000000000D+00  6 2 2 25 2 2 21 2 0.39378151D+00 0.48398918D-01 0.30770627D+06 0.30770627D+06 0.30770627D+06 0.10837379D+01  1  2  4  1  6  1        2 -.696191671233D-02 0.100000000000D+01
-.937319008826D-03 0.000000000000D+00 -.163716909119D-05 0.129234972444D-06 0.000000000000D+00  6 2 2 25 2 2 21 2 0.50668766D+00 0.48398918D-01 0.30770627D+06 0.30770627D+06 0.30770627D+06 0.10837379D+01  1  2  5  1  6  1        2 -.212544885152D-02 0.100000000000D+01
0.908751892496D-03 0.000000000000D+00 0.158648795449D-05 0.129234972444D-06 0.000000000000D+00  6 2 2 25 2 2 21 2 0.39378151D+00 0.48398918D-01 0.30770627D+06 0.30770627D+06 0.30770627D+06 0.10837379D+01  1  2  6  1  6  1        2 0.593229033518D-02 0.100000000000D+01
0.602833996571D-09 0.000000000000D+00 0.000000000000D+00 0.129234972444D-06 0.000000000000D+00  6 21 2 25 2 2 -2 2 0.50674383D+00 0.48398918D-01 0.31331056D+06 0.31331056D+06 0.31331056D+06 0.10831597D+01  1  2 12  4  6  1        2 0.631133259840D-10 0.100000000000D+01
0.317113418955D-04 0.000000000000D+00 0.000000000000D+00 0.129234972444D-06 0.000000000000D+00  6 21 2 25 2 2 -2 2 0.50780064D+00 0.48398918D-01 0.31331056D+06 0.31331056D+06 0.31331056D+06 0.10831597D+01  1  2 12  4  6  1        2 0.325559458291D-05 0.100000000000D+01
-.318901903812D-04 0.000000000000D+00 -.557496128662D-07 0.129234972444D-06 0.000000000000D+00  6 21 2 25 2 2 -2 2 0.50668766D+00 0.48398918D-01 0.30770627D+06 0.30770627D+06 0.30770627D+06 0.10837379D+01  1  2  5  4  6  1        2 -.335309181962D-05 0.100000000000D+01
  </mgrwgt>
  </event>
  <event>
  5     66 0.18411016E-05 0.18081798E+03 0.75467711E-02 0.90776327E-01
        2 -1    0    0  502    0 0.00000000E+00 0.00000000E+00 0.14486652E+04 0.14486652E+04 0.32000000E+00 0.0000E+00 0.9000E+01
        2 -1    0    0  501    0 0.00000000E+00 0.00000000E+00 -.90995018E+03 0.90995023E+03 0.32000000E+00 0.0000E+00 0.9000E+01
       25  1    1    2    0    0 0.55149454E+03 -.12069919E+03 -.61807156E+02 0.58151495E+03 0.12500000E+03 0.0000E+00 0.9000E+01
        2  1    1    2  501    0 -.48317925E+03 -.46731103E+02 -.47933433E+03 0.68220780E+03 0.32000000E+00 0.0000E+00 0.9000E+01
        2  1    1    2  502    0 -.68315286E+02 0.16743030E+03 0.10798565E+04 0.10948927E+04 0.32000000E+00 0.0000E+00 0.9000E+01
#aMCatNLO 1  0  0  5  1 0.19209851D+03 0.00000000D+00  -5  6  0 0.00000000D+00 0.00000000D+00 0.00000000D+00 0.00000000D+00 0.00000000D+00
  <mgrwgt>
 0.8819186925D-03    6    2    0
 0.114813468634096D+04 0.000000000000000D+00 0.000000000000000D+00 0.114813468634096D+04
 0.114813468634096D+04 -.000000000000000D+00 -.000000000000000D+00 -.114813468634096D+04
 0.611831799363742D+03 0.551549708946142D+03 -.120690375505105D+03 -.199849699861014D+03
 0.813219737264474D+03 -.483239373403720D+03 -.467277880204377D+02 -.652397549731448D+03
 0.871217836053705D+03 -.683103355424218D+02 0.167418163525543D+03 0.852247249592462D+03
 0.000000000000000D+00 0.000000000000000D+00 0.000000000000000D+00 0.000000000000000D+00
 0.114813468634096D+04 0.000000000000000D+00 0.000000000000000D+00 0.114813468634096D+04
 0.114813468634096D+04 -.000000000000000D+00 -.000000000000000D+00 -.114813468634096D+04
 0.601974439063710D+03 0.549673195415945D+03 -.116091328427358D+03 -.176438110937699D+03
 0.789816433207548D+03 -.485717626495566D+03 -.406539694965818D+02 -.621478591940526D+03
 0.377400251032472D+03 -.134580362146833D+01 0.249785475678323D+03 0.282906971338882D+03
 0.527078249378190D+03 -.626097652989110D+02 -.930401777543830D+02 0.515009731539343D+03
0.153165583266D-03 0.000000000000D+00 0.000000000000D+00 0.499509777072D-06 0.000000000000D+00  6 2 2 25 2 2 21 0 0.22287158D+00 0.13999234D+00 0.38724677D+06 0.38724677D+06 0.38724677D+06 0.10764435D+01  1  2  2  3  6  5        2 0.998408324040D-03 0.100000000000D+01
0.222228385213D-04 0.000000000000D+00 -.588196169165D-06 0.499509777072D-06 0.000000000000D+00  6 2 2 25 2 2 21 2 0.22287158D+00 0.13999234D+00 0.38724677D+06 0.38724677D+06 0.38724677D+06 0.10764435D+01  1  2  3  3  6  5        2 0.167852977481D-03 0.100000000000D+01
-.107230032218D-03 0.000000000000D+00 0.000000000000D+00 0.499509777072D-06 0.000000000000D+00  6 2 2 25 2 2 21 2 0.22287158D+00 0.13999234D+00 0.38724677D+06 0.38724677D+06 0.38724677D+06 0.10764435D+01  1  2 15  3  6  5        2 -.809927146162D-03 0.100000000000D+01
-.875807477646D-05 0.000000000000D+00 0.000000000000D+00 0.499509777072D-06 0.000000000000D+00  6 2 2 25 2 2 21 2 0.22287158D+00 0.13999234D+00 0.38724677D+06 0.38724677D+06 0.38724677D+06 0.10764435D+01  1  2  4  3  6  5        2 -.661512671670D-04 0.100000000000D+01
-.107310660590D-03 0.000000000000D+00 0.000000000000D+00 0.499509777072D-06 0.000000000000D+00  6 2 2 25 2 2 21 2 0.22287158D+00 0.13999234D+00 0.38724677D+06 0.38724677D+06 0.38724677D+06 0.10764435D+01  1  2  5  3  6  5        2 -.810536146328D-03 0.100000000000D+01
0.185653323453D-03 0.000000000000D+00 -.000000000000D+00 0.499509777072D-06 0.000000000000D+00  6 2 2 25 2 2 21 2 0.22287158D+00 0.13999234D+00 0.38724677D+06 0.38724677D+06 0.38724677D+06 0.10764435D+01  1  2  6  3  6  5        2 0.140227195059D-02 0.100000000000D+01
  </mgrwgt>
  </event>
  <event>
  6     66 0.18411016E-05 0.12561874E+02 0.75467711E-02 0.91484218E-01
        2 -1    0    0  502    0 0.00000000E+00 0.00000000E+00 0.11731814E+04 0.11731814E+04 0.32000000E+00 0.0000E+00 0.9000E+01
        2 -1    0    0  503    0 0.00000000E+00 0.00000000E+00 -.56600839E+03 0.56600849E+03 0.32000000E+00 0.0000E+00 0.9000E+01
       25  1    1    2    0    0 0.12285636E+03 0.63593720E+03 0.42842075E+03 0.78656160E+03 0.12500000E+03 0.0000E+00 0.9000E+01
        2  1    1    2  501    0 -.15854941E+03 -.60318601E+03 0.10775229E+03 0.63291542E+03 0.32000000E+00 0.0000E+00 0.9000E+01
        2  1    1    2  502    0 0.18746667E+02 -.15882662E+02 0.19342139E+03 0.19497598E+03 0.32000000E+00 0.0000E+00 0.9000E+01
       21  1    1    2  503  501 0.16946382E+02 -.16868536E+02 -.12242144E+03 0.12473691E+03 0.75000000E+00 0.0000E+00 0.9000E+01
#aMCatNLO 2  0  0  2  4 0.23910821D+02 0.00000000D+00  -5  6  0 0.00000000D+00 0.00000000D+00 0.00000000D+00 0.00000000D+00 0.00000000D+00
  <mgrwgt>
 0.2235293095D-03    3    2    0
 0.719996308416022D+03 0.000000000000000D+00 0.000000000000000D+00 0.719996308416022D+03
 0.719996308416022D+03 0.000000000000000D+00 0.000000000000000D+00 -.719996308416022D+03
 0.658928769547647D+03 0.130702069667132D+03 0.628299976755867D+03 0.819648188607860D+02
 0.660320298842881D+03 -.150826708666643D+03 -.611039685486655D+03 -.199761617377086D+03
 0.120743548441515D+03 0.201246389995112D+02 -.172602912692122D+02 0.117796798516300D+03
 0.000000000000000D+00 0.000000000000000D+00 -.000000000000000D+00 -.000000000000000D+00
 0.720806183475655D+03 0.000000000000000D+00 0.000000000000000D+00 0.720806183475655D+03
 0.921231479288194D+03 0.000000000000000D+00 0.000000000000000D+00 -.921231479288194D+03
 0.664841559138272D+03 0.122913289500735D+03 0.636052977738989D+03 0.819648188607860D+02
 0.655028395492712D+03 -.158565937746136D+03 -.603336007968474D+03 -.199761617377086D+03
 0.120321165986578D+03 0.187062660190415D+02 -.158484338439046D+02 0.117796798516300D+03
 0.201846542146288D+03 0.169463822263602D+02 -.168685359266103D+02 -.200425295812540D+03
-.155536624009D-07 0.000000000000D+00 0.000000000000D+00 0.836898810238D-07 0.000000000000D+00  6 2 2 25 2 2 21 2 0.18028649D+00 0.87324780D-01 0.44357112D+06 0.44357112D+06 0.44357112D+06 0.10722055D+01  1  2 13  2  6  2        2 -.300596946677D-06 0.100000000000D+01
-.578595837362D-04 0.000000000000D+00 0.000000000000D+00 0.836898810238D-07 0.000000000000D+00  6 2 2 25 2 2 21 2 0.18028649D+00 0.87200290D-01 0.44357112D+06 0.44357112D+06 0.44357112D+06 0.10722055D+01  1  2 13  2  6  2        2 -.112008351113D-02 0.100000000000D+01
0.694322954331D-04 0.000000000000D+00 0.000000000000D+00 0.836898810238D-07 0.110802162781D-08  6 2 2 25 2 2 21 2 0.18048928D+00 0.87078141D-01 0.44357112D+06 0.44357112D+06 0.44357112D+06 0.10722055D+01  1  2  1  2  6  2        2 0.134391341759D-02 0.100000000000D+01
  </mgrwgt>
  </event>
  <event>
  5     66 0.18411016E-05 0.22062425E+03 0.75467711E-02 0.93900885E-01
        2 -1    0    0  502    0 0.00000000E+00 0.00000000E+00 0.20843685E+04 0.20843685E+04 0.32000000E+00 0.0000E+00 0.9000E+01
        2 -1    0    0  501    0 0.00000000E+00 0.00000000E+00 -.80893703E+03 0.80893709E+03 0.32000000E+00 0.0000E+00 0.9000E+01
       25  1    1    2    0    0 0.21674735E+02 0.47993527E+03 0.73869257E+02 0.50188577E+03 0.12500000E+03 0.0000E+00 0.9000E+01
        2  1    1    2  501    0 0.13970172E+03 -.17889335E+03 -.55622477E+03 0.60075411E+03 0.32000000E+00 0.0000E+00 0.9000E+01
        2  1    1    2  502    0 -.16137645E+03 -.30104192E+03 0.17577870E+04 0.17906658E+04 0.32000000E+00 0.0000E+00 0.9000E+01
#aMCatNLO 1  0  0  5  1 0.13984946D+02 0.00000000D+00  -5  6  0 0.00000000D+00 0.00000000D+00 0.00000000D+00 0.00000000D+00 0.00000000D+00
  <mgrwgt>
 0.2119189374D-02    8    2    0
 0.129850798801671D+04 0.000000000000000D+00 0.000000000000000D+00 0.129850798801671D+04
 0.129850798801671D+04 -.000000000000000D+00 -.000000000000000D+00 -.129850798801671D+04
 0.522857255460036D+03 0.216603860024562D+02 0.479945421764482D+03 -.164127783731882D+03
 0.942499817292496D+03 0.139712219598576D+03 -.178910679497773D+03 -.914755360767497D+03
 0.113165890328089D+04 -.161372605601032D+03 -.301034742266709D+03 0.107888314449938D+04
 0.000000000000000D+00 0.000000000000000D+00 -.000000000000000D+00 0.000000000000000D+00
 0.129850798801671D+04 0.000000000000000D+00 0.000000000000000D+00 0.129850798801671D+04
 0.129850798801671D+04 -.000000000000000D+00 -.000000000000000D+00 -.129850798801671D+04
 0.522780118257841D+03 0.216403597190885D+02 0.479908063459275D+03 -.163993894714648D+03
 0.942273023490852D+03 0.139676122003040D+03 -.178978018252873D+03 -.914514024344656D+03
 0.967713424742053D+03 -.146188541123856D+03 -.246232426085367D+03 0.924374261440779D+03
 0.164249409542681D+03 -.151279405982724D+02 -.546976191210344D+02 0.154133657618525D+03
0.511002726062D-05 0.000000000000D+00 0.000000000000D+00 0.292624749560D-05 0.000000000000D+00  6 2 2 25 2 2 21 0 0.32067209D+00 0.12445186D+00 0.28354971D+06 0.28354971D+06 0.28354971D+06 0.10863686D+01  1  2  2  3  6  5        2 0.177870259253D-04 0.100000000000D+01
0.531811510640D-06 0.000000000000D+00 -.196238501818D-07 0.292624749560D-05 0.000000000000D+00  6 2 2 25 2 2 21 2 0.32067209D+00 0.12445186D+00 0.28354971D+06 0.28354971D+06 0.28354971D+06 0.10863686D+01  1  2  3  3  6  5        2 0.218470211973D-05 0.100000000000D+01
-.326272232548D-05 0.000000000000D+00 0.000000000000D+00 0.292624749560D-05 0.000000000000D+00  6 2 2 25 2 2 21 2 0.32067209D+00 0.12445186D+00 0.28354971D+06 0.28354971D+06 0.28354971D+06 0.10863686D+01  1  2 15  3  6  5        2 -.134033886780D-04 0.100000000000D+01
0.226938811308D-09 0.000000000000D+00 0.000000000000D+00 0.292624749560D-05 0.000000000000D+00  6 2 2 25 2 2 21 2 0.32067209D+00 0.12445186D+00 0.28437262D+06 0.28437262D+06 0.28437262D+06 0.10862750D+01  1  2 12  3  6  5        2 0.931933479831D-09 0.100000000000D+01
0.165806020948D-02 0.000000000000D+00 0.000000000000D+00 0.292624749560D-05 0.000000000000D+00  6 2 2 25 2 2 21 2 0.32067209D+00 0.12445186D+00 0.28437262D+06 0.28437262D+06 0.28437262D+06 0.10862750D+01  1  2 12  3  6  5        2 0.680889184130D-02 0.100000000000D+01
-.141189321878D-02 0.000000000000D+00 0.000000000000D+00 0.292624749560D-05 0.000000000000D+00  6 2 2 25 2 2 21 2 0.32067209D+00 0.12445186D+00 0.28354971D+06 0.28354971D+06 0.28354971D+06 0.10863686D+01  1  2  4  3  6  5        2 -.580011159251D-02 0.100000000000D+01
-.172748930823D-02 0.000000000000D+00 0.000000000000D+00 0.292624749560D-05 0.000000000000D+00  6 2 2 25 2 2 21 2 0.32067209D+00 0.12445186D+00 0.28354971D+06 0.28354971D+06 0.28354971D+06 0.10863686D+01  1  2  5  3  6  5        2 -.709659245429D-02 0.100000000000D+01
0.199619172544D-02 0.000000000000D+00 -.000000000000D+00 0.292624749560D-05 0.000000000000D+00  6 2 2 25 2 2 21 2 0.32067209D+00 0.12445186D+00 0.28354971D+06 0.28354971D+06 0.28354971D+06 0.10863686D+01  1  2  6  3  6  5        2 0.820043230862D-02 0.100000000000D+01
  </mgrwgt>
  </event>
  <event>
  6     66 0.18411016E-05 0.23791922E+03 0.75467711E-02 0.93722365E-01
        2 -1    0    0  502    0 0.00000000E+00 0.00000000E+00 0.75382425E+03 0.75382432E+03 0.32000000E+00 0.0000E+00 0.9000E+01
        2 -1    0    0  503    0 0.00000000E+00 0.00000000E+00 -.15725426E+04 0.15725427E+04 0.32000000E+00 0.0000E+00 0.9000E+01
       25  1    1    2    0    0 -.41909117E+03 -.16455657E+03 -.34597712E+02 0.46854911E+03 0.12500000E+03 0.0000E+00 0.9000E+01
        2  1    1    2  501    0 0.36379042E+03 -.67906936E+02 -.10343011E+04 0.10985143E+04 0.32000000E+00 0.0000E+00 0.9000E+01
        2  1    1    2  502    0 0.50519073E+02 0.23539185E+03 0.47599603E+03 0.53341712E+03 0.32000000E+00 0.0000E+00 0.9000E+01
       21  1    1    2  503  501 0.47816711E+01 -.29283476E+01 -.22581564E+03 0.22588649E+03 0.75000000E+00 0.0000E+00 0.9000E+01
#aMCatNLO 2  0  0  2  4 0.10488102D+03 0.00000000D+00  -5  6  0 0.00000000D+00 0.00000000D+00 0.00000000D+00 0.00000000D+00 0.00000000D+00
  <mgrwgt>
 0.1087992327D-01    1    2    0
 0.100752831890503D+04 0.000000000000000D+00 0.000000000000000D+00 0.100752831890503D+04
 0.100752831890503D+04 0.000000000000000D+00 0.000000000000000D+00 -.100752831890503D+04
 0.477526666399645D+03 -.418003449522563D+03 -.165220851942614D+03 0.101891625727305D+03
 0.841751117699533D+03 0.365839177550354D+03 -.691311865697613D+02 -.754935440525315D+03
 0.695778853710885D+03 0.521642719722084D+02 0.234352038512375D+03 0.653043814798009D+03
 0.000000000000000D+00 0.000000000000000D+00 -.000000000000000D+00 -.000000000000000D+00
 0.100757873593290D+04 0.000000000000000D+00 0.000000000000000D+00 0.100757873593290D+04
 0.117650253925703D+04 0.000000000000000D+00 0.000000000000000D+00 -.117650253925703D+04
 0.478280320741336D+03 -.419137498487831D+03 -.164526347970305D+03 0.101891625727305D+03
 0.840785786951228D+03 0.363842875722250D+03 -.679086295268057D+02 -.754935440525315D+03
 0.695998331272220D+03 0.505129516766381D+02 0.235363325096950D+03 0.653043814798009D+03
 0.169016836225144D+03 0.478167108894295D+01 -.292834759983898D+01 -.168923803324129D+03
0.127741471727D-02 0.000000000000D+00 0.000000000000D+00 0.426029085868D-06 0.983104979986D-07  6 2 2 25 2 2 21 2 0.11597287D+00 0.24192944D+00 0.29363218D+06 0.29363218D+06 0.29363218D+06 0.10852419D+01  1  2  1  2  6  2        2 0.108799232712D-01 0.100000000000D+01
  </mgrwgt>
  </event>
  <event>
  5     66 0.18411016E-05 0.17032919E+02 0.75467711E-02 0.94825508E-01
        2 -1    0    0  502    0 0.00000000E+00 0.00000000E+00 0.53592960E+03 0.53592970E+03 0.32000000E+00 0.0000E+00 0.9000E+01
        2 -1    0    0  501    0 -.00000000E+00 -.00000000E+00 -.14389234E+04 0.14389235E+04 0.32000000E+00 0.0000E+00 0.9000E+01
       25  1    1    2    0    0 -.17327205E+03 -.43327153E+03 -.30553421E+01 0.48309601E+03 0.12500000E+03 0.0000E+00 0.9000E+01
        2  1    1    2  501    0 0.17037507E+03 0.41648025E+03 -.11532208E+04 0.12379022E+04 0.32000000E+00 0.0000E+00 0.9000E+01
        2  1    1    2  502    0 0.28969767E+01 0.16791276E+02 0.25328230E+03 0.25385500E+03 0.32000000E+00 0.0000E+00 0.9000E+01
#aMCatNLO 1  0  0  5  2 0.27021581D+02 0.00000000D+00  -5  6  0 0.00000000D+00 0.00000000D+00 0.00000000D+00 0.00000000D+00 0.00000000D+00
  <mgrwgt>
 0.3798633939D-02    6    2    0
 0.878158184018739D+03 0.000000000000000D+00 0.000000000000000D+00 0.878158184018739D+03
 0.878158184018739D+03 -.000000000000000D+00 -.000000000000000D+00 -.878158184018739D+03
 0.541762510010259D+03 -.173300674658265D+03 -.433338632118793D+03 0.245083910791835D+03
 0.799046147003011D+03 0.170404791238059D+03 0.416553692583021D+03 -.660242359561185D+03
 0.415507711024207D+03 0.289588342020572D+01 0.167849395357719D+02 0.415158448769350D+03
 0.000000000000000D+00 0.000000000000000D+00 0.000000000000000D+00 0.000000000000000D+00
 0.878158184018739D+03 0.000000000000000D+00 0.000000000000000D+00 0.878158184018739D+03
 0.878158184018739D+03 -.000000000000000D+00 -.000000000000000D+00 -.878158184018739D+03
 0.542257695605463D+03 -.173292425353836D+03 -.433290818013058D+03 0.246266544183140D+03
 0.797646781900379D+03 0.170416941939662D+03 0.416624119724630D+03 -.658500415671578D+03
 0.266703091600700D+03 0.156647192788659D+01 -.162796097658619D+02 0.266201163673154D+03
 0.149708798930936D+03 0.130901148628767D+01 0.329463080542900D+02 0.146032707815284D+03
0.365750901463D-04 0.000000000000D+00 0.000000000000D+00 0.106613419369D-04 0.000000000000D+00  6 2 2 25 2 2 21 0 0.82450718D-01 0.22137285D+00 0.22574404D+06 0.22574404D+06 0.22574404D+06 0.10938093D+01  1  2  2  3  6  5        2 0.476294592978D-03 0.100000000000D+01
0.256982417533D-04 0.000000000000D+00 -.140457976604D-06 0.106613419369D-04 0.000000000000D+00  6 2 2 25 2 2 21 2 0.82450718D-01 0.22137285D+00 0.22574404D+06 0.22574404D+06 0.22574404D+06 0.10938093D+01  1  2  3  3  6  5        2 0.400384162960D-03 0.100000000000D+01
-.279785986488D-04 0.000000000000D+00 0.000000000000D+00 0.106613419369D-04 0.000000000000D+00  6 2 2 25 2 2 21 2 0.82450718D-01 0.22137285D+00 0.22574404D+06 0.22574404D+06 0.22574404D+06 0.10938093D+01  1  2 15  3  6  5        2 -.435912616448D-03 0.100000000000D+01
-.110428165447D-04 0.000000000000D+00 0.000000000000D+00 0.106613419369D-04 0.000000000000D+00  6 2 2 25 2 2 21 2 0.82450718D-01 0.22137285D+00 0.22574404D+06 0.22574404D+06 0.22574404D+06 0.10938093D+01  1  2  4  3  6  5        2 -.172049469432D-03 0.100000000000D+01
-.506346463071D-03 0.000000000000D+00 0.000000000000D+00 0.106613419369D-04 0.000000000000D+00  6 2 2 25 2 2 21 2 0.82450718D-01 0.22137285D+00 0.22574404D+06 0.22574404D+06 0.22574404D+06 0.10938093D+01  1  2  5  3  6  5        2 -.788898737629D-02 0.100000000000D+01
0.732910537618D-03 0.000000000000D+00 -.000000000000D+00 0.106613419369D-04 0.000000000000D+00  6 2 2 25 2 2 21 2 0.82450718D-01 0.22137285D+00 0.22574404D+06 0.22574404D+06 0.22574404D+06 0.10938093D+01  1  2  6  3  6  5        2 0.114189046452D-01 0.100000000000D+01
  </mgrwgt>
  </event>
  <event>
  5     66 0.18411016E-05 0.46824710E+02 0.75467711E-02 0.85936326E-01
        2 -1    0    0  502    0 0.00000000E+00 0.00000000E+00 0.20043813E+04 0.20043813E+04 0.32000000E+00 0.0000E+00 0.9000E+01
        2 -1    0    0  501    0 -.00000000E+00 -.00000000E+00 -.27393157E+04 0.27393157E+04 0.32000000E+00 0.0000E+00 0.9000E+01
       25  1    1    2    0    0 0.44081968E+03 -.71513404E+03 0.56745549E+03 0.10214546E+04 0.12500000E+03 0.0000E+00 0.9000E+01
        2  1    1    2  501    0 0.20988246E+01 0.46774565E+02 -.23792257E+04 0.23796864E+04 0.32000000E+00 0.0000E+00 0.9000E+01
        2  1    1    2  502    0 -.44291851E+03 0.66835947E+03 0.10768358E+04 0.13425560E+04 0.32000000E+00 0.0000E+00 0.9000E+01
#aMCatNLO 1  0  0  5  1 0.92265372D+01 0.00000000D+00  -5  6  0 0.00000000D+00 0.00000000D+00 0.00000000D+00 0.00000000D+00 0.00000000D+00
  <mgrwgt>
 0.5208215385D-02    4    2    0
 0.234321001193219D+04 0.000000000000000D+00 0.000000000000000D+00 0.234321001193219D+04
 0.234321001193219D+04 -.000000000000000D+00 -.000000000000000D+00 -.234321001193219D+04
 0.112298168898895D+04 0.440788951011631D+03 -.715090911937543D+03 0.734719648665303D+03
 0.203570766401141D+04 0.209893801171011D+01 0.467776430968694D+02 -.203516906911448D+04
 0.152773067086403D+04 -.442887889023341D+03 0.668313268840674D+03 0.130044942044918D+04
 0.000000000000000D+00 0.000000000000000D+00 0.000000000000000D+00 -.000000000000000D+00
 0.234321001193219D+04 0.000000000000000D+00 0.000000000000000D+00 0.234321001193219D+04
 0.234321001193219D+04 -.000000000000000D+00 -.000000000000000D+00 -.234321001193219D+04
 0.115871348551057D+04 0.395763861169296D+03 -.647148514508857D+03 0.866926587356397D+03
 0.182043244222534D+04 -.739949489668711D+02 0.161602535819931D+03 -.181173498190284D+04
 0.631902753710367D+03 0.480215510037355D+02 -.410064420938553D+03 0.478374530536764D+03
 0.107537134241811D+04 -.369790463206160D+03 0.895610399627479D+03 0.466433864009680D+03
0.193892261589D-01 0.000000000000D+00 0.000000000000D+00 0.271221123355D-04 0.000000000000D+00  6 2 2 25 2 2 21 0 0.30836636D+00 0.42143318D+00 0.72067116D+06 0.72067116D+06 0.72067116D+06 0.10574673D+01  1  2  2  3  6  5        2 0.528266070887D-02 0.100000000000D+01
0.143048005621D-01 0.000000000000D+00 -.744597337508D-04 0.271221123355D-04 0.000000000000D+00  6 2 2 25 2 2 21 2 0.30836636D+00 0.42143318D+00 0.72067116D+06 0.72067116D+06 0.72067116D+06 0.10574673D+01  1  2  3  3  6  5        2 0.435820765091D-02 0.100000000000D+01
-.144969340379D-01 0.000000000000D+00 0.000000000000D+00 0.271221123355D-04 0.000000000000D+00  6 2 2 25 2 2 21 2 0.30836636D+00 0.42143318D+00 0.72067116D+06 0.72067116D+06 0.72067116D+06 0.10574673D+01  1  2 15  3  6  5        2 -.441674447429D-02 0.100000000000D+01
-.522159452021D-04 0.000000000000D+00 0.000000000000D+00 0.271221123355D-04 0.000000000000D+00  6 2 2 25 2 2 21 2 0.30836636D+00 0.42143318D+00 0.72067116D+06 0.72067116D+06 0.72067116D+06 0.10574673D+01  1  2  4  3  6  5        2 -.159085008484D-04 0.100000000000D+01
  </mgrwgt>
  </event>
  <event>
  5     66 0.18411016E-05 0.84384958E+02 0.75467711E-02 0.92017502E-01
        2 -1    0    0  502    0 0.00000000E+00 0.00000000E+00 0.65993031E+03 0.65993039E+03 0.32000000E+00 0.0000E+00 0.9000E+01
        2 -1    0    0  501    0 -.00000000E+00 -.00000000E+00 -.20734455E+04 0.20734456E+04 0.32000000E+00 0.0000E+00 0.9000E+01
       25  1    1    2    0    0 0.87496743E+02 -.52379230E+03 -.14190805E+04 0.15203383E+04 0.12500000E+03 0.0000E+00 0.9000E+01
        2  1    1    2  501    0 -.27394166E+02 0.58303647E+03 -.45795774E+03 0.74189444E+03 0.32000000E+00 0.0000E+00 0.9000E+01
        2  1    1    2  502    0 -.60102578E+02 -.59244176E+02 0.46352304E+03 0.47114319E+03 0.32000000E+00 0.0000E+00 0.9000E+01
#aMCatNLO 1  0  0  5  2 0.75026679D+02 0.00000000D+00  -5  6  0 0.00000000D+00 0.00000000D+00 0.00000000D+00 0.00000000D+00 0.00000000D+00
  <mgrwgt>
 0.1198103324D-02    7    2    0
 0.116975626023022D+04 0.000000000000000D+00 0.000000000000000D+00 0.116975626023022D+04
 0.116975626023022D+04 -.000000000000000D+00 -.000000000000000D+00 -.116975626023022D+04
 0.918923592295903D+03 0.875037436971356D+02 -.523858776569909D+03 -.739398840631814D+03
 0.590150459622953D+03 -.274069512004967D+02 0.583097249794946D+03 -.867411165517656D+02
 0.830438468541592D+03 -.600967924966392D+02 -.592384732250366D+02 0.826139957183580D+03
 0.000000000000000D+00 0.000000000000000D+00 -.000000000000000D+00 0.000000000000000D+00
 0.116975626023022D+04 0.000000000000000D+00 0.000000000000000D+00 0.116975626023022D+04
 0.116975626023022D+04 -.000000000000000D+00 -.000000000000000D+00 -.116975626023022D+04
 0.913305830572349D+03 0.869723412490613D+02 -.524382589378949D+03 -.732093745343677D+03
 0.589160224810646D+03 -.277489872888415D+02 0.582760098762092D+03 -.820392070547444D+02
 0.631839028198072D+03 -.362163699097082D+02 0.294683205662836D+02 0.630111537894562D+03
 0.205207436879381D+03 -.230069840505118D+02 -.878458299494267D+02 0.184021414503859D+03
0.108348615921D-03 0.000000000000D+00 0.000000000000D+00 0.197350064016D-06 0.000000000000D+00  6 2 2 25 2 2 21 0 0.10152775D+00 0.31899163D+00 0.36829967D+06 0.36829967D+06 0.36829967D+06 0.10780222D+01  1  2  2  3  6  5        2 0.484725412889D-03 0.100000000000D+01
0.318849958879D-04 0.000000000000D+00 -.416087213982D-06 0.197350064016D-06 0.000000000000D+00  6 2 2 25 2 2 21 2 0.10152775D+00 0.31899163D+00 0.36829967D+06 0.36829967D+06 0.36829967D+06 0.10780222D+01  1  2  3  3  6  5        2 0.165773157943D-03 0.100000000000D+01
-.709772276146D-04 0.000000000000D+00 0.000000000000D+00 0.197350064016D-06 0.000000000000D+00  6 2 2 25 2 2 21 2 0.10152775D+00 0.31899163D+00 0.36829967D+06 0.36829967D+06 0.36829967D+06 0.10780222D+01  1  2 15  3  6  5        2 -.369017427667D-03 0.100000000000D+01
0.796509084145D-08 0.000000000000D+00 0.000000000000D+00 0.197350064016D-06 0.000000000000D+00  6 2 2 25 2 2 21 2 0.10152775D+00 0.31899163D+00 0.40130048D+06 0.40130048D+06 0.40130048D+06 0.10753260D+01  1  2 12  3  6  5        2 0.409899852663D-07 0.100000000000D+01
-.479470069844D-04 0.000000000000D+00 0.000000000000D+00 0.197350064016D-06 0.000000000000D+00  6 2 2 25 2 2 21 2 0.10152775D+00 0.31899163D+00 0.36829967D+06 0.36829967D+06 0.36829967D+06 0.10780222D+01  1  2  4  3  6  5        2 -.249281097281D-03 0.100000000000D+01
-.811157410269D-03 0.000000000000D+00 0.000000000000D+00 0.197350064016D-06 0.000000000000D+00  6 2 2 25 2 2 21 2 0.10152775D+00 0.31899163D+00 0.36829967D+06 0.36829967D+06 0.36829967D+06 0.10780222D+01  1  2  5  3  6  5        2 -.421728533264D-02 0.100000000000D+01
0.103540067580D-02 0.000000000000D+00 -.000000000000D+00 0.197350064016D-06 0.000000000000D+00  6 2 2 25 2 2 21 2 0.10152775D+00 0.31899163D+00 0.36829967D+06 0.36829967D+06 0.36829967D+06 0.10780222D+01  1  2  6  3  6  5        2 0.538314762114D-02 0.100000000000D+01
  </mgrwgt>
  </event>
  <event>
  5     66 -.18411016E-05 0.14759195E+03 0.75467711E-02 0.95079146E-01
        2 -1    0    0  502    0 0.00000000E+00 0.00000000E+00 0.58413912E+03 0.58413920E+03 0.32000000E+00 0.0000E+00 0.9000E+01
        2 -1    0    0  501    0 -.00000000E+00 -.00000000E+00 -.15441172E+04 0.15441172E+04 0.32000000E+00 0.0000E+00 0.9000E+01
       25  1    1    2    0    0 -.17370503E+03 -.43894042E+03 -.85791136E+02 0.49580969E+03 0.12500000E+03 0.0000E+00 0.9000E+01
        2  1    1    2  501    0 0.61555254E+02 0.13411701E+03 -.11782958E+04 0.11875005E+04 0.32000000E+00 0.0000E+00 0.9000E+01
        2  1    1    2  502    0 0.11214977E+03 0.30482341E+03 0.30410882E+03 0.44494624E+03 0.32000000E+00 0.0000E+00 0.9000E+01
#aMCatNLO 1  0  0  5  1 0.10346181D+02 0.00000000D+00  -5  6  0 0.00000000D+00 0.00000000D+00 0.00000000D+00 0.00000000D+00 0.00000000D+00
  <mgrwgt>
 -.8278057853D-02    8    2    0
 0.949725953196905D+03 0.000000000000000D+00 0.000000000000000D+00 0.949725953196905D+03
 0.949725953196905D+03 -.000000000000000D+00 -.000000000000000D+00 -.949725953196905D+03
 0.512198107481399D+03 -.173700163488760D+03 -.438922339406829D+03 0.154587627192933D+03
 0.735099110078851D+03 0.615649547663909D+02 0.134138515444535D+03 -.720130069263649D+03
 0.652154688833560D+03 0.112135208722369D+03 0.304783823962295D+03 0.565542442070716D+03
 0.000000000000000D+00 0.000000000000000D+00 0.000000000000000D+00 0.000000000000000D+00
 0.949725953196905D+03 0.000000000000000D+00 0.000000000000000D+00 0.949725953196905D+03
 0.949725953196905D+03 -.000000000000000D+00 -.000000000000000D+00 -.949725953196905D+03
 0.512177281848592D+03 -.173681983940108D+03 -.438872927340634D+03 0.154679313884898D+03
 0.734985341163669D+03 0.615910442957596D+02 0.134209426861359D+03 -.719998489393956D+03
 0.457578028306049D+03 0.737715902871652D+02 0.222191167907221D+03 0.393149449139864D+03
 0.194711255075500D+03 0.383193493571830D+02 0.824723325720541D+02 0.172169726369194D+03
0.951719966007D-05 0.000000000000D+00 0.000000000000D+00 0.222102039450D-05 0.000000000000D+00  6 2 2 25 2 2 21 0 0.89867566D-01 0.23755650D+00 0.23071812D+06 0.23071812D+06 0.23071812D+06 0.10930912D+01  1  2  2  3  6  5        2 0.981703267992D-04 0.100000000000D+01
0.140637062265D-05 0.000000000000D+00 -.365485526309D-07 0.222102039450D-05 0.000000000000D+00  6 2 2 25 2 2 21 2 0.89867566D-01 0.23755650D+00 0.23071812D+06 0.23071812D+06 0.23071812D+06 0.10930912D+01  1  2  3  3  6  5        2 0.173333956523D-04 0.100000000000D+01
-.660510315549D-05 0.000000000000D+00 0.000000000000D+00 0.222102039450D-05 0.000000000000D+00  6 2 2 25 2 2 21 2 0.89867566D-01 0.23755650D+00 0.23071812D+06 0.23071812D+06 0.23071812D+06 0.10930912D+01  1  2 15  3  6  5        2 -.814073221345D-04 0.100000000000D+01
0.166935693649D-08 0.000000000000D+00 0.000000000000D+00 0.222102039450D-05 0.000000000000D+00  6 2 2 25 2 2 21 2 0.89867566D-01 0.23755650D+00 0.23087404D+06 0.23087404D+06 0.23087404D+06 0.10930690D+01  1  2 12  3  6  5        2 0.205731845364D-07 0.100000000000D+01
0.232323931944D-02 0.000000000000D+00 0.000000000000D+00 0.222102039450D-05 0.000000000000D+00  6 2 2 25 2 2 21 2 0.89867566D-01 0.23755650D+00 0.23087404D+06 0.23087404D+06 0.23087404D+06 0.10930690D+01  1  2 12  3  6  5        2 0.286316426381D-01 0.100000000000D+01
-.379193107048D-02 0.000000000000D+00 0.000000000000D+00 0.222102039450D-05 0.000000000000D+00  6 2 2 25 2 2 21 2 0.89867566D-01 0.23755650D+00 0.23071812D+06 0.23071812D+06 0.23071812D+06 0.10930912D+01  1  2  4  3  6  5        2 -.467352207679D-01 0.100000000000D+01
-.233333533386D-02 0.000000000000D+00 0.000000000000D+00 0.222102039450D-05 0.000000000000D+00  6 2 2 25 2 2 21 2 0.89867566D-01 0.23755650D+00 0.23071812D+06 0.23071812D+06 0.23071812D+06 0.10930912D+01  1  2  5  3  6  5        2 -.287581551264D-01 0.100000000000D+01
0.312777528295D-02 0.000000000000D+00 -.000000000000D+00 0.222102039450D-05 0.000000000000D+00  6 2 2 25 2 2 21 2 0.89867566D-01 0.23755650D+00 0.23071812D+06 0.23071812D+06 0.23071812D+06 0.10930912D+01  1  2  6  3  6  5        2 0.385495584291D-01 0.100000000000D+01
  </mgrwgt>
  </event>
  <event>
  5     66 0.18411016E-05 0.24063687E+03 0.75467711E-02 0.90420334E-01
        2 -1    0    0  502    0 0.00000000E+00 0.00000000E+00 0.23668147E+04 0.23668147E+04 0.32000000E+00 0.0000E+00 0.9000E+01
        2 -1    0    0  501    0 0.00000000E+00 0.00000000E+00 -.38653145E+03 0.38653159E+03 0.32000000E+00 0.0000E+00 0.9000E+01
       25  1    1    2    0    0 0.17989905E+03 0.52320793E+03 0.94119767E+03 0.10989032E+04 0.12500000E+03 0.0000E+00 0.9000E+01
        2  1    1    2  501    0 -.28711463E+02 -.23887579E+03 -.23737754E+03 0.33798549E+03 0.32000000E+00 0.0000E+00 0.9000E+01
        2  1    1    2  502    0 -.15118758E+03 -.28433214E+03 0.12764631E+04 0.13164576E+04 0.32000000E+00 0.0000E+00 0.9000E+01
#aMCatNLO 1  0  0  2  2 0.41177705D+03 0.00000000D+00  -5  6  0 0.00000000D+00 0.00000000D+00 0.00000000D+00 0.00000000D+00 0.00000000D+00
  <mgrwgt>
 0.1925842803D-02    7    2    0
 0.956477146514679D+03 0.000000000000000D+00 0.000000000000000D+00 0.956477146514679D+03
 0.956477146514679D+03 0.000000000000000D+00 0.000000000000000D+00 -.956477146514679D+03
 0.607382555082010D+03 0.179875696463672D+03 0.523192317132873D+03 0.217262747227395D+03
 0.732277550429984D+03 -.287183548029721D+02 -.238917054493941D+03 -.691609939223756D+03
 0.573294187517365D+03 -.151157341660700D+03 -.284275262638931D+03 0.474347191996361D+03
 0.000000000000000D+00 -.000000000000000D+00 -.000000000000000D+00 -.000000000000000D+00
 0.110598198247054D+04 0.000000000000000D+00 0.000000000000000D+00 0.110598198247054D+04
 0.131060613555895D+04 0.000000000000000D+00 0.000000000000000D+00 -.131060613555895D+04
 0.727816257952011D+03 0.281273788007249D+03 0.622714589668916D+03 0.217262747227395D+03
 0.708614462689422D+03 0.807063232483011D+02 -.131516683684127D+03 -.691609939223756D+03
 0.520340717741971D+03 -.681041729818337D+02 -.202758540160107D+03 0.474347191996361D+03
 0.459816679646084D+03 -.293875938273716D+03 -.288439365824682D+03 -.204624153088405D+03
0.346016081507D-03 0.000000000000D+00 0.000000000000D+00 0.256100932331D-06 0.000000000000D+00  6 2 2 25 2 2 21 0 0.36412535D+00 0.59466389D-01 0.31910996D+06 0.31910996D+06 0.31910996D+06 0.10825732D+01  1  2  2  2  6  2        2 0.197307375143D-02 0.100000000000D+01
0.308689635980D-04 0.000000000000D+00 -.132879286111D-05 0.256100932331D-06 0.000000000000D+00  6 2 2 25 2 2 21 2 0.36412535D+00 0.59466389D-01 0.31910996D+06 0.31910996D+06 0.31910996D+06 0.10825732D+01  1  2  3  2  6  2        2 0.206292601348D-03 0.100000000000D+01
-.236578999924D-03 0.000000000000D+00 0.000000000000D+00 0.256100932331D-06 0.000000000000D+00  6 2 2 25 2 2 21 2 0.36412535D+00 0.59466389D-01 0.31910996D+06 0.31910996D+06 0.31910996D+06 0.10825732D+01  1  2 15  2  6  2        2 -.158102157086D-02 0.100000000000D+01
-.144900863661D-04 0.000000000000D+00 0.000000000000D+00 0.256100932331D-06 0.000000000000D+00  6 2 2 25 2 2 21 2 0.36412535D+00 0.59466389D-01 0.31910996D+06 0.31910996D+06 0.31910996D+06 0.10825732D+01  1  2  4  2  6  2        2 -.968350492471D-04 0.100000000000D+01
-.306351431217D-03 0.000000000000D+00 -.241956787671D-03 0.256100932331D-06 0.000000000000D+00  6 2 2 25 2 2 21 2 0.36412535D+00 0.94678582D-01 0.31910996D+06 0.31910996D+06 0.31910996D+06 0.10825732D+01  1  2  5  2  6  2        2 -.120647772862D-02 0.100000000000D+01
0.398950414406D-03 0.000000000000D+00 0.217957186503D-03 0.256100932331D-06 0.000000000000D+00  6 2 2 25 2 2 21 2 0.36412535D+00 0.59466389D-01 0.31910996D+06 0.31910996D+06 0.31910996D+06 0.10825732D+01  1  2  6  2  6  2        2 0.266612510443D-02 0.100000000000D+01
-.629841586050D-05 0.000000000000D+00 -.128934289604D-04 0.256100932331D-06 0.000000000000D+00  6 2 21 25 2 2 -2 2 0.36412535D+00 0.94678582D-01 0.31910996D+06 0.31910996D+06 0.31910996D+06 0.10825732D+01  1  2  5  5  6  2        2 -.353143051085D-04 0.100000000000D+01
  </mgrwgt>
  </event>
  <event>
  5     66 0.18411016E-05 0.31225066E+02 0.75467711E-02 0.92469038E-01
        2 -1    0    0  502    0 0.00000000E+00 0.00000000E+00 0.21604365E+04 0.21604366E+04 0.32000000E+00 0.0000E+00 0.9000E+01
        2 -1    0    0  501    0 0.00000000E+00 0.00000000E+00 -.58432091E+03 0.58432100E+03 0.32000000E+00 0.0000E+00 0.9000E+01
       25  1    1    2    0    0 -.58681788E+03 -.42760603E+02 0.81044230E+02 0.60694057E+03 0.12500000E+03 0.0000E+00 0.9000E+01
        2  1    1    2  501    0 0.30939111E+02 0.42010916E+01 -.27774442E+03 0.27949408E+03 0.32000000E+00 0.0000E+00 0.9000E+01
        2  1    1    2  502    0 0.55587876E+03 0.38559512E+02 0.17728158E+04 0.18583229E+04 0.32000000E+00 0.0000E+00 0.9000E+01
#aMCatNLO 1  0  0  2  5 0.31140896D+02 0.00000000D+00  -5  6  0 0.00000000D+00 0.00000000D+00 0.00000000D+00 0.00000000D+00 0.00000000D+00
  <mgrwgt>
 0.7224312048D-02    9    2    0
 0.112356059296869D+04 0.000000000000000D+00 0.000000000000000D+00 0.112356059296869D+04
 0.112356059296869D+04 0.000000000000000D+00 0.000000000000000D+00 -.112356059296869D+04
 0.684483265478436D+03 -.586814259666076D+03 -.427604715237625D+02 -.326669416149788D+03
 0.536231468727213D+03 0.309411283026514D+02 0.420135049695229D+01 -.535321569980796D+03
 0.102640645173173D+04 0.555873131363424D+03 0.385591210268102D+02 0.861990986130584D+03
 0.000000000000000D+00 0.000000000000000D+00 -.000000000000000D+00 -.000000000000000D+00
 0.113597284848571D+04 0.000000000000000D+00 0.000000000000000D+00 0.113597284848571D+04
 0.114337194863627D+04 0.000000000000000D+00 0.000000000000000D+00 -.114337194863627D+04
 0.689421339179691D+03 -.593042390859534D+03 -.355611882855848D+02 -.326669416149788D+03
 0.536046453968157D+03 0.260803195130501D+02 0.982010484813206D+01 -.535321569980796D+03
 0.102186915971430D+04 0.546587967615377D+03 0.492921196838172D+02 0.861990986130584D+03
 0.320078442598306D+02 0.203741037311072D+02 -.235510362463645D+02 -.739910015056434D+01
0.598064508145D-03 0.000000000000D+00 0.000000000000D+00 0.960270898642D-05 0.000000000000D+00  6 2 2 25 2 2 21 0 0.33237486D+00 0.89895534D-01 0.35398678D+06 0.35398678D+06 0.35398678D+06 0.10792746D+01  1  2  2  2  6  2        2 0.277306677512D-02 0.100000000000D+01
0.327524068178D-03 0.000000000000D+00 -.229672518528D-05 0.960270898642D-05 0.000000000000D+00  6 2 2 25 2 2 21 2 0.33237486D+00 0.89895534D-01 0.35398678D+06 0.35398678D+06 0.35398678D+06 0.10792746D+01  1  2  3  2  6  2        2 0.176896586480D-02 0.100000000000D+01
-.417594164091D-03 0.000000000000D+00 0.000000000000D+00 0.960270898642D-05 0.000000000000D+00  6 2 2 25 2 2 21 2 0.33237486D+00 0.89895534D-01 0.35398678D+06 0.35398678D+06 0.35398678D+06 0.10792746D+01  1  2 15  2  6  2        2 -.225543675531D-02 0.100000000000D+01
0.106438449695D-09 0.000000000000D+00 0.000000000000D+00 0.960270898642D-05 0.000000000000D+00  6 2 2 25 2 2 21 2 0.33237486D+00 0.92064080D-01 0.36901376D+06 0.36901376D+06 0.36901376D+06 0.10779611D+01  1  2 12  2  6  2        2 0.556253340385D-09 0.100000000000D+01
-.174184675431D-04 0.000000000000D+00 0.000000000000D+00 0.960270898642D-05 0.000000000000D+00  6 2 2 25 2 2 21 2 0.33237486D+00 0.89895534D-01 0.35398678D+06 0.35398678D+06 0.35398678D+06 0.10792746D+01  1  2  4  2  6  2        2 -.940775884728D-04 0.100000000000D+01
-.318732691292D-01 0.000000000000D+00 -.491625706358D-02 0.960270898642D-05 0.000000000000D+00  6 2 2 25 2 2 21 2 0.33237486D+00 0.92445910D-01 0.35398678D+06 0.35398678D+06 0.35398678D+06 0.10792746D+01  1  2  5  2  6  2        2 -.166584922175D+00 0.100000000000D+01
0.320002039127D-01 0.000000000000D+00 0.491433389519D-02 0.960270898642D-05 0.000000000000D+00  6 2 2 25 2 2 21 2 0.33237486D+00 0.89895534D-01 0.35398678D+06 0.35398678D+06 0.35398678D+06 0.10792746D+01  1  2  6  2  6  2        2 0.172833919361D+00 0.100000000000D+01
0.347586394383D-11 0.000000000000D+00 0.000000000000D+00 0.960270898642D-05 0.000000000000D+00  6 2 21 25 2 2 -2 2 0.33237486D+00 0.92064080D-01 0.36901376D+06 0.36901376D+06 0.36901376D+06 0.10779611D+01  1  2 12  5  6  2        2 0.267135766281D-10 0.100000000000D+01
-.158995996927D-03 0.000000000000D+00 -.247390086573D-04 0.960270898642D-05 0.000000000000D+00  6 2 21 25 2 2 -2 2 0.33237486D+00 0.92445910D-01 0.35398678D+06 0.35398678D+06 0.35398678D+06 0.10792746D+01  1  2  5  5  6  2        2 -.121720401717D-02 0.100000000000D+01
  </mgrwgt>
  </event>
  <event>
  6     66 0.18411016E-05 0.11326193E+03 0.75467711E-02 0.94435257E-01
        2 -1    0    0  503    0 0.00000000E+00 0.00000000E+00 0.16852010E+04 0.16852011E+04 0.32000000E+00 0.0000E+00 0.9000E+01
        2 -1    0    0  501    0 0.00000000E+00 0.00000000E+00 -.18890025E+04 0.18890025E+04 0.32000000E+00 0.0000E+00 0.9000E+01
       25  1    1    2    0    0 -.13587880E+03 -.47034174E+03 -.12665938E+04 0.13636603E+04 0.12500000E+03 0.0000E+00 0.9000E+01
        2  1    1    2  501    0 0.16441351E+03 0.33613342E+03 -.50913540E+03 0.63185160E+03 0.32000000E+00 0.0000E+00 0.9000E+01
        2  1    1    2  502    0 -.22687838E+02 0.11918398E+03 0.11350001E+04 0.11414661E+04 0.32000000E+00 0.0000E+00 0.9000E+01
       21  1    1    2  503  502 -.58468793E+01 0.15024330E+02 0.43692766E+03 0.43722564E+03 0.75000000E+00 0.0000E+00 0.9000E+01
#aMCatNLO 2  0  0  1  5 0.16121926D+02 0.00000000D+00  -5  6  0 0.00000000D+00 0.00000000D+00 0.00000000D+00 0.00000000D+00 0.00000000D+00
  <mgrwgt>
 0.3355733672D-01    3    2    0
 0.153540198728901D+04 0.000000000000000D+00 0.000000000000000D+00 0.153540198728901D+04
 0.153540198728901D+04 0.000000000000000D+00 0.000000000000000D+00 -.153540198728901D+04
 0.112672115461353D+04 -.138035040682373D+03 -.464847794352406D+03 -.100932572338327D+04
 0.540587609689986D+03 0.163394288402047D+03 0.338799923443036D+03 -.388267796942928D+03
 0.140349521027450D+04 -.253592477196746D+02 0.126047870909371D+03 0.139759352032620D+04
 0.000000000000000D+00 -.000000000000000D+00 0.000000000000000D+00 0.000000000000000D+00
 0.207310765256708D+04 0.000000000000000D+00 0.000000000000000D+00 0.207310765256708D+04
 0.153554399734863D+04 0.000000000000000D+00 0.000000000000000D+00 -.153554399734863D+04
 0.112874819239970D+04 -.135887823504074D+03 -.470365353088170D+03 -.100932572338327D+04
 0.539248541019961D+03 0.164422297377484D+03 0.336158318317950D+03 -.388267796942928D+03
 0.140284956146022D+04 -.226875946067303D+02 0.119182704627526D+03 0.139759352032620D+04
 0.537805355035830D+03 -.584687926668033D+01 0.150243301426930D+02 0.537563655218449D+03
-.354210084611D-08 0.000000000000D+00 0.000000000000D+00 0.220999242423D-05 0.000000000000D+00  6 2 2 25 2 2 21 2 0.25929181D+00 0.29058885D+00 0.25855499D+06 0.25855499D+06 0.25855499D+06 0.10893615D+01  1  2 13  1  6  1        2 -.577289872484D-08 0.100000000000D+01
-.168277569475D-01 0.000000000000D+00 0.000000000000D+00 0.220999242423D-05 0.000000000000D+00  6 2 2 25 2 2 21 2 0.26446255D+00 0.29058885D+00 0.25855499D+06 0.25855499D+06 0.25855499D+06 0.10893615D+01  1  2 13  1  6  1        2 -.262967712598D-01 0.100000000000D+01
0.367239662985D-01 0.000000000000D+00 0.000000000000D+00 0.220999242423D-05 0.141265537588D-06  6 2 2 25 2 2 21 2 0.25926166D+00 0.29061573D+00 0.25855499D+06 0.25855499D+06 0.25855499D+06 0.10893615D+01  1  2  1  1  6  1        2 0.598541137529D-01 0.100000000000D+01
  </mgrwgt>
  </event>
  <event>
  5     66 -.18411016E-05 0.31149645E+02 0.75467711E-02 0.91075682E-01
        2 -1    0    0  502    0 0.00000000E+00 0.00000000E+00 0.36269102E+04 0.36269102E+04 0.32000000E+00 0.0000E+00 0.9000E+01
        2 -1    0    0  501    0 0.00000000E+00 0.00000000E+00 -.52801662E+03 0.52801672E+03 0.32000000E+00 0.0000E+00 0.9000E+01
       25  1    1    2    0    0 0.30173396E+03 0.60877475E+03 0.11027299E+03 0.69959646E+03 0.12500000E+03 0.0000E+00 0.9000E+01
        2  1    1    2  501    0 -.25623264E+02 -.17712011E+02 -.19910887E+03 0.20153092E+03 0.32000000E+00 0.0000E+00 0.9000E+01
        2  1    1    2  502    0 -.27611069E+03 -.59106274E+03 0.31877294E+04 0.32537995E+04 0.32000000E+00 0.0000E+00 0.9000E+01
#aMCatNLO 1  0  0  5  1 0.51896236D+02 0.00000000D+00  -5  6  0 0.00000000D+00 0.00000000D+00 0.00000000D+00 0.00000000D+00 0.00000000D+00
  <mgrwgt>
 -.9476402032D-02    6    2    0
 0.138386020736828D+04 0.000000000000000D+00 0.000000000000000D+00 0.138386020736828D+04
 0.138386020736828D+04 -.000000000000000D+00 -.000000000000000D+00 -.138386020736828D+04
 0.926766977059650D+03 0.301734045993627D+03 0.608774514651457D+03 -.617755765304931D+03
 0.525480603132840D+03 -.256236451677862D+02 -.177124015214109D+02 -.524556540240910D+03
 0.131547283454407D+04 -.276110400825841D+03 -.591062113130045D+03 0.114231230554584D+04
 0.000000000000000D+00 0.000000000000000D+00 0.000000000000000D+00 0.000000000000000D+00
 0.138386020736828D+04 0.000000000000000D+00 0.000000000000000D+00 0.138386020736828D+04
 0.138386020736828D+04 -.000000000000000D+00 -.000000000000000D+00 -.138386020736828D+04
 0.922706001413199D+03 0.300829235024476D+03 0.606837610131345D+03 -.614012419523091D+03
 0.523425060594644D+03 -.261367974880372D+02 -.188108928997073D+02 -.522433548103385D+03
 0.707114732299064D+03 -.108798014457995D+03 -.392495477331169D+03 0.578032470505727D+03
 0.614474620429655D+03 -.165894423078444D+03 -.195531239900468D+03 0.558413497120749D+03
0.972342186177D-03 0.000000000000D+00 0.000000000000D+00 0.101530797562D-04 0.000000000000D+00  6 2 2 25 2 2 21 0 0.55798619D+00 0.81233334D-01 0.47222604D+06 0.47222604D+06 0.47222604D+06 0.10702690D+01  1  2  2  3  6  5        2 0.590347265334D-03 0.100000000000D+01
0.510805574019D-03 0.000000000000D+00 -.373405001850D-05 0.101530797562D-04 0.000000000000D+00  6 2 2 25 2 2 21 2 0.55798619D+00 0.81233334D-01 0.47222604D+06 0.47222604D+06 0.47222604D+06 0.10702690D+01  1  2  3  3  6  5        2 0.355246599360D-03 0.100000000000D+01
-.598537151679D-03 0.000000000000D+00 0.000000000000D+00 0.101530797562D-04 0.000000000000D+00  6 2 2 25 2 2 21 2 0.55798619D+00 0.81233334D-01 0.47222604D+06 0.47222604D+06 0.47222604D+06 0.10702690D+01  1  2 15  3  6  5        2 -.416260703758D-03 0.100000000000D+01
-.197727333798D-01 0.000000000000D+00 0.000000000000D+00 0.101530797562D-04 0.000000000000D+00  6 2 2 25 2 2 21 2 0.55798619D+00 0.81233334D-01 0.47222604D+06 0.47222604D+06 0.47222604D+06 0.10702690D+01  1  2  4  3  6  5        2 -.137512130848D-01 0.100000000000D+01
-.965728632437D-02 0.000000000000D+00 0.000000000000D+00 0.101530797562D-04 0.000000000000D+00  6 2 2 25 2 2 21 2 0.55798619D+00 0.81233334D-01 0.47222604D+06 0.47222604D+06 0.47222604D+06 0.10702690D+01  1  2  5  3  6  5        2 -.671628952439D-02 0.100000000000D+01
0.150428719659D-01 0.000000000000D+00 -.000000000000D+00 0.101530797562D-04 0.000000000000D+00  6 2 2 25 2 2 21 2 0.55798619D+00 0.81233334D-01 0.47222604D+06 0.47222604D+06 0.47222604D+06 0.10702690D+01  1  2  6  3  6  5        2 0.104617674166D-01 0.100000000000D+01
  </mgrwgt>
  </event>
  <event>
  5     66 0.18411016E-05 0.10228797E+03 0.75467711E-02 0.93345819E-01
        2 -1    0    0  502    0 0.00000000E+00 0.00000000E+00 0.98083113E+03 0.98083119E+03 0.32000000E+00 0.0000E+00 0.9000E+01
        2 -1    0    0  501    0 0.00000000E+00 0.00000000E+00 -.90073093E+03 0.90073099E+03 0.32000000E+00 0.0000E+00 0.9000E+01
       25  1    1    2    0    0 -.43866393E+03 -.13520780E+03 -.57970531E+03 0.74992696E+03 0.12500000E+03 0.0000E+00 0.9000E+01
        2  1    1    2  501    0 0.34113902E+03 0.16608614E+03 -.77509659E+02 0.38725739E+03 0.32000000E+00 0.0000E+00 0.9000E+01
        2  1    1    2  502    0 0.97524903E+02 -.30878344E+02 0.73731517E+03 0.74437782E+03 0.32000000E+00 0.0000E+00 0.9000E+01
#aMCatNLO 1  0  0  5  2 0.90909607D+02 0.00000000D+00  -5  6  0 0.00000000D+00 0.00000000D+00 0.00000000D+00 0.00000000D+00 0.00000000D+00
  <mgrwgt>
 0.5794709794D-03    7    2    0
 0.939928212014123D+03 0.000000000000000D+00 0.000000000000000D+00 0.939928212014123D+03
 0.939928212014123D+03 -.000000000000000D+00 -.000000000000000D+00 -.939928212014123D+03
 0.775313551256105D+03 -.438716098393107D+03 -.135228838762219D+03 -.612149858236612D+03
 0.390966179687816D+03 0.341199351593819D+03 0.166104599845060D+03 -.940575251745214D+02
 0.713576693084325D+03 0.975167467992884D+02 -.308757610828408D+02 0.706207383411133D+03
 0.000000000000000D+00 0.000000000000000D+00 0.000000000000000D+00 0.000000000000000D+00
 0.939928212014123D+03 0.000000000000000D+00 0.000000000000000D+00 0.939928212014123D+03
 0.939928212014123D+03 -.000000000000000D+00 -.000000000000000D+00 -.939928212014123D+03
 0.749277200129047D+03 -.434507905119456D+03 -.136561237292444D+03 -.581674506482003D+03
 0.389117380184144D+03 0.343352547385251D+03 0.165422854801230D+03 -.784642776991014D+02
 0.646698075319315D+03 0.174866845547060D+03 -.492078163576671D+02 0.620659792285144D+03
 0.947637683957394D+02 -.837114878128550D+02 0.203461988488810D+02 0.394789918959613D+02
0.866326926903D-04 0.000000000000D+00 0.000000000000D+00 0.212417599493D-06 0.000000000000D+00  6 2 2 25 2 2 21 0 0.15089711D+00 0.13857400D+00 0.22923479D+06 0.22923479D+06 0.22923479D+06 0.10933036D+01  1  2  2  3  6  5        2 0.109920299602D-02 0.100000000000D+01
0.168907088725D-04 0.000000000000D+00 -.332692350843D-06 0.212417599493D-06 0.000000000000D+00  6 2 2 25 2 2 21 2 0.15089711D+00 0.13857400D+00 0.22923479D+06 0.22923479D+06 0.22923479D+06 0.10933036D+01  1  2  3  3  6  5        2 0.256168369960D-03 0.100000000000D+01
-.567883203019D-04 0.000000000000D+00 0.000000000000D+00 0.212417599493D-06 0.000000000000D+00  6 2 2 25 2 2 21 2 0.15089711D+00 0.13857400D+00 0.22923479D+06 0.22923479D+06 0.22923479D+06 0.10933036D+01  1  2 15  3  6  5        2 -.861264707971D-03 0.100000000000D+01
0.502587945062D-08 0.000000000000D+00 0.000000000000D+00 0.212417599493D-06 0.000000000000D+00  6 2 2 25 2 2 21 2 0.15089711D+00 0.13857400D+00 0.31429221D+06 0.31429221D+06 0.31429221D+06 0.10830596D+01  1  2 12  3  6  5        2 0.737915050145D-07 0.100000000000D+01
-.209991623092D-04 0.000000000000D+00 0.000000000000D+00 0.212417599493D-06 0.000000000000D+00  6 2 2 25 2 2 21 2 0.15089711D+00 0.13857400D+00 0.22923479D+06 0.22923479D+06 0.22923479D+06 0.10933036D+01  1  2  4  3  6  5        2 -.318478118347D-03 0.100000000000D+01
-.188107118220D-03 0.000000000000D+00 0.000000000000D+00 0.212417599493D-06 0.000000000000D+00  6 2 2 25 2 2 21 2 0.15089711D+00 0.13857400D+00 0.22923479D+06 0.22923479D+06 0.22923479D+06 0.10933036D+01  1  2  5  3  6  5        2 -.285287575649D-02 0.100000000000D+01
0.214729993988D-03 0.000000000000D+00 -.000000000000D+00 0.212417599493D-06 0.000000000000D+00  6 2 2 25 2 2 21 2 0.15089711D+00 0.13857400D+00 0.22923479D+06 0.22923479D+06 0.22923479D+06 0.10933036D+01  1  2  6  3  6  5        2 0.325664440472D-02 0.100000000000D+01
  </mgrwgt>
  </event>
  <event>
  5     66 0.18411016E-05 0.16254738E+03 0.75467711E-02 0.91957537E-01
        2 -1    0    0  502    0 0.00000000E+00 0.00000000E+00 0.11674308E+04 0.11674308E+04 0.32000000E+00 0.0000E+00 0.9000E+01
        2 -1    0    0  501    0 -.00000000E+00 -.00000000E+00 -.27297380E+04 0.27297380E+04 0.32000000E+00 0.0000E+00 0.9000E+01
       25  1    1    2    0    0 -.45838167E+03 0.10474430E+03 -.80557210E+03 0.94109327E+03 0.12500000E+03 0.0000E+00 0.9000E+01
        2  1    1    2  501    0 -.13564587E+03 0.89570479E+02 -.17635592E+04 0.17710347E+04 0.32000000E+00 0.0000E+00 0.9000E+01
        2  1    1    2  502    0 0.59402754E+03 -.19431478E+03 0.10068241E+04 0.11850408E+04 0.32000000E+00 0.0000E+00 0.9000E+01
#aMCatNLO 1  0  0  5  2 0.90909607D+02 0.00000000D+00  -5  6  0 0.00000000D+00 0.00000000D+00 0.00000000D+00 0.00000000D+00 0.00000000D+00
  <mgrwgt>
 0.1433291442D-02    1    2    0
 0.178515550701615D+04 0.000000000000000D+00 0.000000000000000D+00 0.178515550701615D+04
 0.178515550701615D+04 -.000000000000000D+00 -.000000000000000D+00 -.178515550701615D+04
 0.674761601741009D+03 -.458384952099451D+03 0.104746390099393D+03 -.467535719099645D+03
 0.116144829595370D+04 -.135643328165423D+03 0.895686300948748D+02 -.115001760516998D+04
 0.173410111633758D+04 0.594028280264874D+03 -.194315020194268D+03 0.161755332426962D+04
 0.000000000000000D+00 0.000000000000000D+00 0.000000000000000D+00 0.000000000000000D+00
 0.178515550701615D+04 0.000000000000000D+00 0.000000000000000D+00 0.178515550701615D+04
 0.178515550701615D+04 -.000000000000000D+00 -.000000000000000D+00 -.178515550701615D+04
 0.497720423873897D+03 -.387471770512649D+03 0.815496892521963D+02 -.274437416508528D+03
 0.824610305899741D+03 -.155240161432184D+02 0.502759106793804D+02 -.822929823450462D+03
 0.166172938137004D+04 0.672401531448209D+03 -.540236336460742D+03 0.142033989530043D+04
 0.586250902888615D+03 -.269405744792343D+03 0.408410736529165D+03 -.322972655341445D+03
0.144757118431D-02 0.000000000000D+00 0.000000000000D+00 0.337601326681D-05 0.000000000000D+00  6 2 2 25 2 2 21 2 0.17960474D+00 0.41995969D+00 0.40582118D+06 0.40582118D+06 0.40582118D+06 0.10749756D+01  1  2 14  3  6  5        2 0.143329144248D-02 0.100000000000D+01
  </mgrwgt>
  </event>
  <event>
  6     66 -.18411016E-05 0.27703880E+03 0.75467711E-02 0.91473111E-01
        2 -1    0    0  502    0 0.00000000E+00 0.00000000E+00 0.17465043E+04 0.17465043E+04 0.32000000E+00 0.0000E+00 0.9000E+01
        2 -1    0    0  501    0 0.00000000E+00 0.00000000E+00 -.65525700E+03 0.65525708E+03 0.32000000E+00 0.0000E+00 0.9000E+01
       25  1    1    2    0    0 -.32731020E+03 -.39201746E+03 0.29673760E+02 0.52660724E+03 0.12500000E+03 0.0000E+00 0.9000E+01
        2  1    1    2  501    0 0.71809948E+02 0.51677498E+03 -.21683655E+03 0.56500552E+03 0.32000000E+00 0.0000E+00 0.9000E+01
        2  1    1    2  503    0 0.22525917E+03 -.99932213E+02 0.11387679E+04 0.11651268E+04 0.32000000E+00 0.0000E+00 0.9000E+01
       21  1    1    2  502  503 0.30241083E+02 -.24825303E+02 0.13964217E+03 0.14502179E+03 0.75000000E+00 0.0000E+00 0.9000E+01
#aMCatNLO 2  0  0  5  1 0.11386964D+02 0.00000000D+00  -5  6  0 0.00000000D+00 0.00000000D+00 0.00000000D+00 0.00000000D+00 0.00000000D+00
  <mgrwgt>
 -.9685799567D-03    6    2    0
 0.106977066535020D+04 0.000000000000000D+00 0.000000000000000D+00 0.106977066535020D+04
 0.106977066535020D+04 -.000000000000000D+00 -.000000000000000D+00 -.106977066535020D+04
 0.576239487113148D+03 -.327412972506458D+03 -.392232181214440D+03 -.235332972536089D+03
 0.745161501176964D+03 0.718312695583130D+02 0.517029470036181D+03 -.531776700001094D+03
 0.818140342410295D+03 0.255581702948145D+03 -.124797288821740D+03 0.767109672537183D+03
 0.000000000000000D+00 0.000000000000000D+00 -.000000000000000D+00 0.000000000000000D+00
 0.106977066535020D+04 0.000000000000000D+00 0.000000000000000D+00 0.106977066535020D+04
 0.106977066535020D+04 -.000000000000000D+00 -.000000000000000D+00 -.106977066535020D+04
 0.576140956302729D+03 -.327345537143439D+03 -.392265109042913D+03 -.235130570256716D+03
 0.744953612577005D+03 0.719184685855179D+02 0.516986891862323D+03 -.531514978538120D+03
 0.727066416041429D+03 0.225244521546413D+03 -.999175195113556D+02 0.684037256400084D+03
 0.913803457792435D+02 0.301825470115077D+02 -.248042633080539D+02 0.826082923947528D+02
-.102562797852D-07 0.000000000000D+00 0.000000000000D+00 0.471582459616D-07 0.000000000000D+00  6 2 2 25 2 2 21 2 0.26869297D+00 0.10080878D+00 0.44450288D+06 0.44450288D+06 0.44450288D+06 0.10721404D+01  1  2 13  3  6  5        2 -.795936385602D-07 0.100000000000D+01
-.373763011964D-03 0.000000000000D+00 0.000000000000D+00 0.471582459616D-07 0.000000000000D+00  6 2 2 25 2 2 21 2 0.26869297D+00 0.10080878D+00 0.44450288D+06 0.44450288D+06 0.44450288D+06 0.10721404D+01  1  2 13  3  6  5        2 -.290057981106D-02 0.100000000000D+01
-.775759392224D-05 0.000000000000D+00 0.000000000000D+00 0.471582459616D-07 0.000000000000D+00  6 2 2 25 2 2 21 2 0.26869297D+00 0.10080878D+00 0.44383103D+06 0.44383103D+06 0.44383103D+06 0.10721873D+01  1  2  8  3  6  5        2 -.602127061760D-04 0.100000000000D+01
-.114803240994D-04 0.000000000000D+00 0.000000000000D+00 0.471582459616D-07 0.000000000000D+00  6 2 2 25 2 2 21 2 0.26869297D+00 0.10080878D+00 0.44383103D+06 0.44383103D+06 0.44383103D+06 0.10721873D+01  1  2  9  3  6  5        2 -.891077038487D-04 0.100000000000D+01
0.128337038241D-04 0.000000000000D+00 0.000000000000D+00 0.471582459616D-07 0.000000000000D+00  6 2 2 25 2 2 21 2 0.26869297D+00 0.10080878D+00 0.44383103D+06 0.44383103D+06 0.44383103D+06 0.10721873D+01  1  2 10  3  6  5        2 0.996123340889D-04 0.100000000000D+01
0.255369244179D-03 0.000000000000D+00 0.000000000000D+00 0.471582459616D-07 0.113264448825D-08  6 2 2 25 2 2 21 2 0.26869297D+00 0.10080878D+00 0.44450288D+06 0.44450288D+06 0.44450288D+06 0.10721404D+01  1  2  1  3  6  5        2 0.198178752397D-02 0.100000000000D+01
  </mgrwgt>
  </event>
  <event>
  5     66 0.18411016E-05 0.16062596E+03 0.75467711E-02 0.88406285E-01
        2 -1    0    0  502    0 0.00000000E+00 0.00000000E+00 0.15016312E+04 0.15016313E+04 0.32000000E+00 0.0000E+00 0.9000E+01
        2 -1    0    0  501    0 0.00000000E+00 0.00000000E+00 -.23664437E+04 0.23664437E+04 0.32000000E+00 0.0000E+00 0.9000E+01
       25  1    1    2    0    0 0.63431324E+03 -.82282543E+02 0.37806182E+03 0.75344505E+03 0.12500000E+03 0.0000E+00 0.9000E+01
        2  1    1    2  501    0 -.15783146E+03 0.29760019E+02 -.21141210E+04 0.21202133E+04 0.32000000E+00 0.0000E+00 0.9000E+01
        2  1    1    2  502    0 -.47648178E+03 0.52522524E+02 0.87124674E+03 0.99441666E+03 0.32000000E+00 0.0000E+00 0.9000E+01
#aMCatNLO 1  0  0  1  1 0.58846693D+03 0.00000000D+00  -5  6  0 0.00000000D+00 0.00000000D+00 0.00000000D+00 0.00000000D+00 0.00000000D+00
  <mgrwgt>
 0.1808553224D-02    7    2    0
 0.188507979363043D+04 0.000000000000000D+00 0.000000000000000D+00 0.188507979363043D+04
 0.188507979363043D+04 0.000000000000000D+00 0.000000000000000D+00 -.188507979363043D+04
 0.859801041926181D+03 0.634285006583709D+03 -.822804207815295D+02 0.560843377848456D+03
 0.169037190437647D+04 -.157844531455906D+03 0.297624497206458D+02 -.168272293488305D+04
 0.121998664095821D+04 -.476440475127803D+03 0.525179710608837D+02 0.112187955703459D+04
 0.000000000000000D+00 -.000000000000000D+00 0.000000000000000D+00 0.000000000000000D+00
 0.240924257207893D+04 0.000000000000000D+00 0.000000000000000D+00 0.240924257207893D+04
 0.208058888752255D+04 0.000000000000000D+00 0.000000000000000D+00 -.208058888752255D+04
 0.964891801283186D+03 0.761638018443893D+03 -.144060482325672D+03 0.560843377848456D+03
 0.168664472842942D+04 0.778517068947256D+02 -.845758599772147D+02 -.168272293488305D+04
 0.116427224985694D+04 -.310032988010318D+03 -.282077585104842D+02 0.112187955703459D+04
 0.674022680031945D+03 -.529456737328300D+03 0.256844100813371D+03 0.328653684556384D+03
0.167911301040D-02 0.000000000000D+00 0.000000000000D+00 0.817515855568D-05 0.000000000000D+00  6 2 2 25 2 2 21 0 0.23102019D+00 0.36406826D+00 0.41709119D+06 0.41709119D+06 0.41709119D+06 0.10741201D+01  1  2  2  1  6  1        2 0.151453862572D-02 0.100000000000D+01
0.356907255443D-03 0.000000000000D+00 -.644823608055D-05 0.817515855568D-05 0.000000000000D+00  6 2 2 25 2 2 21 2 0.23102019D+00 0.36406826D+00 0.41709119D+06 0.41709119D+06 0.41709119D+06 0.10741201D+01  1  2  3  1  6  1        2 0.371416780076D-03 0.100000000000D+01
-.127663303124D-02 0.000000000000D+00 0.000000000000D+00 0.817515855568D-05 0.000000000000D+00  6 2 2 25 2 2 21 2 0.23102019D+00 0.36406826D+00 0.41709119D+06 0.41709119D+06 0.41709119D+06 0.10741201D+01  1  2 15  1  6  1        2 -.132853261617D-02 0.100000000000D+01
-.978659240636D-04 0.000000000000D+00 0.000000000000D+00 0.817515855568D-05 0.000000000000D+00  6 2 2 25 2 2 21 2 0.23102019D+00 0.36406826D+00 0.41709119D+06 0.41709119D+06 0.41709119D+06 0.10741201D+01  1  2  4  1  6  1        2 -.101844515180D-03 0.100000000000D+01
-.195985449177D-02 0.000000000000D+00 -.145218993215D-02 0.817515855568D-05 0.000000000000D+00  6 2 2 25 2 2 21 2 0.30859554D+00 0.36406826D+00 0.41709119D+06 0.41709119D+06 0.41709119D+06 0.10741201D+01  1  2  5  1  6  1        2 -.107791565218D-02 0.100000000000D+01
0.234033428787D-02 0.000000000000D+00 0.139338042145D-02 0.817515855568D-05 0.000000000000D+00  6 2 2 25 2 2 21 2 0.23102019D+00 0.36406826D+00 0.41709119D+06 0.41709119D+06 0.41709119D+06 0.10741201D+01  1  2  6  1  6  1        2 0.243547703849D-02 0.100000000000D+01
-.430319164625D-04 0.000000000000D+00 -.547099222554D-04 0.817515855568D-05 0.000000000000D+00  6 21 2 25 2 2 -2 2 0.30859554D+00 0.36406826D+00 0.41709119D+06 0.41709119D+06 0.41709119D+06 0.10741201D+01  1  2  5  4  6  1        2 -.458643709298D-05 0.100000000000D+01
  </mgrwgt>
  </event>
  <event>
  5     66 0.18411016E-05 0.19645077E+03 0.75467711E-02 0.94334669E-01
        2 -1    0    0  502    0 0.00000000E+00 0.00000000E+00 0.10656577E+04 0.10656577E+04 0.32000000E+00 0.0000E+00 0.9000E+01
        2 -1    0    0  501    0 0.00000000E+00 0.00000000E+00 -.28893905E+04 0.28893905E+04 0.32000000E+00 0.0000E+00 0.9000E+01
       25  1    1    2    0    0 -.49142220E+03 -.60445154E+02 -.14442359E+03 0.53069065E+03 0.12500000E+03 0.0000E+00 0.9000E+01
        2  1    1    2  501    0 0.29573534E+03 0.43060022E+02 -.25318738E+04 0.25494507E+04 0.32000000E+00 0.0000E+00 0.9000E+01
        2  1    1    2  502    0 0.19568686E+03 0.17385132E+02 0.85256461E+03 0.87490691E+03 0.32000000E+00 0.0000E+00 0.9000E+01
#aMCatNLO 1  0  0  2  5 0.37808864D+02 0.00000000D+00  -5  6  0 0.00000000D+00 0.00000000D+00 0.00000000D+00 0.00000000D+00 0.00000000D+00
  <mgrwgt>
 0.3029250286D-01    9    2    0
 0.175473682003232D+04 0.000000000000000D+00 0.000000000000000D+00 0.175473682003232D+04
 0.175473682003232D+04 0.000000000000000D+00 0.000000000000000D+00 -.175473682003232D+04
 0.523048059875061D+03 -.491439260186532D+03 -.604479704963139D+02 0.113083019721162D+03
 0.155744365370195D+04 0.295759211510804D+03 0.430634437545679D+02 -.152849689665206D+04
 0.142898192648764D+04 0.195680048675727D+03 0.173845267417460D+02 0.141541387693090D+04
 0.000000000000000D+00 0.000000000000000D+00 -.000000000000000D+00 -.000000000000000D+00
 0.177065704507287D+04 0.000000000000000D+00 0.000000000000000D+00 0.177065704507287D+04
 0.177743117677894D+04 0.000000000000000D+00 0.000000000000000D+00 -.177743117677894D+04
 0.526728048427634D+03 -.495782562908568D+03 -.568270883200942D+02 0.113083019721162D+03
 0.155538371460688D+04 0.282880320978743D+03 0.538001913776224D+02 -.152849689665206D+04
 0.142756553558876D+04 0.183861480631041D+03 0.272373150736135D+02 0.141541387693090D+04
 0.384109232285396D+02 0.290407612987829D+02 -.242104181311416D+02 -.677413170606846D+01
0.782032663904D-02 0.000000000000D+00 0.000000000000D+00 0.413135553128D-04 0.000000000000D+00  6 2 2 25 2 2 21 0 0.16394734D+00 0.44452162D+00 0.25301208D+06 0.25301208D+06 0.25301208D+06 0.10900680D+01  1  2  2  2  6  2        2 0.641886864025D-02 0.100000000000D+01
0.117801140304D-02 0.000000000000D+00 -.300321134332D-04 0.413135553128D-04 0.000000000000D+00  6 2 2 25 2 2 21 2 0.16394734D+00 0.44452162D+00 0.25301208D+06 0.25301208D+06 0.25301208D+06 0.10900680D+01  1  2  3  2  6  2        2 0.114892134897D-02 0.100000000000D+01
-.519711881535D-02 0.000000000000D+00 0.000000000000D+00 0.413135553128D-04 0.000000000000D+00  6 2 2 25 2 2 21 2 0.16394734D+00 0.44452162D+00 0.25301208D+06 0.25301208D+06 0.25301208D+06 0.10900680D+01  1  2 15  2  6  2        2 -.506878010233D-02 0.100000000000D+01
0.164723757599D-10 0.000000000000D+00 0.000000000000D+00 0.413135553128D-04 0.000000000000D+00  6 2 2 25 2 2 21 2 0.16394734D+00 0.45273487D+00 0.26320685D+06 0.26320685D+06 0.26320685D+06 0.10887812D+01  1  2 12  2  6  2        2 0.147971661151D-10 0.100000000000D+01
-.473671232457D-04 0.000000000000D+00 0.000000000000D+00 0.413135553128D-04 0.000000000000D+00  6 2 2 25 2 2 21 2 0.16394734D+00 0.44452162D+00 0.25301208D+06 0.25301208D+06 0.25301208D+06 0.10900680D+01  1  2  4  2  6  2        2 -.461974298343D-04 0.100000000000D+01
-.427379792153D+00 0.000000000000D+00 -.680062709485D-01 0.413135553128D-04 0.000000000000D+00  6 2 2 25 2 2 21 2 0.16394734D+00 0.45170949D+00 0.25301208D+06 0.25301208D+06 0.25301208D+06 0.10900680D+01  1  2  5  2  6  2        2 -.389922047982D+00 0.100000000000D+01
0.428424280675D+00 0.000000000000D+00 0.679975229002D-01 0.413135553128D-04 0.000000000000D+00  6 2 2 25 2 2 21 2 0.16394734D+00 0.44452162D+00 0.25301208D+06 0.25301208D+06 0.25301208D+06 0.10900680D+01  1  2  6  2  6  2        2 0.417844684026D+00 0.100000000000D+01
0.776134577543D-12 0.000000000000D+00 0.000000000000D+00 0.413135553128D-04 0.000000000000D+00  6 2 21 25 2 2 -2 2 0.16394734D+00 0.45273487D+00 0.26320685D+06 0.26320685D+06 0.26320685D+06 0.10887812D+01  1  2 12  5  6  2        2 0.502581375772D-13 0.100000000000D+01
-.124857989510D-02 0.000000000000D+00 -.199702018571D-03 0.413135553128D-04 0.000000000000D+00  6 2 21 25 2 2 -2 2 0.16394734D+00 0.45170949D+00 0.25301208D+06 0.25301208D+06 0.25301208D+06 0.10900680D+01  1  2  5  5  6  2        2 -.829456536876D-04 0.100000000000D+01
  </mgrwgt>
  </event>
  <event>
  6     66 0.18411016E-05 0.20114214E+03 0.75467711E-02 0.93474491E-01
        2 -1    0    0  502    0 0.00000000E+00 0.00000000E+00 0.14718194E+04 0.14718195E+04 0.32000000E+00 0.0000E+00 0.9000E+01
        2 -1    0    0  501    0 0.00000000E+00 0.00000000E+00 -.13228599E+04 0.13228599E+04 0.32000000E+00 0.0000E+00 0.9000E+01
       25  1    1    2    0    0 -.45524736E+03 0.54868063E+02 -.52347863E+02 0.47814847E+03 0.12500000E+03 0.0000E+00 0.9000E+01
        2  1    1    2  501    0 0.40282558E+03 0.14333802E+03 -.10053421E+04 0.10924867E+04 0.32000000E+00 0.0000E+00 0.9000E+01
        2  1    1    2  503    0 0.39399483E+02 -.16035637E+03 0.93691763E+03 0.95135757E+03 0.32000000E+00 0.0000E+00 0.9000E+01
       21  1    1    2  502  503 0.13022298E+02 -.37849713E+02 0.26973188E+03 0.27268669E+03 0.75000000E+00 0.0000E+00 0.9000E+01
#aMCatNLO 2  0  0  5  1 0.65205383D+01 0.00000000D+00  -5  6  0 0.00000000D+00 0.00000000D+00 0.00000000D+00 0.00000000D+00 0.00000000D+00
  <mgrwgt>
 0.1011648667D-01    3    2    0
 0.139535335750144D+04 0.000000000000000D+00 0.000000000000000D+00 0.139535335750144D+04
 0.139535335750144D+04 -.000000000000000D+00 -.000000000000000D+00 -.139535335750144D+04
 0.481727579669646D+03 -.455391294884770D+03 0.548076743435491D+02 -.777904132306732D+02
 0.114780987625646D+04 0.402974187731403D+03 0.143380738633402D+03 -.106513908943528D+04
 0.116116925907677D+04 0.524171071533670D+02 -.198188412976952D+03 0.114292950266596D+04
 0.000000000000000D+00 0.000000000000000D+00 0.000000000000000D+00 0.000000000000000D+00
 0.139535335750144D+04 0.000000000000000D+00 0.000000000000000D+00 0.139535335750144D+04
 0.139535335750144D+04 -.000000000000000D+00 -.000000000000000D+00 -.139535335750144D+04
 0.481723535314298D+03 -.455390468856137D+03 0.548045511398323D+02 -.777724020784711D+02
 0.114776981418773D+04 0.402976155879579D+03 0.143373297090276D+03 -.106509617492249D+04
 0.903404260346907D+03 0.394294080969691D+02 -.160484510207562D+03 0.888160628137447D+03
 0.257809105153938D+03 0.129849048795892D+02 -.376933380225469D+02 0.254707948863518D+03
-.709024606100D-09 0.000000000000D+00 0.000000000000D+00 0.289801348022D-05 0.000000000000D+00  6 2 2 25 2 2 21 2 0.22643376D+00 0.20351691D+00 0.30705453D+06 0.30705453D+06 0.30705453D+06 0.10838058D+01  1  2 13  3  6  5        2 -.302055338237D-08 0.100000000000D+01
-.744156514990D-02 0.000000000000D+00 0.000000000000D+00 0.289801348022D-05 0.000000000000D+00  6 2 2 25 2 2 21 2 0.22643376D+00 0.20351691D+00 0.30705453D+06 0.30705453D+06 0.30705453D+06 0.10838058D+01  1  2 13  3  6  5        2 -.317022069337D-01 0.100000000000D+01
0.981624263753D-02 0.000000000000D+00 0.000000000000D+00 0.289801348022D-05 0.349158996980D-06  6 2 2 25 2 2 21 2 0.22643376D+00 0.20351691D+00 0.30705453D+06 0.30705453D+06 0.30705453D+06 0.10838058D+01  1  2  1  3  6  5        2 0.418186966233D-01 0.100000000000D+01
  </mgrwgt>
  </event>
  <event>
  5     66 -.18411016E-05 0.27902540E+02 0.75467711E-02 0.91818662E-01
        2 -1    0    0  502    0 0.00000000E+00 0.00000000E+00 0.75428524E+03 0.75428531E+03 0.32000000E+00 0.0000E+00 0.9000E+01
        2 -1    0    0  501    0 0.00000000E+00 0.00000000E+00 -.91559260E+03 0.91559265E+03 0.32000000E+00 0.0000E+00 0.9000E+01
       25  1    1    2    0    0 0.34364976E+03 0.51816982E+03 -.45124935E+03 0.77836116E+03 0.12500000E+03 0.0000E+00 0.9000E+01
        2  1    1    2  501    0 -.22270740E+02 -.16814209E+02 -.14907641E+03 0.15166602E+03 0.32000000E+00 0.0000E+00 0.9000E+01
        2  1    1    2  502    0 -.32137902E+03 -.50135561E+03 0.43901839E+03 0.73985078E+03 0.32000000E+00 0.0000E+00 0.9000E+01
#aMCatNLO 1  0  0  1  4 0.35065399D+02 0.00000000D+00  -5  6  0 0.00000000D+00 0.00000000D+00 0.00000000D+00 0.00000000D+00 0.00000000D+00
  <mgrwgt>
 -.7625862079D-02    7    2    0
 0.831034346395334D+03 0.000000000000000D+00 0.000000000000000D+00 0.831034346395334D+03
 0.831034346395334D+03 0.000000000000000D+00 0.000000000000000D+00 -.831034346395334D+03
 0.738240885872538D+03 0.343650574630230D+03 0.518172860111447D+03 -.377856818350687D+03
 0.137885886585647D+03 -.222685629456414D+02 -.168125800181495D+02 -.135033203238979D+03
 0.785941920332483D+03 -.321382011684589D+03 -.501360280093298D+03 0.512890021589666D+03
 0.000000000000000D+00 0.000000000000000D+00 -.000000000000000D+00 0.000000000000000D+00
 0.963015411106830D+03 0.000000000000000D+00 0.000000000000000D+00 0.963015411106830D+03
 0.833551629627034D+03 0.000000000000000D+00 0.000000000000000D+00 -.833551629627034D+03
 0.747837013627836D+03 0.340800925270745D+03 0.533586125299656D+03 -.377856818350687D+03
 0.137653190718855D+03 -.227969267382917D+02 -.139547507821205D+02 -.135033203238979D+03
 0.776948342408306D+03 -.324378953660283D+03 -.485150334377940D+03 0.512890021589666D+03
 0.134128493978866D+03 0.637495512782995D+01 -.344810401395960D+02 0.129463781479797D+03
0.726170659219D-05 0.000000000000D+00 0.000000000000D+00 0.368193653787D-06 0.000000000000D+00  6 2 2 25 2 2 21 0 0.11604389D+00 0.14086041D+00 0.39541300D+06 0.39541300D+06 0.39541300D+06 0.10757889D+01  1  2  2  1  6  1        2 0.125006210997D-03 0.100000000000D+01
0.262423482647D-05 0.000000000000D+00 -.278868653653D-07 0.368193653787D-06 0.000000000000D+00  6 2 2 25 2 2 21 2 0.11604389D+00 0.14086041D+00 0.39541300D+06 0.39541300D+06 0.39541300D+06 0.10757889D+01  1  2  3  1  6  1        2 0.522817013098D-04 0.100000000000D+01
-.472867380610D-05 0.000000000000D+00 0.000000000000D+00 0.368193653787D-06 0.000000000000D+00  6 2 2 25 2 2 21 2 0.11604389D+00 0.14086041D+00 0.39541300D+06 0.39541300D+06 0.39541300D+06 0.10757889D+01  1  2 15  1  6  1        2 -.942076940021D-04 0.100000000000D+01
-.441276269385D-03 0.000000000000D+00 0.000000000000D+00 0.368193653787D-06 0.000000000000D+00  6 2 2 25 2 2 21 2 0.11604389D+00 0.14086041D+00 0.39541300D+06 0.39541300D+06 0.39541300D+06 0.10757889D+01  1  2  4  1  6  1        2 -.879139087645D-02 0.100000000000D+01
-.350518341543D-03 0.000000000000D+00 -.127442856725D-04 0.368193653787D-06 0.000000000000D+00  6 2 2 25 2 2 21 2 0.13464482D+00 0.14086041D+00 0.39541300D+06 0.39541300D+06 0.39541300D+06 0.10757889D+01  1  2  5  1  6  1        2 -.575522069259D-02 0.100000000000D+01
0.348691891202D-03 0.000000000000D+00 0.126047257903D-04 0.368193653787D-06 0.000000000000D+00  6 2 2 25 2 2 21 2 0.11604389D+00 0.14086041D+00 0.39541300D+06 0.39541300D+06 0.39541300D+06 0.10757889D+01  1  2  6  1  6  1        2 0.694686509038D-02 0.100000000000D+01
-.785120701617D-05 0.000000000000D+00 -.288622290287D-06 0.368193653787D-06 0.000000000000D+00  6 21 2 25 2 2 -2 2 0.13464482D+00 0.14086041D+00 0.39541300D+06 0.39541300D+06 0.39541300D+06 0.10757889D+01  1  2  5  4  6  1        2 -.109195819080D-03 0.100000000000D+01
  </mgrwgt>
  </event>
  <event>
  5     66 0.18411016E-05 0.70625526E+02 0.75467711E-02 0.95379867E-01
        2 -1    0    0  502    0 0.00000000E+00 0.00000000E+00 0.64609377E+03 0.64609385E+03 0.32000000E+00 0.0000E+00 0.9000E+01
        2 -1    0    0  501    0 0.00000000E+00 0.00000000E+00 -.18126813E+04 0.18126813E+04 0.32000000E+00 0.0000E+00 0.9000E+01
       25  1    1    2    0    0 0.28691759E+03 0.35816746E+03 -.81942196E+03 0.94746134E+03 0.12500000E+03 0.0000E+00 0.9000E+01
        2  1    1    2  501    0 -.25405185E+03 -.29565191E+03 -.88595237E+03 0.96791740E+03 0.32000000E+00 0.0000E+00 0.9000E+01
        2  1    1    2  502    0 -.32865743E+02 -.62515548E+02 0.53878681E+03 0.54339643E+03 0.32000000E+00 0.0000E+00 0.9000E+01
#aMCatNLO 1  0  0  1  4 0.35065399D+02 0.00000000D+00  -5  6  0 0.00000000D+00 0.00000000D+00 0.00000000D+00 0.00000000D+00 0.00000000D+00
  <mgrwgt>
 0.1950744079D-02    5    2    0
 0.108220248880535D+04 0.000000000000000D+00 0.000000000000000D+00 0.108220248880535D+04
 0.108220248880535D+04 0.000000000000000D+00 0.000000000000000D+00 -.108220248880535D+04
 0.634669866850123D+03 0.286944804890593D+03 0.358199512235365D+03 -.420162621217307D+03
 0.622069701562267D+03 -.254080333010959D+03 -.295686382101521D+03 -.484750927197175D+03
 0.907665409198317D+03 -.328644718796341D+02 -.625131301338438D+02 0.904913548414483D+03
 0.000000000000000D+00 -.000000000000000D+00 0.000000000000000D+00 0.000000000000000D+00
 0.561579625347473D+04 0.000000000000000D+00 0.000000000000000D+00 0.561579625347473D+04
 0.152058891649369D+04 0.000000000000000D+00 0.000000000000000D+00 -.152058891649369D+04
 0.548818202682194D+03 0.327865227038143D+03 -.392961095573307D+02 -.420162621217307D+03
 0.986504446908053D+03 -.198462084795703D+03 -.835954761484966D+03 -.484750927197175D+03
 0.118607748109803D+04 0.395290275945229D+02 -.765734103355204D+03 0.904913548414483D+03
 0.441498503928015D+04 -.168932169836963D+03 0.164098497439750D+04 0.409520733698104D+04
0.623514842182D-03 0.000000000000D+00 0.000000000000D+00 0.706689187417D-05 0.000000000000D+00  6 2 2 25 2 2 21 0 0.99399050D-01 0.27887405D+00 0.21909822D+06 0.21909822D+06 0.21909822D+06 0.10947962D+01  1  2  2  1  6  1        2 0.409500718997D-02 0.100000000000D+01
0.205199426719D-03 0.000000000000D+00 -.239446116921D-05 0.706689187417D-05 0.000000000000D+00  6 2 2 25 2 2 21 2 0.99399050D-01 0.27887405D+00 0.21909822D+06 0.21909822D+06 0.21909822D+06 0.10947962D+01  1  2  3  1  6  1        2 0.161529032144D-02 0.100000000000D+01
-.479674121934D-03 0.000000000000D+00 0.000000000000D+00 0.706689187417D-05 0.000000000000D+00  6 2 2 25 2 2 21 2 0.99399050D-01 0.27887405D+00 0.21909822D+06 0.21909822D+06 0.21909822D+06 0.10947962D+01  1  2 15  1  6  1        2 -.377590219911D-02 0.100000000000D+01
0.124486353404D-03 0.000000000000D+00 -.532365039170D-03 0.706689187417D-05 0.000000000000D+00  6 2 2 25 2 2 21 2 0.55166746D+00 0.27887405D+00 0.21909822D+06 0.21909822D+06 0.21909822D+06 0.10947962D+01  1  2  5  1  6  1        2 0.163477564203D-04 0.100000000000D+01
0.242166959132D-06 0.000000000000D+00 -.111688645303D-03 0.706689187417D-05 0.000000000000D+00  6 21 2 25 2 2 -2 2 0.55166746D+00 0.27887405D+00 0.21909822D+06 0.21909822D+06 0.21909822D+06 0.10947962D+01  1  2  5  4  6  1        2 0.101021331036D-08 0.100000000000D+01
  </mgrwgt>
  </event>
  <event>
  5     66 -.18411016E-05 0.41392179E+02 0.75467711E-02 0.92427458E-01
        2 -1    0    0  502    0 0.00000000E+00 0.00000000E+00 0.51455281E+03 0.51455291E+03 0.32000000E+00 0.0000E+00 0.9000E+01
        2 -1    0    0  501    0 -.00000000E+00 -.00000000E+00 -.26632404E+04 0.26632404E+04 0.32000000E+00 0.0000E+00 0.9000E+01
       25  1    1    2    0    0 0.44713585E+03 0.36808621E+03 -.78794075E+03 0.98584662E+03 0.12500000E+03 0.0000E+00 0.9000E+01
        2  1    1    2  501    0 -.22117558E+02 0.34983578E+02 -.15695465E+04 0.15700921E+04 0.32000000E+00 0.0000E+00 0.9000E+01
        2  1    1    2  502    0 -.42501830E+03 -.40306979E+03 0.20879959E+03 0.62185463E+03 0.32000000E+00 0.0000E+00 0.9000E+01
#aMCatNLO 1  0  0  5  1 0.14528804D+03 0.00000000D+00  -5  6  0 0.00000000D+00 0.00000000D+00 0.00000000D+00 0.00000000D+00 0.00000000D+00
  <mgrwgt>
 -.3564538245D-03    1    2    0
 0.117063146591503D+04 0.000000000000000D+00 0.000000000000000D+00 0.117063146591503D+04
 0.117063146591503D+04 -.000000000000000D+00 -.000000000000000D+00 -.117063146591503D+04
 0.614928662214033D+03 0.447129273913504D+03 0.368075408403839D+03 -.164645576163678D+03
 0.690687416533322D+03 -.221195465915075D+02 0.349862564121345D+02 -.689446005774437D+03
 0.103564685308270D+04 -.425009727321997D+03 -.403061664815973D+03 0.854091581938116D+03
 0.000000000000000D+00 0.000000000000000D+00 -.000000000000000D+00 0.000000000000000D+00
 0.117063146591503D+04 0.000000000000000D+00 0.000000000000000D+00 0.117063146591503D+04
 0.117063146591503D+04 -.000000000000000D+00 -.000000000000000D+00 -.117063146591503D+04
 0.580194941229822D+03 0.427721515230132D+03 0.349669891959411D+03 -.125644108079170D+03
 0.647424957935070D+03 -.438493174537701D+02 0.143786395582793D+02 -.645778265537420D+03
 0.544338302322405D+03 -.328607559319881D+03 0.847916950412166D+02 0.425595615326458D+03
 0.569304730342756D+03 -.552646384564814D+02 -.448840226558907D+03 0.345826758290132D+03
-.111492978549D-03 0.000000000000D+00 0.000000000000D+00 0.883778465688D-05 0.000000000000D+00  6 2 2 25 2 2 21 2 0.79161980D-01 0.40972931D+00 0.37186201D+06 0.37186201D+06 0.37186201D+06 0.10777187D+01  1  2 14  3  6  5        2 -.356453824522D-03 0.100000000000D+01
  </mgrwgt>
  </event>
  <event>
  5     66 0.18411016E-05 0.11323770E+03 0.75467711E-02 0.90864760E-01
        2 -1    0    0  502    0 0.00000000E+00 0.00000000E+00 0.24891744E+03 0.24891765E+03 0.32000000E+00 0.0000E+00 0.9000E+01
        2 -1    0    0  501    0 -.00000000E+00 -.00000000E+00 -.28570838E+04 0.28570839E+04 0.32000000E+00 0.0000E+00 0.9000E+01
       25  1    1    2    0    0 -.53854486E+03 -.23753155E+03 -.14364709E+04 0.15574099E+04 0.12500000E+03 0.0000E+00 0.9000E+01
        2  1    1    2  501    0 0.65107483E+03 0.25070690E+03 -.12352683E+04 0.14186755E+04 0.32000000E+00 0.0000E+00 0.9000E+01
        2  1    1    2  502    0 -.11252997E+03 -.13175358E+02 0.63572833E+02 0.12991610E+03 0.32000000E+00 0.0000E+00 0.9000E+01
#aMCatNLO 1  0  0  5  1 0.14528804D+03 0.00000000D+00  -5  6  0 0.00000000D+00 0.00000000D+00 0.00000000D+00 0.00000000D+00 0.00000000D+00
  <mgrwgt>
 0.1191008453D-03    1    2    0
 0.843313909960469D+03 0.000000000000000D+00 0.000000000000000D+00 0.843313909960469D+03
 0.843313909960469D+03 -.000000000000000D+00 -.000000000000000D+00 -.843313909960469D+03
 0.646831576013853D+03 -.538675875313141D+03 -.237578816445848D+03 -.236961378837095D+03
 0.702423891899814D+03 0.651145311053886D+03 0.250747086441752D+03 -.808393867195514D+02
 0.337372352007270D+03 -.112469435740745D+03 -.131682699959034D+02 0.317800765556646D+03
 0.000000000000000D+00 0.000000000000000D+00 0.000000000000000D+00 0.000000000000000D+00
 0.843313909960469D+03 0.000000000000000D+00 0.000000000000000D+00 0.843313909960469D+03
 0.843313909960469D+03 -.000000000000000D+00 -.000000000000000D+00 -.843313909960469D+03
 0.646429262518937D+03 -.541563556039895D+03 -.237916915052118D+03 -.228801765164264D+03
 0.698427702044354D+03 0.648017394373547D+03 0.250380860265723D+03 -.720009471109404D+02
 0.268526172383325D+03 -.116892164581530D+03 -.471021512497969D+02 0.237115824992607D+03
 0.732446829743221D+02 0.104383262478781D+02 0.346382060361913D+02 0.636868872825966D+02
0.224500039146D-04 0.000000000000D+00 0.000000000000D+00 0.140654976355D-07 0.000000000000D+00  6 2 2 25 2 2 21 2 0.38295008D-01 0.43955138D+00 0.49904224D+06 0.49904224D+06 0.49904224D+06 0.10685693D+01  1  2 14  3  6  5        2 0.119100845254D-03 0.100000000000D+01
  </mgrwgt>
  </event>
  <event>
  5     66 0.18411016E-05 0.16949942E+02 0.75467711E-02 0.84876916E-01
        2 -1    0    0  502    0 0.00000000E+00 0.00000000E+00 0.78862363E+03 0.78862369E+03 0.32000000E+00 0.0000E+00 0.9000E+01
        2 -1    0    0  501    0 0.00000000E+00 0.00000000E+00 -.64715476E+03 0.64715484E+03 0.32000000E+00 0.0000E+00 0.9000E+01
       25  1    1    2    0    0 0.29943827E+03 0.47000242E+03 0.73576605E+02 0.57585073E+03 0.12500000E+03 0.0000E+00 0.9000E+01
        2  1    1    2  501    0 -.30692827E+03 -.48522449E+03 -.18748648E+03 0.60398597E+03 0.32000000E+00 0.0000E+00 0.9000E+01
        2  1    1    2  502    0 0.74900008E+01 0.15222076E+02 0.25537875E+03 0.25594183E+03 0.32000000E+00 0.0000E+00 0.9000E+01
#aMCatNLO 1  0  0  2  4 0.25621023D+02 0.00000000D+00  -5  6  0 0.00000000D+00 0.00000000D+00 0.00000000D+00 0.00000000D+00 0.00000000D+00
  <mgrwgt>
 0.8553968596D-02    5    2    0
 0.714395993753550D+03 0.000000000000000D+00 0.000000000000000D+00 0.714395993753550D+03
 0.714395993753550D+03 0.000000000000000D+00 0.000000000000000D+00 -.714395993753550D+03
 0.571514916842009D+03 0.299508810741962D+03 0.470115484547242D+03 0.170353646798828D+02
 0.625575791458431D+03 -.306992156867771D+03 -.485324036614856D+03 -.248115831748760D+03
 0.231701279206660D+03 0.748334612580954D+01 0.152085520676142D+02 0.231080467068877D+03
 0.000000000000000D+00 -.000000000000000D+00 -.000000000000000D+00 -.000000000000000D+00
 0.138536442021143D+04 0.000000000000000D+00 0.000000000000000D+00 0.138536442021143D+04
 0.143855620829451D+04 0.000000000000000D+00 0.000000000000000D+00 -.143855620829451D+04
 0.111863568372505D+04 0.591248754705302D+03 0.941198969035064D+03 0.170353646798828D+02
 0.354379962347953D+03 -.137840226497716D+03 -.212188038561122D+03 -.248115831748760D+03
 0.299899780846072D+03 0.992439640367828D+02 0.163377880672438D+03 0.231080467068877D+03
 0.105100520158686D+04 -.552652492244369D+03 -.892388811146380D+03 -.531917880830739D+02
0.370610098412D-03 0.000000000000D+00 0.000000000000D+00 0.492321952005D-06 0.000000000000D+00  6 2 2 25 2 2 21 0 0.12132672D+00 0.99562281D-01 0.33783924D+06 0.33783924D+06 0.33783924D+06 0.10807556D+01  1  2  2  2  6  2        2 0.943521123305D-02 0.100000000000D+01
0.242730450979D-03 0.000000000000D+00 -.142324036178D-05 0.492321952005D-06 0.000000000000D+00  6 2 2 25 2 2 21 2 0.12132672D+00 0.99562281D-01 0.33783924D+06 0.33783924D+06 0.33783924D+06 0.10807556D+01  1  2  3  2  6  2        2 0.721794615385D-02 0.100000000000D+01
-.300676865370D-03 0.000000000000D+00 0.000000000000D+00 0.492321952005D-06 0.000000000000D+00  6 2 2 25 2 2 21 2 0.12132672D+00 0.99562281D-01 0.33783924D+06 0.33783924D+06 0.33783924D+06 0.10807556D+01  1  2 15  2  6  2        2 -.894106781904D-02 0.100000000000D+01
0.179819656670D-03 0.000000000000D+00 -.210384238519D-03 0.492321952005D-06 0.000000000000D+00  6 2 2 25 2 2 21 2 0.12132672D+00 0.31040081D+00 0.33783924D+06 0.33783924D+06 0.33783924D+06 0.10807556D+01  1  2  5  2  6  2        2 0.812900561803D-03 0.100000000000D+01
0.331368176595D-04 0.000000000000D+00 -.274170095170D-04 0.492321952005D-06 0.000000000000D+00  6 2 21 25 2 2 -2 2 0.12132672D+00 0.31040081D+00 0.33783924D+06 0.33783924D+06 0.33783924D+06 0.10807556D+01  1  2  5  5  6  2        2 0.289784660510D-04 0.100000000000D+01
  </mgrwgt>
  </event>
  <event>
  6     66 0.18411016E-05 0.39988227E+02 0.75467711E-02 0.91606472E-01
        2 -1    0    0  502    0 0.00000000E+00 0.00000000E+00 0.12817134E+04 0.12817135E+04 0.32000000E+00 0.0000E+00 0.9000E+01
        2 -1    0    0  503    0 0.00000000E+00 0.00000000E+00 -.51313605E+03 0.51313615E+03 0.32000000E+00 0.0000E+00 0.9000E+01
       25  1    1    2    0    0 -.61534012E+03 0.14976539E+03 0.75742644E+02 0.64995006E+03 0.12500000E+03 0.0000E+00 0.9000E+01
        2  1    1    2  501    0 -.58802731E+01 -.32983458E+02 -.93823159E+02 0.99626169E+02 0.32000000E+00 0.0000E+00 0.9000E+01
        2  1    1    2  502    0 0.61775964E+03 -.10650332E+03 0.80720214E+03 0.10220300E+04 0.32000000E+00 0.0000E+00 0.9000E+01
       21  1    1    2  503  501 0.34607520E+01 -.10278616E+02 -.20544247E+02 0.23243393E+02 0.75000000E+00 0.0000E+00 0.9000E+01
#aMCatNLO 2  0  0  2  5 0.10845587D+02 0.00000000D+00  -5  6  0 0.00000000D+00 0.00000000D+00 0.00000000D+00 0.00000000D+00 0.00000000D+00
  <mgrwgt>
 0.7818835942D-03    5    2    0
 0.793057068859191D+03 0.000000000000000D+00 0.000000000000000D+00 0.793057068859191D+03
 0.793057068859191D+03 0.000000000000000D+00 0.000000000000000D+00 -.793057068859191D+03
 0.685973509518346D+03 -.613845627185402D+03 0.145311476390666D+03 -.238773483819795D+03
 0.158141935443122D+03 -.553494988141347D+01 -.340057150828947D+02 -.154343277849110D+03
 0.741998692756915D+03 0.619380577066815D+03 -.111305761307771D+03 0.393116761668905D+03
 0.000000000000000D+00 0.000000000000000D+00 -.000000000000000D+00 -.000000000000000D+00
 0.793907670443232D+03 0.000000000000000D+00 0.000000000000000D+00 0.793907670443232D+03
 0.828417565208306D+03 0.000000000000000D+00 0.000000000000000D+00 -.828417565208306D+03
 0.688270572518294D+03 -.615344845387441D+03 0.149764233628477D+03 -.238773483819795D+03
 0.157937339356813D+03 -.587977348899639D+01 -.329815707573089D+02 -.154343277849110D+03
 0.739943305577408D+03 0.617763866871508D+03 -.106504046644885D+03 0.393116761668905D+03
 0.361740181990236D+02 0.346075200492891D+01 -.102786162262834D+02 -.345098947650736D+02
-.384859656033D-07 0.000000000000D+00 0.000000000000D+00 0.201700553285D-06 0.000000000000D+00  6 2 2 25 2 2 21 2 0.19697446D+00 0.78999612D-01 0.43345792D+06 0.43345792D+06 0.43345792D+06 0.10729217D+01  1  2 13  2  6  2        2 -.724083811204D-06 0.100000000000D+01
-.239891476779D-04 0.000000000000D+00 0.000000000000D+00 0.201700553285D-06 0.000000000000D+00  6 2 2 25 2 2 21 2 0.19697446D+00 0.75573972D-01 0.42695217D+06 0.42695217D+06 0.42695217D+06 0.10733920D+01  1  2  8  2  6  2        2 -.475481407275D-03 0.100000000000D+01
-.589099703924D-03 0.000000000000D+00 0.000000000000D+00 0.201700553285D-06 0.000000000000D+00  6 2 2 25 2 2 21 2 0.19697446D+00 0.78984963D-01 0.42695217D+06 0.42695217D+06 0.42695217D+06 0.10733920D+01  1  2  9  2  6  2        2 -.111020463253D-01 0.100000000000D+01
0.588526142005D-03 0.000000000000D+00 0.000000000000D+00 0.201700553285D-06 0.000000000000D+00  6 2 2 25 2 2 21 2 0.19697446D+00 0.75573972D-01 0.42695217D+06 0.42695217D+06 0.42695217D+06 0.10733920D+01  1  2 10  2  6  2        2 0.116649929367D-01 0.100000000000D+01
0.369845844752D-04 0.000000000000D+00 0.000000000000D+00 0.201700553285D-06 0.200194207083D-07  6 2 2 25 2 2 21 2 0.19718573D+00 0.78943633D-01 0.43345792D+06 0.43345792D+06 0.43345792D+06 0.10729217D+01  1  2  1  2  6  2        2 0.695142473977D-03 0.100000000000D+01
  </mgrwgt>
  </event>
  <event>
  6     66 -.18411016E-05 0.21596671E+03 0.75467711E-02 0.90382485E-01
        2 -1    0    0  502    0 0.00000000E+00 0.00000000E+00 0.18935178E+04 0.18935178E+04 0.32000000E+00 0.0000E+00 0.9000E+01
        2 -1    0    0  501    0 -.00000000E+00 -.00000000E+00 -.20542694E+04 0.20542695E+04 0.32000000E+00 0.0000E+00 0.9000E+01
       25  1    1    2    0    0 -.14645288E+03 0.70349663E+03 -.74508763E+03 0.10426584E+04 0.12500000E+03 0.0000E+00 0.9000E+01
        2  1    1    2  501    0 -.55097791E+02 -.21668081E+03 -.11089868E+04 0.11312994E+04 0.32000000E+00 0.0000E+00 0.9000E+01
        2  1    1    2  503    0 0.17119841E+03 -.42246939E+03 0.15048100E+04 0.15723366E+04 0.32000000E+00 0.0000E+00 0.9000E+01
       21  1    1    2  502  503 0.30352261E+02 -.64346427E+02 0.18851285E+03 0.20149288E+03 0.75000000E+00 0.0000E+00 0.9000E+01
#aMCatNLO 2  0  0  5  1 0.12334925D+02 0.00000000D+00  -5  6  0 0.00000000D+00 0.00000000D+00 0.00000000D+00 0.00000000D+00 0.00000000D+00
  <mgrwgt>
 -.2327529004D-02    3    2    0
 0.197225651506320D+04 0.000000000000000D+00 0.000000000000000D+00 0.197225651506320D+04
 0.197225651506320D+04 -.000000000000000D+00 -.000000000000000D+00 -.197225651506320D+04
 0.101310118292617D+04 -.146448594851777D+03 0.703569399892251D+03 -.703058970106773D+03
 0.108735285701112D+04 -.551195601984841D+02 -.216711358252814D+03 -.106411195695659D+04
 0.184405899018913D+04 0.201568155050261D+03 -.486858041639437D+03 0.176717092706336D+04
 0.000000000000000D+00 0.000000000000000D+00 0.000000000000000D+00 0.000000000000000D+00
 0.197225651506320D+04 0.000000000000000D+00 0.000000000000000D+00 0.197225651506320D+04
 0.197225651506320D+04 -.000000000000000D+00 -.000000000000000D+00 -.197225651506320D+04
 0.101300997243415D+04 -.146437057858238D+03 0.703541533992107D+03 -.702957823973034D+03
 0.108725195248900D+04 -.551071776588731D+02 -.216741266444334D+03 -.106400339782433D+04
 0.163531399481059D+04 0.171232360942746D+03 -.422556058256931D+03 0.157047054025847D+04
 0.208937110392665D+03 0.303118745743651D+02 -.642442092908416D+02 0.196490681538894D+03
-.441791201385D-09 0.000000000000D+00 0.000000000000D+00 0.178388174068D-05 0.000000000000D+00  6 2 2 25 2 2 21 2 0.29131043D+00 0.31604146D+00 0.54761170D+06 0.54761170D+06 0.54761170D+06 0.10657297D+01  1  2 13  3  6  5        2 -.403146116810D-09 0.100000000000D+01
-.881264894335D-02 0.000000000000D+00 0.000000000000D+00 0.178388174068D-05 0.000000000000D+00  6 2 2 25 2 2 21 2 0.29131043D+00 0.31604146D+00 0.54761170D+06 0.54761170D+06 0.54761170D+06 0.10657297D+01  1  2 13  3  6  5        2 -.804177446084D-02 0.100000000000D+01
0.626200635029D-02 0.000000000000D+00 0.000000000000D+00 0.178388174068D-05 0.392486433641D-07  6 2 2 25 2 2 21 2 0.29131043D+00 0.31604146D+00 0.54761170D+06 0.54761170D+06 0.54761170D+06 0.10657297D+01  1  2  1  3  6  5        2 0.571424586014D-02 0.100000000000D+01
  </mgrwgt>
  </event>
  <event>
  5     66 0.18411016E-05 0.21958285E+03 0.75467711E-02 0.95440137E-01
        2 -1    0    0  502    0 0.00000000E+00 0.00000000E+00 0.17849433E+04 0.17849433E+04 0.32000000E+00 0.0000E+00 0.9000E+01
        2 -1    0    0  501    0 0.00000000E+00 0.00000000E+00 -.70351726E+03 0.70351734E+03 0.32000000E+00 0.0000E+00 0.9000E+01
       25  1    1    2    0    0 0.39662673E+03 -.22321062E+03 0.26360133E+03 0.54059820E+03 0.12500000E+03 0.0000E+00 0.9000E+01
        2  1    1    2  501    0 -.19204856E+03 0.14339294E+03 -.53031186E+03 0.58195787E+03 0.32000000E+00 0.0000E+00 0.9000E+01
        2  1    1    2  502    0 -.20457817E+03 0.79817680E+02 0.13481366E+04 0.13659046E+04 0.32000000E+00 0.0000E+00 0.9000E+01
#aMCatNLO 1  0  0  5  2 0.10748853D+02 0.00000000D+00  -5  6  0 0.00000000D+00 0.00000000D+00 0.00000000D+00 0.00000000D+00 0.00000000D+00
  <mgrwgt>
 0.3612922057D-02    6    2    0
 0.112059741141990D+04 0.000000000000000D+00 0.000000000000000D+00 0.112059741141990D+04
 0.112059741141990D+04 -.000000000000000D+00 -.000000000000000D+00 -.112059741141990D+04
 0.473068612544406D+03 0.396637809939735D+03 -.223222979098686D+03 0.319196100102677D+02
 0.902088277511974D+03 -.192073343159547D+03 0.143410646157414D+03 -.869657678538371D+03
 0.866037932783424D+03 -.204564466780188D+03 0.798123329412714D+02 0.837738068528103D+03
 0.000000000000000D+00 0.000000000000000D+00 0.000000000000000D+00 0.000000000000000D+00
 0.112059741141990D+04 0.000000000000000D+00 0.000000000000000D+00 0.112059741141990D+04
 0.112059741141990D+04 -.000000000000000D+00 -.000000000000000D+00 -.112059741141990D+04
 0.466613430536105D+03 0.383977029775067D+03 -.218283282494952D+03 0.837683875039909D+02
 0.818399614269930D+03 -.215254289453269D+03 0.152454863037349D+03 -.774726425420871D+03
 0.455554566357194D+03 -.385122998627833D+03 0.838607615415873D+01 0.243186990983346D+03
 0.500627211676576D+03 0.216400258306035D+03 0.574423433034437D+02 0.447771046933535D+03
0.111561796431D-02 0.000000000000D+00 0.000000000000D+00 0.638780020965D-05 0.000000000000D+00  6 2 2 25 2 2 21 0 0.27460667D+00 0.10823343D+00 0.21682014D+06 0.21682014D+06 0.21682014D+06 0.10951421D+01  1  2  2  3  6  5        2 0.684928228644D-02 0.100000000000D+01
0.132147436752D-03 0.000000000000D+00 -.428426673190D-05 0.638780020965D-05 0.000000000000D+00  6 2 2 25 2 2 21 2 0.27460667D+00 0.10823343D+00 0.21682014D+06 0.21682014D+06 0.21682014D+06 0.10951421D+01  1  2  3  3  6  5        2 0.973036715928D-03 0.100000000000D+01
-.809706181120D-03 0.000000000000D+00 0.000000000000D+00 0.638780020965D-05 0.000000000000D+00  6 2 2 25 2 2 21 2 0.27460667D+00 0.10823343D+00 0.21682014D+06 0.21682014D+06 0.21682014D+06 0.10951421D+01  1  2 15  3  6  5        2 -.596208191933D-02 0.100000000000D+01
-.140676653718D-04 0.000000000000D+00 0.000000000000D+00 0.638780020965D-05 0.000000000000D+00  6 2 2 25 2 2 21 2 0.27460667D+00 0.10823343D+00 0.21682014D+06 0.21682014D+06 0.21682014D+06 0.10951421D+01  1  2  4  3  6  5        2 -.103583960845D-03 0.100000000000D+01
-.361300996217D-03 0.000000000000D+00 0.000000000000D+00 0.638780020965D-05 0.000000000000D+00  6 2 2 25 2 2 21 2 0.27460667D+00 0.10823343D+00 0.21682014D+06 0.21682014D+06 0.21682014D+06 0.10951421D+01  1  2  5  3  6  5        2 -.266035530815D-02 0.100000000000D+01
0.613399583639D-03 0.000000000000D+00 -.000000000000D+00 0.638780020965D-05 0.000000000000D+00  6 2 2 25 2 2 21 2 0.27460667D+00 0.10823343D+00 0.21682014D+06 0.21682014D+06 0.21682014D+06 0.10951421D+01  1  2  6  3  6  5        2 0.451662424249D-02 0.100000000000D+01
  </mgrwgt>
  </event>
  <event>
  5     66 -.18411016E-05 0.11087407E+02 0.75467711E-02 0.92953663E-01
        2 -1    0    0  502    0 0.00000000E+00 0.00000000E+00 0.28164138E+04 0.28164138E+04 0.32000000E+00 0.0000E+00 0.9000E+01
        2 -1    0    0  501    0 0.00000000E+00 0.00000000E+00 -.94224179E+03 0.94224185E+03 0.32000000E+00 0.0000E+00 0.9000E+01
       25  1    1    2    0    0 0.21872017E+03 0.52656548E+03 -.77417963E+03 0.96958177E+03 0.12500000E+03 0.0000E+00 0.9000E+01
        2  1    1    2  501    0 0.86659056E+01 -.69596752E+01 -.40013239E+02 0.41529468E+02 0.32000000E+00 0.0000E+00 0.9000E+01
        2  1    1    2  502    0 -.22738607E+03 -.51960580E+03 0.26883649E+04 0.27475445E+04 0.32000000E+00 0.0000E+00 0.9000E+01
#aMCatNLO 1  0  0  2  5 0.54336672D+02 0.00000000D+00  -5  6  0 0.00000000D+00 0.00000000D+00 0.00000000D+00 0.00000000D+00 0.00000000D+00
  <mgrwgt>
 -.3765851960D-03    1    2    0
 0.162903129389230D+04 0.000000000000000D+00 0.000000000000000D+00 0.162903129389230D+04
 0.162903129389230D+04 0.000000000000000D+00 0.000000000000000D+00 -.162903129389230D+04
 0.156413315100193D+04 0.218741943821301D+03 0.526550808821066D+03 -.145113187609066D+04
 0.706785253611333D+02 0.864575543443146D+01 -.694129003708076D+01 -.698034623268322D+02
 0.162325091142154D+04 -.227387699255732D+03 -.519609518783985D+03 0.152093533841749D+04
 0.000000000000000D+00 0.000000000000000D+00 0.000000000000000D+00 -.000000000000000D+00
 0.211667400104849D+04 0.000000000000000D+00 0.000000000000000D+00 0.211667400104849D+04
 0.281772279113126D+04 0.000000000000000D+00 0.000000000000000D+00 -.281772279113126D+04
 0.145656843030842D+04 -.819875406963692D+01 0.107541060276342D+02 -.145113187609066D+04
 0.768853450316618D+02 -.244049285226685D+01 -.321384026121746D+02 -.698034623268322D+02
 0.195955414177264D+04 -.496558372787263D+03 -.113138760524679D+04 0.152093533841749D+04
 0.144138887506703D+04 0.507197619709166D+03 0.115277190183133D+04 -.701048790082776D+03
-.304525894621D-03 0.000000000000D+00 0.000000000000D+00 0.467280755742D-05 0.000000000000D+00  6 2 2 25 2 2 21 2 0.43329444D+00 0.14496028D+00 0.33755667D+06 0.33755667D+06 0.33755667D+06 0.10807822D+01  1  2 14  2  6  2        2 -.376585195965D-03 0.100000000000D+01
  </mgrwgt>
  </event>
  <event>
  5     66 0.18411016E-05 0.56928355E+02 0.75467711E-02 0.94659434E-01
        2 -1    0    0  502    0 0.00000000E+00 0.00000000E+00 0.13650899E+04 0.13650899E+04 0.32000000E+00 0.0000E+00 0.9000E+01
        2 -1    0    0  501    0 0.00000000E+00 0.00000000E+00 -.13428572E+04 0.13428572E+04 0.32000000E+00 0.0000E+00 0.9000E+01
       25  1    1    2    0    0 -.35725504E+03 0.30997844E+03 0.27072939E+03 0.55913970E+03 0.12500000E+03 0.0000E+00 0.9000E+01
        2  1    1    2  501    0 0.30034513E+03 -.31164751E+03 -.11586622E+04 0.12368628E+04 0.32000000E+00 0.0000E+00 0.9000E+01
        2  1    1    2  502    0 0.56909918E+02 0.16690689E+01 0.91016552E+03 0.91194457E+03 0.32000000E+00 0.0000E+00 0.9000E+01
#aMCatNLO 1  0  0  2  4 0.15358030D+02 0.00000000D+00  -5  6  0 0.00000000D+00 0.00000000D+00 0.00000000D+00 0.00000000D+00 0.00000000D+00
  <mgrwgt>
 0.5296098714D-02   11    2    0
 0.135392791494140D+04 0.000000000000000D+00 0.000000000000000D+00 0.135392791494140D+04
 0.135392791494140D+04 0.000000000000000D+00 0.000000000000000D+00 -.135392791494140D+04
 0.557016990667434D+03 -.357282520992480D+03 0.310012270323433D+03 0.266241469974859D+03
 0.124643228406919D+04 0.300378633511232D+03 -.311681162388956D+03 -.116885455395944D+04
 0.904406555146172D+03 0.569038874812474D+02 0.166889206552298D+01 0.902613083984583D+03
 0.000000000000000D+00 0.000000000000000D+00 0.000000000000000D+00 -.000000000000000D+00
 0.135420060914259D+04 0.000000000000000D+00 0.000000000000000D+00 0.135420060914259D+04
 0.158895583226412D+04 0.000000000000000D+00 0.000000000000000D+00 -.158895583226412D+04
 0.555429515399463D+03 -.357526303077857D+03 0.306867021444126D+03 0.266241469974859D+03
 0.124808314268079D+04 0.299831984149288D+03 -.318733970598259D+03 -.116885455395944D+04
 0.904386724193620D+03 0.565075076146663D+02 -.344515611901035D+01 0.902613083984583D+03
 0.235257059132835D+03 0.118681131390199D+01 0.153121052731443D+02 -.234755223121531D+03
0.953202066439D-05 0.000000000000D+00 0.000000000000D+00 0.560776300075D-04 0.000000000000D+00  6 2 2 25 2 2 21 0 0.21001383D+00 0.20659342D+00 0.23964061D+06 0.23964061D+06 0.23964061D+06 0.10918445D+01  1  2  2  2  6  2        2 0.392344419320D-04 0.100000000000D+01
0.354709699339D-05 0.000000000000D+00 -.366054691899D-07 0.560776300075D-04 0.000000000000D+00  6 2 2 25 2 2 21 2 0.21001383D+00 0.20659342D+00 0.23964061D+06 0.23964061D+06 0.23964061D+06 0.10918445D+01  1  2  3  2  6  2        2 0.174051250579D-04 0.100000000000D+01
-.633931210880D-05 0.000000000000D+00 0.000000000000D+00 0.560776300075D-04 0.000000000000D+00  6 2 2 25 2 2 21 2 0.21001383D+00 0.20659342D+00 0.23964061D+06 0.23964061D+06 0.23964061D+06 0.10918445D+01  1  2 15  2  6  2        2 -.311061468690D-04 0.100000000000D+01
0.307473631530D-10 0.000000000000D+00 0.000000000000D+00 0.560776300075D-04 0.000000000000D+00  6 2 2 25 2 2 21 2 0.21001383D+00 0.24248566D+00 0.24851570D+06 0.24851570D+06 0.24851570D+06 0.10906537D+01  1  2 12  2  6  2        2 0.111676619009D-09 0.100000000000D+01
0.503522991184D-02 0.000000000000D+00 0.000000000000D+00 0.560776300075D-04 0.000000000000D+00  6 2 2 25 2 2 21 2 0.21001383D+00 0.24323368D+00 0.24851570D+06 0.24851570D+06 0.24851570D+06 0.10906537D+01  1  2 12  2  6  2        2 0.181769960062D-01 0.100000000000D+01
-.388946584702D-02 0.000000000000D+00 0.000000000000D+00 0.560776300075D-04 0.000000000000D+00  6 2 2 25 2 2 21 2 0.21001383D+00 0.20659342D+00 0.23964061D+06 0.23964061D+06 0.23964061D+06 0.10918445D+01  1  2  4  2  6  2        2 -.190850827034D-01 0.100000000000D+01
-.516435427030D-02 0.000000000000D+00 -.128938938977D-04 0.560776300075D-04 0.000000000000D+00  6 2 2 25 2 2 21 2 0.21001383D+00 0.24247295D+00 0.23964061D+06 0.23964061D+06 0.23964061D+06 0.10918445D+01  1  2  5  2  6  2        2 -.188474725569D-01 0.100000000000D+01
0.510103723289D-02 0.000000000000D+00 0.127303166121D-04 0.560776300075D-04 0.000000000000D+00  6 2 2 25 2 2 21 2 0.21001383D+00 0.20659342D+00 0.23964061D+06 0.23964061D+06 0.23964061D+06 0.10918445D+01  1  2  6  2  6  2        2 0.250300995798D-01 0.100000000000D+01
0.739469390428D-12 0.000000000000D+00 0.000000000000D+00 0.560776300075D-04 0.000000000000D+00  6 2 21 25 2 2 -2 2 0.21001383D+00 0.24248566D+00 0.24851570D+06 0.24851570D+06 0.24851570D+06 0.10906537D+01  1  2 12  5  6  2        2 0.865393091810D-12 0.100000000000D+01
0.122951943923D-03 0.000000000000D+00 0.000000000000D+00 0.560776300075D-04 0.000000000000D+00  6 2 21 25 2 2 -2 2 0.21001383D+00 0.24323368D+00 0.24851570D+06 0.24851570D+06 0.24851570D+06 0.10906537D+01  1  2 12  5  6  2        2 0.142193169109D-03 0.100000000000D+01
-.124068814287D-03 0.000000000000D+00 -.310014983493D-06 0.560776300075D-04 0.000000000000D+00  6 2 21 25 2 2 -2 2 0.21001383D+00 0.24247295D+00 0.23964061D+06 0.23964061D+06 0.23964061D+06 0.10918445D+01  1  2  5  5  6  2        2 -.146168313696D-03 0.100000000000D+01
  </mgrwgt>
  </event>
  <event>
  5     66 0.18411016E-05 0.23350970E+03 0.75467711E-02 0.92458739E-01
        2 -1    0    0  502    0 0.00000000E+00 0.00000000E+00 0.37237542E+03 0.37237556E+03 0.32000000E+00 0.0000E+00 0.9000E+01
        2 -1    0    0  501    0 -.00000000E+00 -.00000000E+00 -.29574940E+04 0.29574940E+04 0.32000000E+00 0.0000E+00 0.9000E+01
       25  1    1    2    0    0 -.42252199E+03 -.19523986E+03 -.34961470E+03 0.59539808E+03 0.12500000E+03 0.0000E+00 0.9000E+01
        2  1    1    2  501    0 0.18902410E+03 0.19078457E+03 -.24212324E+04 0.24360820E+04 0.32000000E+00 0.0000E+00 0.9000E+01
        2  1    1    2  502    0 0.23349789E+03 0.44552825E+01 0.18572854E+03 0.29838952E+03 0.32000000E+00 0.0000E+00 0.9000E+01
#aMCatNLO 1  0  0  5  2 0.21433616D+03 0.00000000D+00  -5  6  0 0.00000000D+00 0.00000000D+00 0.00000000D+00 0.00000000D+00 0.00000000D+00
  <mgrwgt>
 0.1775182462D-02    7    2    0
 0.104942762536526D+04 0.000000000000000D+00 0.000000000000000D+00 0.104942762536526D+04
 0.104942762536526D+04 -.000000000000000D+00 -.000000000000000D+00 -.104942762536526D+04
 0.514045554792697D+03 -.422520518443034D+03 -.195265265446240D+03 0.178789597032296D+03
 0.882743817725334D+03 0.189053318612558D+03 0.190810568531084D+03 -.840884544625908D+03
 0.702065878212492D+03 0.233467199830477D+03 0.445469691515614D+01 0.662094947593613D+03
 0.000000000000000D+00 0.000000000000000D+00 0.000000000000000D+00 0.000000000000000D+00
 0.104942762536526D+04 0.000000000000000D+00 0.000000000000000D+00 0.104942762536526D+04
 0.104942762536526D+04 -.000000000000000D+00 -.000000000000000D+00 -.104942762536526D+04
 0.518167504130305D+03 -.407995407561702D+03 -.194988117449938D+03 0.219981689689209D+03
 0.824109608237230D+03 0.213071843718368D+03 0.191268856675085D+03 -.772769862423206D+03
 0.508354243186530D+03 0.110414606739110D+03 -.206428038092527D+03 0.451242857310415D+03
 0.248223895176460D+03 0.845089571042235D+02 0.210147298867379D+03 0.101545315423583D+03
0.118079340486D-02 0.000000000000D+00 0.000000000000D+00 0.186808390811D-05 0.000000000000D+00  6 2 2 25 2 2 21 0 0.57288539D-01 0.45499909D+00 0.24209758D+06 0.24209758D+06 0.24209758D+06 0.10915101D+01  1  2  2  3  6  5        2 0.318097324635D-02 0.100000000000D+01
0.112321762635D-03 0.000000000000D+00 -.453455758472D-05 0.186808390811D-05 0.000000000000D+00  6 2 2 25 2 2 21 2 0.57288539D-01 0.45499909D+00 0.24209758D+06 0.24209758D+06 0.24209758D+06 0.10915101D+01  1  2  3  3  6  5        2 0.360500200150D-03 0.100000000000D+01
-.811130399525D-03 0.000000000000D+00 0.000000000000D+00 0.186808390811D-05 0.000000000000D+00  6 2 2 25 2 2 21 2 0.57288539D-01 0.45499909D+00 0.24209758D+06 0.24209758D+06 0.24209758D+06 0.10915101D+01  1  2 15  3  6  5        2 -.260334831396D-02 0.100000000000D+01
0.448700083120D-09 0.000000000000D+00 0.000000000000D+00 0.186808390811D-05 0.000000000000D+00  6 2 2 25 2 2 21 2 0.57288539D-01 0.45499909D+00 0.36971691D+06 0.36971691D+06 0.36971691D+06 0.10779011D+01  1  2 12  3  6  5        2 0.136371933009D-08 0.100000000000D+01
-.410452870279D-04 0.000000000000D+00 0.000000000000D+00 0.186808390811D-05 0.000000000000D+00  6 2 2 25 2 2 21 2 0.57288539D-01 0.45499909D+00 0.24209758D+06 0.24209758D+06 0.24209758D+06 0.10915101D+01  1  2  4  3  6  5        2 -.131736128793D-03 0.100000000000D+01
-.735221139877D-03 0.000000000000D+00 0.000000000000D+00 0.186808390811D-05 0.000000000000D+00  6 2 2 25 2 2 21 2 0.57288539D-01 0.45499909D+00 0.24209758D+06 0.24209758D+06 0.24209758D+06 0.10915101D+01  1  2  5  3  6  5        2 -.235971517774D-02 0.100000000000D+01
0.103706961496D-02 0.000000000000D+00 -.000000000000D+00 0.186808390811D-05 0.000000000000D+00  6 2 2 25 2 2 21 2 0.57288539D-01 0.45499909D+00 0.24209758D+06 0.24209758D+06 0.24209758D+06 0.10915101D+01  1  2  6  3  6  5        2 0.332850727226D-02 0.100000000000D+01
  </mgrwgt>
  </event>
  <event>
  5     66 0.18411016E-05 0.35772768E+02 0.75467711E-02 0.89482476E-01
        2 -1    0    0  502    0 0.00000000E+00 0.00000000E+00 0.28711040E+04 0.28711040E+04 0.32000000E+00 0.0000E+00 0.9000E+01
        2 -1    0    0  501    0 0.00000000E+00 0.00000000E+00 -.17689150E+04 0.17689150E+04 0.32000000E+00 0.0000E+00 0.9000E+01
       25  1    1    2    0    0 0.27127272E+03 -.63764090E+03 0.50277389E+03 0.86520598E+03 0.12500000E+03 0.0000E+00 0.9000E+01
        2  1    1    2  501    0 -.24790159E+03 0.61055586E+03 -.15191667E+04 0.16559291E+04 0.32000000E+00 0.0000E+00 0.9000E+01
        2  1    1    2  502    0 -.23371135E+02 0.27085044E+02 0.21185818E+04 0.21188839E+04 0.32000000E+00 0.0000E+00 0.9000E+01
#aMCatNLO 1  0  0  1  1 0.34192545D+00 0.00000000D+00  -5  6  0 0.00000000D+00 0.00000000D+00 0.00000000D+00 0.00000000D+00 0.00000000D+00
  <mgrwgt>
 0.8133503961D-02    7    2    0
 0.225360575351061D+04 0.000000000000000D+00 0.000000000000000D+00 0.225360575351061D+04
 0.225360575351061D+04 0.000000000000000D+00 0.000000000000000D+00 -.225360575351061D+04
 0.767819001232296D+03 0.271288160526494D+03 -.637680030232855D+03 0.306084843881131D+03
 0.207622753306534D+04 -.247918108553778D+03 0.610596241172098D+03 -.196886505651764D+04
 0.166316497272358D+04 -.233700519727159D+02 0.270837890607570D+02 0.166278021263651D+04
 0.000000000000000D+00 0.000000000000000D+00 0.000000000000000D+00 0.000000000000000D+00
 0.290815329197950D+04 0.000000000000000D+00 0.000000000000000D+00 0.290815329197950D+04
 0.227948024593094D+04 0.000000000000000D+00 0.000000000000000D+00 -.227948024593094D+04
 0.801777247434965D+03 0.267400423180337D+03 -.679728502075372D+03 0.306084843881131D+03
 0.204772564801902D+04 -.258132739742861D+03 0.500118193481858D+03 -.196886505651764D+04
 0.166423801854985D+04 -.316117057648118D+02 -.620551924487020D+02 0.166278021263651D+04
 0.673892623906602D+03 0.223440223273359D+02 0.241665501042216D+03 0.628673046048560D+03
0.338218038854D-02 0.000000000000D+00 0.000000000000D+00 0.162429343230D-03 0.000000000000D+00  6 2 2 25 2 2 21 0 0.44170831D+00 0.27214077D+00 0.48926695D+06 0.48926695D+06 0.48926695D+06 0.10691771D+01  1  2  2  1  6  1        2 0.107346536549D-02 0.100000000000D+01
0.245317690999D-02 0.000000000000D+00 -.129884632406D-04 0.162429343230D-03 0.000000000000D+00  6 2 2 25 2 2 21 2 0.44170831D+00 0.27214077D+00 0.48926695D+06 0.48926695D+06 0.48926695D+06 0.10691771D+01  1  2  3  1  6  1        2 0.890060276016D-03 0.100000000000D+01
-.232236925401D-02 0.000000000000D+00 0.000000000000D+00 0.162429343230D-03 0.000000000000D+00  6 2 2 25 2 2 21 2 0.44170831D+00 0.27214077D+00 0.48926695D+06 0.48926695D+06 0.48926695D+06 0.10691771D+01  1  2 15  1  6  1        2 -.842600715348D-03 0.100000000000D+01
-.406135855628D-04 0.000000000000D+00 0.000000000000D+00 0.162429343230D-03 0.000000000000D+00  6 2 2 25 2 2 21 2 0.44170831D+00 0.27214077D+00 0.48926695D+06 0.48926695D+06 0.48926695D+06 0.10691771D+01  1  2  4  1  6  1        2 -.147353984251D-04 0.100000000000D+01
-.266863456397D-01 0.000000000000D+00 -.233388031283D-02 0.162429343230D-03 0.000000000000D+00  6 2 2 25 2 2 21 2 0.57125478D+00 0.27214077D+00 0.48926695D+06 0.48926695D+06 0.48926695D+06 0.10691771D+01  1  2  5  1  6  1        2 -.257832067340D-02 0.100000000000D+01
0.264810752650D-01 0.000000000000D+00 0.225876527569D-02 0.162429343230D-03 0.000000000000D+00  6 2 2 25 2 2 21 2 0.44170831D+00 0.27214077D+00 0.48926695D+06 0.48926695D+06 0.48926695D+06 0.10691771D+01  1  2  6  1  6  1        2 0.960784893399D-02 0.100000000000D+01
-.881225650475D-03 0.000000000000D+00 -.806510695846D-04 0.162429343230D-03 0.000000000000D+00  6 21 2 25 2 2 -2 2 0.57125478D+00 0.27214077D+00 0.48926695D+06 0.48926695D+06 0.48926695D+06 0.10691771D+01  1  2  5  4  6  1        2 -.221382766067D-05 0.100000000000D+01
  </mgrwgt>
  </event>
  <event>
  6     66 0.18411016E-05 0.27304324E+02 0.75467711E-02 0.93987599E-01
        2 -1    0    0  502    0 0.00000000E+00 0.00000000E+00 0.34234043E+04 0.34234044E+04 0.32000000E+00 0.0000E+00 0.9000E+01
        2 -1    0    0  501    0 0.00000000E+00 0.00000000E+00 -.67263235E+03 0.67263243E+03 0.32000000E+00 0.0000E+00 0.9000E+01
       25  1    1    2    0    0 0.22403453E+03 -.45431877E+03 0.68921740E+03 0.86443198E+03 0.12500000E+03 0.0000E+00 0.9000E+01
        2  1    1    2  501    0 -.22570870E+03 0.43101483E+03 -.48337897E+03 0.68583783E+03 0.32000000E+00 0.0000E+00 0.9000E+01
        2  1    1    2  503    0 0.13872749E+02 0.31869586E+02 0.23520689E+04 0.23523258E+04 0.32000000E+00 0.0000E+00 0.9000E+01
       21  1    1    2  502  503 -.12198573E+02 -.85656408E+01 0.19286461E+03 0.19344119E+03 0.75000000E+00 0.0000E+00 0.9000E+01
#aMCatNLO 2  0  0  5  2 0.16081679D+02 0.00000000D+00  -5  6  0 0.00000000D+00 0.00000000D+00 0.00000000D+00 0.00000000D+00 0.00000000D+00
  <mgrwgt>
 0.9120581907D-03    5    2    0
 0.151746258572755D+04 0.000000000000000D+00 0.000000000000000D+00 0.151746258572755D+04
 0.151746258572755D+04 -.000000000000000D+00 -.000000000000000D+00 -.151746258572755D+04
 0.542123863160150D+03 0.224111759176360D+03 -.454468694880486D+03 0.146647222204140D+03
 0.136447822068148D+04 -.225787072570589D+03 0.431148920228710D+03 -.127472805772828D+04
 0.112832308761348D+04 0.167531339422915D+01 0.233197746517763D+02 0.112808083552414D+04
 0.000000000000000D+00 0.000000000000000D+00 0.000000000000000D+00 0.000000000000000D+00
 0.151746258572755D+04 0.000000000000000D+00 0.000000000000000D+00 0.151746258572755D+04
 0.151746258572755D+04 -.000000000000000D+00 -.000000000000000D+00 -.151746258572755D+04
 0.542198206202082D+03 0.224112193777446D+03 -.454462645385856D+03 0.146939863066174D+03
 0.136379499262970D+04 -.225785979066607D+03 0.431164141420475D+03 -.127399174123379D+04
 0.104276807979439D+04 0.138779736411367D+02 0.318708577052352D+02 0.104218852349987D+04
 0.861638928289357D+02 -.122041883519752D+02 -.857235373985357D+01 0.848633546677519D+02
-.374129984345D-10 0.000000000000D+00 0.000000000000D+00 0.123579509824D-03 0.000000000000D+00  6 2 2 25 2 2 21 2 0.52667760D+00 0.10348191D+00 0.27999339D+06 0.27999339D+06 0.27999339D+06 0.10867764D+01  1  2 13  3  6  5        2 -.295667777402D-10 0.100000000000D+01
-.100854769678D-03 0.000000000000D+00 0.000000000000D+00 0.123579509824D-03 0.000000000000D+00  6 2 2 25 2 2 21 2 0.52667760D+00 0.10348191D+00 0.26624809D+06 0.26624809D+06 0.26624809D+06 0.10884078D+01  1  2  8  3  6  5        2 -.803081023219D-04 0.100000000000D+01
-.126963483356D-01 0.000000000000D+00 0.000000000000D+00 0.123579509824D-03 0.000000000000D+00  6 2 2 25 2 2 21 2 0.52667760D+00 0.10348191D+00 0.26624809D+06 0.26624809D+06 0.26624809D+06 0.10884078D+01  1  2  9  3  6  5        2 -.101097810694D-01 0.100000000000D+01
0.137028025222D-01 0.000000000000D+00 0.000000000000D+00 0.123579509824D-03 0.000000000000D+00  6 2 2 25 2 2 21 2 0.52667760D+00 0.10348191D+00 0.26624809D+06 0.26624809D+06 0.26624809D+06 0.10884078D+01  1  2 10  3  6  5        2 0.109111950834D-01 0.100000000000D+01
0.241625870933D-03 0.000000000000D+00 0.000000000000D+00 0.123579509824D-03 0.318724662840D-07  6 2 2 25 2 2 21 2 0.52667760D+00 0.10348191D+00 0.27999339D+06 0.27999339D+06 0.27999339D+06 0.10867764D+01  1  2  1  3  6  5        2 0.190952308585D-03 0.100000000000D+01
  </mgrwgt>
  </event>
  <event>
  6     66 0.18411016E-05 0.19141029E+02 0.75467711E-02 0.89041482E-01
        2 -1    0    0  502    0 0.00000000E+00 0.00000000E+00 0.40114382E+04 0.40114382E+04 0.32000000E+00 0.0000E+00 0.9000E+01
        2 -1    0    0  503    0 0.00000000E+00 0.00000000E+00 -.18387634E+04 0.18387634E+04 0.32000000E+00 0.0000E+00 0.9000E+01
       25  1    1    2    0    0 0.15306984E+03 -.82055161E+03 -.76377453E+03 0.11382934E+04 0.12500000E+03 0.0000E+00 0.9000E+01
        2  1    1    2  501    0 -.20177634E+02 0.11592916E+02 -.81640630E+03 0.81673796E+03 0.32000000E+00 0.0000E+00 0.9000E+01
        2  1    1    2  502    0 -.12718143E+03 0.80299128E+03 0.37801786E+04 0.38666162E+04 0.32000000E+00 0.0000E+00 0.9000E+01
       21  1    1    2  503  501 -.57107780E+01 0.59674170E+01 -.27323011E+02 0.28554027E+02 0.75000000E+00 0.0000E+00 0.9000E+01
#aMCatNLO 2  0  0  2  5 0.82597246D+01 0.00000000D+00  -5  6  0 0.00000000D+00 0.00000000D+00 0.00000000D+00 0.00000000D+00 0.00000000D+00
  <mgrwgt>
 0.3698403903D-02    5    2    0
 0.269497316917657D+04 0.000000000000000D+00 0.000000000000000D+00 0.269497316917657D+04
 0.269497316917657D+04 0.000000000000000D+00 0.000000000000000D+00 -.269497316917657D+04
 0.154014328024961D+04 0.151437450125432D+03 -.818846053528826D+03 -.128956355524565D+04
 0.121541481496865D+04 -.214653582011530D+02 0.129386339458366D+02 -.121515636960606D+04
 0.263438824313488D+04 -.129972091924279D+03 0.805907419582989D+03 0.250471992485171D+04
 0.000000000000000D+00 -.000000000000000D+00 0.000000000000000D+00 -.000000000000000D+00
 0.269538656104313D+04 0.000000000000000D+00 0.000000000000000D+00 0.269538656104313D+04
 0.273655268476336D+04 0.000000000000000D+00 0.000000000000000D+00 -.273655268476336D+04
 0.154121211624517D+04 0.153069834305448D+03 -.820551796091405D+03 -.128956355524565D+04
 0.121537917415197D+04 -.201776165608243D+02 0.115930219554697D+02 -.121515636960606D+04
 0.263336137668420D+04 -.127181439747818D+03 0.802991357143143D+03 0.250471992485171D+04
 0.419865787251584D+02 -.571077799680513D+01 0.596741699279272D+01 -.411661237202297D+02
-.200647908664D-10 0.000000000000D+00 0.000000000000D+00 0.112035635510D-03 0.000000000000D+00  6 2 2 25 2 2 21 2 0.61704892D+00 0.28290857D+00 0.71279687D+06 0.71279687D+06 0.71279687D+06 0.10577941D+01  1  2 13  2  6  2        2 -.961681376589D-12 0.100000000000D+01
-.558013299467D-02 0.000000000000D+00 0.000000000000D+00 0.112035635510D-03 0.000000000000D+00  6 2 2 25 2 2 21 2 0.61704892D+00 0.27858811D+00 0.70849701D+06 0.70849701D+06 0.70849701D+06 0.10579742D+01  1  2  8  2  6  2        2 -.277483580318D-03 0.100000000000D+01
-.215416382132D+01 0.000000000000D+00 0.000000000000D+00 0.112035635510D-03 0.000000000000D+00  6 2 2 25 2 2 21 2 0.61704892D+00 0.28290189D+00 0.70849701D+06 0.70849701D+06 0.70849701D+06 0.10579742D+01  1  2  9  2  6  2        2 -.103365563832D+00 0.100000000000D+01
0.215390953987D+01 0.000000000000D+00 0.000000000000D+00 0.112035635510D-03 0.000000000000D+00  6 2 2 25 2 2 21 2 0.61704892D+00 0.27858811D+00 0.70849701D+06 0.70849701D+06 0.70849701D+06 0.10579742D+01  1  2 10  2  6  2        2 0.107107578148D+00 0.100000000000D+01
0.488446922260D-02 0.000000000000D+00 0.000000000000D+00 0.112035635510D-03 0.110747515828D-06  6 2 2 25 2 2 21 2 0.61714357D+00 0.28288632D+00 0.71279687D+06 0.71279687D+06 0.71279687D+06 0.10577941D+01  1  2  1  2  6  2        2 0.233873167849D-03 0.100000000000D+01
  </mgrwgt>
  </event>
  <event>
  6     66 0.18411016E-05 0.18673403E+02 0.75467711E-02 0.90712183E-01
        2 -1    0    0  502    0 0.00000000E+00 0.00000000E+00 0.29148705E+04 0.29148706E+04 0.32000000E+00 0.0000E+00 0.9000E+01
        2 -1    0    0  501    0 0.00000000E+00 0.00000000E+00 -.12237661E+04 0.12237661E+04 0.32000000E+00 0.0000E+00 0.9000E+01
       25  1    1    2    0    0 -.66071392E+03 -.18341258E+03 0.20176703E+03 0.72561560E+03 0.12500000E+03 0.0000E+00 0.9000E+01
        2  1    1    2  501    0 -.32234236E+01 -.27968213E+02 -.90897168E+03 0.90940763E+03 0.32000000E+00 0.0000E+00 0.9000E+01
        2  1    1    2  503    0 0.65112041E+03 0.18124282E+03 0.21658414E+04 0.22688490E+04 0.32000000E+00 0.0000E+00 0.9000E+01
       21  1    1    2  502  503 0.12816939E+02 0.30137974E+02 0.23246769E+03 0.23476447E+03 0.75000000E+00 0.0000E+00 0.9000E+01
#aMCatNLO 2  0  0  5  1 0.50017687D+02 0.00000000D+00  -5  6  0 0.00000000D+00 0.00000000D+00 0.00000000D+00 0.00000000D+00 0.00000000D+00
  <mgrwgt>
 0.1868013921D-01    4    2    0
 0.188868205303675D+04 0.000000000000000D+00 0.000000000000000D+00 0.188868205303675D+04
 0.188868205303675D+04 -.000000000000000D+00 -.000000000000000D+00 -.188868205303675D+04
 0.705521821221416D+03 -.661355651422621D+03 -.183609749601341D+03 -.105034291554129D+03
 0.140666871704947D+04 -.459759923227750D+01 -.284128556890880D+02 -.140637422162043D+04
 0.166517356780262D+04 0.665953250654898D+03 0.212022605290429D+03 0.151140851317456D+04
 0.000000000000000D+00 0.000000000000000D+00 0.000000000000000D+00 0.000000000000000D+00
 0.188868205303675D+04 0.000000000000000D+00 0.000000000000000D+00 0.188868205303675D+04
 0.188868205303675D+04 -.000000000000000D+00 -.000000000000000D+00 -.188868205303675D+04
 0.704587179024765D+03 -.660666375277156D+03 -.183390301578552D+03 -.103469950764204D+03
 0.140353918189585D+04 -.322393998451737D+01 -.279755174642126D+02 -.140325664500492D+04
 0.151607309853964D+04 0.651077575080687D+03 0.181222145253181D+03 0.135710506793412D+04
 0.153164646613241D+03 0.128127401809863D+02 0.301436737895836D+02 0.149621527835003D+03
-.143814241865D-02 0.000000000000D+00 0.000000000000D+00 0.603368726716D-04 0.000000000000D+00  6 2 2 25 2 2 21 2 0.44844163D+00 0.18827171D+00 0.50789285D+06 0.50789285D+06 0.50789285D+06 0.10680300D+01  1  2  8  3  6  5        2 -.982591427067D-03 0.100000000000D+01
-.346063562339D-03 0.000000000000D+00 0.000000000000D+00 0.603368726716D-04 0.000000000000D+00  6 2 2 25 2 2 21 2 0.44844163D+00 0.18827171D+00 0.50789285D+06 0.50789285D+06 0.50789285D+06 0.10680300D+01  1  2  9  3  6  5        2 -.236443265399D-03 0.100000000000D+01
0.379352054298D-03 0.000000000000D+00 0.000000000000D+00 0.603368726716D-04 0.000000000000D+00  6 2 2 25 2 2 21 2 0.44844163D+00 0.18827171D+00 0.50789285D+06 0.50789285D+06 0.50789285D+06 0.10680300D+01  1  2 10  3  6  5        2 0.259187178932D-03 0.100000000000D+01
0.287955071738D-01 0.000000000000D+00 0.000000000000D+00 0.603368726716D-04 0.473013502797D-06  6 2 2 25 2 2 21 2 0.44844163D+00 0.18827171D+00 0.51386732D+06 0.51386732D+06 0.51386732D+06 0.10676717D+01  1  2  1  3  6  5        2 0.196399867206D-01 0.100000000000D+01
  </mgrwgt>
  </event>
  <event>
  5     66 -.18411016E-05 0.56687225E+02 0.75467711E-02 0.90519046E-01
        2 -1    0    0  502    0 0.00000000E+00 0.00000000E+00 0.69702407E+03 0.69702414E+03 0.32000000E+00 0.0000E+00 0.9000E+01
        2 -1    0    0  501    0 0.00000000E+00 0.00000000E+00 -.10170406E+04 0.10170407E+04 0.32000000E+00 0.0000E+00 0.9000E+01
       25  1    1    2    0    0 -.48067611E+03 0.22549228E+03 0.36780991E+02 0.54669382E+03 0.12500000E+03 0.0000E+00 0.9000E+01
        2  1    1    2  501    0 -.49631686E+02 0.27373635E+02 -.54693177E+03 0.54986096E+03 0.32000000E+00 0.0000E+00 0.9000E+01
        2  1    1    2  502    0 0.53030780E+03 -.25286592E+03 0.19013421E+03 0.61751004E+03 0.32000000E+00 0.0000E+00 0.9000E+01
#aMCatNLO 1  0  0  1  5 0.52175620D+03 0.00000000D+00  -5  6  0 0.00000000D+00 0.00000000D+00 0.00000000D+00 0.00000000D+00 0.00000000D+00
  <mgrwgt>
 -.1118251722D-01    7    2    0
 0.841963127053765D+03 0.000000000000000D+00 0.000000000000000D+00 0.841963127053765D+03
 0.841963127053765D+03 0.000000000000000D+00 0.000000000000000D+00 -.841963127053765D+03
 0.563445412275092D+03 -.480632240890534D+03 0.225470844647040D+03 0.141425881098694D+03
 0.455832396526199D+03 -.496380102371285D+02 0.273771705394131D+02 -.452293856022578D+03
 0.664648445306239D+03 0.530270251127663D+03 -.252848015186453D+03 0.310867974923885D+03
 0.000000000000000D+00 0.000000000000000D+00 -.000000000000000D+00 0.000000000000000D+00
 0.148282210878559D+04 0.000000000000000D+00 0.000000000000000D+00 0.148282210878559D+04
 0.867614383857593D+03 0.000000000000000D+00 0.000000000000000D+00 -.867614383857593D+03
 0.632923677079110D+03 -.535769508564120D+03 0.279136409047192D+03 0.141425881098694D+03
 0.466679540602553D+03 -.921539763065985D+02 0.687583163851452D+02 -.452293856022578D+03
 0.598310938985154D+03 0.472064025095753D+03 -.196195407913682D+03 0.310867974923885D+03
 0.652522335976361D+03 0.155859459774966D+03 -.151699317518655D+03 0.615207724927994D+03
0.945401644047D-04 0.000000000000D+00 0.000000000000D+00 0.521622323762D-06 0.000000000000D+00  6 2 2 25 2 2 21 0 0.10723448D+00 0.15646780D+00 0.35376493D+06 0.35376493D+06 0.35376493D+06 0.10792945D+01  1  2  2  1  6  1        2 0.155466802406D-02 0.100000000000D+01
0.338383355008D-04 0.000000000000D+00 -.363059124311D-06 0.521622323762D-06 0.000000000000D+00  6 2 2 25 2 2 21 2 0.10723448D+00 0.15646780D+00 0.35376493D+06 0.35376493D+06 0.35376493D+06 0.10792945D+01  1  2  3  1  6  1        2 0.648201767536D-03 0.100000000000D+01
-.654111406565D-04 0.000000000000D+00 0.000000000000D+00 0.521622323762D-06 0.000000000000D+00  6 2 2 25 2 2 21 2 0.10723448D+00 0.15646780D+00 0.35376493D+06 0.35376493D+06 0.35376493D+06 0.10792945D+01  1  2 15  1  6  1        2 -.125300539647D-02 0.100000000000D+01
-.912320250808D-03 0.000000000000D+00 0.000000000000D+00 0.521622323762D-06 0.000000000000D+00  6 2 2 25 2 2 21 2 0.10723448D+00 0.15646780D+00 0.35376493D+06 0.35376493D+06 0.35376493D+06 0.10792945D+01  1  2  4  1  6  1        2 -.174762614762D-01 0.100000000000D+01
-.610532141398D-03 0.000000000000D+00 -.611824431146D-04 0.521622323762D-06 0.000000000000D+00  6 2 2 25 2 2 21 2 0.19086622D+00 0.15646780D+00 0.35376493D+06 0.35376493D+06 0.35376493D+06 0.10792945D+01  1  2  5  1  6  1        2 -.522053154905D-02 0.100000000000D+01
0.559190392025D-03 0.000000000000D+00 0.522541313818D-04 0.521622323762D-06 0.000000000000D+00  6 2 2 25 2 2 21 2 0.10723448D+00 0.15646780D+00 0.35376493D+06 0.35376493D+06 0.35376493D+06 0.10792945D+01  1  2  6  1  6  1        2 0.107117621223D-01 0.100000000000D+01
-.355119601936D-04 0.000000000000D+00 -.387899815333D-05 0.521622323762D-06 0.000000000000D+00  6 21 2 25 2 2 -2 2 0.19086622D+00 0.15646780D+00 0.35376493D+06 0.35376493D+06 0.35376493D+06 0.10792945D+01  1  2  5  4  6  1        2 -.147350709625D-03 0.100000000000D+01
  </mgrwgt>
  </event>
  <event>
  6     66 0.18411016E-05 0.50190862E+02 0.75467711E-02 0.93737954E-01
        2 -1    0    0  503    0 0.00000000E+00 0.00000000E+00 0.17060523E+04 0.17060524E+04 0.32000000E+00 0.0000E+00 0.9000E+01
        2 -1    0    0  501    0 0.00000000E+00 0.00000000E+00 -.11569308E+04 0.11569308E+04 0.32000000E+00 0.0000E+00 0.9000E+01
       25  1    1    2    0    0 0.38771817E+03 -.29459567E+03 0.32499964E+03 0.59863324E+03 0.12500000E+03 0.0000E+00 0.9000E+01
        2  1    1    2  501    0 -.43766924E+03 0.26976116E+03 -.95421784E+03 0.10839083E+04 0.32000000E+00 0.0000E+00 0.9000E+01
        2  1    1    2  502    0 0.53069629E+02 0.15274735E+02 0.11088197E+04 0.11101940E+04 0.32000000E+00 0.0000E+00 0.9000E+01
       21  1    1    2  503  502 -.31185554E+01 0.95597676E+01 0.69520123E+02 0.70247595E+02 0.75000000E+00 0.0000E+00 0.9000E+01
#aMCatNLO 2  0  0  1  4 0.10055573D+02 0.00000000D+00  -5  6  0 0.00000000D+00 0.00000000D+00 0.00000000D+00 0.00000000D+00 0.00000000D+00
  <mgrwgt>
 0.9643329936D-02    5    2    0
 0.137561381638178D+04 0.000000000000000D+00 0.000000000000000D+00 0.137561381638178D+04
 0.137561381638178D+04 0.000000000000000D+00 0.000000000000000D+00 -.137561381638178D+04
 0.549629566929805D+03 0.387144801965717D+03 -.292711314250921D+03 0.225625020030734D+03
 0.126804645967527D+04 -.439150985686562D+03 0.274194263093779D+03 -.115754297620087D+04
 0.933551606158485D+03 0.520061837208452D+02 0.185170511571427D+02 0.931917956170137D+03
 0.000000000000000D+00 -.000000000000000D+00 0.000000000000000D+00 0.000000000000000D+00
 0.143437599433017D+04 0.000000000000000D+00 0.000000000000000D+00 0.143437599433017D+04
 0.137605325724238D+04 0.000000000000000D+00 0.000000000000000D+00 -.137605325724238D+04
 0.551089164351426D+03 0.387768640002873D+03 -.294623656945613D+03 0.225625020030734D+03
 0.126660439497757D+04 -.437714459197908D+03 0.269790666691047D+03 -.115754297620087D+04
 0.933552449632463D+03 0.530643746066998D+02 0.152732226477789D+02 0.931917956170137D+03
 0.591832426110903D+02 -.311855541166492D+01 0.955976760678674D+01 0.583227370877926D+02
-.121946490896D-09 0.000000000000D+00 0.000000000000D+00 0.313804514560D-04 0.000000000000D+00  6 2 2 25 2 2 21 2 0.26251394D+00 0.17793221D+00 0.29281029D+06 0.29281029D+06 0.29281029D+06 0.10853321D+01  1  2 13  1  6  1        2 -.484614780718D-09 0.100000000000D+01
-.100354822976D-02 0.000000000000D+00 0.000000000000D+00 0.313804514560D-04 0.000000000000D+00  6 2 2 25 2 2 21 2 0.25171655D+00 0.17793221D+00 0.28842861D+06 0.28842861D+06 0.28842861D+06 0.10858180D+01  1  2  8  1  6  1        2 -.436335516604D-02 0.100000000000D+01
-.235691787047D-01 0.000000000000D+00 0.000000000000D+00 0.313804514560D-04 0.000000000000D+00  6 2 2 25 2 2 21 2 0.26249964D+00 0.17793221D+00 0.28842861D+06 0.28842861D+06 0.28842861D+06 0.10858180D+01  1  2  9  1  6  1        2 -.938538159172D-01 0.100000000000D+01
0.235484592616D-01 0.000000000000D+00 0.000000000000D+00 0.313804514560D-04 0.000000000000D+00  6 2 2 25 2 2 21 2 0.25171655D+00 0.17793221D+00 0.28842861D+06 0.28842861D+06 0.28842861D+06 0.10858180D+01  1  2 10  1  6  1        2 0.102386998775D+00 0.100000000000D+01
0.137751484616D-02 0.000000000000D+00 0.000000000000D+00 0.313804514560D-04 0.187982010342D-06  6 2 2 25 2 2 21 2 0.26246914D+00 0.17798905D+00 0.29281029D+06 0.29281029D+06 0.29281029D+06 0.10853321D+01  1  2  1  1  6  1        2 0.547350272818D-02 0.100000000000D+01
  </mgrwgt>
  </event>
  <event>
  5     66 0.18411016E-05 0.65281145E+02 0.75467711E-02 0.87771994E-01
        2 -1    0    0  502    0 0.00000000E+00 0.00000000E+00 0.17368752E+04 0.17368752E+04 0.32000000E+00 0.0000E+00 0.9000E+01
        2 -1    0    0  501    0 0.00000000E+00 0.00000000E+00 -.14760244E+04 0.14760244E+04 0.32000000E+00 0.0000E+00 0.9000E+01
       25  1    1    2    0    0 0.53023690E+03 -.55180455E+02 0.34519933E+03 0.64728945E+03 0.12500000E+03 0.0000E+00 0.9000E+01
        2  1    1    2  501    0 -.48239484E+02 0.43975071E+02 -.12772739E+04 0.12789408E+04 0.32000000E+00 0.0000E+00 0.9000E+01
        2  1    1    2  502    0 -.48199742E+03 0.11205384E+02 0.11929254E+04 0.12866694E+04 0.32000000E+00 0.0000E+00 0.9000E+01
#aMCatNLO 1  0  0  2  4 0.18852514D+03 0.00000000D+00  -5  6  0 0.00000000D+00 0.00000000D+00 0.00000000D+00 0.00000000D+00 0.00000000D+00
  <mgrwgt>
 0.8466701643D-02    3    2    0
 0.160114654361453D+04 0.000000000000000D+00 0.000000000000000D+00 0.160114654361453D+04
 0.160114654361453D+04 0.000000000000000D+00 0.000000000000000D+00 -.160114654361453D+04
 0.621344323931404D+03 0.530212393176359D+03 -.551837045525770D+02 0.293723246876759D+03
 0.138726216400363D+04 -.482439218967443D+02 0.439789938035362D+02 -.138572532768226D+04
 0.119368659929402D+04 -.481968471279614D+03 0.112047107490407D+02 0.109200208080550D+04
 0.000000000000000D+00 -.000000000000000D+00 0.000000000000000D+00 0.000000000000000D+00
 0.387923222958667D+04 0.000000000000000D+00 0.000000000000000D+00 0.387923222958667D+04
 0.167826364905008D+04 0.000000000000000D+00 0.000000000000000D+00 -.167826364905008D+04
 0.683539764408465D+03 0.578603098803268D+03 -.174776193536219D+03 0.293723246876759D+03
 0.140289629408046D+04 0.552271356508679D+02 -.211738734416724D+03 -.138572532768226D+04
 0.117907952242174D+04 -.393976113994050D+03 -.206259053893126D+03 0.109200208080550D+04
 0.229198029772608D+04 -.239854120460086D+03 0.592773981846070D+03 0.220096858053658D+04
0.646573644263D-02 0.000000000000D+00 0.000000000000D+00 0.482347155499D-04 0.000000000000D+00  6 2 2 25 2 2 21 0 0.26721157D+00 0.22708068D+00 0.29971005D+06 0.29971005D+06 0.29971005D+06 0.10845829D+01  1  2  2  2  6  2        2 0.138182086318D-01 0.100000000000D+01
0.279627209448D-02 0.000000000000D+00 -.248301304072D-04 0.482347155499D-04 0.000000000000D+00  6 2 2 25 2 2 21 2 0.26721157D+00 0.22708068D+00 0.29971005D+06 0.29971005D+06 0.29971005D+06 0.10845829D+01  1  2  3  2  6  2        2 0.702973108183D-02 0.100000000000D+01
-.492498363145D-02 0.000000000000D+00 0.000000000000D+00 0.482347155499D-04 0.000000000000D+00  6 2 2 25 2 2 21 2 0.26721157D+00 0.22708068D+00 0.29971005D+06 0.29971005D+06 0.29971005D+06 0.10845829D+01  1  2 15  2  6  2        2 -.123812380704D-01 0.100000000000D+01
  </mgrwgt>
  </event>
  <event>
  6     66 -.18411016E-05 0.25951964E+03 0.75467711E-02 0.91917361E-01
        2 -1    0    0  502    0 0.00000000E+00 0.00000000E+00 0.30439162E+04 0.30439162E+04 0.32000000E+00 0.0000E+00 0.9000E+01
        2 -1    0    0  503    0 0.00000000E+00 0.00000000E+00 -.47977354E+03 0.47977365E+03 0.32000000E+00 0.0000E+00 0.9000E+01
       25  1    1    2    0    0 0.58847810E+03 0.12139304E+03 0.37778741E+03 0.72068791E+03 0.12500000E+03 0.0000E+00 0.9000E+01
        2  1    1    2  501    0 -.27820275E+03 -.28905658E+01 -.17557180E+03 0.32898433E+03 0.32000000E+00 0.0000E+00 0.9000E+01
        2  1    1    2  502    0 -.33702146E+03 -.92266001E+02 0.23972130E+04 0.24225455E+04 0.32000000E+00 0.0000E+00 0.9000E+01
       21  1    1    2  503  501 0.26746112E+02 -.26236469E+02 -.35286011E+02 0.51472049E+02 0.75000000E+00 0.0000E+00 0.9000E+01
#aMCatNLO 2  0  0  2  4 0.37466075D+02 0.00000000D+00  -5  6  0 0.00000000D+00 0.00000000D+00 0.00000000D+00 0.00000000D+00 0.00000000D+00
  <mgrwgt>
 -.2941585437D-02    6    2    0
 0.115085439848499D+04 0.000000000000000D+00 0.000000000000000D+00 0.115085439848499D+04
 0.115085439848499D+04 0.000000000000000D+00 0.000000000000000D+00 -.115085439848499D+04
 0.665972705312791D+03 0.596203852040404D+03 0.113832030656107D+03 -.243880872211269D+03
 0.691424306614230D+03 -.270185683789998D+03 -.107913463742082D+02 -.636357458426733D+03
 0.944311785042953D+03 -.326018168250406D+03 -.103040684281898D+03 0.880238330638002D+03
 0.000000000000000D+00 0.000000000000000D+00 -.000000000000000D+00 -.000000000000000D+00
 0.115407405819781D+04 0.000000000000000D+00 0.000000000000000D+00 0.115407405819781D+04
 0.126541934079572D+04 0.000000000000000D+00 0.000000000000000D+00 -.126541934079572D+04
 0.660430507769415D+03 0.588497886057261D+03 0.121391160584999D+03 -.243880872211269D+03
 0.694532479904748D+03 -.278237636428293D+03 -.289282251525136D+01 -.636357458426733D+03
 0.947050716206831D+03 -.337006361699181D+03 -.922618692514682D+02 0.880238330638002D+03
 0.117479695112529D+03 0.267461120702132D+02 -.262364688182792D+02 -.111345282597908D+03
-.797311169102D-08 0.000000000000D+00 0.000000000000D+00 0.400376329533D-06 0.000000000000D+00  6 2 2 25 2 2 21 2 0.46698786D+00 0.73925345D-01 0.40888185D+06 0.40888185D+06 0.40888185D+06 0.10747407D+01  1  2 13  2  6  2        2 -.160413201273D-07 0.100000000000D+01
-.252896676637D-02 0.000000000000D+00 0.000000000000D+00 0.400376329533D-06 0.000000000000D+00  6 2 2 25 2 2 21 2 0.46698786D+00 0.77706146D-01 0.40888185D+06 0.40888185D+06 0.40888185D+06 0.10747407D+01  1  2 13  2  6  2        2 -.480718488432D-02 0.100000000000D+01
-.625242771139D-05 0.000000000000D+00 0.000000000000D+00 0.400376329533D-06 0.000000000000D+00  6 2 2 25 2 2 21 2 0.46698786D+00 0.67128734D-01 0.37947214D+06 0.37947214D+06 0.37947214D+06 0.10770809D+01  1  2  8  2  6  2        2 -.141639707216D-04 0.100000000000D+01
-.812193547086D-05 0.000000000000D+00 0.000000000000D+00 0.400376329533D-06 0.000000000000D+00  6 2 2 25 2 2 21 2 0.46698786D+00 0.73913056D-01 0.37947214D+06 0.37947214D+06 0.37947214D+06 0.10770809D+01  1  2  9  2  6  2        2 -.165071487934D-04 0.100000000000D+01
0.808443790384D-05 0.000000000000D+00 0.000000000000D+00 0.400376329533D-06 0.000000000000D+00  6 2 2 25 2 2 21 2 0.46698786D+00 0.67128734D-01 0.37947214D+06 0.37947214D+06 0.37947214D+06 0.10770809D+01  1  2 10  2  6  2        2 0.183141248578D-04 0.100000000000D+01
0.943530840762D-03 0.000000000000D+00 0.000000000000D+00 0.400376329533D-06 0.511622663844D-09  6 2 2 25 2 2 21 2 0.46829432D+00 0.73811247D-01 0.40888185D+06 0.40888185D+06 0.40888185D+06 0.10747407D+01  1  2  1  2  6  2        2 0.187797248330D-02 0.100000000000D+01
  </mgrwgt>
  </event>
  <event>
  5     66 0.18411016E-05 0.16996237E+03 0.75467711E-02 0.91816931E-01
        2 -1    0    0  502    0 0.00000000E+00 0.00000000E+00 0.12304975E+04 0.12304975E+04 0.32000000E+00 0.0000E+00 0.9000E+01
        2 -1    0    0  501    0 0.00000000E+00 0.00000000E+00 -.66256763E+03 0.66256771E+03 0.32000000E+00 0.0000E+00 0.9000E+01
       25  1    1    2    0    0 0.42376004E+03 -.26379313E+03 0.37972782E+03 0.63951356E+03 0.12500000E+03 0.0000E+00 0.9000E+01
        2  1    1    2  501    0 -.28029047E+03 0.17258863E+03 -.46996983E+03 0.57377812E+03 0.32000000E+00 0.0000E+00 0.9000E+01
        2  1    1    2  502    0 -.14346957E+03 0.91204492E+02 0.65817188E+03 0.67977356E+03 0.32000000E+00 0.0000E+00 0.9000E+01
#aMCatNLO 1  0  0  1  4 0.16271518D+02 0.00000000D+00  -5  6  0 0.00000000D+00 0.00000000D+00 0.00000000D+00 0.00000000D+00 0.00000000D+00
  <mgrwgt>
 0.2717587702D-02    7    2    0
 0.902932958427756D+03 0.000000000000000D+00 0.000000000000000D+00 0.902932958427756D+03
 0.902932958427756D+03 0.000000000000000D+00 0.000000000000000D+00 -.902932958427756D+03
 0.551043215909862D+03 0.423775341439706D+03 -.263801935563461D+03 0.197095470726536D+03
 0.749342240529678D+03 -.280341936430168D+03 0.172620430501494D+03 -.673145139694331D+03
 0.505480460415972D+03 -.143433405009538D+03 0.911815050619673D+02 0.476049668967795D+03
 0.000000000000000D+00 0.000000000000000D+00 -.000000000000000D+00 0.000000000000000D+00
 0.127201446648655D+04 0.000000000000000D+00 0.000000000000000D+00 0.127201446648655D+04
 0.936076114599137D+03 0.000000000000000D+00 0.000000000000000D+00 -.936076114599137D+03
 0.508534372972341D+03 0.399889919500276D+03 -.210294165861824D+03 0.197095470726536D+03
 0.784105551850775D+03 -.314909530089575D+03 0.250058243631099D+03 -.673145139694331D+03
 0.524305724146961D+03 -.166647257193435D+03 0.143184834109017D+03 0.476049668967795D+03
 0.391144932115612D+03 0.816668677827346D+02 -.182948911878293D+03 0.335938351887415D+03
0.866175954605D-04 0.000000000000D+00 0.000000000000D+00 0.778079090315D-06 0.000000000000D+00  6 2 2 25 2 2 21 0 0.18930732D+00 0.10193349D+00 0.25693596D+06 0.25693596D+06 0.25693596D+06 0.10895661D+01  1  2  2  1  6  1        2 0.114585380701D-02 0.100000000000D+01
0.881685946761D-05 0.000000000000D+00 -.332634373505D-06 0.778079090315D-06 0.000000000000D+00  6 2 2 25 2 2 21 2 0.18930732D+00 0.10193349D+00 0.25693596D+06 0.25693596D+06 0.25693596D+06 0.10895661D+01  1  2  3  1  6  1        2 0.138466336647D-03 0.100000000000D+01
-.642973657916D-04 0.000000000000D+00 0.000000000000D+00 0.778079090315D-06 0.000000000000D+00  6 2 2 25 2 2 21 2 0.18930732D+00 0.10193349D+00 0.25693596D+06 0.25693596D+06 0.25693596D+06 0.10895661D+01  1  2 15  1  6  1        2 -.100977232652D-02 0.100000000000D+01
-.280242289588D-04 0.000000000000D+00 0.000000000000D+00 0.778079090315D-06 0.000000000000D+00  6 2 2 25 2 2 21 2 0.18930732D+00 0.10193349D+00 0.25693596D+06 0.25693596D+06 0.25693596D+06 0.10895661D+01  1  2  4  1  6  1        2 -.440112756195D-03 0.100000000000D+01
-.372089073528D-03 0.000000000000D+00 -.677139478077D-04 0.778079090315D-06 0.000000000000D+00  6 2 2 25 2 2 21 2 0.27016770D+00 0.10193349D+00 0.25693596D+06 0.25693596D+06 0.25693596D+06 0.10895661D+01  1  2  5  1  6  1        2 -.299479534929D-02 0.100000000000D+01
0.376194657247D-03 0.000000000000D+00 0.636456783871D-04 0.778079090315D-06 0.000000000000D+00  6 2 2 25 2 2 21 2 0.18930732D+00 0.10193349D+00 0.25693596D+06 0.25693596D+06 0.25693596D+06 0.10895661D+01  1  2  6  1  6  1        2 0.590803292787D-02 0.100000000000D+01
-.143011744944D-04 0.000000000000D+00 -.295929483922D-05 0.778079090315D-06 0.000000000000D+00  6 21 2 25 2 2 -2 2 0.27016770D+00 0.10193349D+00 0.25693596D+06 0.25693596D+06 0.25693596D+06 0.10895661D+01  1  2  5  4  6  1        2 -.300849370947D-04 0.100000000000D+01
  </mgrwgt>
  </event>
  <event>
  5     66 -.18411016E-05 0.11446245E+03 0.75467711E-02 0.94397151E-01
        2 -1    0    0  502    0 0.00000000E+00 0.00000000E+00 0.32418677E+04 0.32418677E+04 0.32000000E+00 0.0000E+00 0.9000E+01
        2 -1    0    0  501    0 0.00000000E+00 0.00000000E+00 -.12415949E+04 0.12415949E+04 0.32000000E+00 0.0000E+00 0.9000E+01
       25  1    1    2    0    0 -.46412595E+03 -.19027897E+03 0.83921277E+02 0.52372394E+03 0.12500000E+03 0.0000E+00 0.9000E+01
        2  1    1    2  501    0 0.36390646E+03 0.13497925E+03 -.98366157E+03 0.10574675E+04 0.32000000E+00 0.0000E+00 0.9000E+01
        2  1    1    2  502    0 0.10021949E+03 0.55299718E+02 0.29000131E+04 0.29022712E+04 0.32000000E+00 0.0000E+00 0.9000E+01
#aMCatNLO 1  0  0  5  1 0.64023472D+01 0.00000000D+00  -5  6  0 0.00000000D+00 0.00000000D+00 0.00000000D+00 0.00000000D+00 0.00000000D+00
  <mgrwgt>
 -.3284961995D-01    9    2    0
 0.200626181118170D+04 0.000000000000000D+00 0.000000000000000D+00 0.200626181118170D+04
 0.200626181118170D+04 -.000000000000000D+00 -.000000000000000D+00 -.200626181118170D+04
 0.543367102529391D+03 -.464146793985097D+03 -.190286599164933D+03 -.167276931830977D+03
 0.167195581799634D+04 0.363928650533450D+03 0.134987622316558D+03 -.162627504945321D+04
 0.179720070183767D+04 0.100218143451648D+03 0.552989768483755D+02 0.179355198128419D+04
 0.000000000000000D+00 0.000000000000000D+00 0.000000000000000D+00 0.000000000000000D+00
 0.200626181118170D+04 0.000000000000000D+00 0.000000000000000D+00 0.200626181118170D+04
 0.200626181118170D+04 -.000000000000000D+00 -.000000000000000D+00 -.200626181118170D+04
 0.543364089662177D+03 -.464146334482295D+03 -.190286345617682D+03 -.167268708348346D+03
 0.167193157632872D+04 0.363930064430134D+03 0.134988402485072D+03 -.162624974567975D+04
 0.134823020236696D+04 0.804792072286679D+02 0.378941714818495D+02 0.134529246171455D+04
 0.448997754005550D+03 0.197370628234939D+02 0.174037716507609D+02 0.448225992313541D+03
0.594580190252D-04 0.000000000000D+00 0.000000000000D+00 0.142933027313D-03 0.000000000000D+00  6 2 2 25 2 2 21 0 0.49874888D+00 0.19101460D+00 0.25989464D+06 0.25989464D+06 0.25989464D+06 0.10891932D+01  1  2  2  3  6  5        2 0.228236390218D-04 0.100000000000D+01
0.156577616763D-04 0.000000000000D+00 -.228334448713D-06 0.142933027313D-03 0.000000000000D+00  6 2 2 25 2 2 21 2 0.49874888D+00 0.19101460D+00 0.25989464D+06 0.25989464D+06 0.25989464D+06 0.10891932D+01  1  2  3  3  6  5        2 0.713040133894D-05 0.100000000000D+01
-.408022985696D-04 0.000000000000D+00 0.000000000000D+00 0.142933027313D-03 0.000000000000D+00  6 2 2 25 2 2 21 2 0.49874888D+00 0.19101460D+00 0.25989464D+06 0.25989464D+06 0.25989464D+06 0.10891932D+01  1  2 15  3  6  5        2 -.185809932714D-04 0.100000000000D+01
0.100426574786D-09 0.000000000000D+00 0.000000000000D+00 0.142933027313D-03 0.000000000000D+00  6 2 2 25 2 2 21 2 0.49874888D+00 0.19101460D+00 0.26030635D+06 0.26030635D+06 0.26030635D+06 0.10891417D+01  1  2 12  3  6  5        2 0.457216623329D-10 0.100000000000D+01
0.246250137479D+00 0.000000000000D+00 0.000000000000D+00 0.142933027313D-03 0.000000000000D+00  6 2 2 25 2 2 21 2 0.49874888D+00 0.19101460D+00 0.26030635D+06 0.26030635D+06 0.26030635D+06 0.10891417D+01  1  2 12  3  6  5        2 0.112111417314D+00 0.100000000000D+01
-.440190680862D+00 0.000000000000D+00 0.000000000000D+00 0.142933027313D-03 0.000000000000D+00  6 2 2 25 2 2 21 2 0.49874888D+00 0.19101460D+00 0.25989464D+06 0.25989464D+06 0.25989464D+06 0.10891932D+01  1  2  4  3  6  5        2 -.200458806635D+00 0.100000000000D+01
-.289828593667D+00 0.000000000000D+00 0.000000000000D+00 0.142933027313D-03 0.000000000000D+00  6 2 2 25 2 2 21 2 0.49874888D+00 0.19101460D+00 0.25989464D+06 0.25989464D+06 0.25989464D+06 0.10891932D+01  1  2  5  3  6  5        2 -.131985288515D+00 0.100000000000D+01
0.370920673657D+00 0.000000000000D+00 -.000000000000D+00 0.142933027313D-03 0.000000000000D+00  6 2 2 25 2 2 21 2 0.49874888D+00 0.19101460D+00 0.25989464D+06 0.25989464D+06 0.25989464D+06 0.10891932D+01  1  2  6  3  6  5        2 0.168913879439D+00 0.100000000000D+01
0.407617906381D-01 0.000000000000D+00 0.000000000000D+00 0.142933027313D-03 0.152750512511D-04  6 2 2 25 2 2 21 2 0.49874888D+00 0.19101460D+00 0.26030635D+06 0.26030635D+06 0.26030635D+06 0.10891417D+01  1  2 11  3  6  5        2 0.185578053579D-01 0.100000000000D+01
  </mgrwgt>
  </event>
  <event>
  5     66 0.18411016E-05 0.16277311E+02 0.75467711E-02 0.90805149E-01
        2 -1    0    0  502    0 0.00000000E+00 0.00000000E+00 0.14650453E+04 0.14650453E+04 0.32000000E+00 0.0000E+00 0.9000E+01
        2 -1    0    0  501    0 -.00000000E+00 -.00000000E+00 -.25729566E+04 0.25729567E+04 0.32000000E+00 0.0000E+00 0.9000E+01
       25  1    1    2    0    0 -.93458907E+02 -.59875486E+03 -.86394020E+03 0.10626663E+04 0.12500000E+03 0.0000E+00 0.9000E+01
        2  1    1    2  501    0 0.78509271E+02 0.59231540E+03 -.15541542E+04 0.16650515E+04 0.32000000E+00 0.0000E+00 0.9000E+01
        2  1    1    2  502    0 0.14949636E+02 0.64394590E+01 0.13101830E+04 0.13102842E+04 0.32000000E+00 0.0000E+00 0.9000E+01
#aMCatNLO 1  0  0  5  1 0.59769702D+02 0.00000000D+00  -5  6  0 0.00000000D+00 0.00000000D+00 0.00000000D+00 0.00000000D+00 0.00000000D+00
  <mgrwgt>
 0.7128770425D-02    6    2    0
 0.194151954617641D+04 0.000000000000000D+00 0.000000000000000D+00 0.194151954617641D+04
 0.194151954617641D+04 -.000000000000000D+00 -.000000000000000D+00 -.194151954617641D+04
 0.858587986405409D+03 -.934638347505559D+02 -.598790727002116D+03 -.595199552460931D+03
 0.128807854759485D+04 0.785144074409016D+02 0.592351358017086D+03 -.114109670986011D+04
 0.173637255835256D+04 0.149494273096488D+02 0.643936898502830D+01 0.173629626232104D+04
 0.000000000000000D+00 0.000000000000000D+00 0.000000000000000D+00 0.000000000000000D+00
 0.194151954617641D+04 0.000000000000000D+00 0.000000000000000D+00 0.194151954617641D+04
 0.194151954617641D+04 -.000000000000000D+00 -.000000000000000D+00 -.194151954617641D+04
 0.854415676331388D+03 -.934121424320493D+02 -.598768460870735D+03 -.589195765322163D+03
 0.128013153487868D+04 0.785919068277755D+02 0.592384740376012D+03 -.113209556934989D+04
 0.154258083550365D+04 0.716255476163344D+02 0.827427886345993D+02 0.153869394160138D+04
 0.205911045639100D+03 -.568053120120661D+02 -.763590681398790D+02 0.182597393070681D+03
0.283458710927D-02 0.000000000000D+00 0.000000000000D+00 0.744903974793D-04 0.000000000000D+00  6 2 2 25 2 2 21 0 0.22539159D+00 0.39583949D+00 0.37983020D+06 0.37983020D+06 0.37983020D+06 0.10770513D+01  1  2  2  3  6  5        2 0.205113981418D-02 0.100000000000D+01
0.320698597790D-02 0.000000000000D+00 -.108855608635D-04 0.744903974793D-04 0.000000000000D+00  6 2 2 25 2 2 21 2 0.22539159D+00 0.39583949D+00 0.37983020D+06 0.37983020D+06 0.37983020D+06 0.10770513D+01  1  2  3  3  6  5        2 0.269200126435D-02 0.100000000000D+01
-.210958055988D-02 0.000000000000D+00 0.000000000000D+00 0.744903974793D-04 0.000000000000D+00  6 2 2 25 2 2 21 2 0.22539159D+00 0.39583949D+00 0.37983020D+06 0.37983020D+06 0.37983020D+06 0.10770513D+01  1  2 15  3  6  5        2 -.177081957126D-02 0.100000000000D+01
-.115845185204D-03 0.000000000000D+00 0.000000000000D+00 0.744903974793D-04 0.000000000000D+00  6 2 2 25 2 2 21 2 0.22539159D+00 0.39583949D+00 0.37983020D+06 0.37983020D+06 0.37983020D+06 0.10770513D+01  1  2  4  3  6  5        2 -.972425159284D-04 0.100000000000D+01
-.403577737317D-01 0.000000000000D+00 0.000000000000D+00 0.744903974793D-04 0.000000000000D+00  6 2 2 25 2 2 21 2 0.22539159D+00 0.39583949D+00 0.37983020D+06 0.37983020D+06 0.37983020D+06 0.10770513D+01  1  2  5  3  6  5        2 -.338770355283D-01 0.100000000000D+01
0.454252040345D-01 0.000000000000D+00 -.000000000000D+00 0.744903974793D-04 0.000000000000D+00  6 2 2 25 2 2 21 2 0.22539159D+00 0.39583949D+00 0.37983020D+06 0.37983020D+06 0.37983020D+06 0.10770513D+01  1  2  6  3  6  5        2 0.381307269619D-01 0.100000000000D+01
  </mgrwgt>
  </event>
  <event>
  5     66 -.18411016E-05 0.47946716E+02 0.75467711E-02 0.92320235E-01
        2 -1    0    0  502    0 0.00000000E+00 0.00000000E+00 0.15133091E+04 0.15133091E+04 0.32000000E+00 0.0000E+00 0.9000E+01
        2 -1    0    0  501    0 0.00000000E+00 0.00000000E+00 -.39725233E+03 0.39725246E+03 0.32000000E+00 0.0000E+00 0.9000E+01
       25  1    1    2    0    0 -.55402484E+03 0.23454566E+03 0.46304437E+03 0.76940905E+03 0.12500000E+03 0.0000E+00 0.9000E+01
        2  1    1    2  501    0 0.17064584E+02 -.44799825E+02 -.14955830E+03 0.15705417E+03 0.32000000E+00 0.0000E+00 0.9000E+01
        2  1    1    2  502    0 0.53696026E+03 -.18974584E+03 0.80257070E+03 0.98409839E+03 0.32000000E+00 0.0000E+00 0.9000E+01
#aMCatNLO 1  0  0  5  1 0.11370678D+02 0.00000000D+00  -5  6  0 0.00000000D+00 0.00000000D+00 0.00000000D+00 0.00000000D+00 0.00000000D+00
  <mgrwgt>
 -.3268187910D-02    8    2    0
 0.775348780165294D+03 0.000000000000000D+00 0.000000000000000D+00 0.775348780165294D+03
 0.775348780165294D+03 -.000000000000000D+00 -.000000000000000D+00 -.775348780165294D+03
 0.614680216149477D+03 -.553998286530052D+03 0.234541475578562D+03 0.168215005503644D+02
 0.301198643938716D+03 0.170675857318723D+02 -.448060828193198D+02 -.297357925016629D+03
 0.634818700242395D+03 0.536930700798179D+03 -.189735392759242D+03 0.280536424466264D+03
 0.000000000000000D+00 0.000000000000000D+00 0.000000000000000D+00 0.000000000000000D+00
 0.775348780165294D+03 0.000000000000000D+00 0.000000000000000D+00 0.775348780165294D+03
 0.775348780165294D+03 -.000000000000000D+00 -.000000000000000D+00 -.775348780165294D+03
 0.614482184531921D+03 -.553804472129844D+03 0.234472987315009D+03 0.169227650129170D+02
 0.301160044825158D+03 0.171625656856261D+02 -.448396459193678D+02 -.297308299736155D+03
 0.489919856979519D+03 0.414662412471106D+03 -.155432367168910D+03 0.209564618155699D+03
 0.145135473993990D+03 0.121979493973112D+03 -.342009742267311D+02 0.708209165675391D+02
0.634644195510D-05 0.000000000000D+00 0.000000000000D+00 0.290120665804D-06 0.000000000000D+00  6 2 2 25 2 2 21 0 0.23281680D+00 0.61115756D-01 0.37937283D+06 0.37937283D+06 0.37937283D+06 0.10770892D+01  1  2  2  3  6  5        2 0.103068016877D-03 0.100000000000D+01
0.220570149815D-05 0.000000000000D+00 -.243720081641D-07 0.290120665804D-06 0.000000000000D+00  6 2 2 25 2 2 21 2 0.23281680D+00 0.61115756D-01 0.37937283D+06 0.37937283D+06 0.37937283D+06 0.10770892D+01  1  2  3  3  6  5        2 0.415569485691D-04 0.100000000000D+01
-.376706938596D-05 0.000000000000D+00 0.000000000000D+00 0.290120665804D-06 0.000000000000D+00  6 2 2 25 2 2 21 2 0.23281680D+00 0.61115756D-01 0.37937283D+06 0.37937283D+06 0.37937283D+06 0.10770892D+01  1  2 15  3  6  5        2 -.709742042882D-04 0.100000000000D+01
0.313991210323D-07 0.000000000000D+00 0.000000000000D+00 0.290120665804D-06 0.000000000000D+00  6 2 2 25 2 2 21 2 0.23281680D+00 0.61115756D-01 0.37932112D+06 0.37932112D+06 0.37932112D+06 0.10770934D+01  1  2 12  3  6  5        2 0.591589175443D-06 0.100000000000D+01
0.120722776520D-02 0.000000000000D+00 0.000000000000D+00 0.290120665804D-06 0.000000000000D+00  6 2 2 25 2 2 21 2 0.23281680D+00 0.61115756D-01 0.37932112D+06 0.37932112D+06 0.37932112D+06 0.10770934D+01  1  2 12  3  6  5        2 0.227453143497D-01 0.100000000000D+01
-.169132316342D-02 0.000000000000D+00 0.000000000000D+00 0.290120665804D-06 0.000000000000D+00  6 2 2 25 2 2 21 2 0.23281680D+00 0.61115756D-01 0.37937283D+06 0.37937283D+06 0.37937283D+06 0.10770892D+01  1  2  4  3  6  5        2 -.318657033940D-01 0.100000000000D+01
-.120783915875D-02 0.000000000000D+00 0.000000000000D+00 0.290120665804D-06 0.000000000000D+00  6 2 2 25 2 2 21 2 0.23281680D+00 0.61115756D-01 0.37937283D+06 0.37937283D+06 0.37937283D+06 0.10770892D+01  1  2  5  3  6  5        2 -.227565288604D-01 0.100000000000D+01
0.151451356063D-02 0.000000000000D+00 -.000000000000D+00 0.290120665804D-06 0.000000000000D+00  6 2 2 25 2 2 21 2 0.23281680D+00 0.61115756D-01 0.37937283D+06 0.37937283D+06 0.37937283D+06 0.10770892D+01  1  2  6  3  6  5        2 0.285344876444D-01 0.100000000000D+01
  </mgrwgt>
  </event>
  <event>
  5     66 0.18411016E-05 0.69931254E+02 0.75467711E-02 0.88196748E-01
        2 -1    0    0  502    0 0.00000000E+00 0.00000000E+00 0.85859243E+03 0.85859249E+03 0.32000000E+00 0.0000E+00 0.9000E+01
        2 -1    0    0  501    0 0.00000000E+00 0.00000000E+00 -.11421777E+04 0.11421777E+04 0.32000000E+00 0.0000E+00 0.9000E+01
       25  1    1    2    0    0 0.30090287E+03 0.54479504E+03 -.49706756E+03 0.80625388E+03 0.12500000E+03 0.0000E+00 0.9000E+01
        2  1    1    2  501    0 -.31263689E+03 -.61375287E+03 -.24474408E+03 0.73098165E+03 0.32000000E+00 0.0000E+00 0.9000E+01
        2  1    1    2  502    0 0.11734020E+02 0.68957829E+02 0.45822639E+03 0.46353468E+03 0.32000000E+00 0.0000E+00 0.9000E+01
#aMCatNLO 1  0  0  1  5 0.52867242D+01 0.00000000D+00  -5  6  0 0.00000000D+00 0.00000000D+00 0.00000000D+00 0.00000000D+00 0.00000000D+00
  <mgrwgt>
 0.2926899909D-02    7    2    0
 0.990285420363352D+03 0.000000000000000D+00 0.000000000000000D+00 0.990285420363352D+03
 0.990285420363352D+03 0.000000000000000D+00 0.000000000000000D+00 -.990285420363352D+03
 0.743375210986867D+03 0.300950327000918D+03 0.544888562595417D+03 -.386661427272635D+03
 0.703458879148708D+03 -.312681361547952D+03 -.613828849080105D+03 -.142474225145006D+03
 0.533736750591129D+03 0.117310345470347D+02 0.689402864846883D+02 0.529135652417641D+03
 0.000000000000000D+00 0.000000000000000D+00 -.000000000000000D+00 0.000000000000000D+00
 0.149172999490233D+04 0.000000000000000D+00 0.000000000000000D+00 0.149172999490233D+04
 0.106399626271712D+04 0.000000000000000D+00 0.000000000000000D+00 -.106399626271712D+04
 0.813848211239309D+03 0.240458341180785D+03 0.662870000643788D+03 -.386661427272635D+03
 0.644511224599461D+03 -.365044681568741D+03 -.511701274438909D+03 -.142474225145006D+03
 0.551136178715179D+03 -.304119983148937D+02 0.151134573105634D+03 0.529135652417641D+03
 0.546230643065504D+03 0.154998338702849D+03 -.302303299310513D+03 0.427733732185211D+03
0.147783724449D-03 0.000000000000D+00 0.000000000000D+00 0.146117126859D-06 0.000000000000D+00  6 2 2 25 2 2 21 0 0.13209115D+00 0.17571965D+00 0.48560858D+06 0.48560858D+06 0.48560858D+06 0.10694080D+01  1  2  2  1  6  1        2 0.154328823062D-02 0.100000000000D+01
0.485742892943D-04 0.000000000000D+00 -.567528414232D-06 0.146117126859D-06 0.000000000000D+00  6 2 2 25 2 2 21 2 0.13209115D+00 0.17571965D+00 0.48560858D+06 0.48560858D+06 0.48560858D+06 0.10694080D+01  1  2  3  1  6  1        2 0.580114498542D-03 0.100000000000D+01
-.111473307332D-03 0.000000000000D+00 0.000000000000D+00 0.146117126859D-06 0.000000000000D+00  6 2 2 25 2 2 21 2 0.13209115D+00 0.17571965D+00 0.48560858D+06 0.48560858D+06 0.48560858D+06 0.10694080D+01  1  2 15  1  6  1        2 -.133130680290D-02 0.100000000000D+01
-.213603524767D-04 0.000000000000D+00 0.000000000000D+00 0.146117126859D-06 0.000000000000D+00  6 2 2 25 2 2 21 2 0.13209115D+00 0.17571965D+00 0.48560858D+06 0.48560858D+06 0.48560858D+06 0.10694080D+01  1  2  4  1  6  1        2 -.255103066782D-03 0.100000000000D+01
-.380684990053D-03 0.000000000000D+00 -.106975526073D-03 0.146117126859D-06 0.000000000000D+00  6 2 2 25 2 2 21 2 0.20563345D+00 0.17571965D+00 0.48560858D+06 0.48560858D+06 0.48560858D+06 0.10694080D+01  1  2  5  1  6  1        2 -.232489696523D-02 0.100000000000D+01
0.398085940229D-03 0.000000000000D+00 0.972895567083D-04 0.146117126859D-06 0.000000000000D+00  6 2 2 25 2 2 21 2 0.13209115D+00 0.17571965D+00 0.48560858D+06 0.48560858D+06 0.48560858D+06 0.10694080D+01  1  2  6  1  6  1        2 0.475427286632D-02 0.100000000000D+01
-.153666220559D-04 0.000000000000D+00 -.548976746567D-05 0.146117126859D-06 0.000000000000D+00  6 21 2 25 2 2 -2 2 0.20563345D+00 0.17571965D+00 0.48560858D+06 0.48560858D+06 0.48560858D+06 0.10694080D+01  1  2  5  4  6  1        2 -.394688520596D-04 0.100000000000D+01
  </mgrwgt>
  </event>
  <event>
  5     66 -.18411016E-05 0.47951265E+02 0.75467711E-02 0.92702165E-01
        2 -1    0    0  502    0 0.00000000E+00 0.00000000E+00 0.20198292E+04 0.20198292E+04 0.32000000E+00 0.0000E+00 0.9000E+01
        2 -1    0    0  501    0 0.00000000E+00 0.00000000E+00 -.10804051E+04 0.10804051E+04 0.32000000E+00 0.0000E+00 0.9000E+01
       25  1    1    2    0    0 -.51302995E+03 0.14010554E+03 -.13733354E+03 0.56330702E+03 0.12500000E+03 0.0000E+00 0.9000E+01
        2  1    1    2  501    0 -.47904682E+02 0.20744934E+01 -.68288996E+03 0.68457137E+03 0.32000000E+00 0.0000E+00 0.9000E+01
        2  1    1    2  502    0 0.56093463E+03 -.14218003E+03 0.17596476E+04 0.18523560E+04 0.32000000E+00 0.0000E+00 0.9000E+01
#aMCatNLO 1  0  0  1  5 0.15006137D+02 0.00000000D+00  -5  6  0 0.00000000D+00 0.00000000D+00 0.00000000D+00 0.00000000D+00 0.00000000D+00
  <mgrwgt>
 -.6471243415D-01   11    2    0
 0.147723858641670D+04 0.000000000000000D+00 0.000000000000000D+00 0.147723858641670D+04
 0.147723858641670D+04 0.000000000000000D+00 0.000000000000000D+00 -.147723858641670D+04
 0.634743505039203D+03 -.513025482926349D+03 0.140104803755952D+03 -.323186966046196D+03
 0.935508447265209D+03 -.479063687738136D+02 0.207452434082646D+01 -.934278722375838D+03
 0.138422522052899D+04 0.560931851700163D+03 -.142179328096778D+03 0.125746568842203D+04
 0.000000000000000D+00 0.000000000000000D+00 0.000000000000000D+00 0.000000000000000D+00
 0.155934395964307D+04 0.000000000000000D+00 0.000000000000000D+00 0.155934395964307D+04
 0.147794345583361D+04 0.000000000000000D+00 0.000000000000000D+00 -.147794345583361D+04
 0.637044473153461D+03 -.516119962405054D+03 0.139179848254807D+03 -.323186966046196D+03
 0.935750626892865D+03 -.524594648115281D+02 0.713581004053803D+00 -.934278722375838D+03
 0.138172018150623D+04 0.554201829532491D+03 -.144190965617612D+03 0.125746568842203D+04
 0.827721339241328D+02 0.143775976840911D+02 0.429753635875068D+01 0.814005038094618D+02
0.249472457341D-03 0.000000000000D+00 0.000000000000D+00 0.302921177908D-04 0.000000000000D+00  6 2 2 25 2 2 21 0 0.31074296D+00 0.16621617D+00 0.34393946D+06 0.34393946D+06 0.34393946D+06 0.10801872D+01  1  2  2  1  6  1        2 0.622794605883D-03 0.100000000000D+01
0.117301719627D-03 0.000000000000D+00 -.958039923798D-06 0.302921177908D-04 0.000000000000D+00  6 2 2 25 2 2 21 2 0.31074296D+00 0.16621617D+00 0.34393946D+06 0.34393946D+06 0.34393946D+06 0.10801872D+01  1  2  3  1  6  1        2 0.341684039706D-03 0.100000000000D+01
-.185342950945D-03 0.000000000000D+00 0.000000000000D+00 0.302921177908D-04 0.000000000000D+00  6 2 2 25 2 2 21 2 0.31074296D+00 0.16621617D+00 0.34393946D+06 0.34393946D+06 0.34393946D+06 0.10801872D+01  1  2 15  1  6  1        2 -.539878941344D-03 0.100000000000D+01
0.238105972820D-09 0.000000000000D+00 0.000000000000D+00 0.302921177908D-04 0.000000000000D+00  6 2 2 25 2 2 21 2 0.32813018D+00 0.16621617D+00 0.35348963D+06 0.35348963D+06 0.35348963D+06 0.10793191D+01  1  2 12  1  6  1        2 0.598451369553D-09 0.100000000000D+01
0.259027622159D-01 0.000000000000D+00 0.000000000000D+00 0.302921177908D-04 0.000000000000D+00  6 2 2 25 2 2 21 2 0.32977509D+00 0.16621617D+00 0.35348963D+06 0.35348963D+06 0.35348963D+06 0.10793191D+01  1  2 12  1  6  1        2 0.642184076313D-01 0.100000000000D+01
-.487177170291D-01 0.000000000000D+00 0.000000000000D+00 0.302921177908D-04 0.000000000000D+00  6 2 2 25 2 2 21 2 0.31074296D+00 0.16621617D+00 0.34393946D+06 0.34393946D+06 0.34393946D+06 0.10801872D+01  1  2  4  1  6  1        2 -.141908118762D+00 0.100000000000D+01
-.323033794214D-01 0.000000000000D+00 -.884701624949D-03 0.302921177908D-04 0.000000000000D+00  6 2 2 25 2 2 21 2 0.32806565D+00 0.16621617D+00 0.34393946D+06 0.34393946D+06 0.34393946D+06 0.10801872D+01  1  2  5  1  6  1        2 -.815282351524D-01 0.100000000000D+01
0.323051270030D-01 0.000000000000D+00 0.883401464864D-03 0.302921177908D-04 0.000000000000D+00  6 2 2 25 2 2 21 2 0.31074296D+00 0.16621617D+00 0.34393946D+06 0.34393946D+06 0.34393946D+06 0.10801872D+01  1  2  6  1  6  1        2 0.941004644496D-01 0.100000000000D+01
0.399380184924D-11 0.000000000000D+00 0.000000000000D+00 0.302921177908D-04 0.000000000000D+00  6 21 2 25 2 2 -2 2 0.32813018D+00 0.16621617D+00 0.35348963D+06 0.35348963D+06 0.35348963D+06 0.10793191D+01  1  2 12  4  6  1        2 0.171298931994D-11 0.100000000000D+01
0.471000266712D-03 0.000000000000D+00 0.000000000000D+00 0.302921177908D-04 0.000000000000D+00  6 21 2 25 2 2 -2 2 0.32977509D+00 0.16621617D+00 0.35348963D+06 0.35348963D+06 0.35348963D+06 0.10793191D+01  1  2 12  4  6  1        2 0.197021343624D-03 0.100000000000D+01
-.501908332402D-03 0.000000000000D+00 -.831002012196D-05 0.302921177908D-04 0.000000000000D+00  6 21 2 25 2 2 -2 2 0.32806565D+00 0.16621617D+00 0.34393946D+06 0.34393946D+06 0.34393946D+06 0.10801872D+01  1  2  5  4  6  1        2 -.216573960715D-03 0.100000000000D+01
  </mgrwgt>
  </event>
  <event>
  5     66 0.18411016E-05 0.16153964E+03 0.75467711E-02 0.81453043E-01
        2 -1    0    0  502    0 0.00000000E+00 0.00000000E+00 0.12089578E+04 0.12089578E+04 0.32000000E+00 0.0000E+00 0.9000E+01
        2 -1    0    0  501    0 0.00000000E+00 0.00000000E+00 -.13288778E+04 0.13288778E+04 0.32000000E+00 0.0000E+00 0.9000E+01
       25  1    1    2    0    0 0.15468162E+03 -.64389673E+03 -.77152243E+02 0.67831178E+03 0.12500000E+03 0.0000E+00 0.9000E+01
        2  1    1    2  501    0 -.12764895E+02 0.72110625E+03 -.80472893E+03 0.10806229E+04 0.32000000E+00 0.0000E+00 0.9000E+01
        2  1    1    2  502    0 -.14191673E+03 -.77209516E+02 0.76196120E+03 0.77890092E+03 0.32000000E+00 0.0000E+00 0.9000E+01
#aMCatNLO 1  0  0  1  5 0.15006137D+02 0.00000000D+00  -5  6  0 0.00000000D+00 0.00000000D+00 0.00000000D+00 0.00000000D+00 0.00000000D+00
  <mgrwgt>
 0.1419063414D-02    3    2    0
 0.126750038616258D+04 0.000000000000000D+00 0.000000000000000D+00 0.126750038616258D+04
 0.126750038616258D+04 0.000000000000000D+00 0.000000000000000D+00 -.126750038616258D+04
 0.675498653016323D+03 0.154675896499033D+03 -.643984319658395D+03 -.450887270079929D+02
 0.104378843718285D+04 -.127771432208897D+02 0.721184057695439D+03 -.754469748322400D+03
 0.815713682125991D+03 -.141898753278144D+03 -.771997380370445D+02 0.799558475330393D+03
 0.000000000000000D+00 -.000000000000000D+00 0.000000000000000D+00 -.000000000000000D+00
 0.180831468342332D+04 0.000000000000000D+00 0.000000000000000D+00 0.180831468342332D+04
 0.381808608944783D+04 0.000000000000000D+00 0.000000000000000D+00 -.381808608944783D+04
 0.109853451611938D+04 0.614707217437791D+03 -.900697022662073D+03 -.450887270079929D+02
 0.100950978787054D+04 0.519671466639494D+03 0.424060110637047D+03 -.754469748322400D+03
 0.917285284361480D+03 0.307491831750851D+03 -.327974558220550D+03 0.799558475330393D+03
 0.260107118451975D+04 -.144187051582814D+04 0.804611470245575D+03 -.200977140602451D+04
0.816869208182D-03 0.000000000000D+00 0.000000000000D+00 0.209916381379D-06 0.000000000000D+00  6 2 2 25 2 2 21 0 0.18599351D+00 0.20444274D+00 0.60592916D+06 0.60592916D+06 0.60592916D+06 0.10626620D+01  1  2  2  1  6  1        2 0.397347681429D-02 0.100000000000D+01
0.152452951095D-03 0.000000000000D+00 -.313699284602D-05 0.209916381379D-06 0.000000000000D+00  6 2 2 25 2 2 21 2 0.18599351D+00 0.20444274D+00 0.60592916D+06 0.60592916D+06 0.60592916D+06 0.10626620D+01  1  2  3  1  6  1        2 0.837421828316D-03 0.100000000000D+01
-.617484847787D-03 0.000000000000D+00 0.000000000000D+00 0.209916381379D-06 0.000000000000D+00  6 2 2 25 2 2 21 2 0.18599351D+00 0.20444274D+00 0.60592916D+06 0.60592916D+06 0.60592916D+06 0.10626620D+01  1  2 15  1  6  1        2 -.339183522837D-02 0.100000000000D+01
  </mgrwgt>
  </event>
  <event>
  5     66 0.18411016E-05 0.84555529E+02 0.75467711E-02 0.91787164E-01
        2 -1    0    0  502    0 0.00000000E+00 0.00000000E+00 0.27540884E+04 0.27540885E+04 0.32000000E+00 0.0000E+00 0.9000E+01
        2 -1    0    0  501    0 0.00000000E+00 0.00000000E+00 -.77891441E+03 0.77891448E+03 0.32000000E+00 0.0000E+00 0.9000E+01
       25  1    1    2    0    0 -.62514116E+03 -.17165609E+03 0.13858323E+04 0.15350646E+04 0.12500000E+03 0.0000E+00 0.9000E+01
        2  1    1    2  501    0 0.78032042E+02 -.32543979E+02 -.63545104E+03 0.64105088E+03 0.32000000E+00 0.0000E+00 0.9000E+01
        2  1    1    2  502    0 0.54710912E+03 0.20420007E+03 0.12247928E+04 0.13568874E+04 0.32000000E+00 0.0000E+00 0.9000E+01
#aMCatNLO 1  0  0  5  1 0.44011871D+00 0.00000000D+00  -5  6  0 0.00000000D+00 0.00000000D+00 0.00000000D+00 0.00000000D+00 0.00000000D+00
  <mgrwgt>
 0.4871951423D-03    6    2    0
 0.146464990202133D+04 0.000000000000000D+00 0.000000000000000D+00 0.146464990202133D+04
 0.146464990202133D+04 -.000000000000000D+00 -.000000000000000D+00 -.146464990202133D+04
 0.917042466674792D+03 -.625058500395913D+03 -.171618821660591D+03 0.636545942426491D+03
 0.120171794175078D+04 0.780404610087969D+02 -.325472557648445D+02 -.119873949384904D+04
 0.810539395617085D+03 0.547018039387116D+03 0.204166077425436D+03 0.562193551422546D+03
 0.000000000000000D+00 0.000000000000000D+00 0.000000000000000D+00 0.000000000000000D+00
 0.146464990202133D+04 0.000000000000000D+00 0.000000000000000D+00 0.146464990202133D+04
 0.146464990202133D+04 -.000000000000000D+00 -.000000000000000D+00 -.146464990202133D+04
 0.916743213762780D+03 -.610844084423918D+03 -.166313509325467D+03 0.651154698301611D+03
 0.118395478967226D+04 0.965327771716110D+02 -.256452829200314D+02 -.117973415920002D+04
 0.681576341075143D+03 0.374883976411420D+03 0.150052951884498D+03 0.549083258326176D+03
 0.147025459532473D+03 0.139427330840887D+03 0.419058403610007D+02 -.205037974277657D+02
0.395139501406D-03 0.000000000000D+00 0.000000000000D+00 0.258114195829D-05 0.000000000000D+00  6 2 2 25 2 2 21 0 0.42370592D+00 0.11983299D+00 0.44127198D+06 0.44127198D+06 0.44127198D+06 0.10723667D+01  1  2  2  3  6  5        2 0.575592217589D-03 0.100000000000D+01
0.148223986939D-03 0.000000000000D+00 -.151743972802D-05 0.258114195829D-05 0.000000000000D+00  6 2 2 25 2 2 21 2 0.42370592D+00 0.11983299D+00 0.44127198D+06 0.44127198D+06 0.44127198D+06 0.10723667D+01  1  2  3  3  6  5        2 0.248295936129D-03 0.100000000000D+01
-.238484174225D-03 0.000000000000D+00 0.000000000000D+00 0.258114195829D-05 0.000000000000D+00  6 2 2 25 2 2 21 2 0.42370592D+00 0.11983299D+00 0.44127198D+06 0.44127198D+06 0.44127198D+06 0.10723667D+01  1  2 15  3  6  5        2 -.399494390307D-03 0.100000000000D+01
-.154108899979D-03 0.000000000000D+00 0.000000000000D+00 0.258114195829D-05 0.000000000000D+00  6 2 2 25 2 2 21 2 0.42370592D+00 0.11983299D+00 0.44127198D+06 0.44127198D+06 0.44127198D+06 0.10723667D+01  1  2  4  3  6  5        2 -.258153989622D-03 0.100000000000D+01
-.970026097220D-03 0.000000000000D+00 0.000000000000D+00 0.258114195829D-05 0.000000000000D+00  6 2 2 25 2 2 21 2 0.42370592D+00 0.11983299D+00 0.44127198D+06 0.44127198D+06 0.44127198D+06 0.10723667D+01  1  2  5  3  6  5        2 -.162492956000D-02 0.100000000000D+01
0.116162522322D-02 0.000000000000D+00 -.000000000000D+00 0.258114195829D-05 0.000000000000D+00  6 2 2 25 2 2 21 2 0.42370592D+00 0.11983299D+00 0.44127198D+06 0.44127198D+06 0.44127198D+06 0.10723667D+01  1  2  6  3  6  5        2 0.194588492853D-02 0.100000000000D+01
  </mgrwgt>
  </event>
  <event>
  6     66 -.18411016E-05 0.56205575E+02 0.75467711E-02 0.92251938E-01
        2 -1    0    0  502    0 0.00000000E+00 0.00000000E+00 0.19679896E+04 0.19679897E+04 0.32000000E+00 0.0000E+00 0.9000E+01
        2 -1    0    0  503    0 0.00000000E+00 0.00000000E+00 -.10328936E+04 0.10328936E+04 0.32000000E+00 0.0000E+00 0.9000E+01
       25  1    1    2    0    0 0.57263636E+02 -.54483757E+03 -.54376518E+03 0.78194160E+03 0.12500000E+03 0.0000E+00 0.9000E+01
        2  1    1    2  501    0 0.59424817E+01 -.60276572E+02 -.21287883E+03 0.22132799E+03 0.32000000E+00 0.0000E+00 0.9000E+01
        2  1    1    2  502    0 -.54613175E+02 0.60601853E+03 0.17943119E+04 0.18946758E+04 0.32000000E+00 0.0000E+00 0.9000E+01
       21  1    1    2  503  501 -.85929429E+01 -.90439028E+00 -.10257184E+03 0.10293785E+03 0.75000000E+00 0.0000E+00 0.9000E+01
#aMCatNLO 2  0  0  2  4 0.86404044D+01 0.00000000D+00  -5  6  0 0.00000000D+00 0.00000000D+00 0.00000000D+00 0.00000000D+00 0.00000000D+00
  <mgrwgt>
 -.3179054700D-02    6    2    0
 0.135289118357578D+04 0.000000000000000D+00 0.000000000000000D+00 0.135289118357578D+04
 0.135289118357578D+04 0.000000000000000D+00 0.000000000000000D+00 -.135289118357578D+04
 0.104628325873147D+04 0.539456701770741D+02 -.545235780028483D+03 -.882548279896136D+03
 0.318399970933518D+03 0.492706537237500D+01 -.603401941926193D+02 -.312591309031583D+03
 0.134109913748657D+04 -.588727355494491D+02 0.605575974221102D+03 0.119513958892772D+04
 0.000000000000000D+00 -.000000000000000D+00 -.000000000000000D+00 -.000000000000000D+00
 0.135302296103863D+04 0.000000000000000D+00 0.000000000000000D+00 0.135302296103863D+04
 0.150235520885385D+04 0.000000000000000D+00 0.000000000000000D+00 -.150235520885385D+04
 0.104627767082587D+04 0.572684079678886D+02 -.544886068430831D+03 -.882548279896136D+03
 0.318397073235834D+03 0.593822331470935D+01 -.602337718139201D+02 -.312591309031583D+03
 0.134112141880367D+04 -.546136884269502D+02 0.606024230528838D+03 0.119513958892772D+04
 0.149582007027094D+03 -.859294285564779D+01 -.904390284086788D+00 -.149332247815223D+03
-.644367736729D-08 0.000000000000D+00 0.000000000000D+00 0.188315943167D-05 0.000000000000D+00  6 2 2 25 2 2 21 2 0.30273794D+00 0.15891361D+00 0.38415949D+06 0.38415949D+06 0.38415949D+06 0.10766950D+01  1  2 13  2  6  2        2 -.211271128994D-07 0.100000000000D+01
-.102699263118D-01 0.000000000000D+00 0.000000000000D+00 0.188315943167D-05 0.000000000000D+00  6 2 2 25 2 2 21 2 0.30273794D+00 0.16225165D+00 0.38415949D+06 0.38415949D+06 0.38415949D+06 0.10766950D+01  1  2 13  2  6  2        2 -.326569771317D-01 0.100000000000D+01
-.169616967612D-06 0.000000000000D+00 0.000000000000D+00 0.188315943167D-05 0.000000000000D+00  6 2 2 25 2 2 21 2 0.30273794D+00 0.14309754D+00 0.37880834D+06 0.37880834D+06 0.37880834D+06 0.10771360D+01  1  2  8  2  6  2        2 -.646673296949D-06 0.100000000000D+01
-.231487655453D-06 0.000000000000D+00 0.000000000000D+00 0.188315943167D-05 0.000000000000D+00  6 2 2 25 2 2 21 2 0.30273794D+00 0.15891278D+00 0.37880834D+06 0.37880834D+06 0.37880834D+06 0.10771360D+01  1  2  9  2  6  2        2 -.760347489378D-06 0.100000000000D+01
0.230221531145D-06 0.000000000000D+00 0.000000000000D+00 0.188315943167D-05 0.000000000000D+00  6 2 2 25 2 2 21 2 0.30273794D+00 0.14309754D+00 0.37880834D+06 0.37880834D+06 0.37880834D+06 0.10771360D+01  1  2 10  2  6  2        2 0.877731271051D-06 0.100000000000D+01
0.899240701849D-02 0.000000000000D+00 0.000000000000D+00 0.188315943167D-05 0.139234757769D-06  6 2 2 25 2 2 21 2 0.30276743D+00 0.15890660D+00 0.38415949D+06 0.38415949D+06 0.38415949D+06 0.10766950D+01  1  2  1  2  6  2        2 0.294784728483D-01 0.100000000000D+01
  </mgrwgt>
  </event>
  <event>
  5     66 0.18411016E-05 0.25409070E+02 0.75467711E-02 0.90065559E-01
        2 -1    0    0  502    0 0.00000000E+00 0.00000000E+00 0.39687899E+04 0.39687899E+04 0.32000000E+00 0.0000E+00 0.9000E+01
        2 -1    0    0  501    0 0.00000000E+00 0.00000000E+00 -.53214793E+03 0.53214803E+03 0.32000000E+00 0.0000E+00 0.9000E+01
       25  1    1    2    0    0 0.47793256E+03 0.35837296E+03 0.45627451E+03 0.76201190E+03 0.12500000E+03 0.0000E+00 0.9000E+01
        2  1    1    2  501    0 -.48533965E+03 -.33406618E+03 -.15037125E+03 0.60808420E+03 0.32000000E+00 0.0000E+00 0.9000E+01
        2  1    1    2  502    0 0.74070811E+01 -.24306774E+02 0.31307387E+04 0.31308419E+04 0.32000000E+00 0.0000E+00 0.9000E+01
#aMCatNLO 1  0  0  1  5 0.11891576D+02 0.00000000D+00  -5  6  0 0.00000000D+00 0.00000000D+00 0.00000000D+00 0.00000000D+00 0.00000000D+00
  <mgrwgt>
 0.4694386218D-02    4    2    0
 0.145326653227580D+04 0.000000000000000D+00 0.000000000000000D+00 0.145326653227580D+04
 0.145326653227580D+04 0.000000000000000D+00 0.000000000000000D+00 -.145326653227580D+04
 0.640566046635411D+03 0.477977908671604D+03 0.358403858230069D+03 -.194380177306845D+03
 0.111946931058724D+04 -.485384627015526D+03 -.334098275077534D+03 -.951835933233182D+03
 0.114649770732894D+04 0.740671834392193D+01 -.243055831525354D+02 0.114621611054003D+04
 0.000000000000000D+00 -.000000000000000D+00 0.000000000000000D+00 -.000000000000000D+00
 0.150830602887309D+04 0.000000000000000D+00 0.000000000000000D+00 0.150830602887309D+04
 0.173048474320756D+04 0.000000000000000D+00 0.000000000000000D+00 -.173048474320756D+04
 0.669010716361297D+03 0.527504264003697D+03 0.340449609684507D+03 -.194380177306845D+03
 0.109550141581750D+04 -.401617542606453D+03 -.364465441070930D+03 -.951835933233182D+03
 0.115144293697328D+04 0.943116086088821D+02 -.558102636237597D+02 0.114621611054003D+04
 0.322835702928566D+03 -.220198330006126D+03 0.798260950101825D+02 -.222178714334475D+03
0.123922442331D-01 0.000000000000D+00 0.000000000000D+00 0.285051521363D-04 0.000000000000D+00  6 2 2 25 2 2 21 0 0.61058308D+00 0.81868921D-01 0.37517112D+06 0.37517112D+06 0.37517112D+06 0.10774397D+01  1  2  2  1  6  1        2 0.413439479266D-02 0.100000000000D+01
0.104298808159D-01 0.000000000000D+00 -.475894808079D-04 0.285051521363D-04 0.000000000000D+00  6 2 2 25 2 2 21 2 0.61058308D+00 0.81868921D-01 0.37517112D+06 0.37517112D+06 0.37517112D+06 0.10774397D+01  1  2  3  1  6  1        2 0.403949660806D-02 0.100000000000D+01
-.828508782337D-02 0.000000000000D+00 0.000000000000D+00 0.285051521363D-04 0.000000000000D+00  6 2 2 25 2 2 21 2 0.61058308D+00 0.81868921D-01 0.37517112D+06 0.37517112D+06 0.37517112D+06 0.10774397D+01  1  2 15  1  6  1        2 -.320881750718D-02 0.100000000000D+01
-.698908914976D-03 0.000000000000D+00 0.000000000000D+00 0.285051521363D-04 0.000000000000D+00  6 2 2 25 2 2 21 2 0.61058308D+00 0.81868921D-01 0.37517112D+06 0.37517112D+06 0.37517112D+06 0.10774397D+01  1  2  4  1  6  1        2 -.270687675268D-03 0.100000000000D+01
  </mgrwgt>
  </event>
  <event>
  5     66 0.18411016E-05 0.27040927E+03 0.75467711E-02 0.87892233E-01
        2 -1    0    0  502    0 0.00000000E+00 0.00000000E+00 0.16947231E+04 0.16947232E+04 0.32000000E+00 0.0000E+00 0.9000E+01
        2 -1    0    0  501    0 -.00000000E+00 -.00000000E+00 -.17589266E+04 0.17589266E+04 0.32000000E+00 0.0000E+00 0.9000E+01
       25  1    1    2    0    0 0.20734722E+03 0.73056688E+03 0.46208487E+03 0.89770165E+03 0.12500000E+03 0.0000E+00 0.9000E+01
        2  1    1    2  501    0 -.25759748E+02 -.53015333E+03 -.14759714E+04 0.15685082E+04 0.32000000E+00 0.0000E+00 0.9000E+01
        2  1    1    2  502    0 -.18158748E+03 -.20041355E+03 0.94968310E+03 0.98743997E+03 0.32000000E+00 0.0000E+00 0.9000E+01
#aMCatNLO 1  0  0  5  1 0.29515676D+03 0.00000000D+00  -5  6  0 0.00000000D+00 0.00000000D+00 0.00000000D+00 0.00000000D+00 0.00000000D+00
  <mgrwgt>
 0.1123249034D-03    6    2    0
 0.172652648987625D+04 0.000000000000000D+00 0.000000000000000D+00 0.172652648987625D+04
 0.172652648987625D+04 -.000000000000000D+00 -.000000000000000D+00 -.172652648987625D+04
 0.906539083243020D+03 0.207329100524225D+03 0.730591224940856D+03 0.478998137326579D+03
 0.154137227046461D+04 -.257645025313827D+02 -.530202923493165D+03 -.144708310973691D+04
 0.100514162604486D+04 -.181564597992842D+03 -.200388301447691D+03 0.968084972410330D+03
 0.000000000000000D+00 0.000000000000000D+00 0.000000000000000D+00 0.000000000000000D+00
 0.172652648987625D+04 0.000000000000000D+00 0.000000000000000D+00 0.172652648987625D+04
 0.172652648987625D+04 -.000000000000000D+00 -.000000000000000D+00 -.172652648987625D+04
 0.922892282818267D+03 0.198409245890509D+03 0.720746604684647D+03 0.526557944262761D+03
 0.147428719283534D+04 -.404681118257498D+02 -.546430928975626D+03 -.136868487927003D+04
 0.495829810912171D+03 -.612218804425893D+02 -.368659762737357D+03 0.325866632355490D+03
 0.560043693186710D+03 -.967192536221694D+02 0.194344087028336D+03 0.516260302651775D+03
0.118941540194D-03 0.000000000000D+00 0.000000000000D+00 0.481796928186D-06 0.000000000000D+00  6 2 2 25 2 2 21 0 0.26072664D+00 0.27060410D+00 0.61692865D+06 0.61692865D+06 0.61692865D+06 0.10621194D+01  1  2  2  3  6  5        2 0.177282292896D-03 0.100000000000D+01
0.121486166224D-04 0.000000000000D+00 -.456766832373D-06 0.481796928186D-06 0.000000000000D+00  6 2 2 25 2 2 21 2 0.26072664D+00 0.27060410D+00 0.61692865D+06 0.61692865D+06 0.61692865D+06 0.10621194D+01  1  2  3  3  6  5        2 0.204270356895D-04 0.100000000000D+01
-.844607611319D-04 0.000000000000D+00 0.000000000000D+00 0.481796928186D-06 0.000000000000D+00  6 2 2 25 2 2 21 2 0.26072664D+00 0.27060410D+00 0.61692865D+06 0.61692865D+06 0.61692865D+06 0.10621194D+01  1  2 15  3  6  5        2 -.142014768893D-03 0.100000000000D+01
-.461605165338D-05 0.000000000000D+00 0.000000000000D+00 0.481796928186D-06 0.000000000000D+00  6 2 2 25 2 2 21 2 0.26072664D+00 0.27060410D+00 0.61692865D+06 0.61692865D+06 0.61692865D+06 0.10621194D+01  1  2  4  3  6  5        2 -.776156288398D-05 0.100000000000D+01
-.569783249811D-04 0.000000000000D+00 0.000000000000D+00 0.481796928186D-06 0.000000000000D+00  6 2 2 25 2 2 21 2 0.26072664D+00 0.27060410D+00 0.61692865D+06 0.61692865D+06 0.61692865D+06 0.10621194D+01  1  2  5  3  6  5        2 -.958050051371D-04 0.100000000000D+01
0.952742676161D-04 0.000000000000D+00 -.000000000000D+00 0.481796928186D-06 0.000000000000D+00  6 2 2 25 2 2 21 2 0.26072664D+00 0.27060410D+00 0.61692865D+06 0.61692865D+06 0.61692865D+06 0.10621194D+01  1  2  6  3  6  5        2 0.160196911745D-03 0.100000000000D+01
  </mgrwgt>
  </event>
  <event>
  5     66 0.18411016E-05 0.15375368E+03 0.75467711E-02 0.89688129E-01
        2 -1    0    0  502    0 0.00000000E+00 0.00000000E+00 0.13386090E+04 0.13386090E+04 0.32000000E+00 0.0000E+00 0.9000E+01
        2 -1    0    0  501    0 0.00000000E+00 0.00000000E+00 -.10642981E+04 0.10642981E+04 0.32000000E+00 0.0000E+00 0.9000E+01
       25  1    1    2    0    0 -.17503352E+03 -.55679022E+03 0.34633803E+03 0.69009210E+03 0.12500000E+03 0.0000E+00 0.9000E+01
        2  1    1    2  501    0 0.84138373E+02 0.12866534E+03 -.82645161E+03 0.84062857E+03 0.32000000E+00 0.0000E+00 0.9000E+01
        2  1    1    2  502    0 0.90895150E+02 0.42812487E+03 0.75442448E+03 0.87218647E+03 0.32000000E+00 0.0000E+00 0.9000E+01
#aMCatNLO 1  0  0  5  1 0.24271541D+02 0.00000000D+00  -5  6  0 0.00000000D+00 0.00000000D+00 0.00000000D+00 0.00000000D+00 0.00000000D+00
  <mgrwgt>
 0.1984114736D-02    4    2    0
 0.119359920629029D+04 0.000000000000000D+00 0.000000000000000D+00 0.119359920629029D+04
 0.119359920629029D+04 -.000000000000000D+00 -.000000000000000D+00 -.119359920629029D+04
 0.654865310576923D+03 -.175033005092035D+03 -.556755257206280D+03 0.269463551707148D+03
 0.941193735335680D+03 0.841488963287231D+02 0.128682388664562D+03 -.928550189020158D+03
 0.791139366667977D+03 0.908841087633125D+02 0.428072868541718D+03 0.659086637313010D+03
 0.000000000000000D+00 -.000000000000000D+00 0.000000000000000D+00 0.000000000000000D+00
 0.119359920629029D+04 0.000000000000000D+00 0.000000000000000D+00 0.119359920629029D+04
 0.119359920629029D+04 -.000000000000000D+00 -.000000000000000D+00 -.119359920629029D+04
 0.648193759675750D+03 -.160885034364205D+03 -.490116958213009D+03 0.372063869614130D+03
 0.825741968086512D+03 0.103333410047758D+03 0.219043288177508D+03 -.789425133962476D+03
 0.533100340412094D+03 0.403167597554143D+03 0.226168957733022D+03 0.265517351199258D+03
 0.380162344406224D+03 -.345615973237696D+03 0.449047123024791D+02 0.151843913149089D+03
0.791685626361D-03 0.000000000000D+00 0.000000000000D+00 0.140368999435D-05 0.000000000000D+00  6 2 2 25 2 2 21 0 0.20593985D+00 0.16373817D+00 0.35296951D+06 0.35296951D+06 0.35296951D+06 0.10793657D+01  1  2  2  3  6  5        2 0.478141553623D-02 0.100000000000D+01
0.142346226201D-03 0.000000000000D+00 -.304028126084D-05 0.140368999435D-05 0.000000000000D+00  6 2 2 25 2 2 21 2 0.20593985D+00 0.16373817D+00 0.35296951D+06 0.35296951D+06 0.35296951D+06 0.10793657D+01  1  2  3  3  6  5        2 0.100158298853D-02 0.100000000000D+01
-.528344048943D-03 0.000000000000D+00 0.000000000000D+00 0.140368999435D-05 0.000000000000D+00  6 2 2 25 2 2 21 2 0.20593985D+00 0.16373817D+00 0.35296951D+06 0.35296951D+06 0.35296951D+06 0.10793657D+01  1  2 15  3  6  5        2 -.371755841821D-02 0.100000000000D+01
-.115580632542D-04 0.000000000000D+00 0.000000000000D+00 0.140368999435D-05 0.000000000000D+00  6 2 2 25 2 2 21 2 0.20593985D+00 0.16373817D+00 0.35296951D+06 0.35296951D+06 0.35296951D+06 0.10793657D+01  1  2  4  3  6  5        2 -.813253701538D-04 0.100000000000D+01
  </mgrwgt>
  </event>
  <event>
  5     66 0.18411016E-05 0.64001590E+02 0.75467711E-02 0.94045567E-01
        2 -1    0    0  502    0 0.00000000E+00 0.00000000E+00 0.83454113E+03 0.83454119E+03 0.32000000E+00 0.0000E+00 0.9000E+01
        2 -1    0    0  501    0 0.00000000E+00 0.00000000E+00 -.81846393E+03 0.81846400E+03 0.32000000E+00 0.0000E+00 0.9000E+01
       25  1    1    2    0    0 0.44687437E+03 0.22814496E+03 -.31018469E+02 0.51800962E+03 0.12500000E+03 0.0000E+00 0.9000E+01
        2  1    1    2  501    0 -.15976043E+03 -.18322718E+03 -.47719763E+03 0.53554950E+03 0.32000000E+00 0.0000E+00 0.9000E+01
        2  1    1    2  502    0 -.28711394E+03 -.44917786E+02 0.52429329E+03 0.59944606E+03 0.32000000E+00 0.0000E+00 0.9000E+01
#aMCatNLO 1  0  0  5  1 0.84106945D+02 0.00000000D+00  -5  6  0 0.00000000D+00 0.00000000D+00 0.00000000D+00 0.00000000D+00 0.00000000D+00
  <mgrwgt>
 0.1153814972D-02    8    2    0
 0.826463501558063D+03 0.000000000000000D+00 0.000000000000000D+00 0.826463501558063D+03
 0.826463501558063D+03 -.000000000000000D+00 -.000000000000000D+00 -.826463501558063D+03
 0.518338533868074D+03 0.446873975086058D+03 0.228170143814897D+03 -.359426147459890D+02
 0.540284657775565D+03 -.159794324704078D+03 -.183257721523755D+03 -.482483049155045D+03
 0.594303811472487D+03 -.287079650381980D+03 -.449124222911420D+02 0.518425663901034D+03
 0.000000000000000D+00 0.000000000000000D+00 -.000000000000000D+00 0.000000000000000D+00
 0.826463501558063D+03 0.000000000000000D+00 0.000000000000000D+00 0.826463501558063D+03
 0.826463501558063D+03 -.000000000000000D+00 -.000000000000000D+00 -.826463501558063D+03
 0.514311769202687D+03 0.443018150059992D+03 0.227566915959418D+03 -.289795344776221D+02
 0.535249647961801D+03 -.163810274808506D+03 -.183886000284545D+03 -.475230805409063D+03
 0.369734483491830D+03 -.115080836355967D+03 0.203819062354407D+02 0.350777090592859D+03
 0.233631102459808D+03 -.164127038895519D+03 -.640628219103135D+02 0.153433249293826D+03
0.208322410995D-04 0.000000000000D+00 0.000000000000D+00 0.219581519781D-06 0.000000000000D+00  6 2 2 25 2 2 21 0 0.12839095D+00 0.12591754D+00 0.27604706D+06 0.27604706D+06 0.27604706D+06 0.10872357D+01  1  2  2  3  6  5        2 0.370615387673D-03 0.100000000000D+01
0.160271229837D-05 0.000000000000D+00 -.800012910772D-07 0.219581519781D-06 0.000000000000D+00  6 2 2 25 2 2 21 2 0.12839095D+00 0.12591754D+00 0.27604706D+06 0.27604706D+06 0.27604706D+06 0.10872357D+01  1  2  3  3  6  5        2 0.337046967945D-04 0.100000000000D+01
-.149541473224D-04 0.000000000000D+00 0.000000000000D+00 0.219581519781D-06 0.000000000000D+00  6 2 2 25 2 2 21 2 0.12839095D+00 0.12591754D+00 0.27604706D+06 0.27604706D+06 0.27604706D+06 0.10872357D+01  1  2 15  3  6  5        2 -.314482519311D-03 0.100000000000D+01
0.890936922314D-09 0.000000000000D+00 0.000000000000D+00 0.219581519781D-06 0.000000000000D+00  6 2 2 25 2 2 21 2 0.12839095D+00 0.12591754D+00 0.27710802D+06 0.27710802D+06 0.27710802D+06 0.10871115D+01  1  2 12  3  6  5        2 0.187292793336D-07 0.100000000000D+01
0.414682543876D-04 0.000000000000D+00 0.000000000000D+00 0.219581519781D-06 0.000000000000D+00  6 2 2 25 2 2 21 2 0.12839095D+00 0.12591754D+00 0.27710802D+06 0.27710802D+06 0.27710802D+06 0.10871115D+01  1  2 12  3  6  5        2 0.871745799788D-03 0.100000000000D+01
-.180375144690D-04 0.000000000000D+00 0.000000000000D+00 0.219581519781D-06 0.000000000000D+00  6 2 2 25 2 2 21 2 0.12839095D+00 0.12591754D+00 0.27604706D+06 0.27604706D+06 0.27604706D+06 0.10872357D+01  1  2  4  3  6  5        2 -.379325070834D-03 0.100000000000D+01
-.588690903999D-04 0.000000000000D+00 0.000000000000D+00 0.219581519781D-06 0.000000000000D+00  6 2 2 25 2 2 21 2 0.12839095D+00 0.12591754D+00 0.27604706D+06 0.27604706D+06 0.27604706D+06 0.10872357D+01  1  2  5  3  6  5        2 -.123800437828D-02 0.100000000000D+01
0.860466349609D-04 0.000000000000D+00 -.000000000000D+00 0.219581519781D-06 0.000000000000D+00  6 2 2 25 2 2 21 2 0.12839095D+00 0.12591754D+00 0.27604706D+06 0.27604706D+06 0.27604706D+06 0.10872357D+01  1  2  6  3  6  5        2 0.180954232678D-02 0.100000000000D+01
  </mgrwgt>
  </event>
  <event>
  5     66 0.18411016E-05 0.11473061E+03 0.75467711E-02 0.90383486E-01
        2 -1    0    0  502    0 0.00000000E+00 0.00000000E+00 0.30356553E+04 0.30356553E+04 0.32000000E+00 0.0000E+00 0.9000E+01
        2 -1    0    0  501    0 0.00000000E+00 0.00000000E+00 -.17573162E+04 0.17573162E+04 0.32000000E+00 0.0000E+00 0.9000E+01
       25  1    1    2    0    0 -.34534754E+03 -.32457121E+03 0.99899727E+02 0.50021630E+03 0.12500000E+03 0.0000E+00 0.9000E+01
        2  1    1    2  501    0 -.10638011E+03 0.42954863E+02 -.15290925E+04 0.15333903E+04 0.32000000E+00 0.0000E+00 0.9000E+01
        2  1    1    2  502    0 0.45172765E+03 0.28161635E+03 0.27075319E+04 0.27593649E+04 0.32000000E+00 0.0000E+00 0.9000E+01
#aMCatNLO 1  0  0  1  1 0.34056875D+03 0.00000000D+00  -5  6  0 0.00000000D+00 0.00000000D+00 0.00000000D+00 0.00000000D+00 0.00000000D+00
  <mgrwgt>
 0.2999497078D-01    7    2    0
 0.230967663094034D+04 0.000000000000000D+00 0.000000000000000D+00 0.230967663094034D+04
 0.230967663094034D+04 0.000000000000000D+00 0.000000000000000D+00 -.230967663094034D+04
 0.491361211044277D+03 -.345338447410141D+03 -.324570933456183D+03 -.347261517394861D+02
 0.201420578291133D+04 -.106385150342614D+03 0.429571139873817D+02 -.201093555890235D+04
 0.211378626792506D+04 0.451723597752755D+03 0.281613819468801D+03 0.204566171064183D+04
 0.000000000000000D+00 -.000000000000000D+00 0.000000000000000D+00 0.000000000000000D+00
 0.290220164415688D+04 0.000000000000000D+00 0.000000000000000D+00 0.290220164415688D+04
 0.236540626803505D+04 0.000000000000000D+00 0.000000000000000D+00 -.236540626803505D+04
 0.506692847134401D+03 -.333008944275365D+03 -.359182096930148D+03 -.347261517394861D+02
 0.201405710327971D+04 -.566218339410683D+02 -.967375890475382D+02 -.201093555890235D+04
 0.211114076850836D+04 0.503916413074767D+03 0.135099069966730D+03 0.204566171064183D+04
 0.635717193269456D+03 -.114285634858333D+03 0.320820616010957D+03 0.536795376121826D+03
0.366993658471D-01 0.000000000000D+00 0.000000000000D+00 0.913210750742D-04 0.000000000000D+00  6 2 2 25 2 2 21 0 0.46702389D+00 0.27035633D+00 0.32329424D+06 0.32329424D+06 0.32329424D+06 0.10821572D+01  1  2  2  1  6  1        2 0.972680042700D-02 0.100000000000D+01
0.101959363204D-01 0.000000000000D+00 -.140935228018D-03 0.913210750742D-04 0.000000000000D+00  6 2 2 25 2 2 21 2 0.46702389D+00 0.27035633D+00 0.32329424D+06 0.32329424D+06 0.32329424D+06 0.10821572D+01  1  2  3  1  6  1        2 0.316460347945D-02 0.100000000000D+01
-.271870395014D-01 0.000000000000D+00 0.000000000000D+00 0.913210750742D-04 0.000000000000D+00  6 2 2 25 2 2 21 2 0.46702389D+00 0.27035633D+00 0.32329424D+06 0.32329424D+06 0.32329424D+06 0.10821572D+01  1  2 15  1  6  1        2 -.843828336097D-02 0.100000000000D+01
-.106154131079D-01 0.000000000000D+00 0.000000000000D+00 0.913210750742D-04 0.000000000000D+00  6 2 2 25 2 2 21 2 0.46702389D+00 0.27035633D+00 0.32329424D+06 0.32329424D+06 0.32329424D+06 0.10821572D+01  1  2  4  1  6  1        2 -.329480022248D-02 0.100000000000D+01
-.123704994311D+00 0.000000000000D+00 -.262285049098D-01 0.913210750742D-04 0.000000000000D+00  6 2 2 25 2 2 21 2 0.58954059D+00 0.27035633D+00 0.32329424D+06 0.32329424D+06 0.32329424D+06 0.10821572D+01  1  2  5  1  6  1        2 -.105893593266D-01 0.100000000000D+01
0.127048070885D+00 0.000000000000D+00 0.255325174296D-01 0.913210750742D-04 0.000000000000D+00  6 2 2 25 2 2 21 2 0.46702389D+00 0.27035633D+00 0.32329424D+06 0.32329424D+06 0.32329424D+06 0.10821572D+01  1  2  6  1  6  1        2 0.394330402373D-01 0.100000000000D+01
-.358185409951D-02 0.000000000000D+00 -.842376617774D-03 0.913210750742D-04 0.000000000000D+00  6 21 2 25 2 2 -2 2 0.58954059D+00 0.27035633D+00 0.32329424D+06 0.32329424D+06 0.32329424D+06 0.10821572D+01  1  2  5  4  6  1        2 -.703045370839D-05 0.100000000000D+01
  </mgrwgt>
  </event>
  <event>
  5     66 0.18411016E-05 0.34328576E+02 0.75467711E-02 0.93851969E-01
        2 -1    0    0  502    0 0.00000000E+00 0.00000000E+00 0.16659538E+04 0.16659538E+04 0.32000000E+00 0.0000E+00 0.9000E+01
        2 -1    0    0  501    0 0.00000000E+00 0.00000000E+00 -.22974140E+04 0.22974141E+04 0.32000000E+00 0.0000E+00 0.9000E+01
       25  1    1    2    0    0 0.42907565E+03 -.19465180E+03 -.14996929E+04 0.15769271E+04 0.12500000E+03 0.0000E+00 0.9000E+01
        2  1    1    2  501    0 0.99622661E+01 0.32861372E+02 -.72505604E+03 0.72586878E+03 0.32000000E+00 0.0000E+00 0.9000E+01
        2  1    1    2  502    0 -.43903792E+03 0.16179043E+03 0.15932887E+04 0.16605720E+04 0.32000000E+00 0.0000E+00 0.9000E+01
#aMCatNLO 1  0  0  1  4 0.98409466D+02 0.00000000D+00  -5  6  0 0.00000000D+00 0.00000000D+00 0.00000000D+00 0.00000000D+00 0.00000000D+00
  <mgrwgt>
 0.2699405939D-01    7    2    0
 0.195637052828750D+04 0.000000000000000D+00 0.000000000000000D+00 0.195637052828750D+04
 0.195637052828750D+04 0.000000000000000D+00 0.000000000000000D+00 -.195637052828750D+04
 0.135550809542398D+04 0.429079530817808D+03 -.194642967946747D+03 -.126482491595556D+04
 0.618033318788424D+03 0.996012747344918D+01 0.328518948927880D+02 -.617079194265452D+03
 0.193919964236259D+04 -.439039658291257D+03 0.161791073053959D+03 0.188190411022101D+04
 0.000000000000000D+00 -.000000000000000D+00 0.000000000000000D+00 0.000000000000000D+00
 0.217824936448867D+04 0.000000000000000D+00 0.000000000000000D+00 0.217824936448867D+04
 0.196793155369431D+04 0.000000000000000D+00 0.000000000000000D+00 -.196793155369431D+04
 0.136650903788167D+04 0.450499703175195D+03 -.221336621527860D+03 -.126482491595556D+04
 0.617741114941254D+03 0.196847177566839D+02 0.207331854861668D+02 -.617079194265452D+03
 0.192972825779579D+04 -.408594184070801D+03 0.123850157901927D+03 0.188190411022101D+04
 0.232202507564270D+03 -.615902368610785D+02 0.767532781397664D+02 0.210317810794356D+03
0.118938127821D-01 0.000000000000D+00 0.000000000000D+00 0.134208501478D-03 0.000000000000D+00  6 2 2 25 2 2 21 0 0.25630058D+00 0.35344832D+00 0.24487326D+06 0.24487326D+06 0.24487326D+06 0.10911367D+01  1  2  2  1  6  1        2 0.100087975369D-01 0.100000000000D+01
0.336938247541D-02 0.000000000000D+00 -.456753727963D-04 0.134208501478D-03 0.000000000000D+00  6 2 2 25 2 2 21 2 0.25630058D+00 0.35344832D+00 0.24487326D+06 0.24487326D+06 0.24487326D+06 0.10911367D+01  1  2  3  1  6  1        2 0.337574365506D-02 0.100000000000D+01
-.898415255184D-02 0.000000000000D+00 0.000000000000D+00 0.134208501478D-03 0.000000000000D+00  6 2 2 25 2 2 21 2 0.25630058D+00 0.35344832D+00 0.24487326D+06 0.24487326D+06 0.24487326D+06 0.10911367D+01  1  2 15  1  6  1        2 -.900111406001D-02 0.100000000000D+01
-.307009300063D-01 0.000000000000D+00 0.000000000000D+00 0.134208501478D-03 0.000000000000D+00  6 2 2 25 2 2 21 2 0.25630058D+00 0.35344832D+00 0.24487326D+06 0.24487326D+06 0.24487326D+06 0.10911367D+01  1  2  4  1  6  1        2 -.307588914080D-01 0.100000000000D+01
-.246817612468D+00 0.000000000000D+00 -.232674947082D-01 0.134208501478D-03 0.000000000000D+00  6 2 2 25 2 2 21 2 0.28596919D+00 0.35344832D+00 0.24487326D+06 0.24487326D+06 0.24487326D+06 0.10911367D+01  1  2  5  1  6  1        2 -.194333469014D+00 0.100000000000D+01
0.248015782005D+00 0.000000000000D+00 0.231286130224D-01 0.134208501478D-03 0.000000000000D+00  6 2 2 25 2 2 21 2 0.25630058D+00 0.35344832D+00 0.24487326D+06 0.24487326D+06 0.24487326D+06 0.10911367D+01  1  2  6  1  6  1        2 0.248484020015D+00 0.100000000000D+01
-.424385753481D-02 0.000000000000D+00 -.408639040294D-03 0.134208501478D-03 0.000000000000D+00  6 21 2 25 2 2 -2 2 0.28596919D+00 0.35344832D+00 0.24487326D+06 0.24487326D+06 0.24487326D+06 0.10911367D+01  1  2  5  4  6  1        2 -.781027338767D-03 0.100000000000D+01
  </mgrwgt>
  </event>
  <event>
  5     66 0.18411016E-05 0.10069874E+03 0.75467711E-02 0.90480498E-01
        2 -1    0    0  502    0 0.00000000E+00 0.00000000E+00 0.10540547E+04 0.10540548E+04 0.32000000E+00 0.0000E+00 0.9000E+01
        2 -1    0    0  501    0 0.00000000E+00 0.00000000E+00 -.69941116E+03 0.69941124E+03 0.32000000E+00 0.0000E+00 0.9000E+01
       25  1    1    2    0    0 -.45609598E+03 -.68012611E+02 -.14135049E+03 0.49825116E+03 0.12500000E+03 0.0000E+00 0.9000E+01
        2  1    1    2  501    0 0.35995544E+03 0.97999124E+02 -.28392996E+03 0.46881561E+03 0.32000000E+00 0.0000E+00 0.9000E+01
        2  1    1    2  502    0 0.96140536E+02 -.29986513E+02 0.77992401E+03 0.78639923E+03 0.32000000E+00 0.0000E+00 0.9000E+01
#aMCatNLO 1  0  0  1  5 0.31223652D+02 0.00000000D+00  -5  6  0 0.00000000D+00 0.00000000D+00 0.00000000D+00 0.00000000D+00 0.00000000D+00
  <mgrwgt>
 0.3407613760D-02    7    2    0
 0.858613850062156D+03 0.000000000000000D+00 0.000000000000000D+00 0.858613850062156D+03
 0.858613850062156D+03 0.000000000000000D+00 0.000000000000000D+00 -.858613850062156D+03
 0.537974879491243D+03 -.456148305018958D+03 -.680276769930744D+02 -.247169840301916D+03
 0.537391041907342D+03 0.360017042815082D+03 0.980112974183187D+02 -.386743644270103D+03
 0.641861778725728D+03 0.961312622038763D+02 -.299836204252443D+02 0.633913484572019D+03
 0.000000000000000D+00 0.000000000000000D+00 -.000000000000000D+00 0.000000000000000D+00
 0.135426700579052D+04 0.000000000000000D+00 0.000000000000000D+00 0.135426700579052D+04
 0.996727735941149D+03 0.000000000000000D+00 0.000000000000000D+00 -.996727735941149D+03
 0.610422853420679D+03 -.541343122000764D+03 0.533456116830204D+02 -.247169840301916D+03
 0.522362272158399D+03 0.281398383921737D+03 0.210015824445206D+03 -.386743644270103D+03
 0.642678845491045D+03 0.836574440646658D+00 0.105778507564947D+03 0.633913484572019D+03
 0.575530770661544D+03 0.259108163638380D+03 -.369139943693173D+03 0.357539269849368D+03
0.165862528358D-03 0.000000000000D+00 0.000000000000D+00 0.141741811258D-05 0.000000000000D+00  6 2 2 25 2 2 21 0 0.16216227D+00 0.10760173D+00 0.22641006D+06 0.22641006D+06 0.22641006D+06 0.10937122D+01  1  2  2  1  6  1        2 0.262307617930D-02 0.100000000000D+01
0.348158570051D-04 0.000000000000D+00 -.636955781501D-06 0.141741811258D-05 0.000000000000D+00  6 2 2 25 2 2 21 2 0.16216227D+00 0.10760173D+00 0.22641006D+06 0.22641006D+06 0.22641006D+06 0.10937122D+01  1  2  3  1  6  1        2 0.658636503280D-03 0.100000000000D+01
-.116112674457D-03 0.000000000000D+00 0.000000000000D+00 0.141741811258D-05 0.000000000000D+00  6 2 2 25 2 2 21 2 0.16216227D+00 0.10760173D+00 0.22641006D+06 0.22641006D+06 0.22641006D+06 0.10937122D+01  1  2 15  1  6  1        2 -.219658662659D-02 0.100000000000D+01
-.531772399951D-05 0.000000000000D+00 0.000000000000D+00 0.141741811258D-05 0.000000000000D+00  6 2 2 25 2 2 21 2 0.16216227D+00 0.10760173D+00 0.22641006D+06 0.22641006D+06 0.22641006D+06 0.10937122D+01  1  2  4  1  6  1        2 -.100599193636D-03 0.100000000000D+01
-.141311147318D-03 0.000000000000D+00 -.105277753901D-03 0.141741811258D-05 0.000000000000D+00  6 2 2 25 2 2 21 2 0.27421730D+00 0.10760173D+00 0.22641006D+06 0.22641006D+06 0.22641006D+06 0.10937122D+01  1  2  5  1  6  1        2 -.104598704793D-02 0.100000000000D+01
0.183704454202D-03 0.000000000000D+00 0.922530269219D-04 0.141741811258D-05 0.000000000000D+00  6 2 2 25 2 2 21 2 0.16216227D+00 0.10760173D+00 0.22641006D+06 0.22641006D+06 0.22641006D+06 0.10937122D+01  1  2  6  1  6  1        2 0.347526873560D-02 0.100000000000D+01
-.327696781814D-05 0.000000000000D+00 -.617586089626D-05 0.141741811258D-05 0.000000000000D+00  6 21 2 25 2 2 -2 2 0.27421730D+00 0.10760173D+00 0.22641006D+06 0.22641006D+06 0.22641006D+06 0.10937122D+01  1  2  5  4  6  1        2 -.619478969558D-05 0.100000000000D+01
  </mgrwgt>
  </event>
  <event>
  5     66 0.18411016E-05 0.18737119E+03 0.75467711E-02 0.92554299E-01
        2 -1    0    0  502    0 0.00000000E+00 0.00000000E+00 0.11707127E+04 0.11707128E+04 0.32000000E+00 0.0000E+00 0.9000E+01
        2 -1    0    0  501    0 0.00000000E+00 0.00000000E+00 -.20160494E+04 0.20160494E+04 0.32000000E+00 0.0000E+00 0.9000E+01
       25  1    1    2    0    0 0.49087282E+03 0.42172130E+02 0.47650574E+03 0.69671898E+03 0.12500000E+03 0.0000E+00 0.9000E+01
        2  1    1    2  501    0 -.48851897E+03 0.14522532E+03 -.18556123E+04 0.19243280E+04 0.32000000E+00 0.0000E+00 0.9000E+01
        2  1    1    2  502    0 -.23538447E+01 -.18739745E+03 0.53376986E+03 0.56571522E+03 0.32000000E+00 0.0000E+00 0.9000E+01
#aMCatNLO 1  0  0  2  4 0.29690926D+02 0.00000000D+00  -5  6  0 0.00000000D+00 0.00000000D+00 0.00000000D+00 0.00000000D+00 0.00000000D+00
  <mgrwgt>
 0.1280384311D-02    1    2    0
 0.153629904932574D+04 0.000000000000000D+00 0.000000000000000D+00 0.153629904932574D+04
 0.153629904932574D+04 0.000000000000000D+00 0.000000000000000D+00 -.153629904932574D+04
 0.853849887229252D+03 0.490921573431316D+03 0.421197609663354D+02 0.686044141726511D+03
 0.148532291564826D+04 -.488568244288406D+03 0.145236645710718D+03 -.139513137415998D+04
 0.733425295773974D+03 -.235332914291019D+01 -.187356406677053D+03 0.709087232433464D+03
 0.000000000000000D+00 -.000000000000000D+00 0.000000000000000D+00 0.000000000000000D+00
 0.291522731857422D+04 0.000000000000000D+00 0.000000000000000D+00 0.291522731857422D+04
 0.191938030701044D+04 0.000000000000000D+00 0.000000000000000D+00 -.191938030701044D+04
 0.953485364872740D+03 0.587596032293427D+03 -.278538470345226D+03 0.686044141726511D+03
 0.148346576352735D+04 -.329767579773361D+03 -.381487173732891D+03 -.139513137415998D+04
 0.854172077788660D+03 0.825673388967209D+02 -.469028644990007D+03 0.709087232433464D+03
 0.154348441939590D+04 -.340395791416787D+03 0.112905428906812D+04 0.995847011563782D+03
0.498577487972D-03 0.000000000000D+00 0.000000000000D+00 0.102713752310D-05 0.000000000000D+00  6 2 2 25 2 2 21 2 0.18010965D+00 0.31016145D+00 0.36324931D+06 0.36324931D+06 0.36324931D+06 0.10784580D+01  1  2 14  2  6  2        2 0.128038431133D-02 0.100000000000D+01
  </mgrwgt>
  </event>
  <event>
  5     66 -.18411016E-05 0.57112531E+02 0.75467711E-02 0.93785319E-01
        2 -1    0    0  502    0 0.00000000E+00 0.00000000E+00 0.15575012E+04 0.15575013E+04 0.32000000E+00 0.0000E+00 0.9000E+01
        2 -1    0    0  501    0 0.00000000E+00 0.00000000E+00 -.90023314E+03 0.90023320E+03 0.32000000E+00 0.0000E+00 0.9000E+01
       25  1    1    2    0    0 0.38327144E+03 -.28819207E+03 -.15035764E+03 0.51786493E+03 0.12500000E+03 0.0000E+00 0.9000E+01
        2  1    1    2  501    0 -.37306587E+02 -.43241034E+02 -.52274678E+03 0.52585727E+03 0.32000000E+00 0.0000E+00 0.9000E+01
        2  1    1    2  502    0 -.34596485E+03 0.33143310E+03 0.13303725E+04 0.14140123E+04 0.32000000E+00 0.0000E+00 0.9000E+01
#aMCatNLO 1  0  0  5  4 0.11293787D+03 0.00000000D+00  -5  6  0 0.00000000D+00 0.00000000D+00 0.00000000D+00 0.00000000D+00 0.00000000D+00
  <mgrwgt>
 -.6124571773D-02    4    2    0
 0.118410908757681D+04 0.000000000000000D+00 0.000000000000000D+00 0.118410908757681D+04
 0.118410908757681D+04 -.000000000000000D+00 -.000000000000000D+00 -.118410908757681D+04
 0.579151870328345D+03 0.383271141952044D+03 -.288188459498556D+03 -.299737439208794D+03
 0.690840009239582D+03 -.373083774136836D+02 -.432426431923700D+02 -.688475182668658D+03
 0.109822629558568D+04 -.345962764538360D+03 0.331431102690926D+03 0.988212621877452D+03
 0.000000000000000D+00 -.000000000000000D+00 0.000000000000000D+00 0.000000000000000D+00
 0.118410908757681D+04 0.000000000000000D+00 0.000000000000000D+00 0.118410908757681D+04
 0.118410908757681D+04 -.000000000000000D+00 -.000000000000000D+00 -.118410908757681D+04
 0.573867519086589D+03 0.381247349277291D+03 -.286249673286386D+03 -.293956651013502D+03
 0.683964743118840D+03 -.397214502662144D+02 -.409309279490982D+02 -.681582449418700D+03
 0.372060390144710D+03 -.110193092739230D+02 0.154413579061739D+03 0.338325221257748D+03
 0.738325522803473D+03 -.330506589737153D+03 0.172767022173745D+03 0.637213879174454D+03
0.511556594259D-03 0.000000000000D+00 0.000000000000D+00 0.168289632665D-04 0.000000000000D+00  6 2 2 25 2 2 21 0 0.23961558D+00 0.13849741D+00 0.26613585D+06 0.26613585D+06 0.26613585D+06 0.10884215D+01  1  2  2  3  6  5        2 0.300907391659D-02 0.100000000000D+01
0.176545472055D-03 0.000000000000D+00 -.196451201790D-05 0.168289632665D-04 0.000000000000D+00  6 2 2 25 2 2 21 2 0.23961558D+00 0.13849741D+00 0.26613585D+06 0.26613585D+06 0.26613585D+06 0.10884215D+01  1  2  3  3  6  5        2 0.123024033752D-02 0.100000000000D+01
-.355659960309D-03 0.000000000000D+00 0.000000000000D+00 0.168289632665D-04 0.000000000000D+00  6 2 2 25 2 2 21 2 0.23961558D+00 0.13849741D+00 0.26613585D+06 0.26613585D+06 0.26613585D+06 0.10884215D+01  1  2 15  3  6  5        2 -.247838262018D-02 0.100000000000D+01
-.113160809223D-02 0.000000000000D+00 0.000000000000D+00 0.168289632665D-04 0.000000000000D+00  6 2 2 25 2 2 21 2 0.23961558D+00 0.13849741D+00 0.26613585D+06 0.26613585D+06 0.26613585D+06 0.10884215D+01  1  2  5  3  6  5        2 -.788550340665D-02 0.100000000000D+01
  </mgrwgt>
  </event>
  <event>
  5     66 0.18411016E-05 0.14125203E+03 0.75467711E-02 0.87381604E-01
        2 -1    0    0  502    0 0.00000000E+00 0.00000000E+00 0.37242085E+04 0.37242085E+04 0.32000000E+00 0.0000E+00 0.9000E+01
        2 -1    0    0  501    0 0.00000000E+00 0.00000000E+00 -.93356291E+03 0.93356297E+03 0.32000000E+00 0.0000E+00 0.9000E+01
       25  1    1    2    0    0 -.41404529E+03 0.58286807E+03 0.54779172E+03 0.90932362E+03 0.12500000E+03 0.0000E+00 0.9000E+01
        2  1    1    2  501    0 0.83292479E+02 -.11406781E+03 -.71838649E+03 0.73213958E+03 0.32000000E+00 0.0000E+00 0.9000E+01
        2  1    1    2  502    0 0.33075281E+03 -.46880026E+03 0.29612404E+04 0.30163083E+04 0.32000000E+00 0.0000E+00 0.9000E+01
#aMCatNLO 1  0  0  2  5 0.46854664D+02 0.00000000D+00  -5  6  0 0.00000000D+00 0.00000000D+00 0.00000000D+00 0.00000000D+00 0.00000000D+00
  <mgrwgt>
 0.3515569238D-02    4    2    0
 0.186461339670904D+04 0.000000000000000D+00 0.000000000000000D+00 0.186461339670904D+04
 0.186461339670904D+04 0.000000000000000D+00 0.000000000000000D+00 -.186461339670904D+04
 0.725809932393864D+03 -.414042125676133D+03 0.582863299098211D+03 0.381453686897385D+01
 0.145206676180372D+04 0.832988040371008D+02 -.114076486401878D+03 -.144518017742818D+04
 0.155135009922050D+04 0.330743321639032D+03 -.468786812696333D+03 0.144136564055920D+04
 0.000000000000000D+00 -.000000000000000D+00 -.000000000000000D+00 0.000000000000000D+00
 0.235105023687102D+04 0.000000000000000D+00 0.000000000000000D+00 0.235105023687102D+04
 0.204226525103566D+04 0.000000000000000D+00 0.000000000000000D+00 -.204226525103566D+04
 0.791257906913417D+03 -.374843055446245D+03 0.685523309848177D+03 0.381453686897385D+01
 0.145619156657721D+04 0.158444436623258D+03 0.827254123132073D+02 -.144518017742818D+04
 0.152111727031592D+04 0.410131903399813D+03 -.260872884912091D+03 0.144136564055920D+04
 0.624748744100133D+03 -.193733284576826D+03 -.507375837249293D+03 0.308784985835366D+03
0.245846122298D-01 0.000000000000D+00 0.000000000000D+00 0.856882058012D-05 0.000000000000D+00  6 2 2 25 2 2 21 0 0.57295516D+00 0.14362507D+00 0.51895443D+06 0.51895443D+06 0.51895443D+06 0.10673702D+01  1  2  2  2  6  2        2 0.614033731352D-02 0.100000000000D+01
0.641409485498D-02 0.000000000000D+00 -.944113842396D-04 0.856882058012D-05 0.000000000000D+00  6 2 2 25 2 2 21 2 0.57295516D+00 0.14362507D+00 0.51895443D+06 0.51895443D+06 0.51895443D+06 0.10673702D+01  1  2  3  2  6  2        2 0.182513254358D-02 0.100000000000D+01
-.153934273349D-01 0.000000000000D+00 0.000000000000D+00 0.856882058012D-05 0.000000000000D+00  6 2 2 25 2 2 21 2 0.57295516D+00 0.14362507D+00 0.51895443D+06 0.51895443D+06 0.51895443D+06 0.10673702D+01  1  2 15  2  6  2        2 -.438020419425D-02 0.100000000000D+01
-.244935351060D-03 0.000000000000D+00 0.000000000000D+00 0.856882058012D-05 0.000000000000D+00  6 2 2 25 2 2 21 2 0.57295516D+00 0.14362507D+00 0.51895443D+06 0.51895443D+06 0.51895443D+06 0.10673702D+01  1  2  4  2  6  2        2 -.696964248892D-04 0.100000000000D+01
  </mgrwgt>
  </event>
  <event>
  6     66 0.18411016E-05 0.14062234E+03 0.75467711E-02 0.95020041E-01
        2 -1    0    0  503    0 0.00000000E+00 0.00000000E+00 0.93236374E+03 0.93236379E+03 0.32000000E+00 0.0000E+00 0.9000E+01
        2 -1    0    0  501    0 0.00000000E+00 0.00000000E+00 -.27169423E+04 0.27169423E+04 0.32000000E+00 0.0000E+00 0.9000E+01
       25  1    1    2    0    0 0.43137399E+03 -.14353132E+03 0.19227277E+02 0.47188923E+03 0.12500000E+03 0.0000E+00 0.9000E+01
        2  1    1    2  501    0 -.96546082E+02 0.12596049E+02 -.23914629E+04 0.23934441E+04 0.32000000E+00 0.0000E+00 0.9000E+01
        2  1    1    2  502    0 -.12721825E+03 0.14034407E+03 0.33808745E+02 0.19241641E+03 0.32000000E+00 0.0000E+00 0.9000E+01
       21  1    1    2  503  502 -.20760966E+03 -.94087976E+01 0.55384837E+03 0.59155631E+03 0.75000000E+00 0.0000E+00 0.9000E+01
#aMCatNLO 2  0  0  1  5 0.26828235D+02 0.00000000D+00  -5  6  0 0.00000000D+00 0.00000000D+00 0.00000000D+00 0.00000000D+00 0.00000000D+00
  <mgrwgt>
 0.1056336035D-01    1    2    0
 0.979592132040477D+03 0.000000000000000D+00 0.000000000000000D+00 0.979592132040477D+03
 0.979592132040477D+03 0.000000000000000D+00 0.000000000000000D+00 -.979592132040477D+03
 0.714549412881753D+03 0.353666917341671D+03 -.146976036662964D+03 0.590147116975542D+03
 0.891362141119660D+03 -.189965387298048D+03 0.836663829417728D+01 -.870844198243166D+03
 0.353272710079541D+03 -.163701530043624D+03 0.138609398368787D+03 0.280697081267624D+03
 0.000000000000000D+00 -.000000000000000D+00 -.000000000000000D+00 0.000000000000000D+00
 0.255368013537390D+04 0.000000000000000D+00 0.000000000000000D+00 0.255368013537390D+04
 0.991971583434891D+03 0.000000000000000D+00 0.000000000000000D+00 -.991971583434891D+03
 0.755329600997080D+03 0.431328689698519D+03 -.143456432099862D+03 0.590147116975542D+03
 0.876273026549414D+03 -.965715237859655D+02 0.125992157670741D+02 -.870844198243166D+03
 0.338573322956691D+03 -.127147508511021D+03 0.140266013934998D+03 0.280697081267624D+03
 0.157547576830561D+04 -.207609657401533D+03 -.940879760220954D+01 0.156170855193901D+04
0.695290534189D-02 0.000000000000D+00 0.000000000000D+00 0.112477256207D-05 0.288769412892D-08  6 2 2 25 2 2 21 2 0.14344057D+00 0.41799109D+00 0.23327118D+06 0.23327118D+06 0.23327118D+06 0.10927292D+01  1  2  1  1  6  1        2 0.105633603540D-01 0.100000000000D+01
  </mgrwgt>
  </event>
  <event>
  5     66 0.18411016E-05 0.10903811E+03 0.75467711E-02 0.92565990E-01
        2 -1    0    0  502    0 0.00000000E+00 0.00000000E+00 0.26933197E+04 0.26933197E+04 0.32000000E+00 0.0000E+00 0.9000E+01
        2 -1    0    0  501    0 0.00000000E+00 0.00000000E+00 -.14353786E+04 0.14353786E+04 0.32000000E+00 0.0000E+00 0.9000E+01
       25  1    1    2    0    0 0.56527083E+03 0.84270684E+02 0.90332854E+03 0.10762249E+04 0.12500000E+03 0.0000E+00 0.9000E+01
        2  1    1    2  501    0 -.50972016E+03 0.95681138E+01 -.12989012E+04 0.13953676E+04 0.32000000E+00 0.0000E+00 0.9000E+01
        2  1    1    2  502    0 -.55550663E+02 -.93838798E+02 0.16535138E+04 0.16571058E+04 0.32000000E+00 0.0000E+00 0.9000E+01
#aMCatNLO 1  0  0  5  1 0.54664193D+01 0.00000000D+00  -5  6  0 0.00000000D+00 0.00000000D+00 0.00000000D+00 0.00000000D+00 0.00000000D+00
  <mgrwgt>
 0.6250634919D-02    9    2    0
 0.196619771159742D+04 0.000000000000000D+00 0.000000000000000D+00 0.196619771159742D+04
 0.196619771159742D+04 -.000000000000000D+00 -.000000000000000D+00 -.196619771159742D+04
 0.841087714556234D+03 0.565305445692408D+03 0.842616765524633D+02 0.604262580764774D+03
 0.188054218482438D+04 -.509760124235228D+03 0.956809845899288D+01 -.181010827746177D+04
 0.121076552381423D+04 -.555453214571802D+02 -.938297750114561D+02 0.120584569669700D+04
 0.000000000000000D+00 0.000000000000000D+00 -.000000000000000D+00 0.000000000000000D+00
 0.196619771159742D+04 0.000000000000000D+00 0.000000000000000D+00 0.196619771159742D+04
 0.196619771159742D+04 -.000000000000000D+00 -.000000000000000D+00 -.196619771159742D+04
 0.841095166326159D+03 0.565304940668707D+03 0.842608234426244D+02 0.604273544436251D+03
 0.188051888650298D+04 -.509761253378203D+03 0.956619105746065D+01 -.181008376464663D+04
 0.482897246671318D+03 -.222034238676457D+02 -.319704357896003D+02 0.481325929123620D+03
 0.727884123694397D+03 -.333402634228591D+02 -.618565787104848D+02 0.724484291086762D+03
0.126017033546D-04 0.000000000000D+00 0.000000000000D+00 0.321502248705D-04 0.000000000000D+00  6 2 2 25 2 2 21 0 0.41435688D+00 0.22082747D+00 0.36237275D+06 0.36237275D+06 0.36237275D+06 0.10785343D+01  1  2  2  3  6  5        2 0.807061853789D-05 0.100000000000D+01
0.278820229194D-05 0.000000000000D+00 -.483938589865D-07 0.321502248705D-04 0.000000000000D+00  6 2 2 25 2 2 21 2 0.41435688D+00 0.22082747D+00 0.36237275D+06 0.36237275D+06 0.36237275D+06 0.10785343D+01  1  2  3  3  6  5        2 0.207715910002D-05 0.100000000000D+01
-.892581691299D-05 0.000000000000D+00 0.000000000000D+00 0.321502248705D-04 0.000000000000D+00  6 2 2 25 2 2 21 2 0.41435688D+00 0.22082747D+00 0.36237275D+06 0.36237275D+06 0.36237275D+06 0.10785343D+01  1  2 15  3  6  5        2 -.664956839017D-05 0.100000000000D+01
0.276209684770D-10 0.000000000000D+00 0.000000000000D+00 0.321502248705D-04 0.000000000000D+00  6 2 2 25 2 2 21 2 0.41435688D+00 0.22082747D+00 0.36246679D+06 0.36246679D+06 0.36246679D+06 0.10785261D+01  1  2 12  3  6  5        2 0.205763002638D-10 0.100000000000D+01
0.113310111249D-01 0.000000000000D+00 0.000000000000D+00 0.321502248705D-04 0.000000000000D+00  6 2 2 25 2 2 21 2 0.41435688D+00 0.22082747D+00 0.36246679D+06 0.36246679D+06 0.36246679D+06 0.10785261D+01  1  2 12  3  6  5        2 0.844106126808D-02 0.100000000000D+01
-.237001441524D-01 0.000000000000D+00 0.000000000000D+00 0.321502248705D-04 0.000000000000D+00  6 2 2 25 2 2 21 2 0.41435688D+00 0.22082747D+00 0.36237275D+06 0.36237275D+06 0.36237275D+06 0.10785343D+01  1  2  4  3  6  5        2 -.176561687221D-01 0.100000000000D+01
-.192927588351D-01 0.000000000000D+00 0.000000000000D+00 0.321502248705D-04 0.000000000000D+00  6 2 2 25 2 2 21 2 0.41435688D+00 0.22082747D+00 0.36237275D+06 0.36237275D+06 0.36237275D+06 0.10785343D+01  1  2  5  3  6  5        2 -.143727482380D-01 0.100000000000D+01
0.332903551835D-01 0.000000000000D+00 -.000000000000D+00 0.321502248705D-04 0.000000000000D+00  6 2 2 25 2 2 21 2 0.41435688D+00 0.22082747D+00 0.36237275D+06 0.36237275D+06 0.36237275D+06 0.10785343D+01  1  2  6  3  6  5        2 0.248006984329D-01 0.100000000000D+01
0.675787545192D-02 0.000000000000D+00 0.000000000000D+00 0.321502248705D-04 0.131979043488D-05  6 2 2 25 2 2 21 2 0.41435688D+00 0.22082747D+00 0.36246679D+06 0.36246679D+06 0.36246679D+06 0.10785261D+01  1  2 11  3  6  5        2 0.503429394810D-02 0.100000000000D+01
  </mgrwgt>
  </event>
  <event>
  5     66 0.18411016E-05 0.48438977E+02 0.75467711E-02 0.94697435E-01
        2 -1    0    0  502    0 0.00000000E+00 0.00000000E+00 0.12172257E+04 0.12172257E+04 0.32000000E+00 0.0000E+00 0.9000E+01
        2 -1    0    0  501    0 0.00000000E+00 0.00000000E+00 -.87006984E+03 0.87006990E+03 0.32000000E+00 0.0000E+00 0.9000E+01
       25  1    1    2    0    0 -.46988808E+03 -.34926111E+02 0.16743460E+03 0.51543573E+03 0.12500000E+03 0.0000E+00 0.9000E+01
        2  1    1    2  501    0 0.12215248E+02 0.46867276E+02 -.63525073E+03 0.63709446E+03 0.32000000E+00 0.0000E+00 0.9000E+01
        2  1    1    2  502    0 0.45767284E+03 -.11941165E+02 0.81497198E+03 0.93476545E+03 0.32000000E+00 0.0000E+00 0.9000E+01
#aMCatNLO 1  0  0  2  4 0.13519980D+03 0.00000000D+00  -5  6  0 0.00000000D+00 0.00000000D+00 0.00000000D+00 0.00000000D+00 0.00000000D+00
  <mgrwgt>
 0.8193649938D-02    4    2    0
 0.102911198528468D+04 0.000000000000000D+00 0.000000000000000D+00 0.102911198528468D+04
 0.102911198528468D+04 0.000000000000000D+00 0.000000000000000D+00 -.102911198528468D+04
 0.494466890532803D+03 -.469860700936253D+03 -.349326046865290D+02 0.829646953751221D+02
 0.753299527225226D+03 0.122170207493259D+02 0.468730086564674D+02 -.751740542462125D+03
 0.810457552811335D+03 0.457643680186927D+03 -.119404039699384D+02 0.668775847087003D+03
 0.000000000000000D+00 -.000000000000000D+00 -.000000000000000D+00 0.000000000000000D+00
 0.135298810368012D+04 0.000000000000000D+00 0.000000000000000D+00 0.135298810368012D+04
 0.105199387262187D+04 0.000000000000000D+00 0.000000000000000D+00 -.105199387262187D+04
 0.459755833597590D+03 -.433715343149880D+03 -.275370108165415D+02 0.829646953751221D+02
 0.757209724559388D+03 0.694341629999856D+02 0.585800375089172D+02 -.751740542462125D+03
 0.847421366584479D+03 0.520443092936877D+03 0.908796602851375D+00 0.668775847087003D+03
 0.340595051560538D+03 -.156161912786982D+03 -.319518232952271D+02 0.300994231058250D+03
0.128658944627D-02 0.000000000000D+00 0.000000000000D+00 0.114737920424D-04 0.000000000000D+00  6 2 2 25 2 2 21 0 0.18726550D+00 0.13385691D+00 0.24685766D+06 0.24685766D+06 0.24685766D+06 0.10908726D+01  1  2  2  2  6  2        2 0.123147977953D-01 0.100000000000D+01
0.579894789403D-03 0.000000000000D+00 -.494084224046D-05 0.114737920424D-04 0.000000000000D+00  6 2 2 25 2 2 21 2 0.18726550D+00 0.13385691D+00 0.24685766D+06 0.24685766D+06 0.24685766D+06 0.10908726D+01  1  2  3  2  6  2        2 0.660517891868D-02 0.100000000000D+01
-.902682177825D-03 0.000000000000D+00 0.000000000000D+00 0.114737920424D-04 0.000000000000D+00  6 2 2 25 2 2 21 2 0.18726550D+00 0.13385691D+00 0.24685766D+06 0.24685766D+06 0.24685766D+06 0.10908726D+01  1  2 15  2  6  2        2 -.102818259453D-01 0.100000000000D+01
-.390244864809D-04 0.000000000000D+00 0.000000000000D+00 0.114737920424D-04 0.000000000000D+00  6 2 2 25 2 2 21 2 0.18726550D+00 0.13385691D+00 0.24685766D+06 0.24685766D+06 0.24685766D+06 0.10908726D+01  1  2  4  2  6  2        2 -.444500830369D-03 0.100000000000D+01
  </mgrwgt>
  </event>
  <event>
  5     66 0.18411016E-05 0.25661025E+03 0.75467711E-02 0.93608690E-01
        2 -1    0    0  502    0 0.00000000E+00 0.00000000E+00 0.15026683E+04 0.15026683E+04 0.32000000E+00 0.0000E+00 0.9000E+01
        2 -1    0    0  501    0 0.00000000E+00 0.00000000E+00 -.29583401E+03 0.29583418E+03 0.32000000E+00 0.0000E+00 0.9000E+01
       25  1    1    2    0    0 -.29161387E+03 -.45116616E+03 0.44721062E+03 0.71007879E+03 0.12500000E+03 0.0000E+00 0.9000E+01
        2  1    1    2  501    0 0.12403002E+03 0.22455971E+03 -.22059397E+02 0.25748248E+03 0.32000000E+00 0.0000E+00 0.9000E+01
        2  1    1    2  502    0 0.16758384E+03 0.22660645E+03 0.78168304E+03 0.83094122E+03 0.32000000E+00 0.0000E+00 0.9000E+01
#aMCatNLO 1  0  0  2  4 0.52435274D+01 0.00000000D+00  -5  6  0 0.00000000D+00 0.00000000D+00 0.00000000D+00 0.00000000D+00 0.00000000D+00
  <mgrwgt>
 0.7825895779D-03   13    2    0
 0.666738756176807D+03 0.000000000000000D+00 0.000000000000000D+00 0.666738756176807D+03
 0.666738756176807D+03 0.000000000000000D+00 0.000000000000000D+00 -.666738756176807D+03
 0.552962304318033D+03 -.291611425733076D+03 -.451174749254205D+03 -.393246997958928D+02
 0.367345104836778D+03 0.124068566969754D+03 0.224623712243624D+03 -.262856623723864D+03
 0.413170103198802D+03 0.167542858763322D+03 0.226551037010582D+03 0.302181323519757D+03
 0.000000000000000D+00 0.000000000000000D+00 -.000000000000000D+00 -.000000000000000D+00
 0.667328495060535D+03 0.000000000000000D+00 0.000000000000000D+00 0.667328495060535D+03
 0.678502087833051D+03 0.000000000000000D+00 0.000000000000000D+00 -.678502087833051D+03
 0.553624293422150D+03 -.293715533723906D+03 -.450621361569132D+03 -.393246997958928D+02
 0.367100788046347D+03 0.122672062190820D+03 0.224990997834561D+03 -.262856623723864D+03
 0.412762740197697D+03 0.165972397039649D+03 0.226964073880147D+03 0.302181323519757D+03
 0.123427612273919D+02 0.507107449343675D+01 -.133371014557515D+01 -.111735927725156D+02
0.969479129787D-05 0.000000000000D+00 0.000000000000D+00 0.174019907091D-07 0.000000000000D+00  6 2 2 25 2 2 21 0 0.23117975D+00 0.45512941D-01 0.29699524D+06 0.29699524D+06 0.29699524D+06 0.10848755D+01  1  2  2  2  6  2        2 0.223382974304D-03 0.100000000000D+01
0.476204801664D-06 0.000000000000D+00 -.372305512810D-07 0.174019907091D-07 0.000000000000D+00  6 2 2 25 2 2 21 2 0.23117975D+00 0.45512941D-01 0.29699524D+06 0.29699524D+06 0.29699524D+06 0.10848755D+01  1  2  3  2  6  2        2 0.129141296826D-04 0.100000000000D+01
-.619080485542D-05 0.000000000000D+00 0.000000000000D+00 0.174019907091D-07 0.000000000000D+00  6 2 2 25 2 2 21 2 0.23117975D+00 0.45512941D-01 0.29699524D+06 0.29699524D+06 0.29699524D+06 0.10848755D+01  1  2 15  2  6  2        2 -.167887548515D-03 0.100000000000D+01
0.171733301982D-07 0.000000000000D+00 0.000000000000D+00 0.174019907091D-07 0.000000000000D+00  6 2 2 25 2 2 21 2 0.23117975D+00 0.46353390D-01 0.29970427D+06 0.29970427D+06 0.29970427D+06 0.10845836D+01  1  2 12  2  6  2        2 0.455968750458D-06 0.100000000000D+01
0.248930264890D-04 0.000000000000D+00 0.000000000000D+00 0.174019907091D-07 0.000000000000D+00  6 2 2 25 2 2 21 2 0.23117975D+00 0.46573263D-01 0.29970427D+06 0.29970427D+06 0.29970427D+06 0.10845836D+01  1  2 12  2  6  2        2 0.657474493110D-03 0.100000000000D+01
-.471771391866D-03 0.000000000000D+00 0.000000000000D+00 0.174019907091D-07 0.000000000000D+00  6 2 2 25 2 2 21 2 0.23117975D+00 0.45512941D-01 0.29699524D+06 0.29699524D+06 0.29699524D+06 0.10848755D+01  1  2  4  2  6  2        2 -.127939006784D-01 0.100000000000D+01
-.223608535096D-02 0.000000000000D+00 -.129104727044D-03 0.174019907091D-07 0.000000000000D+00  6 2 2 25 2 2 21 2 0.23117975D+00 0.46340384D-01 0.29699524D+06 0.29699524D+06 0.29699524D+06 0.10848755D+01  1  2  5  2  6  2        2 -.594400702178D-01 0.100000000000D+01
0.223806913080D-02 0.000000000000D+00 0.129083775120D-03 0.174019907091D-07 0.000000000000D+00  6 2 2 25 2 2 21 2 0.23117975D+00 0.45512941D-01 0.29699524D+06 0.29699524D+06 0.29699524D+06 0.10848755D+01  1  2  6  2  6  2        2 0.606938756028D-01 0.100000000000D+01
0.446846459491D-03 0.000000000000D+00 0.000000000000D+00 0.174019907091D-07 0.384592602220D-08  6 2 2 25 2 2 21 2 0.23138423D+00 0.46315929D-01 0.29970427D+06 0.29970427D+06 0.29970427D+06 0.10845836D+01  1  2 11  2  6  2        2 0.118548705156D-01 0.100000000000D+01
0.121464693817D-08 0.000000000000D+00 0.000000000000D+00 0.174019907091D-07 0.000000000000D+00  6 2 21 25 2 2 -2 2 0.23117975D+00 0.46353390D-01 0.29970427D+06 0.29970427D+06 0.29970427D+06 0.10845836D+01  1  2 12  5  6  2        2 0.108193672467D-06 0.100000000000D+01
0.220056541750D-05 0.000000000000D+00 0.000000000000D+00 0.174019907091D-07 0.000000000000D+00  6 2 21 25 2 2 -2 2 0.23117975D+00 0.46573263D-01 0.29970427D+06 0.29970427D+06 0.29970427D+06 0.10845836D+01  1  2 12  5  6  2        2 0.194039804275D-03 0.100000000000D+01
-.734171371738D-05 0.000000000000D+00 -.424590707428D-06 0.174019907091D-07 0.000000000000D+00  6 2 21 25 2 2 -2 2 0.23117975D+00 0.46340384D-01 0.29699524D+06 0.29699524D+06 0.29699524D+06 0.10848755D+01  1  2  5  5  6  2        2 -.655113760103D-03 0.100000000000D+01
0.227261441764D-05 0.000000000000D+00 0.000000000000D+00 0.174019907091D-07 0.127543875780D-10  6 2 21 25 2 2 -2 2 0.23138423D+00 0.46315929D-01 0.29970427D+06 0.29970427D+06 0.29970427D+06 0.10845836D+01  1  2 11  5  6  2        2 0.202440100514D-03 0.100000000000D+01
  </mgrwgt>
  </event>
  <event>
  5     66 -.18411016E-05 0.61178009E+02 0.75467711E-02 0.95055063E-01
        2 -1    0    0  502    0 0.00000000E+00 0.00000000E+00 0.94116553E+03 0.94116559E+03 0.32000000E+00 0.0000E+00 0.9000E+01
        2 -1    0    0  501    0 0.00000000E+00 0.00000000E+00 -.27210629E+04 0.27210629E+04 0.32000000E+00 0.0000E+00 0.9000E+01
       25  1    1    2    0    0 0.45898629E+03 0.67969715E+02 0.23144430E+03 0.53336644E+03 0.12500000E+03 0.0000E+00 0.9000E+01
        2  1    1    2  501    0 -.39641775E+02 -.46589337E+02 -.24907901E+04 0.24915412E+04 0.32000000E+00 0.0000E+00 0.9000E+01
        2  1    1    2  502    0 -.41934452E+03 -.21380379E+02 0.47944846E+03 0.63732086E+03 0.32000000E+00 0.0000E+00 0.9000E+01
#aMCatNLO 1  0  0  2  4 0.24543446D+01 0.00000000D+00  -5  6  0 0.00000000D+00 0.00000000D+00 0.00000000D+00 0.00000000D+00 0.00000000D+00
  <mgrwgt>
 -.4089053932D-01   13    2    0
 0.160030333036866D+04 0.000000000000000D+00 0.000000000000000D+00 0.160030333036866D+04
 0.160030333036866D+04 0.000000000000000D+00 0.000000000000000D+00 -.160030333036866D+04
 0.739080133269523D+03 0.458942645083009D+03 0.679716825176204D+02 0.561574520694832D+03
 0.146577072335683D+04 -.396456004093505D+02 -.465937241831308D+02 -.146449344986072D+04
 0.995755804110968D+03 -.419297044673659D+03 -.213779583344896D+02 0.902918929165883D+03
 0.000000000000000D+00 -.000000000000000D+00 -.000000000000000D+00 -.000000000000000D+00
 0.160030485827829D+04 0.000000000000000D+00 0.000000000000000D+00 0.160030485827829D+04
 0.302452123503878D+04 0.000000000000000D+00 0.000000000000000D+00 -.302452123503878D+04
 0.739189697379885D+03 0.459035949854845D+03 0.685307460910478D+02 0.561574520694832D+03
 0.146573090729645D+04 -.394605712048619D+02 -.454850661132970D+02 -.146449344986072D+04
 0.995686997102316D+03 -.419171349680540D+03 -.206248190187576D+02 0.902918929165883D+03
 0.142421849153842D+04 -.404028969443431D+00 -.242086095899319D+01 -.142421637676049D+04
0.244010524015D-05 0.000000000000D+00 0.000000000000D+00 0.576220997399D-04 0.000000000000D+00  6 2 2 25 2 2 21 0 0.14479470D+00 0.41862507D+00 0.23112665D+06 0.23112665D+06 0.23112665D+06 0.10930330D+01  1  2  2  2  6  2        2 0.304982271907D-05 0.100000000000D+01
0.100414676581D-05 0.000000000000D+00 -.937064661663D-08 0.576220997399D-04 0.000000000000D+00  6 2 2 25 2 2 21 2 0.14479470D+00 0.41862507D+00 0.23112665D+06 0.23112665D+06 0.23112665D+06 0.10930330D+01  1  2  3  2  6  2        2 0.149944234436D-05 0.100000000000D+01
-.157831503267D-05 0.000000000000D+00 0.000000000000D+00 0.576220997399D-04 0.000000000000D+00  6 2 2 25 2 2 21 2 0.14479470D+00 0.41862507D+00 0.23112665D+06 0.23112665D+06 0.23112665D+06 0.10930330D+01  1  2 15  2  6  2        2 -.235681921538D-05 0.100000000000D+01
0.473658866737D-11 0.000000000000D+00 0.000000000000D+00 0.576220997399D-04 0.000000000000D+00  6 2 2 25 2 2 21 2 0.14479470D+00 0.79118797D+00 0.23184745D+06 0.23184745D+06 0.23184745D+06 0.10929305D+01  1  2 12  2  6  2        2 0.570867971270D-13 0.100000000000D+01
0.145007657451D-02 0.000000000000D+00 0.000000000000D+00 0.576220997399D-04 0.000000000000D+00  6 2 2 25 2 2 21 2 0.14479470D+00 0.79184305D+00 0.23184745D+06 0.23184745D+06 0.23184745D+06 0.10929305D+01  1  2 12  2  6  2        2 0.172335467037D-04 0.100000000000D+01
-.295103940018D+00 0.000000000000D+00 0.000000000000D+00 0.576220997399D-04 0.000000000000D+00  6 2 2 25 2 2 21 2 0.14479470D+00 0.41862507D+00 0.23112665D+06 0.23112665D+06 0.23112665D+06 0.10930330D+01  1  2  4  2  6  2        2 -.440664013187D+00 0.100000000000D+01
-.323416347027D+00 0.000000000000D+00 -.907625462701D-06 0.576220997399D-04 0.000000000000D+00  6 2 2 25 2 2 21 2 0.14479470D+00 0.79118781D+00 0.23112665D+06 0.23112665D+06 0.23112665D+06 0.10930330D+01  1  2  5  2  6  2        2 -.390038638227D-02 0.100000000000D+01
0.267388806057D+00 0.000000000000D+00 0.750389828831D-06 0.576220997399D-04 0.000000000000D+00  6 2 2 25 2 2 21 2 0.14479470D+00 0.41862507D+00 0.23112665D+06 0.23112665D+06 0.23112665D+06 0.10930330D+01  1  2  6  2  6  2        2 0.399278384257D+00 0.100000000000D+01
0.363080867356D+00 0.000000000000D+00 0.000000000000D+00 0.576220997399D-04 0.831409984724D-04  6 2 2 25 2 2 21 2 0.14479484D+00 0.79118776D+00 0.23184745D+06 0.23184745D+06 0.23184745D+06 0.10929305D+01  1  2 11  2  6  2        2 0.437597394898D-02 0.100000000000D+01
0.327839671549D-12 0.000000000000D+00 0.000000000000D+00 0.576220997399D-04 0.000000000000D+00  6 2 21 25 2 2 -2 2 0.14479470D+00 0.79118797D+00 0.23184745D+06 0.23184745D+06 0.23184745D+06 0.10929305D+01  1  2 12  5  6  2        2 0.226351719826D-16 0.100000000000D+01
0.100366035831D-03 0.000000000000D+00 0.000000000000D+00 0.576220997399D-04 0.000000000000D+00  6 2 21 25 2 2 -2 2 0.14479470D+00 0.79184305D+00 0.23184745D+06 0.23184745D+06 0.23184745D+06 0.10929305D+01  1  2 12  5  6  2        2 0.680173027991D-08 0.100000000000D+01
-.223849562104D-01 0.000000000000D+00 -.628205815182D-07 0.576220997399D-04 0.000000000000D+00  6 2 21 25 2 2 -2 2 0.14479470D+00 0.79118781D+00 0.23112665D+06 0.23112665D+06 0.23112665D+06 0.10930330D+01  1  2  5  5  6  2        2 -.154661944745D-05 0.100000000000D+01
0.234035406589D-01 0.000000000000D+00 0.000000000000D+00 0.576220997399D-04 0.535819231203D-05  6 2 21 25 2 2 -2 2 0.14479484D+00 0.79118776D+00 0.23184745D+06 0.23184745D+06 0.23184745D+06 0.10929305D+01  1  2 11  5  6  2        2 0.161586789744D-05 0.100000000000D+01
  </mgrwgt>
  </event>
  <event>
  5     66 0.18411016E-05 0.59791194E+02 0.75467711E-02 0.91757007E-01
        2 -1    0    0  502    0 0.00000000E+00 0.00000000E+00 0.74330028E+03 0.74330035E+03 0.32000000E+00 0.0000E+00 0.9000E+01
        2 -1    0    0  501    0 0.00000000E+00 0.00000000E+00 -.26712344E+04 0.26712344E+04 0.32000000E+00 0.0000E+00 0.9000E+01
       25  1    1    2    0    0 0.33838877E+03 -.47531444E+03 -.40678145E+03 0.72216821E+03 0.12500000E+03 0.0000E+00 0.9000E+01
        2  1    1    2  501    0 0.50146757E+02 0.32552545E+02 -.19580517E+04 0.19589643E+04 0.32000000E+00 0.0000E+00 0.9000E+01
        2  1    1    2  502    0 -.38853552E+03 0.44276189E+03 0.43689909E+03 0.73340225E+03 0.32000000E+00 0.0000E+00 0.9000E+01
#aMCatNLO 1  0  0  2  5 0.43178184D+02 0.00000000D+00  -5  6  0 0.00000000D+00 0.00000000D+00 0.00000000D+00 0.00000000D+00 0.00000000D+00
  <mgrwgt>
 0.1226675104D-01    9    2    0
 0.140908815041419D+04 0.000000000000000D+00 0.000000000000000D+00 0.140908815041419D+04
 0.140908815041419D+04 0.000000000000000D+00 0.000000000000000D+00 -.140908815041419D+04
 0.596687229871420D+03 0.338372181053327D+03 -.475303387587493D+03 0.126772579702850D+01
 0.103404258020513D+04 0.501509825705803D+02 0.325555810734692D+02 -.103231248697546D+04
 0.118744649075182D+04 -.388523163623907D+03 0.442747806514024D+03 0.103104476117843D+04
 0.000000000000000D+00 -.000000000000000D+00 -.000000000000000D+00 -.000000000000000D+00
 0.140961403183109D+04 0.000000000000000D+00 0.000000000000000D+00 0.140961403183109D+04
 0.270213333421107D+04 0.000000000000000D+00 0.000000000000000D+00 -.270213333421107D+04
 0.600599944434167D+03 0.347404651577055D+03 -.473712670495790D+03 0.126772579702850D+01
 0.103500718581707D+04 0.657601291686479D+02 0.353045229288808D+02 -.103231248697546D+04
 0.118289992457189D+04 -.370641000858860D+03 0.445897051437908D+03 0.103104476117843D+04
 0.129324031121902D+04 -.425237798868428D+02 -.748890387099832D+01 -.129251930237998D+04
0.296234412316D-04 0.000000000000D+00 0.000000000000D+00 0.151540675784D-04 0.000000000000D+00  6 2 2 25 2 2 21 0 0.11435390D+00 0.41095914D+00 0.38783229D+06 0.38783229D+06 0.38783229D+06 0.10763961D+01  1  2  2  2  6  2        2 0.518764230234D-04 0.100000000000D+01
0.136298560893D-04 0.000000000000D+00 -.113761814361D-06 0.151540675784D-04 0.000000000000D+00  6 2 2 25 2 2 21 2 0.11435390D+00 0.41095914D+00 0.38783229D+06 0.38783229D+06 0.38783229D+06 0.10763961D+01  1  2  3  2  6  2        2 0.276547682507D-04 0.100000000000D+01
-.228890021236D-04 0.000000000000D+00 0.000000000000D+00 0.151540675784D-04 0.000000000000D+00  6 2 2 25 2 2 21 2 0.11435390D+00 0.41095914D+00 0.38783229D+06 0.38783229D+06 0.38783229D+06 0.10763961D+01  1  2 15  2  6  2        2 -.464414330621D-04 0.100000000000D+01
0.203290409051D-09 0.000000000000D+00 0.000000000000D+00 0.151540675784D-04 0.000000000000D+00  6 2 2 25 2 2 21 2 0.11435390D+00 0.78811003D+00 0.42135758D+06 0.42135758D+06 0.42135758D+06 0.10738029D+01  1  2 12  2  6  2        2 0.316688615957D-11 0.100000000000D+01
-.238253704588D-02 0.000000000000D+00 0.000000000000D+00 0.151540675784D-04 0.000000000000D+00  6 2 2 25 2 2 21 2 0.11435390D+00 0.41095914D+00 0.38783229D+06 0.38783229D+06 0.38783229D+06 0.10763961D+01  1  2  4  2  6  2        2 -.483413100043D-02 0.100000000000D+01
-.103484215519D-01 0.000000000000D+00 -.110767628989D-04 0.151540675784D-04 0.000000000000D+00  6 2 2 25 2 2 21 2 0.11435390D+00 0.78809584D+00 0.38783229D+06 0.38783229D+06 0.38783229D+06 0.10763961D+01  1  2  5  2  6  2        2 -.163887208741D-03 0.100000000000D+01
0.849279305053D-02 0.000000000000D+00 0.908245139473D-05 0.151540675784D-04 0.000000000000D+00  6 2 2 25 2 2 21 2 0.11435390D+00 0.41095914D+00 0.38783229D+06 0.38783229D+06 0.38783229D+06 0.10763961D+01  1  2  6  2  6  2        2 0.172317464011D-01 0.100000000000D+01
0.143677534731D-10 0.000000000000D+00 0.000000000000D+00 0.151540675784D-04 0.000000000000D+00  6 2 21 25 2 2 -2 2 0.11435390D+00 0.78811003D+00 0.42135758D+06 0.42135758D+06 0.42135758D+06 0.10738029D+01  1  2 12  5  6  2        2 0.129103180961D-14 0.100000000000D+01
-.730727249230D-03 0.000000000000D+00 -.782841197205D-06 0.151540675784D-04 0.000000000000D+00  6 2 21 25 2 2 -2 2 0.11435390D+00 0.78809584D+00 0.38783229D+06 0.38783229D+06 0.38783229D+06 0.10763961D+01  1  2  5  5  6  2        2 -.669139302864D-07 0.100000000000D+01
  </mgrwgt>
  </event>
  <event>
  5     66 -.18411016E-05 0.32295686E+02 0.75467711E-02 0.93399344E-01
        2 -1    0    0  502    0 0.00000000E+00 0.00000000E+00 0.23528777E+04 0.23528777E+04 0.32000000E+00 0.0000E+00 0.9000E+01
        2 -1    0    0  501    0 0.00000000E+00 0.00000000E+00 -.16682433E+04 0.16682434E+04 0.32000000E+00 0.0000E+00 0.9000E+01
       25  1    1    2    0    0 0.54154313E+03 0.27477577E+02 -.58756773E+03 0.80924953E+03 0.12500000E+03 0.0000E+00 0.9000E+01
        2  1    1    2  501    0 -.52415508E+03 -.54693094E+02 -.89811361E+03 0.10413155E+04 0.32000000E+00 0.0000E+00 0.9000E+01
        2  1    1    2  502    0 -.17388051E+02 0.27215516E+02 0.21703157E+04 0.21705560E+04 0.32000000E+00 0.0000E+00 0.9000E+01
#aMCatNLO 1  0  0  2  5 0.43178184D+02 0.00000000D+00  -5  6  0 0.00000000D+00 0.00000000D+00 0.00000000D+00 0.00000000D+00 0.00000000D+00
  <mgrwgt>
 -.9178789910D-02    1    2    0
 0.198120484321835D+04 0.000000000000000D+00 0.000000000000000D+00 0.198120484321835D+04
 0.198120484321835D+04 0.000000000000000D+00 0.000000000000000D+00 -.198120484321835D+04
 0.922767770675911D+03 0.541569988554469D+03 0.274799612827168D+02 -.736085700053468D+03
 0.121193194821089D+04 -.524182081737319D+03 -.546952521670300D+02 -.109133891237789D+04
 0.182770996754991D+04 -.173879068171499D+02 0.272152908843131D+02 0.182742461243136D+04
 0.000000000000000D+00 0.000000000000000D+00 -.000000000000000D+00 -.000000000000000D+00
 0.232034343395161D+04 0.000000000000000D+00 0.000000000000000D+00 0.232034343395161D+04
 0.238969310813817D+04 0.000000000000000D+00 0.000000000000000D+00 -.238969310813817D+04
 0.933558968484616D+03 0.528564513311290D+03 0.186292096136297D+03 -.736085700053468D+03
 0.122789539143788D+04 -.541275577938199D+03 0.154036422225041D+03 -.109133891237789D+04
 0.185978040494323D+04 -.432225639048386D+02 0.342686811039482D+03 0.182742461243136D+04
 0.688801777224056D+03 0.559336285317476D+02 -.683015329400819D+03 -.693496741865512D+02
-.102418590915D-01 0.000000000000D+00 0.000000000000D+00 0.912433395088D-04 0.000000000000D+00  6 2 2 25 2 2 21 2 0.36198119D+00 0.25665282D+00 0.31125854D+06 0.31125854D+06 0.31125854D+06 0.10833701D+01  1  2 14  2  6  2        2 -.917878990979D-02 0.100000000000D+01
  </mgrwgt>
  </event>
  <event>
  5     66 0.18411016E-05 0.51778033E+02 0.75467711E-02 0.95067189E-01
        2 -1    0    0  502    0 0.00000000E+00 0.00000000E+00 0.85920648E+03 0.85920654E+03 0.32000000E+00 0.0000E+00 0.9000E+01
        2 -1    0    0  501    0 0.00000000E+00 0.00000000E+00 -.12499412E+04 0.12499412E+04 0.32000000E+00 0.0000E+00 0.9000E+01
       25  1    1    2    0    0 0.34872332E+03 0.28950146E+03 0.15161938E+03 0.49399645E+03 0.12500000E+03 0.0000E+00 0.9000E+01
        2  1    1    2  501    0 -.36781854E+03 -.24136141E+03 -.10324775E+04 0.11222993E+04 0.32000000E+00 0.0000E+00 0.9000E+01
        2  1    1    2  502    0 0.19095216E+02 -.48140049E+02 0.49012340E+03 0.49285205E+03 0.32000000E+00 0.0000E+00 0.9000E+01
#aMCatNLO 1  0  0  2  4 0.49662762D+02 0.00000000D+00  -5  6  0 0.00000000D+00 0.00000000D+00 0.00000000D+00 0.00000000D+00 0.00000000D+00
  <mgrwgt>
 0.4041677794D-02    7    2    0
 0.103631928501489D+04 0.000000000000000D+00 0.000000000000000D+00 0.103631928501489D+04
 0.103631928501489D+04 0.000000000000000D+00 0.000000000000000D+00 -.103631928501489D+04
 0.531385869702278D+03 0.348779322376000D+03 0.289528071620898D+03 0.247532669653257D+03
 0.947445754304901D+03 -.367870526506760D+03 -.241398137042247D+03 -.839077870349681D+03
 0.593806946022594D+03 0.190912041307595D+02 -.481299345786507D+02 0.591545200696424D+03
 0.000000000000000D+00 0.000000000000000D+00 0.000000000000000D+00 -.000000000000000D+00
 0.107486854610649D+04 0.000000000000000D+00 0.000000000000000D+00 0.107486854610649D+04
 0.178058208498222D+04 0.000000000000000D+00 0.000000000000000D+00 -.178058208498222D+04
 0.482710854269757D+03 0.326324374103679D+03 0.222766131065771D+03 0.247532669653257D+03
 0.100494059194850D+04 -.411101841011938D+03 -.369931341132162D+03 -.839077870349681D+03
 0.605082572623932D+03 -.745557537168384D+01 -.127057505178170D+03 0.591545200696424D+03
 0.762716612246530D+03 0.922330422799429D+02 0.274222715244562D+03 -.705713538875732D+03
0.173698134680D-03 0.000000000000D+00 0.000000000000D+00 0.144164415083D-04 0.000000000000D+00  6 2 2 25 2 2 21 0 0.13218562D+00 0.19229865D+00 0.23135677D+06 0.23135677D+06 0.23135677D+06 0.10930002D+01  1  2  2  2  6  2        2 0.162416684601D-02 0.100000000000D+01
0.608426744985D-04 0.000000000000D+00 -.667046572940D-06 0.144164415083D-04 0.000000000000D+00  6 2 2 25 2 2 21 2 0.13218562D+00 0.19229865D+00 0.23135677D+06 0.23135677D+06 0.23135677D+06 0.10930002D+01  1  2  3  2  6  2        2 0.679648398781D-03 0.100000000000D+01
-.113042553112D-03 0.000000000000D+00 0.000000000000D+00 0.144164415083D-04 0.000000000000D+00  6 2 2 25 2 2 21 2 0.13218562D+00 0.19229865D+00 0.23135677D+06 0.23135677D+06 0.23135677D+06 0.10930002D+01  1  2 15  2  6  2        2 -.126275169279D-02 0.100000000000D+01
-.158382633262D-03 0.000000000000D+00 0.000000000000D+00 0.144164415083D-04 0.000000000000D+00  6 2 2 25 2 2 21 2 0.13218562D+00 0.19229865D+00 0.23135677D+06 0.23135677D+06 0.23135677D+06 0.10930002D+01  1  2  4  2  6  2        2 -.176922701012D-02 0.100000000000D+01
-.674392007005D-03 0.000000000000D+00 -.952924217208D-04 0.144164415083D-04 0.000000000000D+00  6 2 2 25 2 2 21 2 0.13218562D+00 0.33380013D+00 0.23135677D+06 0.23135677D+06 0.23135677D+06 0.10930002D+01  1  2  5  2  6  2        2 -.235781095300D-02 0.100000000000D+01
0.639986243746D-03 0.000000000000D+00 0.824353333104D-04 0.144164415083D-04 0.000000000000D+00  6 2 2 25 2 2 21 2 0.13218562D+00 0.19229865D+00 0.23135677D+06 0.23135677D+06 0.23135677D+06 0.10930002D+01  1  2  6  2  6  2        2 0.714902211957D-02 0.100000000000D+01
-.364080247691D-04 0.000000000000D+00 -.581851607725D-05 0.144164415083D-04 0.000000000000D+00  6 2 21 25 2 2 -2 2 0.13218562D+00 0.33380013D+00 0.23135677D+06 0.23135677D+06 0.23135677D+06 0.10930002D+01  1  2  5  5  6  2        2 -.213699146858D-04 0.100000000000D+01
  </mgrwgt>
  </event>
  <event>
  5     66 0.18411016E-05 0.18590834E+03 0.75467711E-02 0.94971842E-01
        2 -1    0    0  502    0 0.00000000E+00 0.00000000E+00 0.12773677E+04 0.12773678E+04 0.32000000E+00 0.0000E+00 0.9000E+01
        2 -1    0    0  501    0 0.00000000E+00 0.00000000E+00 -.61954910E+03 0.61954918E+03 0.32000000E+00 0.0000E+00 0.9000E+01
       25  1    1    2    0    0 0.46310393E+03 0.10914896E+03 0.41556674E+03 0.64397163E+03 0.12500000E+03 0.0000E+00 0.9000E+01
        2  1    1    2  501    0 -.27824410E+03 -.89010906E+02 -.44980214E+03 0.53634391E+03 0.32000000E+00 0.0000E+00 0.9000E+01
        2  1    1    2  502    0 -.18485982E+03 -.20138050E+02 0.69205403E+03 0.71660141E+03 0.32000000E+00 0.0000E+00 0.9000E+01
#aMCatNLO 1  0  0  2  5 0.11071971D+03 0.00000000D+00  -5  6  0 0.00000000D+00 0.00000000D+00 0.00000000D+00 0.00000000D+00 0.00000000D+00
  <mgrwgt>
 0.1435490557D-02    9    2    0
 0.889602237312590D+03 0.000000000000000D+00 0.000000000000000D+00 0.889602237312590D+03
 0.889602237312590D+03 0.000000000000000D+00 0.000000000000000D+00 -.889602237312590D+03
 0.532997967693407D+03 0.463110795256519D+03 0.109159425284596D+03 0.205120561508869D+03
 0.738188630958114D+03 -.278295845093505D+03 -.890262636005873D+02 -.677899846488274D+03
 0.508017875973660D+03 -.184814950163014D+03 -.201331616840083D+02 0.472779284979404D+03
 0.000000000000000D+00 0.000000000000000D+00 -.000000000000000D+00 -.000000000000000D+00
 0.934368037367453D+03 0.000000000000000D+00 0.000000000000000D+00 0.934368037367453D+03
 0.962521084504135D+03 0.000000000000000D+00 0.000000000000000D+00 -.962521084504135D+03
 0.505991209728033D+03 0.430961907264389D+03 0.112247467924066D+03 0.205120561508869D+03
 0.756325854568766D+03 -.324539809748711D+03 -.845843266132673D+02 -.677899846488274D+03
 0.520329119699762D+03 -.216634542801117D+03 -.170767493172384D+02 0.472779284979404D+03
 0.114242937875027D+03 0.110212445285438D+03 -.105863919935605D+02 -.281530471366816D+02
0.729831841039D-04 0.000000000000D+00 0.000000000000D+00 0.899458917629D-06 0.000000000000D+00  6 2 2 25 2 2 21 0 0.19651812D+00 0.95315255D-01 0.23524664D+06 0.23524664D+06 0.23524664D+06 0.10924520D+01  1  2  2  2  6  2        2 0.987053438085D-03 0.100000000000D+01
0.674778234983D-05 0.000000000000D+00 -.280274643873D-06 0.899458917629D-06 0.000000000000D+00  6 2 2 25 2 2 21 2 0.19651812D+00 0.95315255D-01 0.23524664D+06 0.23524664D+06 0.23524664D+06 0.10924520D+01  1  2  3  2  6  2        2 0.108913985958D-03 0.100000000000D+01
-.491323810446D-04 0.000000000000D+00 0.000000000000D+00 0.899458917629D-06 0.000000000000D+00  6 2 2 25 2 2 21 2 0.19651812D+00 0.95315255D-01 0.23524664D+06 0.23524664D+06 0.23524664D+06 0.10924520D+01  1  2 15  2  6  2        2 -.793031425990D-03 0.100000000000D+01
0.468465170934D-09 0.000000000000D+00 0.000000000000D+00 0.899458917629D-06 0.000000000000D+00  6 2 2 25 2 2 21 2 0.19651812D+00 0.10727176D+00 0.31694519D+06 0.31694519D+06 0.31694519D+06 0.10827908D+01  1  2 12  2  6  2        2 0.636239745574D-08 0.100000000000D+01
-.632288988533D-05 0.000000000000D+00 0.000000000000D+00 0.899458917629D-06 0.000000000000D+00  6 2 2 25 2 2 21 2 0.19651812D+00 0.95315255D-01 0.23524664D+06 0.23524664D+06 0.23524664D+06 0.10924520D+01  1  2  4  2  6  2        2 -.102055920668D-03 0.100000000000D+01
-.544678642501D-03 0.000000000000D+00 -.148741786203D-03 0.899458917629D-06 0.000000000000D+00  6 2 2 25 2 2 21 2 0.19651812D+00 0.10725717D+00 0.23524664D+06 0.23524664D+06 0.23524664D+06 0.10924520D+01  1  2  5  2  6  2        2 -.763238413100D-02 0.100000000000D+01
0.559364869546D-03 0.000000000000D+00 0.147711534156D-03 0.899458917629D-06 0.000000000000D+00  6 2 2 25 2 2 21 2 0.19651812D+00 0.95315255D-01 0.23524664D+06 0.23524664D+06 0.23524664D+06 0.10924520D+01  1  2  6  2  6  2        2 0.902854514098D-02 0.100000000000D+01
0.877464670733D-11 0.000000000000D+00 0.000000000000D+00 0.899458917629D-06 0.000000000000D+00  6 2 21 25 2 2 -2 2 0.19651812D+00 0.10727176D+00 0.31694519D+06 0.31694519D+06 0.31694519D+06 0.10827908D+01  1  2 12  5  6  2        2 0.142450927685D-09 0.100000000000D+01
-.952489116790D-05 0.000000000000D+00 -.278332305244D-05 0.899458917629D-06 0.000000000000D+00  6 2 21 25 2 2 -2 2 0.19651812D+00 0.10725717D+00 0.23524664D+06 0.23524664D+06 0.23524664D+06 0.10924520D+01  1  2  5  5  6  2        2 -.161557035633D-03 0.100000000000D+01
  </mgrwgt>
  </event>
  <event>
  5     66 -.18411016E-05 0.14427300E+03 0.75467711E-02 0.92111310E-01
        2 -1    0    0  502    0 0.00000000E+00 0.00000000E+00 0.24617472E+04 0.24617472E+04 0.32000000E+00 0.0000E+00 0.9000E+01
        2 -1    0    0  501    0 0.00000000E+00 0.00000000E+00 -.24070032E+04 0.24070032E+04 0.32000000E+00 0.0000E+00 0.9000E+01
       25  1    1    2    0    0 -.45122355E+03 0.21704909E+03 -.39644811E+02 0.51759995E+03 0.12500000E+03 0.0000E+00 0.9000E+01
        2  1    1    2  501    0 0.43275382E+03 0.75803927E+02 -.20958191E+04 0.21413734E+04 0.32000000E+00 0.0000E+00 0.9000E+01
        2  1    1    2  502    0 0.18469729E+02 -.29285302E+03 0.21902080E+04 0.22097771E+04 0.32000000E+00 0.0000E+00 0.9000E+01
#aMCatNLO 1  0  0  1  5 0.10472535D+02 0.00000000D+00  -5  6  0 0.00000000D+00 0.00000000D+00 0.00000000D+00 0.00000000D+00 0.00000000D+00
  <mgrwgt>
 -.3981813268D-01   11    2    0
 0.243422133414013D+04 0.000000000000000D+00 0.000000000000000D+00 0.243422133414013D+04
 0.243422133414013D+04 0.000000000000000D+00 0.000000000000000D+00 -.243422133414013D+04
 0.518092523699552D+03 -.451245596385102D+03 0.217043433640007D+03 -.454359193830214D+02
 0.216508663845573D+04 0.432776079913633D+03 0.758062161969610D+02 -.212003736624146D+04
 0.218526350612497D+04 0.184695164714692D+02 -.292849649836968D+03 0.216547328562448D+04
 0.000000000000000D+00 0.000000000000000D+00 -.000000000000000D+00 0.000000000000000D+00
 0.266862833694550D+04 0.000000000000000D+00 0.000000000000000D+00 0.266862833694550D+04
 0.243434393844963D+04 0.000000000000000D+00 0.000000000000000D+00 -.243434393844963D+04
 0.518570753048014D+03 -.451257281694737D+03 0.218158357309731D+03 -.454359193830214D+02
 0.216524494934139D+04 0.432727268243959D+03 0.804634557204222D+02 -.212003736624146D+04
 0.218463822964350D+04 0.184202587655160D+02 -.288149852912683D+03 0.216547328562448D+04
 0.234518343362229D+03 0.109754685262125D+00 -.104719601174704D+02 0.234284398495870D+03
0.752820946717D-04 0.000000000000D+00 0.000000000000D+00 0.113671510946D-04 0.000000000000D+00  6 2 2 25 2 2 21 0 0.37873035D+00 0.37030818D+00 0.38993341D+06 0.38993341D+06 0.38993341D+06 0.10762265D+01  1  2  2  1  6  1        2 0.189652188529D-04 0.100000000000D+01
0.854639400781D-05 0.000000000000D+00 -.289103065770D-06 0.113671510946D-04 0.000000000000D+00  6 2 2 25 2 2 21 2 0.37873035D+00 0.37030818D+00 0.38993341D+06 0.38993341D+06 0.38993341D+06 0.10762265D+01  1  2  3  1  6  1        2 0.249377035617D-05 0.100000000000D+01
-.534195858751D-04 0.000000000000D+00 0.000000000000D+00 0.113671510946D-04 0.000000000000D+00  6 2 2 25 2 2 21 2 0.37873035D+00 0.37030818D+00 0.38993341D+06 0.38993341D+06 0.38993341D+06 0.10762265D+01  1  2 15  1  6  1        2 -.155874137762D-04 0.100000000000D+01
0.281288312205D-09 0.000000000000D+00 0.000000000000D+00 0.113671510946D-04 0.000000000000D+00  6 2 2 25 2 2 21 2 0.41521113D+00 0.37030818D+00 0.39434102D+06 0.39434102D+06 0.39434102D+06 0.10758740D+01  1  2 12  1  6  1        2 0.593966920319D-10 0.100000000000D+01
0.121421059747D+00 0.000000000000D+00 0.000000000000D+00 0.113671510946D-04 0.000000000000D+00  6 2 2 25 2 2 21 2 0.41763955D+00 0.37030818D+00 0.39434102D+06 0.39434102D+06 0.39434102D+06 0.10758740D+01  1  2 12  1  6  1        2 0.250852241905D-01 0.100000000000D+01
-.257741492200D+00 0.000000000000D+00 0.000000000000D+00 0.113671510946D-04 0.000000000000D+00  6 2 2 25 2 2 21 2 0.37873035D+00 0.37030818D+00 0.38993341D+06 0.38993341D+06 0.38993341D+06 0.10762265D+01  1  2  4  1  6  1        2 -.752069343183D-01 0.100000000000D+01
-.130353897854D+00 0.000000000000D+00 -.145033493457D-03 0.113671510946D-04 0.000000000000D+00  6 2 2 25 2 2 21 2 0.41520659D+00 0.37030818D+00 0.38993341D+06 0.38993341D+06 0.38993341D+06 0.10762265D+01  1  2  5  1  6  1        2 -.275800922811D-01 0.100000000000D+01
0.129818641869D+00 0.000000000000D+00 0.144422508153D-03 0.113671510946D-04 0.000000000000D+00  6 2 2 25 2 2 21 2 0.37873035D+00 0.37030818D+00 0.38993341D+06 0.38993341D+06 0.38993341D+06 0.10762265D+01  1  2  6  1  6  1        2 0.378800556672D-01 0.100000000000D+01
0.432875758109D-11 0.000000000000D+00 0.000000000000D+00 0.113671510946D-04 0.000000000000D+00  6 21 2 25 2 2 -2 2 0.41521113D+00 0.37030818D+00 0.39434102D+06 0.39434102D+06 0.39434102D+06 0.10758740D+01  1  2 12  4  6  1        2 0.848595293070D-13 0.100000000000D+01
0.197123250502D-02 0.000000000000D+00 0.000000000000D+00 0.113671510946D-04 0.000000000000D+00  6 21 2 25 2 2 -2 2 0.41763955D+00 0.37030818D+00 0.39434102D+06 0.39434102D+06 0.39434102D+06 0.10758740D+01  1  2 12  4  6  1        2 0.371584603166D-04 0.100000000000D+01
-.200534823139D-02 0.000000000000D+00 -.219006917927D-05 0.113671510946D-04 0.000000000000D+00  6 21 2 25 2 2 -2 2 0.41520659D+00 0.37030818D+00 0.38993341D+06 0.38993341D+06 0.38993341D+06 0.10762265D+01  1  2  5  4  6  1        2 -.394160347771D-04 0.100000000000D+01
  </mgrwgt>
  </event>
  <event>
  5     66 -.18411016E-05 0.70531069E+02 0.75467711E-02 0.94067202E-01
        2 -1    0    0  502    0 0.00000000E+00 0.00000000E+00 0.20623711E+03 0.20623736E+03 0.32000000E+00 0.0000E+00 0.9000E+01
        2 -1    0    0  501    0 0.00000000E+00 0.00000000E+00 -.37721062E+04 0.37721062E+04 0.32000000E+00 0.0000E+00 0.9000E+01
       25  1    1    2    0    0 0.43021687E+03 0.16034574E+03 -.96381238E+03 0.10748752E+04 0.12500000E+03 0.0000E+00 0.9000E+01
        2  1    1    2  501    0 -.38685908E+03 -.21599134E+03 -.27255058E+04 0.27612849E+04 0.32000000E+00 0.0000E+00 0.9000E+01
        2  1    1    2  502    0 -.43357788E+02 0.55645593E+02 0.12344918E+03 0.14218345E+03 0.32000000E+00 0.0000E+00 0.9000E+01
#aMCatNLO 1  0  0  1  4 0.69343505D+02 0.00000000D+00  -5  6  0 0.00000000D+00 0.00000000D+00 0.00000000D+00 0.00000000D+00 0.00000000D+00
  <mgrwgt>
 -.1429884852D-01    7    2    0
 0.882014056338081D+03 0.000000000000000D+00 0.000000000000000D+00 0.882014056338081D+03
 0.882014056338081D+03 0.000000000000000D+00 0.000000000000000D+00 -.882014056338081D+03
 0.475905214665547D+03 0.430275093874492D+03 0.160385512475396D+03 -.777383535578565D+00
 0.718014975001300D+03 -.386924704642536D+03 -.216021610829382D+03 -.564950830531369D+03
 0.570107923009314D+03 -.433503892319560D+02 0.556360983539857D+02 0.565728214066947D+03
 0.000000000000000D+00 -.000000000000000D+00 -.000000000000000D+00 0.000000000000000D+00
 0.381316844860334D+04 0.000000000000000D+00 0.000000000000000D+00 0.381316844860334D+04
 0.883105479430170D+03 0.000000000000000D+00 0.000000000000000D+00 -.883105479430170D+03
 0.493875753297023D+03 0.446212464216269D+03 0.170827667980291D+03 -.777383535578565D+00
 0.701193336146461D+03 -.363601450016896D+03 -.200740228364247D+03 -.564950830531369D+03
 0.570321435067771D+03 -.246085850217794D+02 0.679157172502064D+02 0.565728214066947D+03
 0.293088340352225D+04 -.580024291775937D+02 -.380031568662501D+02 0.293006296917317D+04
0.619173123975D-04 0.000000000000D+00 0.000000000000D+00 0.330383840549D-05 0.000000000000D+00  6 2 2 25 2 2 21 0 0.31728806D-01 0.58032404D+00 0.24481667D+06 0.24481667D+06 0.24481667D+06 0.10911443D+01  1  2  2  1  6  1        2 0.886229225757D-04 0.100000000000D+01
0.181140859005D-04 0.000000000000D+00 -.237778782809D-06 0.330383840549D-05 0.000000000000D+00  6 2 2 25 2 2 21 2 0.31728806D-01 0.58032404D+00 0.24481667D+06 0.24481667D+06 0.24481667D+06 0.10911443D+01  1  2  3  1  6  1        2 0.308684454108D-04 0.100000000000D+01
-.469951239070D-04 0.000000000000D+00 0.000000000000D+00 0.330383840549D-05 0.000000000000D+00  6 2 2 25 2 2 21 2 0.31728806D-01 0.58032404D+00 0.24481667D+06 0.24481667D+06 0.24481667D+06 0.10911443D+01  1  2 15  1  6  1        2 -.800849915843D-04 0.100000000000D+01
0.282089862910D-07 0.000000000000D+00 0.000000000000D+00 0.330383840549D-05 0.000000000000D+00  6 2 2 25 2 2 21 2 0.13710959D+00 0.58032404D+00 0.27603972D+06 0.27603972D+06 0.27603972D+06 0.10872366D+01  1  2 12  1  6  1        2 0.870280531131D-08 0.100000000000D+01
-.397243858085D-01 0.000000000000D+00 -.481875366734D-04 0.330383840549D-05 0.000000000000D+00  6 2 2 25 2 2 21 2 0.13719967D+00 0.58032404D+00 0.24481667D+06 0.24481667D+06 0.24481667D+06 0.10911443D+01  1  2  5  1  6  1        2 -.124879425365D-01 0.100000000000D+01
0.497199341973D-08 0.000000000000D+00 0.000000000000D+00 0.330383840549D-05 0.000000000000D+00  6 21 2 25 2 2 -2 2 0.13710959D+00 0.58032404D+00 0.27603972D+06 0.27603972D+06 0.27603972D+06 0.10872366D+01  1  2 12  4  6  1        2 0.128341251093D-08 0.100000000000D+01
-.700535239866D-02 0.000000000000D+00 -.849772473111D-05 0.330383840549D-05 0.000000000000D+00  6 21 2 25 2 2 -2 2 0.13719967D+00 0.58032404D+00 0.24481667D+06 0.24481667D+06 0.24481667D+06 0.10911443D+01  1  2  5  4  6  1        2 -.185032234272D-02 0.100000000000D+01
  </mgrwgt>
  </event>
  <event>
  6     66 0.18411016E-05 0.12545417E+03 0.75467711E-02 0.90470252E-01
        2 -1    0    0  502    0 0.00000000E+00 0.00000000E+00 0.34501670E+04 0.34501670E+04 0.32000000E+00 0.0000E+00 0.9000E+01
        2 -1    0    0  501    0 0.00000000E+00 0.00000000E+00 -.16314759E+04 0.16314760E+04 0.32000000E+00 0.0000E+00 0.9000E+01
       25  1    1    2    0    0 0.30294758E+03 -.61497007E+03 0.10527543E+04 0.12624904E+04 0.12500000E+03 0.0000E+00 0.9000E+01
        2  1    1    2  501    0 -.24636128E+02 -.33377810E+02 -.14638223E+04 0.14644101E+04 0.32000000E+00 0.0000E+00 0.9000E+01
        2  1    1    2  503    0 -.29145790E+03 0.48692464E+03 0.14248688E+04 0.15337191E+04 0.32000000E+00 0.0000E+00 0.9000E+01
       21  1    1    2  502  503 0.13146447E+02 0.16142325E+03 0.80489034E+03 0.82102334E+03 0.75000000E+00 0.0000E+00 0.9000E+01
#aMCatNLO 2  0  0  5  5 0.12989823D+03 0.00000000D+00  -5  6  0 0.00000000D+00 0.00000000D+00 0.00000000D+00 0.00000000D+00 0.00000000D+00
  <mgrwgt>
 0.1263103960D-01    1    2    0
 0.237252280995358D+04 0.000000000000000D+00 0.000000000000000D+00 0.237252280995358D+04
 0.237252280995358D+04 -.000000000000000D+00 -.000000000000000D+00 -.237252280995358D+04
 0.947358325317000D+03 0.303668635519939D+03 -.616629670538193D+03 0.639856238354248D+03
 0.213877089510430D+04 -.229093397639875D+02 -.374206543510159D+02 -.213832078943380D+04
 0.165891639948585D+04 -.280759295755951D+03 0.654050324889209D+03 0.149846455107955D+04
 0.000000000000000D+00 0.000000000000000D+00 0.000000000000000D+00 0.000000000000000D+00
 0.237252280995358D+04 0.000000000000000D+00 0.000000000000000D+00 0.237252280995358D+04
 0.237252280995358D+04 -.000000000000000D+00 -.000000000000000D+00 -.237252280995358D+04
 0.948728534105522D+03 0.302899215856928D+03 -.614837248388062D+03 0.643962774121197D+03
 0.212948094692262D+04 -.246413684828288D+02 -.333857605348542D+02 -.212907663019894D+04
 0.109594209004912D+04 -.291383170876550D+03 0.486747840065826D+03 0.937689422283526D+03
 0.570894048829892D+03 0.131253235024506D+02 0.161475168857090D+03 0.547424433794215D+03
0.717308105103D-01 0.000000000000D+00 0.000000000000D+00 0.686432590453D-04 0.268540477173D-07  6 2 2 25 2 2 21 2 0.53079492D+00 0.25099630D+00 0.53839335D+06 0.53839335D+06 0.53839335D+06 0.10662470D+01  1  2  1  3  6  5        2 0.126310395994D-01 0.100000000000D+01
  </mgrwgt>
  </event>
  <event>
  5     66 0.18411016E-05 0.59907347E+02 0.75467711E-02 0.94180489E-01
        2 -1    0    0  502    0 0.00000000E+00 0.00000000E+00 0.18435349E+04 0.18435349E+04 0.32000000E+00 0.0000E+00 0.9000E+01
        2 -1    0    0  501    0 -.00000000E+00 -.00000000E+00 -.22551589E+04 0.22551589E+04 0.32000000E+00 0.0000E+00 0.9000E+01
       25  1    1    2    0    0 -.57541791E+02 -.51118441E+03 -.16103900E+04 0.16951700E+04 0.12500000E+03 0.0000E+00 0.9000E+01
        2  1    1    2  501    0 0.36958866E+02 0.47164380E+02 -.57084004E+03 0.57397639E+03 0.32000000E+00 0.0000E+00 0.9000E+01
        2  1    1    2  502    0 0.20582925E+02 0.46402003E+03 0.17696060E+04 0.18295474E+04 0.32000000E+00 0.0000E+00 0.9000E+01
#aMCatNLO 1  0  0  5  1 0.29515915D+03 0.00000000D+00  -5  6  0 0.00000000D+00 0.00000000D+00 0.00000000D+00 0.00000000D+00 0.00000000D+00
  <mgrwgt>
 0.8228894774D-02    6    2    0
 0.203898606855084D+04 0.000000000000000D+00 0.000000000000000D+00 0.203898606855084D+04
 0.203898606855084D+04 -.000000000000000D+00 -.000000000000000D+00 -.203898606855084D+04
 0.154137063327326D+04 -.575349594120901D+02 -.511174953737773D+03 -.144761470158113D+04
 0.519129633653907D+03 0.369519665123322D+02 0.471533917266416D+02 -.515661406697443D+03
 0.201747187017451D+04 0.205829928997578D+02 0.464021562011131D+03 0.196327610827858D+04
 0.000000000000000D+00 0.000000000000000D+00 0.000000000000000D+00 0.000000000000000D+00
 0.203898606855084D+04 0.000000000000000D+00 0.000000000000000D+00 0.203898606855084D+04
 0.203898606855084D+04 -.000000000000000D+00 -.000000000000000D+00 -.203898606855084D+04
 0.150314094745552D+04 -.571411303114634D+02 -.502296497852945D+03 -.141004993790606D+04
 0.506854153913882D+03 0.370846847699579D+02 0.501453829064843D+02 -.503002286345134D+03
 0.141973773977799D+04 -.155979008484053D+02 0.336963559382475D+02 0.141925209558962D+04
 0.648239295954278D+03 0.356543463899108D+02 0.418454759008213D+03 0.493800128661571D+03
0.859627316716D-02 0.000000000000D+00 0.000000000000D+00 0.373554589498D-04 0.000000000000D+00  6 2 2 25 2 2 21 0 0.28362075D+00 0.34694753D+00 0.27760125D+06 0.27760125D+06 0.27760125D+06 0.10870540D+01  1  2  2  3  6  5        2 0.604694834537D-02 0.100000000000D+01
0.101696339651D-02 0.000000000000D+00 -.330119524126D-04 0.373554589498D-04 0.000000000000D+00  6 2 2 25 2 2 21 2 0.28362075D+00 0.34694753D+00 0.27760125D+06 0.27760125D+06 0.27760125D+06 0.10870540D+01  1  2  3  3  6  5        2 0.845344211225D-03 0.100000000000D+01
-.624273906382D-02 0.000000000000D+00 0.000000000000D+00 0.373554589498D-04 0.000000000000D+00  6 2 2 25 2 2 21 2 0.28362075D+00 0.34694753D+00 0.27760125D+06 0.27760125D+06 0.27760125D+06 0.10870540D+01  1  2 15  3  6  5        2 -.518923625758D-02 0.100000000000D+01
-.122708888778D-02 0.000000000000D+00 0.000000000000D+00 0.373554589498D-04 0.000000000000D+00  6 2 2 25 2 2 21 2 0.28362075D+00 0.34694753D+00 0.27760125D+06 0.27760125D+06 0.27760125D+06 0.10870540D+01  1  2  4  3  6  5        2 -.102000965965D-02 0.100000000000D+01
-.245820625107D-01 0.000000000000D+00 0.000000000000D+00 0.373554589498D-04 0.000000000000D+00  6 2 2 25 2 2 21 2 0.28362075D+00 0.34694753D+00 0.27760125D+06 0.27760125D+06 0.27760125D+06 0.10870540D+01  1  2  5  3  6  5        2 -.204336796337D-01 0.100000000000D+01
0.336598455569D-01 0.000000000000D+00 -.000000000000D+00 0.373554589498D-04 0.000000000000D+00  6 2 2 25 2 2 21 2 0.28362075D+00 0.34694753D+00 0.27760125D+06 0.27760125D+06 0.27760125D+06 0.10870540D+01  1  2  6  3  6  5        2 0.279795277687D-01 0.100000000000D+01
  </mgrwgt>
  </event>
  <event>
  5     66 0.18411016E-05 0.14508699E+03 0.75467711E-02 0.92444628E-01
        2 -1    0    0  502    0 0.00000000E+00 0.00000000E+00 0.14524382E+04 0.14524383E+04 0.32000000E+00 0.0000E+00 0.9000E+01
        2 -1    0    0  501    0 -.00000000E+00 -.00000000E+00 -.15210615E+04 0.15210615E+04 0.32000000E+00 0.0000E+00 0.9000E+01
       25  1    1    2    0    0 0.47370533E+03 -.77614282E+02 -.80834795E+02 0.50257336E+03 0.12500000E+03 0.0000E+00 0.9000E+01
        2  1    1    2  501    0 0.10232197E+03 0.10284822E+03 -.11576444E+04 0.11666997E+04 0.32000000E+00 0.0000E+00 0.9000E+01
        2  1    1    2  502    0 -.57602730E+03 -.25233943E+02 0.11698559E+04 0.13042267E+04 0.32000000E+00 0.0000E+00 0.9000E+01
#aMCatNLO 1  0  0  5  1 0.29515915D+03 0.00000000D+00  -5  6  0 0.00000000D+00 0.00000000D+00 0.00000000D+00 0.00000000D+00 0.00000000D+00
  <mgrwgt>
 0.1251480182D-04    1    2    0
 0.148635390728249D+04 0.000000000000000D+00 0.000000000000000D+00 0.148635390728249D+04
 0.148635390728249D+04 -.000000000000000D+00 -.000000000000000D+00 -.148635390728249D+04
 0.500819928188102D+03 0.473690343233385D+03 -.776217632310122D+02 -.691948052290229D+02
 0.114032902681988D+04 0.102328000767166D+03 0.102855313497677D+03 -.113106147231363D+04
 0.133155885955700D+04 -.576018344000552D+03 -.252335502666646D+02 0.120025627754265D+04
 0.000000000000000D+00 -.000000000000000D+00 0.000000000000000D+00 0.000000000000000D+00
 0.148635390728249D+04 0.000000000000000D+00 0.000000000000000D+00 0.148635390728249D+04
 0.148635390728249D+04 -.000000000000000D+00 -.000000000000000D+00 -.148635390728249D+04
 0.500698044280203D+03 0.473590971993712D+03 -.776261163721882D+02 -.689877441944778D+02
 0.113984025896816D+04 0.102101760944393D+03 0.102845402643275D+03 -.113059005370285D+04
 0.113384054255851D+04 -.483566439373730D+03 -.415892096174050D+02 0.102470884269835D+04
 0.198328968758112D+03 -.921262935643751D+02 0.163699233463183D+02 0.174868955198979D+03
0.378399070610D-05 0.000000000000D+00 0.000000000000D+00 0.368460524099D-05 0.000000000000D+00  6 2 2 25 2 2 21 2 0.22345204D+00 0.23400947D+00 0.37068285D+06 0.37068285D+06 0.37068285D+06 0.10778188D+01  1  2 14  3  6  5        2 0.125148018173D-04 0.100000000000D+01
  </mgrwgt>
  </event>
  <event>
  5     66 0.18411016E-05 0.17765112E+03 0.75467711E-02 0.92648974E-01
        2 -1    0    0  502    0 0.00000000E+00 0.00000000E+00 0.16788753E+04 0.16788753E+04 0.32000000E+00 0.0000E+00 0.9000E+01
        2 -1    0    0  501    0 0.00000000E+00 0.00000000E+00 -.11423522E+04 0.11423522E+04 0.32000000E+00 0.0000E+00 0.9000E+01
       25  1    1    2    0    0 0.50348684E+03 -.19307563E+03 -.19853249E+03 0.58806237E+03 0.12500000E+03 0.0000E+00 0.9000E+01
        2  1    1    2  501    0 -.31988412E+03 -.63230935E+02 -.69557185E+03 0.76820850E+03 0.32000000E+00 0.0000E+00 0.9000E+01
        2  1    1    2  502    0 -.18360272E+03 0.25630656E+03 0.14306275E+04 0.14649567E+04 0.32000000E+00 0.0000E+00 0.9000E+01
#aMCatNLO 1  0  0  5  1 0.29515915D+03 0.00000000D+00  -5  6  0 0.00000000D+00 0.00000000D+00 0.00000000D+00 0.00000000D+00 0.00000000D+00
  <mgrwgt>
 0.2004442149D-02    1    2    0
 0.138487074318273D+04 0.000000000000000D+00 0.000000000000000D+00 0.138487074318273D+04
 0.138487074318273D+04 -.000000000000000D+00 -.000000000000000D+00 -.138487074318273D+04
 0.637443077751011D+03 0.503511069174863D+03 -.193069123037569D+03 -.316084789764664D+03
 0.917260997011148D+03 -.319912268289239D+03 -.632319707136572D+02 -.857336337218706D+03
 0.121503741160329D+04 -.183598800885624D+03 0.256301093751226D+03 0.117342112698337D+04
 0.000000000000000D+00 0.000000000000000D+00 0.000000000000000D+00 0.000000000000000D+00
 0.138487074318273D+04 0.000000000000000D+00 0.000000000000000D+00 0.138487074318273D+04
 0.138487074318273D+04 -.000000000000000D+00 -.000000000000000D+00 -.138487074318273D+04
 0.631710696481072D+03 0.502195175820075D+03 -.191232156213901D+03 -.307674620112591D+03
 0.906464761973792D+03 -.321803157049867D+03 -.605923191735977D+02 -.845251242927277D+03
 0.394963999526900D+02 0.255927573510399D+02 0.300827091323219D+02 -.836161076364847D-01
 0.119206962795790D+04 -.205984776121248D+03 0.221741766255177D+03 0.115300947914750D+04
0.489944525404D-03 0.000000000000D+00 0.000000000000D+00 0.100769223292D-05 0.000000000000D+00  6 2 2 25 2 2 21 2 0.25828852D+00 0.17574649D+00 0.35696621D+06 0.35696621D+06 0.35696621D+06 0.10790094D+01  1  2 14  3  6  5        2 0.200444214852D-02 0.100000000000D+01
  </mgrwgt>
  </event>
  <event>
  5     66 0.18411016E-05 0.32297791E+03 0.75467711E-02 0.84905298E-01
        2 -1    0    0  502    0 0.00000000E+00 0.00000000E+00 0.26726415E+04 0.26726415E+04 0.32000000E+00 0.0000E+00 0.9000E+01
        2 -1    0    0  501    0 0.00000000E+00 0.00000000E+00 -.19321846E+04 0.19321846E+04 0.32000000E+00 0.0000E+00 0.9000E+01
       25  1    1    2    0    0 0.56209426E+03 0.18182637E+03 -.38969139E+03 0.71867598E+03 0.12500000E+03 0.0000E+00 0.9000E+01
        2  1    1    2  501    0 -.17873763E+03 0.26899979E+03 -.13234021E+04 0.13622413E+04 0.32000000E+00 0.0000E+00 0.9000E+01
        2  1    1    2  502    0 -.38335663E+03 -.45082617E+03 0.24535504E+04 0.25239089E+04 0.32000000E+00 0.0000E+00 0.9000E+01
#aMCatNLO 1  0  0  1  1 0.10182946D+04 0.00000000D+00  -5  6  0 0.00000000D+00 0.00000000D+00 0.00000000D+00 0.00000000D+00 0.00000000D+00
  <mgrwgt>
 0.9911320062D-03    7    2    0
 0.227245173722553D+04 0.000000000000000D+00 0.000000000000000D+00 0.227245173722553D+04
 0.227245173722553D+04 0.000000000000000D+00 0.000000000000000D+00 -.227245173722553D+04
 0.791622448998969D+03 0.562100526678437D+03 0.181817397602535D+03 -.511885273861234D+03
 0.159583610259333D+04 -.178745244228373D+03 0.269007185608063D+03 -.156281097324572D+04
 0.215744492285876D+04 -.383355282450064D+03 -.450824583210598D+03 0.207469624710695D+04
 0.000000000000000D+00 -.000000000000000D+00 0.000000000000000D+00 0.000000000000000D+00
 0.400889098885688D+04 0.000000000000000D+00 0.000000000000000D+00 0.400889098885688D+04
 0.248308606877144D+04 0.000000000000000D+00 0.000000000000000D+00 -.248308606877144D+04
 0.894011625343855D+03 0.717865452753082D+03 0.792113905797867D+02 -.511885273861234D+03
 0.156880096705192D+04 0.113690383829604D+03 0.763729844282699D+02 -.156281097324572D+04
 0.219476956769780D+04 0.188211914960025D+02 -.715747651259431D+03 0.207469624710695D+04
 0.183439489753475D+04 -.850377028078688D+03 0.560163276251374D+03 0.152580492008544D+04
0.231228782765D-02 0.000000000000D+00 0.000000000000D+00 0.109274393357D-05 0.000000000000D+00  6 2 2 25 2 2 21 0 0.41117562D+00 0.29725917D+00 0.57654580D+06 0.57654580D+06 0.57654580D+06 0.10641655D+01  1  2  2  1  6  1        2 0.775627007137D-03 0.100000000000D+01
0.189296796860D-03 0.000000000000D+00 -.887979409756D-05 0.109274393357D-05 0.000000000000D+00  6 2 2 25 2 2 21 2 0.41117562D+00 0.29725917D+00 0.57654580D+06 0.57654580D+06 0.57654580D+06 0.10641655D+01  1  2  3  1  6  1        2 0.719072401758D-04 0.100000000000D+01
-.158157370429D-02 0.000000000000D+00 0.000000000000D+00 0.109274393357D-05 0.000000000000D+00  6 2 2 25 2 2 21 2 0.41117562D+00 0.29725917D+00 0.57654580D+06 0.57654580D+06 0.57654580D+06 0.10641655D+01  1  2 15  1  6  1        2 -.600784599087D-03 0.100000000000D+01
-.216761883513D-03 0.000000000000D+00 0.000000000000D+00 0.109274393357D-05 0.000000000000D+00  6 2 2 25 2 2 21 2 0.41117562D+00 0.29725917D+00 0.57654580D+06 0.57654580D+06 0.57654580D+06 0.10641655D+01  1  2  4  1  6  1        2 -.823402671217D-04 0.100000000000D+01
-.188397278823D-02 0.000000000000D+00 -.986186553407D-03 0.109274393357D-05 0.000000000000D+00  6 2 2 25 2 2 21 2 0.73260758D+00 0.29725917D+00 0.57654580D+06 0.57654580D+06 0.57654580D+06 0.10641655D+01  1  2  5  1  6  1        2 -.156761679171D-04 0.100000000000D+01
0.221763902247D-02 0.000000000000D+00 0.841819429445D-03 0.109274393357D-05 0.000000000000D+00  6 2 2 25 2 2 21 2 0.41117562D+00 0.29725917D+00 0.57654580D+06 0.57654580D+06 0.57654580D+06 0.10641655D+01  1  2  6  1  6  1        2 0.842403592966D-03 0.100000000000D+01
-.680264663287D-04 0.000000000000D+00 -.626210769039D-04 0.109274393357D-05 0.000000000000D+00  6 21 2 25 2 2 -2 2 0.73260758D+00 0.29725917D+00 0.57654580D+06 0.57654580D+06 0.57654580D+06 0.10641655D+01  1  2  5  4  6  1        2 -.479995384428D-08 0.100000000000D+01
  </mgrwgt>
  </event>
  <event>
  5     66 -.18411016E-05 0.15513297E+03 0.75467711E-02 0.94077150E-01
        2 -1    0    0  502    0 0.00000000E+00 0.00000000E+00 0.19043095E+04 0.19043095E+04 0.32000000E+00 0.0000E+00 0.9000E+01
        2 -1    0    0  501    0 0.00000000E+00 0.00000000E+00 -.10486151E+04 0.10486151E+04 0.32000000E+00 0.0000E+00 0.9000E+01
       25  1    1    2    0    0 -.33688794E+03 -.37775271E+03 -.21421213E+03 0.56365098E+03 0.12500000E+03 0.0000E+00 0.9000E+01
        2  1    1    2  501    0 0.23013201E+03 0.14921660E+03 -.62141200E+03 0.67924908E+03 0.32000000E+00 0.0000E+00 0.9000E+01
        2  1    1    2  502    0 0.10675592E+03 0.22853611E+03 0.16913185E+04 0.17100246E+04 0.32000000E+00 0.0000E+00 0.9000E+01
#aMCatNLO 1  0  0  5  1 0.21817937D+02 0.00000000D+00  -5  6  0 0.00000000D+00 0.00000000D+00 0.00000000D+00 0.00000000D+00 0.00000000D+00
  <mgrwgt>
 -.1646887597D-01    8    2    0
 0.141311279345985D+04 0.000000000000000D+00 0.000000000000000D+00 0.141311279345985D+04
 0.141311279345985D+04 -.000000000000000D+00 -.000000000000000D+00 -.141311279345985D+04
 0.653763494495283D+03 -.336903235299879D+03 -.377762189488539D+03 -.394428250727535D+03
 0.897874868014484D+03 0.230148816959823D+03 0.149229306116049D+03 -.854951118403937D+03
 0.127458722440994D+04 0.106754418340056D+03 0.228532883372490D+03 0.124937936913147D+04
 0.000000000000000D+00 0.000000000000000D+00 0.000000000000000D+00 0.000000000000000D+00
 0.141311279345985D+04 0.000000000000000D+00 0.000000000000000D+00 0.141311279345985D+04
 0.141311279345985D+04 -.000000000000000D+00 -.000000000000000D+00 -.141311279345985D+04
 0.653581738663331D+03 -.336882609612967D+03 -.377718035365695D+03 -.394186862051515D+03
 0.897576556895963D+03 0.230177143386552D+03 0.149289945479522D+03 -.854619605631851D+03
 0.985446323728419D+03 0.794877784456646D+02 0.197945081689525D+03 0.962083101744623D+03
 0.289620967631989D+03 0.272176877807503D+02 0.304830081966474D+02 0.286723365938743D+03
0.212553276773D-04 0.000000000000D+00 0.000000000000D+00 0.475163140075D-05 0.000000000000D+00  6 2 2 25 2 2 21 0 0.29297070D+00 0.16132540D+00 0.27452826D+06 0.27452826D+06 0.27452826D+06 0.10874144D+01  1  2  2  3  6  5        2 0.651862805681D-04 0.100000000000D+01
0.218220951749D-05 0.000000000000D+00 -.816260549371D-07 0.475163140075D-05 0.000000000000D+00  6 2 2 25 2 2 21 2 0.29297070D+00 0.16132540D+00 0.27452826D+06 0.27452826D+06 0.27452826D+06 0.10874144D+01  1  2  3  3  6  5        2 0.791361593267D-05 0.100000000000D+01
-.146689714085D-04 0.000000000000D+00 0.000000000000D+00 0.475163140075D-05 0.000000000000D+00  6 2 2 25 2 2 21 2 0.29297070D+00 0.16132540D+00 0.27452826D+06 0.27452826D+06 0.27452826D+06 0.10874144D+01  1  2 15  3  6  5        2 -.531959030165D-04 0.100000000000D+01
0.277400744217D-09 0.000000000000D+00 0.000000000000D+00 0.475163140075D-05 0.000000000000D+00  6 2 2 25 2 2 21 2 0.29297070D+00 0.16132540D+00 0.27555004D+06 0.27555004D+06 0.27555004D+06 0.10872940D+01  1  2 12  3  6  5        2 0.100549280488D-08 0.100000000000D+01
0.403176970005D-02 0.000000000000D+00 0.000000000000D+00 0.475163140075D-05 0.000000000000D+00  6 2 2 25 2 2 21 2 0.29297070D+00 0.16132540D+00 0.27555004D+06 0.27555004D+06 0.27555004D+06 0.10872940D+01  1  2 12  3  6  5        2 0.146139313208D-01 0.100000000000D+01
-.969255528548D-02 0.000000000000D+00 0.000000000000D+00 0.475163140075D-05 0.000000000000D+00  6 2 2 25 2 2 21 2 0.29297070D+00 0.16132540D+00 0.27452826D+06 0.27452826D+06 0.27452826D+06 0.10874144D+01  1  2  4  3  6  5        2 -.351493105133D-01 0.100000000000D+01
-.442436857300D-02 0.000000000000D+00 0.000000000000D+00 0.475163140075D-05 0.000000000000D+00  6 2 2 25 2 2 21 2 0.29297070D+00 0.16132540D+00 0.27452826D+06 0.27452826D+06 0.27452826D+06 0.10874144D+01  1  2  5  3  6  5        2 -.160446342804D-01 0.100000000000D+01
0.554023333597D-02 0.000000000000D+00 -.000000000000D+00 0.475163140075D-05 0.000000000000D+00  6 2 2 25 2 2 21 2 0.29297070D+00 0.16132540D+00 0.27452826D+06 0.27452826D+06 0.27452826D+06 0.10874144D+01  1  2  6  3  6  5        2 0.200912325085D-01 0.100000000000D+01
  </mgrwgt>
  </event>
  <event>
  5     66 0.18411016E-05 0.31879734E+02 0.75467711E-02 0.93937727E-01
        2 -1    0    0  502    0 0.00000000E+00 0.00000000E+00 0.70001834E+03 0.70001841E+03 0.32000000E+00 0.0000E+00 0.9000E+01
        2 -1    0    0  501    0 -.00000000E+00 -.00000000E+00 -.18041812E+04 0.18041813E+04 0.32000000E+00 0.0000E+00 0.9000E+01
       25  1    1    2    0    0 0.10559461E+03 0.44669867E+03 -.18302523E+02 0.47607763E+03 0.12500000E+03 0.0000E+00 0.9000E+01
        2  1    1    2  501    0 -.10662419E+03 -.41483080E+03 -.15269484E+04 0.15858830E+04 0.32000000E+00 0.0000E+00 0.9000E+01
        2  1    1    2  502    0 0.10295814E+01 -.31867874E+02 0.44108804E+03 0.44223906E+03 0.32000000E+00 0.0000E+00 0.9000E+01
#aMCatNLO 1  0  0  5  1 0.46069678D+02 0.00000000D+00  -5  6  0 0.00000000D+00 0.00000000D+00 0.00000000D+00 0.00000000D+00 0.00000000D+00
  <mgrwgt>
 0.4547714667D-02    4    2    0
 0.112381496826920D+04 0.000000000000000D+00 0.000000000000000D+00 0.112381496826920D+04
 0.112381496826920D+04 -.000000000000000D+00 -.000000000000000D+00 -.112381496826920D+04
 0.521518354876757D+03 0.105608620170137D+03 0.446748946389888D+03 0.213585094795129D+03
 0.101680914081351D+04 -.106638047654337D+03 -.414885837052954D+03 -.922170753086026D+03
 0.709302440848124D+03 0.102942748420021D+01 -.318631093369336D+02 0.708585658290897D+03
 0.000000000000000D+00 -.000000000000000D+00 0.000000000000000D+00 0.000000000000000D+00
 0.112381496826920D+04 0.000000000000000D+00 0.000000000000000D+00 0.112381496826920D+04
 0.112381496826920D+04 -.000000000000000D+00 -.000000000000000D+00 -.112381496826920D+04
 0.550816331929627D+03 0.105708649831832D+03 0.443652802080114D+03 0.282438496097121D+03
 0.908716537265947D+03 -.106458430521241D+03 -.420445393639961D+03 -.798534920112143D+03
 0.645669923124300D+03 0.592293371298002D+02 -.623852090745911D+02 0.639913760548423D+03
 0.142427144218517D+03 -.584795564403915D+02 0.391778006344388D+02 -.123817336533401D+03
0.100662836443D-02 0.000000000000D+00 0.000000000000D+00 0.417655651071D-04 0.000000000000D+00  6 2 2 25 2 2 21 0 0.10769514D+00 0.27756635D+00 0.21903663D+06 0.21903663D+06 0.21903663D+06 0.10948055D+01  1  2  2  3  6  5        2 0.606699999466D-02 0.100000000000D+01
0.546851088167D-03 0.000000000000D+00 -.386571797073D-05 0.417655651071D-04 0.000000000000D+00  6 2 2 25 2 2 21 2 0.10769514D+00 0.27756635D+00 0.21903663D+06 0.21903663D+06 0.21903663D+06 0.10948055D+01  1  2  3  3  6  5        2 0.395046177780D-02 0.100000000000D+01
-.660528646358D-03 0.000000000000D+00 0.000000000000D+00 0.417655651071D-04 0.000000000000D+00  6 2 2 25 2 2 21 2 0.10769514D+00 0.27756635D+00 0.21903663D+06 0.21903663D+06 0.21903663D+06 0.10948055D+01  1  2 15  3  6  5        2 -.477167043651D-02 0.100000000000D+01
-.966327502332D-04 0.000000000000D+00 0.000000000000D+00 0.417655651071D-04 0.000000000000D+00  6 2 2 25 2 2 21 2 0.10769514D+00 0.27756635D+00 0.21903663D+06 0.21903663D+06 0.21903663D+06 0.10948055D+01  1  2  4  3  6  5        2 -.698076669389D-03 0.100000000000D+01
  </mgrwgt>
  </event>
  <event>
  5     66 -.18411016E-05 0.32303349E+02 0.75467711E-02 0.93204775E-01
        2 -1    0    0  502    0 0.00000000E+00 0.00000000E+00 0.41425381E+03 0.41425393E+03 0.32000000E+00 0.0000E+00 0.9000E+01
        2 -1    0    0  501    0 0.00000000E+00 0.00000000E+00 -.28407491E+04 0.28407491E+04 0.32000000E+00 0.0000E+00 0.9000E+01
       25  1    1    2    0    0 0.53566588E+03 0.95413609E+02 -.37198403E+03 0.67084932E+03 0.12500000E+03 0.0000E+00 0.9000E+01
        2  1    1    2  501    0 -.50346110E+03 -.92809274E+02 -.22899655E+04 0.23464928E+04 0.32000000E+00 0.0000E+00 0.9000E+01
        2  1    1    2  502    0 -.32204780E+02 -.26043352E+01 0.23545420E+03 0.23766092E+03 0.32000000E+00 0.0000E+00 0.9000E+01
#aMCatNLO 1  0  0  2  4 0.60279130D+02 0.00000000D+00  -5  6  0 0.00000000D+00 0.00000000D+00 0.00000000D+00 0.00000000D+00 0.00000000D+00
  <mgrwgt>
 -.7581294140D-02    7    2    0
 0.108480015350652D+04 0.000000000000000D+00 0.000000000000000D+00 0.108480015350652D+04
 0.108480015350652D+04 0.000000000000000D+00 0.000000000000000D+00 -.108480015350652D+04
 0.590528494252356D+03 0.535730371603942D+03 0.954259948527041D+02 0.192316798463962D+03
 0.959306903420977D+03 -.503532133064409D+03 -.928221886280851D+02 -.811239278647825D+03
 0.619764909339701D+03 -.321982385395332D+02 -.260380622461896D+01 0.618922480183863D+03
 0.000000000000000D+00 -.000000000000000D+00 -.000000000000000D+00 -.000000000000000D+00
 0.108865921168958D+04 0.000000000000000D+00 0.000000000000000D+00 0.108865921168958D+04
 0.134925226642439D+04 0.000000000000000D+00 0.000000000000000D+00 -.134925226642439D+04
 0.605707479929077D+03 0.552338835450987D+03 0.958781055468436D+02 0.192316798463962D+03
 0.945622197481471D+03 -.477084219119025D+03 -.921022313314615D+02 -.811239278647825D+03
 0.619107851215777D+03 -.149978082742131D+02 -.213558119559948D+01 0.618922480183863D+03
 0.267473949487642D+03 -.602568080577494D+02 -.164029301978257D+01 -.260593054734807D+03
0.848396125655D-04 0.000000000000D+00 0.000000000000D+00 0.133202887511D-04 0.000000000000D+00  6 2 2 25 2 2 21 0 0.63731366D-01 0.43703834D+00 0.30396184D+06 0.30396184D+06 0.30396184D+06 0.10841306D+01  1  2  2  2  6  2        2 0.236102642663D-03 0.100000000000D+01
0.480376666819D-04 0.000000000000D+00 -.325806451035D-06 0.133202887511D-04 0.000000000000D+00  6 2 2 25 2 2 21 2 0.63731366D-01 0.43703834D+00 0.30396184D+06 0.30396184D+06 0.30396184D+06 0.10841306D+01  1  2  3  2  6  2        2 0.157125711151D-03 0.100000000000D+01
-.593580573654D-04 0.000000000000D+00 0.000000000000D+00 0.133202887511D-04 0.000000000000D+00  6 2 2 25 2 2 21 2 0.63731366D-01 0.43703834D+00 0.30396184D+06 0.30396184D+06 0.30396184D+06 0.10841306D+01  1  2 15  2  6  2        2 -.194153413775D-03 0.100000000000D+01
-.365724347275D-02 0.000000000000D+00 0.000000000000D+00 0.133202887511D-04 0.000000000000D+00  6 2 2 25 2 2 21 2 0.63731366D-01 0.43703834D+00 0.30396184D+06 0.30396184D+06 0.30396184D+06 0.10841306D+01  1  2  4  2  6  2        2 -.119624249303D-01 0.100000000000D+01
-.200942037974D-02 0.000000000000D+00 -.619713064406D-04 0.133202887511D-04 0.000000000000D+00  6 2 2 25 2 2 21 2 0.63731366D-01 0.54397580D+00 0.30396184D+06 0.30396184D+06 0.30396184D+06 0.10841306D+01  1  2  5  2  6  2        2 -.228182452756D-02 0.100000000000D+01
0.197689434469D-02 0.000000000000D+00 0.605158482021D-04 0.133202887511D-04 0.000000000000D+00  6 2 2 25 2 2 21 2 0.63731366D-01 0.43703834D+00 0.30396184D+06 0.30396184D+06 0.30396184D+06 0.10841306D+01  1  2  6  2  6  2        2 0.646619520129D-02 0.100000000000D+01
-.607553136156D-04 0.000000000000D+00 -.189938886022D-05 0.133202887511D-04 0.000000000000D+00  6 2 21 25 2 2 -2 2 0.63731366D-01 0.54397580D+00 0.30396184D+06 0.30396184D+06 0.30396184D+06 0.10841306D+01  1  2  5  5  6  2        2 -.231482327631D-05 0.100000000000D+01
  </mgrwgt>
  </event>
  <event>
  5     66 0.18411016E-05 0.19490900E+03 0.75467711E-02 0.93457104E-01
        2 -1    0    0  502    0 0.00000000E+00 0.00000000E+00 0.25742459E+04 0.25742459E+04 0.32000000E+00 0.0000E+00 0.9000E+01
        2 -1    0    0  501    0 0.00000000E+00 0.00000000E+00 -.51852817E+03 0.51852827E+03 0.32000000E+00 0.0000E+00 0.9000E+01
       25  1    1    2    0    0 0.40536143E+03 0.22289556E+03 0.61780918E+03 0.78186540E+03 0.12500000E+03 0.0000E+00 0.9000E+01
        2  1    1    2  501    0 0.29525078E+02 -.19263729E+03 -.38772481E+03 0.43394872E+03 0.32000000E+00 0.0000E+00 0.9000E+01
        2  1    1    2  502    0 -.43488651E+03 -.30258271E+02 0.18256334E+04 0.18769601E+04 0.32000000E+00 0.0000E+00 0.9000E+01
#aMCatNLO 1  0  0  2  4 0.60279130D+02 0.00000000D+00  -5  6  0 0.00000000D+00 0.00000000D+00 0.00000000D+00 0.00000000D+00 0.00000000D+00
  <mgrwgt>
 0.2557394937D-02    1    2    0
 0.115534376252474D+04 0.000000000000000D+00 0.000000000000000D+00 0.115534376252474D+04
 0.115534376252474D+04 0.000000000000000D+00 0.000000000000000D+00 -.115534376252474D+04
 0.496871999138847D+03 0.405331220215720D+03 0.222915872271019D+03 0.131422598271078D+03
 0.925816523148971D+03 0.295259429154440D+02 -.192659642652762D+03 -.905067243536917D+03
 0.887999002761660D+03 -.434857163131164D+03 -.302562296182573D+02 0.773644645265839D+03
 0.000000000000000D+00 -.000000000000000D+00 -.000000000000000D+00 0.000000000000000D+00
 0.222883712789679D+04 0.000000000000000D+00 0.000000000000000D+00 0.222883712789679D+04
 0.161706150491902D+04 0.000000000000000D+00 0.000000000000000D+00 -.161706150491902D+04
 0.776577549835698D+03 0.655229568368922D+03 0.375299885834742D+03 0.131422598271078D+03
 0.992645329196263D+03 0.405999787742720D+03 0.369080831866113D+02 -.905067243536917D+03
 0.799220234740315D+03 -.103761753215967D+03 0.171640452805881D+03 0.773644645265839D+03
 0.127745551904354D+04 -.957467602895676D+03 -.583848421827234D+03 0.611775622977776D+03
0.698181920553D-03 0.000000000000D+00 0.000000000000D+00 0.101204861009D-05 0.000000000000D+00  6 2 2 25 2 2 21 2 0.39603784D+00 0.79773574D-01 0.30802152D+06 0.30802152D+06 0.30802152D+06 0.10837050D+01  1  2 14  2  6  2        2 0.255739493690D-02 0.100000000000D+01
  </mgrwgt>
  </event>
  <event>
  6     66 -.18411016E-05 0.12769804E+03 0.75467711E-02 0.91655822E-01
        2 -1    0    0  503    0 0.00000000E+00 0.00000000E+00 0.16909381E+04 0.16909381E+04 0.32000000E+00 0.0000E+00 0.9000E+01
        2 -1    0    0  501    0 0.00000000E+00 0.00000000E+00 -.25482328E+04 0.25482329E+04 0.32000000E+00 0.0000E+00 0.9000E+01
       25  1    1    2    0    0 -.33877244E+03 0.33738085E+03 -.13594012E+03 0.51254007E+03 0.12500000E+03 0.0000E+00 0.9000E+01
        2  1    1    2  501    0 -.10836109E+03 -.13157088E+03 -.21507306E+04 0.21574743E+04 0.32000000E+00 0.0000E+00 0.9000E+01
        2  1    1    2  502    0 0.48374930E+03 -.28309769E+03 0.12030557E+04 0.13272155E+04 0.32000000E+00 0.0000E+00 0.9000E+01
       21  1    1    2  503  502 -.36615774E+02 0.77287714E+02 0.22632028E+03 0.24194119E+03 0.75000000E+00 0.0000E+00 0.9000E+01
#aMCatNLO 2  0  0  1  5 0.85522544D+02 0.00000000D+00  -5  6  0 0.00000000D+00 0.00000000D+00 0.00000000D+00 0.00000000D+00 0.00000000D+00
  <mgrwgt>
 -.4950240702D-02    3    2    0
 0.192329863754886D+04 0.000000000000000D+00 0.000000000000000D+00 0.192329863754886D+04
 0.192329863754886D+04 0.000000000000000D+00 0.000000000000000D+00 -.192329863754886D+04
 0.504311760375258D+03 -.343509928886223D+03 0.347413538423053D+03 0.318020907297773D+01
 0.163450590648195D+04 -.123930607648515D+03 -.987286375554451D+02 -.162680773877514D+04
 0.170777960824052D+04 0.467440536534737D+03 -.248684900867608D+03 0.162362752970216D+04
 0.000000000000000D+00 -.000000000000000D+00 0.000000000000000D+00 0.000000000000000D+00
 0.223295266478758D+04 0.000000000000000D+00 0.000000000000000D+00 0.223295266478758D+04
 0.192968808130748D+04 0.000000000000000D+00 0.000000000000000D+00 -.192968808130748D+04
 0.494186115546860D+03 -.338758163535382D+03 0.337383623947105D+03 0.318020907297773D+01
 0.163571384883334D+04 -.108367913628166D+03 -.131578005845863D+03 -.162680773877514D+04
 0.171764791736958D+04 0.483741850959648D+03 -.283093331725507D+03 0.162362752970216D+04
 0.315092864345282D+03 -.366157737960997D+02 0.772877136242651D+02 0.303264583480103D+03
-.969357807213D-10 0.000000000000D+00 0.000000000000D+00 0.148544382515D-04 0.000000000000D+00  6 2 2 25 2 2 21 2 0.26055089D+00 0.39073766D+00 0.42944877D+06 0.42944877D+06 0.42944877D+06 0.10732106D+01  1  2 13  1  6  1        2 -.625149191159D-10 0.100000000000D+01
-.139135545611D-01 0.000000000000D+00 0.000000000000D+00 0.148544382515D-04 0.000000000000D+00  6 2 2 25 2 2 21 2 0.27723162D+00 0.39073766D+00 0.42944877D+06 0.42944877D+06 0.42944877D+06 0.10732106D+01  1  2 13  1  6  1        2 -.782603058837D-02 0.100000000000D+01
0.449525978241D-02 0.000000000000D+00 0.000000000000D+00 0.148544382515D-04 0.307081251165D-08  6 2 2 25 2 2 21 2 0.26014427D+00 0.39203574D+00 0.42944877D+06 0.42944877D+06 0.42944877D+06 0.10732106D+01  1  2  1  1  6  1        2 0.287578994889D-02 0.100000000000D+01
  </mgrwgt>
  </event>
  <event>
  5     66 0.18411016E-05 0.22246040E+03 0.75467711E-02 0.90418073E-01
        2 -1    0    0  502    0 0.00000000E+00 0.00000000E+00 0.21986475E+04 0.21986476E+04 0.32000000E+00 0.0000E+00 0.9000E+01
        2 -1    0    0  501    0 0.00000000E+00 0.00000000E+00 -.13771540E+04 0.13771540E+04 0.32000000E+00 0.0000E+00 0.9000E+01
       25  1    1    2    0    0 0.20250560E+03 -.47844187E+03 0.20677230E+03 0.57297026E+03 0.12500000E+03 0.0000E+00 0.9000E+01
        2  1    1    2  501    0 -.40976230E+03 0.55929784E+03 -.10855456E+04 0.12880717E+04 0.32000000E+00 0.0000E+00 0.9000E+01
        2  1    1    2  502    0 0.20725670E+03 -.80855968E+02 0.17002669E+04 0.17147596E+04 0.32000000E+00 0.0000E+00 0.9000E+01
#aMCatNLO 1  0  0  1  4 0.23533937D+02 0.00000000D+00  -5  6  0 0.00000000D+00 0.00000000D+00 0.00000000D+00 0.00000000D+00 0.00000000D+00
  <mgrwgt>
 0.2537742844D-02    9    2    0
 0.174007939771871D+04 0.000000000000000D+00 0.000000000000000D+00 0.174007939771871D+04
 0.174007939771871D+04 0.000000000000000D+00 0.000000000000000D+00 -.174007939771871D+04
 0.539968268200072D+03 0.202542543288217D+03 -.478488494618270D+03 0.772399465255331D+02
 0.157971484084241D+04 -.409790033342012D+03 0.559340870468151D+03 -.141940441649843D+04
 0.136047568639494D+04 0.207247490053795D+03 -.808523758498807D+02 0.134216446997289D+04
 0.000000000000000D+00 -.000000000000000D+00 0.000000000000000D+00 0.000000000000000D+00
 0.177706354096507D+04 0.000000000000000D+00 0.000000000000000D+00 0.177706354096507D+04
 0.174386702333563D+04 0.000000000000000D+00 0.000000000000000D+00 -.174386702333563D+04
 0.543267861561229D+03 0.205069360007815D+03 -.481139810919891D+03 0.772399465255331D+02
 0.157510103608144D+04 -.402430934724409D+03 0.551619179385944D+03 -.141940441649843D+04
 0.136186946885463D+04 0.213597783462413D+03 -.875155565640837D+02 0.134216446997289D+04
 0.406921978034010D+02 -.162362087458199D+02 0.170361880980316D+02 0.331965176294406D+02
0.305511257385D-03 0.000000000000D+00 0.000000000000D+00 0.881443058836D-06 0.000000000000D+00  6 2 2 25 2 2 21 0 0.33825347D+00 0.21186985D+00 0.52581786D+06 0.52581786D+06 0.52581786D+06 0.10669685D+01  1  2  2  1  6  1        2 0.394898929757D-03 0.100000000000D+01
0.435503430197D-04 0.000000000000D+00 -.117324367132D-05 0.881443058836D-06 0.000000000000D+00  6 2 2 25 2 2 21 2 0.33825347D+00 0.21186985D+00 0.52581786D+06 0.52581786D+06 0.52581786D+06 0.10669685D+01  1  2  3  1  6  1        2 0.640845754788D-04 0.100000000000D+01
-.226512171591D-03 0.000000000000D+00 0.000000000000D+00 0.881443058836D-06 0.000000000000D+00  6 2 2 25 2 2 21 2 0.33825347D+00 0.21186985D+00 0.52581786D+06 0.52581786D+06 0.52581786D+06 0.10669685D+01  1  2 15  1  6  1        2 -.333313938551D-03 0.100000000000D+01
0.148412227749D-09 0.000000000000D+00 0.000000000000D+00 0.881443058836D-06 0.000000000000D+00  6 2 2 25 2 2 21 2 0.34586605D+00 0.21186985D+00 0.54385283D+06 0.54385283D+06 0.54385283D+06 0.10659395D+01  1  2 12  1  6  1        2 0.203836829763D-09 0.100000000000D+01
-.323659154510D-04 0.000000000000D+00 0.000000000000D+00 0.881443058836D-06 0.000000000000D+00  6 2 2 25 2 2 21 2 0.33825347D+00 0.21186985D+00 0.52581786D+06 0.52581786D+06 0.52581786D+06 0.10669685D+01  1  2  4  1  6  1        2 -.476266272051D-04 0.100000000000D+01
-.268466491451D-01 0.000000000000D+00 -.254573289544D-02 0.881443058836D-06 0.000000000000D+00  6 2 2 25 2 2 21 2 0.34570287D+00 0.21186985D+00 0.52581786D+06 0.52581786D+06 0.52581786D+06 0.10669685D+01  1  2  5  1  6  1        2 -.370967634379D-01 0.100000000000D+01
0.268963275387D-01 0.000000000000D+00 0.254512897943D-02 0.881443058836D-06 0.000000000000D+00  6 2 2 25 2 2 21 2 0.33825347D+00 0.21186985D+00 0.52581786D+06 0.52581786D+06 0.52581786D+06 0.10669685D+01  1  2  6  1  6  1        2 0.395780977311D-01 0.100000000000D+01
0.736117574930D-11 0.000000000000D+00 0.000000000000D+00 0.881443058836D-06 0.000000000000D+00  6 21 2 25 2 2 -2 2 0.34586605D+00 0.21186985D+00 0.54385283D+06 0.54385283D+06 0.54385283D+06 0.10659395D+01  1  2 12  4  6  1        2 0.149303251705D-11 0.100000000000D+01
-.105718061056D-03 0.000000000000D+00 -.100665105291D-04 0.881443058836D-06 0.000000000000D+00  6 21 2 25 2 2 -2 2 0.34570287D+00 0.21186985D+00 0.52581786D+06 0.52581786D+06 0.52581786D+06 0.10669685D+01  1  2  5  4  6  1        2 -.216345943910D-04 0.100000000000D+01
  </mgrwgt>
  </event>
  <event>
  5     66 0.18411016E-05 0.62423469E+02 0.75467711E-02 0.94211287E-01
        2 -1    0    0  502    0 0.00000000E+00 0.00000000E+00 0.28165686E+04 0.28165686E+04 0.32000000E+00 0.0000E+00 0.9000E+01
        2 -1    0    0  501    0 0.00000000E+00 0.00000000E+00 -.91211420E+03 0.91211425E+03 0.32000000E+00 0.0000E+00 0.9000E+01
       25  1    1    2    0    0 0.31242551E+03 0.37246317E+03 0.19138858E+03 0.53720862E+03 0.12500000E+03 0.0000E+00 0.9000E+01
        2  1    1    2  501    0 -.14901072E+02 -.60614303E+02 -.71890275E+03 0.72160751E+03 0.32000000E+00 0.0000E+00 0.9000E+01
        2  1    1    2  502    0 -.29752444E+03 -.31184887E+03 0.24319685E+04 0.24698667E+04 0.32000000E+00 0.0000E+00 0.9000E+01
#aMCatNLO 1  0  0  1  4 0.31635191D+02 0.00000000D+00  -5  6  0 0.00000000D+00 0.00000000D+00 0.00000000D+00 0.00000000D+00 0.00000000D+00
  <mgrwgt>
 0.2960581978D-01    9    2    0
 0.160282011479788D+04 0.000000000000000D+00 0.000000000000000D+00 0.160282011479788D+04
 0.160282011479788D+04 0.000000000000000D+00 0.000000000000000D+00 -.160282011479788D+04
 0.511144261208179D+03 0.312421800429500D+03 0.372462372258611D+03 -.964772285771799D+02
 0.126648115732705D+04 -.149022139747101D+02 -.606185905133696D+02 -.126494182963775D+04
 0.142801481106053D+04 -.297519586454790D+03 -.311843781745241D+03 0.136141905821493D+04
 0.000000000000000D+00 -.000000000000000D+00 0.000000000000000D+00 0.000000000000000D+00
 0.165436363327472D+04 0.000000000000000D+00 0.000000000000000D+00 0.165436363327472D+04
 0.160775960211995D+04 0.000000000000000D+00 0.000000000000000D+00 -.160775960211995D+04
 0.509992063758348D+03 0.315369624633220D+03 0.368376233382758D+03 -.964772285771799D+02
 0.126694193468884D+04 -.758870869014229D+01 -.707562365182845D+02 -.126494182963775D+04
 0.142886232491798D+04 -.289272331546130D+03 -.323275748705422D+03 0.136141905821493D+04
 0.563269120294916D+02 -.185085843969471D+02 0.256557518409489D+02 0.466040311547705D+02
0.385255721825D-02 0.000000000000D+00 0.000000000000D+00 0.121904812799D-03 0.000000000000D+00  6 2 2 25 2 2 21 0 0.43331825D+00 0.14032527D+00 0.24769745D+06 0.24769745D+06 0.24769745D+06 0.10907615D+01  1  2  2  1  6  1        2 0.437662174890D-02 0.100000000000D+01
0.154467756350D-02 0.000000000000D+00 -.147948341197D-04 0.121904812799D-03 0.000000000000D+00  6 2 2 25 2 2 21 2 0.43331825D+00 0.14032527D+00 0.24769745D+06 0.24769745D+06 0.24769745D+06 0.10907615D+01  1  2  3  1  6  1        2 0.208779278182D-02 0.100000000000D+01
-.262070358711D-02 0.000000000000D+00 0.000000000000D+00 0.121904812799D-03 0.000000000000D+00  6 2 2 25 2 2 21 2 0.43331825D+00 0.14032527D+00 0.24769745D+06 0.24769745D+06 0.24769745D+06 0.10907615D+01  1  2 15  1  6  1        2 -.354215414384D-02 0.100000000000D+01
0.277047204972D-10 0.000000000000D+00 0.000000000000D+00 0.121904812799D-03 0.000000000000D+00  6 2 2 25 2 2 21 2 0.44808840D+00 0.14032527D+00 0.26904160D+06 0.26904160D+06 0.26904160D+06 0.10880689D+01  1  2 12  1  6  1        2 0.322985118122D-10 0.100000000000D+01
-.232632460201D-02 0.000000000000D+00 0.000000000000D+00 0.121904812799D-03 0.000000000000D+00  6 2 2 25 2 2 21 2 0.43331825D+00 0.14032527D+00 0.24769745D+06 0.24769745D+06 0.24769745D+06 0.10907615D+01  1  2  4  1  6  1        2 -.314427025227D-02 0.100000000000D+01
-.175196087107D+00 0.000000000000D+00 -.185146012700D-01 0.121904812799D-03 0.000000000000D+00  6 2 2 25 2 2 21 2 0.44764495D+00 0.14032527D+00 0.24769745D+06 0.24769745D+06 0.24769745D+06 0.10907615D+01  1  2  5  1  6  1        2 -.207579445123D+00 0.100000000000D+01
0.175715152334D+00 0.000000000000D+00 0.185048107320D-01 0.121904812799D-03 0.000000000000D+00  6 2 2 25 2 2 21 2 0.43331825D+00 0.14032527D+00 0.24769745D+06 0.24769745D+06 0.24769745D+06 0.10907615D+01  1  2  6  1  6  1        2 0.237497349200D+00 0.100000000000D+01
0.782676655560D-12 0.000000000000D+00 0.000000000000D+00 0.121904812799D-03 0.000000000000D+00  6 21 2 25 2 2 -2 2 0.44808840D+00 0.14032527D+00 0.26904160D+06 0.26904160D+06 0.26904160D+06 0.10880689D+01  1  2 12  4  6  1        2 0.680501123613D-13 0.100000000000D+01
-.101120349267D-02 0.000000000000D+00 -.107608429567D-03 0.121904812799D-03 0.000000000000D+00  6 21 2 25 2 2 -2 2 0.44764495D+00 0.14032527D+00 0.24769745D+06 0.24769745D+06 0.24769745D+06 0.10907615D+01  1  2  5  4  6  1        2 -.900744611570D-04 0.100000000000D+01
  </mgrwgt>
  </event>
  <event>
  5     66 0.18411016E-05 0.18039005E+02 0.75467711E-02 0.90581418E-01
        2 -1    0    0  502    0 0.00000000E+00 0.00000000E+00 0.61590367E+03 0.61590376E+03 0.32000000E+00 0.0000E+00 0.9000E+01
        2 -1    0    0  501    0 -.00000000E+00 -.00000000E+00 -.12181545E+04 0.12181546E+04 0.32000000E+00 0.0000E+00 0.9000E+01
       25  1    1    2    0    0 -.54766524E+03 0.44815498E+03 -.11191941E+03 0.72727646E+03 0.12500000E+03 0.0000E+00 0.9000E+01
        2  1    1    2  501    0 0.56042066E+03 -.43537105E+03 -.64024197E+03 0.95578719E+03 0.32000000E+00 0.0000E+00 0.9000E+01
        2  1    1    2  502    0 -.12755427E+02 -.12783931E+02 0.14991051E+03 0.15099468E+03 0.32000000E+00 0.0000E+00 0.9000E+01
#aMCatNLO 1  0  0  5  5 0.49348113D+01 0.00000000D+00  -5  6  0 0.00000000D+00 0.00000000D+00 0.00000000D+00 0.00000000D+00 0.00000000D+00
  <mgrwgt>
 0.8093191862D-03    5    2    0
 0.866178945378901D+03 0.000000000000000D+00 0.000000000000000D+00 0.866178945378901D+03
 0.866178945378901D+03 -.000000000000000D+00 -.000000000000000D+00 -.866178945378901D+03
 0.731218689853028D+03 -.547776179976032D+03 0.448225890705549D+03 0.134501226546306D+03
 0.789399759217182D+03 0.560517438855123D+03 -.435456159416079D+03 -.345470858131386D+03
 0.211739441687593D+03 -.127412588790912D+02 -.127697312894697D+02 0.210969631585080D+03
 0.000000000000000D+00 0.000000000000000D+00 0.000000000000000D+00 -.000000000000000D+00
 0.866178945378901D+03 0.000000000000000D+00 0.000000000000000D+00 0.866178945378901D+03
 0.866178945378901D+03 -.000000000000000D+00 -.000000000000000D+00 -.866178945378901D+03
 0.736040662879832D+03 -.549180245288811D+03 0.446818687781004D+03 0.157749725346085D+03
 0.778610948001068D+03 0.559016961492366D+03 -.436959989838974D+03 -.320625969613956D+03
 0.273106456474138D+02 -.131833622130717D+01 0.558682716365515D+01 -.267005752284410D+02
 0.190395634229489D+03 -.851837998224806D+01 -.154455251056855D+02 0.189576819496311D+03
0.102315728350D-03 0.000000000000D+00 0.000000000000D+00 0.376009178118D-06 0.000000000000D+00  6 2 2 25 2 2 21 0 0.94754421D-01 0.18740840D+00 0.52314199D+06 0.52314199D+06 0.52314199D+06 0.10671244D+01  1  2  2  3  6  5        2 0.145820253636D-02 0.100000000000D+01
0.652319534563D-04 0.000000000000D+00 -.392919337216D-06 0.376009178118D-06 0.000000000000D+00  6 2 2 25 2 2 21 2 0.94754421D-01 0.18740840D+00 0.52314199D+06 0.52314199D+06 0.52314199D+06 0.10671244D+01  1  2  3  3  6  5        2 0.105868305606D-02 0.100000000000D+01
-.816162359867D-04 0.000000000000D+00 0.000000000000D+00 0.376009178118D-06 0.000000000000D+00  6 2 2 25 2 2 21 2 0.94754421D-01 0.18740840D+00 0.52314199D+06 0.52314199D+06 0.52314199D+06 0.10671244D+01  1  2 15  3  6  5        2 -.132459203750D-02 0.100000000000D+01
-.238221218837D-04 0.000000000000D+00 0.000000000000D+00 0.376009178118D-06 0.000000000000D+00  6 2 2 25 2 2 21 2 0.94754421D-01 0.18740840D+00 0.52314199D+06 0.52314199D+06 0.52314199D+06 0.10671244D+01  1  2  4  3  6  5        2 -.386621516932D-03 0.100000000000D+01
0.224882544868D-06 0.000000000000D+00 0.000000000000D+00 0.376009178118D-06 0.120452539264D-09  6 2 2 25 2 2 21 2 0.94754421D-01 0.18740840D+00 0.52696508D+06 0.52696508D+06 0.52696508D+06 0.10669019D+01  1  2 11  3  6  5        2 0.364714818408D-05 0.100000000000D+01
  </mgrwgt>
  </event>
  <event>
  5     66 0.18411016E-05 0.17228196E+02 0.75467711E-02 0.91482170E-01
        2 -1    0    0  502    0 0.00000000E+00 0.00000000E+00 0.71982244E+03 0.71982251E+03 0.32000000E+00 0.0000E+00 0.9000E+01
        2 -1    0    0  501    0 -.00000000E+00 -.00000000E+00 -.21005000E+04 0.21005000E+04 0.32000000E+00 0.0000E+00 0.9000E+01
       25  1    1    2    0    0 0.34943722E+03 0.54184881E+03 0.41586552E+03 0.77735168E+03 0.12500000E+03 0.0000E+00 0.9000E+01
        2  1    1    2  501    0 -.33573981E+03 -.53133337E+03 -.18672460E+04 0.19701889E+04 0.32000000E+00 0.0000E+00 0.9000E+01
        2  1    1    2  502    0 -.13697410E+02 -.10515440E+02 0.70702993E+02 0.72781929E+02 0.32000000E+00 0.0000E+00 0.9000E+01
#aMCatNLO 1  0  0  5  1 0.35329140D+02 0.00000000D+00  -5  6  0 0.00000000D+00 0.00000000D+00 0.00000000D+00 0.00000000D+00 0.00000000D+00
  <mgrwgt>
 0.3226024215D-03    6    2    0
 0.122962886091672D+04 0.000000000000000D+00 0.000000000000000D+00 0.122962886091672D+04
 0.122962886091672D+04 -.000000000000000D+00 -.000000000000000D+00 -.122962886091672D+04
 0.112520652797057D+04 0.349451778385951D+03 0.541895585390826D+03 0.913617731715199D+03
 0.121117572967344D+04 -.335786164484380D+03 -.531404554495227D+03 -.103527943056577D+04
 0.122875464189424D+03 -.136656139015708D+02 -.104910308955992D+02 0.121661698850571D+03
 0.000000000000000D+00 0.000000000000000D+00 -.000000000000000D+00 0.000000000000000D+00
 0.122962886091672D+04 0.000000000000000D+00 0.000000000000000D+00 0.122962886091672D+04
 0.122962886091672D+04 -.000000000000000D+00 -.000000000000000D+00 -.122962886091672D+04
 0.112839420516329D+04 0.348965595546458D+03 0.541522344991473D+03 0.917946101492853D+03
 0.120752892414350D+04 -.336307966185630D+03 -.531805139336026D+03 -.103063395456342D+04
 0.801438169991755D+02 -.180123351372543D+02 0.138066215947976D+02 0.768632837331235D+02
 0.431907755274749D+02 0.535470577642544D+01 -.235238272502446D+02 0.358245693374434D+02
0.283142733030D-04 0.000000000000D+00 0.000000000000D+00 0.189958792499D-05 0.000000000000D+00  6 2 2 25 2 2 21 0 0.11074192D+00 0.32315385D+00 0.42421578D+06 0.42421578D+06 0.42421578D+06 0.10735922D+01  1  2  2  3  6  5        2 0.109056949146D-03 0.100000000000D+01
0.112223615418D-04 0.000000000000D+00 -.108734264803D-06 0.189958792499D-05 0.000000000000D+00  6 2 2 25 2 2 21 2 0.11074192D+00 0.32315385D+00 0.42421578D+06 0.42421578D+06 0.42421578D+06 0.10735922D+01  1  2  3  3  6  5        2 0.498208242256D-04 0.100000000000D+01
-.199519023414D-04 0.000000000000D+00 0.000000000000D+00 0.189958792499D-05 0.000000000000D+00  6 2 2 25 2 2 21 2 0.11074192D+00 0.32315385D+00 0.42421578D+06 0.42421578D+06 0.42421578D+06 0.10735922D+01  1  2 15  3  6  5        2 -.885749595406D-04 0.100000000000D+01
-.266420726761D-05 0.000000000000D+00 0.000000000000D+00 0.189958792499D-05 0.000000000000D+00  6 2 2 25 2 2 21 2 0.11074192D+00 0.32315385D+00 0.42421578D+06 0.42421578D+06 0.42421578D+06 0.10735922D+01  1  2  4  3  6  5        2 -.118275464113D-04 0.100000000000D+01
-.493850931473D-04 0.000000000000D+00 0.000000000000D+00 0.189958792499D-05 0.000000000000D+00  6 2 2 25 2 2 21 2 0.11074192D+00 0.32315385D+00 0.42421578D+06 0.42421578D+06 0.42421578D+06 0.10735922D+01  1  2  5  3  6  5        2 -.219241381227D-03 0.100000000000D+01
0.108880905625D-03 0.000000000000D+00 -.000000000000D+00 0.189958792499D-05 0.000000000000D+00  6 2 2 25 2 2 21 2 0.11074192D+00 0.32315385D+00 0.42421578D+06 0.42421578D+06 0.42421578D+06 0.10735922D+01  1  2  6  3  6  5        2 0.483368535265D-03 0.100000000000D+01
  </mgrwgt>
  </event>
  <event>
  5     66 0.18411016E-05 0.29544018E+03 0.75467711E-02 0.85502985E-01
        2 -1    0    0  502    0 0.00000000E+00 0.00000000E+00 0.60177185E+03 0.60177194E+03 0.32000000E+00 0.0000E+00 0.9000E+01
        2 -1    0    0  501    0 0.00000000E+00 0.00000000E+00 -.20148635E+04 0.20148635E+04 0.32000000E+00 0.0000E+00 0.9000E+01
       25  1    1    2    0    0 0.19875835E+03 -.60592226E+03 0.30221903E+02 0.65052673E+03 0.12500000E+03 0.0000E+00 0.9000E+01
        2  1    1    2  501    0 -.19407004E+03 0.31041731E+03 -.15932079E+04 0.16347274E+04 0.32000000E+00 0.0000E+00 0.9000E+01
        2  1    1    2  502    0 -.46883082E+01 0.29550495E+03 0.14989438E+03 0.33138133E+03 0.32000000E+00 0.0000E+00 0.9000E+01
#aMCatNLO 1  0  0  1  4 0.10963046D+04 0.00000000D+00  -5  6  0 0.00000000D+00 0.00000000D+00 0.00000000D+00 0.00000000D+00 0.00000000D+00
  <mgrwgt>
 0.6194020043D-04    3    2    0
 0.110113046306403D+04 0.000000000000000D+00 0.000000000000000D+00 0.110113046306403D+04
 0.110113046306403D+04 0.000000000000000D+00 0.000000000000000D+00 -.110113046306403D+04
 0.792404899868759D+03 0.198784028947775D+03 -.605871985221308D+03 0.453524610903641D+03
 0.920111058013735D+03 -.194097338072941D+03 0.310468976393426D+03 -.844120605795979D+03
 0.489744968245573D+03 -.468669087483391D+01 0.295403008827882D+03 0.390595994892338D+03
 0.000000000000000D+00 -.000000000000000D+00 0.000000000000000D+00 -.000000000000000D+00
 0.170565029667488D+04 0.000000000000000D+00 0.000000000000000D+00 0.170565029667488D+04
 0.186176159909459D+04 0.000000000000000D+00 0.000000000000000D+00 -.186176159909459D+04
 0.120218722365274D+04 0.322439156169286D+03 -.105828991235267D+04 0.453524610903641D+03
 0.853254793597445D+03 -.841571766708658D+02 -.917699040123551D+02 -.844120605795979D+03
 0.404606134590565D+03 0.507587799548861D+02 0.925442552505293D+02 0.390595994892338D+03
 0.110736374392872D+04 -.289040759453306D+03 0.105751556111450D+04 -.156111302419713D+03
0.608482506515D-04 0.000000000000D+00 0.000000000000D+00 0.635531093005D-07 0.000000000000D+00  6 2 2 25 2 2 21 0 0.92580294D-01 0.30997901D+00 0.42992547D+06 0.42992547D+06 0.42992547D+06 0.10731761D+01  1  2  2  1  6  1        2 0.324474992968D-03 0.100000000000D+01
0.369210417892D-05 0.000000000000D+00 -.233673304214D-06 0.635531093005D-07 0.000000000000D+00  6 2 2 25 2 2 21 2 0.92580294D-01 0.30997901D+00 0.42992547D+06 0.42992547D+06 0.42992547D+06 0.10731761D+01  1  2  3  1  6  1        2 0.226750925894D-04 0.100000000000D+01
-.464397049141D-04 0.000000000000D+00 0.000000000000D+00 0.635531093005D-07 0.000000000000D+00  6 2 2 25 2 2 21 2 0.92580294D-01 0.30997901D+00 0.42992547D+06 0.42992547D+06 0.42992547D+06 0.10731761D+01  1  2 15  1  6  1        2 -.285209885129D-03 0.100000000000D+01
  </mgrwgt>
  </event>
  <event>
  5     66 0.18411016E-05 0.30688002E+02 0.75467711E-02 0.91975120E-01
        2 -1    0    0  502    0 0.00000000E+00 0.00000000E+00 0.11413206E+04 0.11413206E+04 0.32000000E+00 0.0000E+00 0.9000E+01
        2 -1    0    0  501    0 -.00000000E+00 -.00000000E+00 -.26027155E+04 0.26027155E+04 0.32000000E+00 0.0000E+00 0.9000E+01
       25  1    1    2    0    0 0.24243765E+03 0.54829115E+03 -.59428064E+03 0.85334265E+03 0.12500000E+03 0.0000E+00 0.9000E+01
        2  1    1    2  501    0 0.67881089E+01 0.29926300E+02 -.17808015E+04 0.17810659E+04 0.32000000E+00 0.0000E+00 0.9000E+01
        2  1    1    2  502    0 -.24922576E+03 -.57821745E+03 0.91368724E+03 0.11096276E+04 0.32000000E+00 0.0000E+00 0.9000E+01
#aMCatNLO 1  0  0  5  1 0.25939693D+02 0.00000000D+00  -5  6  0 0.00000000D+00 0.00000000D+00 0.00000000D+00 0.00000000D+00 0.00000000D+00
  <mgrwgt>
 0.5571365853D-02    8    2    0
 0.172352338844428D+04 0.000000000000000D+00 0.000000000000000D+00 0.172352338844428D+04
 0.172352338844428D+04 -.000000000000000D+00 -.000000000000000D+00 -.172352338844428D+04
 0.674887454818753D+03 0.242435277478152D+03 0.548284914490385D+03 -.283649194337120D+03
 0.117957920240368D+04 0.678841945518350D+01 0.299277603229901D+02 -.117917994439638D+04
 0.159258011966612D+04 -.249223696933336D+03 -.578212674813376D+03 0.146282913873350D+04
 0.000000000000000D+00 -.000000000000000D+00 0.000000000000000D+00 0.000000000000000D+00
 0.172352338844428D+04 0.000000000000000D+00 0.000000000000000D+00 0.172352338844428D+04
 0.172352338844428D+04 -.000000000000000D+00 -.000000000000000D+00 -.172352338844428D+04
 0.674562139944819D+03 0.242366208796276D+03 0.548124671352253D+03 -.283243792757472D+03
 0.117886315376601D+04 0.666770764389847D+01 0.296477022862001D+02 -.117847142126191D+04
 0.142590656558950D+04 -.208484563318266D+03 -.498654298233258D+03 0.131950278950169D+04
 0.167714917588229D+03 -.405493531219091D+02 -.791180754051960D+02 0.142212424517687D+03
0.569011106054D-04 0.000000000000D+00 0.000000000000D+00 0.642871671868D-04 0.000000000000D+00  6 2 2 25 2 2 21 0 0.17558779D+00 0.40041777D+00 0.40494791D+06 0.40494791D+06 0.40494791D+06 0.10750429D+01  1  2  2  3  6  5        2 0.601704535306D-04 0.100000000000D+01
0.407453723792D-04 0.000000000000D+00 -.218515247131D-06 0.642871671868D-04 0.000000000000D+00  6 2 2 25 2 2 21 2 0.17558779D+00 0.40041777D+00 0.40494791D+06 0.40494791D+06 0.40494791D+06 0.10750429D+01  1  2  3  3  6  5        2 0.497957702756D-04 0.100000000000D+01
-.417594529771D-04 0.000000000000D+00 0.000000000000D+00 0.642871671868D-04 0.000000000000D+00  6 2 2 25 2 2 21 2 0.17558779D+00 0.40041777D+00 0.40494791D+06 0.40494791D+06 0.40494791D+06 0.10750429D+01  1  2 15  3  6  5        2 -.510350993465D-04 0.100000000000D+01
0.180854850442D-10 0.000000000000D+00 0.000000000000D+00 0.642871671868D-04 0.000000000000D+00  6 2 2 25 2 2 21 2 0.17558779D+00 0.40041777D+00 0.40448972D+06 0.40448972D+06 0.40448972D+06 0.10750783D+01  1  2 12  3  6  5        2 0.221062283218D-10 0.100000000000D+01
0.846766444426D-02 0.000000000000D+00 0.000000000000D+00 0.642871671868D-04 0.000000000000D+00  6 2 2 25 2 2 21 2 0.17558779D+00 0.40041777D+00 0.40448972D+06 0.40448972D+06 0.40448972D+06 0.10750783D+01  1  2 12  3  6  5        2 0.103501854166D-01 0.100000000000D+01
-.496887216145D-02 0.000000000000D+00 0.000000000000D+00 0.642871671868D-04 0.000000000000D+00  6 2 2 25 2 2 21 2 0.17558779D+00 0.40041777D+00 0.40494791D+06 0.40494791D+06 0.40494791D+06 0.10750429D+01  1  2  4  3  6  5        2 -.607256240973D-02 0.100000000000D+01
-.911725085099D-02 0.000000000000D+00 0.000000000000D+00 0.642871671868D-04 0.000000000000D+00  6 2 2 25 2 2 21 2 0.17558779D+00 0.40041777D+00 0.40494791D+06 0.40494791D+06 0.40494791D+06 0.10750429D+01  1  2  5  3  6  5        2 -.111423826170D-01 0.100000000000D+01
0.101276351112D-01 0.000000000000D+00 -.000000000000D+00 0.642871671868D-04 0.000000000000D+00  6 2 2 25 2 2 21 2 0.17558779D+00 0.40041777D+00 0.40494791D+06 0.40494791D+06 0.40494791D+06 0.10750429D+01  1  2  6  3  6  5        2 0.123771943165D-01 0.100000000000D+01
  </mgrwgt>
  </event>
  <event>
  5     66 0.18411016E-05 0.67193744E+02 0.75467711E-02 0.93414976E-01
        2 -1    0    0  502    0 0.00000000E+00 0.00000000E+00 0.27414759E+04 0.27414759E+04 0.32000000E+00 0.0000E+00 0.9000E+01
        2 -1    0    0  501    0 0.00000000E+00 0.00000000E+00 -.19623010E+04 0.19623010E+04 0.32000000E+00 0.0000E+00 0.9000E+01
       25  1    1    2    0    0 0.34086921E+03 0.35452091E+03 -.70964738E+02 0.51238451E+03 0.12500000E+03 0.0000E+00 0.9000E+01
        2  1    1    2  501    0 -.37783770E+03 -.29841009E+03 -.16354738E+04 0.17048708E+04 0.32000000E+00 0.0000E+00 0.9000E+01
        2  1    1    2  502    0 0.36968486E+02 -.56110814E+02 0.24856135E+04 0.24865216E+04 0.32000000E+00 0.0000E+00 0.9000E+01
#aMCatNLO 1  0  0  5  2 0.42513652D+02 0.00000000D+00  -5  6  0 0.00000000D+00 0.00000000D+00 0.00000000D+00 0.00000000D+00 0.00000000D+00
  <mgrwgt>
 0.6948298792D-02    7    2    0
 0.231939667656352D+04 0.000000000000000D+00 0.000000000000000D+00 0.231939667656352D+04
 0.231939667656352D+04 -.000000000000000D+00 -.000000000000000D+00 -.231939667656352D+04
 0.531498513731410D+03 0.340888615874441D+03 0.354536062580590D+03 -.158002537940874D+03
 0.200346876411647D+04 -.377856720436152D+03 -.298425827140283D+03 -.194475021874462D+04
 0.210382607527916D+04 0.369681045617090D+02 -.561102354403045D+02 0.210275275668550D+04
 0.000000000000000D+00 0.000000000000000D+00 0.000000000000000D+00 0.000000000000000D+00
 0.231939667656352D+04 0.000000000000000D+00 0.000000000000000D+00 0.231939667656352D+04
 0.231939667656352D+04 -.000000000000000D+00 -.000000000000000D+00 -.231939667656352D+04
 0.531403105359689D+03 0.340894141992853D+03 0.354527675031138D+03 -.157688211283827D+03
 0.200231967284407D+04 -.377835893991975D+03 -.298457437543359D+03 -.194356560667365D+04
 0.169524018085002D+04 0.677918515833440D+02 -.642004300031560D+02 0.169266707902491D+04
 0.409830394073263D+03 -.308500995842237D+02 0.813019251537937D+01 0.408586738932570D+03
0.743999416283D-03 0.000000000000D+00 0.000000000000D+00 0.374113717534D-03 0.000000000000D+00  6 2 2 25 2 2 21 0 0.42176553D+00 0.30189246D+00 0.27886580D+06 0.27886580D+06 0.27886580D+06 0.10869069D+01  1  2  2  3  6  5        2 0.235579218259D-03 0.100000000000D+01
0.323872873922D-03 0.000000000000D+00 -.285715365807D-05 0.374113717534D-03 0.000000000000D+00  6 2 2 25 2 2 21 2 0.42176553D+00 0.30189246D+00 0.27886580D+06 0.27886580D+06 0.27886580D+06 0.10869069D+01  1  2  3  3  6  5        2 0.121150070073D-03 0.100000000000D+01
-.508263260000D-03 0.000000000000D+00 0.000000000000D+00 0.374113717534D-03 0.000000000000D+00  6 2 2 25 2 2 21 2 0.42176553D+00 0.30189246D+00 0.27886580D+06 0.27886580D+06 0.27886580D+06 0.10869069D+01  1  2 15  3  6  5        2 -.190124380653D-03 0.100000000000D+01
0.866441795113D-11 0.000000000000D+00 0.000000000000D+00 0.374113717534D-03 0.000000000000D+00  6 2 2 25 2 2 21 2 0.42176553D+00 0.30189246D+00 0.31037872D+06 0.31037872D+06 0.31037872D+06 0.10834608D+01  1  2 12  3  6  5        2 0.318360152120D-11 0.100000000000D+01
-.462496836481D-02 0.000000000000D+00 0.000000000000D+00 0.374113717534D-03 0.000000000000D+00  6 2 2 25 2 2 21 2 0.42176553D+00 0.30189246D+00 0.27886580D+06 0.27886580D+06 0.27886580D+06 0.10869069D+01  1  2  4  3  6  5        2 -.173004683813D-02 0.100000000000D+01
-.106659083057D+00 0.000000000000D+00 0.000000000000D+00 0.374113717534D-03 0.000000000000D+00  6 2 2 25 2 2 21 2 0.42176553D+00 0.30189246D+00 0.27886580D+06 0.27886580D+06 0.27886580D+06 0.10869069D+01  1  2  5  3  6  5        2 -.398976154743D-01 0.100000000000D+01
0.129413687551D+00 0.000000000000D+00 -.000000000000D+00 0.374113717534D-03 0.000000000000D+00  6 2 2 25 2 2 21 2 0.42176553D+00 0.30189246D+00 0.27886580D+06 0.27886580D+06 0.27886580D+06 0.10869069D+01  1  2  6  3  6  5        2 0.484093561941D-01 0.100000000000D+01
  </mgrwgt>
  </event>
  <event>
  5     66 0.18411016E-05 0.12711606E+03 0.75467711E-02 0.93704884E-01
        2 -1    0    0  502    0 0.00000000E+00 0.00000000E+00 0.59311494E+03 0.59311502E+03 0.32000000E+00 0.0000E+00 0.9000E+01
        2 -1    0    0  501    0 -.00000000E+00 -.00000000E+00 -.20444194E+04 0.20444194E+04 0.32000000E+00 0.0000E+00 0.9000E+01
       25  1    1    2    0    0 0.51342834E+03 -.13118461E+03 -.29399024E+02 0.54525899E+03 0.12500000E+03 0.0000E+00 0.9000E+01
        2  1    1    2  501    0 -.12617582E+03 -.15283707E+02 -.16258041E+04 0.16307646E+04 0.32000000E+00 0.0000E+00 0.9000E+01
        2  1    1    2  502    0 -.38725252E+03 0.14646831E+03 0.20389871E+03 0.46151086E+03 0.32000000E+00 0.0000E+00 0.9000E+01
#aMCatNLO 1  0  0  5  1 0.21348955D+01 0.00000000D+00  -5  6  0 0.00000000D+00 0.00000000D+00 0.00000000D+00 0.00000000D+00 0.00000000D+00
  <mgrwgt>
 0.6978771449D-03    9    2    0
 0.110117020717301D+04 0.000000000000000D+00 0.000000000000000D+00 0.110117020717301D+04
 0.110117020717301D+04 -.000000000000000D+00 -.000000000000000D+00 -.110117020717301D+04
 0.633670372214354D+03 0.513385195198802D+03 -.131159899120835D+03 0.324262028050739D+03
 0.881704827006606D+03 -.126193701620815D+03 -.152853313752143D+02 -.872493501570491D+03
 0.686965215125069D+03 -.387191493577987D+03 0.146445230496049D+03 0.548231473519753D+03
 0.000000000000000D+00 0.000000000000000D+00 0.000000000000000D+00 0.000000000000000D+00
 0.110117020717301D+04 0.000000000000000D+00 0.000000000000000D+00 0.110117020717301D+04
 0.110117020717301D+04 -.000000000000000D+00 -.000000000000000D+00 -.110117020717301D+04
 0.633666033117786D+03 0.513358712137551D+03 -.131149882583609D+03 0.324299525898532D+03
 0.881658231322903D+03 -.126230549968014D+03 -.152713944349962D+02 -.872441327325920D+03
 0.672685231456804D+03 -.377895688992564D+03 0.142159246290714D+03 0.538043694838055D+03
 0.143309184485347D+02 -.923247317697285D+01 0.426203072789093D+01 0.100981065893337D+02
0.952325906575D-05 0.000000000000D+00 0.000000000000D+00 0.184268705006D-05 0.000000000000D+00  6 2 2 25 2 2 21 0 0.91248460D-01 0.31452607D+00 0.29457537D+06 0.29457537D+06 0.29457537D+06 0.10851387D+01  1  2  2  3  6  5        2 0.508560865426D-04 0.100000000000D+01
0.191237366984D-05 0.000000000000D+00 -.365718223442D-07 0.184268705006D-05 0.000000000000D+00  6 2 2 25 2 2 21 2 0.91248460D-01 0.31452607D+00 0.29457537D+06 0.29457537D+06 0.29457537D+06 0.10851387D+01  1  2  3  3  6  5        2 0.120254288088D-04 0.100000000000D+01
-.711278133510D-05 0.000000000000D+00 0.000000000000D+00 0.184268705006D-05 0.000000000000D+00  6 2 2 25 2 2 21 2 0.91248460D-01 0.31452607D+00 0.29457537D+06 0.29457537D+06 0.29457537D+06 0.10851387D+01  1  2 15  3  6  5        2 -.447267429616D-04 0.100000000000D+01
0.235453229929D-12 0.000000000000D+00 0.000000000000D+00 0.184268705006D-05 0.000000000000D+00  6 2 2 25 2 2 21 2 0.91248460D-01 0.31452607D+00 0.29455692D+06 0.29455692D+06 0.29455692D+06 0.10851407D+01  1  2 12  3  6  5        2 0.148059299627D-11 0.100000000000D+01
0.436099644810D-06 0.000000000000D+00 0.000000000000D+00 0.184268705006D-05 0.000000000000D+00  6 2 2 25 2 2 21 2 0.91248460D-01 0.31452607D+00 0.29455692D+06 0.29455692D+06 0.29455692D+06 0.10851407D+01  1  2 12  3  6  5        2 0.274231141351D-05 0.100000000000D+01
-.745083577910D-02 0.000000000000D+00 0.000000000000D+00 0.184268705006D-05 0.000000000000D+00  6 2 2 25 2 2 21 2 0.91248460D-01 0.31452607D+00 0.29457537D+06 0.29457537D+06 0.29457537D+06 0.10851387D+01  1  2  4  3  6  5        2 -.468525041107D-01 0.100000000000D+01
-.107984561324D-01 0.000000000000D+00 0.000000000000D+00 0.184268705006D-05 0.000000000000D+00  6 2 2 25 2 2 21 2 0.91248460D-01 0.31452607D+00 0.29457537D+06 0.29457537D+06 0.29457537D+06 0.10851387D+01  1  2  5  3  6  5        2 -.679030816585D-01 0.100000000000D+01
0.110260740469D-01 0.000000000000D+00 -.000000000000D+00 0.184268705006D-05 0.000000000000D+00  6 2 2 25 2 2 21 2 0.91248460D-01 0.31452607D+00 0.29457537D+06 0.29457537D+06 0.29457537D+06 0.10851387D+01  1  2  6  3  6  5        2 0.693343934725D-01 0.100000000000D+01
0.733082190882D-02 0.000000000000D+00 0.000000000000D+00 0.184268705006D-05 0.165118753267D-05  6 2 2 25 2 2 21 2 0.91248460D-01 0.31452607D+00 0.29455692D+06 0.29455692D+06 0.29455692D+06 0.10851407D+01  1  2 11  3  6  5        2 0.460981723563D-01 0.100000000000D+01
  </mgrwgt>
  </event>
  <event>
  5     66 0.18411016E-05 0.74056677E+02 0.75467711E-02 0.91888991E-01
        2 -1    0    0  502    0 0.00000000E+00 0.00000000E+00 0.14374078E+04 0.14374078E+04 0.32000000E+00 0.0000E+00 0.9000E+01
        2 -1    0    0  501    0 0.00000000E+00 0.00000000E+00 -.11990853E+04 0.11990854E+04 0.32000000E+00 0.0000E+00 0.9000E+01
       25  1    1    2    0    0 -.57049609E+02 0.53450575E+03 0.66017446E+02 0.55581863E+03 0.12500000E+03 0.0000E+00 0.9000E+01
        2  1    1    2  501    0 0.12815983E+03 -.55520853E+03 -.86768247E+03 0.10380532E+04 0.32000000E+00 0.0000E+00 0.9000E+01
        2  1    1    2  502    0 -.71110221E+02 0.20702788E+02 0.10399875E+04 0.10426213E+04 0.32000000E+00 0.0000E+00 0.9000E+01
#aMCatNLO 1  0  0  5  2 0.67525550D+02 0.00000000D+00  -5  6  0 0.00000000D+00 0.00000000D+00 0.00000000D+00 0.00000000D+00 0.00000000D+00
  <mgrwgt>
 0.4080304724D-02    7    2    0
 0.131284982570621D+04 0.000000000000000D+00 0.000000000000000D+00 0.131284982570621D+04
 0.131284982570621D+04 -.000000000000000D+00 -.000000000000000D+00 -.131284982570621D+04
 0.552173346066911D+03 -.570662400351386D+02 0.534566303909704D+03 0.158970147920631D+02
 0.112109005580833D+04 0.128170772615531D+03 -.555267435626915D+03 -.965449761101930D+03
 0.952436249537186D+03 -.711045325803920D+02 0.207011317172112D+02 0.949552746309867D+03
 0.000000000000000D+00 -.000000000000000D+00 0.000000000000000D+00 0.000000000000000D+00
 0.131284982570621D+04 0.000000000000000D+00 0.000000000000000D+00 0.131284982570621D+04
 0.131284982570621D+04 -.000000000000000D+00 -.000000000000000D+00 -.131284982570621D+04
 0.552308148127074D+03 -.572353659132140D+02 0.534615542642479D+03 0.181555760422478D+02
 0.111706220174735D+04 0.127828051195738D+03 -.555167656878698D+03 -.960872949278915D+03
 0.322887753926781D+03 0.389504645439950D+02 0.320326036496529D+02 0.318925187545783D+03
 0.633441547611221D+03 -.109543149826518D+03 -.114804894134342D+02 0.623792185690885D+03
0.202111926682D-03 0.000000000000D+00 0.000000000000D+00 0.916384633454D-05 0.000000000000D+00  6 2 2 25 2 2 21 0 0.22113966D+00 0.18447467D+00 0.35752582D+06 0.35752582D+06 0.35752582D+06 0.10789599D+01  1  2  2  3  6  5        2 0.893144503347D-03 0.100000000000D+01
0.743517808677D-04 0.000000000000D+00 -.776163015753D-06 0.916384633454D-05 0.000000000000D+00  6 2 2 25 2 2 21 2 0.22113966D+00 0.18447467D+00 0.35752582D+06 0.35752582D+06 0.35752582D+06 0.10789599D+01  1  2  3  3  6  5        2 0.382500280966D-03 0.100000000000D+01
-.159481798192D-03 0.000000000000D+00 0.000000000000D+00 0.916384633454D-05 0.000000000000D+00  6 2 2 25 2 2 21 2 0.22113966D+00 0.18447467D+00 0.35752582D+06 0.35752582D+06 0.35752582D+06 0.10789599D+01  1  2 15  3  6  5        2 -.820448843396D-03 0.100000000000D+01
0.421466333143D-10 0.000000000000D+00 0.000000000000D+00 0.916384633454D-05 0.000000000000D+00  6 2 2 25 2 2 21 2 0.22113966D+00 0.18447467D+00 0.41105862D+06 0.41105862D+06 0.41105862D+06 0.10745749D+01  1  2 12  3  6  5        2 0.213233556079D-09 0.100000000000D+01
-.553286145049D-04 0.000000000000D+00 0.000000000000D+00 0.916384633454D-05 0.000000000000D+00  6 2 2 25 2 2 21 2 0.22113966D+00 0.18447467D+00 0.35752582D+06 0.35752582D+06 0.35752582D+06 0.10789599D+01  1  2  4  3  6  5        2 -.284636229914D-03 0.100000000000D+01
-.952036426144D-03 0.000000000000D+00 0.000000000000D+00 0.916384633454D-05 0.000000000000D+00  6 2 2 25 2 2 21 2 0.22113966D+00 0.18447467D+00 0.35752582D+06 0.35752582D+06 0.35752582D+06 0.10789599D+01  1  2  5  3  6  5        2 -.489771995021D-02 0.100000000000D+01
0.171202668774D-02 0.000000000000D+00 -.000000000000D+00 0.916384633454D-05 0.000000000000D+00  6 2 2 25 2 2 21 2 0.22113966D+00 0.18447467D+00 0.35752582D+06 0.35752582D+06 0.35752582D+06 0.10789599D+01  1  2  6  3  6  5        2 0.880746474987D-02 0.100000000000D+01
  </mgrwgt>
  </event>
  <event>
  5     66 -.18411016E-05 0.19906898E+02 0.75467711E-02 0.93656669E-01
        2 -1    0    0  502    0 0.00000000E+00 0.00000000E+00 0.22318703E+04 0.22318704E+04 0.32000000E+00 0.0000E+00 0.9000E+01
        2 -1    0    0  501    0 0.00000000E+00 0.00000000E+00 -.49441137E+03 0.49441147E+03 0.32000000E+00 0.0000E+00 0.9000E+01
       25  1    1    2    0    0 0.49435507E+03 -.14212485E+03 -.10281579E+03 0.53924252E+03 0.12500000E+03 0.0000E+00 0.9000E+01
        2  1    1    2  501    0 -.49076892E+03 0.12254182E+03 0.19574643E+03 0.54239045E+03 0.32000000E+00 0.0000E+00 0.9000E+01
        2  1    1    2  502    0 -.35861538E+01 0.19583027E+02 0.16445283E+04 0.16446489E+04 0.32000000E+00 0.0000E+00 0.9000E+01
#aMCatNLO 1  0  0  2  1 0.35912656D+02 0.00000000D+00  -5  6  0 0.00000000D+00 0.00000000D+00 0.00000000D+00 0.00000000D+00 0.00000000D+00
  <mgrwgt>
 -.8883691071D-02    7    2    0
 0.105045811215633D+04 0.000000000000000D+00 0.000000000000000D+00 0.105045811215633D+04
 0.105045811215633D+04 0.000000000000000D+00 0.000000000000000D+00 -.105045811215633D+04
 0.784806235772279D+03 0.494418454425969D+03 -.142141529917298D+03 -.579346187613985D+03
 0.542004725208523D+03 -.490832621178845D+03 0.122560253505039D+03 -.194503070402118D+03
 0.774105263331857D+03 -.358583324712385D+01 0.195812764122586D+02 0.773849258016104D+03
 0.000000000000000D+00 -.000000000000000D+00 0.000000000000000D+00 -.000000000000000D+00
 0.105291564723684D+04 0.000000000000000D+00 0.000000000000000D+00 0.105291564723684D+04
 0.119055045338342D+04 0.000000000000000D+00 0.000000000000000D+00 -.119055045338342D+04
 0.793435940738677D+03 0.506039614466163D+03 -.148988239616245D+03 -.579346187613985D+03
 0.533791570276153D+03 -.482911149362578D+03 0.117893247997260D+03 -.194503070402118D+03
 0.773995632883536D+03 0.781338579609001D+01 0.128653252237665D+02 0.773849258016104D+03
 0.142242956721888D+03 -.309418508996749D+02 0.182296663952191D+02 -.137634806146579D+03
0.208810577224D-04 0.000000000000D+00 0.000000000000D+00 0.170824179193D-05 0.000000000000D+00  6 2 2 25 2 2 21 0 0.34336468D+00 0.76063297D-01 0.27837410D+06 0.27837410D+06 0.27837410D+06 0.10869640D+01  1  2  2  2  6  2        2 0.108588715804D-03 0.100000000000D+01
0.174937751875D-04 0.000000000000D+00 -.801887597627D-07 0.170824179193D-05 0.000000000000D+00  6 2 2 25 2 2 21 2 0.34336468D+00 0.76063297D-01 0.27837410D+06 0.27837410D+06 0.27837410D+06 0.10869640D+01  1  2  3  2  6  2        2 0.107484558436D-03 0.100000000000D+01
-.138796317577D-04 0.000000000000D+00 0.000000000000D+00 0.170824179193D-05 0.000000000000D+00  6 2 2 25 2 2 21 2 0.34336468D+00 0.76063297D-01 0.27837410D+06 0.27837410D+06 0.27837410D+06 0.10869640D+01  1  2 15  2  6  2        2 -.852786819739D-04 0.100000000000D+01
-.159151654481D-02 0.000000000000D+00 0.000000000000D+00 0.170824179193D-05 0.000000000000D+00  6 2 2 25 2 2 21 2 0.34336468D+00 0.76063297D-01 0.27837410D+06 0.27837410D+06 0.27837410D+06 0.10869640D+01  1  2  4  2  6  2        2 -.977853271975D-02 0.100000000000D+01
-.120127248782D-02 0.000000000000D+00 -.408371008441D-04 0.170824179193D-05 0.000000000000D+00  6 2 2 25 2 2 21 2 0.34336468D+00 0.86299596D-01 0.27837410D+06 0.27837410D+06 0.27837410D+06 0.10869640D+01  1  2  5  2  6  2        2 -.638841581204D-02 0.100000000000D+01
0.119719674283D-02 0.000000000000D+00 0.405137496745D-04 0.170824179193D-05 0.000000000000D+00  6 2 2 25 2 2 21 2 0.34336468D+00 0.76063297D-01 0.27837410D+06 0.27837410D+06 0.27837410D+06 0.10869640D+01  1  2  6  2  6  2        2 0.735576865973D-02 0.100000000000D+01
-.235767102352D-04 0.000000000000D+00 -.808535874587D-06 0.170824179193D-05 0.000000000000D+00  6 2 21 25 2 2 -2 2 0.34336468D+00 0.86299596D-01 0.27837410D+06 0.27837410D+06 0.27837410D+06 0.10869640D+01  1  2  5  5  6  2        2 -.203305790789D-03 0.100000000000D+01
  </mgrwgt>
  </event>
  <event>
  5     66 0.18411016E-05 0.24726297E+02 0.75467711E-02 0.91532514E-01
        2 -1    0    0  502    0 0.00000000E+00 0.00000000E+00 0.15065344E+04 0.15065344E+04 0.32000000E+00 0.0000E+00 0.9000E+01
        2 -1    0    0  501    0 0.00000000E+00 0.00000000E+00 -.53913796E+03 0.53913805E+03 0.32000000E+00 0.0000E+00 0.9000E+01
       25  1    1    2    0    0 -.50681353E+03 0.27157716E+03 0.48657564E+03 0.76354107E+03 0.12500000E+03 0.0000E+00 0.9000E+01
        2  1    1    2  501    0 0.49116874E+03 -.29073773E+03 -.19703862E+03 0.60382073E+03 0.32000000E+00 0.0000E+00 0.9000E+01
        2  1    1    2  502    0 0.15644795E+02 0.19160571E+02 0.67785940E+03 0.67831066E+03 0.32000000E+00 0.0000E+00 0.9000E+01
#aMCatNLO 1  0  0  1  4 0.42463433D+02 0.00000000D+00  -5  6  0 0.00000000D+00 0.00000000D+00 0.00000000D+00 0.00000000D+00 0.00000000D+00
  <mgrwgt>
 0.4643549390D-02    7    2    0
 0.901238037487444D+03 0.000000000000000D+00 0.000000000000000D+00 0.901238037487444D+03
 0.901238037487444D+03 0.000000000000000D+00 0.000000000000000D+00 -.901238037487444D+03
 0.605534256167437D+03 -.506892733114677D+03 0.271631592973876D+03 0.142557953851263D+03
 0.791086224761683D+03 0.491254296910289D+03 -.290784375616125D+03 -.547659636701857D+03
 0.405855594045768D+03 0.156384362043884D+02 0.191527826422490D+02 0.405101682850594D+03
 0.000000000000000D+00 0.000000000000000D+00 -.000000000000000D+00 0.000000000000000D+00
 0.139450992437031D+04 0.000000000000000D+00 0.000000000000000D+00 0.139450992437031D+04
 0.913924491206193D+03 0.000000000000000D+00 0.000000000000000D+00 -.913924491206193D+03
 0.651619613385178D+03 -.546498415470017D+03 0.299999720384455D+03 0.142557953851263D+03
 0.749322979203783D+03 0.442724869362005D+03 -.256024490115338D+03 -.547659636701857D+03
 0.406955227029373D+03 -.996855429546271D+01 0.374941499890818D+02 0.405101682850594D+03
 0.500536595958172D+03 0.113742100403474D+03 -.814693802581990D+02 0.480585433164121D+03
0.489110001255D-04 0.000000000000D+00 0.000000000000D+00 0.274249062583D-05 0.000000000000D+00  6 2 2 25 2 2 21 0 0.23177453D+00 0.82944311D-01 0.35052619D+06 0.35052619D+06 0.35052619D+06 0.10795857D+01  1  2  2  1  6  1        2 0.569378922257D-03 0.100000000000D+01
0.302571540076D-04 0.000000000000D+00 -.187831119044D-06 0.274249062583D-05 0.000000000000D+00  6 2 2 25 2 2 21 2 0.23177453D+00 0.82944311D-01 0.35052619D+06 0.35052619D+06 0.35052619D+06 0.10795857D+01  1  2  3  1  6  1        2 0.410522712607D-03 0.100000000000D+01
-.341445876080D-04 0.000000000000D+00 0.000000000000D+00 0.274249062583D-05 0.000000000000D+00  6 2 2 25 2 2 21 2 0.23177453D+00 0.82944311D-01 0.35052619D+06 0.35052619D+06 0.35052619D+06 0.10795857D+01  1  2 15  1  6  1        2 -.463266595469D-03 0.100000000000D+01
-.415086495832D-05 0.000000000000D+00 0.000000000000D+00 0.274249062583D-05 0.000000000000D+00  6 2 2 25 2 2 21 2 0.23177453D+00 0.82944311D-01 0.35052619D+06 0.35052619D+06 0.35052619D+06 0.10795857D+01  1  2  4  1  6  1        2 -.563180642148D-04 0.100000000000D+01
-.522447752959D-03 0.000000000000D+00 -.314423111978D-04 0.274249062583D-05 0.000000000000D+00  6 2 2 25 2 2 21 2 0.35995731D+00 0.82944311D-01 0.35052619D+06 0.35052619D+06 0.35052619D+06 0.10795857D+01  1  2  5  1  6  1        2 -.245910921867D-02 0.100000000000D+01
0.490779865639D-03 0.000000000000D+00 0.286236807258D-04 0.274249062583D-05 0.000000000000D+00  6 2 2 25 2 2 21 2 0.23177453D+00 0.82944311D-01 0.35052619D+06 0.35052619D+06 0.35052619D+06 0.10795857D+01  1  2  6  1  6  1        2 0.665879816999D-02 0.100000000000D+01
-.254850446605D-04 0.000000000000D+00 -.160700786296D-05 0.274249062583D-05 0.000000000000D+00  6 21 2 25 2 2 -2 2 0.35995731D+00 0.82944311D-01 0.35052619D+06 0.35052619D+06 0.35052619D+06 0.10795857D+01  1  2  5  4  6  1        2 -.164565366404D-04 0.100000000000D+01
  </mgrwgt>
  </event>
  <event>
  6     66 0.18411016E-05 0.85615810E+02 0.75467711E-02 0.91718716E-01
        2 -1    0    0  502    0 0.00000000E+00 0.00000000E+00 0.10373480E+04 0.10373480E+04 0.32000000E+00 0.0000E+00 0.9000E+01
        2 -1    0    0  503    0 0.00000000E+00 0.00000000E+00 -.15410755E+04 0.15410756E+04 0.32000000E+00 0.0000E+00 0.9000E+01
       25  1    1    2    0    0 -.51008011E+02 0.59392683E+03 0.64015975E+02 0.61243281E+03 0.12500000E+03 0.0000E+00 0.9000E+01
        2  1    1    2  501    0 -.87496873E+02 -.23172796E+02 -.82968995E+03 0.83461260E+03 0.32000000E+00 0.0000E+00 0.9000E+01
        2  1    1    2  502    0 0.14735885E+03 -.57499319E+03 0.57013373E+03 0.82303364E+03 0.32000000E+00 0.0000E+00 0.9000E+01
       21  1    1    2  503  501 -.88539660E+01 0.42391538E+01 -.30818733E+03 0.30834455E+03 0.75000000E+00 0.0000E+00 0.9000E+01
#aMCatNLO 2  0  0  2  4 0.98164729D+01 0.00000000D+00  -5  6  0 0.00000000D+00 0.00000000D+00 0.00000000D+00 0.00000000D+00 0.00000000D+00
  <mgrwgt>
 0.6490793760D-02    3    2    0
 0.113081016474381D+04 0.000000000000000D+00 0.000000000000000D+00 0.113081016474381D+04
 0.113081016474381D+04 0.000000000000000D+00 0.000000000000000D+00 -.113081016474381D+04
 0.621557588252451D+03 -.534188655375752D+02 0.595055809957408D+03 0.117319407409068D+03
 0.766369912456815D+03 -.905065562730296D+02 -.217401200970775D+02 -.760696242378538D+03
 0.873692828778353D+03 0.143925421810605D+03 -.573315689860331D+03 0.643376834969470D+03
 0.000000000000000D+00 -.000000000000000D+00 0.000000000000000D+00 -.000000000000000D+00
 0.113090601453712D+04 0.000000000000000D+00 0.000000000000000D+00 0.113090601453712D+04
 0.141358367309449D+04 0.000000000000000D+00 0.000000000000000D+00 -.141358367309449D+04
 0.620238949446172D+03 -.509881364621739D+02 0.593892011223751D+03 0.117319407409068D+03
 0.766063558829839D+03 -.875069259135524D+02 -.231763007266378D+02 -.760696242378538D+03
 0.875339125115853D+03 0.147349028412066D+03 -.574954864323517D+03 0.643376834969470D+03
 0.282848054239748D+03 -.885396603633956D+01 0.423915382640398D+01 -.282677658557366D+03
-.136918705699D-08 0.000000000000D+00 0.000000000000D+00 0.138149347678D-05 0.000000000000D+00  6 2 2 25 2 2 21 2 0.15957840D+00 0.23709953D+00 0.42439927D+06 0.42439927D+06 0.42439927D+06 0.10735788D+01  1  2 13  2  6  2        2 -.755429660682D-08 0.100000000000D+01
-.191748705122D-02 0.000000000000D+00 0.000000000000D+00 0.138149347678D-05 0.000000000000D+00  6 2 2 25 2 2 21 2 0.15957840D+00 0.24059450D+00 0.42439927D+06 0.42439927D+06 0.42439927D+06 0.10735788D+01  1  2 13  2  6  2        2 -.102786130858D-01 0.100000000000D+01
0.303949204783D-02 0.000000000000D+00 0.000000000000D+00 0.138149347678D-05 0.148131744514D-06  6 2 2 25 2 2 21 2 0.15959193D+00 0.23708845D+00 0.42439927D+06 0.42439927D+06 0.42439927D+06 0.10735788D+01  1  2  1  2  6  2        2 0.167694144005D-01 0.100000000000D+01
  </mgrwgt>
  </event>
  <event>
  5     66 0.18411016E-05 0.11609470E+03 0.75467711E-02 0.87471991E-01
        2 -1    0    0  502    0 0.00000000E+00 0.00000000E+00 0.25827165E+04 0.25827165E+04 0.32000000E+00 0.0000E+00 0.9000E+01
        2 -1    0    0  501    0 0.00000000E+00 0.00000000E+00 -.83535084E+03 0.83535090E+03 0.32000000E+00 0.0000E+00 0.9000E+01
       25  1    1    2    0    0 0.53176003E+03 0.12408991E+03 -.77090050E+02 0.56545106E+03 0.12500000E+03 0.0000E+00 0.9000E+01
        2  1    1    2  501    0 -.54608375E+03 -.23930131E+03 -.33913076E+03 0.68591717E+03 0.32000000E+00 0.0000E+00 0.9000E+01
        2  1    1    2  502    0 0.14323728E+02 0.11521140E+03 0.21635865E+04 0.21666992E+04 0.32000000E+00 0.0000E+00 0.9000E+01
#aMCatNLO 1  0  0  1  5 0.25987836D+02 0.00000000D+00  -5  6  0 0.00000000D+00 0.00000000D+00 0.00000000D+00 0.00000000D+00 0.00000000D+00
  <mgrwgt>
 0.8196268818D-02    7    2    0
 0.146883441797559D+04 0.000000000000000D+00 0.000000000000000D+00 0.146883441797559D+04
 0.146883441797559D+04 0.000000000000000D+00 0.000000000000000D+00 -.146883441797559D+04
 0.703801421906373D+03 0.531806455546890D+03 0.124108495425645D+03 -.426016920649014D+03
 0.999816790251051D+03 -.546129728940460D+03 -.239316236462805D+03 -.802560696895015D+03
 0.123405062379375D+04 0.143232733935708D+02 0.115207741037160D+03 0.122857761754403D+04
 0.000000000000000D+00 -.000000000000000D+00 -.000000000000000D+00 0.000000000000000D+00
 0.208510858706719D+04 0.000000000000000D+00 0.000000000000000D+00 0.208510858706719D+04
 0.161208178203552D+04 0.000000000000000D+00 0.000000000000000D+00 -.161208178203552D+04
 0.793275884409282D+03 0.616370068786543D+03 0.228602603681876D+03 -.426016920649014D+03
 0.920191783092053D+03 -.437676503627345D+03 -.105302059058995D+03 -.802560696895015D+03
 0.127195616153775D+04 0.155877078047956D+03 0.290123854729198D+03 0.122857761754403D+04
 0.711766540063622D+03 -.334570643207154D+03 -.413424399352079D+03 0.473026805031663D+03
0.283572142882D-02 0.000000000000D+00 0.000000000000D+00 0.275049249012D-05 0.000000000000D+00  6 2 2 25 2 2 21 0 0.39734101D+00 0.12851552D+00 0.40486346D+06 0.40486346D+06 0.40486346D+06 0.10750495D+01  1  2  2  1  6  1        2 0.480793711704D-02 0.100000000000D+01
0.774101319283D-03 0.000000000000D+00 -.108899169493D-04 0.275049249012D-05 0.000000000000D+00  6 2 2 25 2 2 21 2 0.39734101D+00 0.12851552D+00 0.40486346D+06 0.40486346D+06 0.40486346D+06 0.10750495D+01  1  2  3  1  6  1        2 0.151687541690D-02 0.100000000000D+01
-.201920105190D-02 0.000000000000D+00 0.000000000000D+00 0.275049249012D-05 0.000000000000D+00  6 2 2 25 2 2 21 2 0.39734101D+00 0.12851552D+00 0.40486346D+06 0.40486346D+06 0.40486346D+06 0.10750495D+01  1  2 15  1  6  1        2 -.395668675550D-02 0.100000000000D+01
-.812109032429D-04 0.000000000000D+00 0.000000000000D+00 0.275049249012D-05 0.000000000000D+00  6 2 2 25 2 2 21 2 0.39734101D+00 0.12851552D+00 0.40486346D+06 0.40486346D+06 0.40486346D+06 0.10750495D+01  1  2  4  1  6  1        2 -.159135270339D-03 0.100000000000D+01
-.314478478872D-02 0.000000000000D+00 -.160203863077D-02 0.275049249012D-05 0.000000000000D+00  6 2 2 25 2 2 21 2 0.57539411D+00 0.12851552D+00 0.40486346D+06 0.40486346D+06 0.40486346D+06 0.10750495D+01  1  2  5  1  6  1        2 -.105201078097D-02 0.100000000000D+01
0.359273342549D-02 0.000000000000D+00 0.149816620375D-02 0.275049249012D-05 0.000000000000D+00  6 2 2 25 2 2 21 2 0.39734101D+00 0.12851552D+00 0.40486346D+06 0.40486346D+06 0.40486346D+06 0.10750495D+01  1  2  6  1  6  1        2 0.704007198653D-02 0.100000000000D+01
-.923688301721D-04 0.000000000000D+00 -.720801184381D-04 0.275049249012D-05 0.000000000000D+00  6 21 2 25 2 2 -2 2 0.57539411D+00 0.12851552D+00 0.40486346D+06 0.40486346D+06 0.40486346D+06 0.10750495D+01  1  2  5  4  6  1        2 -.782895456730D-06 0.100000000000D+01
  </mgrwgt>
  </event>
  <event>
  5     66 -.18411016E-05 0.19444172E+02 0.75467711E-02 0.92224613E-01
        2 -1    0    0  502    0 0.00000000E+00 0.00000000E+00 0.91544756E+03 0.91544761E+03 0.32000000E+00 0.0000E+00 0.9000E+01
        2 -1    0    0  501    0 -.00000000E+00 -.00000000E+00 -.11939682E+04 0.11939682E+04 0.32000000E+00 0.0000E+00 0.9000E+01
       25  1    1    2    0    0 0.26289075E+03 0.53878476E+03 0.29537946E+03 0.67990778E+03 0.12500000E+03 0.0000E+00 0.9000E+01
        2  1    1    2  501    0 -.28212948E+03 -.54167159E+03 -.90830231E+03 0.10945402E+04 0.32000000E+00 0.0000E+00 0.9000E+01
        2  1    1    2  502    0 0.19238729E+02 0.28868314E+01 0.33440224E+03 0.33496780E+03 0.32000000E+00 0.0000E+00 0.9000E+01
#aMCatNLO 1  0  0  5  1 0.47697420D+00 0.00000000D+00  -5  6  0 0.00000000D+00 0.00000000D+00 0.00000000D+00 0.00000000D+00 0.00000000D+00
  <mgrwgt>
 -.5927884645D-04    1    2    0
 0.104547374258569D+04 0.000000000000000D+00 0.000000000000000D+00 0.104547374258569D+04
 0.104547374258569D+04 -.000000000000000D+00 -.000000000000000D+00 -.104547374258569D+04
 0.725424293061623D+03 0.262940625517494D+03 0.538866724171026D+03 0.388716202386281D+03
 0.983248936694866D+03 -.282169524435685D+03 -.541752080586625D+03 -.770495628911279D+03
 0.382274255414889D+03 0.192288989181911D+02 0.288535641559880D+01 0.381779426524998D+03
 0.000000000000000D+00 0.000000000000000D+00 0.000000000000000D+00 0.000000000000000D+00
 0.104547374258569D+04 0.000000000000000D+00 0.000000000000000D+00 0.104547374258569D+04
 0.104547374258569D+04 -.000000000000000D+00 -.000000000000000D+00 -.104547374258569D+04
 0.725625444395455D+03 0.262958720746056D+03 0.538869439416659D+03 0.389075473398768D+03
 0.982858452514046D+03 -.282145006211624D+03 -.541748401550430D+03 -.770008832784210D+03
 0.345127426388155D+03 0.105962539709337D+02 0.742834912474500D+01 0.344884733608746D+03
 0.373361618737209D+02 0.859003149463466D+01 -.454938699097370D+01 0.360486257766955D+02
-.566979777862D-05 0.000000000000D+00 0.000000000000D+00 0.479535084183D-05 0.000000000000D+00  6 2 2 25 2 2 21 2 0.14083809D+00 0.18368742D+00 0.38611458D+06 0.38611458D+06 0.38611458D+06 0.10765355D+01  1  2 14  3  6  5        2 -.592788464503D-04 0.100000000000D+01
  </mgrwgt>
  </event>
  <event>
  5     66 0.18411016E-05 0.24436132E+02 0.75467711E-02 0.89571788E-01
        2 -1    0    0  502    0 0.00000000E+00 0.00000000E+00 0.28830365E+04 0.28830365E+04 0.32000000E+00 0.0000E+00 0.9000E+01
        2 -1    0    0  501    0 0.00000000E+00 0.00000000E+00 -.13368899E+04 0.13368900E+04 0.32000000E+00 0.0000E+00 0.9000E+01
       25  1    1    2    0    0 -.13002574E+03 -.76327202E+03 0.10693664E+04 0.13261449E+04 0.12500000E+03 0.0000E+00 0.9000E+01
        2  1    1    2  501    0 0.14981100E+03 0.77761871E+03 -.10786604E+04 0.13381489E+04 0.32000000E+00 0.0000E+00 0.9000E+01
        2  1    1    2  502    0 -.19785259E+02 -.14346698E+02 0.15554407E+04 0.15556327E+04 0.32000000E+00 0.0000E+00 0.9000E+01
#aMCatNLO 1  0  0  5  1 0.29015953D+01 0.00000000D+00  -5  6  0 0.00000000D+00 0.00000000D+00 0.00000000D+00 0.00000000D+00 0.00000000D+00
  <mgrwgt>
 0.3809327598D-02    9    2    0
 0.196323778858032D+04 0.000000000000000D+00 0.000000000000000D+00 0.196323778858032D+04
 0.196323778858032D+04 -.000000000000000D+00 -.000000000000000D+00 -.196323778858032D+04
 0.100429565388561D+04 -.130039768715306D+03 -.763334850637246D+03 0.627211547062556D+03
 0.186291953601344D+04 0.149822383347691D+03 0.777679630787125D+03 -.168619003761953D+04
 0.105926038726159D+04 -.197826146323807D+02 -.143447801498757D+02 0.105897849055698D+04
 0.000000000000000D+00 0.000000000000000D+00 -.000000000000000D+00 0.000000000000000D+00
 0.196323778858032D+04 0.000000000000000D+00 0.000000000000000D+00 0.196323778858032D+04
 0.196323778858032D+04 -.000000000000000D+00 -.000000000000000D+00 -.196323778858032D+04
 0.100430277492107D+04 -.130039977467988D+03 -.763335002008103D+03 0.627222721753265D+03
 0.186290062578246D+04 0.149821996124969D+03 0.777679350003977D+03 -.168616930929109D+04
 0.952080591101004D+03 -.188365367458760D+02 -.101905783630857D+02 0.951839686579250D+03
 0.107191585356113D+03 -.945481911100958D+00 -.415376963278507D+01 0.107106900958577D+03
0.108759256956D-04 0.000000000000D+00 0.000000000000D+00 0.386998217137D-04 0.000000000000D+00  6 2 2 25 2 2 21 0 0.44354408D+00 0.20567538D+00 0.64061843D+06 0.64061843D+06 0.64061843D+06 0.10609859D+01  1  2  2  3  6  5        2 0.574561537982D-05 0.100000000000D+01
0.896524708561D-05 0.000000000000D+00 -.417664183682D-07 0.386998217137D-04 0.000000000000D+00  6 2 2 25 2 2 21 2 0.44354408D+00 0.20567538D+00 0.64061843D+06 0.64061843D+06 0.64061843D+06 0.10609859D+01  1  2  3  3  6  5        2 0.533152892753D-05 0.100000000000D+01
-.741239155710D-05 0.000000000000D+00 0.000000000000D+00 0.386998217137D-04 0.000000000000D+00  6 2 2 25 2 2 21 2 0.44354408D+00 0.20567538D+00 0.64061843D+06 0.64061843D+06 0.64061843D+06 0.10609859D+01  1  2 15  3  6  5        2 -.440806367427D-05 0.100000000000D+01
0.111651315043D-11 0.000000000000D+00 0.000000000000D+00 0.386998217137D-04 0.000000000000D+00  6 2 2 25 2 2 21 2 0.44354408D+00 0.20567538D+00 0.64161141D+06 0.64161141D+06 0.64161141D+06 0.10609393D+01  1  2 12  3  6  5        2 0.663825561909D-12 0.100000000000D+01
0.302324441676D-03 0.000000000000D+00 0.000000000000D+00 0.386998217137D-04 0.000000000000D+00  6 2 2 25 2 2 21 2 0.44354408D+00 0.20567538D+00 0.64161141D+06 0.64161141D+06 0.64161141D+06 0.10609393D+01  1  2 12  3  6  5        2 0.179747719315D-03 0.100000000000D+01
-.172666280311D-01 0.000000000000D+00 0.000000000000D+00 0.386998217137D-04 0.000000000000D+00  6 2 2 25 2 2 21 2 0.44354408D+00 0.20567538D+00 0.64061843D+06 0.64061843D+06 0.64061843D+06 0.10609859D+01  1  2  4  3  6  5        2 -.102682643267D-01 0.100000000000D+01
-.599863482291D-01 0.000000000000D+00 0.000000000000D+00 0.386998217137D-04 0.000000000000D+00  6 2 2 25 2 2 21 2 0.44354408D+00 0.20567538D+00 0.64061843D+06 0.64061843D+06 0.64061843D+06 0.10609859D+01  1  2  5  3  6  5        2 -.356731886792D-01 0.100000000000D+01
0.663620531012D-01 0.000000000000D+00 -.000000000000D+00 0.386998217137D-04 0.000000000000D+00  6 2 2 25 2 2 21 2 0.44354408D+00 0.20567538D+00 0.64061843D+06 0.64061843D+06 0.64061843D+06 0.10609859D+01  1  2  6  3  6  5        2 0.394647467517D-01 0.100000000000D+01
0.169869253304D-01 0.000000000000D+00 0.000000000000D+00 0.386998217137D-04 0.733646420126D-05  6 2 2 25 2 2 21 2 0.44354408D+00 0.20567538D+00 0.64161141D+06 0.64161141D+06 0.64161141D+06 0.10609393D+01  1  2 11  3  6  5        2 0.100996170517D-01 0.100000000000D+01
  </mgrwgt>
  </event>
  <event>
  5     66 -.18411016E-05 0.30121132E+02 0.75467711E-02 0.94713309E-01
        2 -1    0    0  502    0 0.00000000E+00 0.00000000E+00 0.20060451E+04 0.20060452E+04 0.32000000E+00 0.0000E+00 0.9000E+01
        2 -1    0    0  501    0 0.00000000E+00 0.00000000E+00 -.35323561E+03 0.35323576E+03 0.32000000E+00 0.0000E+00 0.9000E+01
       25  1    1    2    0    0 0.88346152E+02 -.44906633E+03 0.45264874E+03 0.65572974E+03 0.12500000E+03 0.0000E+00 0.9000E+01
        2  1    1    2  501    0 -.97763951E+02 0.47768416E+03 -.15194364E+02 0.48782263E+03 0.32000000E+00 0.0000E+00 0.9000E+01
        2  1    1    2  502    0 0.94177989E+01 -.28617825E+02 0.12153551E+04 0.12157285E+04 0.32000000E+00 0.0000E+00 0.9000E+01
#aMCatNLO 1  0  0  5  1 0.29015953D+01 0.00000000D+00  -5  6  0 0.00000000D+00 0.00000000D+00 0.00000000D+00 0.00000000D+00 0.00000000D+00
  <mgrwgt>
 -.6004298916D-02    1    2    0
 0.841787851293756D+03 0.000000000000000D+00 0.000000000000000D+00 0.841787851293756D+03
 0.841787851293756D+03 -.000000000000000D+00 -.000000000000000D+00 -.841787851293756D+03
 0.474612922887902D+03 0.883638675731170D+02 -.449151124214110D+03 -.935527107673778D+01
 0.698555836087627D+03 -.977796315586139D+02 0.477762765096885D+03 -.500162113790443D+03
 0.510406943611984D+03 0.941576398549675D+01 -.286116408827748D+02 0.509517384867181D+03
 0.000000000000000D+00 0.000000000000000D+00 0.000000000000000D+00 -.000000000000000D+00
 0.841787851293756D+03 0.000000000000000D+00 0.000000000000000D+00 0.841787851293756D+03
 0.841787851293756D+03 -.000000000000000D+00 -.000000000000000D+00 -.841787851293756D+03
 0.476889933871981D+03 0.889587588835505D+02 -.450958817839887D+03 0.228362181363680D+02
 0.664340460104817D+03 -.969275320006706D+02 0.475173493893210D+03 -.454052255994680D+03
 0.451249178865312D+03 0.868503104694682D+02 0.199664771097847D+02 0.442362051706292D+03
 0.910961297454027D+02 -.788815373523482D+02 -.441811531631076D+02 -.111460138479802D+02
-.497150218778D-03 0.000000000000D+00 0.000000000000D+00 0.455873017206D-05 0.000000000000D+00  6 2 2 25 2 2 21 2 0.30862234D+00 0.54343954D-01 0.24616871D+06 0.24616871D+06 0.24616871D+06 0.10909640D+01  1  2 14  3  6  5        2 -.600429891630D-02 0.100000000000D+01
  </mgrwgt>
  </event>
  <event>
  5     66 0.18411016E-05 0.60532373E+02 0.75467711E-02 0.92260603E-01
        2 -1    0    0  502    0 0.00000000E+00 0.00000000E+00 0.46693778E+03 0.46693789E+03 0.32000000E+00 0.0000E+00 0.9000E+01
        2 -1    0    0  501    0 0.00000000E+00 0.00000000E+00 -.24580610E+04 0.24580610E+04 0.32000000E+00 0.0000E+00 0.9000E+01
       25  1    1    2    0    0 0.52807666E+03 -.11874521E+03 -.22550591E+03 0.59953590E+03 0.12500000E+03 0.0000E+00 0.9000E+01
        2  1    1    2  501    0 -.57967032E+03 0.87055759E+02 -.19996140E+04 0.20837593E+04 0.32000000E+00 0.0000E+00 0.9000E+01
        2  1    1    2  502    0 0.51593664E+02 0.31689456E+02 0.23399672E+03 0.24170373E+03 0.32000000E+00 0.0000E+00 0.9000E+01
#aMCatNLO 1  0  0  2  5 0.39859240D+02 0.00000000D+00  -5  6  0 0.00000000D+00 0.00000000D+00 0.00000000D+00 0.00000000D+00 0.00000000D+00
  <mgrwgt>
 0.6393593308D-02    9    2    0
 0.107133642889089D+04 0.000000000000000D+00 0.000000000000000D+00 0.107133642889089D+04
 0.107133642889089D+04 0.000000000000000D+00 0.000000000000000D+00 -.107133642889089D+04
 0.609007171596875D+03 0.528168729338369D+03 -.118751449660881D+03 0.249400524476108D+03
 0.986411950457030D+03 -.579748602923219D+03 0.870704641042572D+02 -.793296179048965D+03
 0.547253735727865D+03 0.515798735848501D+02 0.316809855566234D+02 0.543895654572857D+03
 0.000000000000000D+00 -.000000000000000D+00 0.000000000000000D+00 -.000000000000000D+00
 0.108197939653966D+04 0.000000000000000D+00 0.000000000000000D+00 0.108197939653966D+04
 0.110950270482718D+04 0.000000000000000D+00 0.000000000000000D+00 -.110950270482718D+04
 0.614607202428483D+03 0.532134673881028D+03 -.129418238751496D+03 0.249400524476108D+03
 0.981305962649944D+03 -.573370890888579D+03 0.699169945026469D+02 -.793296179048965D+03
 0.547130402954467D+03 0.551269607182761D+02 0.221407537325756D+02 0.543895654572857D+03
 0.484385333339416D+02 -.138907437107258D+02 0.373604905162732D+02 -.275233082875181D+02
0.396822610925D-03 0.000000000000D+00 0.000000000000D+00 0.309792623974D-05 0.000000000000D+00  6 2 2 25 2 2 21 0 0.71836592D-01 0.37816324D+00 0.36142996D+06 0.36142996D+06 0.36142996D+06 0.10786166D+01  1  2  2  2  6  2        2 0.161204785508D-02 0.100000000000D+01
0.133889675898D-03 0.000000000000D+00 -.152390331175D-05 0.309792623974D-05 0.000000000000D+00  6 2 2 25 2 2 21 2 0.71836592D-01 0.37816324D+00 0.36142996D+06 0.36142996D+06 0.36142996D+06 0.10786166D+01  1  2  3  2  6  2        2 0.632794648684D-03 0.100000000000D+01
-.284736573441D-03 0.000000000000D+00 0.000000000000D+00 0.309792623974D-05 0.000000000000D+00  6 2 2 25 2 2 21 2 0.71836592D-01 0.37816324D+00 0.36142996D+06 0.36142996D+06 0.36142996D+06 0.10786166D+01  1  2 15  2  6  2        2 -.134573318480D-02 0.100000000000D+01
0.559237404895D-09 0.000000000000D+00 0.000000000000D+00 0.309792623974D-05 0.000000000000D+00  6 2 2 25 2 2 21 2 0.71836592D-01 0.39528567D+00 0.38354177D+06 0.38354177D+06 0.38354177D+06 0.10767455D+01  1  2 12  2  6  2        2 0.226025985062D-08 0.100000000000D+01
-.254890970011D-03 0.000000000000D+00 0.000000000000D+00 0.309792623974D-05 0.000000000000D+00  6 2 2 25 2 2 21 2 0.71836592D-01 0.37816324D+00 0.36142996D+06 0.36142996D+06 0.36142996D+06 0.10786166D+01  1  2  4  2  6  2        2 -.120467572081D-02 0.100000000000D+01
-.113190890965D-01 0.000000000000D+00 -.163124586633D-02 0.309792623974D-05 0.000000000000D+00  6 2 2 25 2 2 21 2 0.71836592D-01 0.39298118D+00 0.36142996D+06 0.36142996D+06 0.36142996D+06 0.10786166D+01  1  2  5  2  6  2        2 -.470253384902D-01 0.100000000000D+01
0.113745885406D-01 0.000000000000D+00 0.163004168145D-02 0.309792623974D-05 0.000000000000D+00  6 2 2 25 2 2 21 2 0.71836592D-01 0.37816324D+00 0.36142996D+06 0.36142996D+06 0.36142996D+06 0.10786166D+01  1  2  6  2  6  2        2 0.537590274320D-01 0.100000000000D+01
0.114549375207D-10 0.000000000000D+00 0.000000000000D+00 0.309792623974D-05 0.000000000000D+00  6 2 21 25 2 2 -2 2 0.71836592D-01 0.39528567D+00 0.38354177D+06 0.38354177D+06 0.38354177D+06 0.10767455D+01  1  2 12  5  6  2        2 0.495288701819D-11 0.100000000000D+01
-.762085010512D-04 0.000000000000D+00 -.111068229112D-04 0.309792623974D-05 0.000000000000D+00  6 2 21 25 2 2 -2 2 0.71836592D-01 0.39298118D+00 0.36142996D+06 0.36142996D+06 0.36142996D+06 0.10786166D+01  1  2  5  5  6  2        2 -.345314970882D-04 0.100000000000D+01
  </mgrwgt>
  </event>
  <event>
  5     66 0.18411016E-05 0.27576800E+03 0.75467711E-02 0.92502838E-01
        2 -1    0    0  502    0 0.00000000E+00 0.00000000E+00 0.11657416E+04 0.11657416E+04 0.32000000E+00 0.0000E+00 0.9000E+01
        2 -1    0    0  501    0 0.00000000E+00 0.00000000E+00 -.42723199E+03 0.42723211E+03 0.32000000E+00 0.0000E+00 0.9000E+01
       25  1    1    2    0    0 -.88184508E+02 0.48617924E+03 0.18804694E+03 0.54326183E+03 0.12500000E+03 0.0000E+00 0.9000E+01
        2  1    1    2  501    0 -.21347870E+03 -.17449994E+03 -.77590138E+02 0.28643274E+03 0.32000000E+00 0.0000E+00 0.9000E+01
        2  1    1    2  502    0 0.30166321E+03 -.31167931E+03 0.62805277E+03 0.76327915E+03 0.32000000E+00 0.0000E+00 0.9000E+01
#aMCatNLO 1  0  0  5  1 0.34957574D+02 0.00000000D+00  -5  6  0 0.00000000D+00 0.00000000D+00 0.00000000D+00 0.00000000D+00 0.00000000D+00
  <mgrwgt>
 0.2215043241D-02    8    2    0
 0.705721067136504D+03 0.000000000000000D+00 0.000000000000000D+00 0.705721067136504D+03
 0.705721067136504D+03 -.000000000000000D+00 -.000000000000000D+00 -.705721067136504D+03
 0.514737719543679D+03 -.881348696257740D+02 0.486194929341023D+03 -.719489774781527D+02
 0.363927985337425D+03 -.213497284557835D+03 -.174547705898504D+03 -.237477549178354D+03
 0.532776429391903D+03 0.301632154183609D+03 -.311647223442519D+03 0.309426526656507D+03
 0.000000000000000D+00 0.000000000000000D+00 -.000000000000000D+00 0.000000000000000D+00
 0.705721067136504D+03 0.000000000000000D+00 0.000000000000000D+00 0.705721067136504D+03
 0.705721067136504D+03 -.000000000000000D+00 -.000000000000000D+00 -.705721067136504D+03
 0.511322395504071D+03 -.854806415744720D+02 0.483452573159500D+03 -.692261624351360D+02
 0.362511254620540D+03 -.211618120384132D+03 -.176489263816002D+03 -.235549826171303D+03
 0.478980886124506D+03 0.266989163072192D+03 -.256668746734971D+03 0.303744350604463D+03
 0.586275980238905D+02 0.301095988864124D+02 -.502945626085278D+02 0.103163800197650D+01
0.133639081023D-04 0.000000000000D+00 0.000000000000D+00 0.445481093762D-08 0.000000000000D+00  6 2 2 25 2 2 21 0 0.17934487D+00 0.65728012D-01 0.37159040D+06 0.37159040D+06 0.37159040D+06 0.10777418D+01  1  2  2  3  6  5        2 0.315133474344D-03 0.100000000000D+01
0.272896676308D-06 0.000000000000D+00 -.513209259106D-07 0.445481093762D-08 0.000000000000D+00  6 2 2 25 2 2 21 2 0.17934487D+00 0.65728012D-01 0.37159040D+06 0.37159040D+06 0.37159040D+06 0.10777418D+01  1  2  3  3  6  5        2 0.747461338305D-05 0.100000000000D+01
-.862166443359D-05 0.000000000000D+00 0.000000000000D+00 0.445481093762D-08 0.000000000000D+00  6 2 2 25 2 2 21 2 0.17934487D+00 0.65728012D-01 0.37159040D+06 0.37159040D+06 0.37159040D+06 0.10777418D+01  1  2 15  3  6  5        2 -.236146549058D-03 0.100000000000D+01
0.349834220668D-06 0.000000000000D+00 0.000000000000D+00 0.445481093762D-08 0.000000000000D+00  6 2 2 25 2 2 21 2 0.17934487D+00 0.65728012D-01 0.36671642D+06 0.36671642D+06 0.36671642D+06 0.10781581D+01  1  2 12  3  6  5        2 0.959349159396D-05 0.100000000000D+01
0.110378678632D-03 0.000000000000D+00 0.000000000000D+00 0.445481093762D-08 0.000000000000D+00  6 2 2 25 2 2 21 2 0.17934487D+00 0.65728012D-01 0.36671642D+06 0.36671642D+06 0.36671642D+06 0.10781581D+01  1  2 12  3  6  5        2 0.302691064237D-02 0.100000000000D+01
-.477882849320D-04 0.000000000000D+00 0.000000000000D+00 0.445481093762D-08 0.000000000000D+00  6 2 2 25 2 2 21 2 0.17934487D+00 0.65728012D-01 0.37159040D+06 0.37159040D+06 0.37159040D+06 0.10777418D+01  1  2  4  3  6  5        2 -.130891646955D-02 0.100000000000D+01
-.126148580664D-03 0.000000000000D+00 0.000000000000D+00 0.445481093762D-08 0.000000000000D+00  6 2 2 25 2 2 21 2 0.17934487D+00 0.65728012D-01 0.37159040D+06 0.37159040D+06 0.37159040D+06 0.10777418D+01  1  2  5  3  6  5        2 -.345519733712D-02 0.100000000000D+01
0.140788794738D-03 0.000000000000D+00 -.000000000000D+00 0.445481093762D-08 0.000000000000D+00  6 2 2 25 2 2 21 2 0.17934487D+00 0.65728012D-01 0.37159040D+06 0.37159040D+06 0.37159040D+06 0.10777418D+01  1  2  6  3  6  5        2 0.385619137459D-02 0.100000000000D+01
  </mgrwgt>
  </event>
  <event>
  5     66 0.18411016E-05 0.11315109E+03 0.75467711E-02 0.93472500E-01
        2 -1    0    0  502    0 0.00000000E+00 0.00000000E+00 0.26021259E+03 0.26021279E+03 0.32000000E+00 0.0000E+00 0.9000E+01
        2 -1    0    0  501    0 0.00000000E+00 0.00000000E+00 -.29500824E+04 0.29500824E+04 0.32000000E+00 0.0000E+00 0.9000E+01
       25  1    1    2    0    0 0.31211165E+02 -.47700171E+03 -.60454475E+03 0.78077149E+03 0.12500000E+03 0.0000E+00 0.9000E+01
        2  1    1    2  501    0 0.11309474E+03 -.30539764E+01 -.18870826E+04 0.18904710E+04 0.32000000E+00 0.0000E+00 0.9000E+01
        2  1    1    2  502    0 -.14430591E+03 0.48005568E+03 -.19824245E+03 0.53905271E+03 0.32000000E+00 0.0000E+00 0.9000E+01
#aMCatNLO 1  0  0  1  5 0.19901592D+01 0.00000000D+00  -5  6  0 0.00000000D+00 0.00000000D+00 0.00000000D+00 0.00000000D+00 0.00000000D+00
  <mgrwgt>
 0.3307142183D-02    1    2    0
 0.876155766491121D+03 0.000000000000000D+00 0.000000000000000D+00 0.876155766491121D+03
 0.876155766491121D+03 0.000000000000000D+00 0.000000000000000D+00 -.876155766491121D+03
 0.502383315662107D+03 0.311851738479964D+02 -.476967244962293D+03 0.910699073283930D+02
 0.566726614116501D+03 0.113109913150040D+03 -.305244492230128D+01 -.555316022887094D+03
 0.683201603203634D+03 -.144295086998037D+03 0.480019689884594D+03 0.464246115558701D+03
 0.000000000000000D+00 -.000000000000000D+00 0.000000000000000D+00 -.000000000000000D+00
 0.110240712718580D+04 0.000000000000000D+00 0.000000000000000D+00 0.110240712718580D+04
 0.144288266269893D+04 0.000000000000000D+00 0.000000000000000D+00 -.144288266269893D+04
 0.695609064945553D+03 0.387540566527520D+02 -.677090367902675D+03 0.910699073283930D+02
 0.601831262216473D+03 0.120492829568968D+03 -.198258570882565D+03 -.555316022887094D+03
 0.555624158917236D+03 -.136468220015587D+03 0.273075401834218D+03 0.464246115558701D+03
 0.692225303805473D+03 -.227786662061334D+02 0.602273536951022D+03 -.340475535513134D+03
0.706272972113D-03 0.000000000000D+00 0.000000000000D+00 0.479121610641D-06 0.000000000000D+00  6 2 2 25 2 2 21 2 0.40032723D-01 0.45385884D+00 0.30716508D+06 0.30716508D+06 0.30716508D+06 0.10837943D+01  1  2 14  1  6  1        2 0.330714218295D-02 0.100000000000D+01
  </mgrwgt>
  </event>
  <event>
  5     66 0.18411016E-05 0.94002375E+02 0.75467711E-02 0.93532925E-01
        2 -1    0    0  502    0 0.00000000E+00 0.00000000E+00 0.22503453E+04 0.22503453E+04 0.32000000E+00 0.0000E+00 0.9000E+01
        2 -1    0    0  501    0 0.00000000E+00 0.00000000E+00 -.61012958E+03 0.61012967E+03 0.32000000E+00 0.0000E+00 0.9000E+01
       25  1    1    2    0    0 0.44298431E+03 -.31338710E+03 0.56856838E+03 0.79582761E+03 0.12500000E+03 0.0000E+00 0.9000E+01
        2  1    1    2  501    0 -.74100907E+02 0.57821513E+02 -.45953930E+03 0.46905303E+03 0.32000000E+00 0.0000E+00 0.9000E+01
        2  1    1    2  502    0 -.36888340E+03 0.25556559E+03 0.15311866E+04 0.15955943E+04 0.32000000E+00 0.0000E+00 0.9000E+01
#aMCatNLO 1  0  0  1  5 0.25820376D+01 0.00000000D+00  -5  6  0 0.00000000D+00 0.00000000D+00 0.00000000D+00 0.00000000D+00 0.00000000D+00
  <mgrwgt>
 0.1253081719D-01   10    2    0
 0.117175183856317D+04 0.000000000000000D+00 0.000000000000000D+00 0.117175183856317D+04
 0.117175183856317D+04 0.000000000000000D+00 0.000000000000000D+00 -.117175183856317D+04
 0.573451345421572D+03 0.442965112999965D+03 -.313374563255318D+03 0.137112134164991D+03
 0.894216915837628D+03 -.741100487862697D+02 0.578286013593784D+02 -.889262304443337D+03
 0.875835415867134D+03 -.368855064213695D+03 0.255545961895940D+03 0.752150170278346D+03
 0.000000000000000D+00 0.000000000000000D+00 0.000000000000000D+00 0.000000000000000D+00
 0.117321952080688D+04 0.000000000000000D+00 0.000000000000000D+00 0.117321952080688D+04
 0.117288872048257D+04 0.000000000000000D+00 0.000000000000000D+00 -.117288872048257D+04
 0.573311793120965D+03 0.442489701941830D+03 -.313790596531713D+03 0.137112134164991D+03
 0.894236946696512D+03 -.748514841486696D+02 0.571797696215038D+02 -.889262304443337D+03
 0.875956359733770D+03 -.369581300655798D+03 0.254910430767087D+03 0.752150170278346D+03
 0.260314173820473D+01 0.194308286263730D+01 0.170039614312225D+01 0.330800324310280D+00
0.418348156782D-03 0.000000000000D+00 0.000000000000D+00 0.644713466221D-05 0.000000000000D+00  6 2 2 25 2 2 21 0 0.34620697D+00 0.93866098D-01 0.30225247D+06 0.30225247D+06 0.30225247D+06 0.10843116D+01  1  2  2  1  6  1        2 0.165825757191D-02 0.100000000000D+01
0.118720327066D-03 0.000000000000D+00 -.160656707564D-05 0.644713466221D-05 0.000000000000D+00  6 2 2 25 2 2 21 2 0.34620697D+00 0.93866098D-01 0.30225247D+06 0.30225247D+06 0.30225247D+06 0.10843116D+01  1  2  3  1  6  1        2 0.553283123447D-03 0.100000000000D+01
-.312169110718D-03 0.000000000000D+00 0.000000000000D+00 0.644713466221D-05 0.000000000000D+00  6 2 2 25 2 2 21 2 0.34620697D+00 0.93866098D-01 0.30225247D+06 0.30225247D+06 0.30225247D+06 0.10843116D+01  1  2 15  1  6  1        2 -.145483006061D-02 0.100000000000D+01
-.181738206976D-02 0.000000000000D+00 0.000000000000D+00 0.644713466221D-05 0.000000000000D+00  6 2 2 25 2 2 21 2 0.34620697D+00 0.93866098D-01 0.30225247D+06 0.30225247D+06 0.30225247D+06 0.10843116D+01  1  2  4  1  6  1        2 -.846971073024D-02 0.100000000000D+01
-.511403711388D+00 0.000000000000D+00 -.437280605819D-01 0.644713466221D-05 0.000000000000D+00  6 2 2 25 2 2 21 2 0.34679541D+00 0.93866098D-01 0.30225247D+06 0.30225247D+06 0.30225247D+06 0.10843116D+01  1  2  5  1  6  1        2 -.237159540868D+01 0.100000000000D+01
0.511477297147D+00 0.000000000000D+00 0.437279975265D-01 0.644713466221D-05 0.000000000000D+00  6 2 2 25 2 2 21 2 0.34620697D+00 0.93866098D-01 0.30225247D+06 0.30225247D+06 0.30225247D+06 0.10843116D+01  1  2  6  1  6  1        2 0.238368410474D+01 0.100000000000D+01
0.178091070293D-02 0.000000000000D+00 0.000000000000D+00 0.644713466221D-05 0.478374767004D-06  6 2 2 25 2 2 21 2 0.34664062D+00 0.93957171D-01 0.30382945D+06 0.30382945D+06 0.30382945D+06 0.10841445D+01  1  2 11  1  6  1        2 0.825481973559D-02 0.100000000000D+01
0.130307286117D-13 0.000000000000D+00 0.000000000000D+00 0.644713466221D-05 0.000000000000D+00  6 21 2 25 2 2 -2 2 0.34686109D+00 0.93866098D-01 0.30382945D+06 0.30382945D+06 0.30382945D+06 0.10841445D+01  1  2 12  4  6  1        2 0.912678190678D-14 0.100000000000D+01
-.162378872152D-03 0.000000000000D+00 -.138883949855D-04 0.644713466221D-05 0.000000000000D+00  6 21 2 25 2 2 -2 2 0.34679541D+00 0.93866098D-01 0.30225247D+06 0.30225247D+06 0.30225247D+06 0.10843116D+01  1  2  5  4  6  1        2 -.113951528466D-03 0.100000000000D+01
0.203045636144D-04 0.000000000000D+00 0.000000000000D+00 0.644713466221D-05 0.139684761849D-08  6 21 2 25 2 2 -2 2 0.34664062D+00 0.93957171D-01 0.30382945D+06 0.30382945D+06 0.30382945D+06 0.10841445D+01  1  2 11  4  6  1        2 0.142530189781D-04 0.100000000000D+01
  </mgrwgt>
  </event>
  <event>
  5     66 0.18411016E-05 0.11087819E+03 0.75467711E-02 0.92726109E-01
        2 -1    0    0  502    0 0.00000000E+00 0.00000000E+00 0.36149637E+04 0.36149637E+04 0.32000000E+00 0.0000E+00 0.9000E+01
        2 -1    0    0  501    0 0.00000000E+00 0.00000000E+00 -.67820264E+03 0.67820272E+03 0.32000000E+00 0.0000E+00 0.9000E+01
       25  1    1    2    0    0 -.17386012E+03 0.47964356E+03 -.57470703E+02 0.52840625E+03 0.12500000E+03 0.0000E+00 0.9000E+01
        2  1    1    2  501    0 0.75047857E+02 -.81616131E+02 -.36454766E+03 0.38103605E+03 0.32000000E+00 0.0000E+00 0.9000E+01
        2  1    1    2  502    0 0.98812259E+02 -.39802743E+03 0.33587794E+04 0.33837241E+04 0.32000000E+00 0.0000E+00 0.9000E+01
#aMCatNLO 1  0  0  1  5 0.22404137D+01 0.00000000D+00  -5  6  0 0.00000000D+00 0.00000000D+00 0.00000000D+00 0.00000000D+00 0.00000000D+00
  <mgrwgt>
 0.3681349965D-01    7    2    0
 0.156578354935316D+04 0.000000000000000D+00 0.000000000000000D+00 0.156578354935316D+04
 0.156578354935316D+04 0.000000000000000D+00 0.000000000000000D+00 -.156578354935316D+04
 0.778292930345297D+03 -.173861604870060D+03 0.479644868477643D+03 -.574306388542336D+03
 0.864259695307087D+03 0.750495448876983D+02 -.816182438541043D+02 -.857117756795774D+03
 0.148901447305394D+04 0.988120599823619D+02 -.398026624623539D+03 0.143142414533811D+04
 0.000000000000000D+00 -.000000000000000D+00 -.000000000000000D+00 0.000000000000000D+00
 0.166411357156179D+04 0.000000000000000D+00 0.000000000000000D+00 0.166411357156179D+04
 0.161001797317738D+04 0.000000000000000D+00 0.000000000000000D+00 -.161001797317738D+04
 0.781061821791885D+03 -.144923087309999D+03 0.493560574098919D+03 -.574306388542336D+03
 0.866322342494541D+03 0.107165699740473D+03 -.661745033207139D+02 -.857117756795774D+03
 0.148683986607801D+04 0.154037987842026D+03 -.371470055056285D+03 0.143142414533811D+04
 0.139907514374728D+03 -.116280600272500D+03 -.559160157219201D+02 0.540955983844124D+02
0.206948038243D-01 0.000000000000D+00 0.000000000000D+00 0.212080835970D-04 0.000000000000D+00  6 2 2 25 2 2 21 0 0.55614827D+00 0.10433888D+00 0.27366502D+06 0.27366502D+06 0.27366502D+06 0.10875164D+01  1  2  2  1  6  1        2 0.100303065648D-01 0.100000000000D+01
0.345285385465D-02 0.000000000000D+00 -.794734957522D-04 0.212080835970D-04 0.000000000000D+00  6 2 2 25 2 2 21 2 0.55614827D+00 0.10433888D+00 0.27366502D+06 0.27366502D+06 0.27366502D+06 0.10875164D+01  1  2  3  1  6  1        2 0.197925937847D-02 0.100000000000D+01
-.139194251996D-01 0.000000000000D+00 0.000000000000D+00 0.212080835970D-04 0.000000000000D+00  6 2 2 25 2 2 21 2 0.55614827D+00 0.10433888D+00 0.27366502D+06 0.27366502D+06 0.27366502D+06 0.10875164D+01  1  2 15  1  6  1        2 -.797895133387D-02 0.100000000000D+01
-.125476590821D-02 0.000000000000D+00 0.000000000000D+00 0.212080835970D-04 0.000000000000D+00  6 2 2 25 2 2 21 2 0.55614827D+00 0.10433888D+00 0.27366502D+06 0.27366502D+06 0.27366502D+06 0.10875164D+01  1  2  4  1  6  1        2 -.719262180255D-03 0.100000000000D+01
-.157625755176D+00 0.000000000000D+00 -.384052921454D-01 0.212080835970D-04 0.000000000000D+00  6 2 2 25 2 2 21 2 0.59482857D+00 0.10433888D+00 0.27366502D+06 0.27366502D+06 0.27366502D+06 0.10875164D+01  1  2  5  1  6  1        2 -.582428157251D-01 0.100000000000D+01
0.160075683793D+00 0.000000000000D+00 0.389873628253D-01 0.212080835970D-04 0.000000000000D+00  6 2 2 25 2 2 21 2 0.55614827D+00 0.10433888D+00 0.27366502D+06 0.27366502D+06 0.27366502D+06 0.10875164D+01  1  2  6  1  6  1        2 0.917592553145D-01 0.100000000000D+01
-.174175148606D-02 0.000000000000D+00 -.438938746163D-03 0.212080835970D-04 0.000000000000D+00  6 21 2 25 2 2 -2 2 0.59482857D+00 0.10433888D+00 0.27366502D+06 0.27366502D+06 0.27366502D+06 0.10875164D+01  1  2  5  4  6  1        2 -.142923696186D-04 0.100000000000D+01
  </mgrwgt>
  </event>
  <event>
  5     66 0.18411016E-05 0.23923449E+02 0.75467711E-02 0.94901308E-01
        2 -1    0    0  502    0 0.00000000E+00 0.00000000E+00 0.12208079E+04 0.12208079E+04 0.32000000E+00 0.0000E+00 0.9000E+01
        2 -1    0    0  501    0 0.00000000E+00 0.00000000E+00 -.12308129E+04 0.12308130E+04 0.32000000E+00 0.0000E+00 0.9000E+01
       25  1    1    2    0    0 -.46445443E+03 0.53255897E+02 0.38064919E+03 0.61568898E+03 0.12500000E+03 0.0000E+00 0.9000E+01
        2  1    1    2  501    0 0.25084812E+01 0.23788711E+02 -.10372625E+04 0.10375383E+04 0.32000000E+00 0.0000E+00 0.9000E+01
        2  1    1    2  502    0 0.46194595E+03 -.77044608E+02 0.64660830E+03 0.79839359E+03 0.32000000E+00 0.0000E+00 0.9000E+01
#aMCatNLO 1  0  0  2  4 0.72509250D+02 0.00000000D+00  -5  6  0 0.00000000D+00 0.00000000D+00 0.00000000D+00 0.00000000D+00 0.00000000D+00
  <mgrwgt>
 0.1624182654D-01    3    2    0
 0.122580024617530D+04 0.000000000000000D+00 0.000000000000000D+00 0.122580024617530D+04
 0.122580024617530D+04 0.000000000000000D+00 0.000000000000000D+00 -.122580024617530D+04
 0.617289513582706D+03 -.464397340011321D+03 0.532434909630003D+02 0.383303515297807D+03
 0.103337159898197D+04 0.250883382356761D+01 0.237915359736907D+02 -.103309463755816D+04
 0.800939379785920D+03 0.461888506187754D+03 -.770350269366909D+02 0.649791122260348D+03
 0.000000000000000D+00 -.000000000000000D+00 0.000000000000000D+00 0.000000000000000D+00
 0.202298888458148D+04 0.000000000000000D+00 0.000000000000000D+00 0.202298888458148D+04
 0.157538855090433D+04 0.000000000000000D+00 0.000000000000000D+00 -.157538855090433D+04
 0.511350702756499D+03 -.307404465732711D+03 -.665991803064813D+02 0.383303515297807D+03
 0.109416967778448D+04 0.298447978424778D+03 -.202117683060505D+03 -.103309463755816D+04
 0.100097649477453D+04 0.712533440029523D+03 -.268368286804606D+03 0.649791122260348D+03
 0.991880560170296D+03 -.703576952721589D+03 0.537085150171592D+03 0.447600333677155D+03
0.268446565518D-02 0.000000000000D+00 0.000000000000D+00 0.226265766515D-04 0.000000000000D+00  6 2 2 25 2 2 21 0 0.18781661D+00 0.18935584D+00 0.23817150D+06 0.23817150D+06 0.23817150D+06 0.10920462D+01  1  2  2  2  6  2        2 0.154351089038D-01 0.100000000000D+01
0.209426692036D-02 0.000000000000D+00 -.103090549519D-04 0.226265766515D-04 0.000000000000D+00  6 2 2 25 2 2 21 2 0.18781661D+00 0.18935584D+00 0.23817150D+06 0.23817150D+06 0.23817150D+06 0.10920462D+01  1  2  3  2  6  2        2 0.143603803360D-01 0.100000000000D+01
-.197661808187D-02 0.000000000000D+00 0.000000000000D+00 0.226265766515D-04 0.000000000000D+00  6 2 2 25 2 2 21 2 0.18781661D+00 0.18935584D+00 0.23817150D+06 0.23817150D+06 0.23817150D+06 0.10920462D+01  1  2 15  2  6  2        2 -.135536626964D-01 0.100000000000D+01
  </mgrwgt>
  </event>
  <event>
  5     66 0.18411016E-05 0.14263521E+03 0.75467711E-02 0.92835375E-01
        2 -1    0    0  502    0 0.00000000E+00 0.00000000E+00 0.15402237E+04 0.15402237E+04 0.32000000E+00 0.0000E+00 0.9000E+01
        2 -1    0    0  501    0 0.00000000E+00 0.00000000E+00 -.12531196E+04 0.12531197E+04 0.32000000E+00 0.0000E+00 0.9000E+01
       25  1    1    2    0    0 0.47213480E+03 -.14222698E+03 0.28046436E+03 0.58088298E+03 0.12500000E+03 0.0000E+00 0.9000E+01
        2  1    1    2  501    0 -.52313803E+03 0.90077432E+01 -.10357252E+04 0.11603799E+04 0.32000000E+00 0.0000E+00 0.9000E+01
        2  1    1    2  502    0 0.51003229E+02 0.13321923E+03 0.10423649E+04 0.10520805E+04 0.32000000E+00 0.0000E+00 0.9000E+01
#aMCatNLO 1  0  0  5  1 0.20711888D+02 0.00000000D+00  -5  6  0 0.00000000D+00 0.00000000D+00 0.00000000D+00 0.00000000D+00 0.00000000D+00
  <mgrwgt>
 0.5895402436D-02    1    2    0
 0.138927484197821D+04 0.000000000000000D+00 0.000000000000000D+00 0.138927484197821D+04
 0.138927484197821D+04 -.000000000000000D+00 -.000000000000000D+00 -.138927484197821D+04
 0.555074739942038D+03 0.472193223181387D+03 -.142218539813238D+03 0.222014445108159D+03
 0.127359005588140D+04 -.523191575079920D+03 0.901204561445492D+01 -.116112918714467D+04
 0.949884888132974D+03 0.509983518985329D+02 0.133206494198783D+03 0.939114742036507D+03
 0.000000000000000D+00 -.000000000000000D+00 0.000000000000000D+00 0.000000000000000D+00
 0.138927484197821D+04 0.000000000000000D+00 0.000000000000000D+00 0.138927484197821D+04
 0.138927484197821D+04 -.000000000000000D+00 -.000000000000000D+00 -.138927484197821D+04
 0.622264268291539D+03 0.479452834558948D+03 -.123256605851636D+03 0.355697354698807D+03
 0.103418368361073D+04 -.508961569636382D+03 0.461804847305801D+02 -.899089191854718D+03
 0.457407747322145D+03 0.428180975386606D+03 0.159870127888763D+03 0.180122690443181D+02
 0.664693984732005D+03 -.398672240309173D+03 -.827940067677077D+02 0.525379568111593D+03
0.139749077711D-02 0.000000000000D+00 0.000000000000D+00 0.347070539519D-05 0.000000000000D+00  6 2 2 25 2 2 21 2 0.23695749D+00 0.19278764D+00 0.34494803D+06 0.34494803D+06 0.34494803D+06 0.10800943D+01  1  2 14  3  6  5        2 0.589540243619D-02 0.100000000000D+01
  </mgrwgt>
  </event>
  <event>
  5     66 -.18411016E-05 0.26394835E+02 0.75467711E-02 0.92878965E-01
        2 -1    0    0  502    0 0.00000000E+00 0.00000000E+00 0.14873506E+04 0.14873506E+04 0.32000000E+00 0.0000E+00 0.9000E+01
        2 -1    0    0  501    0 0.00000000E+00 0.00000000E+00 -.72452054E+03 0.72452061E+03 0.32000000E+00 0.0000E+00 0.9000E+01
       25  1    1    2    0    0 -.41188788E+03 0.37161528E+03 0.15566627E+03 0.58958166E+03 0.12500000E+03 0.0000E+00 0.9000E+01
        2  1    1    2  501    0 -.26244226E+02 0.27916199E+01 -.43264463E+03 0.43344900E+03 0.32000000E+00 0.0000E+00 0.9000E+01
        2  1    1    2  502    0 0.43813211E+03 -.37440690E+03 0.10398084E+04 0.11888405E+04 0.32000000E+00 0.0000E+00 0.9000E+01
#aMCatNLO 1  0  0  5  5 0.35775266D+02 0.00000000D+00  -5  6  0 0.00000000D+00 0.00000000D+00 0.00000000D+00 0.00000000D+00 0.00000000D+00
  <mgrwgt>
 -.4788663268D-02    6    2    0
 0.103808291472653D+04 0.000000000000000D+00 0.000000000000000D+00 0.103808291472653D+04
 0.103808291472653D+04 -.000000000000000D+00 -.000000000000000D+00 -.103808291472653D+04
 0.570895474002072D+03 -.411870556956377D+03 0.371602480095031D+03 -.507038789020722D+02
 0.620801959508581D+03 -.262467756667978D+02 0.279179086304757D+01 -.620240586869779D+03
 0.884468395942417D+03 0.438117332623175D+03 -.374394270958078D+03 0.670944465771852D+03
 0.000000000000000D+00 0.000000000000000D+00 0.000000000000000D+00 0.000000000000000D+00
 0.103808291472653D+04 0.000000000000000D+00 0.000000000000000D+00 0.103808291472653D+04
 0.103808291472653D+04 -.000000000000000D+00 -.000000000000000D+00 -.103808291472653D+04
 0.570336005290227D+03 -.411474606567922D+03 0.371264119692502D+03 -.500975100093750D+02
 0.620123597098509D+03 -.258162364071490D+02 0.242387245345177D+01 -.619581247665303D+03
 0.470665821146215D+03 0.204341649820844D+03 -.193181950712676D+03 0.377427528490678D+03
 0.415040405918118D+03 0.232949193154227D+03 -.180506041433278D+03 0.292251229184000D+03
0.344404624835D-04 0.000000000000D+00 0.000000000000D+00 0.668151055769D-05 0.000000000000D+00  6 2 2 25 2 2 21 0 0.22882317D+00 0.11146471D+00 0.34300403D+06 0.34300403D+06 0.34300403D+06 0.10802737D+01  1  2  2  3  6  5        2 0.289179084371D-03 0.100000000000D+01
0.237029643833D-04 0.000000000000D+00 -.132260444319D-06 0.668151055769D-05 0.000000000000D+00  6 2 2 25 2 2 21 2 0.22882317D+00 0.11146471D+00 0.34300403D+06 0.34300403D+06 0.34300403D+06 0.10802737D+01  1  2  3  3  6  5        2 0.232256645806D-03 0.100000000000D+01
-.251333963781D-04 0.000000000000D+00 0.000000000000D+00 0.668151055769D-05 0.000000000000D+00  6 2 2 25 2 2 21 2 0.22882317D+00 0.11146471D+00 0.34300403D+06 0.34300403D+06 0.34300403D+06 0.10802737D+01  1  2 15  3  6  5        2 -.246272923762D-03 0.100000000000D+01
-.108093053198D-02 0.000000000000D+00 0.000000000000D+00 0.668151055769D-05 0.000000000000D+00  6 2 2 25 2 2 21 2 0.22882317D+00 0.11146471D+00 0.34300403D+06 0.34300403D+06 0.34300403D+06 0.10802737D+01  1  2  4  3  6  5        2 -.105916414356D-01 0.100000000000D+01
-.100660778538D-02 0.000000000000D+00 0.000000000000D+00 0.668151055769D-05 0.000000000000D+00  6 2 2 25 2 2 21 2 0.22882317D+00 0.11146471D+00 0.34300403D+06 0.34300403D+06 0.34300403D+06 0.10802737D+01  1  2  5  3  6  5        2 -.986338012809D-02 0.100000000000D+01
0.157074927707D-02 0.000000000000D+00 -.000000000000D+00 0.668151055769D-05 0.000000000000D+00  6 2 2 25 2 2 21 2 0.22882317D+00 0.11146471D+00 0.34300403D+06 0.34300403D+06 0.34300403D+06 0.10802737D+01  1  2  6  3  6  5        2 0.153911954891D-01 0.100000000000D+01
  </mgrwgt>
  </event>
  <event>
  5     66 0.18411016E-05 0.92924997E+02 0.75467711E-02 0.90481331E-01
        2 -1    0    0  502    0 0.00000000E+00 0.00000000E+00 0.14696187E+04 0.14696187E+04 0.32000000E+00 0.0000E+00 0.9000E+01
        2 -1    0    0  501    0 0.00000000E+00 0.00000000E+00 -.12994309E+04 0.12994309E+04 0.32000000E+00 0.0000E+00 0.9000E+01
       25  1    1    2    0    0 -.61209457E+03 0.23862480E+03 0.85353018E+03 0.10843156E+04 0.12500000E+03 0.0000E+00 0.9000E+01
        2  1    1    2  501    0 0.66398473E+03 -.16147108E+03 -.10796145E+04 0.12776996E+04 0.32000000E+00 0.0000E+00 0.9000E+01
        2  1    1    2  502    0 -.51890157E+02 -.77153729E+02 0.39627215E+03 0.40703440E+03 0.32000000E+00 0.0000E+00 0.9000E+01
#aMCatNLO 1  0  0  1  4 0.19118982D+02 0.00000000D+00  -5  6  0 0.00000000D+00 0.00000000D+00 0.00000000D+00 0.00000000D+00 0.00000000D+00
  <mgrwgt>
 0.1217104370D-02    9    2    0
 0.138190737015951D+04 0.000000000000000D+00 0.000000000000000D+00 0.138190737015951D+04
 0.138190737015951D+04 0.000000000000000D+00 0.000000000000000D+00 -.138190737015951D+04
 0.103401873796858D+04 -.612197817199934D+03 0.238602651696945D+03 0.788576158458367D+03
 0.134661901420122D+04 0.664057260745955D+03 -.161494589698692D+03 -.116031470789476D+04
 0.383176988149213D+03 -.518594435460208D+02 -.771080619982530D+02 0.371738549436392D+03
 0.000000000000000D+00 -.000000000000000D+00 0.000000000000000D+00 0.000000000000000D+00
 0.142392715415039D+04 0.000000000000000D+00 0.000000000000000D+00 0.142392715415039D+04
 0.138411692878294D+04 0.000000000000000D+00 0.000000000000000D+00 -.138411692878294D+04
 0.102950156932493D+04 -.605453654635260D+03 0.236266789122708D+03 0.788576158458367D+03
 0.135135755769142D+04 0.672875004158615D+03 -.164548643723834D+03 -.116031470789476D+04
 0.383021741307303D+03 -.493552914085121D+02 -.779753832115406D+02 0.371738549436392D+03
 0.441632146096797D+02 -.180660581148426D+02 0.625723781266648D+01 0.398102253674542D+02
0.511207996942D-04 0.000000000000D+00 0.000000000000D+00 0.492148472236D-06 0.000000000000D+00  6 2 2 25 2 2 21 0 0.22609519D+00 0.19991245D+00 0.52213199D+06 0.52213199D+06 0.52213199D+06 0.10671835D+01  1  2  2  1  6  1        2 0.185290295128D-03 0.100000000000D+01
0.789080725676D-05 0.000000000000D+00 -.196317331241D-06 0.492148472236D-06 0.000000000000D+00  6 2 2 25 2 2 21 2 0.22609519D+00 0.19991245D+00 0.52213199D+06 0.52213199D+06 0.52213199D+06 0.10671835D+01  1  2  3  1  6  1        2 0.325727697627D-04 0.100000000000D+01
-.357671320100D-04 0.000000000000D+00 0.000000000000D+00 0.492148472236D-06 0.000000000000D+00  6 2 2 25 2 2 21 2 0.22609519D+00 0.19991245D+00 0.52213199D+06 0.52213199D+06 0.52213199D+06 0.10671835D+01  1  2 15  1  6  1        2 -.147644533458D-03 0.100000000000D+01
0.939863263230D-09 0.000000000000D+00 0.000000000000D+00 0.492148472236D-06 0.000000000000D+00  6 2 2 25 2 2 21 2 0.23316660D+00 0.19991245D+00 0.53724214D+06 0.53724214D+06 0.53724214D+06 0.10663123D+01  1  2 12  1  6  1        2 0.364516067879D-08 0.100000000000D+01
-.224768324272D-04 0.000000000000D+00 0.000000000000D+00 0.492148472236D-06 0.000000000000D+00  6 2 2 25 2 2 21 2 0.22609519D+00 0.19991245D+00 0.52213199D+06 0.52213199D+06 0.52213199D+06 0.10671835D+01  1  2  4  1  6  1        2 -.927829896009D-04 0.100000000000D+01
-.529558280621D-02 0.000000000000D+00 -.356379640848D-03 0.492148472236D-06 0.000000000000D+00  6 2 2 25 2 2 21 2 0.23311882D+00 0.19991245D+00 0.52213199D+06 0.52213199D+06 0.52213199D+06 0.10671835D+01  1  2  5  1  6  1        2 -.206179628999D-01 0.100000000000D+01
0.530416970609D-02 0.000000000000D+00 0.356212941254D-03 0.492148472236D-06 0.000000000000D+00  6 2 2 25 2 2 21 2 0.22609519D+00 0.19991245D+00 0.52213199D+06 0.52213199D+06 0.52213199D+06 0.10671835D+01  1  2  6  1  6  1        2 0.218952881495D-01 0.100000000000D+01
0.307312926912D-10 0.000000000000D+00 0.000000000000D+00 0.492148472236D-06 0.000000000000D+00  6 21 2 25 2 2 -2 2 0.23316660D+00 0.19991245D+00 0.53724214D+06 0.53724214D+06 0.53724214D+06 0.10663123D+01  1  2 12  4  6  1        2 0.398125455092D-10 0.100000000000D+01
-.289084601024D-04 0.000000000000D+00 -.195356680655D-05 0.492148472236D-06 0.000000000000D+00  6 21 2 25 2 2 -2 2 0.23311882D+00 0.19991245D+00 0.52213199D+06 0.52213199D+06 0.52213199D+06 0.10671835D+01  1  2  5  4  6  1        2 -.376601066138D-04 0.100000000000D+01
  </mgrwgt>
  </event>
  <event>
  5     66 -.18411016E-05 0.23831500E+02 0.75467711E-02 0.93494783E-01
        2 -1    0    0  502    0 0.00000000E+00 0.00000000E+00 0.67660763E+03 0.67660771E+03 0.32000000E+00 0.0000E+00 0.9000E+01
        2 -1    0    0  501    0 -.00000000E+00 -.00000000E+00 -.14929699E+04 0.14929699E+04 0.32000000E+00 0.0000E+00 0.9000E+01
       25  1    1    2    0    0 -.40496487E+03 -.33341197E+03 -.46105600E+03 0.70947707E+03 0.12500000E+03 0.0000E+00 0.9000E+01
        2  1    1    2  501    0 -.23829674E+02 -.15286765E+00 -.77390761E+03 0.77427448E+03 0.32000000E+00 0.0000E+00 0.9000E+01
        2  1    1    2  502    0 0.42879454E+03 0.33356484E+03 0.41860133E+03 0.68582610E+03 0.32000000E+00 0.0000E+00 0.9000E+01
#aMCatNLO 1  0  0  5  1 0.12878536D+02 0.00000000D+00  -5  6  0 0.00000000D+00 0.00000000D+00 0.00000000D+00 0.00000000D+00 0.00000000D+00
  <mgrwgt>
 -.1653906525D-01    8    2    0
 0.100506465170438D+04 0.000000000000000D+00 0.000000000000000D+00 0.100506465170438D+04
 0.100506465170438D+04 -.000000000000000D+00 -.000000000000000D+00 -.100506465170438D+04
 0.578486622330197D+03 -.404958385918667D+03 -.333408083233511D+03 -.209450538131808D+03
 0.521422012704516D+03 -.238310106695029D+02 -.152749549616544D+00 -.520877120759660D+03
 0.910220668374056D+03 0.428789396588170D+03 0.333560832783128D+03 0.730327658891468D+03
 0.000000000000000D+00 0.000000000000000D+00 0.000000000000000D+00 0.000000000000000D+00
 0.100506465170438D+04 0.000000000000000D+00 0.000000000000000D+00 0.100506465170438D+04
 0.100506465170438D+04 -.000000000000000D+00 -.000000000000000D+00 -.100506465170438D+04
 0.578183738545693D+03 -.404786766146627D+03 -.333274577987021D+03 -.209158229909330D+03
 0.521151741897068D+03 -.236763198637622D+02 -.324135655709676D-01 -.520613646487890D+03
 0.839149572407288D+03 0.398288090053682D+03 0.318099893104949D+03 0.666596624803445D+03
 0.716442505587184D+02 0.301749959567068D+02 0.152070984476424D+02 0.631752515937757D+02
0.142850103643D-04 0.000000000000D+00 0.000000000000D+00 0.838715255147D-05 0.000000000000D+00  6 2 2 25 2 2 21 0 0.10409349D+00 0.22968769D+00 0.30598685D+06 0.30598685D+06 0.30598685D+06 0.10839175D+01  1  2  2  3  6  5        2 0.130245339501D-03 0.100000000000D+01
0.936659855673D-05 0.000000000000D+00 -.548582011286D-07 0.838715255147D-05 0.000000000000D+00  6 2 2 25 2 2 21 2 0.10409349D+00 0.22968769D+00 0.30598685D+06 0.30598685D+06 0.30598685D+06 0.10839175D+01  1  2  3  3  6  5        2 0.100335825316D-03 0.100000000000D+01
-.119283441934D-04 0.000000000000D+00 0.000000000000D+00 0.838715255147D-05 0.000000000000D+00  6 2 2 25 2 2 21 2 0.10409349D+00 0.22968769D+00 0.30598685D+06 0.30598685D+06 0.30598685D+06 0.10839175D+01  1  2 15  3  6  5        2 -.127777469276D-03 0.100000000000D+01
0.399046010849D-09 0.000000000000D+00 0.000000000000D+00 0.838715255147D-05 0.000000000000D+00  6 2 2 25 2 2 21 2 0.10409349D+00 0.22968769D+00 0.30593025D+06 0.30593025D+06 0.30593025D+06 0.10839235D+01  1  2 12  3  6  5        2 0.427470174808D-08 0.100000000000D+01
0.205210171999D-02 0.000000000000D+00 0.000000000000D+00 0.838715255147D-05 0.000000000000D+00  6 2 2 25 2 2 21 2 0.10409349D+00 0.22968769D+00 0.30593025D+06 0.30593025D+06 0.30593025D+06 0.10839235D+01  1  2 12  3  6  5        2 0.219827352516D-01 0.100000000000D+01
-.378066914960D-02 0.000000000000D+00 0.000000000000D+00 0.838715255147D-05 0.000000000000D+00  6 2 2 25 2 2 21 2 0.10409349D+00 0.22968769D+00 0.30598685D+06 0.30598685D+06 0.30598685D+06 0.10839175D+01  1  2  4  3  6  5        2 -.404988595460D-01 0.100000000000D+01
-.213899622554D-02 0.000000000000D+00 0.000000000000D+00 0.838715255147D-05 0.000000000000D+00  6 2 2 25 2 2 21 2 0.10409349D+00 0.22968769D+00 0.30598685D+06 0.30598685D+06 0.30598685D+06 0.10839175D+01  1  2  5  3  6  5        2 -.229131151867D-01 0.100000000000D+01
0.231396221922D-02 0.000000000000D+00 -.000000000000D+00 0.838715255147D-05 0.000000000000D+00  6 2 2 25 2 2 21 2 0.10409349D+00 0.22968769D+00 0.30598685D+06 0.30598685D+06 0.30598685D+06 0.10839175D+01  1  2  6  3  6  5        2 0.247873662579D-01 0.100000000000D+01
  </mgrwgt>
  </event>
  <event>
  5     66 0.18411016E-05 0.27737527E+02 0.75467711E-02 0.86056278E-01
        2 -1    0    0  502    0 0.00000000E+00 0.00000000E+00 0.57845796E+03 0.57845804E+03 0.32000000E+00 0.0000E+00 0.9000E+01
        2 -1    0    0  501    0 0.00000000E+00 0.00000000E+00 -.35790480E+04 0.35790480E+04 0.32000000E+00 0.0000E+00 0.9000E+01
       25  1    1    2    0    0 0.90584571E+03 -.24280721E+03 -.18187083E+04 0.20500822E+04 0.12500000E+03 0.0000E+00 0.9000E+01
        2  1    1    2  501    0 -.15368437E+02 0.23088859E+02 -.11898820E+04 0.11902053E+04 0.32000000E+00 0.0000E+00 0.9000E+01
        2  1    1    2  502    0 -.89047727E+03 0.21971835E+03 0.80003028E+01 0.91721864E+03 0.32000000E+00 0.0000E+00 0.9000E+01
#aMCatNLO 1  0  0  2  1 0.12347919D+03 0.00000000D+00  -5  6  0 0.00000000D+00 0.00000000D+00 0.00000000D+00 0.00000000D+00 0.00000000D+00
  <mgrwgt>
 0.2221029249D-02    7    2    0
 0.143886379316695D+04 0.000000000000000D+00 0.000000000000000D+00 0.143886379316695D+04
 0.143886379316695D+04 0.000000000000000D+00 0.000000000000000D+00 -.143886379316695D+04
 0.106541093512730D+04 0.905840063571530D+03 -.242806782596541D+03 -.489871520138364D+03
 0.478862081059506D+03 -.153694264069918D+02 0.230900661099348D+02 -.478058074145390D+03
 0.133345457014710D+04 -.890470637164538D+03 0.219716716486606D+03 0.967929594283755D+03
 0.000000000000000D+00 0.000000000000000D+00 -.000000000000000D+00 -.000000000000000D+00
 0.148750522996642D+04 0.000000000000000D+00 0.000000000000000D+00 0.148750522996642D+04
 0.208201443690446D+04 0.000000000000000D+00 0.000000000000000D+00 -.208201443690446D+04
 0.968554509465087D+03 0.795639853656981D+03 -.222386948437139D+03 -.489871520138364D+03
 0.483914373262135D+03 -.675326367747535D+02 0.327557836776019D+02 -.478058074145390D+03
 0.144278698433322D+04 -.104088735289126D+04 0.247588572559504D+03 0.967929594283755D+03
 0.674263799810443D+03 0.312780136009032D+03 -.579574077999670D+02 -.594509206938040D+03
0.103454487438D-02 0.000000000000D+00 0.000000000000D+00 0.206797510184D-05 0.000000000000D+00  6 2 2 25 2 2 21 0 0.88993540D-01 0.55062278D+00 0.89399442D+06 0.89399442D+06 0.89399442D+06 0.10511189D+01  1  2  2  2  6  2        2 0.579357590836D-03 0.100000000000D+01
0.687152366259D-03 0.000000000000D+00 -.397292471953D-05 0.206797510184D-05 0.000000000000D+00  6 2 2 25 2 2 21 2 0.88993540D-01 0.55062278D+00 0.89399442D+06 0.89399442D+06 0.89399442D+06 0.10511189D+01  1  2  3  2  6  2        2 0.425161653206D-03 0.100000000000D+01
-.734726866792D-03 0.000000000000D+00 0.000000000000D+00 0.206797510184D-05 0.000000000000D+00  6 2 2 25 2 2 21 2 0.88993540D-01 0.55062278D+00 0.89399442D+06 0.89399442D+06 0.89399442D+06 0.10511189D+01  1  2 15  2  6  2        2 -.454597414895D-03 0.100000000000D+01
-.948657563098D-05 0.000000000000D+00 0.000000000000D+00 0.206797510184D-05 0.000000000000D+00  6 2 2 25 2 2 21 2 0.88993540D-01 0.55062278D+00 0.89399442D+06 0.89399442D+06 0.89399442D+06 0.10511189D+01  1  2  4  2  6  2        2 -.586962714032D-05 0.100000000000D+01
-.261031212331D-02 0.000000000000D+00 -.398595283565D-03 0.206797510184D-05 0.000000000000D+00  6 2 2 25 2 2 21 2 0.88993540D-01 0.79903403D+00 0.89399442D+06 0.89399442D+06 0.89399442D+06 0.10511189D+01  1  2  5  2  6  2        2 -.377189883905D-04 0.100000000000D+01
0.277132932499D-02 0.000000000000D+00 0.399981138692D-03 0.206797510184D-05 0.000000000000D+00  6 2 2 25 2 2 21 2 0.88993540D-01 0.55062278D+00 0.89399442D+06 0.89399442D+06 0.89399442D+06 0.10511189D+01  1  2  6  2  6  2        2 0.171470406746D-02 0.100000000000D+01
-.105606183072D-03 0.000000000000D+00 -.180073730869D-04 0.206797510184D-05 0.000000000000D+00  6 2 21 25 2 2 -2 2 0.88993540D-01 0.79903403D+00 0.89399442D+06 0.89399442D+06 0.89399442D+06 0.10511189D+01  1  2  5  5  6  2        2 -.803247088599D-08 0.100000000000D+01
  </mgrwgt>
  </event>
  <event>
  5     66 0.18411016E-05 0.10310211E+03 0.75467711E-02 0.90357278E-01
        2 -1    0    0  502    0 0.00000000E+00 0.00000000E+00 0.21780366E+04 0.21780366E+04 0.32000000E+00 0.0000E+00 0.9000E+01
        2 -1    0    0  501    0 0.00000000E+00 0.00000000E+00 -.99050190E+03 0.99050196E+03 0.32000000E+00 0.0000E+00 0.9000E+01
       25  1    1    2    0    0 0.41397628E+03 0.28827430E+03 0.12328169E+03 0.53413651E+03 0.12500000E+03 0.0000E+00 0.9000E+01
        2  1    1    2  501    0 -.35121719E+03 -.20646900E+03 -.73063941E+03 0.83655066E+03 0.32000000E+00 0.0000E+00 0.9000E+01
        2  1    1    2  502    0 -.62759095E+02 -.81805305E+02 0.17948924E+04 0.17978514E+04 0.32000000E+00 0.0000E+00 0.9000E+01
#aMCatNLO 1  0  0  1  5 0.93979490D+02 0.00000000D+00  -5  6  0 0.00000000D+00 0.00000000D+00 0.00000000D+00 0.00000000D+00 0.00000000D+00
  <mgrwgt>
 0.2009473481D-01    7    2    0
 0.146879185889382D+04 0.000000000000000D+00 0.000000000000000D+00 0.146879185889382D+04
 0.146879185889382D+04 0.000000000000000D+00 0.000000000000000D+00 -.146879185889382D+04
 0.526317728591846D+03 0.414005908419762D+03 0.288290862824457D+03 -.829025791850769D+02
 0.119770543818600D+04 -.351249079478128D+03 -.206488510994372D+03 -.112627034749806D+04
 0.121356055100980D+04 -.627568289416342D+02 -.818023518300850D+02 0.120917292668314D+04
 0.000000000000000D+00 0.000000000000000D+00 -.000000000000000D+00 0.000000000000000D+00
 0.190622333290634D+04 0.000000000000000D+00 0.000000000000000D+00 0.190622333290634D+04
 0.156306788701591D+04 0.000000000000000D+00 0.000000000000000D+00 -.156306788701591D+04
 0.537325051872160D+03 0.381446365180242D+03 0.347446462386168D+03 -.829025791850769D+02
 0.120592883366594D+04 -.424827573540029D+03 -.728078908744753D+02 -.112627034749806D+04
 0.121810373840574D+04 -.137193359729426D+03 0.534371868714588D+02 0.120917292668314D+04
 0.507933595978397D+03 0.180574568089214D+03 -.328075758383152D+03 0.343155445890429D+03
0.428252288683D-02 0.000000000000D+00 0.000000000000D+00 0.327719936934D-04 0.000000000000D+00  6 2 2 25 2 2 21 0 0.33508256D+00 0.15238491D+00 0.26537803D+06 0.26537803D+06 0.26537803D+06 0.10885141D+01  1  2  2  1  6  1        2 0.101097436380D-01 0.100000000000D+01
0.115287552707D-02 0.000000000000D+00 -.164460154996D-04 0.327719936934D-04 0.000000000000D+00  6 2 2 25 2 2 21 2 0.33508256D+00 0.15238491D+00 0.26537803D+06 0.26537803D+06 0.26537803D+06 0.10885141D+01  1  2  3  1  6  1        2 0.322471256652D-02 0.100000000000D+01
-.293035473233D-02 0.000000000000D+00 0.000000000000D+00 0.327719936934D-04 0.000000000000D+00  6 2 2 25 2 2 21 2 0.33508256D+00 0.15238491D+00 0.26537803D+06 0.26537803D+06 0.26537803D+06 0.10885141D+01  1  2 15  1  6  1        2 -.819650648129D-02 0.100000000000D+01
-.576174854933D-04 0.000000000000D+00 0.000000000000D+00 0.327719936934D-04 0.000000000000D+00  6 2 2 25 2 2 21 2 0.33508256D+00 0.15238491D+00 0.26537803D+06 0.26537803D+06 0.26537803D+06 0.10885141D+01  1  2  4  1  6  1        2 -.161162090061D-03 0.100000000000D+01
-.770963412019D-02 0.000000000000D+00 -.329738387093D-02 0.327719936934D-04 0.000000000000D+00  6 2 2 25 2 2 21 2 0.44290278D+00 0.15238491D+00 0.26537803D+06 0.26537803D+06 0.26537803D+06 0.10885141D+01  1  2  5  1  6  1        2 -.842609402977D-02 0.100000000000D+01
0.842386459906D-02 0.000000000000D+00 0.317310574158D-02 0.327719936934D-04 0.000000000000D+00  6 2 2 25 2 2 21 2 0.33508256D+00 0.15238491D+00 0.26537803D+06 0.26537803D+06 0.26537803D+06 0.10885141D+01  1  2  6  1  6  1        2 0.235624240376D-01 0.100000000000D+01
-.216769928559D-03 0.000000000000D+00 -.120922756715D-03 0.327719936934D-04 0.000000000000D+00  6 21 2 25 2 2 -2 2 0.44290278D+00 0.15238491D+00 0.26537803D+06 0.26537803D+06 0.26537803D+06 0.10885141D+01  1  2  5  4  6  1        2 -.183828334311D-04 0.100000000000D+01
  </mgrwgt>
  </event>
  <event>
  5     66 -.18411016E-05 0.35991159E+02 0.75467711E-02 0.95539612E-01
        2 -1    0    0  502    0 0.00000000E+00 0.00000000E+00 0.27785410E+03 0.27785428E+03 0.32000000E+00 0.0000E+00 0.9000E+01
        2 -1    0    0  501    0 -.00000000E+00 -.00000000E+00 -.24292235E+04 0.24292235E+04 0.32000000E+00 0.0000E+00 0.9000E+01
       25  1    1    2    0    0 -.17638468E+03 -.41556890E+03 -.43565073E+03 0.63970745E+03 0.12500000E+03 0.0000E+00 0.9000E+01
        2  1    1    2  501    0 0.42889244E+01 0.35728737E+02 -.16438149E+04 0.16442087E+04 0.32000000E+00 0.0000E+00 0.9000E+01
        2  1    1    2  502    0 0.17209575E+03 0.37984016E+03 -.71903807E+02 0.42316162E+03 0.32000000E+00 0.0000E+00 0.9000E+01
#aMCatNLO 1  0  0  5  2 0.67350050D+02 0.00000000D+00  -5  6  0 0.00000000D+00 0.00000000D+00 0.00000000D+00 0.00000000D+00 0.00000000D+00
  <mgrwgt>
 -.4945210027D-02    6    2    0
 0.821565573799210D+03 0.000000000000000D+00 0.000000000000000D+00 0.821565573799210D+03
 0.821565573799210D+03 -.000000000000000D+00 -.000000000000000D+00 -.821565573799210D+03
 0.483516062770288D+03 -.176366705830468D+03 -.415533367121900D+03 0.119956612321815D+03
 0.556661597675361D+03 0.428971029374927D+01 0.357346038118191D+02 -.555496868400258D+03
 0.602953487152771D+03 0.172076995536719D+03 0.379798763310081D+03 0.435540256078443D+03
 0.000000000000000D+00 0.000000000000000D+00 0.000000000000000D+00 0.000000000000000D+00
 0.821565573799210D+03 0.000000000000000D+00 0.000000000000000D+00 0.821565573799210D+03
 0.821565573799210D+03 -.000000000000000D+00 -.000000000000000D+00 -.821565573799210D+03
 0.483219014819790D+03 -.176184671768454D+03 -.415131591675871D+03 0.120417354687390D+03
 0.556163904719447D+03 0.449925285738385D+01 0.361970944909538D+02 -.554966499878074D+03
 0.284823234276729D+03 0.105408999561592D+03 0.173782015189804D+03 0.199532024476903D+03
 0.318924993782455D+03 0.662764193494787D+02 0.205152481995113D+03 0.235017120713781D+03
0.210269361371D-04 0.000000000000D+00 0.000000000000D+00 0.531261863235D-05 0.000000000000D+00  6 2 2 25 2 2 21 0 0.42746800D-01 0.37372671D+00 0.21222289D+06 0.21222289D+06 0.21222289D+06 0.10958522D+01  1  2  2  3  6  5        2 0.162884513156D-03 0.100000000000D+01
0.105921778095D-04 0.000000000000D+00 -.807489712860D-07 0.531261863235D-05 0.000000000000D+00  6 2 2 25 2 2 21 2 0.42746800D-01 0.37372671D+00 0.21222289D+06 0.21222289D+06 0.21222289D+06 0.10958522D+01  1  2  3  3  6  5        2 0.985355765939D-04 0.100000000000D+01
-.144898295854D-04 0.000000000000D+00 0.000000000000D+00 0.531261863235D-05 0.000000000000D+00  6 2 2 25 2 2 21 2 0.42746800D-01 0.37372671D+00 0.21222289D+06 0.21222289D+06 0.21222289D+06 0.10958522D+01  1  2 15  3  6  5        2 -.134794160240D-03 0.100000000000D+01
-.848109086564D-03 0.000000000000D+00 0.000000000000D+00 0.531261863235D-05 0.000000000000D+00  6 2 2 25 2 2 21 2 0.42746800D-01 0.37372671D+00 0.21222289D+06 0.21222289D+06 0.21222289D+06 0.10958522D+01  1  2  4  3  6  5        2 -.788968230726D-02 0.100000000000D+01
-.475673812725D-03 0.000000000000D+00 0.000000000000D+00 0.531261863235D-05 0.000000000000D+00  6 2 2 25 2 2 21 2 0.42746800D-01 0.37372671D+00 0.21222289D+06 0.21222289D+06 0.21222289D+06 0.10958522D+01  1  2  5  3  6  5        2 -.442503838685D-02 0.100000000000D+01
0.778580951658D-03 0.000000000000D+00 -.000000000000D+00 0.531261863235D-05 0.000000000000D+00  6 2 2 25 2 2 21 2 0.42746800D-01 0.37372671D+00 0.21222289D+06 0.21222289D+06 0.21222289D+06 0.10958522D+01  1  2  6  3  6  5        2 0.724288473780D-02 0.100000000000D+01
  </mgrwgt>
  </event>
  <event>
  5     66 -.18411016E-05 0.11314886E+03 0.75467711E-02 0.95020158E-01
        2 -1    0    0  502    0 0.00000000E+00 0.00000000E+00 0.25264947E+04 0.25264947E+04 0.32000000E+00 0.0000E+00 0.9000E+01
        2 -1    0    0  501    0 0.00000000E+00 0.00000000E+00 -.11908670E+04 0.11908670E+04 0.32000000E+00 0.0000E+00 0.9000E+01
       25  1    1    2    0    0 0.16024335E+03 0.42804380E+03 -.51507117E+03 0.69987337E+03 0.12500000E+03 0.0000E+00 0.9000E+01
        2  1    1    2  501    0 -.99415021E+02 -.54040691E+02 -.56298456E+03 0.57424338E+03 0.32000000E+00 0.0000E+00 0.9000E+01
        2  1    1    2  502    0 -.60828327E+02 -.37400311E+03 0.24136834E+04 0.24432450E+04 0.32000000E+00 0.0000E+00 0.9000E+01
#aMCatNLO 1  0  0  5  1 0.81638273D+01 0.00000000D+00  -5  6  0 0.00000000D+00 0.00000000D+00 0.00000000D+00 0.00000000D+00 0.00000000D+00
  <mgrwgt>
 -.4628973597D-01    9    2    0
 0.173456602040161D+04 0.000000000000000D+00 0.000000000000000D+00 0.173456602040161D+04
 0.173456602040161D+04 -.000000000000000D+00 -.000000000000000D+00 -.173456602040161D+04
 0.948282802098242D+03 0.160239538610834D+03 0.428041770004621D+03 -.821412689305681D+03
 0.832053832849807D+03 -.994110951403169D+02 -.540379472876244D+02 -.824324520547579D+03
 0.168879540585518D+04 -.608284434705173D+02 -.374003822716996D+03 0.164573720985326D+04
 0.000000000000000D+00 0.000000000000000D+00 0.000000000000000D+00 0.000000000000000D+00
 0.173456602040161D+04 0.000000000000000D+00 0.000000000000000D+00 0.173456602040161D+04
 0.173456602040161D+04 -.000000000000000D+00 -.000000000000000D+00 -.173456602040161D+04
 0.948244499699587D+03 0.160238086658992D+03 0.428032842675426D+03 -.821373406183558D+03
 0.832020345777712D+03 -.994123691296587D+02 -.540457804139838D+02 -.824290052270155D+03
 0.142007121697986D+04 -.548496183848250D+02 -.321551424834714D+03 0.138209929521885D+04
 0.268795978346076D+03 -.597609914450843D+01 -.524356374267272D+02 0.263564163234860D+03
0.324501966920D-04 0.000000000000D+00 0.000000000000D+00 0.313702479865D-04 0.000000000000D+00  6 2 2 25 2 2 21 0 0.38869150D+00 0.18321031D+00 0.23324262D+06 0.23324262D+06 0.23324262D+06 0.10927332D+01  1  2  2  3  6  5        2 0.372733804368D-04 0.100000000000D+01
0.360580239558D-05 0.000000000000D+00 -.124617299630D-06 0.313702479865D-04 0.000000000000D+00  6 2 2 25 2 2 21 2 0.38869150D+00 0.18321031D+00 0.23324262D+06 0.23324262D+06 0.23324262D+06 0.10927332D+01  1  2  3  3  6  5        2 0.494551641798D-05 0.100000000000D+01
-.215667335238D-04 0.000000000000D+00 0.000000000000D+00 0.313702479865D-04 0.000000000000D+00  6 2 2 25 2 2 21 2 0.38869150D+00 0.18321031D+00 0.23324262D+06 0.23324262D+06 0.23324262D+06 0.10927332D+01  1  2 15  3  6  5        2 -.295797226311D-04 0.100000000000D+01
0.384292952850D-09 0.000000000000D+00 0.000000000000D+00 0.313702479865D-04 0.000000000000D+00  6 2 2 25 2 2 21 2 0.38869150D+00 0.18321031D+00 0.23326638D+06 0.23326638D+06 0.23326638D+06 0.10927299D+01  1  2 12  3  6  5        2 0.527066873298D-09 0.100000000000D+01
0.740091844921D-01 0.000000000000D+00 0.000000000000D+00 0.313702479865D-04 0.000000000000D+00  6 2 2 25 2 2 21 2 0.38869150D+00 0.18321031D+00 0.23326638D+06 0.23326638D+06 0.23326638D+06 0.10927299D+01  1  2 12  3  6  5        2 0.101505346836D+00 0.100000000000D+01
-.120977960689D+00 0.000000000000D+00 0.000000000000D+00 0.313702479865D-04 0.000000000000D+00  6 2 2 25 2 2 21 2 0.38869150D+00 0.18321031D+00 0.23324262D+06 0.23324262D+06 0.23324262D+06 0.10927332D+01  1  2  4  3  6  5        2 -.165926588638D+00 0.100000000000D+01
-.750920515465D-01 0.000000000000D+00 0.000000000000D+00 0.313702479865D-04 0.000000000000D+00  6 2 2 25 2 2 21 2 0.38869150D+00 0.18321031D+00 0.23324262D+06 0.23324262D+06 0.23324262D+06 0.10927332D+01  1  2  5  3  6  5        2 -.102992048105D+00 0.100000000000D+01
0.879810751702D-01 0.000000000000D+00 -.000000000000D+00 0.313702479865D-04 0.000000000000D+00  6 2 2 25 2 2 21 2 0.38869150D+00 0.18321031D+00 0.23324262D+06 0.23324262D+06 0.23324262D+06 0.10927332D+01  1  2  6  3  6  5        2 0.120669910325D+00 0.100000000000D+01
0.321543057699D-03 0.000000000000D+00 0.000000000000D+00 0.313702479865D-04 0.281674839057D-05  6 2 2 25 2 2 21 2 0.38869150D+00 0.18321031D+00 0.23326638D+06 0.23326638D+06 0.23326638D+06 0.10927299D+01  1  2 11  3  6  5        2 0.441003908074D-03 0.100000000000D+01
  </mgrwgt>
  </event>
  <event>
  6     66 0.18411016E-05 0.80392972E+02 0.75467711E-02 0.95198051E-01
        2 -1    0    0  502    0 0.00000000E+00 0.00000000E+00 0.73509815E+03 0.73509822E+03 0.32000000E+00 0.0000E+00 0.9000E+01
        2 -1    0    0  501    0 -.00000000E+00 -.00000000E+00 -.13947073E+04 0.13947073E+04 0.32000000E+00 0.0000E+00 0.9000E+01
       25  1    1    2    0    0 -.57406562E+01 -.45509731E+03 -.73728363E+03 0.87541914E+03 0.12500000E+03 0.0000E+00 0.9000E+01
        2  1    1    2  501    0 -.21959039E+02 0.62912642E+02 -.52214604E+03 0.52638084E+03 0.32000000E+00 0.0000E+00 0.9000E+01
        2  1    1    2  503    0 0.77243867E+02 0.21559278E+03 0.34237859E+03 0.41191027E+03 0.32000000E+00 0.0000E+00 0.9000E+01
       21  1    1    2  502  503 -.49544172E+02 0.17659188E+03 0.25744194E+03 0.31609530E+03 0.75000000E+00 0.0000E+00 0.9000E+01
#aMCatNLO 2  0  0  5  1 0.27811320D+01 0.00000000D+00  -5  6  0 0.00000000D+00 0.00000000D+00 0.00000000D+00 0.00000000D+00 0.00000000D+00
  <mgrwgt>
 0.8380953976D-02    1    2    0
 0.101254474600745D+04 0.000000000000000D+00 0.000000000000000D+00 0.101254474600745D+04
 0.101254474600745D+04 -.000000000000000D+00 -.000000000000000D+00 -.101254474600745D+04
 0.682966141127419D+03 -.581180863700106D+01 -.456244256630838D+03 -.492569945386662D+03
 0.384995773622012D+03 -.220120749431047D+02 0.623012696702167D+02 -.379283226706626D+03
 0.957127577265467D+03 0.278238835801058D+02 0.393942986960621D+03 0.871853172093288D+03
 0.000000000000000D+00 0.000000000000000D+00 0.000000000000000D+00 0.000000000000000D+00
 0.101254474600745D+04 0.000000000000000D+00 0.000000000000000D+00 0.101254474600745D+04
 0.101254474600745D+04 -.000000000000000D+00 -.000000000000000D+00 -.101254474600745D+04
 0.680398967364364D+03 -.573172701714759D+01 -.455110425243321D+03 -.490060611486720D+03
 0.383703775582232D+03 -.219669229110500D+02 0.629405523326734D+02 -.377868401121260D+03
 0.544455620251014D+03 0.772412824001625D+02 0.215478709516388D+03 0.493998615849526D+03
 0.416531128817288D+03 -.495426324719649D+02 0.176691163394260D+03 0.373930396758454D+03
0.739516363527D-03 0.000000000000D+00 0.000000000000D+00 0.629301526650D-05 0.326438329483D-08  6 2 2 25 2 2 21 2 0.11309203D+00 0.21457036D+00 0.22613499D+06 0.22613499D+06 0.22613499D+06 0.10937523D+01  1  2  1  3  6  5        2 0.838095397589D-02 0.100000000000D+01
  </mgrwgt>
  </event>
  <event>
  5     66 -.18411016E-05 0.16130561E+03 0.75467711E-02 0.91347070E-01
        2 -1    0    0  502    0 0.00000000E+00 0.00000000E+00 0.19952089E+04 0.19952089E+04 0.32000000E+00 0.0000E+00 0.9000E+01
        2 -1    0    0  501    0 0.00000000E+00 0.00000000E+00 -.88922328E+03 0.88922333E+03 0.32000000E+00 0.0000E+00 0.9000E+01
       25  1    1    2    0    0 0.11762636E+03 -.64288690E+03 0.88741039E+03 0.11091716E+04 0.12500000E+03 0.0000E+00 0.9000E+01
        2  1    1    2  501    0 -.10966984E+02 0.52182023E+03 -.68286798E+03 0.85949136E+03 0.32000000E+00 0.0000E+00 0.9000E+01
        2  1    1    2  502    0 -.10665938E+03 0.12106667E+03 0.90144324E+03 0.91576928E+03 0.32000000E+00 0.0000E+00 0.9000E+01
#aMCatNLO 1  0  0  5  1 0.12244343D+02 0.00000000D+00  -5  6  0 0.00000000D+00 0.00000000D+00 0.00000000D+00 0.00000000D+00 0.00000000D+00
  <mgrwgt>
 -.2157445751D-02    8    2    0
 0.133198586161212D+04 0.000000000000000D+00 0.000000000000000D+00 0.133198586161212D+04
 0.133198586161212D+04 -.000000000000000D+00 -.000000000000000D+00 -.133198586161212D+04
 0.832666375140784D+03 0.117602543487940D+03 -.642918948024151D+03 0.500532876369553D+03
 0.121416173353317D+04 -.109715639279528D+02 0.521884511280377D+03 -.109622301419323D+04
 0.617143614550291D+03 -.106630979559987D+03 0.121034436743774D+03 0.595690137823679D+03
 0.000000000000000D+00 0.000000000000000D+00 0.000000000000000D+00 0.000000000000000D+00
 0.133198586161212D+04 0.000000000000000D+00 0.000000000000000D+00 0.133198586161212D+04
 0.133198586161212D+04 -.000000000000000D+00 -.000000000000000D+00 -.133198586161212D+04
 0.832760995677430D+03 0.117562127488355D+03 -.642873072728197D+03 0.500758658899757D+03
 0.121389383462498D+04 -.110304871176125D+02 0.521951393673290D+03 -.109589384191033D+04
 0.491153507654852D+03 -.875502600088808D+02 0.107891752779501D+03 0.471090320147006D+03
 0.126163385266988D+03 -.189813803618619D+02 0.130299262754066D+02 0.124044862863571D+03
0.233943644831D-05 0.000000000000D+00 0.000000000000D+00 0.629154091494D-06 0.000000000000D+00  6 2 2 25 2 2 21 0 0.30695523D+00 0.13680359D+00 0.45477336D+06 0.45477336D+06 0.45477336D+06 0.10714326D+01  1  2  2  3  6  5        2 0.780218383278D-05 0.100000000000D+01
0.281639366134D-06 0.000000000000D+00 -.898405194928D-08 0.629154091494D-06 0.000000000000D+00  6 2 2 25 2 2 21 2 0.30695523D+00 0.13680359D+00 0.45477336D+06 0.45477336D+06 0.45477336D+06 0.10714326D+01  1  2  3  3  6  5        2 0.107827126998D-05 0.100000000000D+01
-.169592929319D-05 0.000000000000D+00 0.000000000000D+00 0.629154091494D-06 0.000000000000D+00  6 2 2 25 2 2 21 2 0.30695523D+00 0.13680359D+00 0.45477336D+06 0.45477336D+06 0.45477336D+06 0.10714326D+01  1  2 15  3  6  5        2 -.649295536296D-05 0.100000000000D+01
0.290446261203D-09 0.000000000000D+00 0.000000000000D+00 0.629154091494D-06 0.000000000000D+00  6 2 2 25 2 2 21 2 0.30695523D+00 0.13680359D+00 0.45523151D+06 0.45523151D+06 0.45523151D+06 0.10714015D+01  1  2 12  3  6  5        2 0.111185227696D-08 0.100000000000D+01
0.337988951796D-03 0.000000000000D+00 0.000000000000D+00 0.629154091494D-06 0.000000000000D+00  6 2 2 25 2 2 21 2 0.30695523D+00 0.13680359D+00 0.45523151D+06 0.45523151D+06 0.45523151D+06 0.10714015D+01  1  2 12  3  6  5        2 0.129384962328D-02 0.100000000000D+01
-.987958311772D-03 0.000000000000D+00 0.000000000000D+00 0.629154091494D-06 0.000000000000D+00  6 2 2 25 2 2 21 2 0.30695523D+00 0.13680359D+00 0.45477336D+06 0.45477336D+06 0.45477336D+06 0.10714326D+01  1  2  4  3  6  5        2 -.378245086312D-02 0.100000000000D+01
-.352043480068D-03 0.000000000000D+00 0.000000000000D+00 0.629154091494D-06 0.000000000000D+00  6 2 2 25 2 2 21 2 0.30695523D+00 0.13680359D+00 0.45477336D+06 0.45477336D+06 0.45477336D+06 0.10714326D+01  1  2  5  3  6  5        2 -.134781715906D-02 0.100000000000D+01
0.437915836680D-03 0.000000000000D+00 -.000000000000D+00 0.629154091494D-06 0.000000000000D+00  6 2 2 25 2 2 21 2 0.30695523D+00 0.13680359D+00 0.45477336D+06 0.45477336D+06 0.45477336D+06 0.10714326D+01  1  2  6  3  6  5        2 0.167658403668D-02 0.100000000000D+01
  </mgrwgt>
  </event>
  <event>
  5     66 0.18411016E-05 0.52166640E+02 0.75467711E-02 0.92598779E-01
        2 -1    0    0  502    0 0.00000000E+00 0.00000000E+00 0.27626392E+04 0.27626392E+04 0.32000000E+00 0.0000E+00 0.9000E+01
        2 -1    0    0  501    0 0.00000000E+00 0.00000000E+00 -.73254751E+03 0.73254758E+03 0.32000000E+00 0.0000E+00 0.9000E+01
       25  1    1    2    0    0 -.14017823E+03 0.56631874E+03 -.12196657E+03 0.60898908E+03 0.12500000E+03 0.0000E+00 0.9000E+01
        2  1    1    2  501    0 0.14960134E+03 -.51500853E+03 -.17073498E+03 0.56281870E+03 0.32000000E+00 0.0000E+00 0.9000E+01
        2  1    1    2  502    0 -.94231107E+01 -.51310212E+02 0.23227932E+04 0.23233790E+04 0.32000000E+00 0.0000E+00 0.9000E+01
#aMCatNLO 1  0  0  1  4 0.25232390D+02 0.00000000D+00  -5  6  0 0.00000000D+00 0.00000000D+00 0.00000000D+00 0.00000000D+00 0.00000000D+00
  <mgrwgt>
 0.6700795675D-02    9    2    0
 0.142259080809831D+04 0.000000000000000D+00 0.000000000000000D+00 0.142259080809831D+04
 0.142259080809831D+04 0.000000000000000D+00 0.000000000000000D+00 -.142259080809831D+04
 0.835155961848987D+03 -.140191090202471D+03 0.566364705033002D+03 -.584326928810087D+03
 0.813247544925509D+03 0.149613898697333D+03 -.515056138079347D+03 -.611313688110073D+03
 0.119677810942212D+04 -.942280849486210D+01 -.513085669536550D+02 0.119564061692016D+04
 0.000000000000000D+00 -.000000000000000D+00 -.000000000000000D+00 0.000000000000000D+00
 0.149391488436033D+04 0.000000000000000D+00 0.000000000000000D+00 0.149391488436033D+04
 0.142488012386796D+04 0.000000000000000D+00 0.000000000000000D+00 -.142488012386796D+04
 0.839274395423986D+03 -.137177050599960D+03 0.573150074474709D+03 -.584326928810087D+03
 0.809643704967567D+03 0.152535165907104D+03 -.508479622880368D+03 -.611313688110073D+03
 0.119637539987509D+04 -.511503933588841D+01 -.416106833595321D+02 0.119564061692016D+04
 0.735015079616399D+02 -.102430759712553D+02 -.230597682348091D+02 0.690347604923707D+02
0.343707363172D-03 0.000000000000D+00 0.000000000000D+00 0.877742022645D-05 0.000000000000D+00  6 2 2 25 2 2 21 0 0.42502142D+00 0.11269962D+00 0.35118064D+06 0.35118064D+06 0.35118064D+06 0.10795266D+01  1  2  2  1  6  1        2 0.544180620449D-03 0.100000000000D+01
0.178609682212D-03 0.000000000000D+00 -.131992677481D-05 0.877742022645D-05 0.000000000000D+00  6 2 2 25 2 2 21 2 0.42502142D+00 0.11269962D+00 0.35118064D+06 0.35118064D+06 0.35118064D+06 0.10795266D+01  1  2  3  1  6  1        2 0.329553525553D-03 0.100000000000D+01
-.247386331193D-03 0.000000000000D+00 0.000000000000D+00 0.877742022645D-05 0.000000000000D+00  6 2 2 25 2 2 21 2 0.42502142D+00 0.11269962D+00 0.35118064D+06 0.35118064D+06 0.35118064D+06 0.10795266D+01  1  2 15  1  6  1        2 -.456453628990D-03 0.100000000000D+01
0.372594404324D-09 0.000000000000D+00 0.000000000000D+00 0.877742022645D-05 0.000000000000D+00  6 2 2 25 2 2 21 2 0.44701171D+00 0.11269962D+00 0.36028209D+06 0.36028209D+06 0.36028209D+06 0.10787171D+01  1  2 12  1  6  1        2 0.559715111715D-09 0.100000000000D+01
-.715723126594D-04 0.000000000000D+00 0.000000000000D+00 0.877742022645D-05 0.000000000000D+00  6 2 2 25 2 2 21 2 0.42502142D+00 0.11269962D+00 0.35118064D+06 0.35118064D+06 0.35118064D+06 0.10795266D+01  1  2  4  1  6  1        2 -.132058395025D-03 0.100000000000D+01
-.192760607845D-01 0.000000000000D+00 -.111445225844D-02 0.877742022645D-05 0.000000000000D+00  6 2 2 25 2 2 21 2 0.44652770D+00 0.11269962D+00 0.35118064D+06 0.35118064D+06 0.35118064D+06 0.10795266D+01  1  2  5  1  6  1        2 -.291906396738D-01 0.100000000000D+01
0.193088998336D-01 0.000000000000D+00 0.111309590196D-02 0.877742022645D-05 0.000000000000D+00  6 2 2 25 2 2 21 2 0.42502142D+00 0.11269962D+00 0.35118064D+06 0.35118064D+06 0.35118064D+06 0.10795266D+01  1  2  6  1  6  1        2 0.356269376660D-01 0.100000000000D+01
0.674052105405D-11 0.000000000000D+00 0.000000000000D+00 0.877742022645D-05 0.000000000000D+00  6 21 2 25 2 2 -2 2 0.44701171D+00 0.11269962D+00 0.36028209D+06 0.36028209D+06 0.36028209D+06 0.10787171D+01  1  2 12  4  6  1        2 0.749086435724D-12 0.100000000000D+01
-.184070946922D-03 0.000000000000D+00 -.959231997848D-05 0.877742022645D-05 0.000000000000D+00  6 21 2 25 2 2 -2 2 0.44652770D+00 0.11269962D+00 0.35118064D+06 0.35118064D+06 0.35118064D+06 0.10795266D+01  1  2  5  4  6  1        2 -.207249997208D-04 0.100000000000D+01
  </mgrwgt>
  </event>
  <event>
  6     66 0.18411016E-05 0.62152447E+02 0.75467711E-02 0.92029948E-01
        2 -1    0    0  502    0 0.00000000E+00 0.00000000E+00 0.12765552E+04 0.12765552E+04 0.32000000E+00 0.0000E+00 0.9000E+01
        2 -1    0    0  501    0 0.00000000E+00 0.00000000E+00 -.80063833E+03 0.80063839E+03 0.32000000E+00 0.0000E+00 0.9000E+01
       25  1    1    2    0    0 0.30063992E+03 0.42464603E+03 0.23495349E+03 0.58441146E+03 0.12500000E+03 0.0000E+00 0.9000E+01
        2  1    1    2  501    0 -.31279310E+03 -.48928593E+03 -.48192200E+03 0.75464506E+03 0.32000000E+00 0.0000E+00 0.9000E+01
        2  1    1    2  503    0 0.55957033E+02 -.15343749E+02 0.29098454E+03 0.29671321E+03 0.32000000E+00 0.0000E+00 0.9000E+01
       21  1    1    2  502  503 -.43803855E+02 0.79983649E+02 0.43190080E+03 0.44142386E+03 0.75000000E+00 0.0000E+00 0.9000E+01
#aMCatNLO 2  0  0  5  2 0.65527496D+02 0.00000000D+00  -5  6  0 0.00000000D+00 0.00000000D+00 0.00000000D+00 0.00000000D+00 0.00000000D+00
  <mgrwgt>
 0.1113434035D-03    2    2    0
 0.101096938403460D+04 0.000000000000000D+00 0.000000000000000D+00 0.101096938403460D+04
 0.101096938403460D+04 -.000000000000000D+00 -.000000000000000D+00 -.101096938403460D+04
 0.544254338725801D+03 0.300720138482503D+03 0.424458833913206D+03 0.999493964262179D+02
 0.894405290444837D+03 -.313098042699501D+03 -.490294000231849D+03 -.679368995885230D+03
 0.583279138898564D+03 0.123779042169984D+02 0.658351663186441D+02 0.579419599459012D+03
 0.000000000000000D+00 0.000000000000000D+00 0.000000000000000D+00 0.000000000000000D+00
 0.101096938403460D+04 0.000000000000000D+00 0.000000000000000D+00 0.101096938403460D+04
 0.101096938403460D+04 -.000000000000000D+00 -.000000000000000D+00 -.101096938403460D+04
 0.545447973023567D+03 0.300808797234099D+03 0.424930388996729D+03 0.104099583520690D+03
 0.888781393269430D+03 -.312952961695694D+03 -.489522348436207D+03 -.672577638023555D+03
 0.235700941861000D+03 0.558691660462382D+02 -.153548807207610D+02 0.228468373998485D+03
 0.352008459915205D+03 -.437250015846427D+02 0.799468401602394D+02 0.340009680504381D+03
-.178376282102D-09 0.000000000000D+00 0.000000000000D+00 0.220292067053D-05 0.000000000000D+00  6 2 2 25 2 2 21 2 0.19639311D+00 0.12317514D+00 0.40036933D+06 0.40036933D+06 0.40036933D+06 0.10753987D+01  1  2 13  3  6  5        2 -.198935753826D-08 0.100000000000D+01
0.998381478806D-05 0.000000000000D+00 0.000000000000D+00 0.220292067053D-05 0.459230683164D-10  6 2 2 25 2 2 21 2 0.19639311D+00 0.12317514D+00 0.40036933D+06 0.40036933D+06 0.40036933D+06 0.10753987D+01  1  2  1  3  6  5        2 0.111345392870D-03 0.100000000000D+01
  </mgrwgt>
  </event>
  <event>
  5     66 0.18411016E-05 0.11851595E+03 0.75467711E-02 0.95127654E-01
        2 -1    0    0  502    0 0.00000000E+00 0.00000000E+00 0.21959549E+03 0.21959573E+03 0.32000000E+00 0.0000E+00 0.9000E+01
        2 -1    0    0  501    0 -.00000000E+00 -.00000000E+00 -.16286659E+04 0.16286659E+04 0.32000000E+00 0.0000E+00 0.9000E+01
       25  1    1    2    0    0 0.36747507E+03 0.28390072E+03 -.42340857E+03 0.64073190E+03 0.12500000E+03 0.0000E+00 0.9000E+01
        2  1    1    2  501    0 -.25317974E+03 -.25221487E+03 -.10226466E+04 0.10832905E+04 0.32000000E+00 0.0000E+00 0.9000E+01
        2  1    1    2  502    0 -.11429534E+03 -.31685857E+02 0.36984700E+02 0.12423924E+03 0.32000000E+00 0.0000E+00 0.9000E+01
#aMCatNLO 1  0  0  5  2 0.65527496D+02 0.00000000D+00  -5  6  0 0.00000000D+00 0.00000000D+00 0.00000000D+00 0.00000000D+00 0.00000000D+00
  <mgrwgt>
 0.1845231103D-02    1    2    0
 0.598036739111671D+03 0.000000000000000D+00 0.000000000000000D+00 0.598036739111671D+03
 0.598036739111671D+03 -.000000000000000D+00 -.000000000000000D+00 -.598036739111671D+03
 0.491366294174244D+03 0.367478239349678D+03 0.283948291225702D+03 0.100741980152237D+03
 0.469331891830655D+03 -.253269823309411D+03 -.252286531585752D+03 -.304102494679989D+03
 0.235375292218442D+03 -.114208416040268D+03 -.316617596399503D+02 0.203360514527753D+03
 0.000000000000000D+00 0.000000000000000D+00 0.000000000000000D+00 -.000000000000000D+00
 0.598036739111671D+03 0.000000000000000D+00 0.000000000000000D+00 0.598036739111671D+03
 0.598036739111671D+03 -.000000000000000D+00 -.000000000000000D+00 -.598036739111671D+03
 0.485426290986303D+03 0.355454535502897D+03 0.280614985026582D+03 0.122151493440196D+03
 0.464559214954864D+03 -.264765436875403D+03 -.255473436423937D+03 -.283633303611197D+03
 0.212290066757255D+03 -.816704580033076D+02 -.320589488934845D+02 0.193311232289214D+03
 0.337979055249191D+02 -.901864062418607D+01 0.691740029083992D+01 -.318294221182136D+02
0.557297335157D-04 0.000000000000D+00 0.000000000000D+00 0.659013079605D-07 0.000000000000D+00  6 2 2 25 2 2 21 2 0.33783943D-01 0.25056401D+00 0.22892737D+06 0.22892737D+06 0.22892737D+06 0.10933478D+01  1  2 14  3  6  5        2 0.184523110272D-02 0.100000000000D+01
  </mgrwgt>
  </event>
  <event>
  5     66 0.18411016E-05 0.52104750E+02 0.75467711E-02 0.92334011E-01
        2 -1    0    0  502    0 0.00000000E+00 0.00000000E+00 0.28956672E+04 0.28956672E+04 0.32000000E+00 0.0000E+00 0.9000E+01
        2 -1    0    0  501    0 0.00000000E+00 0.00000000E+00 -.22484083E+04 0.22484083E+04 0.32000000E+00 0.0000E+00 0.9000E+01
       25  1    1    2    0    0 0.12571096E+03 -.60068005E+03 -.13513548E+04 0.14894310E+04 0.12500000E+03 0.0000E+00 0.9000E+01
        2  1    1    2  501    0 -.49894365E+02 -.15037738E+02 -.79311147E+03 0.79482167E+03 0.32000000E+00 0.0000E+00 0.9000E+01
        2  1    1    2  502    0 -.75816598E+02 0.61571779E+03 0.27917253E+04 0.28598228E+04 0.32000000E+00 0.0000E+00 0.9000E+01
#aMCatNLO 1  0  0  5  1 0.48408430D+03 0.00000000D+00  -5  6  0 0.00000000D+00 0.00000000D+00 0.00000000D+00 0.00000000D+00 0.00000000D+00
  <mgrwgt>
 0.6223212315D-02    4    2    0
 0.255159599496341D+04 0.000000000000000D+00 0.000000000000000D+00 0.255159599496341D+04
 0.255159599496341D+04 -.000000000000000D+00 -.000000000000000D+00 -.255159599496341D+04
 0.167289293660062D+04 0.125704741475367D+03 -.600682632370769D+03 -.155123320956811D+04
 0.901646140263628D+03 -.498879907711922D+02 -.150364008263727D+02 -.900139354366478D+03
 0.252865291306256D+04 -.758167507041750D+02 0.615719033197141D+03 0.245137256393459D+04
 0.000000000000000D+00 0.000000000000000D+00 0.000000000000000D+00 0.000000000000000D+00
 0.255159599496341D+04 0.000000000000000D+00 0.000000000000000D+00 0.255159599496341D+04
 0.255159599496341D+04 -.000000000000000D+00 -.000000000000000D+00 -.255159599496341D+04
 0.155906083850928D+04 0.122249501974715D+03 -.572622121928857D+03 -.143951542642581D+04
 0.841478291919263D+03 -.517515422981400D+02 0.977764343019754D-01 -.839885399373565D+03
 0.543483139523784D+03 -.806342241132724D+02 0.523715379221859D+03 0.120806648884840D+03
 0.215916971997448D+04 0.101362644366977D+02 0.488089662726956D+02 0.215859417691454D+04
0.227730564732D+00 0.000000000000D+00 0.000000000000D+00 0.821091061997D-04 0.000000000000D+00  6 2 2 25 2 2 21 0 0.44548726D+00 0.34590896D+00 0.42170074D+06 0.42170074D+06 0.42170074D+06 0.10737775D+01  1  2  2  3  6  5        2 0.384661756849D-01 0.100000000000D+01
0.618860054747D-01 0.000000000000D+00 -.874545331407D-03 0.821091061997D-04 0.000000000000D+00  6 2 2 25 2 2 21 2 0.44548726D+00 0.34590896D+00 0.42170074D+06 0.42170074D+06 0.42170074D+06 0.10737775D+01  1  2  3  3  6  5        2 0.120525439507D-01 0.100000000000D+01
-.176765745139D+00 0.000000000000D+00 0.000000000000D+00 0.821091061997D-04 0.000000000000D+00  6 2 2 25 2 2 21 2 0.44548726D+00 0.34590896D+00 0.42170074D+06 0.42170074D+06 0.42170074D+06 0.10737775D+01  1  2 15  3  6  5        2 -.344258269042D-01 0.100000000000D+01
-.506776908502D-01 0.000000000000D+00 0.000000000000D+00 0.821091061997D-04 0.000000000000D+00  6 2 2 25 2 2 21 2 0.44548726D+00 0.34590896D+00 0.42170074D+06 0.42170074D+06 0.42170074D+06 0.10737775D+01  1  2  5  3  6  5        2 -.986968041653D-02 0.100000000000D+01
  </mgrwgt>
  </event>
  <event>
  5     66 0.18411016E-05 0.98674141E+02 0.75467711E-02 0.92677406E-01
        2 -1    0    0  502    0 0.00000000E+00 0.00000000E+00 0.12948450E+04 0.12948451E+04 0.32000000E+00 0.0000E+00 0.9000E+01
        2 -1    0    0  501    0 0.00000000E+00 0.00000000E+00 -.74162343E+03 0.74162350E+03 0.32000000E+00 0.0000E+00 0.9000E+01
       25  1    1    2    0    0 -.41548886E+03 -.41527567E+03 0.82842740E+03 0.10232311E+04 0.12500000E+03 0.0000E+00 0.9000E+01
        2  1    1    2  501    0 0.36404565E+03 0.33094375E+03 -.54006047E+03 0.73056034E+03 0.32000000E+00 0.0000E+00 0.9000E+01
        2  1    1    2  502    0 0.51443207E+02 0.84331918E+02 0.26485465E+03 0.28267714E+03 0.32000000E+00 0.0000E+00 0.9000E+01
#aMCatNLO 1  0  0  5  1 0.29431451D+02 0.00000000D+00  -5  6  0 0.00000000D+00 0.00000000D+00 0.00000000D+00 0.00000000D+00 0.00000000D+00
  <mgrwgt>
 0.1031775054D-02    8    2    0
 0.979942610086515D+03 0.000000000000000D+00 0.000000000000000D+00 0.979942610086515D+03
 0.979942610086515D+03 -.000000000000000D+00 -.000000000000000D+00 -.979942610086515D+03
 0.829535944415339D+03 -.415496674121746D+03 -.415245456982325D+03 0.572222515570959D+03
 0.911631289129037D+03 0.364110670436285D+03 0.331007313793656D+03 -.767417217169786D+03
 0.218717986628654D+03 0.513860036854616D+02 0.842381431886685D+02 0.195194701598827D+03
 0.000000000000000D+00 0.000000000000000D+00 0.000000000000000D+00 0.000000000000000D+00
 0.979942610086515D+03 0.000000000000000D+00 0.000000000000000D+00 0.979942610086515D+03
 0.979942610086515D+03 -.000000000000000D+00 -.000000000000000D+00 -.979942610086515D+03
 0.830609590506786D+03 -.414675186653560D+03 -.413898775512477D+03 0.575343015117901D+03
 0.909651769884694D+03 0.365011893357725D+03 0.332484707248222D+03 -.763993834797003D+03
 0.126258049845087D+03 0.271973089189948D+02 0.204684174696402D+02 0.121583080338251D+03
 0.933658099364632D+02 0.224659843768407D+02 0.609456507946148D+02 0.670677393408499D+02
0.185784316461D-04 0.000000000000D+00 0.000000000000D+00 0.140763847956D-06 0.000000000000D+00  6 2 2 25 2 2 21 0 0.19920693D+00 0.11409592D+00 0.35481657D+06 0.35481657D+06 0.35481657D+06 0.10792005D+01  1  2  2  3  6  5        2 0.193885573917D-03 0.100000000000D+01
0.204816605384D-05 0.000000000000D+00 -.713460693344D-07 0.140763847956D-06 0.000000000000D+00  6 2 2 25 2 2 21 2 0.19920693D+00 0.11409592D+00 0.35481657D+06 0.35481657D+06 0.35481657D+06 0.10792005D+01  1  2  3  3  6  5        2 0.248946432598D-04 0.100000000000D+01
-.133952207351D-04 0.000000000000D+00 0.000000000000D+00 0.140763847956D-06 0.000000000000D+00  6 2 2 25 2 2 21 2 0.19920693D+00 0.11409592D+00 0.35481657D+06 0.35481657D+06 0.35481657D+06 0.10792005D+01  1  2 15  3  6  5        2 -.162813577034D-03 0.100000000000D+01
0.139731737316D-08 0.000000000000D+00 0.000000000000D+00 0.140763847956D-06 0.000000000000D+00  6 2 2 25 2 2 21 2 0.19920693D+00 0.11409592D+00 0.35510314D+06 0.35510314D+06 0.35510314D+06 0.10791750D+01  1  2 12  3  6  5        2 0.169824024344D-07 0.100000000000D+01
0.514167190592D-04 0.000000000000D+00 0.000000000000D+00 0.140763847956D-06 0.000000000000D+00  6 2 2 25 2 2 21 2 0.19920693D+00 0.11409592D+00 0.35510314D+06 0.35510314D+06 0.35510314D+06 0.10791750D+01  1  2 12  3  6  5        2 0.624896985963D-03 0.100000000000D+01
-.264624485088D-04 0.000000000000D+00 0.000000000000D+00 0.140763847956D-06 0.000000000000D+00  6 2 2 25 2 2 21 2 0.19920693D+00 0.11409592D+00 0.35481657D+06 0.35481657D+06 0.35481657D+06 0.10792005D+01  1  2  4  3  6  5        2 -.321640530156D-03 0.100000000000D+01
-.540433757731D-04 0.000000000000D+00 0.000000000000D+00 0.140763847956D-06 0.000000000000D+00  6 2 2 25 2 2 21 2 0.19920693D+00 0.11409592D+00 0.35481657D+06 0.35481657D+06 0.35481657D+06 0.10792005D+01  1  2  5  3  6  5        2 -.656875724456D-03 0.100000000000D+01
0.109375090864D-03 0.000000000000D+00 -.000000000000D+00 0.140763847956D-06 0.000000000000D+00  6 2 2 25 2 2 21 2 0.19920693D+00 0.11409592D+00 0.35481657D+06 0.35481657D+06 0.35481657D+06 0.10792005D+01  1  2  6  3  6  5        2 0.132941070059D-02 0.100000000000D+01
  </mgrwgt>
  </event>
  <event>
  5     66 -.18411016E-05 0.75013132E+02 0.75467711E-02 0.88558260E-01
        2 -1    0    0  502    0 0.00000000E+00 0.00000000E+00 0.43153234E+04 0.43153235E+04 0.32000000E+00 0.0000E+00 0.9000E+01
        2 -1    0    0  501    0 0.00000000E+00 0.00000000E+00 -.17257918E+04 0.17257918E+04 0.32000000E+00 0.0000E+00 0.9000E+01
       25  1    1    2    0    0 -.20122741E+03 -.83323580E+03 0.14102021E+04 0.16550134E+04 0.12500000E+03 0.0000E+00 0.9000E+01
        2  1    1    2  501    0 -.41033379E+02 0.62790101E+02 -.15438557E+04 0.15456768E+04 0.32000000E+00 0.0000E+00 0.9000E+01
        2  1    1    2  502    0 0.24226079E+03 0.77044570E+03 0.27231852E+04 0.28404251E+04 0.32000000E+00 0.0000E+00 0.9000E+01
#aMCatNLO 1  0  0  5  2 0.10480667D+03 0.00000000D+00  -5  6  0 0.00000000D+00 0.00000000D+00 0.00000000D+00 0.00000000D+00 0.00000000D+00
  <mgrwgt>
 -.1590431691D-02    6    2    0
 0.272898332933739D+04 0.000000000000000D+00 0.000000000000000D+00 0.272898332933739D+04
 0.272898332933739D+04 -.000000000000000D+00 -.000000000000000D+00 -.272898332933739D+04
 0.116282750280512D+04 -.201212345115504D+03 -.833198706347644D+03 0.775781096182238D+03
 0.244334558966648D+04 -.410356558556532D+02 0.627936698145784D+02 -.244219382943335D+04
 0.185179356620318D+04 0.242248000971157D+03 0.770405036533065D+03 0.166641273325112D+04
 0.000000000000000D+00 0.000000000000000D+00 0.000000000000000D+00 0.000000000000000D+00
 0.272898332933739D+04 0.000000000000000D+00 0.000000000000000D+00 0.272898332933739D+04
 0.272898332933739D+04 -.000000000000000D+00 -.000000000000000D+00 -.272898332933739D+04
 0.116359677868566D+04 -.200853847432606D+03 -.832058600260563D+03 0.778247185071427D+03
 0.243822364545968D+04 -.402834150569197D+02 0.651859706703403D+02 -.243701919996085D+04
 0.161126381818644D+04 0.280187859460700D+03 0.684386566983711D+03 0.143153095745074D+04
 0.244882416342990D+03 -.390505969711749D+02 0.824860626065109D+02 0.227241057438683D+03
0.193703339212D-02 0.000000000000D+00 0.000000000000D+00 0.335391387349D-04 0.000000000000D+00  6 2 2 25 2 2 21 0 0.66389592D+00 0.26550644D+00 0.76459623D+06 0.76459623D+06 0.76459623D+06 0.10557128D+01  1  2  2  3  6  5        2 0.511890869424D-04 0.100000000000D+01
0.108380304914D-02 0.000000000000D+00 -.743871825835D-05 0.335391387349D-04 0.000000000000D+00  6 2 2 25 2 2 21 2 0.66389592D+00 0.26550644D+00 0.76459623D+06 0.76459623D+06 0.76459623D+06 0.10557128D+01  1  2  3  3  6  5        2 0.319214189551D-04 0.100000000000D+01
-.127067421444D-02 0.000000000000D+00 0.000000000000D+00 0.335391387349D-04 0.000000000000D+00  6 2 2 25 2 2 21 2 0.66389592D+00 0.26550644D+00 0.76459623D+06 0.76459623D+06 0.76459623D+06 0.10557128D+01  1  2 15  3  6  5        2 -.374253643104D-04 0.100000000000D+01
-.639758324490D-01 0.000000000000D+00 0.000000000000D+00 0.335391387349D-04 0.000000000000D+00  6 2 2 25 2 2 21 2 0.66389592D+00 0.26550644D+00 0.76459623D+06 0.76459623D+06 0.76459623D+06 0.10557128D+01  1  2  4  3  6  5        2 -.188429009517D-02 0.100000000000D+01
-.598026861817D-01 0.000000000000D+00 0.000000000000D+00 0.335391387349D-04 0.000000000000D+00  6 2 2 25 2 2 21 2 0.66389592D+00 0.26550644D+00 0.76459623D+06 0.76459623D+06 0.76459623D+06 0.10557128D+01  1  2  5  3  6  5        2 -.176137777225D-02 0.100000000000D+01
0.682287194815D-01 0.000000000000D+00 -.000000000000D+00 0.335391387349D-04 0.000000000000D+00  6 2 2 25 2 2 21 2 0.66389592D+00 0.26550644D+00 0.76459623D+06 0.76459623D+06 0.76459623D+06 0.10557128D+01  1  2  6  3  6  5        2 0.200955103519D-02 0.100000000000D+01
  </mgrwgt>
  </event>
  <event>
  5     66 0.18411016E-05 0.15026747E+03 0.75467711E-02 0.91846765E-01
        2 -1    0    0  502    0 0.00000000E+00 0.00000000E+00 0.11257042E+04 0.11257042E+04 0.32000000E+00 0.0000E+00 0.9000E+01
        2 -1    0    0  501    0 0.00000000E+00 0.00000000E+00 -.78546158E+03 0.78546164E+03 0.32000000E+00 0.0000E+00 0.9000E+01
       25  1    1    2    0    0 -.11217046E+03 -.47964804E+03 0.43641990E+03 0.66987445E+03 0.12500000E+03 0.0000E+00 0.9000E+01
        2  1    1    2  501    0 0.38954662E+02 -.14511125E+03 -.48097363E+03 0.50389530E+03 0.32000000E+00 0.0000E+00 0.9000E+01
        2  1    1    2  502    0 0.73215800E+02 0.62475929E+03 0.38479636E+03 0.73739614E+03 0.32000000E+00 0.0000E+00 0.9000E+01
#aMCatNLO 1  0  0  5  1 0.90254687D+02 0.00000000D+00  -5  6  0 0.00000000D+00 0.00000000D+00 0.00000000D+00 0.00000000D+00 0.00000000D+00
  <mgrwgt>
 0.4465341943D-03    4    2    0
 0.940317767182596D+03 0.000000000000000D+00 0.000000000000000D+00 0.940317767182596D+03
 0.940317767182596D+03 -.000000000000000D+00 -.000000000000000D+00 -.940317767182596D+03
 0.601782860351580D+03 -.112168637407501D+03 -.479564116536912D+03 0.322419084306815D+03
 0.599174788955300D+03 0.389606092888688D+02 -.145128855933576D+03 -.580025959607740D+03
 0.679677885058311D+03 0.732080281186323D+02 0.624692972470488D+03 0.257606875300925D+03
 0.000000000000000D+00 0.000000000000000D+00 0.000000000000000D+00 -.000000000000000D+00
 0.940317767182596D+03 0.000000000000000D+00 0.000000000000000D+00 0.940317767182596D+03
 0.940317767182596D+03 -.000000000000000D+00 -.000000000000000D+00 -.940317767182596D+03
 0.567845589283244D+03 -.104977378075728D+03 -.418200229498567D+03 0.347723929875594D+03
 0.563115204389330D+03 0.461067493844489D+02 -.841499768034842D+02 -.554879881127086D+03
 0.630651317166761D+03 0.102135814671069D+03 0.538472332052560D+03 0.311988632516514D+03
 0.119023423525856D+03 -.432651859797906D+02 -.361221257505097D+02 -.104832681265022D+03
0.970031273497D-04 0.000000000000D+00 0.000000000000D+00 0.509163156018D-07 0.000000000000D+00  6 2 2 25 2 2 21 0 0.17318527D+00 0.12084025D+00 0.41432267D+06 0.41432267D+06 0.41432267D+06 0.10743279D+01  1  2  2  3  6  5        2 0.117236872040D-02 0.100000000000D+01
0.133531890095D-04 0.000000000000D+00 -.372517550533D-06 0.509163156018D-07 0.000000000000D+00  6 2 2 25 2 2 21 2 0.17318527D+00 0.12084025D+00 0.41432267D+06 0.41432267D+06 0.41432267D+06 0.10743279D+01  1  2  3  3  6  5        2 0.186267554201D-03 0.100000000000D+01
-.623501971946D-04 0.000000000000D+00 0.000000000000D+00 0.509163156018D-07 0.000000000000D+00  6 2 2 25 2 2 21 2 0.17318527D+00 0.12084025D+00 0.41432267D+06 0.41432267D+06 0.41432267D+06 0.10743279D+01  1  2 15  3  6  5        2 -.869741207670D-03 0.100000000000D+01
-.303677546857D-05 0.000000000000D+00 0.000000000000D+00 0.509163156018D-07 0.000000000000D+00  6 2 2 25 2 2 21 2 0.17318527D+00 0.12084025D+00 0.41432267D+06 0.41432267D+06 0.41432267D+06 0.10743279D+01  1  2  4  3  6  5        2 -.423608726563D-04 0.100000000000D+01
  </mgrwgt>
  </event>
  <event>
  5     66 0.18411016E-05 0.23741897E+03 0.75467711E-02 0.91939188E-01
        2 -1    0    0  502    0 0.00000000E+00 0.00000000E+00 0.12184990E+04 0.12184990E+04 0.32000000E+00 0.0000E+00 0.9000E+01
        2 -1    0    0  501    0 -.00000000E+00 -.00000000E+00 -.15640604E+04 0.15640604E+04 0.32000000E+00 0.0000E+00 0.9000E+01
       25  1    1    2    0    0 -.46144901E+03 0.67694184E+02 0.28058871E+03 0.55845565E+03 0.12500000E+03 0.0000E+00 0.9000E+01
        2  1    1    2  501    0 0.22406547E+03 -.78421231E+02 -.13972228E+04 0.14172462E+04 0.32000000E+00 0.0000E+00 0.9000E+01
        2  1    1    2  502    0 0.23738354E+03 0.10727047E+02 0.77107263E+03 0.80685756E+03 0.32000000E+00 0.0000E+00 0.9000E+01
#aMCatNLO 1  0  0  5  2 0.17958776D+03 0.00000000D+00  -5  6  0 0.00000000D+00 0.00000000D+00 0.00000000D+00 0.00000000D+00 0.00000000D+00
  <mgrwgt>
 0.1213922635D-01    4    2    0
 0.138050935666087D+04 0.000000000000000D+00 0.000000000000000D+00 0.138050935666087D+04
 0.138050935666087D+04 -.000000000000000D+00 -.000000000000000D+00 -.138050935666087D+04
 0.598001180517389D+03 -.461448221561600D+03 0.677036581177806D+02 0.352791957668111D+03
 0.125345893924067D+04 0.224090549850731D+03 -.784295367236447D+02 -.123076868078420D+04
 0.909558593563675D+03 0.237357671710869D+03 0.107258786058642D+02 0.877976723116085D+03
 0.000000000000000D+00 0.000000000000000D+00 0.000000000000000D+00 -.000000000000000D+00
 0.138050935666087D+04 0.000000000000000D+00 0.000000000000000D+00 0.138050935666087D+04
 0.138050935666087D+04 -.000000000000000D+00 -.000000000000000D+00 -.138050935666087D+04
 0.616195011984214D+03 -.449615349323715D+03 0.682383699316749D+02 0.396561288221388D+03
 0.117240728442936D+04 0.247731675780921D+03 -.773612255753030D+02 -.114332108271268D+04
 0.179593268031835D+03 -.168252341649082D+03 0.423023596690653D+02 0.464263052415782D+02
 0.792823148876327D+03 0.370136015191877D+03 -.331795040254372D+02 0.700333489249714D+03
0.119602795814D-01 0.000000000000D+00 0.000000000000D+00 0.105603934915D-04 0.000000000000D+00  6 2 2 25 2 2 21 0 0.18746138D+00 0.24062469D+00 0.22937775D+06 0.22937775D+06 0.22937775D+06 0.10932830D+01  1  2  2  3  6  5        2 0.451195108733D-01 0.100000000000D+01
0.130551849406D-02 0.000000000000D+00 -.459306228065D-04 0.105603934915D-04 0.000000000000D+00  6 2 2 25 2 2 21 2 0.18746138D+00 0.24062469D+00 0.22937775D+06 0.22937775D+06 0.22937775D+06 0.10932830D+01  1  2  3  3  6  5        2 0.588669187729D-02 0.100000000000D+01
-.861970660594D-02 0.000000000000D+00 0.000000000000D+00 0.105603934915D-04 0.000000000000D+00  6 2 2 25 2 2 21 2 0.18746138D+00 0.24062469D+00 0.22937775D+06 0.22937775D+06 0.22937775D+06 0.10932830D+01  1  2 15  3  6  5        2 -.388669766783D-01 0.100000000000D+01
0.671161877187D-10 0.000000000000D+00 0.000000000000D+00 0.105603934915D-04 0.000000000000D+00  6 2 2 25 2 2 21 2 0.18746138D+00 0.24062469D+00 0.40721587D+06 0.40721587D+06 0.40721587D+06 0.10748683D+01  1  2 12  3  6  5        2 0.281826894230D-09 0.100000000000D+01
  </mgrwgt>
  </event>
  <event>
  5     66 0.18411016E-05 0.34138147E+02 0.75467711E-02 0.89343793E-01
        2 -1    0    0  502    0 0.00000000E+00 0.00000000E+00 0.22587806E+04 0.22587807E+04 0.32000000E+00 0.0000E+00 0.9000E+01
        2 -1    0    0  501    0 0.00000000E+00 0.00000000E+00 -.18249559E+04 0.18249559E+04 0.32000000E+00 0.0000E+00 0.9000E+01
       25  1    1    2    0    0 -.57581870E+03 0.31126338E+03 0.47325401E+03 0.81734107E+03 0.12500000E+03 0.0000E+00 0.9000E+01
        2  1    1    2  501    0 0.55401358E+03 -.33753326E+03 -.15890628E+04 0.17163859E+04 0.32000000E+00 0.0000E+00 0.9000E+01
        2  1    1    2  502    0 0.21805113E+02 0.26269877E+02 0.15496336E+04 0.15500096E+04 0.32000000E+00 0.0000E+00 0.9000E+01
#aMCatNLO 1  0  0  5  2 0.17958776D+03 0.00000000D+00  -5  6  0 0.00000000D+00 0.00000000D+00 0.00000000D+00 0.00000000D+00 0.00000000D+00
  <mgrwgt>
 0.4054002132D-02    4    2    0
 0.203031402824079D+04 0.000000000000000D+00 0.000000000000000D+00 0.203031402824079D+04
 0.203031402824079D+04 -.000000000000000D+00 -.000000000000000D+00 -.203031402824079D+04
 0.771515201704315D+03 -.575858394532802D+03 0.311289721886684D+03 0.388711364581310D+03
 0.189593377562784D+04 0.554054743554025D+03 -.337557837193372D+03 -.178147212418860D+04
 0.139317907914943D+04 0.218036509787784D+02 0.262681153066889D+02 0.139276075960729D+04
 0.000000000000000D+00 -.000000000000000D+00 0.000000000000000D+00 0.000000000000000D+00
 0.203031402824079D+04 0.000000000000000D+00 0.000000000000000D+00 0.203031402824079D+04
 0.203031402824079D+04 -.000000000000000D+00 -.000000000000000D+00 -.203031402824079D+04
 0.899033489076654D+03 -.572479827092883D+03 0.315360076854740D+03 0.604525503166920D+03
 0.149283232214681D+04 0.560908285065641D+03 -.329300980630151D+03 -.134368564104368D+04
 0.119665737023961D+04 0.166963026638360D+03 0.830866440723909D+01 0.118492327835194D+04
 0.472104875018510D+03 -.155391484611117D+03 0.563223936817282D+01 -.445763140475181D+03
0.629932076414D-02 0.000000000000D+00 0.000000000000D+00 0.109664712632D-03 0.000000000000D+00  6 2 2 25 2 2 21 0 0.34750472D+00 0.28076244D+00 0.45519365D+06 0.45519365D+06 0.45519365D+06 0.10714041D+01  1  2  2  3  6  5        2 0.431111319047D-02 0.100000000000D+01
0.439133817910D-02 0.000000000000D+00 -.241910503836D-04 0.109664712632D-03 0.000000000000D+00  6 2 2 25 2 2 21 2 0.34750472D+00 0.28076244D+00 0.45519365D+06 0.45519365D+06 0.45519365D+06 0.10714041D+01  1  2  3  3  6  5        2 0.344984161479D-02 0.100000000000D+01
-.452395861859D-02 0.000000000000D+00 0.000000000000D+00 0.109664712632D-03 0.000000000000D+00  6 2 2 25 2 2 21 2 0.34750472D+00 0.28076244D+00 0.45519365D+06 0.45519365D+06 0.45519365D+06 0.10714041D+01  1  2 15  3  6  5        2 -.355402842356D-02 0.100000000000D+01
-.194658819942D-03 0.000000000000D+00 0.000000000000D+00 0.109664712632D-03 0.000000000000D+00  6 2 2 25 2 2 21 2 0.34750472D+00 0.28076244D+00 0.45519365D+06 0.45519365D+06 0.45519365D+06 0.10714041D+01  1  2  4  3  6  5        2 -.152924250043D-03 0.100000000000D+01
  </mgrwgt>
  </event>
  <event>
  5     66 0.18411016E-05 0.38757336E+02 0.75467711E-02 0.91797476E-01
        2 -1    0    0  502    0 0.00000000E+00 0.00000000E+00 0.82395030E+03 0.82395037E+03 0.32000000E+00 0.0000E+00 0.9000E+01
        2 -1    0    0  501    0 0.00000000E+00 0.00000000E+00 -.14035301E+04 0.14035301E+04 0.32000000E+00 0.0000E+00 0.9000E+01
       25  1    1    2    0    0 -.24334711E+03 -.45076835E+03 0.19368387E+03 0.56173691E+03 0.12500000E+03 0.0000E+00 0.9000E+01
        2  1    1    2  501    0 0.27066120E+03 0.42325495E+03 -.11667676E+04 0.12703342E+04 0.32000000E+00 0.0000E+00 0.9000E+01
        2  1    1    2  502    0 -.27314095E+02 0.27513397E+02 0.39350399E+03 0.39540933E+03 0.32000000E+00 0.0000E+00 0.9000E+01
#aMCatNLO 1  0  0  2  4 0.16258800D+02 0.00000000D+00  -5  6  0 0.00000000D+00 0.00000000D+00 0.00000000D+00 0.00000000D+00 0.00000000D+00
  <mgrwgt>
 0.1341699865D-02    4    2    0
 0.107537860959403D+04 0.000000000000000D+00 0.000000000000000D+00 0.107537860959403D+04
 0.107537860959403D+04 0.000000000000000D+00 0.000000000000000D+00 -.107537860959403D+04
 0.634102941988771D+03 -.243392455067496D+03 -.450821641320985D+03 0.352110070250318D+03
 0.100125649192343D+04 0.270698228392404D+03 0.423316626295456D+03 -.866048535398479D+03
 0.515397785275872D+03 -.273057733249080D+02 0.275050150255293D+02 0.513938465148161D+03
 0.000000000000000D+00 0.000000000000000D+00 0.000000000000000D+00 0.000000000000000D+00
 0.123612579471976D+04 0.000000000000000D+00 0.000000000000000D+00 0.123612579471976D+04
 0.118056466571316D+04 0.000000000000000D+00 0.000000000000000D+00 -.118056466571316D+04
 0.692551098208463D+03 -.251932145832723D+03 -.525880895216953D+03 0.352110070250318D+03
 0.956217904166476D+03 0.258097938100467D+03 0.312566903127897D+03 -.866048535398479D+03
 0.515981206575332D+03 -.339447744399620D+02 -.308482068896712D+02 0.513938465148161D+03
 0.251940251482648D+03 0.277789821722178D+02 0.244162198978727D+03 0.555611290065979D+02
0.261273776260D-03 0.000000000000D+00 0.000000000000D+00 0.110099193334D-04 0.000000000000D+00  6 2 2 25 2 2 21 0 0.12676159D+00 0.21592771D+00 0.28546708D+06 0.28546708D+06 0.28546708D+06 0.10861510D+01  1  2  2  2  6  2        2 0.209310382298D-02 0.100000000000D+01
0.111898481185D-03 0.000000000000D+00 -.100336009580D-05 0.110099193334D-04 0.000000000000D+00  6 2 2 25 2 2 21 2 0.12676159D+00 0.21592771D+00 0.28546708D+06 0.28546708D+06 0.28546708D+06 0.10861510D+01  1  2  3  2  6  2        2 0.105754663773D-02 0.100000000000D+01
-.187090667039D-03 0.000000000000D+00 0.000000000000D+00 0.110099193334D-04 0.000000000000D+00  6 2 2 25 2 2 21 2 0.12676159D+00 0.21592771D+00 0.28546708D+06 0.28546708D+06 0.28546708D+06 0.10861510D+01  1  2 15  2  6  2        2 -.176818401629D-02 0.100000000000D+01
-.431349138009D-05 0.000000000000D+00 0.000000000000D+00 0.110099193334D-04 0.000000000000D+00  6 2 2 25 2 2 21 2 0.12676159D+00 0.21592771D+00 0.28546708D+06 0.28546708D+06 0.28546708D+06 0.10861510D+01  1  2  4  2  6  2        2 -.407665792922D-04 0.100000000000D+01
  </mgrwgt>
  </event>
  <event>
  6     66 0.18411016E-05 0.17802986E+03 0.75467711E-02 0.93609743E-01
        2 -1    0    0  502    0 0.00000000E+00 0.00000000E+00 0.23253126E+04 0.23253126E+04 0.32000000E+00 0.0000E+00 0.9000E+01
        2 -1    0    0  501    0 0.00000000E+00 0.00000000E+00 -.10931015E+04 0.10931016E+04 0.32000000E+00 0.0000E+00 0.9000E+01
       25  1    1    2    0    0 -.49138895E+03 -.43196340E+02 0.14004488E+04 0.14900372E+04 0.12500000E+03 0.0000E+00 0.9000E+01
        2  1    1    2  501    0 0.22552344E+03 0.78232164E+02 -.99908342E+03 0.10272044E+04 0.32000000E+00 0.0000E+00 0.9000E+01
        2  1    1    2  503    0 0.67866291E+02 0.90701949E+02 0.23690417E+03 0.26259544E+03 0.32000000E+00 0.0000E+00 0.9000E+01
       21  1    1    2  502  503 0.19799921E+03 -.12573777E+03 0.59394146E+03 0.63857709E+03 0.75000000E+00 0.0000E+00 0.9000E+01
#aMCatNLO 2  0  0  5  2 0.10008559D+03 0.00000000D+00  -5  6  0 0.00000000D+00 0.00000000D+00 0.00000000D+00 0.00000000D+00 0.00000000D+00
  <mgrwgt>
 0.3246923746D-03    2    2    0
 0.159430324105115D+04 0.000000000000000D+00 0.000000000000000D+00 0.159430324105115D+04
 0.159430324105115D+04 -.000000000000000D+00 -.000000000000000D+00 -.159430324105115D+04
 0.104906208598560D+04 -.497009012207686D+03 -.424918293922686D+02 0.914375604700656D+03
 0.150295754674021D+04 0.217326263037199D+03 0.793484936217367D+02 -.148504360180353D+04
 0.636586849376491D+03 0.279682749170488D+03 -.368566642294681D+02 0.570667997102871D+03
 0.000000000000000D+00 0.000000000000000D+00 -.000000000000000D+00 0.000000000000000D+00
 0.159430324105115D+04 0.000000000000000D+00 0.000000000000000D+00 0.159430324105115D+04
 0.159430324105115D+04 -.000000000000000D+00 -.000000000000000D+00 -.159430324105115D+04
 0.105672640124076D+04 -.491200700079975D+03 -.432572502502440D+02 0.926226953624749D+03
 0.148750100421427D+04 0.225574725204358D+03 0.782615091673643D+02 -.146821334181047D+04
 0.189153785962575D+03 0.675378048402462D+02 0.904358602802923D+02 0.151786543661485D+03
 0.455225290684692D+03 0.198088170035371D+03 -.125440119197413D+03 0.390199844524238D+03
-.625565653280D-10 0.000000000000D+00 0.000000000000D+00 0.255514256095D-05 0.000000000000D+00  6 2 2 25 2 2 21 2 0.35774040D+00 0.16816947D+00 0.29964737D+06 0.29964737D+06 0.29964737D+06 0.10845897D+01  1  2 13  3  6  5        2 -.123219119696D-09 0.100000000000D+01
0.164841686082D-03 0.000000000000D+00 0.000000000000D+00 0.255514256095D-05 0.821216305893D-10  6 2 2 25 2 2 21 2 0.35774040D+00 0.16816947D+00 0.29964737D+06 0.29964737D+06 0.29964737D+06 0.10845897D+01  1  2  1  3  6  5        2 0.324692497771D-03 0.100000000000D+01
  </mgrwgt>
  </event>
  <event>
  5     66 0.18411016E-05 0.54294031E+02 0.75467711E-02 0.92984013E-01
        2 -1    0    0  502    0 0.00000000E+00 0.00000000E+00 0.98582457E+03 0.98582462E+03 0.32000000E+00 0.0000E+00 0.9000E+01
        2 -1    0    0  501    0 0.00000000E+00 0.00000000E+00 -.37563133E+04 0.37563134E+04 0.32000000E+00 0.0000E+00 0.9000E+01
       25  1    1    2    0    0 -.56372063E+03 -.64069735E+02 -.95088671E+03 0.11143143E+04 0.12500000E+03 0.0000E+00 0.9000E+01
        2  1    1    2  501    0 0.52946788E+02 -.12008697E+02 -.26496717E+04 0.26502279E+04 0.32000000E+00 0.0000E+00 0.9000E+01
        2  1    1    2  502    0 0.51077384E+03 0.76078432E+02 0.83006963E+03 0.97759579E+03 0.32000000E+00 0.0000E+00 0.9000E+01
#aMCatNLO 1  0  0  1  1 0.46440133D+01 0.00000000D+00  -5  6  0 0.00000000D+00 0.00000000D+00 0.00000000D+00 0.00000000D+00 0.00000000D+00
  <mgrwgt>
 0.9606950131D-02    7    2    0
 0.192433524624311D+04 0.000000000000000D+00 0.000000000000000D+00 0.192433524624311D+04
 0.192433524624311D+04 0.000000000000000D+00 0.000000000000000D+00 -.192433524624311D+04
 0.688476206481513D+03 -.563720163265052D+03 -.640688005759236D+02 -.369444519802853D+03
 0.135812960462586D+04 0.529492300881959D+02 -.120091984584819D+02 -.135704391275546D+04
 0.180206468137886D+04 0.510770933176856D+03 0.760779990344055D+02 0.172648843255831D+04
 0.000000000000000D+00 -.000000000000000D+00 -.000000000000000D+00 -.000000000000000D+00
 0.192652160422802D+04 0.000000000000000D+00 0.000000000000000D+00 0.192652160422802D+04
 0.192680429971366D+04 0.000000000000000D+00 0.000000000000000D+00 -.192680429971366D+04
 0.687852657064302D+03 -.563006620489863D+03 -.636440877273222D+02 -.369444519802853D+03
 0.135817808358958D+04 0.543574703550779D+02 -.111709897959333D+02 -.135704391275546D+04
 0.180264255368971D+04 0.512639754555512D+03 0.771903534423743D+02 0.172648843255831D+04
 0.465260959809351D+01 -.399060442072720D+01 -.237527591911888D+01 -.282695485634939D+00
0.589843121248D-01 0.000000000000D+00 0.000000000000D+00 0.147486588304D-03 0.000000000000D+00  6 2 2 25 2 2 21 0 0.15166532D+00 0.57789437D+00 0.33157789D+06 0.33157789D+06 0.33157789D+06 0.10813508D+01  1  2  2  1  6  1        2 0.135053570248D-01 0.100000000000D+01
0.272070433015D-01 0.000000000000D+00 -.226515289485D-03 0.147486588304D-03 0.000000000000D+00  6 2 2 25 2 2 21 2 0.15166532D+00 0.57789437D+00 0.33157789D+06 0.33157789D+06 0.33157789D+06 0.10813508D+01  1  2  3  1  6  1        2 0.728423717340D-02 0.100000000000D+01
-.414805420837D-01 0.000000000000D+00 0.000000000000D+00 0.147486588304D-03 0.000000000000D+00  6 2 2 25 2 2 21 2 0.15166532D+00 0.57789437D+00 0.33157789D+06 0.33157789D+06 0.33157789D+06 0.10813508D+01  1  2 15  1  6  1        2 -.111057310885D-01 0.100000000000D+01
-.196868817516D-01 0.000000000000D+00 0.000000000000D+00 0.147486588304D-03 0.000000000000D+00  6 2 2 25 2 2 21 2 0.15166532D+00 0.57789437D+00 0.33157789D+06 0.33157789D+06 0.33157789D+06 0.10813508D+01  1  2  4  1  6  1        2 -.527083793319D-02 0.100000000000D+01
0.187402212122D-01 0.000000000000D+00 0.000000000000D+00 0.147486588304D-03 0.621820864995D-06  6 2 2 25 2 2 21 2 0.15183764D+00 0.57863584D+00 0.33568891D+06 0.33568891D+06 0.33568891D+06 0.10809586D+01  1  2 11  1  6  1        2 0.495704427241D-02 0.100000000000D+01
0.246994091805D-12 0.000000000000D+00 0.000000000000D+00 0.147486588304D-03 0.000000000000D+00  6 21 2 25 2 2 -2 2 0.15197540D+00 0.57789437D+00 0.33568891D+06 0.33568891D+06 0.33568891D+06 0.10809586D+01  1  2 12  4  6  1        2 0.464959459509D-13 0.100000000000D+01
0.126561713422D-02 0.000000000000D+00 0.000000000000D+00 0.147486588304D-03 0.866645144483D-08  6 21 2 25 2 2 -2 2 0.15183764D+00 0.57863584D+00 0.33568891D+06 0.33568891D+06 0.33568891D+06 0.10809586D+01  1  2 11  4  6  1        2 0.236880681906D-03 0.100000000000D+01
  </mgrwgt>
  </event>
  <event>
  6     66 0.18411016E-05 0.84443826E+02 0.75467711E-02 0.95179035E-01
        2 -1    0    0  502    0 0.00000000E+00 0.00000000E+00 0.20031624E+04 0.20031625E+04 0.32000000E+00 0.0000E+00 0.9000E+01
        2 -1    0    0  503    0 0.00000000E+00 0.00000000E+00 -.27197032E+03 0.27197051E+03 0.32000000E+00 0.0000E+00 0.9000E+01
       25  1    1    2    0    0 -.35171537E+03 -.30547681E+03 0.91664768E+03 0.10358030E+04 0.12500000E+03 0.0000E+00 0.9000E+01
        2  1    1    2  501    0 0.25902864E+03 0.25051271E+03 0.21058963E+03 0.41737340E+03 0.32000000E+00 0.0000E+00 0.9000E+01
        2  1    1    2  502    0 0.16837426E+02 0.13553982E+01 0.69304620E+03 0.69325210E+03 0.32000000E+00 0.0000E+00 0.9000E+01
       21  1    1    2  503  501 0.75849304E+02 0.53608701E+02 -.89091413E+02 0.12870452E+03 0.75000000E+00 0.0000E+00 0.9000E+01
#aMCatNLO 2  0  0  2  4 0.21336788D+03 0.00000000D+00  -5  6  0 0.00000000D+00 0.00000000D+00 0.00000000D+00 0.00000000D+00 0.00000000D+00
  <mgrwgt>
 0.4220130017D-01    1    2    0
 0.566810374043208D+03 0.000000000000000D+00 0.000000000000000D+00 0.566810374043208D+03
 0.566810374043208D+03 0.000000000000000D+00 0.000000000000000D+00 -.566810374043208D+03
 0.451465785350273D+03 -.320413406577591D+03 -.283378073790913D+03 0.723081705053725D+02
 0.481376272606001D+03 0.290242660783210D+03 0.272588872004154D+03 -.270513623592293D+03
 0.200778690130143D+03 0.301707457943814D+02 0.107892017867589D+02 0.198205453086920D+03
 0.000000000000000D+00 0.000000000000000D+00 0.000000000000000D+00 -.000000000000000D+00
 0.574388717448114D+03 0.000000000000000D+00 0.000000000000000D+00 0.574388717448114D+03
 0.948487105583290D+03 0.000000000000000D+00 0.000000000000000D+00 -.948487105583290D+03
 0.487818021721335D+03 -.351784063557285D+03 -.305550197874927D+03 0.723081705053725D+02
 0.450678851710611D+03 0.259113430862530D+03 0.250587383514836D+03 -.270513623592293D+03
 0.198922578787174D+03 0.168213286031640D+02 0.135411298372478D+01 0.198205453086920D+03
 0.385456370812282D+03 0.758493040915912D+02 0.536087013763664D+02 -.374098388135176D+03
0.258480278686D-02 0.000000000000D+00 0.000000000000D+00 0.689188594417D-06 0.164785641989D-08  6 2 2 25 2 2 21 2 0.30817866D+00 0.41841578D-01 0.22688550D+06 0.22688550D+06 0.22688550D+06 0.10936430D+01  1  2  1  2  6  2        2 0.422013001742D-01 0.100000000000D+01
  </mgrwgt>
  </event>
  <event>
  6     66 0.18411016E-05 0.10525275E+03 0.75467711E-02 0.93971280E-01
        2 -1    0    0  503    0 0.00000000E+00 0.00000000E+00 0.10634510E+04 0.10634510E+04 0.32000000E+00 0.0000E+00 0.9000E+01
        2 -1    0    0  501    0 0.00000000E+00 0.00000000E+00 -.84311956E+03 0.84311962E+03 0.32000000E+00 0.0000E+00 0.9000E+01
       25  1    1    2    0    0 -.14754326E+03 0.45966611E+03 -.32675302E+03 0.59620003E+03 0.12500000E+03 0.0000E+00 0.9000E+01
        2  1    1    2  501    0 -.12840776E+02 -.11966453E+02 -.29861286E+03 0.29912844E+03 0.32000000E+00 0.0000E+00 0.9000E+01
        2  1    1    2  502    0 0.23374398E+03 -.36040200E+03 0.57694908E+03 0.71930257E+03 0.32000000E+00 0.0000E+00 0.9000E+01
       21  1    1    2  503  502 -.73359941E+02 -.87297655E+02 0.26874821E+03 0.29193959E+03 0.75000000E+00 0.0000E+00 0.9000E+01
#aMCatNLO 2  0  0  1  5 0.11402877D+03 0.00000000D+00  -5  6  0 0.00000000D+00 0.00000000D+00 0.00000000D+00 0.00000000D+00 0.00000000D+00
  <mgrwgt>
 0.2509965115D-01    1    2    0
 0.804935813471067D+03 0.000000000000000D+00 0.000000000000000D+00 0.804935813471067D+03
 0.804935813471067D+03 0.000000000000000D+00 0.000000000000000D+00 -.804935813471067D+03
 0.569939614925842D+03 -.173864003339549D+03 0.428346975017668D+03 -.309024824241961D+03
 0.292257037373831D+03 -.260970211519453D+02 -.277415868844855D+02 -.289764604012730D+03
 0.747674974642462D+03 0.199961024491494D+03 -.400605388133183D+03 0.598789428254691D+03
 0.000000000000000D+00 -.000000000000000D+00 -.000000000000000D+00 0.000000000000000D+00
 0.109583214186644D+04 0.000000000000000D+00 0.000000000000000D+00 0.109583214186644D+04
 0.818205055580857D+03 0.000000000000000D+00 0.000000000000000D+00 -.818205055580857D+03
 0.586672495282284D+03 -.147544252733243D+03 0.459667236387754D+03 -.309024824241961D+03
 0.290295712212705D+03 -.128405084898254D+02 -.119664586302696D+02 -.289764604012730D+03
 0.736936751521857D+03 0.233744701866972D+03 -.360403122493587D+03 0.598789428254691D+03
 0.300132238430456D+03 -.733599406439031D+02 -.872976552638977D+02 0.277627086285587D+03
0.173949357441D-02 0.000000000000D+00 0.000000000000D+00 0.313598110575D-05 0.272102181787D-08  6 2 2 25 2 2 21 2 0.16360776D+00 0.12971064D+00 0.28081173D+06 0.28081173D+06 0.28081173D+06 0.10866821D+01  1  2  1  1  6  1        2 0.250996511548D-01 0.100000000000D+01
  </mgrwgt>
  </event>
  <event>
  6     66 0.18411016E-05 0.11603788E+03 0.75467711E-02 0.93968321E-01
        2 -1    0    0  502    0 0.00000000E+00 0.00000000E+00 0.10248112E+04 0.10248112E+04 0.32000000E+00 0.0000E+00 0.9000E+01
        2 -1    0    0  501    0 0.00000000E+00 0.00000000E+00 -.38980137E+03 0.38980150E+03 0.32000000E+00 0.0000E+00 0.9000E+01
       25  1    1    2    0    0 -.36175367E+03 -.34986381E+03 0.25285847E+03 0.57691664E+03 0.12500000E+03 0.0000E+00 0.9000E+01
        2  1    1    2  501    0 0.12368405E+03 0.71570435E+01 -.12739861E+03 0.17770615E+03 0.32000000E+00 0.0000E+00 0.9000E+01
        2  1    1    2  503    0 0.20327654E+03 0.30489246E+03 0.42624119E+03 0.56210534E+03 0.32000000E+00 0.0000E+00 0.9000E+01
       21  1    1    2  502  503 0.34793075E+02 0.37814310E+02 0.83308759E+02 0.97884585E+02 0.75000000E+00 0.0000E+00 0.9000E+01
#aMCatNLO 2  0  0  5  1 0.14750161D+02 0.00000000D+00  -5  6  0 0.00000000D+00 0.00000000D+00 0.00000000D+00 0.00000000D+00 0.00000000D+00
  <mgrwgt>
 0.5347260991D-02    3    2    0
 0.632038705040395D+03 0.000000000000000D+00 0.000000000000000D+00 0.632038705040395D+03
 0.632038705040395D+03 -.000000000000000D+00 -.000000000000000D+00 -.632038705040395D+03
 0.519154705523649D+03 -.362143803585815D+03 -.350288219629751D+03 -.682912735012931D+01
 0.263251223035806D+03 0.123604872842113D+03 0.690586756777873D+01 -.232325958155065D+03
 0.481671481521335D+03 0.238538930743702D+03 0.343382352061973D+03 0.239155085505194D+03
 0.000000000000000D+00 0.000000000000000D+00 0.000000000000000D+00 0.000000000000000D+00
 0.632038705040395D+03 0.000000000000000D+00 0.000000000000000D+00 0.632038705040395D+03
 0.632038705040395D+03 -.000000000000000D+00 -.000000000000000D+00 -.632038705040395D+03
 0.518508315342315D+03 -.361759408277852D+03 -.349734873622211D+03 -.644373913506041D+01
 0.263177888256344D+03 0.123799884976387D+03 0.718659208154578D+01 -.232130442297333D+03
 0.414728977397817D+03 0.203178625842770D+03 0.304762684202320D+03 0.194520633897486D+03
 0.676622290843139D+02 0.347808974586954D+02 0.377855973383453D+02 0.440535475349072D+02
-.166416399882D-06 0.000000000000D+00 0.000000000000D+00 0.334002962186D-07 0.000000000000D+00  6 2 2 25 2 2 21 2 0.15766327D+00 0.59969455D-01 0.28096037D+06 0.28096037D+06 0.28096037D+06 0.10866650D+01  1  2 13  3  6  5        2 -.628805343453D-05 0.100000000000D+01
-.349711213990D-03 0.000000000000D+00 0.000000000000D+00 0.334002962186D-07 0.000000000000D+00  6 2 2 25 2 2 21 2 0.15766327D+00 0.59969455D-01 0.28096037D+06 0.28096037D+06 0.28096037D+06 0.10866650D+01  1  2 13  3  6  5        2 -.132138587410D-01 0.100000000000D+01
0.491395499573D-03 0.000000000000D+00 0.000000000000D+00 0.334002962186D-07 0.102115236921D-08  6 2 2 25 2 2 21 2 0.15766327D+00 0.59969455D-01 0.28096037D+06 0.28096037D+06 0.28096037D+06 0.10866650D+01  1  2  1  3  6  5        2 0.185674077855D-01 0.100000000000D+01
  </mgrwgt>
  </event>
</LesHouchesEvents>
