<event>
 5    0  0.1531977E+001  0.2187408E+03  0.7546771E-02  0.1134825E+00
         21   -1    0    0  503  501  0.00000000000E+00  0.00000000000E+00  0.19562074367E+04  0.19562074367E+04  0.00000000000E+00 0.  1.
         21   -1    0    0  504  502 -0.00000000000E+00 -0.00000000000E+00 -0.31273618463E+02  0.31273618463E+02  0.00000000000E+00 0.  1.
         25    1    1    2    0    0  0.20818415706E+03 -0.32258071861E+02  0.74172258040E+03  0.78112650238E+03  0.12500000000E+03 0.  0.
         21    1    1    2  503  502 -0.15486628363E+03 -0.12901058786E+02  0.63649789414E+03  0.65519430123E+03  0.00000000000E+00 0.  1.
         21    1    1    2  504  501 -0.53317873428E+02  0.45159130648E+02  0.54671334369E+03  0.55116025154E+03  0.00000000000E+00 0. -1.
<mgrwt>
<rscale>  4 0.21874076E+03</rscale>
<asrwt>0</asrwt>
<pdfrwt beam="1">  1       21 0.30095489E+00 0.21874076E+03</pdfrwt>
<pdfrwt beam="2">  1       21 0.48113275E-02 0.21874076E+03</pdfrwt>
<totfact> 0.94200613E+03</totfact>
</mgrwt>
</event>
<event>
 5    0  0.1531977E+001  0.4498040E+03  0.7546771E-02  0.1027781E+00
         21   -1    0    0  502  501  0.00000000000E+00  0.00000000000E+00  0.65946743529E+03  0.65946743529E+03  0.00000000000E+00 0.  1.
         21   -1    0    0  504  502 -0.00000000000E+00 -0.00000000000E+00 -0.57147598953E+03  0.57147598953E+03  0.00000000000E+00 0.  1.
         25    1    1    2    0    0 -0.37904713005E+03 -0.21176438504E+03  0.44246290833E+03  0.63239173525E+03  0.12500000000E+03 0.  0.
         21    1    1    2  503  501 -0.12174543894E+02  0.28847634965E+02  0.10594628219E+02  0.33055282622E+02  0.00000000000E+00 0.  1.
         21    1    1    2  504  503  0.39122167395E+03  0.18291675008E+03 -0.36506609079E+03  0.56549640695E+03  0.00000000000E+00 0.  1.
<mgrwt>
<rscale>  4 0.44980401E+03</rscale>
<asrwt>0</asrwt>
<pdfrwt beam="1">  1       21 0.10145653E+00 0.44980401E+03</pdfrwt>
<pdfrwt beam="2">  1       21 0.87919383E-01 0.44980401E+03</pdfrwt>
<totfact> 0.74286498E+02</totfact>
</mgrwt>
</event>
<event>
 5    0  0.1531977E+001  0.2309811E+03  0.7546771E-02  0.1125951E+00
         21   -1    0    0  503  501  0.00000000000E+00  0.00000000000E+00  0.22200438906E+04  0.22200438906E+04  0.00000000000E+00 0. -1.
         21   -1    0    0  504  502 -0.00000000000E+00 -0.00000000000E+00 -0.42089127139E+02  0.42089127139E+02  0.00000000000E+00 0.  1.
         25    1    1    2    0    0 -0.81539144694E+02  0.19935682417E+03  0.15272918962E+04  0.15474615703E+04  0.12500000000E+03 0.  0.
         21    1    1    2  503  502  0.55054717053E+02 -0.18227758056E+03  0.25753125449E+03  0.32027876183E+03  0.00000000000E+00 0.  1.
         21    1    1    2  504  501  0.26484427642E+02 -0.17079243615E+02  0.39313161281E+03  0.39439268561E+03  0.00000000000E+00 0.  1.
<mgrwt>
<rscale>  4 0.23098111E+03</rscale>
<asrwt>0</asrwt>
<pdfrwt beam="1">  1       21 0.34154512E+00 0.23098111E+03</pdfrwt>
<pdfrwt beam="2">  1       21 0.64752521E-02 0.23098111E+03</pdfrwt>
<totfact> 0.32392112E+03</totfact>
</mgrwt>
</event>
<event>
 5    0  0.1531977E+001  0.3047504E+03  0.7546771E-02  0.1082890E+00
         21   -1    0    0  502  501  0.00000000000E+00  0.00000000000E+00  0.62385071239E+03  0.62385071239E+03  0.00000000000E+00 0.  1.
         21   -1    0    0  504  502 -0.00000000000E+00 -0.00000000000E+00 -0.56701241003E+03  0.56701241003E+03  0.00000000000E+00 0.  1.
         25    1    1    2    0    0  0.26528507481E+03  0.69831200541E+02 -0.25821878520E+03  0.39693136499E+03  0.12500000000E+03 0.  0.
         21    1    1    2  503  501 -0.27414800490E+03 -0.48530231133E+02  0.51885518659E+03  0.58883190859E+03  0.00000000000E+00 0.  1.
         21    1    1    2  504  503  0.88629300916E+01 -0.21300969408E+02 -0.20379809903E+03  0.20509984884E+03  0.00000000000E+00 0. -1.
<mgrwt>
<rscale>  4 0.30475044E+03</rscale>
<asrwt>0</asrwt>
<pdfrwt beam="1">  1       21 0.95977033E-01 0.30475044E+03</pdfrwt>
<pdfrwt beam="2">  1       21 0.87232678E-01 0.30475044E+03</pdfrwt>
<totfact> 0.93275366E+02</totfact>
</mgrwt>
</event>
<event>
 5    0  0.1531977E+001  0.2816349E+03  0.7546771E-02  0.1094799E+00
         21   -1    0    0  502  501  0.00000000000E+00  0.00000000000E+00  0.89299638176E+02  0.89299638176E+02  0.00000000000E+00 0.  1.
         21   -1    0    0  504  502 -0.00000000000E+00 -0.00000000000E+00 -0.14422284121E+04  0.14422284121E+04  0.00000000000E+00 0.  1.
         25    1    1    2    0    0 -0.86012922582E+02 -0.27851471078E+03 -0.49509001798E+03  0.58796921082E+03  0.12500000000E+03 0.  0.
         21    1    1    2  503  501 -0.23316250761E+02  0.65574218998E+02 -0.20314967909E+02  0.72500508052E+02  0.00000000000E+00 0.  1.
         21    1    1    2  504  503  0.10932917334E+03  0.21294049178E+03 -0.83752378806E+03  0.87105833143E+03  0.00000000000E+00 0.  1.
<mgrwt>
<rscale>  4 0.28163493E+03</rscale>
<asrwt>0</asrwt>
<pdfrwt beam="1">  1       21 0.13738406E-01 0.28163493E+03</pdfrwt>
<pdfrwt beam="2">  1       21 0.22188130E+00 0.28163493E+03</pdfrwt>
<totfact> 0.41863046E+03</totfact>
</mgrwt>
</event>
<event>
 5    0  0.1531977E+001  0.2662180E+03  0.7546771E-02  0.1103464E+00
         21   -1    0    0  503  501  0.00000000000E+00  0.00000000000E+00  0.28654854953E+03  0.28654854953E+03  0.00000000000E+00 0.  1.
         21   -1    0    0  504  502 -0.00000000000E+00 -0.00000000000E+00 -0.24828432375E+03  0.24828432375E+03  0.00000000000E+00 0.  1.
         25    1    1    2    0    0  0.88202384310E+02 -0.21787003269E+03 -0.39446570122E+02  0.26912458758E+03  0.12500000000E+03 0.  0.
         21    1    1    2  503  502 -0.32153626959E+02  0.57450262663E+02 -0.21105223392E+02  0.69136234068E+02  0.00000000000E+00 0. -1.
         21    1    1    2  504  501 -0.56048757351E+02  0.16041977003E+03  0.98816019287E+02  0.19657205164E+03  0.00000000000E+00 0.  1.
<mgrwt>
<rscale>  4 0.26621798E+03</rscale>
<asrwt>0</asrwt>
<pdfrwt beam="1">  1       21 0.44084392E-01 0.26621798E+03</pdfrwt>
<pdfrwt beam="2">  1       21 0.38197588E-01 0.26621798E+03</pdfrwt>
<totfact> 0.31539959E+04</totfact>
</mgrwt>
</event>
<event>
 5    0  0.1531977E+001  0.2653762E+03  0.7546771E-02  0.1103955E+00
         21   -1    0    0  502  501  0.00000000000E+00  0.00000000000E+00  0.74954599077E+03  0.74954599077E+03  0.00000000000E+00 0. -1.
         21   -1    0    0  504  502 -0.00000000000E+00 -0.00000000000E+00 -0.17719440662E+03  0.17719440662E+03  0.00000000000E+00 0. -1.
         25    1    1    2    0    0 -0.20283215832E+01  0.21847967251E+03 -0.16864871818E+02  0.25228338291E+03  0.12500000000E+03 0.  0.
         21    1    1    2  503  501  0.24083323991E+02 -0.23561478739E+03  0.59958313960E+03  0.64466601882E+03  0.00000000000E+00 0. -1.
         21    1    1    2  504  503 -0.22055002408E+02  0.17135114875E+02 -0.10366683627E+02  0.29790995660E+02  0.00000000000E+00 0. -1.
<mgrwt>
<rscale>  4 0.26537618E+03</rscale>
<asrwt>0</asrwt>
<pdfrwt beam="1">  1       21 0.11531477E+00 0.26537618E+03</pdfrwt>
<pdfrwt beam="2">  1       21 0.27260678E-01 0.26537618E+03</pdfrwt>
<totfact> 0.71198764E+03</totfact>
</mgrwt>
</event>
<event>
 5    0  0.1531977E+001  0.2186202E+03  0.7546771E-02  0.1134916E+00
         21   -1    0    0  502  501  0.00000000000E+00  0.00000000000E+00  0.56882568231E+03  0.56882568231E+03  0.00000000000E+00 0. -1.
         21   -1    0    0  504  502 -0.00000000000E+00 -0.00000000000E+00 -0.40891713234E+03  0.40891713234E+03  0.00000000000E+00 0.  1.
         25    1    1    2    0    0 -0.19474111820E+03  0.50812371707E+02  0.34232984569E+03  0.41631805568E+03  0.12500000000E+03 0.  0.
         21    1    1    2  503  501  0.22821047313E+02 -0.42045299374E+01  0.16732748907E+03  0.16892888110E+03  0.00000000000E+00 0. -1.
         21    1    1    2  504  503  0.17192007089E+03 -0.46607841769E+02 -0.34974878479E+03  0.39249587787E+03  0.00000000000E+00 0.  1.
<mgrwt>
<rscale>  4 0.21862021E+03</rscale>
<asrwt>0</asrwt>
<pdfrwt beam="1">  1       21 0.87511644E-01 0.21862021E+03</pdfrwt>
<pdfrwt beam="2">  1       21 0.62910328E-01 0.21862021E+03</pdfrwt>
<totfact> 0.25656695E+03</totfact>
</mgrwt>
</event>
<event>
 5    0  0.1531977E+001  0.3324473E+03  0.7546771E-02  0.1070059E+00
         21   -1    0    0  503  501  0.00000000000E+00  0.00000000000E+00  0.43566008303E+03  0.43566008303E+03  0.00000000000E+00 0. -1.
         21   -1    0    0  504  502 -0.00000000000E+00 -0.00000000000E+00 -0.62739800012E+03  0.62739800012E+03  0.00000000000E+00 0. -1.
         25    1    1    2    0    0 -0.84300672047E+02 -0.29764856352E+03 -0.48996595278E+03  0.59278402943E+03  0.12500000000E+03 0.  0.
         21    1    1    2  503  502  0.12757181832E+03  0.27414653920E+03  0.29250344101E+03  0.42070079247E+03  0.00000000000E+00 0. -1.
         21    1    1    2  504  501 -0.43271146269E+02  0.23502024318E+02  0.57245946701E+01  0.49573261247E+02  0.00000000000E+00 0. -1.
<mgrwt>
<rscale>  4 0.33244727E+03</rscale>
<asrwt>0</asrwt>
<pdfrwt beam="1">  1       21 0.67024628E-01 0.33244727E+03</pdfrwt>
<pdfrwt beam="2">  1       21 0.96522769E-01 0.33244727E+03</pdfrwt>
<totfact> 0.16473614E+03</totfact>
</mgrwt>
</event>
<event>
 5    0  0.1531977E+001  0.2257301E+03  0.7546771E-02  0.1129682E+00
         21   -1    0    0  503  501  0.00000000000E+00  0.00000000000E+00  0.18452375730E+03  0.18452375730E+03  0.00000000000E+00 0.  1.
         21   -1    0    0  504  502 -0.00000000000E+00 -0.00000000000E+00 -0.58378949599E+03  0.58378949599E+03  0.00000000000E+00 0.  1.
         25    1    1    2    0    0 -0.45236227714E+02  0.20399605535E+03 -0.23691767345E+03  0.33972884907E+03  0.12500000000E+03 0.  0.
         21    1    1    2  503  502  0.56153222294E+02 -0.19702671540E+02 -0.22569003408E+03  0.23340387984E+03  0.00000000000E+00 0.  1.
         21    1    1    2  504  501 -0.10916994579E+02 -0.18429338381E+03  0.63341968832E+02  0.19518052439E+03  0.00000000000E+00 0.  1.
<mgrwt>
<rscale>  4 0.22573013E+03</rscale>
<asrwt>0</asrwt>
<pdfrwt beam="1">  1       21 0.28388271E-01 0.22573013E+03</pdfrwt>
<pdfrwt beam="2">  1       21 0.89813768E-01 0.22573013E+03</pdfrwt>
<totfact> 0.12258845E+04</totfact>
</mgrwt>
</event>
<event>
 5    0  0.1531977E+001  0.2512481E+03  0.7546771E-02  0.1112519E+00
         21   -1    0    0  502  501  0.00000000000E+00  0.00000000000E+00  0.54028591347E+03  0.54028591347E+03  0.00000000000E+00 0. -1.
         21   -1    0    0  504  502 -0.00000000000E+00 -0.00000000000E+00 -0.12441063233E+03  0.12441063233E+03  0.00000000000E+00 0. -1.
         25    1    1    2    0    0  0.18185675492E+03 -0.10166245225E+03  0.21991548843E+03  0.32771169579E+03  0.12500000000E+03 0.  0.
         21    1    1    2  503  501  0.25898973157E+02  0.15059459889E+02  0.76516989317E+02  0.82172950518E+02  0.00000000000E+00 0.  1.
         21    1    1    2  504  503 -0.20775572808E+03  0.86602992356E+02  0.11944280339E+03  0.25481189948E+03  0.00000000000E+00 0. -1.
<mgrwt>
<rscale>  4 0.25124811E+03</rscale>
<asrwt>0</asrwt>
<pdfrwt beam="1">  1       21 0.83120908E-01 0.25124811E+03</pdfrwt>
<pdfrwt beam="2">  1       21 0.19140098E-01 0.25124811E+03</pdfrwt>
<totfact> 0.30667608E+04</totfact>
</mgrwt>
</event>
<event>
 5    0  0.1531977E+001  0.3233029E+03  0.7546771E-02  0.1074139E+00
         21   -1    0    0  503  501  0.00000000000E+00  0.00000000000E+00  0.20998052120E+03  0.20998052120E+03  0.00000000000E+00 0.  1.
         21   -1    0    0  504  502 -0.00000000000E+00 -0.00000000000E+00 -0.61431169214E+03  0.61431169214E+03  0.00000000000E+00 0.  1.
         25    1    1    2    0    0  0.16388469563E+03  0.25424925164E+03 -0.24429558555E+03  0.40841915790E+03  0.12500000000E+03 0.  0.
         21    1    1    2  503  502 -0.21413176303E+02  0.53522331023E+01 -0.11408724660E+03  0.11620271234E+03  0.00000000000E+00 0. -1.
         21    1    1    2  504  501 -0.14247151933E+03 -0.25960148474E+03 -0.45948338785E+02  0.29967034310E+03  0.00000000000E+00 0.  1.
<mgrwt>
<rscale>  4 0.32330286E+03</rscale>
<asrwt>0</asrwt>
<pdfrwt beam="1">  1       21 0.32304696E-01 0.32330286E+03</pdfrwt>
<pdfrwt beam="2">  1       21 0.94509489E-01 0.32330286E+03</pdfrwt>
<totfact> 0.80245188E+03</totfact>
</mgrwt>
</event>
<event>
 5    0  0.1531977E+001  0.3157641E+03  0.7546771E-02  0.1077615E+00
         21   -1    0    0  504  501  0.00000000000E+00  0.00000000000E+00  0.85032526917E+02  0.85032526917E+02  0.00000000000E+00 0. -1.
         21   -1    0    0  503  502 -0.00000000000E+00 -0.00000000000E+00 -0.24854519832E+04  0.24854519832E+04  0.00000000000E+00 0.  1.
         25    1    1    2    0    0 -0.37275711629E+03 -0.65768233539E+02 -0.12511459884E+04  0.13131125666E+04  0.12500000000E+03 0.  0.
         21    1    1    2  503  501  0.10718554505E+03  0.50519951951E+02 -0.84477590744E+03  0.85304591928E+03  0.00000000000E+00 0.  1.
         21    1    1    2  504  502  0.26557157125E+03  0.15248281588E+02 -0.30449756040E+03  0.40432602419E+03  0.00000000000E+00 0. -1.
<mgrwt>
<rscale>  4 0.31576410E+03</rscale>
<asrwt>0</asrwt>
<pdfrwt beam="1">  1       21 0.13081929E-01 0.31576410E+03</pdfrwt>
<pdfrwt beam="2">  1       21 0.38237718E+00 0.31576410E+03</pdfrwt>
<totfact> 0.48380886E+02</totfact>
</mgrwt>
</event>
<event>
 5    0  0.1531977E+001  0.3666465E+03  0.7546771E-02  0.1055983E+00
         21   -1    0    0  502  501  0.00000000000E+00  0.00000000000E+00  0.90408713354E+03  0.90408713354E+03  0.00000000000E+00 0. -1.
         21   -1    0    0  504  502 -0.00000000000E+00 -0.00000000000E+00 -0.27748977068E+03  0.27748977068E+03  0.00000000000E+00 0. -1.
         25    1    1    2    0    0 -0.20132554995E+03 -0.27255106335E+03  0.15977314705E+03  0.39492849696E+03  0.12500000000E+03 0.  0.
         21    1    1    2  503  501  0.28042301381E+03  0.21192746914E+03  0.55276219044E+03  0.65505446952E+03  0.00000000000E+00 0. -1.
         21    1    1    2  504  503 -0.79097463858E+02  0.60623594211E+02 -0.85937974635E+02  0.13159393773E+03  0.00000000000E+00 0. -1.
<mgrwt>
<rscale>  4 0.36664650E+03</rscale>
<asrwt>0</asrwt>
<pdfrwt beam="1">  1       21 0.13909033E+00 0.36664650E+03</pdfrwt>
<pdfrwt beam="2">  1       21 0.42690734E-01 0.36664650E+03</pdfrwt>
<totfact> 0.17037670E+03</totfact>
</mgrwt>
</event>
<event>
 5    0  0.1531977E+001  0.3938124E+03  0.7546771E-02  0.1045944E+00
         21   -1    0    0  503  501  0.00000000000E+00  0.00000000000E+00  0.10341374052E+04  0.10341374052E+04  0.00000000000E+00 0. -1.
         21   -1    0    0  504  502 -0.00000000000E+00 -0.00000000000E+00 -0.20815850648E+03  0.20815850648E+03  0.00000000000E+00 0. -1.
         25    1    1    2    0    0 -0.30970892901E+03 -0.18992877117E+03  0.15618757730E+03  0.41474343651E+03  0.12500000000E+03 0.  0.
         21    1    1    2  503  502  0.64316164954E+01 -0.35064744097E+02 -0.20207912603E+02  0.40978795750E+02  0.00000000000E+00 0.  1.
         21    1    1    2  504  501  0.30327731251E+03  0.22499351527E+03  0.68999923402E+03  0.78657367941E+03  0.00000000000E+00 0. -1.
<mgrwt>
<rscale>  4 0.39381240E+03</rscale>
<asrwt>0</asrwt>
<pdfrwt beam="1">  1       21 0.15909806E+00 0.39381240E+03</pdfrwt>
<pdfrwt beam="2">  1       21 0.32024386E-01 0.39381240E+03</pdfrwt>
<totfact> 0.20988359E+03</totfact>
</mgrwt>
</event>
<event>
 5    0  0.1531977E+001  0.1746341E+03  0.7546771E-02  0.1173100E+00
         21   -1    0    0  502  501  0.00000000000E+00  0.00000000000E+00  0.14674291715E+04  0.14674291715E+04  0.00000000000E+00 0.  1.
         21   -1    0    0  504  502 -0.00000000000E+00 -0.00000000000E+00 -0.51223068813E+02  0.51223068813E+02  0.00000000000E+00 0.  1.
         25    1    1    2    0    0 -0.18539657805E+03  0.10430073472E+03  0.81280358768E+03  0.84942639855E+03  0.12500000000E+03 0.  0.
         21    1    1    2  503  501  0.90416699044E+02 -0.48615593431E+02  0.52277817287E+03  0.53276230480E+03  0.00000000000E+00 0.  1.
         21    1    1    2  504  503  0.94979879010E+02 -0.55685141291E+02  0.80624342176E+02  0.13646353699E+03  0.00000000000E+00 0.  1.
<mgrwt>
<rscale>  4 0.17463415E+03</rscale>
<asrwt>0</asrwt>
<pdfrwt beam="1">  1       21 0.22575830E+00 0.17463415E+03</pdfrwt>
<pdfrwt beam="2">  1       21 0.78804732E-02 0.17463415E+03</pdfrwt>
<totfact> 0.11618238E+04</totfact>
</mgrwt>
</event>
<event>
 5    0  0.1531977E+001  0.2261402E+03  0.7546771E-02  0.1129386E+00
         21   -1    0    0  502  501  0.00000000000E+00  0.00000000000E+00  0.12920805965E+04  0.12920805965E+04  0.00000000000E+00 0. -1.
         21   -1    0    0  504  502 -0.00000000000E+00 -0.00000000000E+00 -0.11996661321E+03  0.11996661321E+03  0.00000000000E+00 0. -1.
         25    1    1    2    0    0 -0.96919429757E+02 -0.28024295658E+03  0.31142959694E+03  0.44782014741E+03  0.12500000000E+03 0.  0.
         21    1    1    2  503  501  0.91537391566E+02  0.14841376496E+03  0.80038960513E+03  0.81916375633E+03  0.00000000000E+00 0. -1.
         21    1    1    2  504  503  0.53820381912E+01  0.13182919162E+03  0.60294781224E+02  0.14506330598E+03  0.00000000000E+00 0. -1.
<mgrwt>
<rscale>  4 0.22614023E+03</rscale>
<asrwt>0</asrwt>
<pdfrwt beam="1">  1       21 0.19878162E+00 0.22614023E+03</pdfrwt>
<pdfrwt beam="2">  1       21 0.18456403E-01 0.22614023E+03</pdfrwt>
<totfact> 0.35541704E+03</totfact>
</mgrwt>
</event>
<event>
 5    0  0.1531977E+001  0.2844399E+03  0.7546771E-02  0.1093288E+00
         21   -1    0    0  502  501  0.00000000000E+00  0.00000000000E+00  0.13873938038E+03  0.13873938038E+03  0.00000000000E+00 0. -1.
         21   -1    0    0  504  502 -0.00000000000E+00 -0.00000000000E+00 -0.70115438829E+03  0.70115438829E+03  0.00000000000E+00 0. -1.
         25    1    1    2    0    0  0.23451662572E+03  0.16164499633E+03 -0.23271713789E+03  0.38847061516E+03  0.12500000000E+03 0.  0.
         21    1    1    2  503  501 -0.35056084465E+02 -0.41567378707E+02 -0.14301859404E+03  0.15300684388E+03  0.00000000000E+00 0. -1.
         21    1    1    2  504  503 -0.19946054126E+03 -0.12007761762E+03 -0.18667927598E+03  0.29841630963E+03  0.00000000000E+00 0. -1.
<mgrwt>
<rscale>  4 0.28443994E+03</rscale>
<asrwt>0</asrwt>
<pdfrwt beam="1">  1       21 0.21344520E-01 0.28443994E+03</pdfrwt>
<pdfrwt beam="2">  1       21 0.10786991E+00 0.28443994E+03</pdfrwt>
<totfact> 0.13276341E+04</totfact>
</mgrwt>
</event>
<event>
 5    0  0.1531977E+001  0.3641329E+03  0.7546771E-02  0.1056959E+00
         21   -1    0    0  502  501  0.00000000000E+00  0.00000000000E+00  0.48486758676E+03  0.48486758676E+03  0.00000000000E+00 0.  1.
         21   -1    0    0  504  502 -0.00000000000E+00 -0.00000000000E+00 -0.51075665063E+03  0.51075665063E+03  0.00000000000E+00 0.  1.
         25    1    1    2    0    0  0.38669684305E+03 -0.14774301834E+02  0.12754920735E+03  0.42620010408E+03  0.12500000000E+03 0.  0.
         21    1    1    2  503  501 -0.57619915253E+02 -0.37036253764E+01  0.12517353830E+03  0.13784841735E+03  0.00000000000E+00 0.  1.
         21    1    1    2  504  503 -0.32907692780E+03  0.18477927211E+02 -0.27861180952E+03  0.43157571596E+03  0.00000000000E+00 0.  1.
<mgrwt>
<rscale>  4 0.36413291E+03</rscale>
<asrwt>0</asrwt>
<pdfrwt beam="1">  1       21 0.74595013E-01 0.36413291E+03</pdfrwt>
<pdfrwt beam="2">  1       21 0.78577946E-01 0.36413291E+03</pdfrwt>
<totfact> 0.20627156E+03</totfact>
</mgrwt>
</event>
<event>
 5    0  0.1531977E+001  0.2149620E+03  0.7546771E-02  0.1137696E+00
         21   -1    0    0  502  501  0.00000000000E+00  0.00000000000E+00  0.27849820391E+03  0.27849820391E+03  0.00000000000E+00 0.  1.
         21   -1    0    0  504  502 -0.00000000000E+00 -0.00000000000E+00 -0.19973127543E+03  0.19973127543E+03  0.00000000000E+00 0. -1.
         25    1    1    2    0    0 -0.99068184196E+01  0.20204834126E+03  0.61224001963E+01  0.23787425469E+03  0.12500000000E+03 0.  0.
         21    1    1    2  503  501 -0.28418807222E+02 -0.42295838917E+02 -0.16347979283E+02  0.53514699105E+02  0.00000000000E+00 0. -1.
         21    1    1    2  504  503  0.38325625642E+02 -0.15975250235E+03  0.88992507561E+02  0.18684052555E+03  0.00000000000E+00 0.  1.
<mgrwt>
<rscale>  4 0.21496205E+03</rscale>
<asrwt>0</asrwt>
<pdfrwt beam="1">  1       21 0.42845878E-01 0.21496205E+03</pdfrwt>
<pdfrwt beam="2">  1       21 0.30727889E-01 0.21496205E+03</pdfrwt>
<totfact> 0.52718651E+04</totfact>
</mgrwt>
</event>
<event>
 5    0  0.1531977E+001  0.3362196E+03  0.7546771E-02  0.1068418E+00
         21   -1    0    0  504  501  0.00000000000E+00  0.00000000000E+00  0.40553526571E+03  0.40553526571E+03  0.00000000000E+00 0. -1.
         21   -1    0    0  501  502 -0.00000000000E+00 -0.00000000000E+00 -0.27459200043E+03  0.27459200043E+03  0.00000000000E+00 0. -1.
         25    1    1    2    0    0  0.31184041362E+03  0.13197905061E+02  0.17847789522E+02  0.33669299348E+03  0.12500000000E+03 0.  0.
         21    1    1    2  503  502 -0.24192280095E+03 -0.44772980132E+02  0.10014632594E+03  0.26563235490E+03  0.00000000000E+00 0. -1.
         21    1    1    2  504  503 -0.69917612675E+02  0.31575075071E+02  0.12949149819E+02  0.77801917771E+02  0.00000000000E+00 0. -1.
<mgrwt>
<rscale>  4 0.33621961E+03</rscale>
<asrwt>0</asrwt>
<pdfrwt beam="1">  1       21 0.62390041E-01 0.33621961E+03</pdfrwt>
<pdfrwt beam="2">  1       21 0.42244923E-01 0.33621961E+03</pdfrwt>
<totfact> 0.11936666E+04</totfact>
</mgrwt>
</event>
<event>
 5    0  0.1531977E+001  0.2223560E+03  0.7546771E-02  0.1132139E+00
         21   -1    0    0  504  501  0.00000000000E+00  0.00000000000E+00  0.45795205634E+02  0.45795205634E+02  0.00000000000E+00 0. -1.
         21   -1    0    0  501  502 -0.00000000000E+00 -0.00000000000E+00 -0.14827451350E+04  0.14827451350E+04  0.00000000000E+00 0. -1.
         25    1    1    2    0    0  0.11793082066E+03 -0.19144297512E+03 -0.67672201711E+03  0.72397222297E+03  0.12500000000E+03 0.  0.
         21    1    1    2  503  502 -0.10500005236E+03  0.12656665510E+03 -0.32392698121E+03  0.36328063302E+03  0.00000000000E+00 0. -1.
         21    1    1    2  504  503 -0.12930768302E+02  0.64876320021E+02 -0.43630093104E+03  0.44128748463E+03  0.00000000000E+00 0. -1.
<mgrwt>
<rscale>  4 0.22235599E+03</rscale>
<asrwt>0</asrwt>
<pdfrwt beam="1">  1       21 0.70454156E-02 0.22235599E+03</pdfrwt>
<pdfrwt beam="2">  1       21 0.22811466E+00 0.22235599E+03</pdfrwt>
<totfact> 0.13102143E+04</totfact>
</mgrwt>
</event>
<event>
 5    0  0.1531977E+001  0.2664954E+03  0.7546771E-02  0.1103302E+00
         21   -1    0    0  502  501  0.00000000000E+00  0.00000000000E+00  0.19323152427E+03  0.19323152427E+03  0.00000000000E+00 0.  1.
         21   -1    0    0  504  502 -0.00000000000E+00 -0.00000000000E+00 -0.48913159141E+03  0.48913159141E+03  0.00000000000E+00 0.  1.
         25    1    1    2    0    0  0.26629287493E+03  0.49849100063E+02 -0.69475047060E+02  0.30634720528E+03  0.12500000000E+03 0.  0.
         21    1    1    2  503  501 -0.20086719590E+03 -0.44254060356E+02 -0.89805185026E+02  0.22443489815E+03  0.00000000000E+00 0.  1.
         21    1    1    2  504  503 -0.65425679030E+02 -0.55950397073E+01 -0.13661983506E+03  0.15158101226E+03  0.00000000000E+00 0.  1.
<mgrwt>
<rscale>  4 0.26649536E+03</rscale>
<asrwt>0</asrwt>
<pdfrwt beam="1">  1       21 0.29727927E-01 0.26649536E+03</pdfrwt>
<pdfrwt beam="2">  1       21 0.75251015E-01 0.26649536E+03</pdfrwt>
<totfact> 0.16433537E+04</totfact>
</mgrwt>
</event>
<event>
 5    0  0.1531977E+001  0.2310185E+03  0.7546771E-02  0.1125925E+00
         21   -1    0    0  502  501  0.00000000000E+00  0.00000000000E+00  0.31707786986E+03  0.31707786986E+03  0.00000000000E+00 0. -1.
         21   -1    0    0  504  502 -0.00000000000E+00 -0.00000000000E+00 -0.21762214714E+03  0.21762214714E+03  0.00000000000E+00 0. -1.
         25    1    1    2    0    0 -0.10484762184E+03 -0.17831055603E+03  0.76569939959E+01  0.24180841125E+03  0.12500000000E+03 0.  0.
         21    1    1    2  503  501  0.11785834136E+03  0.14863079958E+03  0.13933271329E+03  0.23536207895E+03  0.00000000000E+00 0. -1.
         21    1    1    2  504  503 -0.13010719526E+02  0.29679756448E+02 -0.47533984571E+02  0.57529526806E+02  0.00000000000E+00 0. -1.
<mgrwt>
<rscale>  4 0.23101850E+03</rscale>
<asrwt>0</asrwt>
<pdfrwt beam="1">  1       21 0.48781211E-01 0.23101850E+03</pdfrwt>
<pdfrwt beam="2">  1       21 0.33480330E-01 0.23101850E+03</pdfrwt>
<totfact> 0.33799896E+04</totfact>
</mgrwt>
</event>
<event>
 5    0  0.1531977E+001  0.2123828E+03  0.7546771E-02  0.1139693E+00
         21   -1    0    0  502  501  0.00000000000E+00  0.00000000000E+00  0.68942614329E+03  0.68942614329E+03  0.00000000000E+00 0. -1.
         21   -1    0    0  504  502 -0.00000000000E+00 -0.00000000000E+00 -0.10202502636E+03  0.10202502636E+03  0.00000000000E+00 0. -1.
         25    1    1    2    0    0 -0.22320883828E+02  0.21137385036E+03  0.21075574884E+03  0.32437649751E+03  0.12500000000E+03 0.  0.
         21    1    1    2  503  501 -0.99634929925E+01 -0.16014706455E+03  0.37342367427E+03  0.40643768770E+03  0.00000000000E+00 0. -1.
         21    1    1    2  504  503  0.32284376821E+02 -0.51226785810E+02  0.32216938173E+01  0.60636984441E+02  0.00000000000E+00 0. -1.
<mgrwt>
<rscale>  4 0.21238280E+03</rscale>
<asrwt>0</asrwt>
<pdfrwt beam="1">  1       21 0.10606556E+00 0.21238280E+03</pdfrwt>
<pdfrwt beam="2">  1       21 0.15696158E-01 0.21238280E+03</pdfrwt>
<totfact> 0.25454540E+04</totfact>
</mgrwt>
</event>
<event>
 5    0  0.1531977E+001  0.3043572E+03  0.7546771E-02  0.1083083E+00
         21   -1    0    0  503  501  0.00000000000E+00  0.00000000000E+00  0.17934641231E+03  0.17934641231E+03  0.00000000000E+00 0.  1.
         21   -1    0    0  504  502 -0.00000000000E+00 -0.00000000000E+00 -0.88841077534E+03  0.88841077534E+03  0.00000000000E+00 0. -1.
         25    1    1    2    0    0 -0.25117224171E+03 -0.15676189033E+03 -0.62516260790E+02  0.32740657924E+03  0.12500000000E+03 0.  0.
         21    1    1    2  503  502  0.21209310242E+03  0.17345176116E+03 -0.64149624724E+03  0.69755747632E+03  0.00000000000E+00 0. -1.
         21    1    1    2  504  501  0.39079139289E+02 -0.16689870835E+02 -0.50518550038E+01  0.42793132101E+02  0.00000000000E+00 0. -1.
<mgrwt>
<rscale>  4 0.30435717E+03</rscale>
<asrwt>0</asrwt>
<pdfrwt beam="1">  1       21 0.27591756E-01 0.30435717E+03</pdfrwt>
<pdfrwt beam="2">  1       21 0.13667858E+00 0.30435717E+03</pdfrwt>
<totfact> 0.44245966E+03</totfact>
</mgrwt>
</event>
<event>
 5    0  0.1531977E+001  0.5161464E+03  0.7546771E-02  0.1012741E+00
         21   -1    0    0  504  501  0.00000000000E+00  0.00000000000E+00  0.82877221909E+03  0.82877221909E+03  0.00000000000E+00 0.  1.
         21   -1    0    0  503  502 -0.00000000000E+00 -0.00000000000E+00 -0.31792014628E+03  0.31792014628E+03  0.00000000000E+00 0.  1.
         25    1    1    2    0    0  0.95389345143E+02 -0.44211145548E+03  0.83546892828E+02  0.47662013127E+03  0.12500000000E+03 0.  0.
         21    1    1    2  503  501  0.58149920119E+02  0.23757924366E+03  0.12692026552E+03  0.27556136164E+03  0.00000000000E+00 0.  1.
         21    1    1    2  504  502 -0.15353926526E+03  0.20453221182E+03  0.30038491447E+03  0.39451087246E+03  0.00000000000E+00 0.  1.
<mgrwt>
<rscale>  4 0.50399768E+03</rscale>
<asrwt>0</asrwt>
<pdfrwt beam="1">  1       21 0.12750342E+00 0.51614638E+03</pdfrwt>
<pdfrwt beam="2">  1       21 0.48910792E-01 0.51614638E+03</pdfrwt>
<totfact> 0.15111259E+03</totfact>
</mgrwt>
</event>
<event>
 5    0  0.1531977E+001  0.2678656E+03  0.7546771E-02  0.1102507E+00
         21   -1    0    0  503  501  0.00000000000E+00  0.00000000000E+00  0.89294351927E+03  0.89294351927E+03  0.00000000000E+00 0.  1.
         21   -1    0    0  501  502 -0.00000000000E+00 -0.00000000000E+00 -0.81408998202E+02  0.81408998202E+02  0.00000000000E+00 0.  1.
         25    1    1    2    0    0  0.16221988900E+03 -0.16968242407E+03  0.40620636982E+03  0.48552655160E+03  0.12500000000E+03 0.  0.
         21    1    1    2  503  504 -0.14348853361E+03  0.19185634996E+03  0.38475255151E+03  0.45324644973E+03  0.00000000000E+00 0.  1.
         21    1    1    2  504  502 -0.18731355389E+02 -0.22173925899E+02  0.20575599744E+02  0.35579516147E+02  0.00000000000E+00 0.  1.
<mgrwt>
<rscale>  4 0.26786562E+03</rscale>
<asrwt>0</asrwt>
<pdfrwt beam="1">  1       21 0.13737592E+00 0.26786562E+03</pdfrwt>
<pdfrwt beam="2">  1       21 0.12524462E-01 0.26786562E+03</pdfrwt>
<totfact> 0.19554064E+04</totfact>
</mgrwt>
</event>
<event>
 5    0  0.1531977E+001  0.2807020E+03  0.7546771E-02  0.1095306E+00
         21   -1    0    0  504  501  0.00000000000E+00  0.00000000000E+00  0.52729248684E+03  0.52729248684E+03  0.00000000000E+00 0.  1.
         21   -1    0    0  503  502 -0.00000000000E+00 -0.00000000000E+00 -0.23692994352E+03  0.23692994352E+03  0.00000000000E+00 0.  1.
         25    1    1    2    0    0  0.13120420361E+03  0.21797208709E+03  0.21903122036E+03  0.35822625433E+03  0.12500000000E+03 0.  0.
         21    1    1    2  503  501 -0.15163831792E+03 -0.19962449951E+03 -0.71391929697E+02  0.26065480600E+03  0.00000000000E+00 0.  1.
         21    1    1    2  504  502  0.20434114303E+02 -0.18347587579E+02  0.14272325265E+03  0.14534137003E+03  0.00000000000E+00 0.  1.
<mgrwt>
<rscale>  4 0.28070204E+03</rscale>
<asrwt>0</asrwt>
<pdfrwt beam="1">  1       21 0.81121921E-01 0.28070204E+03</pdfrwt>
<pdfrwt beam="2">  1       21 0.36450761E-01 0.28070204E+03</pdfrwt>
<totfact> 0.91767819E+03</totfact>
</mgrwt>
</event>
<event>
 5    0  0.1531977E+001  0.2438458E+03  0.7546771E-02  0.1117257E+00
         21   -1    0    0  502  501  0.00000000000E+00  0.00000000000E+00  0.17868876428E+03  0.17868876428E+03  0.00000000000E+00 0.  1.
         21   -1    0    0  504  502 -0.00000000000E+00 -0.00000000000E+00 -0.46327269785E+03  0.46327269785E+03  0.00000000000E+00 0. -1.
         25    1    1    2    0    0  0.18442377814E+03 -0.99114270519E+02 -0.34055343714E+03  0.41885249446E+03  0.12500000000E+03 0.  0.
         21    1    1    2  503  501 -0.15377124607E+03  0.99503446033E+02  0.58697407644E+02  0.19233283016E+03  0.00000000000E+00 0.  1.
         21    1    1    2  504  503 -0.30652532069E+02 -0.38917551371E+00 -0.27279040764E+01  0.30776137517E+02  0.00000000000E+00 0.  1.
<mgrwt>
<rscale>  4 0.24384579E+03</rscale>
<asrwt>0</asrwt>
<pdfrwt beam="1">  1       21 0.27490579E-01 0.24384579E+03</pdfrwt>
<pdfrwt beam="2">  1       21 0.71272722E-01 0.24384579E+03</pdfrwt>
<totfact> 0.21856886E+04</totfact>
</mgrwt>
</event>
<event>
 5    0  0.1531977E+001  0.3520278E+03  0.7546771E-02  0.1061786E+00
         21   -1    0    0  503  501  0.00000000000E+00  0.00000000000E+00  0.10961617334E+04  0.10961617334E+04  0.00000000000E+00 0. -1.
         21   -1    0    0  504  502 -0.00000000000E+00 -0.00000000000E+00 -0.39894731115E+03  0.39894731115E+03  0.00000000000E+00 0. -1.
         25    1    1    2    0    0 -0.31550714513E+03 -0.18006079672E+03  0.79600375505E+03  0.88386290068E+03  0.12500000000E+03 0.  0.
         21    1    1    2  503  502  0.30013367049E+03  0.12778089341E+03 -0.27509268545E+03  0.42671320869E+03  0.00000000000E+00 0. -1.
         21    1    1    2  504  501  0.15373474638E+02  0.52279903304E+02  0.17630335268E+03  0.18453293521E+03  0.00000000000E+00 0. -1.
<mgrwt>
<rscale>  4 0.35202779E+03</rscale>
<asrwt>0</asrwt>
<pdfrwt beam="1">  1       21 0.16864027E+00 0.35202779E+03</pdfrwt>
<pdfrwt beam="2">  1       21 0.61376510E-01 0.35202779E+03</pdfrwt>
<totfact> 0.47011748E+02</totfact>
</mgrwt>
</event>
<event>
 5    0  0.1531977E+001  0.3297963E+03  0.7546771E-02  0.1071227E+00
         21   -1    0    0  503  501  0.00000000000E+00  0.00000000000E+00  0.15943782672E+03  0.15943782672E+03  0.00000000000E+00 0.  1.
         21   -1    0    0  504  502 -0.00000000000E+00 -0.00000000000E+00 -0.23112453968E+04  0.23112453968E+04  0.00000000000E+00 0. -1.
         25    1    1    2    0    0  0.26613165560E+03  0.12618462467E+03 -0.18167408043E+04  0.18447007258E+04  0.12500000000E+03 0.  0.
         21    1    1    2  503  502  0.24817591223E+02 -0.30360008210E+02 -0.31669027598E+03  0.31910871789E+03  0.00000000000E+00 0.  1.
         21    1    1    2  504  501 -0.29094924682E+03 -0.95824616457E+02 -0.18376489716E+02  0.30687377979E+03  0.00000000000E+00 0.  1.
<mgrwt>
<rscale>  4 0.32979625E+03</rscale>
<asrwt>0</asrwt>
<pdfrwt beam="1">  1       21 0.24528898E-01 0.32979625E+03</pdfrwt>
<pdfrwt beam="2">  1       21 0.35557620E+00 0.32979625E+03</pdfrwt>
<totfact> 0.21509650E+02</totfact>
</mgrwt>
</event>
<event>
 5    0  0.1531977E+001  0.2415247E+03  0.7546771E-02  0.1118781E+00
         21   -1    0    0  503  501  0.00000000000E+00  0.00000000000E+00  0.43587516700E+03  0.43587516700E+03  0.00000000000E+00 0. -1.
         21   -1    0    0  504  502 -0.00000000000E+00 -0.00000000000E+00 -0.18820505062E+03  0.18820505062E+03  0.00000000000E+00 0. -1.
         25    1    1    2    0    0 -0.20784253469E+03  0.42751195306E+02  0.21011483935E+03  0.32372740020E+03  0.12500000000E+03 0.  0.
         21    1    1    2  503  502  0.19010641703E+03 -0.78930560212E+02 -0.42998335089E+02  0.21028395077E+03  0.00000000000E+00 0. -1.
         21    1    1    2  504  501  0.17736117666E+02  0.36179364905E+02  0.80553612117E+02  0.90068866652E+02  0.00000000000E+00 0. -1.
<mgrwt>
<rscale>  4 0.24152470E+03</rscale>
<asrwt>0</asrwt>
<pdfrwt beam="1">  1       21 0.67057718E-01 0.24152470E+03</pdfrwt>
<pdfrwt beam="2">  1       21 0.28954623E-01 0.24152470E+03</pdfrwt>
<totfact> 0.22636957E+04</totfact>
</mgrwt>
</event>
<event>
 5    0  0.1531977E+001  0.3578144E+03  0.7546771E-02  0.1059453E+00
         21   -1    0    0  502  501  0.00000000000E+00  0.00000000000E+00  0.42761855008E+03  0.42761855008E+03  0.00000000000E+00 0. -1.
         21   -1    0    0  504  502 -0.00000000000E+00 -0.00000000000E+00 -0.31764226574E+03  0.31764226574E+03  0.00000000000E+00 0. -1.
         25    1    1    2    0    0  0.33235341470E+03  0.85752184220E+02 -0.13730889626E+02  0.36554858322E+03  0.12500000000E+03 0.  0.
         21    1    1    2  503  501 -0.20328127764E+02  0.79596701023E+01  0.36363300666E+02  0.42413190895E+02  0.00000000000E+00 0.  1.
         21    1    1    2  504  503 -0.31202528694E+03 -0.93711854322E+02  0.87343873300E+02  0.33729904170E+03  0.00000000000E+00 0. -1.
<mgrwt>
<rscale>  4 0.35781442E+03</rscale>
<asrwt>0</asrwt>
<pdfrwt beam="1">  1       21 0.65787469E-01 0.35781442E+03</pdfrwt>
<pdfrwt beam="2">  1       21 0.48868041E-01 0.35781442E+03</pdfrwt>
<totfact> 0.77728899E+03</totfact>
</mgrwt>
</event>
<event>
 5    0  0.1531977E+001  0.2013479E+03  0.7546771E-02  0.1148607E+00
         21   -1    0    0  503  501  0.00000000000E+00  0.00000000000E+00  0.88499418836E+03  0.88499418836E+03  0.00000000000E+00 0. -1.
         21   -1    0    0  504  502 -0.00000000000E+00 -0.00000000000E+00 -0.10768144679E+03  0.10768144679E+03  0.00000000000E+00 0. -1.
         25    1    1    2    0    0  0.19741245444E+03 -0.10690605775E+03  0.40673298042E+03  0.48110009323E+03  0.12500000000E+03 0.  0.
         21    1    1    2  503  502 -0.50767285342E+02  0.14350337472E+03  0.55323625572E+02  0.16196061053E+03  0.00000000000E+00 0. -1.
         21    1    1    2  504  501 -0.14664516909E+03 -0.36597316973E+02  0.31525613558E+03  0.34961493138E+03  0.00000000000E+00 0. -1.
<mgrwt>
<rscale>  4 0.20134791E+03</rscale>
<asrwt>0</asrwt>
<pdfrwt beam="1">  1       21 0.13615295E+00 0.20134791E+03</pdfrwt>
<pdfrwt beam="2">  1       21 0.16566377E-01 0.20134791E+03</pdfrwt>
<totfact> 0.12498255E+04</totfact>
</mgrwt>
</event>
<event>
 5    0  0.1531977E+001  0.3344529E+03  0.7546771E-02  0.1069183E+00
         21   -1    0    0  503  501  0.00000000000E+00  0.00000000000E+00  0.18835285154E+03  0.18835285154E+03  0.00000000000E+00 0. -1.
         21   -1    0    0  501  502 -0.00000000000E+00 -0.00000000000E+00 -0.10924407156E+04  0.10924407156E+04  0.00000000000E+00 0. -1.
         25    1    1    2    0    0 -0.32109322956E+03 -0.62317645937E+02 -0.81729067247E+03  0.88914194275E+03  0.12500000000E+03 0.  0.
         21    1    1    2  503  504  0.17550971810E+02  0.15317510647E+02 -0.81163672603E+02  0.84440538217E+02  0.00000000000E+00 0. -1.
         21    1    1    2  504  502  0.30354225775E+03  0.47000135290E+02 -0.56335190326E+01  0.30721108621E+03  0.00000000000E+00 0. -1.
<mgrwt>
<rscale>  4 0.33445294E+03</rscale>
<asrwt>0</asrwt>
<pdfrwt beam="1">  1       21 0.28977362E-01 0.33445294E+03</pdfrwt>
<pdfrwt beam="2">  1       21 0.16806780E+00 0.33445294E+03</pdfrwt>
<totfact> 0.22627971E+03</totfact>
</mgrwt>
</event>
<event>
 5    0  0.1531977E+001  0.2756739E+03  0.7546771E-02  0.1098075E+00
         21   -1    0    0  502  501  0.00000000000E+00  0.00000000000E+00  0.67206043963E+03  0.67206043963E+03  0.00000000000E+00 0. -1.
         21   -1    0    0  504  502 -0.00000000000E+00 -0.00000000000E+00 -0.14667911052E+03  0.14667911052E+03  0.00000000000E+00 0. -1.
         25    1    1    2    0    0 -0.22512748316E+03 -0.12276361583E+03  0.36047578360E+03  0.45969672569E+03  0.12500000000E+03 0.  0.
         21    1    1    2  503  501  0.22219629220E+03  0.77802404073E+02  0.19429724176E+03  0.30524715315E+03  0.00000000000E+00 0. -1.
         21    1    1    2  504  503  0.29311909617E+01  0.44961211755E+02 -0.29391696264E+02  0.53795671315E+02  0.00000000000E+00 0. -1.
<mgrwt>
<rscale>  4 0.27567393E+03</rscale>
<asrwt>0</asrwt>
<pdfrwt beam="1">  1       21 0.10339391E+00 0.27567393E+03</pdfrwt>
<pdfrwt beam="2">  1       21 0.22566017E-01 0.27567393E+03</pdfrwt>
<totfact> 0.13295307E+04</totfact>
</mgrwt>
</event>
<event>
 5    0  0.1531977E+001  0.2052027E+03  0.7546771E-02  0.1145422E+00
         21   -1    0    0  503  501  0.00000000000E+00  0.00000000000E+00  0.90178528379E+03  0.90178528379E+03  0.00000000000E+00 0.  1.
         21   -1    0    0  504  502 -0.00000000000E+00 -0.00000000000E+00 -0.14908757393E+03  0.14908757393E+03  0.00000000000E+00 0.  1.
         25    1    1    2    0    0  0.12435763041E+03  0.21503826283E+03  0.37135867640E+03  0.46393807912E+03  0.12500000000E+03 0.  0.
         21    1    1    2  503  502 -0.80024969496E+02 -0.12776662994E+03 -0.38694889724E+02  0.15564575792E+03  0.00000000000E+00 0.  1.
         21    1    1    2  504  501 -0.44332660919E+02 -0.87271632886E+02  0.42003392318E+03  0.43128902068E+03  0.00000000000E+00 0.  1.
<mgrwt>
<rscale>  4 0.20520271E+03</rscale>
<asrwt>0</asrwt>
<pdfrwt beam="1">  1       21 0.13873619E+00 0.20520271E+03</pdfrwt>
<pdfrwt beam="2">  1       21 0.22936550E-01 0.20520271E+03</pdfrwt>
<totfact> 0.64709541E+03</totfact>
</mgrwt>
</event>
<event>
 5    0  0.1531977E+001  0.2260982E+03  0.7546771E-02  0.1129417E+00
         21   -1    0    0  502  501  0.00000000000E+00  0.00000000000E+00  0.80734717280E+03  0.80734717280E+03  0.00000000000E+00 0. -1.
         21   -1    0    0  504  502 -0.00000000000E+00 -0.00000000000E+00 -0.12551520006E+03  0.12551520006E+03  0.00000000000E+00 0. -1.
         25    1    1    2    0    0  0.15272168799E+03  0.13247155895E+03  0.54361662590E+03  0.59330992227E+03  0.12500000000E+03 0.  0.
         21    1    1    2  503  501 -0.29325645986E+02  0.73905284082E+01  0.14966116415E+03  0.15268620592E+03  0.00000000000E+00 0. -1.
         21    1    1    2  504  503 -0.12339604201E+03 -0.13986208736E+03 -0.11445817316E+02  0.18686624467E+03  0.00000000000E+00 0. -1.
<mgrwt>
<rscale>  4 0.22609821E+03</rscale>
<asrwt>0</asrwt>
<pdfrwt beam="1">  1       21 0.12420725E+00 0.22609821E+03</pdfrwt>
<pdfrwt beam="2">  1       21 0.19310031E-01 0.22609821E+03</pdfrwt>
<totfact> 0.11677943E+04</totfact>
</mgrwt>
</event>
