<event>
 5    0  0.2159162E+000  0.2697775E+03  0.7546771E-02  0.1101407E+00
         21   -1    0    0  502  501  0.00000000000E+00  0.00000000000E+00  0.87537611875E+02  0.87537611875E+02  0.00000000000E+00 0.  1.
         21   -1    0    0  503  502 -0.00000000000E+00 -0.00000000000E+00 -0.10852175918E+04  0.10852175918E+04  0.00000000000E+00 0.  1.
         25    1    1    2    0    0  0.26133720032E+03 -0.64871736898E+02 -0.60768544094E+03  0.67632245981E+03  0.12500000000E+03 0.  0.
         21    1    1    2  503  504 -0.80352457388E+02 -0.48062844753E+02 -0.11072629778E+03  0.14500643942E+03  0.00000000000E+00 0.  1.
         21    1    1    2  504  501 -0.18098474293E+03  0.11293458165E+03 -0.27926824121E+03  0.35142630444E+03  0.00000000000E+00 0.  1.
<mgrwt>
<rscale>  4 0.26977746E+03</rscale>
<asrwt>0</asrwt>
<pdfrwt beam="1">  1       21 0.13467324E-01 0.26977746E+03</pdfrwt>
<pdfrwt beam="2">  1       21 0.16695656E+00 0.26977746E+03</pdfrwt>
<totfact> 0.10151437E+04</totfact>
</mgrwt>
</event>
<event>
 5    0  0.2159162E+000  0.2440038E+03  0.7546771E-02  0.1117154E+00
         21   -1    0    0  502  501  0.00000000000E+00  0.00000000000E+00  0.30248424362E+03  0.30248424362E+03  0.00000000000E+00 0. -1.
         21   -1    0    0  503  502 -0.00000000000E+00 -0.00000000000E+00 -0.21190891036E+03  0.21190891036E+03  0.00000000000E+00 0. -1.
         25    1    1    2    0    0 -0.49785837139E+02  0.20355396718E+03  0.15213512578E+03  0.28754641996E+03  0.12500000000E+03 0.  0.
         21    1    1    2  503  504 -0.11538278147E+02 -0.69631983639E+02 -0.13113292310E+02  0.71789298947E+02  0.00000000000E+00 0. -1.
         21    1    1    2  504  501  0.61324115287E+02 -0.13392198354E+03 -0.48446500214E+02  0.15505743508E+03  0.00000000000E+00 0. -1.
<mgrwt>
<rscale>  4 0.24400379E+03</rscale>
<asrwt>0</asrwt>
<pdfrwt beam="1">  1       21 0.46536037E-01 0.24400379E+03</pdfrwt>
<pdfrwt beam="2">  1       21 0.32601371E-01 0.24400379E+03</pdfrwt>
<totfact> 0.39073293E+04</totfact>
</mgrwt>
</event>
<event>
 5    0  0.2159162E+000  0.3238520E+03  0.7546771E-02  0.1073890E+00
         21   -1    0    0  502  501  0.00000000000E+00  0.00000000000E+00  0.39290441028E+03  0.39290441028E+03  0.00000000000E+00 0. -1.
         21   -1    0    0  503  502 -0.00000000000E+00 -0.00000000000E+00 -0.43701448098E+03  0.43701448098E+03  0.00000000000E+00 0. -1.
         25    1    1    2    0    0 -0.18010571251E+03  0.23836327214E+03  0.23802888629E+03  0.40191773772E+03  0.12500000000E+03 0.  0.
         21    1    1    2  503  504  0.16971927564E+03 -0.16117614208E+03 -0.16135614565E+03  0.28428539716E+03  0.00000000000E+00 0. -1.
         21    1    1    2  504  501  0.10386436865E+02 -0.77187130059E+02 -0.12078281134E+03  0.14371575638E+03  0.00000000000E+00 0. -1.
<mgrwt>
<rscale>  4 0.32385200E+03</rscale>
<asrwt>0</asrwt>
<pdfrwt beam="1">  1       21 0.60446832E-01 0.32385200E+03</pdfrwt>
<pdfrwt beam="2">  1       21 0.67232997E-01 0.32385200E+03</pdfrwt>
<totfact> 0.47660741E+03</totfact>
</mgrwt>
</event>
<event>
 5    0  0.2159162E+000  0.3739774E+03  0.7546771E-02  0.1053182E+00
         21   -1    0    0  502  501  0.00000000000E+00  0.00000000000E+00  0.94248317630E+03  0.94248317630E+03  0.00000000000E+00 0. -1.
         21   -1    0    0  503  502 -0.00000000000E+00 -0.00000000000E+00 -0.20349550959E+03  0.20349550959E+03  0.00000000000E+00 0.  1.
         25    1    1    2    0    0 -0.29988220912E+03 -0.18521550174E+03  0.69412757615E+03  0.78846192895E+03  0.12500000000E+03 0.  0.
         21    1    1    2  503  504  0.25949148289E+02  0.63582267900E+01  0.99365815833E+01  0.28504753961E+02  0.00000000000E+00 0. -1.
         21    1    1    2  504  501  0.27393306084E+03  0.17885727495E+03  0.34923508984E+02  0.32901200297E+03  0.00000000000E+00 0.  1.
<mgrwt>
<rscale>  4 0.37397743E+03</rscale>
<asrwt>0</asrwt>
<pdfrwt beam="1">  1       21 0.14499741E+00 0.37397743E+03</pdfrwt>
<pdfrwt beam="2">  1       21 0.31307002E-01 0.37397743E+03</pdfrwt>
<totfact> 0.28510309E+03</totfact>
</mgrwt>
</event>
<event>
 5    0  0.2159162E+000  0.3521466E+03  0.7546771E-02  0.1061737E+00
         21   -1    0    0  502  501  0.00000000000E+00  0.00000000000E+00  0.21923925060E+04  0.21923925060E+04  0.00000000000E+00 0. -1.
         21   -1    0    0  503  502 -0.00000000000E+00 -0.00000000000E+00 -0.96710590655E+02  0.96710590655E+02  0.00000000000E+00 0. -1.
         25    1    1    2    0    0  0.27400287341E+03 -0.18249571652E+03  0.18256266898E+04  0.18592794496E+04  0.12500000000E+03 0.  0.
         21    1    1    2  503  504 -0.31375493178E+02  0.40012221126E+02  0.60275307581E+02  0.78857543175E+02  0.00000000000E+00 0.  1.
         21    1    1    2  504  501 -0.24262738023E+03  0.14248349539E+03  0.20977991798E+03  0.35096610390E+03  0.00000000000E+00 0. -1.
<mgrwt>
<rscale>  4 0.35214665E+03</rscale>
<asrwt>0</asrwt>
<pdfrwt beam="1">  1       21 0.33729112E+00 0.35214665E+03</pdfrwt>
<pdfrwt beam="2">  1       21 0.14878554E-01 0.35214665E+03</pdfrwt>
<totfact> 0.69876583E+02</totfact>
</mgrwt>
</event>
<event>
 5    0  0.2159162E+000  0.3923563E+03  0.7546771E-02  0.1047987E+00
         21   -1    0    0  502  501  0.00000000000E+00  0.00000000000E+00  0.37189574194E+03  0.37189574194E+03  0.00000000000E+00 0. -1.
         21   -1    0    0  503  502 -0.00000000000E+00 -0.00000000000E+00 -0.39759568873E+03  0.39759568873E+03  0.00000000000E+00 0. -1.
         25    1    1    2    0    0 -0.35080979623E+03 -0.48303973917E+02 -0.33795089986E+02  0.37705158153E+03  0.12500000000E+03 0.  0.
         21    1    1    2  503  504  0.26800808440E+03 -0.37764713520E+02  0.25042146901E+02  0.27181172898E+03  0.00000000000E+00 0. -1.
         21    1    1    2  504  501  0.82801711827E+02  0.86068687438E+02 -0.16947003704E+02  0.12062812016E+03  0.00000000000E+00 0. -1.
<mgrwt>
<rscale>  4 0.38808140E+03</rscale>
<asrwt>0</asrwt>
<pdfrwt beam="1">  1       21 0.57214729E-01 0.39235635E+03</pdfrwt>
<pdfrwt beam="2">  1       21 0.61168568E-01 0.39235635E+03</pdfrwt>
<totfact> 0.64303543E+03</totfact>
</mgrwt>
</event>
<event>
 5    0  0.2159162E+000  0.3308485E+03  0.7546771E-02  0.1070762E+00
         21   -1    0    0  502  501  0.00000000000E+00  0.00000000000E+00  0.84156605946E+03  0.84156605946E+03  0.00000000000E+00 0. -1.
         21   -1    0    0  503  502 -0.00000000000E+00 -0.00000000000E+00 -0.49651858023E+03  0.49651858023E+03  0.00000000000E+00 0. -1.
         25    1    1    2    0    0  0.64953948584E+02 -0.27070700426E+03  0.72484886335E+03  0.78646816356E+03  0.12500000000E+03 0.  0.
         21    1    1    2  503  504 -0.30676414189E+02  0.30693586706E+03 -0.39340663993E+03  0.49991944673E+03  0.00000000000E+00 0. -1.
         21    1    1    2  504  501 -0.34277534395E+02 -0.36228862796E+02  0.13605255806E+02  0.51697029405E+02  0.00000000000E+00 0. -1.
<mgrwt>
<rscale>  4 0.33084846E+03</rscale>
<asrwt>0</asrwt>
<pdfrwt beam="1">  1       21 0.12947170E+00 0.33084846E+03</pdfrwt>
<pdfrwt beam="2">  1       21 0.76387474E-01 0.33084846E+03</pdfrwt>
<totfact> 0.59442336E+02</totfact>
</mgrwt>
</event>
<event>
 5    0  0.2159162E+000  0.3040559E+03  0.7546771E-02  0.1083231E+00
         21   -1    0    0  502  501  0.00000000000E+00  0.00000000000E+00  0.60401836852E+02  0.60401836852E+02  0.00000000000E+00 0. -1.
         21   -1    0    0  503  502 -0.00000000000E+00 -0.00000000000E+00 -0.17402934402E+04  0.17402934402E+04  0.00000000000E+00 0.  1.
         25    1    1    2    0    0  0.58288427792E+00 -0.27717258095E+03 -0.48826809252E+03  0.57520058201E+03  0.12500000000E+03 0.  0.
         21    1    1    2  503  504  0.18984670127E+02  0.23309768726E+03 -0.10549834835E+04  0.10805947899E+04  0.00000000000E+00 0.  1.
         21    1    1    2  504  501 -0.19567554405E+02  0.44074893688E+02 -0.13664002736E+03  0.14489990516E+03  0.00000000000E+00 0.  1.
<mgrwt>
<rscale>  4 0.30405588E+03</rscale>
<asrwt>0</asrwt>
<pdfrwt beam="1">  1       21 0.92925903E-02 0.30405588E+03</pdfrwt>
<pdfrwt beam="2">  1       21 0.26773745E+00 0.30405588E+03</pdfrwt>
<totfact> 0.43930519E+03</totfact>
</mgrwt>
</event>
<event>
 5    0  0.2159162E+000  0.3802329E+03  0.7546771E-02  0.1050848E+00
         21   -1    0    0  502  501  0.00000000000E+00  0.00000000000E+00  0.93556917108E+03  0.93556917108E+03  0.00000000000E+00 0. -1.
         21   -1    0    0  503  502 -0.00000000000E+00 -0.00000000000E+00 -0.53629606135E+03  0.53629606135E+03  0.00000000000E+00 0. -1.
         25    1    1    2    0    0  0.30570190449E+03 -0.20986458956E+03  0.78691227744E+03  0.87883601015E+03  0.12500000000E+03 0.  0.
         21    1    1    2  503  504 -0.17406790358E+03  0.19101993729E+03 -0.38036534527E+03  0.45985437627E+03  0.00000000000E+00 0. -1.
         21    1    1    2  504  501 -0.13163400091E+03  0.18844652267E+02 -0.72738224400E+01  0.13317484600E+03  0.00000000000E+00 0.  1.
<mgrwt>
<rscale>  4 0.38023286E+03</rscale>
<asrwt>0</asrwt>
<pdfrwt beam="1">  1       21 0.14393372E+00 0.38023286E+03</pdfrwt>
<pdfrwt beam="2">  1       21 0.82507087E-01 0.38023286E+03</pdfrwt>
<totfact> 0.36663051E+02</totfact>
</mgrwt>
</event>
<event>
 5    0  0.2159162E+000  0.2554585E+03  0.7546771E-02  0.1109903E+00
         21   -1    0    0  502  501  0.00000000000E+00  0.00000000000E+00  0.22778406576E+04  0.22778406576E+04  0.00000000000E+00 0. -1.
         21   -1    0    0  503  502 -0.00000000000E+00 -0.00000000000E+00 -0.40379160268E+02  0.40379160268E+02  0.00000000000E+00 0. -1.
         25    1    1    2    0    0  0.18743012259E+03  0.12043256074E+03  0.18333713567E+04  0.18510833542E+04  0.12500000000E+03 0.  0.
         21    1    1    2  503  504 -0.45317636833E+02  0.18176444913E+00  0.10977506917E+03  0.11876147127E+03  0.00000000000E+00 0. -1.
         21    1    1    2  504  501 -0.14211248576E+03 -0.12061432519E+03  0.29431507138E+03  0.34837499234E+03  0.00000000000E+00 0. -1.
<mgrwt>
<rscale>  4 0.25545851E+03</rscale>
<asrwt>0</asrwt>
<pdfrwt beam="1">  1       21 0.35043692E+00 0.25545851E+03</pdfrwt>
<pdfrwt beam="2">  1       21 0.62121803E-02 0.25545851E+03</pdfrwt>
<totfact> 0.30038447E+03</totfact>
</mgrwt>
</event>
