<event>
 5    0  0.1943430E+001  0.2441858E+03  0.7546771E-02  0.1117035E+00
         21   -1    0    0  502  501  0.00000000000E+00  0.00000000000E+00  0.34417478750E+03  0.34417478750E+03  0.00000000000E+00 0.  1.
         21   -1    0    0  503  502 -0.00000000000E+00 -0.00000000000E+00 -0.28421808236E+03  0.28421808236E+03  0.00000000000E+00 0.  1.
         25    1    1    2    0    0 -0.11977644990E+02  0.20942360809E+03  0.24060291109E+03  0.34280675668E+03  0.12500000000E+03 0.  0.
         21    1    1    2  503  504  0.31684651223E+01 -0.48826151525E+02 -0.86059235759E+02  0.98996082263E+02  0.00000000000E+00 0.  1.
         21    1    1    2  504  501  0.88091798680E+01 -0.16059745657E+03 -0.94586970189E+02  0.18659003091E+03  0.00000000000E+00 0.  1.
<mgrwt>
<rscale>  4 0.24418581E+03</rscale>
<asrwt>0</asrwt>
<pdfrwt beam="1">  1       21 0.52949967E-01 0.24418581E+03</pdfrwt>
<pdfrwt beam="2">  1       21 0.43725859E-01 0.24418581E+03</pdfrwt>
<totfact> 0.16489834E+04</totfact>
</mgrwt>
</event>
<event>
 5    0  0.1943430E+001  0.2241181E+03  0.7546771E-02  0.1130850E+00
         21   -1    0    0  504  501  0.00000000000E+00  0.00000000000E+00  0.47667964390E+04  0.47667964390E+04  0.00000000000E+00 0. -1.
         21   -1    0    0  501  502 -0.00000000000E+00 -0.00000000000E+00 -0.17197451051E+02  0.17197451051E+02  0.00000000000E+00 0.  1.
         25    1    1    2    0    0 -0.15441713956E+03  0.14430940415E+03  0.35166875053E+04  0.35252497595E+04  0.12500000000E+03 0.  0.
         21    1    1    2  503  502  0.16108049205E+02 -0.10182376695E+03  0.65116226134E+03  0.65927220430E+03  0.00000000000E+00 0.  1.
         21    1    1    2  504  503  0.13830909035E+03 -0.42485637198E+02  0.58174922134E+03  0.59947192626E+03  0.00000000000E+00 0.  1.
<mgrwt>
<rscale>  4 0.22411808E+03</rscale>
<asrwt>0</asrwt>
<pdfrwt beam="1">  1       21 0.73335225E+00 0.22411808E+03</pdfrwt>
<pdfrwt beam="2">  1       21 0.26457655E-02 0.22411808E+03</pdfrwt>
<totfact> 0.17578736E+01</totfact>
</mgrwt>
</event>
<event>
 5    0  0.1943430E+001  0.2642136E+03  0.7546771E-02  0.1104638E+00
         21   -1    0    0  503  501  0.00000000000E+00  0.00000000000E+00  0.39487759854E+03  0.39487759854E+03  0.00000000000E+00 0.  1.
         21   -1    0    0  504  502 -0.00000000000E+00 -0.00000000000E+00 -0.19955788947E+03  0.19955788947E+03  0.00000000000E+00 0.  1.
         25    1    1    2    0    0  0.17225504458E+03  0.15410039232E+03  0.20423799261E+03  0.33280157590E+03  0.12500000000E+03 0.  0.
         21    1    1    2  503  502 -0.18991352821E+03 -0.14078368883E+03  0.31762991465E+01  0.23642606480E+03  0.00000000000E+00 0.  1.
         21    1    1    2  504  501  0.17658483638E+02 -0.13316703487E+02 -0.12094582683E+02  0.25207847318E+02  0.00000000000E+00 0. -1.
<mgrwt>
<rscale>  4 0.26421355E+03</rscale>
<asrwt>0</asrwt>
<pdfrwt beam="1">  1       21 0.60750400E-01 0.26421355E+03</pdfrwt>
<pdfrwt beam="2">  1       21 0.30701214E-01 0.26421355E+03</pdfrwt>
<totfact> 0.24782166E+04</totfact>
</mgrwt>
</event>
<event>
 5    0  0.1943430E+001  0.2756914E+03  0.7546771E-02  0.1098066E+00
         21   -1    0    0  504  501  0.00000000000E+00  0.00000000000E+00  0.11183388206E+04  0.11183388206E+04  0.00000000000E+00 0.  1.
         21   -1    0    0  503  502 -0.00000000000E+00 -0.00000000000E+00 -0.29522167896E+03  0.29522167896E+03  0.00000000000E+00 0. -1.
         25    1    1    2    0    0 -0.93947966467E+02  0.22705624744E+03  0.10427697171E+04  0.10785983696E+04  0.12500000000E+03 0.  0.
         21    1    1    2  503  501  0.87587803995E+02 -0.19846205490E+03 -0.16355951956E+03  0.27168092882E+03  0.00000000000E+00 0. -1.
         21    1    1    2  504  502  0.63601624723E+01 -0.28594192533E+02 -0.56093055864E+02  0.63281201233E+02  0.00000000000E+00 0.  1.
<mgrwt>
<rscale>  4 0.27569142E+03</rscale>
<asrwt>0</asrwt>
<pdfrwt beam="1">  1       21 0.17205212E+00 0.27569142E+03</pdfrwt>
<pdfrwt beam="2">  1       21 0.45418720E-01 0.27569142E+03</pdfrwt>
<totfact> 0.88913014E+02</totfact>
</mgrwt>
</event>
<event>
 5    0  0.1943430E+001  0.3674079E+03  0.7546771E-02  0.1055689E+00
         21   -1    0    0  503  501  0.00000000000E+00  0.00000000000E+00  0.36567844836E+04  0.36567844836E+04  0.00000000000E+00 0. -1.
         21   -1    0    0  504  502 -0.00000000000E+00 -0.00000000000E+00 -0.11894967849E+03  0.11894967849E+03  0.00000000000E+00 0. -1.
         25    1    1    2    0    0 -0.70791221051E+02  0.33242485527E+03  0.22465062609E+04  0.22755072097E+04  0.12500000000E+03 0.  0.
         21    1    1    2  503  502  0.12975555115E+03  0.33918738573E+02 -0.21624687522E+02  0.13584774930E+03  0.00000000000E+00 0. -1.
         21    1    1    2  504  501 -0.58964330098E+02 -0.36634359385E+03  0.13129532318E+04  0.13643792031E+04  0.00000000000E+00 0. -1.
<mgrwt>
<rscale>  4 0.36740792E+03</rscale>
<asrwt>0</asrwt>
<pdfrwt beam="1">  1       21 0.56258214E+00 0.36740792E+03</pdfrwt>
<pdfrwt beam="2">  1       21 0.18299953E-01 0.36740792E+03</pdfrwt>
<totfact> 0.14128347E+01</totfact>
</mgrwt>
</event>
<event>
 5    0  0.1943430E+001  0.2228484E+03  0.7546771E-02  0.1131777E+00
         21   -1    0    0  504  501  0.00000000000E+00  0.00000000000E+00  0.78700672002E+03  0.78700672002E+03  0.00000000000E+00 0. -1.
         21   -1    0    0  503  502 -0.00000000000E+00 -0.00000000000E+00 -0.10070518980E+03  0.10070518980E+03  0.00000000000E+00 0. -1.
         25    1    1    2    0    0  0.18261488955E+03  0.11765646043E+03  0.51845626158E+03  0.57585860742E+03  0.12500000000E+03 0.  0.
         21    1    1    2  503  501 -0.10280092406E+03  0.13812981531E+02  0.37652453150E+02  0.11034734104E+03  0.00000000000E+00 0. -1.
         21    1    1    2  504  502 -0.79813965492E+02 -0.13146944196E+03  0.13019281549E+03  0.20150596136E+03  0.00000000000E+00 0. -1.
<mgrwt>
<rscale>  4 0.22284844E+03</rscale>
<asrwt>0</asrwt>
<pdfrwt beam="1">  1       21 0.12107795E+00 0.22284844E+03</pdfrwt>
<pdfrwt beam="2">  1       21 0.15493107E-01 0.22284844E+03</pdfrwt>
<totfact> 0.18744961E+04</totfact>
</mgrwt>
</event>
<event>
 5    0  0.1943430E+001  0.2361208E+03  0.7546771E-02  0.1122404E+00
         21   -1    0    0  503  501  0.00000000000E+00  0.00000000000E+00  0.14773162543E+03  0.14773162543E+03  0.00000000000E+00 0.  1.
         21   -1    0    0  504  502 -0.00000000000E+00 -0.00000000000E+00 -0.12516216285E+04  0.12516216285E+04  0.00000000000E+00 0.  1.
         25    1    1    2    0    0  0.13849539585E+02  0.26745620015E+03 -0.28666283885E+03  0.41173439488E+03  0.12500000000E+03 0.  0.
         21    1    1    2  503  502 -0.22289756091E+02 -0.86287695392E+02 -0.80054267688E+03  0.80548803660E+03  0.00000000000E+00 0.  1.
         21    1    1    2  504  501  0.84402165061E+01 -0.18116850476E+03 -0.16684487342E+02  0.18213082246E+03  0.00000000000E+00 0.  1.
<mgrwt>
<rscale>  4 0.23612076E+03</rscale>
<asrwt>0</asrwt>
<pdfrwt beam="1">  1       21 0.22727941E-01 0.23612076E+03</pdfrwt>
<pdfrwt beam="2">  1       21 0.19255719E+00 0.23612076E+03</pdfrwt>
<totfact> 0.26175352E+03</totfact>
</mgrwt>
</event>
<event>
 5    0  0.1943430E+001  0.2889287E+03  0.7546771E-02  0.1090910E+00
         21   -1    0    0  503  501  0.00000000000E+00  0.00000000000E+00  0.52474774552E+03  0.52474774552E+03  0.00000000000E+00 0. -1.
         21   -1    0    0  504  502 -0.00000000000E+00 -0.00000000000E+00 -0.53746453522E+03  0.53746453522E+03  0.00000000000E+00 0. -1.
         25    1    1    2    0    0 -0.22174268590E+02  0.25330207632E+03  0.35847414775E+03  0.45692707805E+03  0.12500000000E+03 0.  0.
         21    1    1    2  503  502  0.27735910779E+02 -0.28072063495E+03 -0.54429483192E+02  0.28729066165E+03  0.00000000000E+00 0. -1.
         21    1    1    2  504  501 -0.55616421891E+01  0.27418558630E+02 -0.31676145426E+03  0.31799454103E+03  0.00000000000E+00 0. -1.
<mgrwt>
<rscale>  4 0.28892872E+03</rscale>
<asrwt>0</asrwt>
<pdfrwt beam="1">  1       21 0.80730423E-01 0.28892872E+03</pdfrwt>
<pdfrwt beam="2">  1       21 0.82686851E-01 0.28892872E+03</pdfrwt>
<totfact> 0.15962846E+03</totfact>
</mgrwt>
</event>
<event>
 5    0  0.1943430E+001  0.1898504E+03  0.7546771E-02  0.1158596E+00
         21   -1    0    0  503  501  0.00000000000E+00  0.00000000000E+00  0.34915013126E+02  0.34915013126E+02  0.00000000000E+00 0. -1.
         21   -1    0    0  504  502 -0.00000000000E+00 -0.00000000000E+00 -0.24319666420E+04  0.24319666420E+04  0.00000000000E+00 0. -1.
         25    1    1    2    0    0  0.22853796485E+03 -0.53704634813E+02 -0.95643823110E+03  0.99273001319E+03  0.12500000000E+03 0.  0.
         21    1    1    2  503  502 -0.11391137595E+03  0.55935586166E+02 -0.12097495788E+04  0.12163875348E+04  0.00000000000E+00 0. -1.
         21    1    1    2  504  501 -0.11462658890E+03 -0.22309513527E+01 -0.23086381903E+03  0.25776410721E+03  0.00000000000E+00 0. -1.
<mgrwt>
<rscale>  4 0.18985043E+03</rscale>
<asrwt>0</asrwt>
<pdfrwt beam="1">  1       21 0.53715396E-02 0.18985043E+03</pdfrwt>
<pdfrwt beam="2">  1       21 0.37414878E+00 0.18985043E+03</pdfrwt>
<totfact> 0.30000349E+03</totfact>
</mgrwt>
</event>
<event>
 5    0  0.1943430E+001  0.4138409E+03  0.7546771E-02  0.1039090E+00
         21   -1    0    0  502  501  0.00000000000E+00  0.00000000000E+00  0.43805133880E+03  0.43805133880E+03  0.00000000000E+00 0. -1.
         21   -1    0    0  503  502 -0.00000000000E+00 -0.00000000000E+00 -0.68963724674E+03  0.68963724674E+03  0.00000000000E+00 0. -1.
         25    1    1    2    0    0  0.79993148248E+02  0.38739246560E+03  0.24084398119E+03  0.47969015984E+03  0.12500000000E+03 0.  0.
         21    1    1    2  503  504 -0.49671552596E+02 -0.38762638872E+03 -0.45346155490E+03  0.59862247046E+03  0.00000000000E+00 0. -1.
         21    1    1    2  504  501 -0.30321595652E+02  0.23392311940E+00 -0.38968334231E+02  0.49375955238E+02  0.00000000000E+00 0.  1.
<mgrwt>
<rscale>  4 0.41384091E+03</rscale>
<asrwt>0</asrwt>
<pdfrwt beam="1">  1       21 0.67392514E-01 0.41384091E+03</pdfrwt>
<pdfrwt beam="2">  1       21 0.10609804E+00 0.41384091E+03</pdfrwt>
<totfact> 0.12435339E+03</totfact>
</mgrwt>
</event>
<event>
 5    0  0.1943430E+001  0.3802767E+03  0.7546771E-02  0.1050832E+00
         21   -1    0    0  504  501  0.00000000000E+00  0.00000000000E+00  0.48083229153E+03  0.48083229153E+03  0.00000000000E+00 0.  1.
         21   -1    0    0  501  502 -0.00000000000E+00 -0.00000000000E+00 -0.10761034533E+04  0.10761034533E+04  0.00000000000E+00 0.  1.
         25    1    1    2    0    0 -0.36713317942E+03  0.70707628022E+02  0.32149605449E+03  0.50869544243E+03  0.12500000000E+03 0.  0.
         21    1    1    2  503  502  0.95043860338E+02  0.73262544333E+02 -0.57874038900E+03  0.59105090615E+03  0.00000000000E+00 0.  1.
         21    1    1    2  504  503  0.27208931908E+03 -0.14397017236E+03 -0.33802682722E+03  0.45718939621E+03  0.00000000000E+00 0.  1.
<mgrwt>
<rscale>  4 0.38027673E+03</rscale>
<asrwt>0</asrwt>
<pdfrwt beam="1">  1       21 0.73974199E-01 0.38027673E+03</pdfrwt>
<pdfrwt beam="2">  1       21 0.16555438E+00 0.38027673E+03</pdfrwt>
<totfact> 0.32120759E+02</totfact>
</mgrwt>
</event>
<event>
 5    0  0.1943430E+001  0.2492319E+03  0.7546771E-02  0.1113791E+00
         21   -1    0    0  503  501  0.00000000000E+00  0.00000000000E+00  0.22803360565E+03  0.22803360565E+03  0.00000000000E+00 0. -1.
         21   -1    0    0  504  502 -0.00000000000E+00 -0.00000000000E+00 -0.41600568041E+03  0.41600568041E+03  0.00000000000E+00 0. -1.
         25    1    1    2    0    0 -0.10467861527E+03  0.17502875195E+03  0.63147803379E+02  0.24739709290E+03  0.12500000000E+03 0.  0.
         21    1    1    2  503  502 -0.45391762583E+02  0.19242621035E+02 -0.91169239654E+02  0.10364613275E+03  0.00000000000E+00 0.  1.
         21    1    1    2  504  501  0.15007037785E+03 -0.19427137298E+03 -0.15995063849E+03  0.29299606042E+03  0.00000000000E+00 0. -1.
<mgrwt>
<rscale>  4 0.24923193E+03</rscale>
<asrwt>0</asrwt>
<pdfrwt beam="1">  1       21 0.35082094E-01 0.24923193E+03</pdfrwt>
<pdfrwt beam="2">  1       21 0.64000873E-01 0.24923193E+03</pdfrwt>
<totfact> 0.17100592E+04</totfact>
</mgrwt>
</event>
<event>
 5    0  0.1943430E+001  0.2359748E+03  0.7546771E-02  0.1122504E+00
         21   -1    0    0  503  501  0.00000000000E+00  0.00000000000E+00  0.35467015729E+03  0.35467015729E+03  0.00000000000E+00 0.  1.
         21   -1    0    0  504  502 -0.00000000000E+00 -0.00000000000E+00 -0.20498214724E+03  0.20498214724E+03  0.00000000000E+00 0.  1.
         25    1    1    2    0    0  0.12151532299E+03 -0.16321353977E+03  0.22390926000E+03  0.32736064211E+03  0.12500000000E+03 0.  0.
         21    1    1    2  503  502 -0.13288769267E+03  0.13973560816E+03 -0.57187604667E+02  0.20113577797E+03  0.00000000000E+00 0.  1.
         21    1    1    2  504  501  0.11372369678E+02  0.23477931606E+02 -0.17033645282E+02  0.31155884455E+02  0.00000000000E+00 0. -1.
<mgrwt>
<rscale>  4 0.23597479E+03</rscale>
<asrwt>0</asrwt>
<pdfrwt beam="1">  1       21 0.54564640E-01 0.23597479E+03</pdfrwt>
<pdfrwt beam="2">  1       21 0.31535715E-01 0.23597479E+03</pdfrwt>
<totfact> 0.29980159E+04</totfact>
</mgrwt>
</event>
