<event>
 5    0  0.1480317E+000  0.2637260E+03  0.7546771E-02  0.1104925E+00
         21   -1    0    0  504  501  0.00000000000E+00  0.00000000000E+00  0.26755763189E+03  0.26755763189E+03  0.00000000000E+00 0. -1.
         21   -1    0    0  501  502 -0.00000000000E+00 -0.00000000000E+00 -0.69631245372E+03  0.69631245372E+03  0.00000000000E+00 0. -1.
         25    1    1    2    0    0 -0.11360012390E+03 -0.20253744658E+03 -0.61099392995E+03  0.66548101990E+03  0.12500000000E+03 0.  0.
         21    1    1    2  503  502  0.37122940071E+02  0.55894309627E+02  0.78014193518E+02  0.10290044178E+03  0.00000000000E+00 0. -1.
         21    1    1    2  504  503  0.76477183830E+02  0.14664313695E+03  0.10422491460E+03  0.19548862393E+03  0.00000000000E+00 0. -1.
<mgrwt>
<rscale>  4 0.26372600E+03</rscale>
<asrwt>0</asrwt>
<pdfrwt beam="1">  1       21 0.41162714E-01 0.26372600E+03</pdfrwt>
<pdfrwt beam="2">  1       21 0.10712499E+00 0.26372600E+03</pdfrwt>
<totfact> 0.37581171E+03</totfact>
</mgrwt>
</event>
<event>
 5    0  0.2637641E+000  0.3336365E+03  0.7546771E-02  0.1069539E+00
         21   -1    0    0  504  501  0.00000000000E+00  0.00000000000E+00  0.45214921181E+03  0.45214921181E+03  0.00000000000E+00 0.  1.
         21   -1    0    0  501  502 -0.00000000000E+00 -0.00000000000E+00 -0.27229533402E+03  0.27229533402E+03  0.00000000000E+00 0.  1.
         25    1    1    2    0    0 -0.21895201010E+02 -0.30855944668E+03  0.23251926065E+03  0.40666760203E+03  0.12500000000E+03 0.  0.
         21    1    1    2  503  502 -0.72869489855E+01  0.20901329537E+02 -0.13691841188E+02  0.26027518457E+02  0.00000000000E+00 0. -1.
         21    1    1    2  504  503  0.29182149995E+02  0.28765811715E+03 -0.38973541667E+02  0.29174942534E+03  0.00000000000E+00 0.  1.
<mgrwt>
<rscale>  4 0.33363653E+03</rscale>
<asrwt>0</asrwt>
<pdfrwt beam="1">  1       21 0.69561417E-01 0.33363653E+03</pdfrwt>
<pdfrwt beam="2">  1       21 0.41891590E-01 0.33363653E+03</pdfrwt>
<totfact> 0.95568883E+03</totfact>
</mgrwt>
</event>
<event>
 5    0  0.1480317E+000  0.1937401E+03  0.7546771E-02  0.1155131E+00
         21   -1    0    0  504  501  0.00000000000E+00  0.00000000000E+00  0.19374243711E+03  0.19374243711E+03  0.00000000000E+00 0.  1.
         21   -1    0    0  501  502 -0.00000000000E+00 -0.00000000000E+00 -0.13437708684E+04  0.13437708684E+04  0.00000000000E+00 0.  1.
         25    1    1    2    0    0 -0.23399292243E+03  0.65158511834E+02 -0.10827432489E+04  0.11166719583E+04  0.12500000000E+03 0.  0.
         21    1    1    2  503  502  0.97302745640E+02 -0.15927171372E+02 -0.20068754995E+03  0.22360007111E+03  0.00000000000E+00 0.  1.
         21    1    1    2  504  503  0.13669017679E+03 -0.49231340462E+02  0.13340236758E+03  0.19724127608E+03  0.00000000000E+00 0.  1.
<mgrwt>
<rscale>  4 0.19374007E+03</rscale>
<asrwt>0</asrwt>
<pdfrwt beam="1">  1       21 0.29806529E-01 0.19374007E+03</pdfrwt>
<pdfrwt beam="2">  1       21 0.20673398E+00 0.19374007E+03</pdfrwt>
<totfact> 0.13112855E+03</totfact>
</mgrwt>
</event>
<event>
 5    0  0.1480317E+000  0.2684096E+03  0.7546771E-02  0.1102193E+00
         21   -1    0    0  504  501  0.00000000000E+00  0.00000000000E+00  0.66245223871E+03  0.66245223871E+03  0.00000000000E+00 0. -1.
         21   -1    0    0  501  502 -0.00000000000E+00 -0.00000000000E+00 -0.81211903648E+03  0.81211903648E+03  0.00000000000E+00 0. -1.
         25    1    1    2    0    0 -0.18848980313E+03 -0.14453476666E+03 -0.76647007898E+03  0.81210842049E+03  0.12500000000E+03 0.  0.
         21    1    1    2  503  502  0.29196313410E+02  0.30309431884E+02  0.15870366867E+03  0.16418873539E+03  0.00000000000E+00 0. -1.
         21    1    1    2  504  503  0.15929348972E+03  0.11422533478E+03  0.45809961254E+03  0.49827411932E+03  0.00000000000E+00 0. -1.
<mgrwt>
<rscale>  4 0.26840958E+03</rscale>
<asrwt>0</asrwt>
<pdfrwt beam="1">  1       21 0.10191573E+00 0.26840958E+03</pdfrwt>
<pdfrwt beam="2">  1       21 0.12494139E+00 0.26840958E+03</pdfrwt>
<totfact> 0.34739404E+02</totfact>
</mgrwt>
</event>
<event>
 5    0  0.1480317E+000  0.2626928E+03  0.7546771E-02  0.1105536E+00
         21   -1    0    0  504  501  0.00000000000E+00  0.00000000000E+00  0.90194857791E+03  0.90194857791E+03  0.00000000000E+00 0. -1.
         21   -1    0    0  501  502 -0.00000000000E+00 -0.00000000000E+00 -0.15915026890E+03  0.15915026890E+03  0.00000000000E+00 0. -1.
         25    1    1    2    0    0 -0.22372196820E+03 -0.57714674425E+02 -0.18571926913E+02  0.26334847478E+03  0.12500000000E+03 0.  0.
         21    1    1    2  503  502  0.24754629747E+02 -0.26265498920E+01  0.40905919523E+02  0.47885119925E+02  0.00000000000E+00 0.  1.
         21    1    1    2  504  503  0.19896733845E+03  0.60341224317E+02  0.72046431640E+03  0.74986525211E+03  0.00000000000E+00 0. -1.
<mgrwt>
<rscale>  4 0.26269279E+03</rscale>
<asrwt>0</asrwt>
<pdfrwt beam="1">  1       21 0.13876132E+00 0.26269279E+03</pdfrwt>
<pdfrwt beam="2">  1       21 0.24484657E-01 0.26269279E+03</pdfrwt>
<totfact> 0.54888323E+03</totfact>
</mgrwt>
</event>
<event>
 5    0  0.1480317E+000  0.3953268E+03  0.7546771E-02  0.1045410E+00
         21   -1    0    0  504  501  0.00000000000E+00  0.00000000000E+00  0.24375310696E+03  0.24375310696E+03  0.00000000000E+00 0. -1.
         21   -1    0    0  501  502 -0.00000000000E+00 -0.00000000000E+00 -0.85348867464E+03  0.85348867464E+03  0.00000000000E+00 0. -1.
         25    1    1    2    0    0  0.13812237341E+03  0.40509829833E+03 -0.28005798564E+03  0.52653575061E+03  0.12500000000E+03 0.  0.
         21    1    1    2  503  502  0.29260601331E+00 -0.89784110141E+02  0.57706818339E+01  0.89969843953E+02  0.00000000000E+00 0. -1.
         21    1    1    2  504  503 -0.13841497942E+03 -0.31531418819E+03 -0.33544826387E+03  0.48073618705E+03  0.00000000000E+00 0. -1.
<mgrwt>
<rscale>  4 0.39532683E+03</rscale>
<asrwt>0</asrwt>
<pdfrwt beam="1">  1       21 0.37500478E-01 0.39532683E+03</pdfrwt>
<pdfrwt beam="2">  1       21 0.13130595E+00 0.39532683E+03</pdfrwt>
<totfact> 0.25495195E+03</totfact>
</mgrwt>
</event>
<event>
 5    0  0.1480317E+000  0.3176937E+03  0.7546771E-02  0.1076716E+00
         21   -1    0    0  504  501  0.00000000000E+00  0.00000000000E+00  0.35827343050E+03  0.35827343050E+03  0.00000000000E+00 0. -1.
         21   -1    0    0  501  502 -0.00000000000E+00 -0.00000000000E+00 -0.43678050947E+03  0.43678050947E+03  0.00000000000E+00 0. -1.
         25    1    1    2    0    0  0.29039610720E+03  0.31215063288E+02 -0.28590195029E+03  0.42739818020E+03  0.12500000000E+03 0.  0.
         21    1    1    2  503  502 -0.21780801370E+03 -0.20007488573E+02  0.19528063931E+03  0.29321520854E+03  0.00000000000E+00 0. -1.
         21    1    1    2  504  503 -0.72588093508E+02 -0.11207574715E+02  0.12114232016E+02  0.74440551230E+02  0.00000000000E+00 0. -1.
<mgrwt>
<rscale>  4 0.31769369E+03</rscale>
<asrwt>0</asrwt>
<pdfrwt beam="1">  1       21 0.55118989E-01 0.31769369E+03</pdfrwt>
<pdfrwt beam="2">  1       21 0.67197002E-01 0.31769369E+03</pdfrwt>
<totfact> 0.58410939E+03</totfact>
</mgrwt>
</event>
<event>
 5    0  0.1480317E+000  0.2695244E+03  0.7546771E-02  0.1101552E+00
         21   -1    0    0  504  501  0.00000000000E+00  0.00000000000E+00  0.49347341237E+02  0.49347341237E+02  0.00000000000E+00 0. -1.
         21   -1    0    0  501  502 -0.00000000000E+00 -0.00000000000E+00 -0.21755245368E+04  0.21755245368E+04  0.00000000000E+00 0. -1.
         25    1    1    2    0    0  0.15937877454E+03  0.22004429482E+03 -0.15010181110E+04  0.15305232618E+04  0.12500000000E+03 0.  0.
         21    1    1    2  503  502 -0.16102775030E+03 -0.16454230657E+03 -0.39144643658E+03  0.45413039948E+03  0.00000000000E+00 0. -1.
         21    1    1    2  504  503  0.16489757679E+01 -0.55501988248E+02 -0.23371264802E+03  0.24021821676E+03  0.00000000000E+00 0. -1.
<mgrwt>
<rscale>  4 0.26952439E+03</rscale>
<asrwt>0</asrwt>
<pdfrwt beam="1">  1       21 0.75918996E-02 0.26952439E+03</pdfrwt>
<pdfrwt beam="2">  1       21 0.33469604E+00 0.26952439E+03</pdfrwt>
<totfact> 0.25956443E+03</totfact>
</mgrwt>
</event>
<event>
 5    0  0.1480317E+000  0.2456405E+03  0.7546771E-02  0.1116091E+00
         21   -1    0    0  504  501  0.00000000000E+00  0.00000000000E+00  0.43269510518E+03  0.43269510518E+03  0.00000000000E+00 0. -1.
         21   -1    0    0  501  502 -0.00000000000E+00 -0.00000000000E+00 -0.24157177181E+03  0.24157177181E+03  0.00000000000E+00 0. -1.
         25    1    1    2    0    0 -0.17018641998E+02  0.21077151263E+03 -0.13370693364E+03  0.27967268157E+03  0.12500000000E+03 0.  0.
         21    1    1    2  503  502  0.24991284167E+02 -0.20016006074E+02  0.61479337019E+02  0.69317484546E+02  0.00000000000E+00 0. -1.
         21    1    1    2  504  503 -0.79726421692E+01 -0.19075550656E+03  0.26335093000E+03  0.32527671088E+03  0.00000000000E+00 0. -1.
<mgrwt>
<rscale>  4 0.24564052E+03</rscale>
<asrwt>0</asrwt>
<pdfrwt beam="1">  1       21 0.66568478E-01 0.24564052E+03</pdfrwt>
<pdfrwt beam="2">  1       21 0.37164888E-01 0.24564052E+03</pdfrwt>
<totfact> 0.14000718E+04</totfact>
</mgrwt>
</event>
<event>
 5    0  0.1480317E+000  0.2904476E+03  0.7546771E-02  0.1090116E+00
         21   -1    0    0  504  501  0.00000000000E+00  0.00000000000E+00  0.25023711363E+03  0.25023711363E+03  0.00000000000E+00 0. -1.
         21   -1    0    0  501  502 -0.00000000000E+00 -0.00000000000E+00 -0.31854444053E+03  0.31854444053E+03  0.00000000000E+00 0. -1.
         25    1    1    2    0    0  0.21709164210E+03  0.14698991240E+03 -0.12645543588E+02  0.29072276345E+03  0.12500000000E+03 0.  0.
         21    1    1    2  503  502 -0.14140917579E+03 -0.87516651369E+02 -0.70575159828E+02  0.18065595050E+03  0.00000000000E+00 0. -1.
         21    1    1    2  504  503 -0.75682466305E+02 -0.59473261027E+02  0.14913376513E+02  0.97402840217E+02  0.00000000000E+00 0. -1.
<mgrwt>
<rscale>  4 0.29044761E+03</rscale>
<asrwt>0</asrwt>
<pdfrwt beam="1">  1       21 0.38498017E-01 0.29044761E+03</pdfrwt>
<pdfrwt beam="2">  1       21 0.49006837E-01 0.29044761E+03</pdfrwt>
<totfact> 0.24662445E+04</totfact>
</mgrwt>
</event>
<event>
 5    0  0.1480317E+000  0.2784502E+03  0.7546771E-02  0.1096538E+00
         21   -1    0    0  504  501  0.00000000000E+00  0.00000000000E+00  0.66265038101E+03  0.66265038101E+03  0.00000000000E+00 0.  1.
         21   -1    0    0  501  502 -0.00000000000E+00 -0.00000000000E+00 -0.13618285154E+03  0.13618285154E+03  0.00000000000E+00 0. -1.
         25    1    1    2    0    0 -0.23260451853E+03  0.88344083064E+02  0.90769421366E+02  0.29287134873E+03  0.12500000000E+03 0.  0.
         21    1    1    2  503  502  0.86635497565E+02 -0.60833873054E+02  0.14522636500E+03  0.17971412477E+03  0.00000000000E+00 0. -1.
         21    1    1    2  504  503  0.14596902097E+03 -0.27510210010E+02  0.29047174310E+03  0.32624775904E+03  0.00000000000E+00 0.  1.
<mgrwt>
<rscale>  4 0.27845025E+03</rscale>
<asrwt>0</asrwt>
<pdfrwt beam="1">  1       21 0.10194621E+00 0.27845025E+03</pdfrwt>
<pdfrwt beam="2">  1       21 0.20951208E-01 0.27845025E+03</pdfrwt>
<totfact> 0.15818079E+04</totfact>
</mgrwt>
</event>
<event>
 5    0  0.1480317E+000  0.2456874E+03  0.7546771E-02  0.1116061E+00
         21   -1    0    0  504  501  0.00000000000E+00  0.00000000000E+00  0.30910882959E+03  0.30910882959E+03  0.00000000000E+00 0.  1.
         21   -1    0    0  501  502 -0.00000000000E+00 -0.00000000000E+00 -0.17690074394E+03  0.17690074394E+03  0.00000000000E+00 0.  1.
         25    1    1    2    0    0 -0.50933623674E+02  0.20528770516E+03  0.63479211881E+02  0.25375556398E+03  0.12500000000E+03 0.  0.
         21    1    1    2  503  502  0.26132096121E+02 -0.25933880891E+02 -0.42053612817E+01  0.37055872534E+02  0.00000000000E+00 0.  1.
         21    1    1    2  504  503  0.24801527553E+02 -0.17935382427E+03  0.72934235046E+02  0.19519813701E+03  0.00000000000E+00 0.  1.
<mgrwt>
<rscale>  4 0.24568735E+03</rscale>
<asrwt>0</asrwt>
<pdfrwt beam="1">  1       21 0.47555205E-01 0.24568735E+03</pdfrwt>
<pdfrwt beam="2">  1       21 0.27215499E-01 0.24568735E+03</pdfrwt>
<totfact> 0.53165312E+04</totfact>
</mgrwt>
</event>
<event>
 5    0  0.1480317E+000  0.5961594E+03  0.7546771E-02  0.9916766E-01
         21   -1    0    0  504  501  0.00000000000E+00  0.00000000000E+00  0.18680761300E+04  0.18680761300E+04  0.00000000000E+00 0. -1.
         21   -1    0    0  501  502 -0.00000000000E+00 -0.00000000000E+00 -0.26845193627E+03  0.26845193627E+03  0.00000000000E+00 0. -1.
         25    1    1    2    0    0  0.42365188809E+03  0.39079834650E+03  0.21278520474E+03  0.62698230698E+03  0.12500000000E+03 0.  0.
         21    1    1    2  503  502 -0.14556816044E+03 -0.23663067594E+03  0.61989489661E+03  0.67930394447E+03  0.00000000000E+00 0. -1.
         21    1    1    2  504  503 -0.27808372765E+03 -0.15416767056E+03  0.76694409242E+03  0.83024181486E+03  0.00000000000E+00 0. -1.
<mgrwt>
<rscale>  4 0.59455571E+03</rscale>
<asrwt>0</asrwt>
<pdfrwt beam="1">  1       21 0.28739632E+00 0.59615939E+03</pdfrwt>
<pdfrwt beam="2">  1       21 0.41300299E-01 0.59615939E+03</pdfrwt>
<totfact> 0.16564165E+02</totfact>
</mgrwt>
</event>
<event>
 5    0  0.1480317E+000  0.2487053E+03  0.7546771E-02  0.1114126E+00
         21   -1    0    0  504  501  0.00000000000E+00  0.00000000000E+00  0.12527143567E+03  0.12527143567E+03  0.00000000000E+00 0.  1.
         21   -1    0    0  501  502 -0.00000000000E+00 -0.00000000000E+00 -0.54185073853E+03  0.54185073853E+03  0.00000000000E+00 0.  1.
         25    1    1    2    0    0  0.18258457618E+03  0.11354391164E+03 -0.35699515471E+03  0.43508606944E+03  0.12500000000E+03 0.  0.
         21    1    1    2  503  502 -0.96362498004E+02 -0.65962109026E+02  0.30267182162E+00  0.11677680617E+03  0.00000000000E+00 0.  1.
         21    1    1    2  504  503 -0.86222078178E+02 -0.47581802615E+02 -0.59886819976E+02  0.11525929859E+03  0.00000000000E+00 0.  1.
<mgrwt>
<rscale>  4 0.24870534E+03</rscale>
<asrwt>0</asrwt>
<pdfrwt beam="1">  1       21 0.19272529E-01 0.24870534E+03</pdfrwt>
<pdfrwt beam="2">  1       21 0.83361650E-01 0.24870534E+03</pdfrwt>
<totfact> 0.30108368E+04</totfact>
</mgrwt>
</event>
<event>
 5    0  0.1480317E+000  0.2531209E+03  0.7546771E-02  0.1111348E+00
         21   -1    0    0  504  501  0.00000000000E+00  0.00000000000E+00  0.18462311271E+03  0.18462311271E+03  0.00000000000E+00 0. -1.
         21   -1    0    0  501  502 -0.00000000000E+00 -0.00000000000E+00 -0.37804992969E+03  0.37804992969E+03  0.00000000000E+00 0. -1.
         25    1    1    2    0    0 -0.19759469672E+03  0.96961371213E+02  0.15117109774E+02  0.25357188071E+03  0.12500000000E+03 0.  0.
         21    1    1    2  503  502  0.17469518040E+03 -0.60100885040E+02 -0.16761570550E+03  0.24945049041E+03  0.00000000000E+00 0. -1.
         21    1    1    2  504  503  0.22899516328E+02 -0.36860486174E+02 -0.40928221243E+02  0.59650671271E+02  0.00000000000E+00 0. -1.
<mgrwt>
<rscale>  4 0.25312086E+03</rscale>
<asrwt>0</asrwt>
<pdfrwt beam="1">  1       21 0.28403556E-01 0.25312086E+03</pdfrwt>
<pdfrwt beam="2">  1       21 0.58161527E-01 0.25312086E+03</pdfrwt>
<totfact> 0.31862077E+04</totfact>
</mgrwt>
</event>
<event>
 5    0  0.1480317E+000  0.3032364E+03  0.7546771E-02  0.1083634E+00
         21   -1    0    0  504  501  0.00000000000E+00  0.00000000000E+00  0.11104764950E+04  0.11104764950E+04  0.00000000000E+00 0. -1.
         21   -1    0    0  501  502 -0.00000000000E+00 -0.00000000000E+00 -0.10754619274E+03  0.10754619274E+03  0.00000000000E+00 0.  1.
         25    1    1    2    0    0  0.27486413327E+03 -0.27875194392E+02  0.19882729252E+03  0.36260806730E+03  0.12500000000E+03 0.  0.
         21    1    1    2  503  502 -0.11279020039E+03 -0.23516828077E+02  0.41685121163E+03  0.43248075465E+03  0.00000000000E+00 0. -1.
         21    1    1    2  504  503 -0.16207393287E+03  0.51392022468E+02  0.38725179810E+03  0.42293386578E+03  0.00000000000E+00 0. -1.
<mgrwt>
<rscale>  4 0.30323641E+03</rscale>
<asrwt>0</asrwt>
<pdfrwt beam="1">  1       21 0.17084253E+00 0.30323641E+03</pdfrwt>
<pdfrwt beam="2">  1       21 0.16545569E-01 0.30323641E+03</pdfrwt>
<totfact> 0.64025657E+03</totfact>
</mgrwt>
</event>
<event>
 5    0  0.1480317E+000  0.2259842E+03  0.7546771E-02  0.1129499E+00
         21   -1    0    0  504  501  0.00000000000E+00  0.00000000000E+00  0.91040597525E+02  0.91040597525E+02  0.00000000000E+00 0. -1.
         21   -1    0    0  501  502 -0.00000000000E+00 -0.00000000000E+00 -0.68042892231E+03  0.68042892231E+03  0.00000000000E+00 0. -1.
         25    1    1    2    0    0 -0.13283483259E+03 -0.17068544343E+03 -0.37011630540E+03  0.44653073004E+03  0.12500000000E+03 0.  0.
         21    1    1    2  503  502  0.60240519023E+02  0.19775827000E+02 -0.24247191816E+02  0.67881733748E+02  0.00000000000E+00 0. -1.
         21    1    1    2  504  503  0.72594313569E+02  0.15090961643E+03 -0.19502482757E+03  0.25705705605E+03  0.00000000000E+00 0. -1.
<mgrwt>
<rscale>  4 0.22598419E+03</rscale>
<asrwt>0</asrwt>
<pdfrwt beam="1">  1       21 0.14006246E-01 0.22598419E+03</pdfrwt>
<pdfrwt beam="2">  1       21 0.10468137E+00 0.22598419E+03</pdfrwt>
<totfact> 0.32108334E+04</totfact>
</mgrwt>
</event>
<event>
 5    0  0.1480317E+000  0.3217729E+03  0.7546771E-02  0.1074836E+00
         21   -1    0    0  504  501  0.00000000000E+00  0.00000000000E+00  0.14744757489E+03  0.14744757489E+03  0.00000000000E+00 0.  1.
         21   -1    0    0  501  502 -0.00000000000E+00 -0.00000000000E+00 -0.81121229459E+03  0.81121229459E+03  0.00000000000E+00 0.  1.
         25    1    1    2    0    0 -0.24073339251E+03 -0.17309022377E+03 -0.53916395030E+03  0.62788180188E+03  0.12500000000E+03 0.  0.
         21    1    1    2  503  502  0.11574584651E+03  0.12799860976E+03 -0.83379223729E+02  0.19165813324E+03  0.00000000000E+00 0.  1.
         21    1    1    2  504  503  0.12498754600E+03  0.45091614003E+02 -0.41221545668E+02  0.13911993436E+03  0.00000000000E+00 0.  1.
<mgrwt>
<rscale>  4 0.32177289E+03</rscale>
<asrwt>0</asrwt>
<pdfrwt beam="1">  1       21 0.22684242E-01 0.32177289E+03</pdfrwt>
<pdfrwt beam="2">  1       21 0.12480189E+00 0.32177289E+03</pdfrwt>
<totfact> 0.80863375E+03</totfact>
</mgrwt>
</event>
<event>
 5    0  0.1480317E+000  0.3289688E+03  0.7546771E-02  0.1071594E+00
         21   -1    0    0  504  501  0.00000000000E+00  0.00000000000E+00  0.12226240201E+03  0.12226240201E+03  0.00000000000E+00 0.  1.
         21   -1    0    0  501  502 -0.00000000000E+00 -0.00000000000E+00 -0.90931304659E+03  0.90931304659E+03  0.00000000000E+00 0.  1.
         25    1    1    2    0    0 -0.28525344475E+03  0.10595240028E+03 -0.53549441658E+03  0.62847013378E+03  0.12500000000E+03 0.  0.
         21    1    1    2  503  502  0.45323363822E+02 -0.16140124439E+02 -0.84576854599E+02  0.97303418537E+02  0.00000000000E+00 0.  1.
         21    1    1    2  504  503  0.23993008092E+03 -0.89812275844E+02 -0.16697937341E+03  0.30580189628E+03  0.00000000000E+00 0.  1.
<mgrwt>
<rscale>  4 0.32896875E+03</rscale>
<asrwt>0</asrwt>
<pdfrwt beam="1">  1       21 0.18809601E-01 0.32896875E+03</pdfrwt>
<pdfrwt beam="2">  1       21 0.13989431E+00 0.32896875E+03</pdfrwt>
<totfact> 0.85619283E+03</totfact>
</mgrwt>
</event>
<event>
 5    0  0.1480317E+000  0.2663946E+03  0.7546771E-02  0.1103361E+00
         21   -1    0    0  504  501  0.00000000000E+00  0.00000000000E+00  0.24537787375E+03  0.24537787375E+03  0.00000000000E+00 0.  1.
         21   -1    0    0  501  502 -0.00000000000E+00 -0.00000000000E+00 -0.54185392107E+03  0.54185392107E+03  0.00000000000E+00 0. -1.
         25    1    1    2    0    0  0.13819210694E+03  0.19037869692E+03 -0.43480690933E+03  0.50992465626E+03  0.12500000000E+03 0.  0.
         21    1    1    2  503  502 -0.97440517998E+02 -0.15975222933E+03  0.12354356831E+03  0.22422854991E+03  0.00000000000E+00 0.  1.
         21    1    1    2  504  503 -0.40751588941E+02 -0.30626467590E+02  0.14787293704E+02  0.53078588653E+02  0.00000000000E+00 0. -1.
<mgrwt>
<rscale>  4 0.26639464E+03</rscale>
<asrwt>0</asrwt>
<pdfrwt beam="1">  1       21 0.37750442E-01 0.26639464E+03</pdfrwt>
<pdfrwt beam="2">  1       21 0.83362141E-01 0.26639464E+03</pdfrwt>
<totfact> 0.80928342E+03</totfact>
</mgrwt>
</event>
<event>
 5    0  0.1480317E+000  0.3123539E+03  0.7546771E-02  0.1079223E+00
         21   -1    0    0  504  501  0.00000000000E+00  0.00000000000E+00  0.22436836814E+04  0.22436836814E+04  0.00000000000E+00 0.  1.
         21   -1    0    0  501  502 -0.00000000000E+00 -0.00000000000E+00 -0.40298913108E+02  0.40298913108E+02  0.00000000000E+00 0.  1.
         25    1    1    2    0    0  0.11380271872E+03 -0.26265733858E+03  0.11680961712E+04  0.12091375445E+04  0.12500000000E+03 0.  0.
         21    1    1    2  503  502 -0.94143777206E+02  0.23879658248E+03  0.88842119248E+03  0.92475892742E+03  0.00000000000E+00 0.  1.
         21    1    1    2  504  503 -0.19658941518E+02  0.23860756099E+02  0.14686740457E+03  0.15008612257E+03  0.00000000000E+00 0. -1.
<mgrwt>
<rscale>  4 0.31235386E+03</rscale>
<asrwt>0</asrwt>
<pdfrwt beam="1">  1       21 0.34518201E+00 0.31235386E+03</pdfrwt>
<pdfrwt beam="2">  1       21 0.61998345E-02 0.31235386E+03</pdfrwt>
<totfact> 0.30822820E+03</totfact>
</mgrwt>
</event>
<event>
 5    0  0.1480317E+000  0.2755747E+03  0.7546771E-02  0.1098131E+00
         21   -1    0    0  504  501  0.00000000000E+00  0.00000000000E+00  0.96886527148E+03  0.96886527148E+03  0.00000000000E+00 0.  1.
         21   -1    0    0  501  502 -0.00000000000E+00 -0.00000000000E+00 -0.80375967334E+02  0.80375967334E+02  0.00000000000E+00 0.  1.
         25    1    1    2    0    0 -0.94374290273E+02  0.22673754701E+03  0.29945547207E+03  0.40695823083E+03  0.12500000000E+03 0.  0.
         21    1    1    2  503  502  0.98321831280E+01 -0.92098722835E+02  0.27713688531E+03  0.29220489348E+03  0.00000000000E+00 0.  1.
         21    1    1    2  504  503  0.84542107145E+02 -0.13463882417E+03  0.31189694677E+03  0.35007811451E+03  0.00000000000E+00 0.  1.
<mgrwt>
<rscale>  4 0.27557471E+03</rscale>
<asrwt>0</asrwt>
<pdfrwt beam="1">  1       21 0.14905619E+00 0.27557471E+03</pdfrwt>
<pdfrwt beam="2">  1       21 0.12365534E-01 0.27557471E+03</pdfrwt>
<totfact> 0.16079778E+04</totfact>
</mgrwt>
</event>
<event>
 5    0  0.1480317E+000  0.2718424E+03  0.7546771E-02  0.1100230E+00
         21   -1    0    0  504  501  0.00000000000E+00  0.00000000000E+00  0.54338832007E+03  0.54338832007E+03  0.00000000000E+00 0. -1.
         21   -1    0    0  501  502 -0.00000000000E+00 -0.00000000000E+00 -0.13485272669E+03  0.13485272669E+03  0.00000000000E+00 0. -1.
         25    1    1    2    0    0  0.62609540634E+02  0.23313804578E+03  0.12451389696E+03  0.29900169482E+03  0.12500000000E+03 0.  0.
         21    1    1    2  503  502  0.75552012692E+01 -0.81810684815E+02  0.11895196716E+03  0.14456707685E+03  0.00000000000E+00 0. -1.
         21    1    1    2  504  503 -0.70164741903E+02 -0.15132736096E+03  0.16506972925E+03  0.23467227509E+03  0.00000000000E+00 0. -1.
<mgrwt>
<rscale>  4 0.27184242E+03</rscale>
<asrwt>0</asrwt>
<pdfrwt beam="1">  1       21 0.83598202E-01 0.27184242E+03</pdfrwt>
<pdfrwt beam="2">  1       21 0.20746574E-01 0.27184242E+03</pdfrwt>
<totfact> 0.25776470E+04</totfact>
</mgrwt>
</event>
<event>
 5    0  0.1480317E+000  0.2396038E+03  0.7546771E-02  0.1120057E+00
         21   -1    0    0  504  501  0.00000000000E+00  0.00000000000E+00  0.74967886554E+02  0.74967886554E+02  0.00000000000E+00 0. -1.
         21   -1    0    0  501  502 -0.00000000000E+00 -0.00000000000E+00 -0.73865629435E+03  0.73865629435E+03  0.00000000000E+00 0. -1.
         25    1    1    2    0    0  0.19806320893E+03 -0.50556558292E+02 -0.45011202011E+03  0.50991257189E+03  0.12500000000E+03 0.  0.
         21    1    1    2  503  502 -0.17277895962E+03  0.59396571913E+02 -0.15612773310E+03  0.24032559307E+03  0.00000000000E+00 0. -1.
         21    1    1    2  504  503 -0.25284249306E+02 -0.88400136211E+01 -0.57448654590E+02  0.63386015950E+02  0.00000000000E+00 0. -1.
<mgrwt>
<rscale>  4 0.23960384E+03</rscale>
<asrwt>0</asrwt>
<pdfrwt beam="1">  1       21 0.11533522E-01 0.23960384E+03</pdfrwt>
<pdfrwt beam="2">  1       21 0.11363942E+00 0.23960384E+03</pdfrwt>
<totfact> 0.37095115E+04</totfact>
</mgrwt>
</event>
<event>
 5    0  0.1480317E+000  0.2622408E+03  0.7546771E-02  0.1105804E+00
         21   -1    0    0  504  501  0.00000000000E+00  0.00000000000E+00  0.22690104182E+03  0.22690104182E+03  0.00000000000E+00 0.  1.
         21   -1    0    0  501  502 -0.00000000000E+00 -0.00000000000E+00 -0.45119285924E+03  0.45119285924E+03  0.00000000000E+00 0.  1.
         25    1    1    2    0    0  0.22521538852E+03  0.42762912646E+02 -0.29682913761E+03  0.39532666854E+03  0.12500000000E+03 0.  0.
         21    1    1    2  503  502 -0.22376867137E+03 -0.74299451089E+02  0.43271342257E+02  0.23971907679E+03  0.00000000000E+00 0.  1.
         21    1    1    2  504  503 -0.14467171524E+01  0.31536538443E+02  0.29265977926E+02  0.43048155727E+02  0.00000000000E+00 0.  1.
<mgrwt>
<rscale>  4 0.26224077E+03</rscale>
<asrwt>0</asrwt>
<pdfrwt beam="1">  1       21 0.34907853E-01 0.26224077E+03</pdfrwt>
<pdfrwt beam="2">  1       21 0.69414286E-01 0.26224077E+03</pdfrwt>
<totfact> 0.14351271E+04</totfact>
</mgrwt>
</event>
<event>
 5    0  0.1480317E+000  0.2634967E+03  0.7546771E-02  0.1105060E+00
         21   -1    0    0  504  501  0.00000000000E+00  0.00000000000E+00  0.17050055994E+03  0.17050055994E+03  0.00000000000E+00 0. -1.
         21   -1    0    0  501  502 -0.00000000000E+00 -0.00000000000E+00 -0.54539193175E+03  0.54539193175E+03  0.00000000000E+00 0. -1.
         25    1    1    2    0    0  0.23066993066E+03  0.24431422917E+02 -0.39530541263E+03  0.47507565775E+03  0.12500000000E+03 0.  0.
         21    1    1    2  503  502 -0.15986533583E+03  0.59203460895E+01 -0.39387378286E+01  0.16002340376E+03  0.00000000000E+00 0. -1.
         21    1    1    2  504  503 -0.70804594836E+02 -0.30351769006E+02  0.24352778651E+02  0.80793430177E+02  0.00000000000E+00 0. -1.
<mgrwt>
<rscale>  4 0.26349670E+03</rscale>
<asrwt>0</asrwt>
<pdfrwt beam="1">  1       21 0.26230855E-01 0.26349670E+03</pdfrwt>
<pdfrwt beam="2">  1       21 0.83906452E-01 0.26349670E+03</pdfrwt>
<totfact> 0.16389136E+04</totfact>
</mgrwt>
</event>
<event>
 5    0  0.1480317E+000  0.2941834E+03  0.7546771E-02  0.1088185E+00
         21   -1    0    0  504  501  0.00000000000E+00  0.00000000000E+00  0.31725291198E+03  0.31725291198E+03  0.00000000000E+00 0. -1.
         21   -1    0    0  501  502 -0.00000000000E+00 -0.00000000000E+00 -0.26114898418E+03  0.26114898418E+03  0.00000000000E+00 0. -1.
         25    1    1    2    0    0  0.53850603644E+02 -0.26080447750E+03 -0.13949029418E+02  0.29451390191E+03  0.12500000000E+03 0.  0.
         21    1    1    2  503  502 -0.67915591609E+02  0.23913686474E+03  0.57453293051E+02  0.25514671964E+03  0.00000000000E+00 0. -1.
         21    1    1    2  504  503  0.14064987966E+02  0.21667612756E+02  0.12599664172E+02  0.28741274611E+02  0.00000000000E+00 0.  1.
<mgrwt>
<rscale>  4 0.29418338E+03</rscale>
<asrwt>0</asrwt>
<pdfrwt beam="1">  1       21 0.48808140E-01 0.29418338E+03</pdfrwt>
<pdfrwt beam="2">  1       21 0.40176767E-01 0.29418338E+03</pdfrwt>
<totfact> 0.22770509E+04</totfact>
</mgrwt>
</event>
<event>
 5    0  0.1480317E+000  0.2466631E+03  0.7546771E-02  0.1115432E+00
         21   -1    0    0  504  501  0.00000000000E+00  0.00000000000E+00  0.63608127813E+03  0.63608127813E+03  0.00000000000E+00 0.  1.
         21   -1    0    0  501  502 -0.00000000000E+00 -0.00000000000E+00 -0.86284106052E+03  0.86284106052E+03  0.00000000000E+00 0.  1.
         25    1    1    2    0    0 -0.42176585440E+02 -0.20841976855E+03 -0.82587167157E+03  0.86192034561E+03  0.12500000000E+03 0.  0.
         21    1    1    2  503  502  0.25137882738E+02  0.18559362824E+03  0.53540290236E+03  0.56721528175E+03  0.00000000000E+00 0.  1.
         21    1    1    2  504  503  0.17038702703E+02  0.22826140311E+02  0.63708986813E+02  0.69786711286E+02  0.00000000000E+00 0. -1.
<mgrwt>
<rscale>  4 0.24666306E+03</rscale>
<asrwt>0</asrwt>
<pdfrwt beam="1">  1       21 0.97858658E-01 0.24666306E+03</pdfrwt>
<pdfrwt beam="2">  1       21 0.13274478E+00 0.24666306E+03</pdfrwt>
<totfact> 0.33457173E+02</totfact>
</mgrwt>
</event>
<event>
 5    0  0.1480317E+000  0.3233034E+03  0.7546771E-02  0.1074139E+00
         21   -1    0    0  504  501  0.00000000000E+00  0.00000000000E+00  0.15550993495E+04  0.15550993495E+04  0.00000000000E+00 0.  1.
         21   -1    0    0  501  502 -0.00000000000E+00 -0.00000000000E+00 -0.94001229318E+02  0.94001229318E+02  0.00000000000E+00 0.  1.
         25    1    1    2    0    0  0.95884028831E+02 -0.29518547388E+03  0.50337565878E+03  0.60443383826E+03  0.12500000000E+03 0.  0.
         21    1    1    2  503  502 -0.14397873114E+03  0.25691553702E+03  0.93306810979E+03  0.97844344021E+03  0.00000000000E+00 0.  1.
         21    1    1    2  504  503  0.48094702306E+02  0.38269936858E+02  0.24654351619E+02  0.66223300361E+02  0.00000000000E+00 0. -1.
<mgrwt>
<rscale>  4 0.32330343E+03</rscale>
<asrwt>0</asrwt>
<pdfrwt beam="1">  1       21 0.23924603E+00 0.32330343E+03</pdfrwt>
<pdfrwt beam="2">  1       21 0.14461729E-01 0.32330343E+03</pdfrwt>
<totfact> 0.28976132E+03</totfact>
</mgrwt>
</event>
<event>
 5    0  0.1480317E+000  0.3456939E+03  0.7546771E-02  0.1064396E+00
         21   -1    0    0  504  501  0.00000000000E+00  0.00000000000E+00  0.13376292002E+04  0.13376292002E+04  0.00000000000E+00 0.  1.
         21   -1    0    0  501  502 -0.00000000000E+00 -0.00000000000E+00 -0.17691246838E+03  0.17691246838E+03  0.00000000000E+00 0. -1.
         25    1    1    2    0    0  0.20399839317E+03 -0.24952735757E+03  0.42137539786E+02  0.34825252167E+03  0.12500000000E+03 0.  0.
         21    1    1    2  503  502 -0.47592384182E+02  0.10375397992E+03  0.32733214257E+03  0.34666447026E+03  0.00000000000E+00 0.  1.
         21    1    1    2  504  503 -0.15640600899E+03  0.14577337765E+03  0.79124704945E+03  0.81962467663E+03  0.00000000000E+00 0.  1.
<mgrwt>
<rscale>  4 0.34569386E+03</rscale>
<asrwt>0</asrwt>
<pdfrwt beam="1">  1       21 0.20578910E+00 0.34569386E+03</pdfrwt>
<pdfrwt beam="2">  1       21 0.27217304E-01 0.34569386E+03</pdfrwt>
<totfact> 0.14031172E+03</totfact>
</mgrwt>
</event>
<event>
 5    0  0.1480317E+000  0.2394780E+03  0.7546771E-02  0.1120141E+00
         21   -1    0    0  504  501  0.00000000000E+00  0.00000000000E+00  0.20745381341E+03  0.20745381341E+03  0.00000000000E+00 0. -1.
         21   -1    0    0  501  502 -0.00000000000E+00 -0.00000000000E+00 -0.99160310835E+03  0.99160310835E+03  0.00000000000E+00 0. -1.
         25    1    1    2    0    0  0.20750022189E+03 -0.16127037507E+02 -0.88438492284E+03  0.91710311044E+03  0.12500000000E+03 0.  0.
         21    1    1    2  503  502 -0.47562344825E+02 -0.14194392926E+02 -0.42582137557E+02  0.65397980662E+02  0.00000000000E+00 0. -1.
         21    1    1    2  504  503 -0.15993787706E+03  0.30321430433E+02  0.14281776546E+03  0.21655583066E+03  0.00000000000E+00 0. -1.
<mgrwt>
<rscale>  4 0.23947799E+03</rscale>
<asrwt>0</asrwt>
<pdfrwt beam="1">  1       21 0.31915971E-01 0.23947799E+03</pdfrwt>
<pdfrwt beam="2">  1       21 0.15255433E+00 0.23947799E+03</pdfrwt>
<totfact> 0.25933819E+03</totfact>
</mgrwt>
</event>
<event>
 5    0  0.1480317E+000  0.3807098E+03  0.7546771E-02  0.1050672E+00
         21   -1    0    0  504  501  0.00000000000E+00  0.00000000000E+00  0.11668792121E+04  0.11668792121E+04  0.00000000000E+00 0.  1.
         21   -1    0    0  501  502 -0.00000000000E+00 -0.00000000000E+00 -0.29324158367E+03  0.29324158367E+03  0.00000000000E+00 0.  1.
         25    1    1    2    0    0  0.63862333742E+02  0.35388776006E+03 -0.11948820406E+03  0.39902051990E+03  0.12500000000E+03 0.  0.
         21    1    1    2  503  502 -0.85555151894E+00 -0.88678651674E+02  0.37829609900E+03  0.38855189325E+03  0.00000000000E+00 0. -1.
         21    1    1    2  504  503 -0.63006782223E+02 -0.26520910838E+03  0.61482973348E+03  0.67254838260E+03  0.00000000000E+00 0.  1.
<mgrwt>
<rscale>  4 0.38070979E+03</rscale>
<asrwt>0</asrwt>
<pdfrwt beam="1">  1       21 0.17951988E+00 0.38070979E+03</pdfrwt>
<pdfrwt beam="2">  1       21 0.45114091E-01 0.38070979E+03</pdfrwt>
<totfact> 0.74621316E+02</totfact>
</mgrwt>
</event>
<event>
 5    0  0.1480317E+000  0.2607497E+03  0.7546771E-02  0.1106694E+00
         21   -1    0    0  504  501  0.00000000000E+00  0.00000000000E+00  0.36428862950E+03  0.36428862950E+03  0.00000000000E+00 0.  1.
         21   -1    0    0  501  502 -0.00000000000E+00 -0.00000000000E+00 -0.12846065525E+04  0.12846065525E+04  0.00000000000E+00 0.  1.
         25    1    1    2    0    0  0.16663759809E+03  0.15683531898E+03 -0.12287402778E+04  0.12561023353E+04  0.12500000000E+03 0.  0.
         21    1    1    2  503  502 -0.11898529737E+03 -0.15462008815E+03  0.23825535793E+03  0.30794559297E+03  0.00000000000E+00 0.  1.
         21    1    1    2  504  503 -0.47652300722E+02 -0.22152308350E+01  0.70166996897E+02  0.84847253729E+02  0.00000000000E+00 0.  1.
<mgrwt>
<rscale>  4 0.26074970E+03</rscale>
<asrwt>0</asrwt>
<pdfrwt beam="1">  1       21 0.56044406E-01 0.26074970E+03</pdfrwt>
<pdfrwt beam="2">  1       21 0.19763177E+00 0.26074970E+03</pdfrwt>
<totfact> 0.38738067E+02</totfact>
</mgrwt>
</event>
<event>
 5    0  0.1480317E+000  0.2648871E+03  0.7546771E-02  0.1104242E+00
         21   -1    0    0  504  501  0.00000000000E+00  0.00000000000E+00  0.15082511538E+04  0.15082511538E+04  0.00000000000E+00 0.  1.
         21   -1    0    0  501  502 -0.00000000000E+00 -0.00000000000E+00 -0.12651027193E+03  0.12651027193E+03  0.00000000000E+00 0.  1.
         25    1    1    2    0    0 -0.16704180190E+03 -0.16320913474E+03  0.37927320908E+02  0.26758861507E+03  0.12500000000E+03 0.  0.
         21    1    1    2  503  502  0.66308378562E+02  0.45389035621E+02  0.71645824615E+03  0.72095033400E+03  0.00000000000E+00 0.  1.
         21    1    1    2  504  503  0.10073342333E+03  0.11782009911E+03  0.62735531484E+03  0.64622247670E+03  0.00000000000E+00 0.  1.
<mgrwt>
<rscale>  4 0.26488712E+03</rscale>
<asrwt>0</asrwt>
<pdfrwt beam="1">  1       21 0.23203863E+00 0.26488712E+03</pdfrwt>
<pdfrwt beam="2">  1       21 0.19463120E-01 0.26488712E+03</pdfrwt>
<totfact> 0.19270479E+03</totfact>
</mgrwt>
</event>
<event>
 5    0  0.1480317E+000  0.3775455E+03  0.7546771E-02  0.1051845E+00
         21   -1    0    0  504  501  0.00000000000E+00  0.00000000000E+00  0.10767723576E+03  0.10767723576E+03  0.00000000000E+00 0. -1.
         21   -1    0    0  501  502 -0.00000000000E+00 -0.00000000000E+00 -0.12784185395E+04  0.12784185395E+04  0.00000000000E+00 0.  1.
         25    1    1    2    0    0 -0.34699122690E+03  0.80701326362E+02 -0.52715368207E+03  0.64840698650E+03  0.12500000000E+03 0.  0.
         21    1    1    2  503  502  0.32047438440E+03 -0.58387745909E+02 -0.57588550269E+03  0.66163212749E+03  0.00000000000E+00 0. -1.
         21    1    1    2  504  503  0.26516842497E+02 -0.22313580453E+02 -0.67702118999E+02  0.76056661283E+02  0.00000000000E+00 0. -1.
<mgrwt>
<rscale>  4 0.37754551E+03</rscale>
<asrwt>0</asrwt>
<pdfrwt beam="1">  1       21 0.16565729E-01 0.37754551E+03</pdfrwt>
<pdfrwt beam="2">  1       21 0.19667977E+00 0.37754551E+03</pdfrwt>
<totfact> 0.40816521E+03</totfact>
</mgrwt>
</event>
<event>
 5    0  0.1480317E+000  0.3088862E+03  0.7546771E-02  0.1080881E+00
         21   -1    0    0  504  501  0.00000000000E+00  0.00000000000E+00  0.40150827488E+03  0.40150827488E+03  0.00000000000E+00 0.  1.
         21   -1    0    0  501  502 -0.00000000000E+00 -0.00000000000E+00 -0.24554112267E+03  0.24554112267E+03  0.00000000000E+00 0.  1.
         25    1    1    2    0    0 -0.26466982543E+03  0.98668997483E+02 -0.24848336220E+02  0.30988405472E+03  0.12500000000E+03 0.  0.
         21    1    1    2  503  502  0.20240584794E+02 -0.15721753821E+02  0.93368622020E+01  0.27276946526E+02  0.00000000000E+00 0. -1.
         21    1    1    2  504  503  0.24442924063E+03 -0.82947243662E+02  0.17147862623E+03  0.30988839630E+03  0.00000000000E+00 0.  1.
<mgrwt>
<rscale>  4 0.30888620E+03</rscale>
<asrwt>0</asrwt>
<pdfrwt beam="1">  1       21 0.61770504E-01 0.30888620E+03</pdfrwt>
<pdfrwt beam="2">  1       21 0.37775557E-01 0.30888620E+03</pdfrwt>
<totfact> 0.15502146E+04</totfact>
</mgrwt>
</event>
<event>
 5    0  0.1480317E+000  0.2413110E+03  0.7546771E-02  0.1118923E+00
         21   -1    0    0  504  501  0.00000000000E+00  0.00000000000E+00  0.57553417138E+02  0.57553417138E+02  0.00000000000E+00 0. -1.
         21   -1    0    0  501  502 -0.00000000000E+00 -0.00000000000E+00 -0.10969925471E+04  0.10969925471E+04  0.00000000000E+00 0. -1.
         25    1    1    2    0    0 -0.12215626492E+03  0.18808182207E+03 -0.61167881697E+03  0.66337990623E+03  0.12500000000E+03 0.  0.
         21    1    1    2  503  502  0.20868659574E+02 -0.25216498841E+02 -0.14964047694E+02  0.35990213803E+02  0.00000000000E+00 0. -1.
         21    1    1    2  504  503  0.10128760535E+03 -0.16286532323E+03 -0.41279626527E+03  0.45517584418E+03  0.00000000000E+00 0. -1.
<mgrwt>
<rscale>  4 0.24131096E+03</rscale>
<asrwt>0</asrwt>
<pdfrwt beam="1">  1       21 0.88543717E-02 0.24131096E+03</pdfrwt>
<pdfrwt beam="2">  1       21 0.16876809E+00 0.24131096E+03</pdfrwt>
<totfact> 0.21207029E+04</totfact>
</mgrwt>
</event>
<event>
 5    0  0.1480317E+000  0.3254746E+03  0.7546771E-02  0.1073157E+00
         21   -1    0    0  504  501  0.00000000000E+00  0.00000000000E+00  0.28907100330E+03  0.28907100330E+03  0.00000000000E+00 0. -1.
         21   -1    0    0  501  502 -0.00000000000E+00 -0.00000000000E+00 -0.82255723262E+03  0.82255723262E+03  0.00000000000E+00 0. -1.
         25    1    1    2    0    0 -0.63807049682E+02 -0.29366205699E+03 -0.69043878011E+03  0.76330822895E+03  0.12500000000E+03 0.  0.
         21    1    1    2  503  502  0.58933036210E+02  0.92196463924E+02  0.56385211786E+02  0.12309582781E+03  0.00000000000E+00 0. -1.
         21    1    1    2  504  503  0.48740134714E+01  0.20146559307E+03  0.10056733901E+03  0.22522417915E+03  0.00000000000E+00 0. -1.
<mgrwt>
<rscale>  4 0.32547464E+03</rscale>
<asrwt>0</asrwt>
<pdfrwt beam="1">  1       21 0.44472462E-01 0.32547464E+03</pdfrwt>
<pdfrwt beam="2">  1       21 0.12654727E+00 0.32547464E+03</pdfrwt>
<totfact> 0.20425418E+03</totfact>
</mgrwt>
</event>
<event>
 5    0  0.1480317E+000  0.2455789E+03  0.7546771E-02  0.1116131E+00
         21   -1    0    0  504  501  0.00000000000E+00  0.00000000000E+00  0.43384666531E+03  0.43384666531E+03  0.00000000000E+00 0.  1.
         21   -1    0    0  501  502 -0.00000000000E+00 -0.00000000000E+00 -0.20326440225E+03  0.20326440225E+03  0.00000000000E+00 0.  1.
         25    1    1    2    0    0  0.74253066859E+02 -0.23923755747E+03  0.65225216687E+02  0.28744991865E+03  0.12500000000E+03 0.  0.
         21    1    1    2  503  502  0.75255342070E+01  0.18993687697E+03  0.43771375263E+02  0.19506046291E+03  0.00000000000E+00 0.  1.
         21    1    1    2  504  503 -0.81778601066E+02  0.49300680496E+02  0.12158567111E+03  0.15460068599E+03  0.00000000000E+00 0.  1.
<mgrwt>
<rscale>  4 0.24557892E+03</rscale>
<asrwt>0</asrwt>
<pdfrwt beam="1">  1       21 0.66745641E-01 0.24557892E+03</pdfrwt>
<pdfrwt beam="2">  1       21 0.31271447E-01 0.24557892E+03</pdfrwt>
<totfact> 0.19627630E+04</totfact>
</mgrwt>
</event>
<event>
 5    0  0.1480317E+000  0.2940673E+03  0.7546771E-02  0.1088244E+00
         21   -1    0    0  504  501  0.00000000000E+00  0.00000000000E+00  0.44656842799E+03  0.44656842799E+03  0.00000000000E+00 0. -1.
         21   -1    0    0  501  502 -0.00000000000E+00 -0.00000000000E+00 -0.36154901790E+03  0.36154901790E+03  0.00000000000E+00 0.  1.
         25    1    1    2    0    0  0.15171910171E+03  0.21870504939E+03 -0.24411292004E+03  0.38218673732E+03  0.12500000000E+03 0.  0.
         21    1    1    2  503  502 -0.11554803271E+03 -0.19584494015E+03  0.27135957341E+03  0.35403757784E+03  0.00000000000E+00 0. -1.
         21    1    1    2  504  503 -0.36171069001E+02 -0.22860109244E+02  0.57772756716E+02  0.71893130728E+02  0.00000000000E+00 0. -1.
<mgrwt>
<rscale>  4 0.29406731E+03</rscale>
<asrwt>0</asrwt>
<pdfrwt beam="1">  1       21 0.68702835E-01 0.29406731E+03</pdfrwt>
<pdfrwt beam="2">  1       21 0.55622926E-01 0.29406731E+03</pdfrwt>
<totfact> 0.55164180E+03</totfact>
</mgrwt>
</event>
<event>
 5    0  0.1480317E+000  0.2673655E+03  0.7546771E-02  0.1102797E+00
         21   -1    0    0  504  501  0.00000000000E+00  0.00000000000E+00  0.17285685265E+03  0.17285685265E+03  0.00000000000E+00 0. -1.
         21   -1    0    0  501  502 -0.00000000000E+00 -0.00000000000E+00 -0.43165312522E+03  0.43165312522E+03  0.00000000000E+00 0. -1.
         25    1    1    2    0    0 -0.23634509963E+03  0.53661013161E+00 -0.24239957177E+03  0.36089035241E+03  0.12500000000E+03 0.  0.
         21    1    1    2  503  502  0.16191161580E+03 -0.79993527438E+01  0.14345157410E+02  0.16274257131E+03  0.00000000000E+00 0. -1.
         21    1    1    2  504  503  0.74433483826E+02  0.74627426122E+01 -0.30741858208E+02  0.80877054149E+02  0.00000000000E+00 0. -1.
<mgrwt>
<rscale>  4 0.26736547E+03</rscale>
<asrwt>0</asrwt>
<pdfrwt beam="1">  1       21 0.26593362E-01 0.26736547E+03</pdfrwt>
<pdfrwt beam="2">  1       21 0.66408173E-01 0.26736547E+03</pdfrwt>
<totfact> 0.26968216E+04</totfact>
</mgrwt>
</event>
<event>
 5    0  0.1480317E+000  0.2270381E+03  0.7546771E-02  0.1128742E+00
         21   -1    0    0  504  501  0.00000000000E+00  0.00000000000E+00  0.83669236455E+02  0.83669236455E+02  0.00000000000E+00 0. -1.
         21   -1    0    0  501  502 -0.00000000000E+00 -0.00000000000E+00 -0.12599313013E+04  0.12599313013E+04  0.00000000000E+00 0. -1.
         25    1    1    2    0    0 -0.12393628786E+03  0.15703317369E+03 -0.10483439685E+04  0.10745555813E+04  0.12500000000E+03 0.  0.
         21    1    1    2  503  502  0.10323972149E+03 -0.96439312358E+02 -0.18792297752E+02  0.14252063540E+03  0.00000000000E+00 0. -1.
         21    1    1    2  504  503  0.20696566373E+02 -0.60593861335E+02 -0.10912579862E+03  0.12652432104E+03  0.00000000000E+00 0.  1.
<mgrwt>
<rscale>  4 0.22703811E+03</rscale>
<asrwt>0</asrwt>
<pdfrwt beam="1">  1       21 0.12872191E-01 0.22703811E+03</pdfrwt>
<pdfrwt beam="2">  1       21 0.19383557E+00 0.22703811E+03</pdfrwt>
<totfact> 0.74042512E+03</totfact>
</mgrwt>
</event>
<event>
 5    0  0.1480317E+000  0.2305002E+03  0.7546771E-02  0.1126288E+00
         21   -1    0    0  504  501  0.00000000000E+00  0.00000000000E+00  0.15368651687E+03  0.15368651687E+03  0.00000000000E+00 0.  1.
         21   -1    0    0  501  502 -0.00000000000E+00 -0.00000000000E+00 -0.85993766773E+03  0.85993766773E+03  0.00000000000E+00 0.  1.
         25    1    1    2    0    0  0.20990231066E+03  0.42541736549E+02 -0.57219639097E+03  0.62362046888E+03  0.12500000000E+03 0.  0.
         21    1    1    2  503  502 -0.91041316593E+02 -0.16931313600E+03 -0.63589371409E+02  0.20248226467E+03  0.00000000000E+00 0.  1.
         21    1    1    2  504  503 -0.11886099407E+03  0.12677139946E+03 -0.70465388480E+02  0.18752145105E+03  0.00000000000E+00 0.  1.
<mgrwt>
<rscale>  4 0.23050025E+03</rscale>
<asrwt>0</asrwt>
<pdfrwt beam="1">  1       21 0.23644080E-01 0.23050025E+03</pdfrwt>
<pdfrwt beam="2">  1       21 0.13229810E+00 0.23050025E+03</pdfrwt>
<totfact> 0.67729515E+03</totfact>
</mgrwt>
</event>
<event>
 5    0  0.1480317E+000  0.4178902E+03  0.7546771E-02  0.1037755E+00
         21   -1    0    0  504  501  0.00000000000E+00  0.00000000000E+00  0.86657005632E+03  0.86657005632E+03  0.00000000000E+00 0. -1.
         21   -1    0    0  501  502 -0.00000000000E+00 -0.00000000000E+00 -0.34442045001E+03  0.34442045001E+03  0.00000000000E+00 0. -1.
         25    1    1    2    0    0  0.26870260103E+03 -0.33994536970E+03 -0.64474704838E+02  0.45557209061E+03  0.12500000000E+03 0.  0.
         21    1    1    2  503  502 -0.56676278153E+02  0.81689965654E+02  0.29709085095E+03  0.31328648984E+03  0.00000000000E+00 0. -1.
         21    1    1    2  504  503 -0.21202632288E+03  0.25825540404E+03  0.28953346019E+03  0.44213192588E+03  0.00000000000E+00 0. -1.
<mgrwt>
<rscale>  4 0.41789016E+03</rscale>
<asrwt>0</asrwt>
<pdfrwt beam="1">  1       21 0.13331847E+00 0.41789016E+03</pdfrwt>
<pdfrwt beam="2">  1       21 0.52987762E-01 0.41789016E+03</pdfrwt>
<totfact> 0.11789160E+03</totfact>
</mgrwt>
</event>
<event>
 5    0  0.1480317E+000  0.2890613E+03  0.7546771E-02  0.1090840E+00
         21   -1    0    0  504  501  0.00000000000E+00  0.00000000000E+00  0.42388743753E+03  0.42388743753E+03  0.00000000000E+00 0. -1.
         21   -1    0    0  501  502 -0.00000000000E+00 -0.00000000000E+00 -0.21838029273E+03  0.21838029273E+03  0.00000000000E+00 0. -1.
         25    1    1    2    0    0  0.25040633336E+03  0.72305741019E+02  0.23176386414E+03  0.37050093211E+03  0.12500000000E+03 0.  0.
         21    1    1    2  503  502 -0.10036950268E+03 -0.60226716202E+02  0.82397719786E+01  0.11734218446E+03  0.00000000000E+00 0. -1.
         21    1    1    2  504  503 -0.15003683068E+03 -0.12079024817E+02 -0.34496491316E+02  0.15442461369E+03  0.00000000000E+00 0. -1.
<mgrwt>
<rscale>  4 0.28906133E+03</rscale>
<asrwt>0</asrwt>
<pdfrwt beam="1">  1       21 0.65213452E-01 0.28906133E+03</pdfrwt>
<pdfrwt beam="2">  1       21 0.33596968E-01 0.28906133E+03</pdfrwt>
<totfact> 0.17565582E+04</totfact>
</mgrwt>
</event>
<event>
 5    0  0.1480317E+000  0.2519709E+03  0.7546771E-02  0.1112066E+00
         21   -1    0    0  504  501  0.00000000000E+00  0.00000000000E+00  0.84993998482E+02  0.84993998482E+02  0.00000000000E+00 0.  1.
         21   -1    0    0  501  502 -0.00000000000E+00 -0.00000000000E+00 -0.69025370558E+03  0.69025370558E+03  0.00000000000E+00 0.  1.
         25    1    1    2    0    0  0.52947881979E+01  0.21871514536E+03 -0.23933211565E+03  0.34751864867E+03  0.12500000000E+03 0.  0.
         21    1    1    2  503  502  0.36996677575E+01 -0.19643303614E+03 -0.31222543137E+03  0.36889611711E+03  0.00000000000E+00 0.  1.
         21    1    1    2  504  503 -0.89944559554E+01 -0.22282109219E+02 -0.53702160087E+02  0.58832938284E+02  0.00000000000E+00 0. -1.
<mgrwt>
<rscale>  4 0.25197093E+03</rscale>
<asrwt>0</asrwt>
<pdfrwt beam="1">  1       21 0.13076000E-01 0.25197093E+03</pdfrwt>
<pdfrwt beam="2">  1       21 0.10619287E+00 0.25197093E+03</pdfrwt>
<totfact> 0.34703269E+04</totfact>
</mgrwt>
</event>
<event>
 5    0  0.1480317E+000  0.2358776E+03  0.7546771E-02  0.1122570E+00
         21   -1    0    0  504  501  0.00000000000E+00  0.00000000000E+00  0.25497635157E+03  0.25497635157E+03  0.00000000000E+00 0.  1.
         21   -1    0    0  501  502 -0.00000000000E+00 -0.00000000000E+00 -0.19330866276E+03  0.19330866276E+03  0.00000000000E+00 0.  1.
         25    1    1    2    0    0  0.19629510717E+03  0.38490107676E+02  0.91850228190E+01  0.23605639608E+03  0.12500000000E+03 0.  0.
         21    1    1    2  503  502 -0.43702692503E+02 -0.34732281341E+01 -0.76799926629E+01  0.44508099634E+02  0.00000000000E+00 0.  1.
         21    1    1    2  504  503 -0.15259241467E+03 -0.35016879541E+02  0.60162658661E+02  0.16772051861E+03  0.00000000000E+00 0.  1.
<mgrwt>
<rscale>  4 0.23587763E+03</rscale>
<asrwt>0</asrwt>
<pdfrwt beam="1">  1       21 0.39227131E-01 0.23587763E+03</pdfrwt>
<pdfrwt beam="2">  1       21 0.29739794E-01 0.23587763E+03</pdfrwt>
<totfact> 0.66672281E+04</totfact>
</mgrwt>
</event>
