<event>
 5    0  0.1943430E+001  0.3492207E+03  0.7546771E-02  0.1062935E+00
         21   -1    0    0  502  501  0.00000000000E+00  0.00000000000E+00  0.13932280954E+04  0.13932280954E+04  0.00000000000E+00 0.  1.
         21   -1    0    0  503  502 -0.00000000000E+00 -0.00000000000E+00 -0.21416044842E+03  0.21416044842E+03  0.00000000000E+00 0.  1.
         25    1    1    2    0    0  0.28846107610E+03 -0.97233991187E+02  0.86533415111E+03  0.92579286806E+03  0.12500000000E+03 0.  0.
         21    1    1    2  503  504  0.14811790487E+03  0.39763355492E+02  0.14181005389E+03  0.20887826495E+03  0.00000000000E+00 0.  1.
         21    1    1    2  504  501 -0.43657898097E+03  0.57470635695E+02  0.17192344199E+03  0.47271741083E+03  0.00000000000E+00 0.  1.
<mgrwt>
<rscale>  4 0.34922068E+03</rscale>
<asrwt>0</asrwt>
<pdfrwt beam="1">  1       21 0.21434278E+00 0.34922068E+03</pdfrwt>
<pdfrwt beam="2">  1       21 0.32947762E-01 0.34922068E+03</pdfrwt>
<totfact> 0.84544404E+02</totfact>
</mgrwt>
</event>
<event>
 5    0  0.1943430E+001  0.2826860E+03  0.7546771E-02  0.1094231E+00
         21   -1    0    0  504  501  0.00000000000E+00  0.00000000000E+00  0.85693301447E+02  0.85693301447E+02  0.00000000000E+00 0. -1.
         21   -1    0    0  503  502 -0.00000000000E+00 -0.00000000000E+00 -0.12317013383E+04  0.12317013383E+04  0.00000000000E+00 0. -1.
         25    1    1    2    0    0  0.38041180052E+02  0.25939107559E+03 -0.31116132490E+03  0.42564918840E+03  0.12500000000E+03 0.  0.
         21    1    1    2  503  501 -0.19300045431E+02 -0.24086938394E+03 -0.49452146843E+03  0.55040170295E+03  0.00000000000E+00 0. -1.
         21    1    1    2  504  502 -0.18741134620E+02 -0.18521691647E+02 -0.34032524350E+03  0.34134374837E+03  0.00000000000E+00 0. -1.
<mgrwt>
<rscale>  4 0.28268603E+03</rscale>
<asrwt>0</asrwt>
<pdfrwt beam="1">  1       21 0.13183585E-01 0.28268603E+03</pdfrwt>
<pdfrwt beam="2">  1       21 0.18949251E+00 0.28268603E+03</pdfrwt>
<totfact> 0.72999265E+03</totfact>
</mgrwt>
</event>
<event>
 5    0  0.1943430E+001  0.2532691E+03  0.7546771E-02  0.1111256E+00
         21   -1    0    0  504  501  0.00000000000E+00  0.00000000000E+00  0.71586396319E+02  0.71586396319E+02  0.00000000000E+00 0. -1.
         21   -1    0    0  501  502 -0.00000000000E+00 -0.00000000000E+00 -0.91136513571E+03  0.91136513571E+03  0.00000000000E+00 0. -1.
         25    1    1    2    0    0 -0.12598503222E+03 -0.16732791073E+03 -0.45079542857E+03  0.51255475461E+03  0.12500000000E+03 0.  0.
         21    1    1    2  503  502  0.31222884713E+01 -0.31026402375E+02 -0.45145772080E+02  0.54868270123E+02  0.00000000000E+00 0.  1.
         21    1    1    2  504  503  0.12286274375E+03  0.19835431311E+03 -0.34383753875E+03  0.41552850730E+03  0.00000000000E+00 0. -1.
<mgrwt>
<rscale>  4 0.25326912E+03</rscale>
<asrwt>0</asrwt>
<pdfrwt beam="1">  1       21 0.11013292E-01 0.25326912E+03</pdfrwt>
<pdfrwt beam="2">  1       21 0.14021002E+00 0.25326912E+03</pdfrwt>
<totfact> 0.23535946E+04</totfact>
</mgrwt>
</event>
<event>
 5    0  0.1943430E+001  0.2680870E+03  0.7546771E-02  0.1102379E+00
         21   -1    0    0  503  501  0.00000000000E+00  0.00000000000E+00  0.34789238872E+03  0.34789238872E+03  0.00000000000E+00 0. -1.
         21   -1    0    0  504  502 -0.00000000000E+00 -0.00000000000E+00 -0.30126413631E+03  0.30126413631E+03  0.00000000000E+00 0. -1.
         25    1    1    2    0    0  0.21918810066E+03  0.24262467023E+02  0.99334718203E+02  0.27225810735E+03  0.12500000000E+03 0.  0.
         21    1    1    2  503  502 -0.14201421634E+01  0.10078738805E+03  0.41067901845E+02  0.10884248691E+03  0.00000000000E+00 0. -1.
         21    1    1    2  504  501 -0.21776795849E+03 -0.12504985507E+03 -0.93774367641E+02  0.26805593078E+03  0.00000000000E+00 0. -1.
<mgrwt>
<rscale>  4 0.26808705E+03</rscale>
<asrwt>0</asrwt>
<pdfrwt beam="1">  1       21 0.53521906E-01 0.26808705E+03</pdfrwt>
<pdfrwt beam="2">  1       21 0.46348329E-01 0.26808705E+03</pdfrwt>
<totfact> 0.14121452E+04</totfact>
</mgrwt>
</event>
<event>
 5    0  0.1943430E+001  0.3397273E+03  0.7546771E-02  0.1066912E+00
         21   -1    0    0  504  501  0.00000000000E+00  0.00000000000E+00  0.95541802794E+03  0.95541802794E+03  0.00000000000E+00 0. -1.
         21   -1    0    0  501  502 -0.00000000000E+00 -0.00000000000E+00 -0.20175941472E+03  0.20175941472E+03  0.00000000000E+00 0. -1.
         25    1    1    2    0    0  0.31688681397E+03 -0.31921763467E+02  0.17752721888E+03  0.38545708619E+03  0.12500000000E+03 0.  0.
         21    1    1    2  503  502 -0.12031289636E+02 -0.51792150623E+02 -0.48291766740E+02  0.71828083166E+02  0.00000000000E+00 0. -1.
         21    1    1    2  504  503 -0.30485552434E+03  0.83713914090E+02  0.62442316108E+03  0.69989227330E+03  0.00000000000E+00 0. -1.
<mgrwt>
<rscale>  4 0.33972734E+03</rscale>
<asrwt>0</asrwt>
<pdfrwt beam="1">  1       21 0.14698739E+00 0.33972734E+03</pdfrwt>
<pdfrwt beam="2">  1       21 0.31039911E-01 0.33972734E+03</pdfrwt>
<totfact> 0.28428014E+03</totfact>
</mgrwt>
</event>
<event>
 5    0  0.1943430E+001  0.4225430E+03  0.7546771E-02  0.1036242E+00
         21   -1    0    0  503  501  0.00000000000E+00  0.00000000000E+00  0.26722524658E+03  0.26722524658E+03  0.00000000000E+00 0.  1.
         21   -1    0    0  504  502 -0.00000000000E+00 -0.00000000000E+00 -0.15006798033E+04  0.15006798033E+04  0.00000000000E+00 0. -1.
         25    1    1    2    0    0  0.30364321659E+03 -0.24475549239E+03 -0.85746717651E+02  0.41842795512E+03  0.12500000000E+03 0.  0.
         21    1    1    2  503  502 -0.53979930954E+02 -0.12273885857E+03 -0.72137566335E+03  0.73373122329E+03  0.00000000000E+00 0. -1.
         21    1    1    2  504  501 -0.24966328564E+03  0.36749435096E+03 -0.42633217572E+03  0.61574587148E+03  0.00000000000E+00 0.  1.
<mgrwt>
<rscale>  4 0.42254305E+03</rscale>
<asrwt>0</asrwt>
<pdfrwt beam="1">  1       21 0.41111576E-01 0.42254305E+03</pdfrwt>
<pdfrwt beam="2">  1       21 0.23087382E+00 0.42254305E+03</pdfrwt>
<totfact> 0.40586341E+02</totfact>
</mgrwt>
</event>
<event>
 5    0  0.1943430E+001  0.3173142E+03  0.7546771E-02  0.1076892E+00
         21   -1    0    0  504  501  0.00000000000E+00  0.00000000000E+00  0.32597264870E+03  0.32597264870E+03  0.00000000000E+00 0. -1.
         21   -1    0    0  501  502 -0.00000000000E+00 -0.00000000000E+00 -0.37585242685E+03  0.37585242685E+03  0.00000000000E+00 0.  1.
         25    1    1    2    0    0 -0.11401341709E+02 -0.29812662956E+03  0.47866266638E+02  0.32699488884E+03  0.12500000000E+03 0.  0.
         21    1    1    2  503  502 -0.59425455498E+02  0.28118949203E+03 -0.92060645153E+02  0.30178481999E+03  0.00000000000E+00 0.  1.
         21    1    1    2  504  503  0.70826797206E+02  0.16937137527E+02 -0.56853996324E+01  0.73045366719E+02  0.00000000000E+00 0.  1.
<mgrwt>
<rscale>  4 0.31731416E+03</rscale>
<asrwt>0</asrwt>
<pdfrwt beam="1">  1       21 0.50149639E-01 0.31731416E+03</pdfrwt>
<pdfrwt beam="2">  1       21 0.57823450E-01 0.31731416E+03</pdfrwt>
<totfact> 0.99225756E+03</totfact>
</mgrwt>
</event>
<event>
 5    0  0.1943430E+001  0.1117757E+04  0.7546771E-02  0.9188484E-01
         21   -1    0    0  502  501  0.00000000000E+00  0.00000000000E+00  0.13844448193E+04  0.13844448193E+04  0.00000000000E+00 0. -1.
         21   -1    0    0  503  502 -0.00000000000E+00 -0.00000000000E+00 -0.11194923703E+04  0.11194923703E+04  0.00000000000E+00 0.  1.
         25    1    1    2    0    0  0.81958761570E+03  0.74701689507E+03  0.68549114339E+03  0.13096874471E+04  0.12500000000E+03 0.  0.
         21    1    1    2  503  504 -0.80730830514E+03 -0.72744961723E+03 -0.38706993383E+03  0.11535825843E+04  0.00000000000E+00 0.  1.
         21    1    1    2  504  501 -0.12279310567E+02 -0.19567277843E+02 -0.33468760521E+02  0.40667158261E+02  0.00000000000E+00 0.  1.
<mgrwt>
<rscale>  4 0.11173090E+04</rscale>
<asrwt>0</asrwt>
<pdfrwt beam="1">  1       21 0.21299151E+00 0.11177565E+04</pdfrwt>
<pdfrwt beam="2">  1       21 0.17222960E+00 0.11177565E+04</pdfrwt>
<totfact> 0.13147573E+01</totfact>
</mgrwt>
</event>
<event>
 5    0  0.1943430E+001  0.2962598E+03  0.7546771E-02  0.1087125E+00
         21   -1    0    0  504  501  0.00000000000E+00  0.00000000000E+00  0.14905844216E+04  0.14905844216E+04  0.00000000000E+00 0. -1.
         21   -1    0    0  503  502 -0.00000000000E+00 -0.00000000000E+00 -0.23421037788E+03  0.23421037788E+03  0.00000000000E+00 0. -1.
         25    1    1    2    0    0  0.13772819101E+03  0.29674909496E+03  0.32054798043E+03  0.47476845695E+03  0.12500000000E+03 0.  0.
         21    1    1    2  503  501 -0.20916062615E+03 -0.15876781114E+03  0.10336081320E+04  0.10664432267E+04  0.00000000000E+00 0. -1.
         21    1    1    2  504  502  0.71432435148E+02 -0.13798128383E+03 -0.97782068623E+02  0.18358311584E+03  0.00000000000E+00 0. -1.
<mgrwt>
<rscale>  4 0.29625982E+03</rscale>
<asrwt>0</asrwt>
<pdfrwt beam="1">  1       21 0.22932067E+00 0.29625982E+03</pdfrwt>
<pdfrwt beam="2">  1       21 0.36032367E-01 0.29625982E+03</pdfrwt>
<totfact> 0.59091808E+02</totfact>
</mgrwt>
</event>
<event>
 5    0  0.1943430E+001  0.2335067E+03  0.7546771E-02  0.1124196E+00
         21   -1    0    0  503  501  0.00000000000E+00  0.00000000000E+00  0.23067612416E+03  0.23067612416E+03  0.00000000000E+00 0.  1.
         21   -1    0    0  504  502 -0.00000000000E+00 -0.00000000000E+00 -0.57548092536E+03  0.57548092536E+03  0.00000000000E+00 0.  1.
         25    1    1    2    0    0 -0.27785773547E+03 -0.33838849091E+02 -0.24907596812E+02  0.30756361496E+03  0.12500000000E+03 0.  0.
         21    1    1    2  503  502  0.13982938369E+03 -0.46595978788E+02 -0.30425491170E+03  0.33807468565E+03  0.00000000000E+00 0.  1.
         21    1    1    2  504  501  0.13802835178E+03  0.80434827879E+02 -0.15642292688E+02  0.16051874891E+03  0.00000000000E+00 0.  1.
<mgrwt>
<rscale>  4 0.23350666E+03</rscale>
<asrwt>0</asrwt>
<pdfrwt beam="1">  1       21 0.35488635E-01 0.23350666E+03</pdfrwt>
<pdfrwt beam="2">  1       21 0.88535525E-01 0.23350666E+03</pdfrwt>
<totfact> 0.81246111E+03</totfact>
</mgrwt>
</event>
<event>
 5    0  0.1943430E+001  0.5591185E+03  0.7546771E-02  0.9994051E-01
         21   -1    0    0  503  501  0.00000000000E+00  0.00000000000E+00  0.60399168924E+03  0.60399168924E+03  0.00000000000E+00 0.  1.
         21   -1    0    0  504  502 -0.00000000000E+00 -0.00000000000E+00 -0.63965893738E+03  0.63965893738E+03  0.00000000000E+00 0. -1.
         25    1    1    2    0    0  0.41821054532E+03 -0.35521198497E+03  0.24328071972E+03  0.61309552524E+03  0.12500000000E+03 0.  0.
         21    1    1    2  503  502  0.63775708852E+01  0.27199757087E+02 -0.59557850009E+01  0.28565216102E+02  0.00000000000E+00 0. -1.
         21    1    1    2  504  501 -0.42458811621E+03  0.32801222788E+03 -0.27299218287E+03  0.60198988527E+03  0.00000000000E+00 0. -1.
<mgrwt>
<rscale>  4 0.55911852E+03</rscale>
<asrwt>0</asrwt>
<pdfrwt beam="1">  1       21 0.92921799E-01 0.55911852E+03</pdfrwt>
<pdfrwt beam="2">  1       21 0.98409066E-01 0.55911852E+03</pdfrwt>
<totfact> 0.67275632E+02</totfact>
</mgrwt>
</event>
<event>
 5    0  0.1943430E+001  0.2332699E+03  0.7546771E-02  0.1124359E+00
         21   -1    0    0  504  501  0.00000000000E+00  0.00000000000E+00  0.79724290360E+03  0.79724290360E+03  0.00000000000E+00 0.  1.
         21   -1    0    0  501  502 -0.00000000000E+00 -0.00000000000E+00 -0.95131797034E+02  0.95131797034E+02  0.00000000000E+00 0.  1.
         25    1    1    2    0    0 -0.26249418819E+02 -0.20156743657E+03  0.61024943768E+03  0.65524639614E+03  0.12500000000E+03 0.  0.
         21    1    1    2  503  502  0.14426095115E+02  0.19596918732E+02 -0.12147257678E+02  0.27197560795E+02  0.00000000000E+00 0.  1.
         21    1    1    2  504  503  0.11823323704E+02  0.18197051783E+03  0.10400892657E+03  0.20993074370E+03  0.00000000000E+00 0.  1.
<mgrwt>
<rscale>  4 0.23326985E+03</rscale>
<asrwt>0</asrwt>
<pdfrwt beam="1">  1       21 0.12265275E+00 0.23326985E+03</pdfrwt>
<pdfrwt beam="2">  1       21 0.14635662E-01 0.23326985E+03</pdfrwt>
<totfact> 0.20019936E+04</totfact>
</mgrwt>
</event>
<event>
 5    0  0.1943430E+001  0.2962274E+03  0.7546771E-02  0.1087142E+00
         21   -1    0    0  503  501  0.00000000000E+00  0.00000000000E+00  0.16205238829E+03  0.16205238829E+03  0.00000000000E+00 0. -1.
         21   -1    0    0  504  502 -0.00000000000E+00 -0.00000000000E+00 -0.79367304763E+03  0.79367304763E+03  0.00000000000E+00 0. -1.
         25    1    1    2    0    0 -0.22571820051E+03  0.14775838854E+03 -0.74375019088E+02  0.30649288881E+03  0.12500000000E+03 0.  0.
         21    1    1    2  503  502  0.23729601981E+03 -0.12239043535E+03 -0.35048615059E+03  0.44060113645E+03  0.00000000000E+00 0. -1.
         21    1    1    2  504  501 -0.11577819303E+02 -0.25367953183E+02 -0.20675948966E+03  0.20863141066E+03  0.00000000000E+00 0. -1.
<mgrwt>
<rscale>  4 0.29622737E+03</rscale>
<asrwt>0</asrwt>
<pdfrwt beam="1">  1       21 0.24931137E-01 0.29622737E+03</pdfrwt>
<pdfrwt beam="2">  1       21 0.12210354E+00 0.29622737E+03</pdfrwt>
<totfact> 0.72174040E+03</totfact>
</mgrwt>
</event>
