<event>
 5    0  0.2465569E-003  0.1080395E+04  0.7546771E-02  0.9224514E-01
          2   -1    0    0  503    0  0.00000000000E+00  0.00000000000E+00  0.35736321385E+03  0.35736321385E+03  0.00000000000E+00 0.  1.
         -2   -1    0    0    0  501 -0.00000000000E+00 -0.00000000000E+00 -0.11328180079E+04  0.11328180079E+04  0.00000000000E+00 0. -1.
         25    1    1    2    0    0 -0.14903297485E+03 -0.44306206524E+03 -0.60970552076E+02  0.48770608922E+03  0.12500000000E+03 0.  0.
         21    1    1    2  502  501  0.11762407693E+03  0.38141241840E+03 -0.79906168484E+03  0.89320234693E+03  0.00000000000E+00 0. -1.
         21    1    1    2  503  502  0.31408897917E+02  0.61649646833E+02  0.84577442886E+02  0.10927278558E+03  0.00000000000E+00 0. -1.
<mgrwt>
<rscale>  4 0.10803947E+04</rscale>
<asrwt>0</asrwt>
<pdfrwt beam="1">  1        2 0.54978957E-01 0.10803947E+04</pdfrwt>
<pdfrwt beam="2">  1       -2 0.17427969E+00 0.10803947E+04</pdfrwt>
<totfact> 0.17787647E+01</totfact>
</mgrwt>
</event>
<event>
 5    0  0.2465569E-003  0.1094442E+04  0.7546771E-02  0.9210626E-01
         -1   -1    0    0    0  501 -0.00000000000E+00  0.00000000000E+00  0.50608432839E+03  0.50608432839E+03  0.00000000000E+00 0. -1.
          1   -1    0    0  502    0  0.00000000000E+00 -0.00000000000E+00 -0.16478858543E+04  0.16478858543E+04  0.00000000000E+00 0.  1.
         25    1    1    2    0    0  0.45073951167E+03 -0.11380332812E+03 -0.39525845120E+01  0.48141243004E+03  0.12500000000E+03 0.  0.
         21    1    1    2  502  503  0.15862617134E+03  0.88682170485E+02 -0.10389296429E+04  0.10547045049E+04  0.00000000000E+00 0.  1.
         21    1    1    2  503  501 -0.60936568301E+03  0.25121157633E+02 -0.98919298469E+02  0.61785324779E+03  0.00000000000E+00 0. -1.
<mgrwt>
<rscale>  4 0.10944416E+04</rscale>
<asrwt>0</asrwt>
<pdfrwt beam="1">  1        1 0.25352090E+00 0.10944416E+04</pdfrwt>
<pdfrwt beam="2">  1       -1 0.77859128E-01 0.10944416E+04</pdfrwt>
<totfact> 0.85230600E+00</totfact>
</mgrwt>
</event>
<event>
 5    0  0.2465569E-003  0.6711456E+03  0.7546771E-02  0.9767890E-01
          2   -1    0    0  503    0  0.00000000000E+00  0.00000000000E+00  0.14483146800E+04  0.14483146800E+04  0.00000000000E+00 0. -1.
         -2   -1    0    0    0  501 -0.00000000000E+00 -0.00000000000E+00 -0.13189193582E+03  0.13189193582E+03  0.00000000000E+00 0.  1.
         25    1    1    2    0    0  0.67457068473E+02  0.21638228209E+03  0.28266059003E+03  0.38326721389E+03  0.12500000000E+03 0.  0.
         21    1    1    2  502  501  0.10536607820E+02 -0.38253463563E+03  0.87203238003E+03  0.95230469882E+03  0.00000000000E+00 0. -1.
         21    1    1    2  503  502 -0.77993676293E+02  0.16615235354E+03  0.16172977411E+03  0.24463470310E+03  0.00000000000E+00 0. -1.
<mgrwt>
<rscale>  4 0.67114565E+03</rscale>
<asrwt>0</asrwt>
<pdfrwt beam="1">  1        2 0.22281763E+00 0.67114565E+03</pdfrwt>
<pdfrwt beam="2">  1       -2 0.20291068E-01 0.67114565E+03</pdfrwt>
<totfact> 0.28767256E+02</totfact>
</mgrwt>
</event>
<event>
 5    0  0.2465569E-003  0.6687581E+03  0.7546771E-02  0.9772204E-01
          2   -1    0    0  503    0  0.00000000000E+00  0.00000000000E+00  0.15654719248E+04  0.15654719248E+04  0.00000000000E+00 0. -1.
         -2   -1    0    0    0  501 -0.00000000000E+00 -0.00000000000E+00 -0.97103406165E+02  0.97103406165E+02  0.00000000000E+00 0.  1.
         25    1    1    2    0    0 -0.20513472451E+03  0.17398531506E+03  0.54509710399E+03  0.62056989762E+03  0.12500000000E+03 0.  0.
         21    1    1    2  502  501 -0.97387282662E+02  0.40541905864E+02  0.13927385620E+03  0.17471444123E+03  0.00000000000E+00 0.  1.
         21    1    1    2  503  502  0.30252200718E+03 -0.21452722092E+03  0.78399755844E+03  0.86729099211E+03  0.00000000000E+00 0.  1.
<mgrwt>
<rscale>  4 0.66875811E+03</rscale>
<asrwt>0</asrwt>
<pdfrwt beam="1">  1        2 0.24084182E+00 0.66875811E+03</pdfrwt>
<pdfrwt beam="2">  1       -2 0.14938987E-01 0.66875811E+03</pdfrwt>
<totfact> 0.41918059E+02</totfact>
</mgrwt>
</event>
<event>
 5    0  0.2465569E-003  0.5034722E+03  0.7546771E-02  0.1012877E+00
          1   -1    0    0  502    0  0.00000000000E+00  0.00000000000E+00  0.48603748647E+03  0.48603748647E+03  0.00000000000E+00 0. -1.
         -1   -1    0    0    0  501 -0.00000000000E+00 -0.00000000000E+00 -0.28597140659E+03  0.28597140659E+03  0.00000000000E+00 0.  1.
         25    1    1    2    0    0 -0.15651343755E+03 -0.13615125849E+03 -0.35573707315E+02  0.24479401540E+03  0.12500000000E+03 0.  0.
         21    1    1    2  502  503 -0.68812690054E+02  0.44506851617E+01  0.25629242718E+03  0.26540686340E+03  0.00000000000E+00 0.  1.
         21    1    1    2  503  501  0.22532612760E+03  0.13170057333E+03 -0.20652639975E+02  0.26180801426E+03  0.00000000000E+00 0.  1.
<mgrwt>
<rscale>  4 0.50347216E+03</rscale>
<asrwt>0</asrwt>
<pdfrwt beam="1">  1        1 0.74774998E-01 0.50347216E+03</pdfrwt>
<pdfrwt beam="2">  1       -1 0.43995601E-01 0.50347216E+03</pdfrwt>
<totfact> 0.24143357E+02</totfact>
</mgrwt>
</event>
<event>
 5    0  0.2465569E-003  0.6974743E+03  0.7546771E-02  0.9721561E-01
         -1   -1    0    0    0  501 -0.00000000000E+00  0.00000000000E+00  0.16439233562E+03  0.16439233562E+03  0.00000000000E+00 0. -1.
          1   -1    0    0  502    0  0.00000000000E+00 -0.00000000000E+00 -0.12448494483E+04  0.12448494483E+04  0.00000000000E+00 0.  1.
         25    1    1    2    0    0  0.14840402046E+03 -0.18697873058E+03 -0.98890515260E+02  0.28703507275E+03  0.12500000000E+03 0.  0.
         21    1    1    2  502  503 -0.26792042114E+03  0.35385078318E+02 -0.84115429497E+03  0.88350099252E+03  0.00000000000E+00 0.  1.
         21    1    1    2  503  501  0.11951640068E+03  0.15159365226E+03 -0.14041230246E+03  0.23870571866E+03  0.00000000000E+00 0.  1.
<mgrwt>
<rscale>  4 0.69747433E+03</rscale>
<asrwt>0</asrwt>
<pdfrwt beam="1">  1        1 0.19151531E+00 0.69747433E+03</pdfrwt>
<pdfrwt beam="2">  1       -1 0.25291128E-01 0.69747433E+03</pdfrwt>
<totfact> 0.13909479E+02</totfact>
</mgrwt>
</event>
<event>
 5    0  0.2465569E-003  0.8979776E+03  0.7546771E-02  0.9428113E-01
         -1   -1    0    0    0  501 -0.00000000000E+00  0.00000000000E+00  0.26083347987E+03  0.26083347987E+03  0.00000000000E+00 0.  1.
          1   -1    0    0  503    0  0.00000000000E+00 -0.00000000000E+00 -0.77287221793E+03  0.77287221793E+03  0.00000000000E+00 0. -1.
         25    1    1    2    0    0  0.18595188163E+03 -0.37075524595E+03 -0.11934170372E+03  0.44933839912E+03  0.12500000000E+03 0.  0.
         21    1    1    2  502  501 -0.13806435989E+03  0.26645803025E+03 -0.20184666132E+03  0.36166797486E+03  0.00000000000E+00 0. -1.
         21    1    1    2  503  502 -0.47887521736E+02  0.10429721570E+03 -0.19085037303E+03  0.22269932381E+03  0.00000000000E+00 0.  1.
<mgrwt>
<rscale>  4 0.89797762E+03</rscale>
<asrwt>0</asrwt>
<pdfrwt beam="1">  1        1 0.11890342E+00 0.89797762E+03</pdfrwt>
<pdfrwt beam="2">  1       -1 0.40128228E-01 0.89797762E+03</pdfrwt>
<totfact> 0.14242997E+02</totfact>
</mgrwt>
</event>
<event>
 5    0  0.2465569E-003  0.5402917E+03  0.7546771E-02  0.1003766E+00
         -2   -1    0    0    0  501 -0.00000000000E+00  0.00000000000E+00  0.13829630053E+03  0.13829630053E+03  0.00000000000E+00 0. -1.
          2   -1    0    0  502    0  0.00000000000E+00 -0.00000000000E+00 -0.65180390541E+03  0.65180390541E+03  0.00000000000E+00 0.  1.
         25    1    1    2    0    0  0.21763924313E+03  0.76413050870E+02 -0.11433400055E+03  0.28618710344E+03  0.12500000000E+03 0.  0.
         21    1    1    2  502  503 -0.21907023090E+03 -0.41045871672E+02 -0.41019851253E+03  0.46683974695E+03  0.00000000000E+00 0.  1.
         21    1    1    2  503  501  0.14309877730E+01 -0.35367179198E+02  0.11024908210E+02  0.37073355546E+02  0.00000000000E+00 0. -1.
<mgrwt>
<rscale>  4 0.54029166E+03</rscale>
<asrwt>0</asrwt>
<pdfrwt beam="1">  1        2 0.10027752E+00 0.54029166E+03</pdfrwt>
<pdfrwt beam="2">  1       -2 0.21276354E-01 0.54029166E+03</pdfrwt>
<totfact> 0.86222273E+02</totfact>
</mgrwt>
</event>
<event>
 5    0  0.3214792E-003  0.1236135E+04  0.7546771E-02  0.9081803E-01
         -2   -1    0    0    0  501 -0.00000000000E+00  0.00000000000E+00  0.66244537615E+03  0.66244537615E+03  0.00000000000E+00 0. -1.
          2   -1    0    0  503    0  0.00000000000E+00 -0.00000000000E+00 -0.67666335981E+03  0.67666335981E+03  0.00000000000E+00 0.  1.
         25    1    1    2    0    0  0.32073204761E+03 -0.15385301072E+03  0.48532876301E+03  0.61458018474E+03  0.12500000000E+03 0.  0.
         21    1    1    2  502  501 -0.53052080494E+02  0.64644802544E+02  0.56546146633E+02  0.10095018791E+03  0.00000000000E+00 0.  1.
         21    1    1    2  503  502 -0.26767996712E+03  0.89208208178E+02 -0.55609289330E+03  0.62357836330E+03  0.00000000000E+00 0.  1.
<mgrwt>
<rscale>  4 0.12361347E+04</rscale>
<asrwt>0</asrwt>
<pdfrwt beam="1">  1        2 0.10410206E+00 0.12361347E+04</pdfrwt>
<pdfrwt beam="2">  1       -2 0.10191467E+00 0.12361347E+04</pdfrwt>
<totfact> 0.33173271E+01</totfact>
</mgrwt>
</event>
<event>
 5    0  0.2465569E-003  0.8475102E+03  0.7546771E-02  0.9493685E-01
          2   -1    0    0  503    0  0.00000000000E+00  0.00000000000E+00  0.78516582691E+03  0.78516582691E+03  0.00000000000E+00 0. -1.
         -2   -1    0    0    0  501 -0.00000000000E+00 -0.00000000000E+00 -0.22870119952E+03  0.22870119952E+03  0.00000000000E+00 0.  1.
         25    1    1    2    0    0 -0.30344057634E+03  0.21602083905E+03  0.46868870520E+03  0.61158424494E+03  0.12500000000E+03 0.  0.
         21    1    1    2  502  501  0.17831561922E+03 -0.15643538774E+03 -0.18896924911E+01  0.23721732975E+03  0.00000000000E+00 0.  1.
         21    1    1    2  503  502  0.12512495712E+03 -0.59585451307E+02  0.89665614685E+02  0.16506545174E+03  0.00000000000E+00 0. -1.
<mgrwt>
<rscale>  4 0.84751016E+03</rscale>
<asrwt>0</asrwt>
<pdfrwt beam="1">  1        2 0.12079474E+00 0.84751016E+03</pdfrwt>
<pdfrwt beam="2">  1       -2 0.35184800E-01 0.84751016E+03</pdfrwt>
<totfact> 0.26878977E+02</totfact>
</mgrwt>
</event>
<event>
 5    0  0.2465569E-003  0.5247945E+03  0.7546771E-02  0.1007502E+00
         -2   -1    0    0    0  501 -0.00000000000E+00  0.00000000000E+00  0.12323914710E+03  0.12323914710E+03  0.00000000000E+00 0. -1.
          2   -1    0    0  503    0  0.00000000000E+00 -0.00000000000E+00 -0.24536025776E+04  0.24536025776E+04  0.00000000000E+00 0.  1.
         25    1    1    2    0    0 -0.13864030847E+03 -0.21411284045E+03 -0.92939217392E+03  0.97183345102E+03  0.12500000000E+03 0.  0.
         21    1    1    2  502  501 -0.21704311616E+02  0.86529230405E+02  0.73978362954E+02  0.11589298099E+03  0.00000000000E+00 0. -1.
         21    1    1    2  503  502  0.16034462009E+03  0.12758361004E+03 -0.14749496195E+04  0.14891152927E+04  0.00000000000E+00 0. -1.
<mgrwt>
<rscale>  4 0.52479449E+03</rscale>
<asrwt>0</asrwt>
<pdfrwt beam="1">  1        2 0.37747731E+00 0.52479449E+03</pdfrwt>
<pdfrwt beam="2">  1       -2 0.18959869E-01 0.52479449E+03</pdfrwt>
<totfact> 0.92918513E+01</totfact>
</mgrwt>
</event>
<event>
 5    0  0.2465569E-003  0.5298778E+03  0.7546771E-02  0.1006262E+00
          1   -1    0    0  503    0  0.00000000000E+00  0.00000000000E+00  0.13902490990E+04  0.13902490990E+04  0.00000000000E+00 0. -1.
         -1   -1    0    0    0  501 -0.00000000000E+00 -0.00000000000E+00 -0.95612051271E+02  0.95612051271E+02  0.00000000000E+00 0.  1.
         25    1    1    2    0    0 -0.13195720867E+03 -0.18096775482E+03  0.34836241165E+03  0.43260074324E+03  0.12500000000E+03 0.  0.
         21    1    1    2  502  501 -0.47115447868E+02  0.90978350549E+02  0.18530946677E+02  0.10411686550E+03  0.00000000000E+00 0. -1.
         21    1    1    2  503  502  0.17907265654E+03  0.89989404274E+02  0.92774368939E+03  0.94914354151E+03  0.00000000000E+00 0. -1.
<mgrwt>
<rscale>  4 0.52987780E+03</rscale>
<asrwt>0</asrwt>
<pdfrwt beam="1">  1        1 0.21388446E+00 0.52987780E+03</pdfrwt>
<pdfrwt beam="2">  1       -1 0.14709547E-01 0.52987780E+03</pdfrwt>
<totfact> 0.27387230E+02</totfact>
</mgrwt>
</event>
<event>
 5    0  0.2465569E-003  0.8900359E+03  0.7546771E-02  0.9438123E-01
          1   -1    0    0  503    0  0.00000000000E+00  0.00000000000E+00  0.10177242008E+04  0.10177242008E+04  0.00000000000E+00 0. -1.
         -1   -1    0    0    0  501 -0.00000000000E+00 -0.00000000000E+00 -0.67326858292E+03  0.67326858292E+03  0.00000000000E+00 0.  1.
         25    1    1    2    0    0 -0.51360703634E+02 -0.22281319680E+03 -0.88884173370E+02  0.27533441271E+03  0.12500000000E+03 0.  0.
         21    1    1    2  502  501  0.79015056494E+02  0.47563295380E+01 -0.47477115477E+03  0.48132489154E+03  0.00000000000E+00 0.  1.
         21    1    1    2  503  502 -0.27654352860E+02  0.21805686726E+03  0.90811094603E+03  0.93433347949E+03  0.00000000000E+00 0. -1.
<mgrwt>
<rscale>  4 0.89003590E+03</rscale>
<asrwt>0</asrwt>
<pdfrwt beam="1">  1        1 0.15657295E+00 0.89003590E+03</pdfrwt>
<pdfrwt beam="2">  1       -1 0.10357978E+00 0.89003590E+03</pdfrwt>
<totfact> 0.13062388E+01</totfact>
</mgrwt>
</event>
<event>
 5    0  0.2465569E-003  0.6951338E+03  0.7546771E-02  0.9725590E-01
          2   -1    0    0  503    0  0.00000000000E+00  0.00000000000E+00  0.19573281267E+04  0.19573281267E+04  0.00000000000E+00 0. -1.
         -2   -1    0    0    0  501 -0.00000000000E+00 -0.00000000000E+00 -0.10080069925E+03  0.10080069925E+03  0.00000000000E+00 0.  1.
         25    1    1    2    0    0 -0.18096027592E+03 -0.16972164908E+03  0.85565217361E+03  0.89962086560E+03  0.12500000000E+03 0.  0.
         21    1    1    2  502  501  0.15862878674E+03  0.30414647456E+03  0.33728491238E+03  0.48107097406E+03  0.00000000000E+00 0.  1.
         21    1    1    2  503  502  0.22331489181E+02 -0.13442482548E+03  0.66359034146E+03  0.67743698629E+03  0.00000000000E+00 0.  1.
<mgrwt>
<rscale>  4 0.69513385E+03</rscale>
<asrwt>0</asrwt>
<pdfrwt beam="1">  1        2 0.30112738E+00 0.69513385E+03</pdfrwt>
<pdfrwt beam="2">  1       -2 0.15507801E-01 0.69513385E+03</pdfrwt>
<totfact> 0.24009685E+02</totfact>
</mgrwt>
</event>
<event>
 5    0  0.2465569E-003  0.1441958E+04  0.7546771E-02  0.8923995E-01
          2   -1    0    0  503    0  0.00000000000E+00  0.00000000000E+00  0.94512201541E+03  0.94512201541E+03  0.00000000000E+00 0. -1.
         -2   -1    0    0    0  501 -0.00000000000E+00 -0.00000000000E+00 -0.61698749398E+03  0.61698749398E+03  0.00000000000E+00 0.  1.
         25    1    1    2    0    0 -0.37583421363E+03  0.15785816110E+02  0.75226656772E+03  0.85031202334E+03  0.12500000000E+03 0.  0.
         21    1    1    2  502  501  0.38448082822E+03  0.60594625916E+02 -0.47911336786E+03  0.61728991181E+03  0.00000000000E+00 0.  1.
         21    1    1    2  503  502 -0.86466145908E+01 -0.76380442026E+02  0.54981321569E+02  0.94507574244E+02  0.00000000000E+00 0. -1.
<mgrwt>
<rscale>  4 0.14419580E+04</rscale>
<asrwt>0</asrwt>
<pdfrwt beam="1">  1        2 0.14540339E+00 0.14419580E+04</pdfrwt>
<pdfrwt beam="2">  1       -2 0.94921153E-01 0.14419580E+04</pdfrwt>
<totfact> 0.24736783E+01</totfact>
</mgrwt>
</event>
<event>
 5    0  0.2465569E-003  0.4705359E+03  0.7546771E-02  0.1021769E+00
         -3   -1    0    0    0  501 -0.00000000000E+00  0.00000000000E+00  0.15414657282E+03  0.15414657282E+03  0.00000000000E+00 0. -1.
          3   -1    0    0  502    0  0.00000000000E+00 -0.00000000000E+00 -0.64611544697E+03  0.64611544697E+03  0.00000000000E+00 0.  1.
         25    1    1    2    0    0  0.22976831646E+03 -0.86832197915E+02 -0.18499366940E+03  0.33193518578E+03  0.12500000000E+03 0.  0.
         21    1    1    2  502  503 -0.49410682328E+02  0.49478730199E+02 -0.27200767906E+03  0.28085180743E+03  0.00000000000E+00 0. -1.
         21    1    1    2  503  501 -0.18035763413E+03  0.37353467716E+02 -0.34967525695E+02  0.18747502658E+03  0.00000000000E+00 0. -1.
<mgrwt>
<rscale>  4 0.47053591E+03</rscale>
<asrwt>0</asrwt>
<pdfrwt beam="1">  1        3 0.99402375E-01 0.47053591E+03</pdfrwt>
<pdfrwt beam="2">  1       -3 0.23714858E-01 0.47053591E+03</pdfrwt>
<totfact> 0.38888285E+01</totfact>
</mgrwt>
</event>
<event>
 5    0  0.2465569E-003  0.4949775E+03  0.7546771E-02  0.1015098E+00
         -1   -1    0    0    0  501 -0.00000000000E+00  0.00000000000E+00  0.38391470501E+03  0.38391470501E+03  0.00000000000E+00 0.  1.
          1   -1    0    0  503    0  0.00000000000E+00 -0.00000000000E+00 -0.22616648352E+03  0.22616648352E+03  0.00000000000E+00 0. -1.
         25    1    1    2    0    0 -0.16017634727E+02  0.22655527460E+03  0.23108592474E+03  0.34728887354E+03  0.12500000000E+03 0.  0.
         21    1    1    2  502  501 -0.37416994664E+02 -0.50043212124E+02 -0.43098735593E+02  0.75906887561E+02  0.00000000000E+00 0. -1.
         21    1    1    2  503  502  0.53434629392E+02 -0.17651206248E+03 -0.30238967659E+02  0.18688542742E+03  0.00000000000E+00 0.  1.
<mgrwt>
<rscale>  4 0.49497746E+03</rscale>
<asrwt>0</asrwt>
<pdfrwt beam="1">  1        1 0.34794844E-01 0.49497746E+03</pdfrwt>
<pdfrwt beam="2">  1       -1 0.59063801E-01 0.49497746E+03</pdfrwt>
<totfact> 0.37434317E+02</totfact>
</mgrwt>
</event>
<event>
 5    0  0.2465569E-003  0.6088989E+03  0.7546771E-02  0.9887114E-01
         -1   -1    0    0    0  501 -0.00000000000E+00  0.00000000000E+00  0.82339338427E+02  0.82339338427E+02  0.00000000000E+00 0.  1.
          1   -1    0    0  502    0  0.00000000000E+00 -0.00000000000E+00 -0.23059832311E+04  0.23059832311E+04  0.00000000000E+00 0. -1.
         25    1    1    2    0    0 -0.10675793029E+03 -0.22752323196E+03 -0.58999424405E+03  0.65336229212E+03  0.12500000000E+03 0.  0.
         21    1    1    2  502  503  0.24685702183E+03 -0.66619890152E+02 -0.80188874199E+03  0.84166629582E+03  0.00000000000E+00 0.  1.
         21    1    1    2  503  501 -0.14009909154E+03  0.29414312211E+03 -0.83176090667E+03  0.89329398162E+03  0.00000000000E+00 0. -1.
<mgrwt>
<rscale>  4 0.60889894E+03</rscale>
<asrwt>0</asrwt>
<pdfrwt beam="1">  1        1 0.35476661E+00 0.60889894E+03</pdfrwt>
<pdfrwt beam="2">  1       -1 0.12667592E-01 0.60889894E+03</pdfrwt>
<totfact> 0.84154408E+01</totfact>
</mgrwt>
</event>
<event>
 5    0  0.2465569E-003  0.4671751E+03  0.7546771E-02  0.1022721E+00
         -2   -1    0    0    0  501 -0.00000000000E+00  0.00000000000E+00  0.45548506726E+02  0.45548506726E+02  0.00000000000E+00 0.  1.
          2   -1    0    0  503    0  0.00000000000E+00 -0.00000000000E+00 -0.11979130580E+04  0.11979130580E+04  0.00000000000E+00 0. -1.
         25    1    1    2    0    0 -0.20210442229E+03 -0.46962843518E+01 -0.76531383491E+03  0.80137289603E+03  0.12500000000E+03 0.  0.
         21    1    1    2  502  501  0.57712714676E+02  0.22716051941E+02 -0.71820078864E+02  0.94894152502E+02  0.00000000000E+00 0.  1.
         21    1    1    2  503  502  0.14439170761E+03 -0.18019767589E+02 -0.31523063747E+03  0.34719451616E+03  0.00000000000E+00 0. -1.
<mgrwt>
<rscale>  4 0.46717513E+03</rscale>
<asrwt>0</asrwt>
<pdfrwt beam="1">  1        2 0.18429429E+00 0.46717513E+03</pdfrwt>
<pdfrwt beam="2">  1       -2 0.70074636E-02 0.46717513E+03</pdfrwt>
<totfact> 0.23304086E+03</totfact>
</mgrwt>
</event>
<event>
 5    0  0.2465569E-003  0.5903474E+03  0.7546771E-02  0.9925637E-01
          2   -1    0    0  502    0  0.00000000000E+00  0.00000000000E+00  0.14989051294E+04  0.14989051294E+04  0.00000000000E+00 0.  1.
         -2   -1    0    0    0  501 -0.00000000000E+00 -0.00000000000E+00 -0.10433585683E+03  0.10433585683E+03  0.00000000000E+00 0. -1.
         25    1    1    2    0    0  0.19474040937E+03  0.11986395652E+03  0.80363172737E+03  0.84483143191E+03  0.12500000000E+03 0.  0.
         21    1    1    2  502  503 -0.18494805891E+02 -0.15841177368E+03  0.55101653166E+03  0.57363365143E+03  0.00000000000E+00 0. -1.
         21    1    1    2  503  501 -0.17624560348E+03  0.38547817163E+02  0.39921013503E+02  0.18477590285E+03  0.00000000000E+00 0. -1.
<mgrwt>
<rscale>  4 0.59034739E+03</rscale>
<asrwt>0</asrwt>
<pdfrwt beam="1">  1        2 0.23060077E+00 0.59034739E+03</pdfrwt>
<pdfrwt beam="2">  1       -2 0.16051671E-01 0.59034739E+03</pdfrwt>
<totfact> 0.40617620E+02</totfact>
</mgrwt>
</event>
<event>
 5    0  0.2465569E-003  0.8152346E+03  0.7546771E-02  0.9538224E-01
         -2   -1    0    0    0  501 -0.00000000000E+00  0.00000000000E+00  0.17949097838E+03  0.17949097838E+03  0.00000000000E+00 0. -1.
          2   -1    0    0  502    0  0.00000000000E+00 -0.00000000000E+00 -0.16014078112E+04  0.16014078112E+04  0.00000000000E+00 0.  1.
         25    1    1    2    0    0 -0.28185229390E+03 -0.18215800751E+02 -0.20565605160E+03  0.37106864936E+03  0.12500000000E+03 0.  0.
         21    1    1    2  502  503  0.33345310157E+03  0.49653330547E+02 -0.12790237565E+04  0.13227086579E+04  0.00000000000E+00 0.  1.
         21    1    1    2  503  501 -0.51600807663E+02 -0.31437529796E+02  0.62762975194E+02  0.87121482347E+02  0.00000000000E+00 0. -1.
<mgrwt>
<rscale>  4 0.81523459E+03</rscale>
<asrwt>0</asrwt>
<pdfrwt beam="1">  1        2 0.24637044E+00 0.81523459E+03</pdfrwt>
<pdfrwt beam="2">  1       -2 0.27613996E-01 0.81523459E+03</pdfrwt>
<totfact> 0.13472081E+02</totfact>
</mgrwt>
</event>
<event>
 5    0  0.2465569E-003  0.6033079E+03  0.7546771E-02  0.9898567E-01
          2   -1    0    0  503    0  0.00000000000E+00  0.00000000000E+00  0.22763372362E+04  0.22763372362E+04  0.00000000000E+00 0.  1.
         -2   -1    0    0    0  501 -0.00000000000E+00 -0.00000000000E+00 -0.52113834240E+02  0.52113834240E+02  0.00000000000E+00 0. -1.
         25    1    1    2    0    0  0.17869866426E+03 -0.17899661700E+03  0.91431931489E+03  0.95685830251E+03  0.12500000000E+03 0.  0.
         21    1    1    2  502  501 -0.19547739340E+03  0.25349789340E+03  0.91520004199E+03  0.96956882693E+03  0.00000000000E+00 0.  1.
         21    1    1    2  503  502  0.16778729141E+02 -0.74501276400E+02  0.39470404508E+03  0.40202394100E+03  0.00000000000E+00 0. -1.
<mgrwt>
<rscale>  4 0.60330789E+03</rscale>
<asrwt>0</asrwt>
<pdfrwt beam="1">  1        2 0.35020565E+00 0.60330789E+03</pdfrwt>
<pdfrwt beam="2">  1       -2 0.80175147E-02 0.60330789E+03</pdfrwt>
<totfact> 0.47862343E+02</totfact>
</mgrwt>
</event>
<event>
 5    0  0.2465569E-003  0.7617975E+03  0.7546771E-02  0.9617022E-01
         -1   -1    0    0    0  501 -0.00000000000E+00  0.00000000000E+00  0.36025339416E+03  0.36025339416E+03  0.00000000000E+00 0.  1.
          1   -1    0    0  503    0  0.00000000000E+00 -0.00000000000E+00 -0.93999757732E+03  0.93999757732E+03  0.00000000000E+00 0. -1.
         25    1    1    2    0    0 -0.27182343995E+03 -0.24092619756E+01 -0.16666499313E+03  0.34248504637E+03  0.12500000000E+03 0.  0.
         21    1    1    2  502  501 -0.54105443855E+02 -0.30960192621E+03  0.41805997968E+02  0.31706228604E+03  0.00000000000E+00 0.  1.
         21    1    1    2  503  502  0.32592888381E+03  0.31201118818E+03 -0.45488518800E+03  0.64070363907E+03  0.00000000000E+00 0. -1.
<mgrwt>
<rscale>  4 0.76179746E+03</rscale>
<asrwt>0</asrwt>
<pdfrwt beam="1">  1        1 0.14461501E+00 0.76179746E+03</pdfrwt>
<pdfrwt beam="2">  1       -1 0.55423600E-01 0.76179746E+03</pdfrwt>
<totfact> 0.56786121E+01</totfact>
</mgrwt>
</event>
<event>
 5    0  0.2465569E-003  0.6231101E+03  0.7546771E-02  0.9858587E-01
         -2   -1    0    0    0  501 -0.00000000000E+00  0.00000000000E+00  0.12316469176E+03  0.12316469176E+03  0.00000000000E+00 0. -1.
          2   -1    0    0  503    0  0.00000000000E+00 -0.00000000000E+00 -0.10063996478E+04  0.10063996478E+04  0.00000000000E+00 0.  1.
         25    1    1    2    0    0  0.29271798911E+03  0.17520113933E+02 -0.65046943032E+03  0.72437991091E+03  0.12500000000E+03 0.  0.
         21    1    1    2  502  501 -0.23351754871E+03  0.36848024820E+02 -0.11575127181E+03  0.26322344009E+03  0.00000000000E+00 0. -1.
         21    1    1    2  503  502 -0.59200440403E+02 -0.54368138753E+02 -0.11701425389E+03  0.14196098855E+03  0.00000000000E+00 0.  1.
<mgrwt>
<rscale>  4 0.62311011E+03</rscale>
<asrwt>0</asrwt>
<pdfrwt beam="1">  1        2 0.15483071E+00 0.62311011E+03</pdfrwt>
<pdfrwt beam="2">  1       -2 0.18948415E-01 0.62311011E+03</pdfrwt>
<totfact> 0.59119171E+02</totfact>
</mgrwt>
</event>
<event>
 5    0  0.2465569E-003  0.3776365E+03  0.7546771E-02  0.1051811E+00
          2   -1    0    0  503    0  0.00000000000E+00  0.00000000000E+00  0.15684943521E+04  0.15684943521E+04  0.00000000000E+00 0. -1.
         -2   -1    0    0    0  501 -0.00000000000E+00 -0.00000000000E+00 -0.49508543873E+02  0.49508543873E+02  0.00000000000E+00 0.  1.
         25    1    1    2    0    0 -0.20143426350E+03  0.55687511203E+02  0.77647839990E+03  0.81376935733E+03  0.12500000000E+03 0.  0.
         21    1    1    2  502  501  0.91482276443E+02 -0.39416368126E+01  0.56607367134E+02  0.10765192714E+03  0.00000000000E+00 0.  1.
         21    1    1    2  503  502  0.10995198705E+03 -0.51745874390E+02  0.68590004116E+03  0.69658161146E+03  0.00000000000E+00 0.  1.
<mgrwt>
<rscale>  4 0.37763652E+03</rscale>
<asrwt>0</asrwt>
<pdfrwt beam="1">  1        2 0.24130679E+00 0.37763652E+03</pdfrwt>
<pdfrwt beam="2">  1       -2 0.76167003E-02 0.37763652E+03</pdfrwt>
<totfact> 0.12736427E+03</totfact>
</mgrwt>
</event>
<event>
 5    0  0.2465569E-003  0.7647054E+03  0.7546771E-02  0.9612558E-01
         -1   -1    0    0    0  501 -0.00000000000E+00  0.00000000000E+00  0.62406731481E+03  0.62406731481E+03  0.00000000000E+00 0.  1.
          1   -1    0    0  502    0  0.00000000000E+00 -0.00000000000E+00 -0.10116921827E+04  0.10116921827E+04  0.00000000000E+00 0. -1.
         25    1    1    2    0    0  0.15122239368E+03 -0.15540140606E+03 -0.60103316659E+02  0.25740088972E+03  0.12500000000E+03 0.  0.
         21    1    1    2  502  503  0.17328166070E+03 -0.88125940330E+02 -0.76052485535E+03  0.78497819773E+03  0.00000000000E+00 0. -1.
         21    1    1    2  503  501 -0.32450405438E+03  0.24352734639E+03  0.43300330409E+03  0.59338041011E+03  0.00000000000E+00 0.  1.
<mgrwt>
<rscale>  4 0.76470545E+03</rscale>
<asrwt>0</asrwt>
<pdfrwt beam="1">  1        1 0.15564495E+00 0.76470545E+03</pdfrwt>
<pdfrwt beam="2">  1       -1 0.96010357E-01 0.76470545E+03</pdfrwt>
<totfact> 0.15931916E+01</totfact>
</mgrwt>
</event>
<event>
 5    0  0.2465569E-003  0.6263764E+03  0.7546771E-02  0.9852146E-01
         -2   -1    0    0    0  501 -0.00000000000E+00  0.00000000000E+00  0.11992938733E+03  0.11992938733E+03  0.00000000000E+00 0. -1.
          2   -1    0    0  502    0  0.00000000000E+00 -0.00000000000E+00 -0.10590020482E+04  0.10590020482E+04  0.00000000000E+00 0.  1.
         25    1    1    2    0    0  0.18677173332E+03 -0.76879471805E+02 -0.47285281873E+02  0.24218800844E+03  0.12500000000E+03 0.  0.
         21    1    1    2  502  503 -0.11320270523E+03  0.37984301431E+02 -0.81438873900E+03  0.82309578899E+03  0.00000000000E+00 0.  1.
         21    1    1    2  503  501 -0.73569028084E+02  0.38895170375E+02 -0.77398639939E+02  0.11364763806E+03  0.00000000000E+00 0.  1.
<mgrwt>
<rscale>  4 0.62637644E+03</rscale>
<asrwt>0</asrwt>
<pdfrwt beam="1">  1        2 0.16292340E+00 0.62637644E+03</pdfrwt>
<pdfrwt beam="2">  1       -2 0.18450674E-01 0.62637644E+03</pdfrwt>
<totfact> 0.57383932E+02</totfact>
</mgrwt>
</event>
<event>
 5    0  0.2465569E-003  0.8373460E+03  0.7546771E-02  0.9507480E-01
          2   -1    0    0  503    0  0.00000000000E+00  0.00000000000E+00  0.44509895479E+03  0.44509895479E+03  0.00000000000E+00 0. -1.
         -2   -1    0    0    0  501 -0.00000000000E+00 -0.00000000000E+00 -0.67216225317E+03  0.67216225317E+03  0.00000000000E+00 0.  1.
         25    1    1    2    0    0 -0.39711768519E+03 -0.55350068504E+02 -0.11639231009E+03  0.43581906317E+03  0.12500000000E+03 0.  0.
         21    1    1    2  502  501  0.31298273284E+03  0.27511158612E+03 -0.14995960626E+03  0.44286844478E+03  0.00000000000E+00 0. -1.
         21    1    1    2  503  502  0.84134952355E+02 -0.21976151762E+03  0.39288617973E+02  0.23857370001E+03  0.00000000000E+00 0. -1.
<mgrwt>
<rscale>  4 0.83734604E+03</rscale>
<asrwt>0</asrwt>
<pdfrwt beam="1">  1        2 0.68476762E-01 0.83734604E+03</pdfrwt>
<pdfrwt beam="2">  1       -2 0.10340958E+00 0.83734604E+03</pdfrwt>
<totfact> 0.54027176E+01</totfact>
</mgrwt>
</event>
<event>
 5    0  0.2465569E-003  0.5547735E+03  0.7546771E-02  0.1000395E+00
          1   -1    0    0  503    0  0.00000000000E+00  0.00000000000E+00  0.73682380309E+02  0.73682380309E+02  0.00000000000E+00 0.  1.
         -1   -1    0    0    0  501 -0.00000000000E+00 -0.00000000000E+00 -0.15165466684E+04  0.15165466684E+04  0.00000000000E+00 0. -1.
         25    1    1    2    0    0 -0.19815128104E+03  0.13192202590E+03 -0.28392074412E+03  0.39102856678E+03  0.12500000000E+03 0.  0.
         21    1    1    2  502  501  0.19045559038E+03 -0.22467669056E+02 -0.84954195051E+03  0.87091885600E+03  0.00000000000E+00 0.  1.
         21    1    1    2  503  502  0.76956906589E+01 -0.10945435685E+03 -0.30940159350E+03  0.32828162597E+03  0.00000000000E+00 0. -1.
<mgrwt>
<rscale>  4 0.55477348E+03</rscale>
<asrwt>0</asrwt>
<pdfrwt beam="1">  1        1 0.11335751E-01 0.55477348E+03</pdfrwt>
<pdfrwt beam="2">  1       -1 0.23331487E+00 0.55477348E+03</pdfrwt>
<totfact> 0.52957342E+01</totfact>
</mgrwt>
</event>
<event>
 5    0  0.2465569E-003  0.4444735E+03  0.7546771E-02  0.1029383E+00
          2   -1    0    0  503    0  0.00000000000E+00  0.00000000000E+00  0.32790149120E+04  0.32790149120E+04  0.00000000000E+00 0.  1.
         -2   -1    0    0    0  501 -0.00000000000E+00 -0.00000000000E+00 -0.18918048604E+02  0.18918048604E+02  0.00000000000E+00 0. -1.
         25    1    1    2    0    0  0.16438360304E+03  0.13954508240E+03  0.13119180322E+04  0.13353833615E+04  0.12500000000E+03 0.  0.
         21    1    1    2  502  501 -0.75871721184E+00 -0.49267912808E+02  0.48099789497E+03  0.48351512680E+03  0.00000000000E+00 0. -1.
         21    1    1    2  503  502 -0.16362488583E+03 -0.90277169595E+02  0.14671809362E+04  0.14790344723E+04  0.00000000000E+00 0.  1.
<mgrwt>
<rscale>  4 0.44447347E+03</rscale>
<asrwt>0</asrwt>
<pdfrwt beam="1">  1        2 0.50446338E+00 0.44447347E+03</pdfrwt>
<pdfrwt beam="2">  1       -2 0.29104716E-02 0.44447347E+03</pdfrwt>
<totfact> 0.60389179E+02</totfact>
</mgrwt>
</event>
<event>
 5    0  0.2465569E-003  0.5669487E+03  0.7546771E-02  0.9976453E-01
          2   -1    0    0  502    0  0.00000000000E+00  0.00000000000E+00  0.77686884599E+03  0.77686884599E+03  0.00000000000E+00 0.  1.
         -2   -1    0    0    0  501 -0.00000000000E+00 -0.00000000000E+00 -0.52495156856E+03  0.52495156856E+03  0.00000000000E+00 0. -1.
         25    1    1    2    0    0  0.10627609763E+03 -0.22031779924E+03 -0.28594396167E+03  0.39651417479E+03  0.12500000000E+03 0.  0.
         21    1    1    2  502  503 -0.19035546392E+03 -0.28632416852E+02  0.60434423814E+03  0.63426096846E+03  0.00000000000E+00 0.  1.
         21    1    1    2  503  501  0.84079366296E+02  0.24895021609E+03 -0.66482999041E+02  0.27104527129E+03  0.00000000000E+00 0.  1.
<mgrwt>
<rscale>  4 0.56694872E+03</rscale>
<asrwt>0</asrwt>
<pdfrwt beam="1">  1        2 0.11951828E+00 0.56694872E+03</pdfrwt>
<pdfrwt beam="2">  1       -2 0.80761779E-01 0.56694872E+03</pdfrwt>
<totfact> 0.49925067E+01</totfact>
</mgrwt>
</event>
<event>
 5    0  0.2465569E-003  0.5085174E+03  0.7546771E-02  0.1011579E+00
          2   -1    0    0  502    0  0.00000000000E+00  0.00000000000E+00  0.13134335467E+04  0.13134335467E+04  0.00000000000E+00 0.  1.
         -2   -1    0    0    0  501 -0.00000000000E+00 -0.00000000000E+00 -0.72711252374E+02  0.72711252374E+02  0.00000000000E+00 0. -1.
         25    1    1    2    0    0 -0.52097667678E+01  0.21556982663E+03  0.88753357447E+03  0.92186676783E+03  0.12500000000E+03 0.  0.
         21    1    1    2  502  503  0.25557852443E+02 -0.92827819914E+02  0.32189445957E+03  0.33598549236E+03  0.00000000000E+00 0.  1.
         21    1    1    2  503  501 -0.20348085675E+02 -0.12274200672E+03  0.31294260272E+02  0.12829253887E+03  0.00000000000E+00 0.  1.
<mgrwt>
<rscale>  4 0.50851743E+03</rscale>
<asrwt>0</asrwt>
<pdfrwt beam="1">  1        2 0.20206668E+00 0.50851743E+03</pdfrwt>
<pdfrwt beam="2">  1       -2 0.11186348E-01 0.50851743E+03</pdfrwt>
<totfact> 0.94494815E+02</totfact>
</mgrwt>
</event>
<event>
 5    0  0.2465569E-003  0.9968179E+03  0.7546771E-02  0.9312042E-01
         -1   -1    0    0    0  501 -0.00000000000E+00  0.00000000000E+00  0.24000470641E+03  0.24000470641E+03  0.00000000000E+00 0.  1.
          1   -1    0    0  503    0  0.00000000000E+00 -0.00000000000E+00 -0.14423606797E+04  0.14423606797E+04  0.00000000000E+00 0. -1.
         25    1    1    2    0    0 -0.10954245007E+03 -0.17745046885E+03 -0.10384843588E+04  0.10665659758E+04  0.12500000000E+03 0.  0.
         21    1    1    2  502  501 -0.23360418312E+02  0.27922053116E+03  0.10487880288E+03  0.29918117831E+03  0.00000000000E+00 0.  1.
         21    1    1    2  503  502  0.13290286838E+03 -0.10177006230E+03 -0.26875041740E+03  0.31661823204E+03  0.00000000000E+00 0. -1.
<mgrwt>
<rscale>  4 0.99681791E+03</rscale>
<asrwt>0</asrwt>
<pdfrwt beam="1">  1        1 0.22190165E+00 0.99681791E+03</pdfrwt>
<pdfrwt beam="2">  1       -1 0.36923800E-01 0.99681791E+03</pdfrwt>
<totfact> 0.50766189E+01</totfact>
</mgrwt>
</event>
<event>
 5    0  0.2465569E-003  0.6259011E+03  0.7546771E-02  0.9853080E-01
         -2   -1    0    0    0  501 -0.00000000000E+00  0.00000000000E+00  0.21042593341E+03  0.21042593341E+03  0.00000000000E+00 0. -1.
          2   -1    0    0  503    0  0.00000000000E+00 -0.00000000000E+00 -0.46542758619E+03  0.46542758619E+03  0.00000000000E+00 0.  1.
         25    1    1    2    0    0  0.20037474581E+03  0.17277099951E+03 -0.27505306712E+03  0.40159562593E+03  0.12500000000E+03 0.  0.
         21    1    1    2  502  501 -0.15185218403E+03 -0.14404911093E+03  0.42481851635E+02  0.21357420226E+03  0.00000000000E+00 0. -1.
         21    1    1    2  503  502 -0.48522561786E+02 -0.28721888585E+02 -0.22430437284E+02  0.60683691409E+02  0.00000000000E+00 0.  1.
<mgrwt>
<rscale>  4 0.62590106E+03</rscale>
<asrwt>0</asrwt>
<pdfrwt beam="1">  1        2 0.71604244E-01 0.62590106E+03</pdfrwt>
<pdfrwt beam="2">  1       -2 0.32373221E-01 0.62590106E+03</pdfrwt>
<totfact> 0.59839743E+02</totfact>
</mgrwt>
</event>
<event>
 5    0  0.2465569E-003  0.5688439E+03  0.7546771E-02  0.9972240E-01
          2   -1    0    0  503    0  0.00000000000E+00  0.00000000000E+00  0.96353805102E+02  0.96353805102E+02  0.00000000000E+00 0. -1.
         -2   -1    0    0    0  501 -0.00000000000E+00 -0.00000000000E+00 -0.11199535063E+04  0.11199535063E+04  0.00000000000E+00 0.  1.
         25    1    1    2    0    0  0.23347472480E+03 -0.94005179157E+02 -0.41235043807E+03  0.49900431322E+03  0.12500000000E+03 0.  0.
         21    1    1    2  502  501  0.11692547017E+02 -0.54771706411E+02 -0.24930408808E+03  0.25551748240E+03  0.00000000000E+00 0.  1.
         21    1    1    2  503  502 -0.24516727182E+03  0.14877688557E+03 -0.36194517504E+03  0.46178551578E+03  0.00000000000E+00 0. -1.
<mgrwt>
<rscale>  4 0.56884391E+03</rscale>
<asrwt>0</asrwt>
<pdfrwt beam="1">  1        2 0.14823662E-01 0.56884391E+03</pdfrwt>
<pdfrwt beam="2">  1       -2 0.17230054E+00 0.56884391E+03</pdfrwt>
<totfact> 0.85348771E+01</totfact>
</mgrwt>
</event>
<event>
 5    0  0.2465569E-003  0.5836959E+03  0.7546771E-02  0.9939821E-01
         -2   -1    0    0    0  501 -0.00000000000E+00  0.00000000000E+00  0.96630663866E+02  0.96630663866E+02  0.00000000000E+00 0. -1.
          2   -1    0    0  503    0  0.00000000000E+00 -0.00000000000E+00 -0.23118604287E+04  0.23118604287E+04  0.00000000000E+00 0.  1.
         25    1    1    2    0    0  0.25797656002E+03  0.17616178304E+03 -0.10692228398E+04  0.11209136276E+04  0.12500000000E+03 0.  0.
         21    1    1    2  502  501 -0.17619423887E+02 -0.18467896355E+03 -0.93131771168E+02  0.20758200904E+03  0.00000000000E+00 0. -1.
         21    1    1    2  503  502 -0.24035713613E+03  0.85171805130E+01 -0.10528751539E+04  0.10799954560E+04  0.00000000000E+00 0. -1.
<mgrwt>
<rscale>  4 0.58369590E+03</rscale>
<asrwt>0</asrwt>
<pdfrwt beam="1">  1        2 0.35567084E+00 0.58369590E+03</pdfrwt>
<pdfrwt beam="2">  1       -2 0.14866256E-01 0.58369590E+03</pdfrwt>
<totfact> 0.16704994E+02</totfact>
</mgrwt>
</event>
<event>
 5    0  0.2465569E-003  0.7557188E+03  0.7546771E-02  0.9626421E-01
         -1   -1    0    0    0  501 -0.00000000000E+00  0.00000000000E+00  0.20976777367E+03  0.20976777367E+03  0.00000000000E+00 0. -1.
          1   -1    0    0  503    0  0.00000000000E+00 -0.00000000000E+00 -0.86882536002E+03  0.86882536002E+03  0.00000000000E+00 0.  1.
         25    1    1    2    0    0 -0.34081650413E+03 -0.11726735926E+03 -0.48042764772E+03  0.61346821248E+03  0.12500000000E+03 0.  0.
         21    1    1    2  502  501  0.33552731922E+03  0.24373980942E+02 -0.14029758100E+03  0.36449428545E+03  0.00000000000E+00 0. -1.
         21    1    1    2  503  502  0.52891849112E+01  0.92893378317E+02 -0.38332357622E+02  0.10063063576E+03  0.00000000000E+00 0.  1.
<mgrwt>
<rscale>  4 0.75571876E+03</rscale>
<asrwt>0</asrwt>
<pdfrwt beam="1">  1        1 0.13366544E+00 0.75571876E+03</pdfrwt>
<pdfrwt beam="2">  1       -1 0.32271964E-01 0.75571876E+03</pdfrwt>
<totfact> 0.17562168E+02</totfact>
</mgrwt>
</event>
<event>
 5    0  0.2465569E-003  0.1161140E+04  0.7546771E-02  0.9147567E-01
          2   -1    0    0  503    0  0.00000000000E+00  0.00000000000E+00  0.20154866784E+04  0.20154866784E+04  0.00000000000E+00 0. -1.
         -2   -1    0    0    0  501 -0.00000000000E+00 -0.00000000000E+00 -0.20083218889E+03  0.20083218889E+03  0.00000000000E+00 0.  1.
         25    1    1    2    0    0  0.43419280258E+03  0.28299808368E+03  0.11813309987E+04  0.12960629745E+04  0.12500000000E+03 0.  0.
         21    1    1    2  502  501 -0.38825987068E+03 -0.38380109023E+03  0.45673181952E+03  0.71179558794E+03  0.00000000000E+00 0.  1.
         21    1    1    2  503  502 -0.45932931894E+02  0.10080300656E+03  0.17659167130E+03  0.20846030494E+03  0.00000000000E+00 0.  1.
<mgrwt>
<rscale>  4 0.11611400E+04</rscale>
<asrwt>0</asrwt>
<pdfrwt beam="1">  1        2 0.31007486E+00 0.11611400E+04</pdfrwt>
<pdfrwt beam="2">  1       -2 0.30897261E-01 0.11611400E+04</pdfrwt>
<totfact> 0.62972652E+01</totfact>
</mgrwt>
</event>
<event>
 5    0  0.2465569E-003  0.9396588E+03  0.7546771E-02  0.9377320E-01
         -2   -1    0    0    0  501 -0.00000000000E+00  0.00000000000E+00  0.12180716862E+03  0.12180716862E+03  0.00000000000E+00 0.  1.
          2   -1    0    0  502    0  0.00000000000E+00 -0.00000000000E+00 -0.20901949381E+04  0.20901949381E+04  0.00000000000E+00 0. -1.
         25    1    1    2    0    0 -0.35047715842E+03 -0.31998251741E+03 -0.78321518171E+03  0.92426947958E+03  0.12500000000E+03 0.  0.
         21    1    1    2  502  503  0.30128434395E+03  0.29745006810E+03 -0.11437324492E+04  0.12195789086E+04  0.00000000000E+00 0. -1.
         21    1    1    2  503  501  0.49192814471E+02  0.22532449315E+02 -0.41440138582E+02  0.68153718559E+02  0.00000000000E+00 0.  1.
<mgrwt>
<rscale>  4 0.93965884E+03</rscale>
<asrwt>0</asrwt>
<pdfrwt beam="1">  1        2 0.32156845E+00 0.93965884E+03</pdfrwt>
<pdfrwt beam="2">  1       -2 0.18739565E-01 0.93965884E+03</pdfrwt>
<totfact> 0.14368798E+02</totfact>
</mgrwt>
</event>
<event>
 5    0  0.2465569E-003  0.5569438E+03  0.7546771E-02  0.9998994E-01
          3   -1    0    0  502    0  0.00000000000E+00  0.00000000000E+00  0.31030767725E+03  0.31030767725E+03  0.00000000000E+00 0. -1.
         -3   -1    0    0    0  501 -0.00000000000E+00 -0.00000000000E+00 -0.36534869010E+03  0.36534869010E+03  0.00000000000E+00 0.  1.
         25    1    1    2    0    0 -0.30526572446E+02 -0.25003927828E+03 -0.82333724823E+02  0.29301084375E+03  0.12500000000E+03 0.  0.
         21    1    1    2  502  503 -0.81929338550E+02  0.24302297182E+03  0.63665029612E+02  0.26424575180E+03  0.00000000000E+00 0.  1.
         21    1    1    2  503  501  0.11245591100E+03  0.70163064601E+01 -0.36372317637E+02  0.11839977181E+03  0.00000000000E+00 0. -1.
<mgrwt>
<rscale>  4 0.55694380E+03</rscale>
<asrwt>0</asrwt>
<pdfrwt beam="1">  1        3 0.47739642E-01 0.55694380E+03</pdfrwt>
<pdfrwt beam="2">  1       -3 0.56207491E-01 0.55694380E+03</pdfrwt>
<totfact> 0.35533541E+01</totfact>
</mgrwt>
</event>
<event>
 5    0  0.2465569E-003  0.8866599E+03  0.7546771E-02  0.9442412E-01
          2   -1    0    0  503    0  0.00000000000E+00  0.00000000000E+00  0.31563154228E+04  0.31563154228E+04  0.00000000000E+00 0.  1.
         -2   -1    0    0    0  501 -0.00000000000E+00 -0.00000000000E+00 -0.80581816154E+02  0.80581816154E+02  0.00000000000E+00 0. -1.
         25    1    1    2    0    0 -0.26093484104E+03  0.25865681400E+03  0.18023531535E+04  0.18436627209E+04  0.12500000000E+03 0.  0.
         21    1    1    2  502  501  0.24384312890E+03 -0.30363302068E+03  0.58252268422E+03  0.70070333265E+03  0.00000000000E+00 0. -1.
         21    1    1    2  503  502  0.17091712139E+02  0.44976206684E+02  0.69085776898E+03  0.69253118540E+03  0.00000000000E+00 0. -1.
<mgrwt>
<rscale>  4 0.88665994E+03</rscale>
<asrwt>0</asrwt>
<pdfrwt beam="1">  1        2 0.48558689E+00 0.88665994E+03</pdfrwt>
<pdfrwt beam="2">  1       -2 0.12397205E-01 0.88665994E+03</pdfrwt>
<totfact> 0.69603798E+01</totfact>
</mgrwt>
</event>
<event>
 5    0  0.2465569E-003  0.5964385E+03  0.7546771E-02  0.9912823E-01
          2   -1    0    0  502    0  0.00000000000E+00  0.00000000000E+00  0.67725939194E+03  0.67725939194E+03  0.00000000000E+00 0.  1.
         -2   -1    0    0    0  501 -0.00000000000E+00 -0.00000000000E+00 -0.21156094258E+03  0.21156094258E+03  0.00000000000E+00 0. -1.
         25    1    1    2    0    0 -0.25879700094E+03  0.72676762135E+02  0.14973389348E+03  0.33211901226E+03  0.12500000000E+03 0.  0.
         21    1    1    2  502  503  0.19731936578E+03 -0.21849995992E+03  0.24606316008E+03  0.38369811486E+03  0.00000000000E+00 0.  1.
         21    1    1    2  503  501  0.61477635157E+02  0.14582319778E+03  0.69901395805E+02  0.17300320740E+03  0.00000000000E+00 0.  1.
<mgrwt>
<rscale>  4 0.59643847E+03</rscale>
<asrwt>0</asrwt>
<pdfrwt beam="1">  1        2 0.10419375E+00 0.59643847E+03</pdfrwt>
<pdfrwt beam="2">  1       -2 0.32547838E-01 0.59643847E+03</pdfrwt>
<totfact> 0.38019999E+02</totfact>
</mgrwt>
</event>
<event>
 5    0  0.2465569E-003  0.8273655E+03  0.7546771E-02  0.9521230E-01
         -2   -1    0    0    0  501 -0.00000000000E+00  0.00000000000E+00  0.83451750983E+02  0.83451750983E+02  0.00000000000E+00 0. -1.
          2   -1    0    0  503    0  0.00000000000E+00 -0.00000000000E+00 -0.28147411143E+04  0.28147411143E+04  0.00000000000E+00 0.  1.
         25    1    1    2    0    0  0.63516653659E+02 -0.32768034005E+03 -0.12457205079E+04  0.12957057360E+04  0.12500000000E+03 0.  0.
         21    1    1    2  502  501  0.57691533751E+02 -0.12001178110E+03 -0.26053786164E+03  0.29259377645E+03  0.00000000000E+00 0.  1.
         21    1    1    2  503  502 -0.12120818741E+03  0.44769212115E+03 -0.12250309938E+04  0.13098933528E+04  0.00000000000E+00 0. -1.
<mgrwt>
<rscale>  4 0.82736547E+03</rscale>
<asrwt>0</asrwt>
<pdfrwt beam="1">  1        2 0.43303705E+00 0.82736547E+03</pdfrwt>
<pdfrwt beam="2">  1       -2 0.12838732E-01 0.82736547E+03</pdfrwt>
<totfact> 0.10706637E+02</totfact>
</mgrwt>
</event>
<event>
 5    0  0.2465569E-003  0.8917007E+03  0.7546771E-02  0.9436016E-01
         -1   -1    0    0    0  501 -0.00000000000E+00  0.00000000000E+00  0.14137782487E+04  0.14137782487E+04  0.00000000000E+00 0.  1.
          1   -1    0    0  503    0  0.00000000000E+00 -0.00000000000E+00 -0.16994294215E+03  0.16994294215E+03  0.00000000000E+00 0. -1.
         25    1    1    2    0    0  0.34955163606E+03 -0.29255980818E+02  0.97311140804E+03  0.10419275748E+04  0.12500000000E+03 0.  0.
         21    1    1    2  502  501 -0.40498179894E+03  0.23668839585E+02  0.26762281838E+03  0.48599634192E+03  0.00000000000E+00 0. -1.
         21    1    1    2  503  502  0.55430162883E+02  0.55871412333E+01  0.31010801529E+01  0.55797274149E+02  0.00000000000E+00 0. -1.
<mgrwt>
<rscale>  4 0.89170066E+03</rscale>
<asrwt>0</asrwt>
<pdfrwt beam="1">  1        1 0.26145069E-01 0.89170066E+03</pdfrwt>
<pdfrwt beam="2">  1       -1 0.21750434E+00 0.89170066E+03</pdfrwt>
<totfact> 0.21363113E+01</totfact>
</mgrwt>
</event>
<event>
 5    0  0.2465569E-003  0.1058269E+04  0.7546771E-02  0.9246848E-01
         -2   -1    0    0    0  501 -0.00000000000E+00  0.00000000000E+00  0.21854596566E+03  0.21854596566E+03  0.00000000000E+00 0. -1.
          2   -1    0    0  503    0  0.00000000000E+00 -0.00000000000E+00 -0.17764323260E+04  0.17764323260E+04  0.00000000000E+00 0.  1.
         25    1    1    2    0    0  0.20532391403E+03  0.36388366312E+03 -0.11027280345E+04  0.11858344522E+04  0.12500000000E+03 0.  0.
         21    1    1    2  502  501 -0.16535240712E+03  0.89034193379E+02 -0.24378980797E+03  0.30773686260E+03  0.00000000000E+00 0. -1.
         21    1    1    2  503  502 -0.39971506910E+02 -0.45291785650E+03 -0.21136851787E+03  0.50140697686E+03  0.00000000000E+00 0. -1.
<mgrwt>
<rscale>  4 0.10582693E+04</rscale>
<asrwt>0</asrwt>
<pdfrwt beam="1">  1        2 0.27329727E+00 0.10582693E+04</pdfrwt>
<pdfrwt beam="2">  1       -2 0.33622458E-01 0.10582693E+04</pdfrwt>
<totfact> 0.73290572E+01</totfact>
</mgrwt>
</event>
<event>
 5    0  0.2465569E-003  0.4147102E+03  0.7546771E-02  0.1038802E+00
          2   -1    0    0  502    0  0.00000000000E+00  0.00000000000E+00  0.65239633417E+03  0.65239633417E+03  0.00000000000E+00 0. -1.
         -2   -1    0    0    0  501 -0.00000000000E+00 -0.00000000000E+00 -0.10884436151E+03  0.10884436151E+03  0.00000000000E+00 0.  1.
         25    1    1    2    0    0 -0.14773093609E+03  0.16545022208E+03  0.23362269760E+03  0.34554705946E+03  0.12500000000E+03 0.  0.
         21    1    1    2  502  503  0.88208646856E+02 -0.10594558549E+03  0.30098535120E+03  0.33105500162E+03  0.00000000000E+00 0. -1.
         21    1    1    2  503  501  0.59522289237E+02 -0.59504636598E+02  0.89439238570E+01  0.84638634598E+02  0.00000000000E+00 0. -1.
<mgrwt>
<rscale>  4 0.41471024E+03</rscale>
<asrwt>0</asrwt>
<pdfrwt beam="1">  1        2 0.10036866E+00 0.41471024E+03</pdfrwt>
<pdfrwt beam="2">  1       -2 0.16745287E-01 0.41471024E+03</pdfrwt>
<totfact> 0.13027538E+03</totfact>
</mgrwt>
</event>
<event>
 5    0  0.2465569E-003  0.5742182E+03  0.7546771E-02  0.9960388E-01
          2   -1    0    0  502    0  0.00000000000E+00  0.00000000000E+00  0.18066934425E+03  0.18066934425E+03  0.00000000000E+00 0.  1.
         -2   -1    0    0    0  501 -0.00000000000E+00 -0.00000000000E+00 -0.60510790478E+03  0.60510790478E+03  0.00000000000E+00 0. -1.
         25    1    1    2    0    0 -0.28771866568E+03 -0.17441751748E+02 -0.19705108992E+03  0.37086436513E+03  0.12500000000E+03 0.  0.
         21    1    1    2  502  503  0.42604184290E+02 -0.61637510080E+02 -0.57967044534E+01  0.75152517925E+02  0.00000000000E+00 0.  1.
         21    1    1    2  503  501  0.24511448139E+03  0.79079261828E+02 -0.22159076616E+03  0.33976036597E+03  0.00000000000E+00 0. -1.
<mgrwt>
<rscale>  4 0.57421817E+03</rscale>
<asrwt>0</asrwt>
<pdfrwt beam="1">  1        2 0.27795284E-01 0.57421817E+03</pdfrwt>
<pdfrwt beam="2">  1       -2 0.93093523E-01 0.57421817E+03</pdfrwt>
<totfact> 0.19221748E+02</totfact>
</mgrwt>
</event>
<event>
 5    0  0.2465569E-003  0.9499873E+03  0.7546771E-02  0.9365165E-01
         -2   -1    0    0    0  501 -0.00000000000E+00  0.00000000000E+00  0.17650194596E+03  0.17650194596E+03  0.00000000000E+00 0.  1.
          2   -1    0    0  502    0  0.00000000000E+00 -0.00000000000E+00 -0.14947511637E+04  0.14947511637E+04  0.00000000000E+00 0. -1.
         25    1    1    2    0    0  0.13966387306E+03 -0.18319422143E+03  0.29762499704E+02  0.26377438578E+03  0.12500000000E+03 0.  0.
         21    1    1    2  502  503 -0.12666852624E+03  0.25938741660E+03 -0.12487109297E+04  0.12816418117E+04  0.00000000000E+00 0. -1.
         21    1    1    2  503  501 -0.12995346820E+02 -0.76193195170E+02 -0.99300787678E+02  0.12583691216E+03  0.00000000000E+00 0. -1.
<mgrwt>
<rscale>  4 0.94998734E+03</rscale>
<asrwt>0</asrwt>
<pdfrwt beam="1">  1        2 0.22996173E+00 0.94998734E+03</pdfrwt>
<pdfrwt beam="2">  1       -2 0.27154144E-01 0.94998734E+03</pdfrwt>
<totfact> 0.15778128E+02</totfact>
</mgrwt>
</event>
<event>
 5    0  0.2465569E-003  0.1487645E+04  0.7546771E-02  0.8892711E-01
          2   -1    0    0  502    0  0.00000000000E+00  0.00000000000E+00  0.12470625115E+04  0.12470625115E+04  0.00000000000E+00 0. -1.
         -2   -1    0    0    0  501 -0.00000000000E+00 -0.00000000000E+00 -0.57188765325E+03  0.57188765325E+03  0.00000000000E+00 0.  1.
         25    1    1    2    0    0  0.23103000103E+03  0.27892313197E+03  0.98125034596E+03  0.10533993622E+04  0.12500000000E+03 0.  0.
         21    1    1    2  502  503 -0.12165919328E+03 -0.12933191259E+03  0.17543682202E+03  0.24961126065E+03  0.00000000000E+00 0.  1.
         21    1    1    2  503  501 -0.10937080775E+03 -0.14959121938E+03 -0.48151230969E+03  0.51593954189E+03  0.00000000000E+00 0.  1.
<mgrwt>
<rscale>  4 0.14876446E+04</rscale>
<asrwt>0</asrwt>
<pdfrwt beam="1">  1        2 0.19185577E+00 0.14876446E+04</pdfrwt>
<pdfrwt beam="2">  1       -2 0.87982716E-01 0.14876446E+04</pdfrwt>
<totfact> 0.19034043E+01</totfact>
</mgrwt>
</event>
<event>
 5    0  0.2957743E-003  0.6895042E+03  0.7546771E-02  0.9735352E-01
          2   -1    0    0  503    0  0.00000000000E+00  0.00000000000E+00  0.85159857615E+03  0.85159857615E+03  0.00000000000E+00 0.  1.
         -2   -1    0    0    0  501 -0.00000000000E+00 -0.00000000000E+00 -0.19018092705E+03  0.19018092705E+03  0.00000000000E+00 0. -1.
         25    1    1    2    0    0 -0.21667318504E+03  0.81781474102E+02 -0.29465024002E+02  0.26481817585E+03  0.12500000000E+03 0.  0.
         21    1    1    2  502  501  0.10622855014E+03 -0.11511432847E+02  0.41679095645E+02  0.11469160809E+03  0.00000000000E+00 0.  1.
         21    1    1    2  503  502  0.11044463490E+03 -0.70270041254E+02  0.64920357745E+03  0.66226971926E+03  0.00000000000E+00 0.  1.
<mgrwt>
<rscale>  4 0.68950424E+03</rscale>
<asrwt>0</asrwt>
<pdfrwt beam="1">  1        2 0.13101516E+00 0.68950424E+03</pdfrwt>
<pdfrwt beam="2">  1       -2 0.29258604E-01 0.68950424E+03</pdfrwt>
<totfact> 0.34319835E+02</totfact>
</mgrwt>
</event>
<event>
 5    0  0.2465569E-003  0.7196358E+03  0.7546771E-02  0.9684229E-01
         -2   -1    0    0    0  501 -0.00000000000E+00  0.00000000000E+00  0.84064229525E+03  0.84064229525E+03  0.00000000000E+00 0.  1.
          2   -1    0    0  502    0  0.00000000000E+00 -0.00000000000E+00 -0.35441883088E+03  0.35441883088E+03  0.00000000000E+00 0. -1.
         25    1    1    2    0    0 -0.22216275013E+03  0.44304292686E+02 -0.80847268479E+01  0.25886197230E+03  0.12500000000E+03 0.  0.
         21    1    1    2  502  503  0.20064260284E+03 -0.39180377408E+03  0.21524392174E+03  0.48999754826E+03  0.00000000000E+00 0.  1.
         21    1    1    2  503  501  0.21520147298E+02  0.34749948139E+03  0.27906426948E+03  0.44620160556E+03  0.00000000000E+00 0.  1.
<mgrwt>
<rscale>  4 0.71963578E+03</rscale>
<asrwt>0</asrwt>
<pdfrwt beam="1">  1        2 0.54525974E-01 0.71963578E+03</pdfrwt>
<pdfrwt beam="2">  1       -2 0.12932958E+00 0.71963578E+03</pdfrwt>
<totfact> 0.40628696E+01</totfact>
</mgrwt>
</event>
<event>
 5    0  0.2465569E-003  0.5796362E+03  0.7546771E-02  0.9948579E-01
          2   -1    0    0  503    0  0.00000000000E+00  0.00000000000E+00  0.12719446008E+04  0.12719446008E+04  0.00000000000E+00 0.  1.
         -2   -1    0    0    0  501 -0.00000000000E+00 -0.00000000000E+00 -0.16965954653E+03  0.16965954653E+03  0.00000000000E+00 0. -1.
         25    1    1    2    0    0  0.92520983804E+02 -0.17898363717E+03  0.77202646138E+02  0.24936022816E+03  0.12500000000E+03 0.  0.
         21    1    1    2  502  501  0.21832217073E+03  0.15028738608E+03  0.66391767794E+03  0.71486890528E+03  0.00000000000E+00 0. -1.
         21    1    1    2  503  502 -0.31084315453E+03  0.28696251095E+02  0.36116473015E+03  0.47737501385E+03  0.00000000000E+00 0.  1.
<mgrwt>
<rscale>  4 0.57963623E+03</rscale>
<asrwt>0</asrwt>
<pdfrwt beam="1">  1        2 0.19568378E+00 0.57963623E+03</pdfrwt>
<pdfrwt beam="2">  1       -2 0.26101469E-01 0.57963623E+03</pdfrwt>
<totfact> 0.23302505E+02</totfact>
</mgrwt>
</event>
<event>
 5    0  0.2465569E-003  0.5828090E+03  0.7546771E-02  0.9941728E-01
         -2   -1    0    0    0  501 -0.00000000000E+00  0.00000000000E+00  0.51190850108E+02  0.51190850108E+02  0.00000000000E+00 0. -1.
          2   -1    0    0  503    0  0.00000000000E+00 -0.00000000000E+00 -0.22704843582E+04  0.22704843582E+04  0.00000000000E+00 0.  1.
         25    1    1    2    0    0  0.92689447447E+02  0.24309459195E+03 -0.13789699299E+04  0.14088539249E+04  0.12500000000E+03 0.  0.
         21    1    1    2  502  501 -0.23826919938E+02 -0.21684322224E+03 -0.31987294619E+03  0.38717877893E+03  0.00000000000E+00 0. -1.
         21    1    1    2  503  502 -0.68862527508E+02 -0.26251369702E+02 -0.52045063205E+03  0.52564250447E+03  0.00000000000E+00 0. -1.
<mgrwt>
<rscale>  4 0.58280902E+03</rscale>
<asrwt>0</asrwt>
<pdfrwt beam="1">  1        2 0.34930525E+00 0.58280902E+03</pdfrwt>
<pdfrwt beam="2">  1       -2 0.78755162E-02 0.58280902E+03</pdfrwt>
<totfact> 0.49707142E+02</totfact>
</mgrwt>
</event>
<event>
 5    0  0.2465569E-003  0.5008817E+03  0.7546771E-02  0.1013549E+00
         -2   -1    0    0    0  501 -0.00000000000E+00  0.00000000000E+00  0.96482633813E+02  0.96482633813E+02  0.00000000000E+00 0. -1.
          2   -1    0    0  503    0  0.00000000000E+00 -0.00000000000E+00 -0.99122851116E+03  0.99122851116E+03  0.00000000000E+00 0.  1.
         25    1    1    2    0    0  0.20986227384E+03 -0.28577881504E+02 -0.35362016377E+03  0.43073319992E+03  0.12500000000E+03 0.  0.
         21    1    1    2  502  501 -0.21390854767E+03  0.13569477511E+03 -0.29701547181E+03  0.39036922171E+03  0.00000000000E+00 0.  1.
         21    1    1    2  503  502  0.40462738260E+01 -0.10711689361E+03 -0.24411024176E+03  0.26660872334E+03  0.00000000000E+00 0. -1.
<mgrwt>
<rscale>  4 0.50088168E+03</rscale>
<asrwt>0</asrwt>
<pdfrwt beam="1">  1        2 0.15249669E+00 0.50088168E+03</pdfrwt>
<pdfrwt beam="2">  1       -2 0.14843482E-01 0.50088168E+03</pdfrwt>
<totfact> 0.92043719E+02</totfact>
</mgrwt>
</event>
<event>
 5    0  0.2465569E-003  0.7220204E+03  0.7546771E-02  0.9680298E-01
         -2   -1    0    0    0  501 -0.00000000000E+00  0.00000000000E+00  0.30615707923E+03  0.30615707923E+03  0.00000000000E+00 0.  1.
          2   -1    0    0  503    0  0.00000000000E+00 -0.00000000000E+00 -0.61480459825E+03  0.61480459825E+03  0.00000000000E+00 0. -1.
         25    1    1    2    0    0  0.22081627945E+03 -0.28238745848E+03 -0.23408914738E+03  0.44601035291E+03  0.12500000000E+03 0.  0.
         21    1    1    2  502  501 -0.80340717492E+02  0.31453628976E+03 -0.43514499942E+02  0.32753812018E+03  0.00000000000E+00 0.  1.
         21    1    1    2  503  502 -0.14047556196E+03 -0.32148831278E+02 -0.31043871696E+02  0.14741320439E+03  0.00000000000E+00 0.  1.
<mgrwt>
<rscale>  4 0.72202040E+03</rscale>
<asrwt>0</asrwt>
<pdfrwt beam="1">  1        2 0.94585322E-01 0.72202040E+03</pdfrwt>
<pdfrwt beam="2">  1       -2 0.47101090E-01 0.72202040E+03</pdfrwt>
<totfact> 0.20788331E+02</totfact>
</mgrwt>
</event>
<event>
 5    0  0.2465569E-003  0.1219335E+04  0.7546771E-02  0.9096099E-01
          2   -1    0    0  502    0  0.00000000000E+00  0.00000000000E+00  0.22889561121E+04  0.22889561121E+04  0.00000000000E+00 0. -1.
         -2   -1    0    0    0  501 -0.00000000000E+00 -0.00000000000E+00 -0.23167111739E+03  0.23167111739E+03  0.00000000000E+00 0.  1.
         25    1    1    2    0    0 -0.40906544034E+03 -0.29323896119E+02  0.13292685773E+03  0.44887523308E+03  0.12500000000E+03 0.  0.
         21    1    1    2  502  503  0.27474594335E+03  0.16423126674E+01  0.19146540694E+04  0.19342668471E+04  0.00000000000E+00 0. -1.
         21    1    1    2  503  501  0.13431949699E+03  0.27681583452E+02  0.97040675852E+01  0.13748514924E+03  0.00000000000E+00 0. -1.
<mgrwt>
<rscale>  4 0.12193353E+04</rscale>
<asrwt>0</asrwt>
<pdfrwt beam="1">  1        2 0.35214708E+00 0.12193353E+04</pdfrwt>
<pdfrwt beam="2">  1       -2 0.35641712E-01 0.12193353E+04</pdfrwt>
<totfact> 0.33628911E+01</totfact>
</mgrwt>
</event>
<event>
 5    0  0.2465569E-003  0.8314269E+03  0.7546771E-02  0.9515610E-01
          2   -1    0    0  503    0  0.00000000000E+00  0.00000000000E+00  0.16580131965E+04  0.16580131965E+04  0.00000000000E+00 0.  1.
         -2   -1    0    0    0  501 -0.00000000000E+00 -0.00000000000E+00 -0.14234516920E+03  0.14234516920E+03  0.00000000000E+00 0. -1.
         25    1    1    2    0    0 -0.21966629305E+03  0.27673962956E+03  0.21898393118E+03  0.43407034566E+03  0.12500000000E+03 0.  0.
         21    1    1    2  502  501 -0.44330441483E+02 -0.10904983863E+03  0.34465197625E+03  0.36420054926E+03  0.00000000000E+00 0.  1.
         21    1    1    2  503  502  0.26399673453E+03 -0.16768979092E+03  0.95203211984E+03  0.10020874707E+04  0.00000000000E+00 0. -1.
<mgrwt>
<rscale>  4 0.83142690E+03</rscale>
<asrwt>0</asrwt>
<pdfrwt beam="1">  1        2 0.25507894E+00 0.83142690E+03</pdfrwt>
<pdfrwt beam="2">  1       -2 0.21899258E-01 0.83142690E+03</pdfrwt>
<totfact> 0.19022253E+02</totfact>
</mgrwt>
</event>
<event>
 5    0  0.2465569E-003  0.1242390E+04  0.7546771E-02  0.9076541E-01
         -1   -1    0    0    0  501 -0.00000000000E+00  0.00000000000E+00  0.54193318425E+03  0.54193318425E+03  0.00000000000E+00 0. -1.
          1   -1    0    0  502    0  0.00000000000E+00 -0.00000000000E+00 -0.10894056395E+04  0.10894056395E+04  0.00000000000E+00 0.  1.
         25    1    1    2    0    0  0.23131516557E+03  0.49699356563E+03 -0.36456570607E+03  0.67010630809E+03  0.12500000000E+03 0.  0.
         21    1    1    2  502  503 -0.73135875188E+02  0.35633569473E+02 -0.36700058993E+03  0.37590961749E+03  0.00000000000E+00 0.  1.
         21    1    1    2  503  501 -0.15817929039E+03 -0.53262713510E+03  0.18409384072E+03  0.58532289819E+03  0.00000000000E+00 0.  1.
<mgrwt>
<rscale>  4 0.12423898E+04</rscale>
<asrwt>0</asrwt>
<pdfrwt beam="1">  1        1 0.16760086E+00 0.12423898E+04</pdfrwt>
<pdfrwt beam="2">  1       -1 0.83374338E-01 0.12423898E+04</pdfrwt>
<totfact> 0.18130740E+01</totfact>
</mgrwt>
</event>
<event>
 5    0  0.2465569E-003  0.7877118E+03  0.7546771E-02  0.9577976E-01
         -2   -1    0    0    0  501 -0.00000000000E+00  0.00000000000E+00  0.13512389087E+03  0.13512389087E+03  0.00000000000E+00 0.  1.
          2   -1    0    0  503    0  0.00000000000E+00 -0.00000000000E+00 -0.21354411085E+04  0.21354411085E+04  0.00000000000E+00 0. -1.
         25    1    1    2    0    0  0.16772297520E+03 -0.22700194660E+03 -0.95778308637E+03  0.10062973322E+04  0.12500000000E+03 0.  0.
         21    1    1    2  502  501 -0.70499814061E+02 -0.22014093349E+03 -0.20078697322E+03  0.30618240151E+03  0.00000000000E+00 0.  1.
         21    1    1    2  503  502 -0.97223161140E+02  0.44714288009E+03 -0.84174715806E+03  0.95808526571E+03  0.00000000000E+00 0.  1.
<mgrwt>
<rscale>  4 0.78771181E+03</rscale>
<asrwt>0</asrwt>
<pdfrwt beam="1">  1        2 0.32852942E+00 0.78771181E+03</pdfrwt>
<pdfrwt beam="2">  1       -2 0.20788290E-01 0.78771181E+03</pdfrwt>
<totfact> 0.11466489E+02</totfact>
</mgrwt>
</event>
<event>
 5    0  0.2465569E-003  0.5564865E+03  0.7546771E-02  0.1000004E+00
         -2   -1    0    0    0  501 -0.00000000000E+00  0.00000000000E+00  0.19665746620E+03  0.19665746620E+03  0.00000000000E+00 0. -1.
          2   -1    0    0  502    0  0.00000000000E+00 -0.00000000000E+00 -0.88373817699E+03  0.88373817699E+03  0.00000000000E+00 0.  1.
         25    1    1    2    0    0 -0.23371590117E+03 -0.21737972841E+01 -0.22901139916E+02  0.26604005350E+03  0.12500000000E+03 0.  0.
         21    1    1    2  502  503  0.10450887933E+03 -0.19967953245E+03 -0.38780570565E+03  0.44853905836E+03  0.00000000000E+00 0.  1.
         21    1    1    2  503  501  0.12920702184E+03  0.20185332973E+03 -0.27637386523E+03  0.36581653134E+03  0.00000000000E+00 0.  1.
<mgrwt>
<rscale>  4 0.55648649E+03</rscale>
<asrwt>0</asrwt>
<pdfrwt beam="1">  1        2 0.13595972E+00 0.55648649E+03</pdfrwt>
<pdfrwt beam="2">  1       -2 0.30254995E-01 0.55648649E+03</pdfrwt>
<totfact> 0.30885891E+02</totfact>
</mgrwt>
</event>
<event>
 5    0  0.2465569E-003  0.8413490E+03  0.7546771E-02  0.9502022E-01
          1   -1    0    0  503    0  0.00000000000E+00  0.00000000000E+00  0.27058173243E+04  0.27058173243E+04  0.00000000000E+00 0.  1.
         -1   -1    0    0    0  501 -0.00000000000E+00 -0.00000000000E+00 -0.10378589443E+03  0.10378589443E+03  0.00000000000E+00 0. -1.
         25    1    1    2    0    0  0.14560680649E+03  0.28261735260E+03  0.11686859720E+04  0.12175901656E+04  0.12500000000E+03 0.  0.
         21    1    1    2  502  501 -0.16864196000E+03 -0.37631180804E+03  0.47585447259E+03  0.62967306328E+03  0.00000000000E+00 0. -1.
         21    1    1    2  503  502  0.23035153514E+02  0.93694455443E+02  0.95749098527E+03  0.96233998990E+03  0.00000000000E+00 0. -1.
<mgrwt>
<rscale>  4 0.84134901E+03</rscale>
<asrwt>0</asrwt>
<pdfrwt beam="1">  1        1 0.41627953E+00 0.84134901E+03</pdfrwt>
<pdfrwt beam="2">  1       -1 0.15967063E-01 0.84134901E+03</pdfrwt>
<totfact> 0.29948187E+01</totfact>
</mgrwt>
</event>
<event>
 5    0  0.2465569E-003  0.5192196E+03  0.7546771E-02  0.1008881E+00
          1   -1    0    0  502    0  0.00000000000E+00  0.00000000000E+00  0.19954491975E+04  0.19954491975E+04  0.00000000000E+00 0. -1.
         -1   -1    0    0    0  501 -0.00000000000E+00 -0.00000000000E+00 -0.72240838902E+02  0.72240838902E+02  0.00000000000E+00 0.  1.
         25    1    1    2    0    0 -0.14472608620E+03 -0.16141339665E+03  0.85299306036E+03  0.88894436590E+03  0.12500000000E+03 0.  0.
         21    1    1    2  502  503  0.27076264124E+02  0.90356327043E+02  0.10317069726E+04  0.10360099745E+04  0.00000000000E+00 0.  1.
         21    1    1    2  503  501  0.11764982208E+03  0.71057069607E+02  0.38508325647E+02  0.14273569603E+03  0.00000000000E+00 0.  1.
<mgrwt>
<rscale>  4 0.51921963E+03</rscale>
<asrwt>0</asrwt>
<pdfrwt beam="1">  1        1 0.30699214E+00 0.51921963E+03</pdfrwt>
<pdfrwt beam="2">  1       -1 0.11113977E-01 0.51921963E+03</pdfrwt>
<totfact> 0.16879716E+02</totfact>
</mgrwt>
</event>
<event>
 5    0  0.2465569E-003  0.8438587E+03  0.7546771E-02  0.9498617E-01
         -2   -1    0    0    0  501 -0.00000000000E+00  0.00000000000E+00  0.17588224481E+03  0.17588224481E+03  0.00000000000E+00 0.  1.
          2   -1    0    0  503    0  0.00000000000E+00 -0.00000000000E+00 -0.16599232374E+04  0.16599232374E+04  0.00000000000E+00 0. -1.
         25    1    1    2    0    0  0.15661927390E+03 -0.16359580614E+03 -0.58223657073E+02  0.26515689504E+03  0.12500000000E+03 0.  0.
         21    1    1    2  502  501 -0.14836133835E+03 -0.13146045673E+03 -0.11963192623E+03  0.23152696641E+03  0.00000000000E+00 0. -1.
         21    1    1    2  503  502 -0.82579355455E+01  0.29505626287E+03 -0.13061854093E+04  0.13391216207E+04  0.00000000000E+00 0.  1.
<mgrwt>
<rscale>  4 0.84385867E+03</rscale>
<asrwt>0</asrwt>
<pdfrwt beam="1">  1        2 0.25537281E+00 0.84385867E+03</pdfrwt>
<pdfrwt beam="2">  1       -2 0.27058807E-01 0.84385867E+03</pdfrwt>
<totfact> 0.12951508E+02</totfact>
</mgrwt>
</event>
<event>
 5    0  0.2465569E-003  0.1248545E+04  0.7546771E-02  0.9071395E-01
          1   -1    0    0  502    0  0.00000000000E+00  0.00000000000E+00  0.11777260880E+04  0.11777260880E+04  0.00000000000E+00 0. -1.
         -1   -1    0    0    0  501 -0.00000000000E+00 -0.00000000000E+00 -0.39032870141E+03  0.39032870141E+03  0.00000000000E+00 0.  1.
         25    1    1    2    0    0 -0.29864155373E+03 -0.38582838018E+03 -0.51025189113E+02  0.50623994952E+03  0.12500000000E+03 0.  0.
         21    1    1    2  502  503  0.29055919065E+03  0.34669064151E+03  0.88893284641E+03  0.99740696289E+03  0.00000000000E+00 0. -1.
         21    1    1    2  503  501  0.80823630787E+01  0.39137738674E+02 -0.50510270675E+02  0.64407877042E+02  0.00000000000E+00 0. -1.
<mgrwt>
<rscale>  4 0.12485451E+04</rscale>
<asrwt>0</asrwt>
<pdfrwt beam="1">  1        1 0.18118863E+00 0.12485451E+04</pdfrwt>
<pdfrwt beam="2">  1       -1 0.60050570E-01 0.12485451E+04</pdfrwt>
<totfact> 0.30733640E+01</totfact>
</mgrwt>
</event>
<event>
 5    0  0.2465569E-003  0.5369551E+03  0.7546771E-02  0.1004559E+00
         -2   -1    0    0    0  501 -0.00000000000E+00  0.00000000000E+00  0.14813056782E+03  0.14813056782E+03  0.00000000000E+00 0.  1.
          2   -1    0    0  502    0  0.00000000000E+00 -0.00000000000E+00 -0.12743879621E+04  0.12743879621E+04  0.00000000000E+00 0. -1.
         25    1    1    2    0    0  0.20991445648E+03  0.10990693285E+03 -0.60317187781E+03  0.65998858105E+03  0.12500000000E+03 0.  0.
         21    1    1    2  502  503 -0.15715622777E+03 -0.21817535356E+03 -0.57238273310E+03  0.63239272448E+03  0.00000000000E+00 0. -1.
         21    1    1    2  503  501 -0.52758228714E+02  0.10826842071E+03  0.49297216588E+02  0.13013722443E+03  0.00000000000E+00 0.  1.
<mgrwt>
<rscale>  4 0.53695512E+03</rscale>
<asrwt>0</asrwt>
<pdfrwt beam="1">  1        2 0.19605970E+00 0.53695512E+03</pdfrwt>
<pdfrwt beam="2">  1       -2 0.22789317E-01 0.53695512E+03</pdfrwt>
<totfact> 0.29713950E+02</totfact>
</mgrwt>
</event>
<event>
 5    0  0.2465569E-003  0.5202526E+03  0.7546771E-02  0.1008624E+00
          1   -1    0    0  502    0  0.00000000000E+00  0.00000000000E+00  0.22705167786E+03  0.22705167786E+03  0.00000000000E+00 0. -1.
         -1   -1    0    0    0  501 -0.00000000000E+00 -0.00000000000E+00 -0.63267344053E+03  0.63267344053E+03  0.00000000000E+00 0.  1.
         25    1    1    2    0    0  0.51823764671E+02  0.31099398030E+03 -0.34724592199E+03  0.48539436410E+03  0.12500000000E+03 0.  0.
         21    1    1    2  502  503 -0.18553422945E+02 -0.13600954445E+03  0.70655840026E+02  0.15438611794E+03  0.00000000000E+00 0. -1.
         21    1    1    2  503  501 -0.33270341726E+02 -0.17498443585E+03 -0.12903168070E+03  0.21994463634E+03  0.00000000000E+00 0. -1.
<mgrwt>
<rscale>  4 0.52025258E+03</rscale>
<asrwt>0</asrwt>
<pdfrwt beam="1">  1        1 0.34931028E-01 0.52025258E+03</pdfrwt>
<pdfrwt beam="2">  1       -1 0.97334375E-01 0.52025258E+03</pdfrwt>
<totfact> 0.13149259E+02</totfact>
</mgrwt>
</event>
<event>
 5    0  0.2465569E-003  0.8425062E+03  0.7546771E-02  0.9500450E-01
          2   -1    0    0  503    0  0.00000000000E+00  0.00000000000E+00  0.18465418432E+04  0.18465418432E+04  0.00000000000E+00 0.  1.
         -2   -1    0    0    0  501 -0.00000000000E+00 -0.00000000000E+00 -0.11651445423E+03  0.11651445423E+03  0.00000000000E+00 0. -1.
         25    1    1    2    0    0  0.52386350768E+02  0.22832762273E+03  0.14359937548E+04  0.14603358849E+04  0.12500000000E+03 0.  0.
         21    1    1    2  502  501 -0.13302835981E+03 -0.22638022935E+03  0.80776317395E+02  0.27471688373E+03  0.00000000000E+00 0. -1.
         21    1    1    2  503  502  0.80642009045E+02 -0.19473933719E+01  0.21325731681E+03  0.22800352878E+03  0.00000000000E+00 0. -1.
<mgrwt>
<rscale>  4 0.84250618E+03</rscale>
<asrwt>0</asrwt>
<pdfrwt beam="1">  1        2 0.28408334E+00 0.84250618E+03</pdfrwt>
<pdfrwt beam="2">  1       -2 0.17925302E-01 0.84250618E+03</pdfrwt>
<totfact> 0.21273593E+02</totfact>
</mgrwt>
</event>
<event>
 5    0  0.2465569E-003  0.6512090E+03  0.7546771E-02  0.9804513E-01
          2   -1    0    0  503    0  0.00000000000E+00  0.00000000000E+00  0.10763311783E+04  0.10763311783E+04  0.00000000000E+00 0.  1.
         -2   -1    0    0    0  501 -0.00000000000E+00 -0.00000000000E+00 -0.15974551877E+03  0.15974551877E+03  0.00000000000E+00 0. -1.
         25    1    1    2    0    0 -0.25639921579E+03  0.15962505004E+03  0.36950729844E+03  0.49333696199E+03  0.12500000000E+03 0.  0.
         21    1    1    2  502  501 -0.67829236343E+02 -0.16282284942E+03  0.16386381042E+03  0.24075596350E+03  0.00000000000E+00 0.  1.
         21    1    1    2  503  502  0.32422845213E+03  0.31977993746E+01  0.38321455069E+03  0.50198377161E+03  0.00000000000E+00 0. -1.
<mgrwt>
<rscale>  4 0.65120901E+03</rscale>
<asrwt>0</asrwt>
<pdfrwt beam="1">  1        2 0.16558941E+00 0.65120901E+03</pdfrwt>
<pdfrwt beam="2">  1       -2 0.24576234E-01 0.65120901E+03</pdfrwt>
<totfact> 0.33759877E+02</totfact>
</mgrwt>
</event>
<event>
 5    0  0.2465569E-003  0.6028067E+03  0.7546771E-02  0.9899600E-01
         -4   -1    0    0    0  501 -0.00000000000E+00  0.00000000000E+00  0.15892798740E+03  0.15892798740E+03  0.00000000000E+00 0.  1.
          4   -1    0    0  502    0  0.00000000000E+00 -0.00000000000E+00 -0.13385885025E+04  0.13385885025E+04  0.00000000000E+00 0. -1.
         25    1    1    2    0    0  0.96481508987E+02  0.18098710584E+03 -0.25662561460E+03  0.35149213380E+03  0.12500000000E+03 0.  0.
         21    1    1    2  502  503  0.32733866817E+02 -0.30877770315E+03 -0.91261504586E+03  0.96399242628E+03  0.00000000000E+00 0. -1.
         21    1    1    2  503  501 -0.12921537580E+03  0.12779059730E+03 -0.10419854643E+02  0.18203192982E+03  0.00000000000E+00 0.  1.
<mgrwt>
<rscale>  4 0.60280669E+03</rscale>
<asrwt>0</asrwt>
<pdfrwt beam="1">  1        4 0.20593670E+00 0.60280669E+03</pdfrwt>
<pdfrwt beam="2">  1       -4 0.24450459E-01 0.60280669E+03</pdfrwt>
<totfact> 0.38139484E+00</totfact>
</mgrwt>
</event>
<event>
 5    0  0.2465569E-003  0.1066867E+04  0.7546771E-02  0.9238102E-01
          2   -1    0    0  502    0  0.00000000000E+00  0.00000000000E+00  0.18034068543E+04  0.18034068543E+04  0.00000000000E+00 0.  1.
         -2   -1    0    0    0  501 -0.00000000000E+00 -0.00000000000E+00 -0.28481363444E+03  0.28481363444E+03  0.00000000000E+00 0. -1.
         25    1    1    2    0    0  0.29364613009E+03 -0.49557387453E+02  0.20922147578E+01  0.32297579124E+03  0.12500000000E+03 0.  0.
         21    1    1    2  502  503 -0.11780245804E+03  0.26364306616E+03  0.14524707038E+04  0.14808971034E+04  0.00000000000E+00 0.  1.
         21    1    1    2  503  501 -0.17584367204E+03 -0.21408567871E+03  0.64030301390E+02  0.28434759419E+03  0.00000000000E+00 0.  1.
<mgrwt>
<rscale>  4 0.10668665E+04</rscale>
<asrwt>0</asrwt>
<pdfrwt beam="1">  1        2 0.27744720E+00 0.10668665E+04</pdfrwt>
<pdfrwt beam="2">  1       -2 0.43817483E-01 0.10668665E+04</pdfrwt>
<totfact> 0.42265210E+01</totfact>
</mgrwt>
</event>
<event>
 5    0  0.2465569E-003  0.8283576E+03  0.7546771E-02  0.9519854E-01
          1   -1    0    0  502    0  0.00000000000E+00  0.00000000000E+00  0.14616862349E+04  0.14616862349E+04  0.00000000000E+00 0. -1.
         -1   -1    0    0    0  501 -0.00000000000E+00 -0.00000000000E+00 -0.21841873129E+03  0.21841873129E+03  0.00000000000E+00 0.  1.
         25    1    1    2    0    0  0.30031423693E+03 -0.22064210525E+03  0.38073834582E+03  0.54722780219E+03  0.12500000000E+03 0.  0.
         21    1    1    2  502  503  0.41977899489E+02 -0.18376783964E+02  0.67270301646E+03  0.67426196585E+03  0.00000000000E+00 0. -1.
         21    1    1    2  503  501 -0.34229213642E+03  0.23901888922E+03  0.18982614137E+03  0.45861519818E+03  0.00000000000E+00 0.  1.
<mgrwt>
<rscale>  4 0.82835760E+03</rscale>
<asrwt>0</asrwt>
<pdfrwt beam="1">  1        1 0.22487480E+00 0.82835760E+03</pdfrwt>
<pdfrwt beam="2">  1       -1 0.33602883E-01 0.82835760E+03</pdfrwt>
<totfact> 0.59120072E+01</totfact>
</mgrwt>
</event>
<event>
 5    0  0.2465569E-003  0.5028336E+03  0.7546771E-02  0.1013042E+00
         -3   -1    0    0    0  501 -0.00000000000E+00  0.00000000000E+00  0.10125885543E+04  0.10125885543E+04  0.00000000000E+00 0.  1.
          3   -1    0    0  503    0  0.00000000000E+00 -0.00000000000E+00 -0.16513614492E+03  0.16513614492E+03  0.00000000000E+00 0. -1.
         25    1    1    2    0    0 -0.86382148654E+02 -0.25279736340E+03  0.19080685607E+03  0.35128427074E+03  0.12500000000E+03 0.  0.
         21    1    1    2  502  501 -0.97320316061E+02  0.16219585824E+03  0.57607467067E+03  0.60633387382E+03  0.00000000000E+00 0.  1.
         21    1    1    2  503  502  0.18370246471E+03  0.90601505161E+02  0.80570882660E+02  0.22010655468E+03  0.00000000000E+00 0.  1.
<mgrwt>
<rscale>  4 0.50283357E+03</rscale>
<asrwt>0</asrwt>
<pdfrwt beam="1">  1        3 0.25405561E-01 0.50283357E+03</pdfrwt>
<pdfrwt beam="2">  1       -3 0.15578285E+00 0.50283357E+03</pdfrwt>
<totfact> 0.11365280E+01</totfact>
</mgrwt>
</event>
<event>
 5    0  0.2465569E-003  0.6471289E+03  0.7546771E-02  0.9812182E-01
          1   -1    0    0  502    0  0.00000000000E+00  0.00000000000E+00  0.88442345633E+03  0.88442345633E+03  0.00000000000E+00 0. -1.
         -1   -1    0    0    0  501 -0.00000000000E+00 -0.00000000000E+00 -0.15308499548E+03  0.15308499548E+03  0.00000000000E+00 0.  1.
         25    1    1    2    0    0 -0.31985138625E+03  0.64189865235E+02  0.29575264532E+03  0.45773341073E+03  0.12500000000E+03 0.  0.
         21    1    1    2  502  503  0.24868721907E+02 -0.82346033841E+02  0.11697328726E+03  0.14519666853E+03  0.00000000000E+00 0. -1.
         21    1    1    2  503  501  0.29498266434E+03  0.18156168606E+02  0.31861252828E+03  0.43457837256E+03  0.00000000000E+00 0.  1.
<mgrwt>
<rscale>  4 0.64712885E+03</rscale>
<asrwt>0</asrwt>
<pdfrwt beam="1">  1        1 0.13606514E+00 0.64712885E+03</pdfrwt>
<pdfrwt beam="2">  1       -1 0.23551538E-01 0.64712885E+03</pdfrwt>
<totfact> 0.29538724E+02</totfact>
</mgrwt>
</event>
<event>
 5    0  0.2465569E-003  0.7798270E+03  0.7546771E-02  0.9589685E-01
          2   -1    0    0  502    0  0.00000000000E+00  0.00000000000E+00  0.26700159758E+03  0.26700159758E+03  0.00000000000E+00 0. -1.
         -2   -1    0    0    0  501 -0.00000000000E+00 -0.00000000000E+00 -0.68249543192E+03  0.68249543192E+03  0.00000000000E+00 0.  1.
         25    1    1    2    0    0  0.42215534526E+02 -0.23504085945E+03 -0.49241097641E+03  0.56135543701E+03  0.12500000000E+03 0.  0.
         21    1    1    2  502  503  0.23018674440E+02  0.26259446205E+03  0.13536079747E+03  0.29632457941E+03  0.00000000000E+00 0. -1.
         21    1    1    2  503  501 -0.65234208966E+02 -0.27553602593E+02 -0.58443655399E+02  0.91817013084E+02  0.00000000000E+00 0. -1.
<mgrwt>
<rscale>  4 0.77982702E+03</rscale>
<asrwt>0</asrwt>
<pdfrwt beam="1">  1        2 0.41077169E-01 0.77982702E+03</pdfrwt>
<pdfrwt beam="2">  1       -2 0.10499930E+00 0.77982702E+03</pdfrwt>
<totfact> 0.92666561E+01</totfact>
</mgrwt>
</event>
<event>
 5    0  0.2465569E-003  0.1122521E+04  0.7546771E-02  0.9183515E-01
          1   -1    0    0  502    0  0.00000000000E+00  0.00000000000E+00  0.48334963017E+03  0.48334963017E+03  0.00000000000E+00 0. -1.
         -1   -1    0    0    0  501 -0.00000000000E+00 -0.00000000000E+00 -0.11310260384E+04  0.11310260384E+04  0.00000000000E+00 0.  1.
         25    1    1    2    0    0 -0.30805747946E+03  0.27476174017E+03 -0.22722972615E+03  0.48749540814E+03  0.12500000000E+03 0.  0.
         21    1    1    2  502  503  0.36450637813E+03 -0.58641107732E+03 -0.42377803531E+03  0.81014237916E+03  0.00000000000E+00 0.  1.
         21    1    1    2  503  501 -0.56448898673E+02  0.31164933715E+03  0.33313532457E+01  0.31673788126E+03  0.00000000000E+00 0. -1.
<mgrwt>
<rscale>  4 0.11225207E+04</rscale>
<asrwt>0</asrwt>
<pdfrwt beam="1">  1        1 0.74361482E-01 0.11225207E+04</pdfrwt>
<pdfrwt beam="2">  1       -1 0.17400400E+00 0.11225207E+04</pdfrwt>
<totfact> 0.10607550E+01</totfact>
</mgrwt>
</event>
<event>
 5    0  0.2465569E-003  0.1822874E+04  0.7546771E-02  0.8694229E-01
          1   -1    0    0  503    0  0.00000000000E+00  0.00000000000E+00  0.20759808184E+04  0.20759808184E+04  0.00000000000E+00 0.  1.
         -1   -1    0    0    0  501 -0.00000000000E+00 -0.00000000000E+00 -0.71505661335E+03  0.71505661335E+03  0.00000000000E+00 0. -1.
         25    1    1    2    0    0 -0.63341976224E+03 -0.27144110554E+03  0.55655946834E+03  0.89458611144E+03  0.12500000000E+03 0.  0.
         21    1    1    2  502  501 -0.20966076294E+03 -0.46853452262E+03 -0.47603534176E+01  0.51332727900E+03  0.00000000000E+00 0. -1.
         21    1    1    2  503  502  0.84308052518E+03  0.73997562816E+03  0.80912509014E+03  0.13831240413E+04  0.00000000000E+00 0. -1.
<mgrwt>
<rscale>  4 0.18228739E+04</rscale>
<asrwt>0</asrwt>
<pdfrwt beam="1">  1        1 0.31938166E+00 0.18228739E+04</pdfrwt>
<pdfrwt beam="2">  1       -1 0.11000871E+00 0.18228739E+04</pdfrwt>
<totfact> 0.18765331E+00</totfact>
</mgrwt>
</event>
<event>
 5    0  0.2465569E-003  0.6200409E+03  0.7546771E-02  0.9864678E-01
          2   -1    0    0  503    0  0.00000000000E+00  0.00000000000E+00  0.57790048439E+03  0.57790048439E+03  0.00000000000E+00 0.  1.
         -2   -1    0    0    0  501 -0.00000000000E+00 -0.00000000000E+00 -0.21564500440E+03  0.21564500440E+03  0.00000000000E+00 0. -1.
         25    1    1    2    0    0 -0.96458794256E+02  0.24165476150E+03  0.10349263998E+03  0.30665460909E+03  0.12500000000E+03 0.  0.
         21    1    1    2  502  501  0.72349333707E+02 -0.32036969590E+03  0.18868305625E+03  0.37877759154E+03  0.00000000000E+00 0.  1.
         21    1    1    2  503  502  0.24109460549E+02  0.78714934402E+02  0.70079783750E+02  0.10811328816E+03  0.00000000000E+00 0. -1.
<mgrwt>
<rscale>  4 0.62004086E+03</rscale>
<asrwt>0</asrwt>
<pdfrwt beam="1">  1        2 0.88907766E-01 0.62004086E+03</pdfrwt>
<pdfrwt beam="2">  1       -2 0.33176155E-01 0.62004086E+03</pdfrwt>
<totfact> 0.44429840E+02</totfact>
</mgrwt>
</event>
<event>
 5    0  0.2465569E-003  0.7593165E+03  0.7546771E-02  0.9620846E-01
          1   -1    0    0  502    0  0.00000000000E+00  0.00000000000E+00  0.74316956689E+03  0.74316956689E+03  0.00000000000E+00 0. -1.
         -1   -1    0    0    0  501 -0.00000000000E+00 -0.00000000000E+00 -0.43468579736E+03  0.43468579736E+03  0.00000000000E+00 0.  1.
         25    1    1    2    0    0  0.12870814945E+03 -0.17846000996E+03  0.23041066161E+03  0.34223944231E+03  0.12500000000E+03 0.  0.
         21    1    1    2  502  503 -0.16519505099E+02 -0.63544746712E+02  0.40692179414E+03  0.41218463755E+03  0.00000000000E+00 0. -1.
         21    1    1    2  503  501 -0.11218864435E+03  0.24200475667E+03 -0.32884868622E+03  0.42343128439E+03  0.00000000000E+00 0.  1.
<mgrwt>
<rscale>  4 0.75931655E+03</rscale>
<asrwt>0</asrwt>
<pdfrwt beam="1">  1        1 0.11433378E+00 0.75931655E+03</pdfrwt>
<pdfrwt beam="2">  1       -1 0.66874738E-01 0.75931655E+03</pdfrwt>
<totfact> 0.57460524E+01</totfact>
</mgrwt>
</event>
<event>
 5    0  0.2465569E-003  0.1162964E+04  0.7546771E-02  0.9145906E-01
          2   -1    0    0  502    0  0.00000000000E+00  0.00000000000E+00  0.30565985624E+04  0.30565985624E+04  0.00000000000E+00 0. -1.
         -2   -1    0    0    0  501 -0.00000000000E+00 -0.00000000000E+00 -0.12021367296E+03  0.12021367296E+03  0.00000000000E+00 0.  1.
         25    1    1    2    0    0  0.19859878753E+03  0.34468441706E+03  0.26077012960E+04  0.26408293914E+04  0.12500000000E+03 0.  0.
         21    1    1    2  502  503 -0.30969500162E+02 -0.38460519145E+02  0.11877983766E+03  0.12863503142E+03  0.00000000000E+00 0. -1.
         21    1    1    2  503  501 -0.16762928737E+03 -0.30622389791E+03  0.20990375582E+03  0.40734781250E+03  0.00000000000E+00 0.  1.
<mgrwt>
<rscale>  4 0.11629643E+04</rscale>
<asrwt>0</asrwt>
<pdfrwt beam="1">  1        2 0.47024587E+00 0.11629643E+04</pdfrwt>
<pdfrwt beam="2">  1       -2 0.18494414E-01 0.11629643E+04</pdfrwt>
<totfact> 0.39533883E+01</totfact>
</mgrwt>
</event>
<event>
 5    0  0.2465569E-003  0.8861656E+03  0.7546771E-02  0.9443042E-01
         -2   -1    0    0    0  501 -0.00000000000E+00  0.00000000000E+00  0.83533759973E+03  0.83533759973E+03  0.00000000000E+00 0. -1.
          2   -1    0    0  503    0  0.00000000000E+00 -0.00000000000E+00 -0.58492951490E+03  0.58492951490E+03  0.00000000000E+00 0.  1.
         25    1    1    2    0    0  0.99747167020E+02 -0.32024678529E+03  0.82991217101E+02  0.36745073538E+03  0.12500000000E+03 0.  0.
         21    1    1    2  502  501 -0.41244342938E+01 -0.11592727827E+03  0.48897856112E+03  0.50254967719E+03  0.00000000000E+00 0. -1.
         21    1    1    2  503  502 -0.95622732726E+02  0.43617406356E+03 -0.32156169339E+03  0.55026670206E+03  0.00000000000E+00 0.  1.
<mgrwt>
<rscale>  4 0.88616557E+03</rscale>
<asrwt>0</asrwt>
<pdfrwt beam="1">  1        2 0.89989156E-01 0.88616557E+03</pdfrwt>
<pdfrwt beam="2">  1       -2 0.12851348E+00 0.88616557E+03</pdfrwt>
<totfact> 0.22919302E+01</totfact>
</mgrwt>
</event>
<event>
 5    0  0.2465569E-003  0.8390733E+03  0.7546771E-02  0.9505121E-01
          2   -1    0    0  502    0  0.00000000000E+00  0.00000000000E+00  0.27615678315E+04  0.27615678315E+04  0.00000000000E+00 0.  1.
         -2   -1    0    0    0  501 -0.00000000000E+00 -0.00000000000E+00 -0.12107356067E+03  0.12107356067E+03  0.00000000000E+00 0. -1.
         25    1    1    2    0    0 -0.11253689068E+03  0.28134678810E+03  0.10318664512E+04  0.10826790568E+04  0.12500000000E+03 0.  0.
         21    1    1    2  502  503 -0.77183204612E+02 -0.49792925160E+03  0.11857577382E+04  0.12883757993E+04  0.00000000000E+00 0.  1.
         21    1    1    2  503  501  0.18972009529E+03  0.21658246351E+03  0.42287008148E+03  0.51158653605E+03  0.00000000000E+00 0.  1.
<mgrwt>
<rscale>  4 0.83907335E+03</rscale>
<asrwt>0</asrwt>
<pdfrwt beam="1">  1        2 0.42485654E+00 0.83907335E+03</pdfrwt>
<pdfrwt beam="2">  1       -2 0.18626704E-01 0.83907335E+03</pdfrwt>
<totfact> 0.61038715E+01</totfact>
</mgrwt>
</event>
<event>
 5    0  0.2465569E-003  0.4114301E+03  0.7546771E-02  0.1039892E+00
         -1   -1    0    0    0  501 -0.00000000000E+00  0.00000000000E+00  0.43968528657E+03  0.43968528657E+03  0.00000000000E+00 0. -1.
          1   -1    0    0  502    0  0.00000000000E+00 -0.00000000000E+00 -0.46487684337E+03  0.46487684337E+03  0.00000000000E+00 0.  1.
         25    1    1    2    0    0 -0.13481147890E+03  0.16963490986E+03 -0.25730552591E+03  0.35886107500E+03  0.12500000000E+03 0.  0.
         21    1    1    2  502  503  0.15436464506E+03 -0.26897518835E+02 -0.98487091144E+02  0.18507195165E+03  0.00000000000E+00 0. -1.
         21    1    1    2  503  501 -0.19553166163E+02 -0.14273739102E+03  0.33060106025E+03  0.36062910329E+03  0.00000000000E+00 0. -1.
<mgrwt>
<rscale>  4 0.41143013E+03</rscale>
<asrwt>0</asrwt>
<pdfrwt beam="1">  1        1 0.71519514E-01 0.41143013E+03</pdfrwt>
<pdfrwt beam="2">  1       -1 0.67643890E-01 0.41143013E+03</pdfrwt>
<totfact> 0.11341815E+02</totfact>
</mgrwt>
</event>
<event>
 5    0  0.2465569E-003  0.4724837E+03  0.7546771E-02  0.1021222E+00
          3   -1    0    0  502    0  0.00000000000E+00  0.00000000000E+00  0.73128430228E+03  0.73128430228E+03  0.00000000000E+00 0. -1.
         -3   -1    0    0    0  501 -0.00000000000E+00 -0.00000000000E+00 -0.65581034338E+03  0.65581034338E+03  0.00000000000E+00 0.  1.
         25    1    1    2    0    0 -0.15327161130E+03  0.18569642242E+03 -0.18601398958E+03  0.32894004385E+03  0.12500000000E+03 0.  0.
         21    1    1    2  502  503  0.73638439964E+02 -0.59543298253E+02  0.64225816956E+03  0.64920226477E+03  0.00000000000E+00 0. -1.
         21    1    1    2  503  501  0.79633171331E+02 -0.12615312416E+03 -0.38077022108E+03  0.40895233704E+03  0.00000000000E+00 0. -1.
<mgrwt>
<rscale>  4 0.47248368E+03</rscale>
<asrwt>0</asrwt>
<pdfrwt beam="1">  1        3 0.11250528E+00 0.47248368E+03</pdfrwt>
<pdfrwt beam="2">  1       -3 0.10089390E+00 0.47248368E+03</pdfrwt>
<totfact> 0.14851122E+00</totfact>
</mgrwt>
</event>
<event>
 5    0  0.2465569E-003  0.1283143E+04  0.7546771E-02  0.9043041E-01
         -1   -1    0    0    0  501 -0.00000000000E+00  0.00000000000E+00  0.25974141095E+04  0.25974141095E+04  0.00000000000E+00 0.  1.
          1   -1    0    0  502    0  0.00000000000E+00 -0.00000000000E+00 -0.20889993884E+03  0.20889993884E+03  0.00000000000E+00 0. -1.
         25    1    1    2    0    0 -0.52776491171E+03 -0.25138355635E+03  0.13086157758E+04  0.14386902874E+04  0.12500000000E+03 0.  0.
         21    1    1    2  502  503  0.47542882187E+03  0.43408476767E+03  0.76526211264E+03  0.10000441246E+04  0.00000000000E+00 0. -1.
         21    1    1    2  503  501  0.52336089841E+02 -0.18270121132E+03  0.31463628225E+03  0.36757963630E+03  0.00000000000E+00 0. -1.
<mgrwt>
<rscale>  4 0.12831430E+04</rscale>
<asrwt>0</asrwt>
<pdfrwt beam="1">  1        1 0.32138454E-01 0.12831430E+04</pdfrwt>
<pdfrwt beam="2">  1       -1 0.39960215E+00 0.12831430E+04</pdfrwt>
<totfact> 0.10054949E+00</totfact>
</mgrwt>
</event>
<event>
 5    0  0.2465569E-003  0.6043162E+03  0.7546771E-02  0.9896492E-01
          1   -1    0    0  502    0  0.00000000000E+00  0.00000000000E+00  0.15363865308E+03  0.15363865308E+03  0.00000000000E+00 0.  1.
         -1   -1    0    0    0  501 -0.00000000000E+00 -0.00000000000E+00 -0.72615492864E+03  0.72615492864E+03  0.00000000000E+00 0. -1.
         25    1    1    2    0    0 -0.19018228688E+03 -0.23433674224E+03 -0.26044382224E+03  0.41777864420E+03  0.12500000000E+03 0.  0.
         21    1    1    2  502  503  0.38315752759E+02  0.86340503981E+01  0.98990951057E+01  0.40504762926E+02  0.00000000000E+00 0.  1.
         21    1    1    2  503  501  0.15186653412E+03  0.22570269185E+03 -0.32197154842E+03  0.42151017459E+03  0.00000000000E+00 0.  1.
<mgrwt>
<rscale>  4 0.60431619E+03</rscale>
<asrwt>0</asrwt>
<pdfrwt beam="1">  1        1 0.23636716E-01 0.60431619E+03</pdfrwt>
<pdfrwt beam="2">  1       -1 0.11171614E+00 0.60431619E+03</pdfrwt>
<totfact> 0.15789829E+02</totfact>
</mgrwt>
</event>
<event>
 5    0  0.2465569E-003  0.6256585E+03  0.7546771E-02  0.9853558E-01
          2   -1    0    0  502    0  0.00000000000E+00  0.00000000000E+00  0.52931426641E+03  0.52931426641E+03  0.00000000000E+00 0.  1.
         -2   -1    0    0    0  501 -0.00000000000E+00 -0.00000000000E+00 -0.26511952582E+03  0.26511952582E+03  0.00000000000E+00 0. -1.
         25    1    1    2    0    0  0.15845619208E+03  0.27500002030E+03  0.13925227854E+03  0.36844208915E+03  0.12500000000E+03 0.  0.
         21    1    1    2  502  503 -0.38886685643E+02 -0.28185353769E+03  0.11103318421E+03  0.30542095381E+03  0.00000000000E+00 0. -1.
         21    1    1    2  503  501 -0.11956950644E+03  0.68535173876E+01  0.13909277842E+02  0.12057074927E+03  0.00000000000E+00 0.  1.
<mgrwt>
<rscale>  4 0.62565852E+03</rscale>
<asrwt>0</asrwt>
<pdfrwt beam="1">  1        2 0.81432964E-01 0.62565852E+03</pdfrwt>
<pdfrwt beam="2">  1       -2 0.40787620E-01 0.62565852E+03</pdfrwt>
<totfact> 0.33165013E+02</totfact>
</mgrwt>
</event>
<event>
 5    0  0.2465569E-003  0.5516787E+03  0.7546771E-02  0.1001106E+00
         -1   -1    0    0    0  501 -0.00000000000E+00  0.00000000000E+00  0.47612388306E+03  0.47612388306E+03  0.00000000000E+00 0. -1.
          1   -1    0    0  503    0  0.00000000000E+00 -0.00000000000E+00 -0.23831072547E+03  0.23831072547E+03  0.00000000000E+00 0.  1.
         25    1    1    2    0    0  0.34744359596E+02 -0.27467276171E+03  0.52765674577E+02  0.30832047120E+03  0.12500000000E+03 0.  0.
         21    1    1    2  502  501 -0.20080688554E+02  0.27319027013E+02  0.15246936520E+03  0.15619369582E+03  0.00000000000E+00 0.  1.
         21    1    1    2  503  502 -0.14663671042E+02  0.24735373470E+03  0.32578117810E+02  0.24992044150E+03  0.00000000000E+00 0.  1.
<mgrwt>
<rscale>  4 0.55167867E+03</rscale>
<asrwt>0</asrwt>
<pdfrwt beam="1">  1        1 0.36663189E-01 0.55167867E+03</pdfrwt>
<pdfrwt beam="2">  1       -1 0.73249828E-01 0.55167867E+03</pdfrwt>
<totfact> 0.22694192E+02</totfact>
</mgrwt>
</event>
<event>
 5    0  0.2465569E-003  0.1098741E+04  0.7546771E-02  0.9206420E-01
          2   -1    0    0  502    0  0.00000000000E+00  0.00000000000E+00  0.15786003614E+04  0.15786003614E+04  0.00000000000E+00 0. -1.
         -2   -1    0    0    0  501 -0.00000000000E+00 -0.00000000000E+00 -0.22108455857E+03  0.22108455857E+03  0.00000000000E+00 0.  1.
         25    1    1    2    0    0  0.15226700751E+03 -0.52199438118E+03  0.46120563397E+03  0.72387776066E+03  0.12500000000E+03 0.  0.
         21    1    1    2  502  503  0.14092663580E+02  0.23098940826E+02  0.20714168747E+03  0.20890151489E+03  0.00000000000E+00 0. -1.
         21    1    1    2  503  501 -0.16635967109E+03  0.49889544036E+03  0.68916848134E+03  0.86690564438E+03  0.00000000000E+00 0.  1.
<mgrwt>
<rscale>  4 0.10987408E+04</rscale>
<asrwt>0</asrwt>
<pdfrwt beam="1">  1        2 0.24286159E+00 0.10987408E+04</pdfrwt>
<pdfrwt beam="2">  1       -2 0.34013010E-01 0.10987408E+04</pdfrwt>
<totfact> 0.92062371E+01</totfact>
</mgrwt>
</event>
<event>
 5    0  0.2465569E-003  0.5923784E+03  0.7546771E-02  0.9921346E-01
         -2   -1    0    0    0  501 -0.00000000000E+00  0.00000000000E+00  0.33350431801E+02  0.33350431801E+02  0.00000000000E+00 0.  1.
          2   -1    0    0  503    0  0.00000000000E+00 -0.00000000000E+00 -0.33981330640E+04  0.33981330640E+04  0.00000000000E+00 0. -1.
         25    1    1    2    0    0 -0.20269503971E+03 -0.26166749661E+02 -0.20745441160E+04  0.20883314553E+04  0.12500000000E+03 0.  0.
         21    1    1    2  502  501 -0.79873632153E+02 -0.12883713490E+02 -0.40798385209E+03  0.41592861256E+03  0.00000000000E+00 0. -1.
         21    1    1    2  503  502  0.28256867186E+03  0.39050463152E+02 -0.88225466410E+03  0.92722342794E+03  0.00000000000E+00 0.  1.
<mgrwt>
<rscale>  4 0.59237845E+03</rscale>
<asrwt>0</asrwt>
<pdfrwt beam="1">  1        2 0.52278966E+00 0.59237845E+03</pdfrwt>
<pdfrwt beam="2">  1       -2 0.51308361E-02 0.59237845E+03</pdfrwt>
<totfact> 0.20761692E+02</totfact>
</mgrwt>
</event>
<event>
 5    0  0.2465569E-003  0.2558424E+04  0.7546771E-02  0.8382462E-01
          1   -1    0    0  502    0  0.00000000000E+00  0.00000000000E+00  0.19758884038E+04  0.19758884038E+04  0.00000000000E+00 0. -1.
         -1   -1    0    0    0  501 -0.00000000000E+00 -0.00000000000E+00 -0.88635134668E+03  0.88635134668E+03  0.00000000000E+00 0.  1.
         25    1    1    2    0    0  0.82841520227E+03  0.88088610902E+03  0.13837028199E+03  0.12235209109E+04  0.12500000000E+03 0.  0.
         21    1    1    2  502  503  0.74398103027E+02 -0.38496533177E+02  0.64987737107E+01  0.84019609975E+02  0.00000000000E+00 0.  1.
         21    1    1    2  503  501 -0.90281330530E+03 -0.84238957585E+03  0.94466800147E+03  0.15546992297E+04  0.00000000000E+00 0. -1.
<mgrwt>
<rscale>  4 0.25584244E+04</rscale>
<asrwt>0</asrwt>
<pdfrwt beam="1">  1        1 0.30398283E+00 0.25584244E+04</pdfrwt>
<pdfrwt beam="2">  1       -1 0.13636175E+00 0.25584244E+04</pdfrwt>
<totfact> 0.12242193E+00</totfact>
</mgrwt>
</event>
<event>
 5    0  0.2465569E-003  0.9767671E+03  0.7546771E-02  0.9334400E-01
         -2   -1    0    0    0  501 -0.00000000000E+00  0.00000000000E+00  0.37880962912E+03  0.37880962912E+03  0.00000000000E+00 0.  1.
          2   -1    0    0  503    0  0.00000000000E+00 -0.00000000000E+00 -0.11582303205E+04  0.11582303205E+04  0.00000000000E+00 0. -1.
         25    1    1    2    0    0  0.77667087718E+02 -0.28363318946E+03  0.13225001539E+03  0.34582514259E+03  0.12500000000E+03 0.  0.
         21    1    1    2  502  501 -0.30241457032E+03  0.39550093529E+03 -0.47839483875E+03  0.69046157308E+03  0.00000000000E+00 0.  1.
         21    1    1    2  503  502  0.22474748260E+03 -0.11186774584E+03 -0.43327586799E+03  0.50075323392E+03  0.00000000000E+00 0. -1.
<mgrwt>
<rscale>  4 0.97676707E+03</rscale>
<asrwt>0</asrwt>
<pdfrwt beam="1">  1        2 0.17818928E+00 0.97676707E+03</pdfrwt>
<pdfrwt beam="2">  1       -2 0.58278404E-01 0.97676707E+03</pdfrwt>
<totfact> 0.55212668E+01</totfact>
</mgrwt>
</event>
<event>
 5    0  0.2465569E-003  0.4638199E+03  0.7546771E-02  0.1023679E+00
          1   -1    0    0  503    0  0.00000000000E+00  0.00000000000E+00  0.17532681869E+04  0.17532681869E+04  0.00000000000E+00 0. -1.
         -1   -1    0    0    0  501 -0.00000000000E+00 -0.00000000000E+00 -0.48267748903E+02  0.48267748903E+02  0.00000000000E+00 0.  1.
         25    1    1    2    0    0 -0.20438311738E+03 -0.59020392247E+02  0.73197207757E+03  0.77244028100E+03  0.12500000000E+03 0.  0.
         21    1    1    2  502  501  0.11231885079E+01  0.29819432619E+02 -0.45477002719E+01  0.30185123685E+02  0.00000000000E+00 0.  1.
         21    1    1    2  503  502  0.20325992887E+03  0.29200959629E+02  0.97757606074E+03  0.99891053116E+03  0.00000000000E+00 0. -1.
<mgrwt>
<rscale>  4 0.46381986E+03</rscale>
<asrwt>0</asrwt>
<pdfrwt beam="1">  1        1 0.26973352E+00 0.46381986E+03</pdfrwt>
<pdfrwt beam="2">  1       -1 0.74258089E-02 0.46381986E+03</pdfrwt>
<totfact> 0.46137237E+02</totfact>
</mgrwt>
</event>
<event>
 5    0  0.2465569E-003  0.6552357E+03  0.7546771E-02  0.9797004E-01
         -1   -1    0    0    0  501 -0.00000000000E+00  0.00000000000E+00  0.73553420204E+03  0.73553420204E+03  0.00000000000E+00 0.  1.
          1   -1    0    0  502    0  0.00000000000E+00 -0.00000000000E+00 -0.20970840800E+03  0.20970840800E+03  0.00000000000E+00 0. -1.
         25    1    1    2    0    0  0.23101435212E+03  0.68176062029E+02  0.44470486906E+03  0.52096355620E+03  0.12500000000E+03 0.  0.
         21    1    1    2  502  503 -0.20882538935E+03  0.38532804210E+02 -0.82388583733E+02  0.22777334999E+03  0.00000000000E+00 0. -1.
         21    1    1    2  503  501 -0.22188962774E+02 -0.10670886624E+03  0.16350950871E+03  0.19650570384E+03  0.00000000000E+00 0. -1.
<mgrwt>
<rscale>  4 0.65523573E+03</rscale>
<asrwt>0</asrwt>
<pdfrwt beam="1">  1        1 0.32262832E-01 0.65523573E+03</pdfrwt>
<pdfrwt beam="2">  1       -1 0.11315911E+00 0.65523573E+03</pdfrwt>
<totfact> 0.10192002E+02</totfact>
</mgrwt>
</event>
<event>
 5    0  0.2465569E-003  0.5693509E+03  0.7546771E-02  0.9971116E-01
         -4   -1    0    0    0  501 -0.00000000000E+00  0.00000000000E+00  0.11765035710E+04  0.11765035710E+04  0.00000000000E+00 0.  1.
          4   -1    0    0  503    0  0.00000000000E+00 -0.00000000000E+00 -0.12119111157E+03  0.12119111157E+03  0.00000000000E+00 0. -1.
         25    1    1    2    0    0 -0.33815366641E+03  0.23865675151E+02  0.41470434053E+03  0.55002014746E+03  0.12500000000E+03 0.  0.
         21    1    1    2  502  501  0.13712120680E+03 -0.77393171195E+02  0.39841105658E+03  0.42839619315E+03  0.00000000000E+00 0. -1.
         21    1    1    2  503  502  0.20103245961E+03  0.53527496044E+02  0.24219706237E+03  0.31927834200E+03  0.00000000000E+00 0.  1.
<mgrwt>
<rscale>  4 0.56935087E+03</rscale>
<asrwt>0</asrwt>
<pdfrwt beam="1">  1        4 0.18644787E-01 0.56935087E+03</pdfrwt>
<pdfrwt beam="2">  1       -4 0.18100054E+00 0.56935087E+03</pdfrwt>
<totfact> 0.92326682E+00</totfact>
</mgrwt>
</event>
<event>
 5    0  0.2465569E-003  0.1406541E+04  0.7546771E-02  0.8949098E-01
         -2   -1    0    0    0  501 -0.00000000000E+00  0.00000000000E+00  0.73737417366E+03  0.73737417366E+03  0.00000000000E+00 0. -1.
          2   -1    0    0  502    0  0.00000000000E+00 -0.00000000000E+00 -0.85942609782E+03  0.85942609782E+03  0.00000000000E+00 0.  1.
         25    1    1    2    0    0 -0.33218561273E+03 -0.39050698402E+03 -0.40268497414E+03  0.66379452715E+03  0.12500000000E+03 0.  0.
         21    1    1    2  502  503 -0.10138500711E+03 -0.23473510581E+02 -0.15870514129E+03  0.18978210463E+03  0.00000000000E+00 0.  1.
         21    1    1    2  503  501  0.43357061983E+03  0.41398049460E+03  0.43933819127E+03  0.74322363970E+03  0.00000000000E+00 0. -1.
<mgrwt>
<rscale>  4 0.14065407E+04</rscale>
<asrwt>0</asrwt>
<pdfrwt beam="1">  1        2 0.13221940E+00 0.14065407E+04</pdfrwt>
<pdfrwt beam="2">  1       -2 0.11344218E+00 0.14065407E+04</pdfrwt>
<totfact> 0.18456632E+01</totfact>
</mgrwt>
</event>
<event>
 5    0  0.2465569E-003  0.6797478E+03  0.7546771E-02  0.9752507E-01
          2   -1    0    0  502    0  0.00000000000E+00  0.00000000000E+00  0.43956585362E+03  0.43956585362E+03  0.00000000000E+00 0.  1.
         -2   -1    0    0    0  501 -0.00000000000E+00 -0.00000000000E+00 -0.35513089177E+03  0.35513089177E+03  0.00000000000E+00 0. -1.
         25    1    1    2    0    0 -0.85700468330E+02 -0.26223762122E+03  0.24954689244E+03  0.39244336124E+03  0.12500000000E+03 0.  0.
         21    1    1    2  502  503  0.10725030724E+03  0.14610235125E+02 -0.87383911736E+01  0.10859303318E+03  0.00000000000E+00 0. -1.
         21    1    1    2  503  501 -0.21549838914E+02  0.24762738610E+03 -0.15637353941E+03  0.29366035097E+03  0.00000000000E+00 0. -1.
<mgrwt>
<rscale>  4 0.67974777E+03</rscale>
<asrwt>0</asrwt>
<pdfrwt beam="1">  1        2 0.67625516E-01 0.67974777E+03</pdfrwt>
<pdfrwt beam="2">  1       -2 0.54635522E-01 0.67974777E+03</pdfrwt>
<totfact> 0.22782127E+02</totfact>
</mgrwt>
</event>
<event>
 5    0  0.2465569E-003  0.4680715E+03  0.7546771E-02  0.1022466E+00
          1   -1    0    0  502    0  0.00000000000E+00  0.00000000000E+00  0.10697195141E+04  0.10697195141E+04  0.00000000000E+00 0. -1.
         -1   -1    0    0    0  501 -0.00000000000E+00 -0.00000000000E+00 -0.33368787743E+03  0.33368787743E+03  0.00000000000E+00 0.  1.
         25    1    1    2    0    0  0.61328932737E+02 -0.23088722076E+03 -0.19133696749E+03  0.33061303941E+03  0.12500000000E+03 0.  0.
         21    1    1    2  502  503 -0.11098043479E+03  0.76617045435E+02  0.89802655735E+03  0.90809609968E+03  0.00000000000E+00 0. -1.
         21    1    1    2  503  501  0.49651502054E+02  0.15427017533E+03  0.29342046852E+02  0.16469825247E+03  0.00000000000E+00 0. -1.
<mgrwt>
<rscale>  4 0.46807149E+03</rscale>
<asrwt>0</asrwt>
<pdfrwt beam="1">  1        1 0.16457223E+00 0.46807149E+03</pdfrwt>
<pdfrwt beam="2">  1       -1 0.51336597E-01 0.46807149E+03</pdfrwt>
<totfact> 0.54113520E+01</totfact>
</mgrwt>
</event>
<event>
 5    0  0.2465569E-003  0.8474007E+03  0.7546771E-02  0.9493832E-01
          2   -1    0    0  503    0  0.00000000000E+00  0.00000000000E+00  0.12595425568E+04  0.12595425568E+04  0.00000000000E+00 0.  1.
         -2   -1    0    0    0  501 -0.00000000000E+00 -0.00000000000E+00 -0.21338179848E+03  0.21338179848E+03  0.00000000000E+00 0. -1.
         25    1    1    2    0    0 -0.29383319010E+03 -0.84627089432E+02  0.73588877556E+03  0.80663311231E+03  0.12500000000E+03 0.  0.
         21    1    1    2  502  501  0.21556138862E+03  0.12519572970E+03 -0.83405293694E+02  0.26286332193E+03  0.00000000000E+00 0. -1.
         21    1    1    2  503  502  0.78271801478E+02 -0.40568640272E+02  0.39367727646E+03  0.40342792104E+03  0.00000000000E+00 0. -1.
<mgrwt>
<rscale>  4 0.84740069E+03</rscale>
<asrwt>0</asrwt>
<pdfrwt beam="1">  1        2 0.19377577E+00 0.84740069E+03</pdfrwt>
<pdfrwt beam="2">  1       -2 0.32827970E-01 0.84740069E+03</pdfrwt>
<totfact> 0.15209143E+02</totfact>
</mgrwt>
</event>
<event>
 5    0  0.2465569E-003  0.5605840E+03  0.7546771E-02  0.9990734E-01
          2   -1    0    0  502    0  0.00000000000E+00  0.00000000000E+00  0.22846005156E+04  0.22846005156E+04  0.00000000000E+00 0.  1.
         -2   -1    0    0    0  501 -0.00000000000E+00 -0.00000000000E+00 -0.52608824658E+02  0.52608824658E+02  0.00000000000E+00 0. -1.
         25    1    1    2    0    0 -0.23919312611E+03 -0.46086923124E+02  0.14111131227E+04  0.14374291638E+04  0.12500000000E+03 0.  0.
         21    1    1    2  502  503  0.29433661415E+02  0.12936746265E+03  0.41089063775E+03  0.43177933833E+03  0.00000000000E+00 0. -1.
         21    1    1    2  503  501  0.20975946469E+03 -0.83280539528E+02  0.40998793056E+03  0.46800083814E+03  0.00000000000E+00 0. -1.
<mgrwt>
<rscale>  4 0.56058402E+03</rscale>
<asrwt>0</asrwt>
<pdfrwt beam="1">  1        2 0.35147693E+00 0.56058402E+03</pdfrwt>
<pdfrwt beam="2">  1       -2 0.80936671E-02 0.56058402E+03</pdfrwt>
<totfact> 0.46849804E+02</totfact>
</mgrwt>
</event>
<event>
 5    0  0.2465569E-003  0.6353263E+03  0.7546771E-02  0.9834710E-01
          2   -1    0    0  502    0  0.00000000000E+00  0.00000000000E+00  0.41408320324E+03  0.41408320324E+03  0.00000000000E+00 0.  1.
         -2   -1    0    0    0  501 -0.00000000000E+00 -0.00000000000E+00 -0.24369470515E+03  0.24369470515E+03  0.00000000000E+00 0. -1.
         25    1    1    2    0    0  0.22152855373E+03  0.18589493583E+03  0.16032414037E+03  0.35349774719E+03  0.12500000000E+03 0.  0.
         21    1    1    2  502  503 -0.42755917286E+02 -0.77761755841E+02  0.31696148893E+02  0.94231655982E+02  0.00000000000E+00 0.  1.
         21    1    1    2  503  501 -0.17877263644E+03 -0.10813317999E+03 -0.21631791175E+02  0.21004850522E+03  0.00000000000E+00 0. -1.
<mgrwt>
<rscale>  4 0.63532632E+03</rscale>
<asrwt>0</asrwt>
<pdfrwt beam="1">  1        2 0.63705108E-01 0.63532632E+03</pdfrwt>
<pdfrwt beam="2">  1       -2 0.37491493E-01 0.63532632E+03</pdfrwt>
<totfact> 0.51696960E+02</totfact>
</mgrwt>
</event>
<event>
 5    0  0.2465569E-003  0.5482658E+03  0.7546771E-02  0.1001896E+00
         -2   -1    0    0    0  501 -0.00000000000E+00  0.00000000000E+00  0.17052131461E+03  0.17052131461E+03  0.00000000000E+00 0. -1.
          2   -1    0    0  502    0  0.00000000000E+00 -0.00000000000E+00 -0.67129959464E+03  0.67129959464E+03  0.00000000000E+00 0.  1.
         25    1    1    2    0    0 -0.45122732358E+02 -0.20921497092E+03 -0.93203944355E+02  0.26479981170E+03  0.12500000000E+03 0.  0.
         21    1    1    2  502  503  0.88657059125E+02  0.21327825307E+03 -0.45637772308E+03  0.51149615198E+03  0.00000000000E+00 0.  1.
         21    1    1    2  503  501 -0.43534326767E+02 -0.40632821507E+01  0.48803387406E+02  0.65524945564E+02  0.00000000000E+00 0. -1.
<mgrwt>
<rscale>  4 0.54826582E+03</rscale>
<asrwt>0</asrwt>
<pdfrwt beam="1">  1        2 0.10327686E+00 0.54826582E+03</pdfrwt>
<pdfrwt beam="2">  1       -2 0.26234048E-01 0.54826582E+03</pdfrwt>
<totfact> 0.57262214E+02</totfact>
</mgrwt>
</event>
<event>
 5    0  0.2465569E-003  0.1056337E+04  0.7546771E-02  0.9248826E-01
          1   -1    0    0  503    0  0.00000000000E+00  0.00000000000E+00  0.12375638949E+04  0.12375638949E+04  0.00000000000E+00 0.  1.
         -1   -1    0    0    0  501 -0.00000000000E+00 -0.00000000000E+00 -0.39090183603E+03  0.39090183603E+03  0.00000000000E+00 0. -1.
         25    1    1    2    0    0 -0.39218958978E+03  0.21197525367E+03  0.52504837108E+03  0.70003355239E+03  0.12500000000E+03 0.  0.
         21    1    1    2  502  501  0.28487413286E+03 -0.22773859878E+03 -0.18596659003E+03  0.40939188262E+03  0.00000000000E+00 0. -1.
         21    1    1    2  503  502  0.10731545692E+03  0.15763345108E+02  0.50758027785E+03  0.51904029593E+03  0.00000000000E+00 0. -1.
<mgrwt>
<rscale>  4 0.10563372E+04</rscale>
<asrwt>0</asrwt>
<pdfrwt beam="1">  1        1 0.19039444E+00 0.10563372E+04</pdfrwt>
<pdfrwt beam="2">  1       -1 0.60138745E-01 0.10563372E+04</pdfrwt>
<totfact> 0.28103011E+01</totfact>
</mgrwt>
</event>
<event>
 5    0  0.2465569E-003  0.6151154E+03  0.7546771E-02  0.9874533E-01
         -1   -1    0    0    0  501 -0.00000000000E+00  0.00000000000E+00  0.89338654154E+02  0.89338654154E+02  0.00000000000E+00 0.  1.
          1   -1    0    0  503    0  0.00000000000E+00 -0.00000000000E+00 -0.18690042990E+04  0.18690042990E+04  0.00000000000E+00 0. -1.
         25    1    1    2    0    0 -0.21016827107E+02  0.28332370961E+03 -0.62742543607E+03  0.70000122091E+03  0.12500000000E+03 0.  0.
         21    1    1    2  502  501 -0.10550038692E+02 -0.21911585289E+02  0.34795959284E+02  0.42452086742E+02  0.00000000000E+00 0.  1.
         21    1    1    2  503  502  0.31566865799E+02 -0.26141212432E+03 -0.11870361680E+04  0.12158896455E+04  0.00000000000E+00 0. -1.
<mgrwt>
<rscale>  4 0.61511535E+03</rscale>
<asrwt>0</asrwt>
<pdfrwt beam="1">  1        1 0.28753913E+00 0.61511535E+03</pdfrwt>
<pdfrwt beam="2">  1       -1 0.13744408E-01 0.61511535E+03</pdfrwt>
<totfact> 0.14425534E+02</totfact>
</mgrwt>
</event>
<event>
 5    0  0.2465569E-003  0.4989650E+03  0.7546771E-02  0.1014049E+00
         -2   -1    0    0    0  501 -0.00000000000E+00  0.00000000000E+00  0.83862260288E+02  0.83862260288E+02  0.00000000000E+00 0. -1.
          2   -1    0    0  502    0  0.00000000000E+00 -0.00000000000E+00 -0.97195540076E+03  0.97195540076E+03  0.00000000000E+00 0.  1.
         25    1    1    2    0    0 -0.18140855395E+01  0.20790969054E+03 -0.66612958647E+03  0.70893113650E+03  0.12500000000E+03 0.  0.
         21    1    1    2  502  503  0.63660636743E+02 -0.33610020844E+02 -0.10752159002E+03  0.12939552733E+03  0.00000000000E+00 0. -1.
         21    1    1    2  503  501 -0.61846551203E+02 -0.17429966969E+03 -0.11444196397E+03  0.21749099721E+03  0.00000000000E+00 0. -1.
<mgrwt>
<rscale>  4 0.49896495E+03</rscale>
<asrwt>0</asrwt>
<pdfrwt beam="1">  1        2 0.14953159E+00 0.49896495E+03</pdfrwt>
<pdfrwt beam="2">  1       -2 0.12901887E-01 0.49896495E+03</pdfrwt>
<totfact> 0.11957754E+03</totfact>
</mgrwt>
</event>
<event>
 5    0  0.2465569E-003  0.4425452E+03  0.7546771E-02  0.1029969E+00
          2   -1    0    0  503    0  0.00000000000E+00  0.00000000000E+00  0.14351028370E+04  0.14351028370E+04  0.00000000000E+00 0.  1.
         -2   -1    0    0    0  501 -0.00000000000E+00 -0.00000000000E+00 -0.42118034853E+02  0.42118034853E+02  0.00000000000E+00 0. -1.
         25    1    1    2    0    0  0.10648785950E+03 -0.17569542762E+03  0.96484621627E+03  0.99436500771E+03  0.12500000000E+03 0.  0.
         21    1    1    2  502  501 -0.20901480567E+01  0.21273976940E+02  0.73072517087E+01  0.22590855257E+02  0.00000000000E+00 0. -1.
         21    1    1    2  503  502 -0.10439771144E+03  0.15442145068E+03  0.42083133413E+03  0.46026500885E+03  0.00000000000E+00 0.  1.
<mgrwt>
<rscale>  4 0.44254515E+03</rscale>
<asrwt>0</asrwt>
<pdfrwt beam="1">  1        2 0.22078501E+00 0.44254515E+03</pdfrwt>
<pdfrwt beam="2">  1       -2 0.64796988E-02 0.44254515E+03</pdfrwt>
<totfact> 0.19357733E+03</totfact>
</mgrwt>
</event>
<event>
 5    0  0.2465569E-003  0.4483651E+03  0.7546771E-02  0.1028211E+00
          2   -1    0    0  502    0  0.00000000000E+00  0.00000000000E+00  0.88607552164E+03  0.88607552164E+03  0.00000000000E+00 0. -1.
         -2   -1    0    0    0  501 -0.00000000000E+00 -0.00000000000E+00 -0.69362401124E+02  0.69362401124E+02  0.00000000000E+00 0.  1.
         25    1    1    2    0    0  0.19266857020E+03 -0.54680790959E+02  0.34096987590E+03  0.41472475585E+03  0.12500000000E+03 0.  0.
         21    1    1    2  502  503  0.17827854894E+02  0.39931196112E+02  0.11140333478E+03  0.11967888633E+03  0.00000000000E+00 0. -1.
         21    1    1    2  503  501 -0.21049642510E+03  0.14749594847E+02  0.36433990983E+03  0.42103428057E+03  0.00000000000E+00 0. -1.
<mgrwt>
<rscale>  4 0.44836511E+03</rscale>
<asrwt>0</asrwt>
<pdfrwt beam="1">  1        2 0.13631930E+00 0.44836511E+03</pdfrwt>
<pdfrwt beam="2">  1       -2 0.10671139E-01 0.44836511E+03</pdfrwt>
<totfact> 0.18568843E+03</totfact>
</mgrwt>
</event>
<event>
 5    0  0.2465569E-003  0.1129210E+04  0.7546771E-02  0.9177180E-01
          2   -1    0    0  502    0  0.00000000000E+00  0.00000000000E+00  0.18201354265E+04  0.18201354265E+04  0.00000000000E+00 0.  1.
         -2   -1    0    0    0  501 -0.00000000000E+00 -0.00000000000E+00 -0.68091469115E+03  0.68091469115E+03  0.00000000000E+00 0. -1.
         25    1    1    2    0    0  0.24270022956E+03 -0.78133570199E+02  0.35423674131E+03  0.45400101885E+03  0.12500000000E+03 0.  0.
         21    1    1    2  502  503 -0.12799341101E+03 -0.35538272419E+03  0.13060567734E+04  0.13595821010E+04  0.00000000000E+00 0. -1.
         21    1    1    2  503  501 -0.11470681855E+03  0.43351629439E+03 -0.52107277937E+03  0.68746699784E+03  0.00000000000E+00 0. -1.
<mgrwt>
<rscale>  4 0.11292099E+04</rscale>
<asrwt>0</asrwt>
<pdfrwt beam="1">  1        2 0.28002083E+00 0.11292099E+04</pdfrwt>
<pdfrwt beam="2">  1       -2 0.10475611E+00 0.11292099E+04</pdfrwt>
<totfact> 0.61182169E+00</totfact>
</mgrwt>
</event>
<event>
 5    0  0.2465569E-003  0.4639656E+03  0.7546771E-02  0.1023637E+00
          1   -1    0    0  502    0  0.00000000000E+00  0.00000000000E+00  0.10381662332E+03  0.10381662332E+03  0.00000000000E+00 0. -1.
         -1   -1    0    0    0  501 -0.00000000000E+00 -0.00000000000E+00 -0.17630403974E+04  0.17630403974E+04  0.00000000000E+00 0.  1.
         25    1    1    2    0    0 -0.18712974305E+03 -0.11705964821E+03 -0.11218873972E+04  0.11502073005E+04  0.12500000000E+03 0.  0.
         21    1    1    2  502  503 -0.72517632410E+01  0.62760610065E+02  0.59394331398E+02  0.86713141150E+02  0.00000000000E+00 0. -1.
         21    1    1    2  503  501  0.19438150629E+03  0.54299038147E+02 -0.59673070820E+03  0.62993657907E+03  0.00000000000E+00 0. -1.
<mgrwt>
<rscale>  4 0.46396556E+03</rscale>
<asrwt>0</asrwt>
<pdfrwt beam="1">  1        1 0.15971789E-01 0.46396556E+03</pdfrwt>
<pdfrwt beam="2">  1       -1 0.27123698E+00 0.46396556E+03</pdfrwt>
<totfact> 0.19307590E+01</totfact>
</mgrwt>
</event>
<event>
 5    0  0.2465569E-003  0.6984738E+03  0.7546771E-02  0.9719846E-01
         -2   -1    0    0    0  501 -0.00000000000E+00  0.00000000000E+00  0.22648801183E+03  0.22648801183E+03  0.00000000000E+00 0.  1.
          2   -1    0    0  503    0  0.00000000000E+00 -0.00000000000E+00 -0.11144080457E+04  0.11144080457E+04  0.00000000000E+00 0. -1.
         25    1    1    2    0    0  0.26986226604E+03 -0.15955653452E+03 -0.29918809605E+03  0.45102377671E+03  0.12500000000E+03 0.  0.
         21    1    1    2  502  501  0.45810993637E+02  0.10005867133E+03  0.87910596171E+02  0.14084977020E+03  0.00000000000E+00 0. -1.
         21    1    1    2  503  502 -0.31567325968E+03  0.59497863194E+02 -0.67664253401E+03  0.74902251063E+03  0.00000000000E+00 0. -1.
<mgrwt>
<rscale>  4 0.69847382E+03</rscale>
<asrwt>0</asrwt>
<pdfrwt beam="1">  1        2 0.17144739E+00 0.69847382E+03</pdfrwt>
<pdfrwt beam="2">  1       -2 0.34844309E-01 0.69847382E+03</pdfrwt>
<totfact> 0.16744534E+02</totfact>
</mgrwt>
</event>
<event>
 5    0  0.2465569E-003  0.1124520E+04  0.7546771E-02  0.9181618E-01
          2   -1    0    0  502    0  0.00000000000E+00  0.00000000000E+00  0.10839185354E+04  0.10839185354E+04  0.00000000000E+00 0. -1.
         -2   -1    0    0    0  501 -0.00000000000E+00 -0.00000000000E+00 -0.31880430992E+03  0.31880430992E+03  0.00000000000E+00 0.  1.
         25    1    1    2    0    0  0.33221983761E+03  0.39060651376E+03  0.67782070407E+03  0.85907472082E+03  0.12500000000E+03 0.  0.
         21    1    1    2  502  503 -0.47332076667E+02 -0.13739324698E+02  0.49271797737E+02  0.69690778277E+02  0.00000000000E+00 0.  1.
         21    1    1    2  503  501 -0.28488776095E+03 -0.37686718906E+03  0.38021723622E+02  0.47395734618E+03  0.00000000000E+00 0.  1.
<mgrwt>
<rscale>  4 0.11245195E+04</rscale>
<asrwt>0</asrwt>
<pdfrwt beam="1">  1        2 0.16675670E+00 0.11245195E+04</pdfrwt>
<pdfrwt beam="2">  1       -2 0.49046817E-01 0.11245195E+04</pdfrwt>
<totfact> 0.86912324E+01</totfact>
</mgrwt>
</event>
<event>
 5    0  0.2465569E-003  0.6297744E+03  0.7546771E-02  0.9845489E-01
          2   -1    0    0  503    0  0.00000000000E+00  0.00000000000E+00  0.18993205798E+04  0.18993205798E+04  0.00000000000E+00 0. -1.
         -2   -1    0    0    0  501 -0.00000000000E+00 -0.00000000000E+00 -0.69737264138E+02  0.69737264138E+02  0.00000000000E+00 0.  1.
         25    1    1    2    0    0 -0.17231245849E+03  0.19771550151E+03  0.14101219299E+04  0.14397402057E+04  0.12500000000E+03 0.  0.
         21    1    1    2  502  501  0.11891838118E+03 -0.12076233643E+03  0.10084088919E+03  0.19721563887E+03  0.00000000000E+00 0.  1.
         21    1    1    2  503  502  0.53394077312E+02 -0.76953165080E+02  0.31862049653E+03  0.33210199927E+03  0.00000000000E+00 0.  1.
<mgrwt>
<rscale>  4 0.62977440E+03</rscale>
<asrwt>0</asrwt>
<pdfrwt beam="1">  1        2 0.29220313E+00 0.62977440E+03</pdfrwt>
<pdfrwt beam="2">  1       -2 0.10728811E-01 0.62977440E+03</pdfrwt>
<totfact> 0.47897733E+02</totfact>
</mgrwt>
</event>
<event>
 5    0  0.2465569E-003  0.8448238E+03  0.7546771E-02  0.9497311E-01
          2   -1    0    0  502    0  0.00000000000E+00  0.00000000000E+00  0.30848946968E+04  0.30848946968E+04  0.00000000000E+00 0. -1.
         -2   -1    0    0    0  501 -0.00000000000E+00 -0.00000000000E+00 -0.68680551487E+02  0.68680551487E+02  0.00000000000E+00 0.  1.
         25    1    1    2    0    0 -0.37800092653E+03 -0.32523618376E+02  0.20262646383E+04  0.20652641164E+04  0.12500000000E+03 0.  0.
         21    1    1    2  502  503  0.41501110337E+02  0.83198142815E+01  0.44757329280E+03  0.44957025468E+03  0.00000000000E+00 0. -1.
         21    1    1    2  503  501  0.33649981619E+03  0.24203804095E+02  0.54237621426E+03  0.63874087722E+03  0.00000000000E+00 0.  1.
<mgrwt>
<rscale>  4 0.84482375E+03</rscale>
<asrwt>0</asrwt>
<pdfrwt beam="1">  1        2 0.47459908E+00 0.84482375E+03</pdfrwt>
<pdfrwt beam="2">  1       -2 0.10566241E-01 0.84482375E+03</pdfrwt>
<totfact> 0.10098856E+02</totfact>
</mgrwt>
</event>
<event>
 5    0  0.2465569E-003  0.8716294E+03  0.7546771E-02  0.9461758E-01
         -1   -1    0    0    0  501 -0.00000000000E+00  0.00000000000E+00  0.67286869735E+02  0.67286869735E+02  0.00000000000E+00 0.  1.
          1   -1    0    0  503    0  0.00000000000E+00 -0.00000000000E+00 -0.33986707085E+04  0.33986707085E+04  0.00000000000E+00 0. -1.
         25    1    1    2    0    0  0.39405016707E+02  0.36667190870E+03 -0.18908435180E+04  0.19305220158E+04  0.12500000000E+03 0.  0.
         21    1    1    2  502  501  0.36787660675E+02  0.74744732547E+02 -0.24022138042E+03  0.25425659997E+03  0.00000000000E+00 0. -1.
         21    1    1    2  503  502 -0.76192677382E+02 -0.44141664125E+03 -0.12003189403E+04  0.12811789624E+04  0.00000000000E+00 0.  1.
<mgrwt>
<rscale>  4 0.87162941E+03</rscale>
<asrwt>0</asrwt>
<pdfrwt beam="1">  1        1 0.52287228E+00 0.87162941E+03</pdfrwt>
<pdfrwt beam="2">  1       -1 0.10351829E-01 0.87162941E+03</pdfrwt>
<totfact> 0.18861024E+01</totfact>
</mgrwt>
</event>
<event>
 5    0  0.2465569E-003  0.3824193E+03  0.7546771E-02  0.1050043E+00
         -1   -1    0    0    0  501 -0.00000000000E+00  0.00000000000E+00  0.12819020501E+03  0.12819020501E+03  0.00000000000E+00 0.  1.
          1   -1    0    0  502    0  0.00000000000E+00 -0.00000000000E+00 -0.10242813778E+04  0.10242813778E+04  0.00000000000E+00 0. -1.
         25    1    1    2    0    0  0.67684433875E+02 -0.19005133232E+03 -0.51339278227E+03  0.56559512055E+03  0.12500000000E+03 0.  0.
         21    1    1    2  502  503 -0.99401180355E+02  0.97151366339E+02 -0.44793991460E+03  0.46900868833E+03  0.00000000000E+00 0.  1.
         21    1    1    2  503  501  0.31716746480E+02  0.92899965980E+02  0.65241524022E+02  0.11786777398E+03  0.00000000000E+00 0.  1.
<mgrwt>
<rscale>  4 0.38241926E+03</rscale>
<asrwt>0</asrwt>
<pdfrwt beam="1">  1        1 0.15758175E+00 0.38241926E+03</pdfrwt>
<pdfrwt beam="2">  1       -1 0.19721570E-01 0.38241926E+03</pdfrwt>
<totfact> 0.31465798E+02</totfact>
</mgrwt>
</event>
<event>
 5    0  0.2465569E-003  0.8254950E+03  0.7546771E-02  0.9523830E-01
          3   -1    0    0  502    0  0.00000000000E+00  0.00000000000E+00  0.70502287593E+03  0.70502287593E+03  0.00000000000E+00 0.  1.
         -3   -1    0    0    0  501 -0.00000000000E+00 -0.00000000000E+00 -0.41664268832E+03  0.41664268832E+03  0.00000000000E+00 0. -1.
         25    1    1    2    0    0  0.34974602242E+03 -0.79687970846E+02  0.32328139706E+03  0.49880689107E+03  0.12500000000E+03 0.  0.
         21    1    1    2  502  503 -0.15559210558E+03 -0.20609700353E+03  0.58874536552E+02  0.26486050902E+03  0.00000000000E+00 0.  1.
         21    1    1    2  503  501 -0.19415391685E+03  0.28578497438E+03 -0.93775745998E+02  0.35799816416E+03  0.00000000000E+00 0. -1.
<mgrwt>
<rscale>  4 0.82549504E+03</rscale>
<asrwt>0</asrwt>
<pdfrwt beam="1">  1        3 0.10846506E+00 0.82549504E+03</pdfrwt>
<pdfrwt beam="2">  1       -3 0.64098875E-01 0.82549504E+03</pdfrwt>
<totfact> 0.44490058E+00</totfact>
</mgrwt>
</event>
<event>
 5    0  0.2465569E-003  0.1304094E+04  0.7546771E-02  0.9026325E-01
          2   -1    0    0  503    0  0.00000000000E+00  0.00000000000E+00  0.30760773630E+03  0.30760773630E+03  0.00000000000E+00 0. -1.
         -2   -1    0    0    0  501 -0.00000000000E+00 -0.00000000000E+00 -0.15837016460E+04  0.15837016460E+04  0.00000000000E+00 0.  1.
         25    1    1    2    0    0  0.56304810239E+03 -0.27629663388E+03 -0.60476635338E+03  0.88018767185E+03  0.12500000000E+03 0.  0.
         21    1    1    2  502  501  0.46739736532E+02  0.22195912082E+02 -0.18147763248E+03  0.18870981049E+03  0.00000000000E+00 0. -1.
         21    1    1    2  503  502 -0.60978783892E+03  0.25410072180E+03 -0.48984992388E+03  0.82241189999E+03  0.00000000000E+00 0. -1.
<mgrwt>
<rscale>  4 0.13040937E+04</rscale>
<asrwt>0</asrwt>
<pdfrwt beam="1">  1        2 0.47324267E-01 0.13040937E+04</pdfrwt>
<pdfrwt beam="2">  1       -2 0.24364641E+00 0.13040937E+04</pdfrwt>
<totfact> 0.73567848E+00</totfact>
</mgrwt>
</event>
<event>
 5    0  0.2465569E-003  0.8657683E+03  0.7546771E-02  0.9469414E-01
          2   -1    0    0  503    0  0.00000000000E+00  0.00000000000E+00  0.26968977175E+04  0.26968977175E+04  0.00000000000E+00 0. -1.
         -2   -1    0    0    0  501 -0.00000000000E+00 -0.00000000000E+00 -0.12135869077E+03  0.12135869077E+03  0.00000000000E+00 0.  1.
         25    1    1    2    0    0  0.20815979040E+02  0.22245739298E+03  0.15791181528E+04  0.15997373963E+04  0.12500000000E+03 0.  0.
         21    1    1    2  502  501 -0.22285955253E+03 -0.10874765266E+03  0.61786098387E+02  0.25555812268E+03  0.00000000000E+00 0.  1.
         21    1    1    2  503  502  0.20204357349E+03 -0.11370974032E+03  0.93463477549E+03  0.96296088923E+03  0.00000000000E+00 0.  1.
<mgrwt>
<rscale>  4 0.86576827E+03</rscale>
<asrwt>0</asrwt>
<pdfrwt beam="1">  1        2 0.41490730E+00 0.86576827E+03</pdfrwt>
<pdfrwt beam="2">  1       -2 0.18670570E-01 0.86576827E+03</pdfrwt>
<totfact> 0.66132811E+01</totfact>
</mgrwt>
</event>
<event>
 5    0  0.2465569E-003  0.7552940E+03  0.7546771E-02  0.9627081E-01
         -2   -1    0    0    0  501 -0.00000000000E+00  0.00000000000E+00  0.46977896031E+03  0.46977896031E+03  0.00000000000E+00 0.  1.
          2   -1    0    0  503    0  0.00000000000E+00 -0.00000000000E+00 -0.43471752214E+03  0.43471752214E+03  0.00000000000E+00 0. -1.
         25    1    1    2    0    0 -0.10572093439E+03  0.20044803727E+03 -0.24915135168E+03  0.35924605448E+03  0.12500000000E+03 0.  0.
         21    1    1    2  502  501  0.17801144003E+03 -0.95316212428E+02  0.34820285711E+03  0.40251519578E+03  0.00000000000E+00 0.  1.
         21    1    1    2  503  502 -0.72290505640E+02 -0.10513182485E+03 -0.63990067263E+02  0.14273523219E+03  0.00000000000E+00 0. -1.
<mgrwt>
<rscale>  4 0.75529398E+03</rscale>
<asrwt>0</asrwt>
<pdfrwt beam="1">  1        2 0.66879619E-01 0.75529398E+03</pdfrwt>
<pdfrwt beam="2">  1       -2 0.72273686E-01 0.75529398E+03</pdfrwt>
<totfact> 0.12665632E+02</totfact>
</mgrwt>
</event>
<event>
 5    0  0.2465569E-003  0.5532680E+03  0.7546771E-02  0.1000740E+00
         -2   -1    0    0    0  501 -0.00000000000E+00  0.00000000000E+00  0.33102736608E+03  0.33102736608E+03  0.00000000000E+00 0.  1.
          2   -1    0    0  502    0  0.00000000000E+00 -0.00000000000E+00 -0.33824373293E+03  0.33824373293E+03  0.00000000000E+00 0. -1.
         25    1    1    2    0    0  0.11427701410E+03 -0.28314899289E+03  0.13521886276E+02  0.33021270347E+03  0.12500000000E+03 0.  0.
         21    1    1    2  502  503 -0.79034634851E+02  0.19665029745E+03 -0.82120149594E+02  0.22729173316E+03  0.00000000000E+00 0. -1.
         21    1    1    2  503  501 -0.35242379245E+02  0.86498695440E+02  0.61381896466E+02  0.11176666239E+03  0.00000000000E+00 0. -1.
<mgrwt>
<rscale>  4 0.55326800E+03</rscale>
<asrwt>0</asrwt>
<pdfrwt beam="1">  1        2 0.52037498E-01 0.55326800E+03</pdfrwt>
<pdfrwt beam="2">  1       -2 0.50927287E-01 0.55326800E+03</pdfrwt>
<totfact> 0.35424370E+02</totfact>
</mgrwt>
</event>
<event>
 5    0  0.2465569E-003  0.1010903E+04  0.7546771E-02  0.9296666E-01
          1   -1    0    0  502    0  0.00000000000E+00  0.00000000000E+00  0.13069262851E+04  0.13069262851E+04  0.00000000000E+00 0. -1.
         -1   -1    0    0    0  501 -0.00000000000E+00 -0.00000000000E+00 -0.28770534315E+03  0.28770534315E+03  0.00000000000E+00 0.  1.
         25    1    1    2    0    0  0.44817112962E+03 -0.48433500646E+01  0.62868792833E+03  0.78214725640E+03  0.12500000000E+03 0.  0.
         21    1    1    2  502  503 -0.46771495921E+03 -0.19799625043E+03  0.29586817656E+03  0.58779058869E+03  0.00000000000E+00 0.  1.
         21    1    1    2  503  501  0.19543829592E+02  0.20283960049E+03  0.94664837028E+02  0.22469378312E+03  0.00000000000E+00 0.  1.
<mgrwt>
<rscale>  4 0.10109034E+04</rscale>
<asrwt>0</asrwt>
<pdfrwt beam="1">  1        1 0.20106558E+00 0.10109034E+04</pdfrwt>
<pdfrwt beam="2">  1       -1 0.44262361E-01 0.10109034E+04</pdfrwt>
<totfact> 0.45294157E+01</totfact>
</mgrwt>
</event>
<event>
 5    0  0.2465569E-003  0.5752368E+03  0.7546771E-02  0.9958157E-01
          1   -1    0    0  502    0  0.00000000000E+00  0.00000000000E+00  0.50202948243E+03  0.50202948243E+03  0.00000000000E+00 0. -1.
         -1   -1    0    0    0  501 -0.00000000000E+00 -0.00000000000E+00 -0.28602843186E+03  0.28602843186E+03  0.00000000000E+00 0.  1.
         25    1    1    2    0    0 -0.19804263208E+03 -0.30796520390E+02  0.20660724100E+03  0.31381660540E+03  0.12500000000E+03 0.  0.
         21    1    1    2  502  503  0.27465748942E+02  0.38533234475E+02  0.20742817560E+03  0.21275719860E+03  0.00000000000E+00 0. -1.
         21    1    1    2  503  501  0.17057688314E+03 -0.77367140850E+01 -0.19803436603E+03  0.26148411029E+03  0.00000000000E+00 0.  1.
<mgrwt>
<rscale>  4 0.57523684E+03</rscale>
<asrwt>0</asrwt>
<pdfrwt beam="1">  1        1 0.77235305E-01 0.57523684E+03</pdfrwt>
<pdfrwt beam="2">  1       -1 0.44004374E-01 0.57523684E+03</pdfrwt>
<totfact> 0.22994981E+02</totfact>
</mgrwt>
</event>
<event>
 5    0  0.2465569E-003  0.6925247E+03  0.7546771E-02  0.9730102E-01
          1   -1    0    0  502    0  0.00000000000E+00  0.00000000000E+00  0.71591777582E+03  0.71591777582E+03  0.00000000000E+00 0.  1.
         -1   -1    0    0    0  501 -0.00000000000E+00 -0.00000000000E+00 -0.23580978130E+03  0.23580978130E+03  0.00000000000E+00 0. -1.
         25    1    1    2    0    0  0.23852401413E+03  0.61763762795E+01  0.43593201429E+03  0.51243884906E+03  0.12500000000E+03 0.  0.
         21    1    1    2  502  503 -0.30616415653E+01 -0.12454855967E+03  0.11159701816E+03  0.16725911583E+03  0.00000000000E+00 0. -1.
         21    1    1    2  503  501 -0.23546237256E+03  0.11837218339E+03 -0.67421037926E+02  0.27202959223E+03  0.00000000000E+00 0.  1.
<mgrwt>
<rscale>  4 0.69252465E+03</rscale>
<asrwt>0</asrwt>
<pdfrwt beam="1">  1        1 0.11014120E+00 0.69252465E+03</pdfrwt>
<pdfrwt beam="2">  1       -1 0.36278428E-01 0.69252465E+03</pdfrwt>
<totfact> 0.19471592E+02</totfact>
</mgrwt>
</event>
<event>
 5    0  0.2465569E-003  0.4489975E+03  0.7546771E-02  0.1028021E+00
          2   -1    0    0  503    0  0.00000000000E+00  0.00000000000E+00  0.10335209268E+04  0.10335209268E+04  0.00000000000E+00 0.  1.
         -2   -1    0    0    0  501 -0.00000000000E+00 -0.00000000000E+00 -0.10184774709E+03  0.10184774709E+03  0.00000000000E+00 0. -1.
         25    1    1    2    0    0  0.15097943835E+03  0.14275613112E+03  0.38062117734E+03  0.45129988303E+03  0.12500000000E+03 0.  0.
         21    1    1    2  502  501  0.46369083076E+02 -0.13580299539E+03  0.61376792942E+02  0.15607580252E+03  0.00000000000E+00 0. -1.
         21    1    1    2  503  502 -0.19734852143E+03 -0.69531357310E+01  0.48967520945E+03  0.52799298836E+03  0.00000000000E+00 0.  1.
<mgrwt>
<rscale>  4 0.44899747E+03</rscale>
<asrwt>0</asrwt>
<pdfrwt beam="1">  1        2 0.15900321E+00 0.44899747E+03</pdfrwt>
<pdfrwt beam="2">  1       -2 0.15668885E-01 0.44899747E+03</pdfrwt>
<totfact> 0.79234273E+02</totfact>
</mgrwt>
</event>
<event>
 5    0  0.2465569E-003  0.4352311E+03  0.7546771E-02  0.1032220E+00
          2   -1    0    0  502    0  0.00000000000E+00  0.00000000000E+00  0.80516630976E+02  0.80516630976E+02  0.00000000000E+00 0.  1.
         -2   -1    0    0    0  501 -0.00000000000E+00 -0.00000000000E+00 -0.10768976824E+04  0.10768976824E+04  0.00000000000E+00 0. -1.
         25    1    1    2    0    0 -0.92756537775E+02 -0.18584108874E+03 -0.47228741494E+03  0.53086823965E+03  0.12500000000E+03 0.  0.
         21    1    1    2  502  503  0.62241109632E+02  0.20785162141E+01  0.80001365609E+01  0.62787563600E+02  0.00000000000E+00 0.  1.
         21    1    1    2  503  501  0.30515428143E+02  0.18376257253E+03 -0.53209377301E+03  0.56375851008E+03  0.00000000000E+00 0. -1.
<mgrwt>
<rscale>  4 0.43523115E+03</rscale>
<asrwt>0</asrwt>
<pdfrwt beam="1">  1        2 0.12387175E-01 0.43523115E+03</pdfrwt>
<pdfrwt beam="2">  1       -2 0.16567656E+00 0.43523115E+03</pdfrwt>
<totfact> 0.11914780E+02</totfact>
</mgrwt>
</event>
<event>
 5    0  0.2465569E-003  0.4026591E+03  0.7546771E-02  0.1042863E+00
         -3   -1    0    0    0  501 -0.00000000000E+00  0.00000000000E+00  0.61828328424E+02  0.61828328424E+02  0.00000000000E+00 0.  1.
          3   -1    0    0  503    0  0.00000000000E+00 -0.00000000000E+00 -0.12544066232E+04  0.12544066232E+04  0.00000000000E+00 0. -1.
         25    1    1    2    0    0  0.20288882686E+03 -0.70060306671E+02 -0.38364767352E+03  0.45703704449E+03  0.12500000000E+03 0.  0.
         21    1    1    2  502  501 -0.13465674366E+03  0.75259192246E+02 -0.23439737547E+03  0.28060383863E+03  0.00000000000E+00 0. -1.
         21    1    1    2  503  502 -0.68232083204E+02 -0.51988855758E+01 -0.57453324584E+03  0.57859406855E+03  0.00000000000E+00 0.  1.
<mgrwt>
<rscale>  4 0.40265915E+03</rscale>
<asrwt>0</asrwt>
<pdfrwt beam="1">  1        3 0.19298564E+00 0.40265915E+03</pdfrwt>
<pdfrwt beam="2">  1       -3 0.95120505E-02 0.40265915E+03</pdfrwt>
<totfact> 0.35981409E+01</totfact>
</mgrwt>
</event>
<event>
 5    0  0.2465569E-003  0.5388349E+03  0.7546771E-02  0.1004112E+00
         -2   -1    0    0    0  501 -0.00000000000E+00  0.00000000000E+00  0.12412595068E+03  0.12412595068E+03  0.00000000000E+00 0.  1.
          2   -1    0    0  503    0  0.00000000000E+00 -0.00000000000E+00 -0.58477507010E+03  0.58477507010E+03  0.00000000000E+00 0. -1.
         25    1    1    2    0    0  0.21124410689E+03  0.12193679484E+03 -0.20332577129E+03  0.34126093228E+03  0.12500000000E+03 0.  0.
         21    1    1    2  502  501 -0.98197333352E+02 -0.82648531858E+02 -0.19296947122E+03  0.23175571820E+03  0.00000000000E+00 0. -1.
         21    1    1    2  503  502 -0.11304677354E+03 -0.39288262979E+02 -0.64353876916E+02  0.13588437029E+03  0.00000000000E+00 0.  1.
<mgrwt>
<rscale>  4 0.53883490E+03</rscale>
<asrwt>0</asrwt>
<pdfrwt beam="1">  1        2 0.89965392E-01 0.53883490E+03</pdfrwt>
<pdfrwt beam="2">  1       -2 0.19096301E-01 0.53883490E+03</pdfrwt>
<totfact> 0.11862476E+03</totfact>
</mgrwt>
</event>
<event>
 5    0  0.2465569E-003  0.8439873E+03  0.7546771E-02  0.9498443E-01
         -1   -1    0    0    0  501 -0.00000000000E+00  0.00000000000E+00  0.41429172974E+03  0.41429172974E+03  0.00000000000E+00 0.  1.
          1   -1    0    0  502    0  0.00000000000E+00 -0.00000000000E+00 -0.68747392086E+03  0.68747392086E+03  0.00000000000E+00 0. -1.
         25    1    1    2    0    0 -0.29617155244E+03  0.20247776157E+03 -0.78708630750E+02  0.38798824849E+03  0.12500000000E+03 0.  0.
         21    1    1    2  502  503  0.22394087255E+03 -0.40008270224E+03 -0.20690869667E+03  0.50301778476E+03  0.00000000000E+00 0.  1.
         21    1    1    2  503  501  0.72230679892E+02  0.19760494067E+03  0.12435136304E+02  0.21075961736E+03  0.00000000000E+00 0.  1.
<mgrwt>
<rscale>  4 0.84398726E+03</rscale>
<asrwt>0</asrwt>
<pdfrwt beam="1">  1        1 0.10576522E+00 0.84398726E+03</pdfrwt>
<pdfrwt beam="2">  1       -1 0.63737190E-01 0.84398726E+03</pdfrwt>
<totfact> 0.70818248E+01</totfact>
</mgrwt>
</event>
<event>
 5    0  0.2465569E-003  0.5101110E+03  0.7546771E-02  0.1011173E+00
         -1   -1    0    0    0  501 -0.00000000000E+00  0.00000000000E+00  0.15389329406E+03  0.15389329406E+03  0.00000000000E+00 0.  1.
          1   -1    0    0  503    0  0.00000000000E+00 -0.00000000000E+00 -0.10650508843E+04  0.10650508843E+04  0.00000000000E+00 0. -1.
         25    1    1    2    0    0  0.18452287592E+03  0.12575580617E+03 -0.30045000404E+03  0.39466241201E+03  0.12500000000E+03 0.  0.
         21    1    1    2  502  501 -0.10394614145E+03 -0.15421874947E+03  0.20690902819E+02  0.18712652530E+03  0.00000000000E+00 0.  1.
         21    1    1    2  503  502 -0.80576734467E+02  0.28462943296E+02 -0.63139848906E+03  0.63715524110E+03  0.00000000000E+00 0. -1.
<mgrwt>
<rscale>  4 0.51011098E+03</rscale>
<asrwt>0</asrwt>
<pdfrwt beam="1">  1        1 0.16385398E+00 0.51011098E+03</pdfrwt>
<pdfrwt beam="2">  1       -1 0.23675891E-01 0.51011098E+03</pdfrwt>
<totfact> 0.21385353E+02</totfact>
</mgrwt>
</event>
<event>
 5    0  0.2465569E-003  0.4990794E+03  0.7546771E-02  0.1014019E+00
          2   -1    0    0  502    0  0.00000000000E+00  0.00000000000E+00  0.12083587783E+04  0.12083587783E+04  0.00000000000E+00 0.  1.
         -2   -1    0    0    0  501 -0.00000000000E+00 -0.00000000000E+00 -0.16321212947E+03  0.16321212947E+03  0.00000000000E+00 0. -1.
         25    1    1    2    0    0  0.34752034140E+02  0.27245713320E+03  0.80268598478E+02  0.31226373663E+03  0.12500000000E+03 0.  0.
         21    1    1    2  502  503 -0.12785679726E+03 -0.12162630448E+03  0.79302893536E+03  0.81242551096E+03  0.00000000000E+00 0.  1.
         21    1    1    2  503  501  0.93104763118E+02 -0.15083082872E+03  0.17184911500E+03  0.24688166019E+03  0.00000000000E+00 0.  1.
<mgrwt>
<rscale>  4 0.49907939E+03</rscale>
<asrwt>0</asrwt>
<pdfrwt beam="1">  1        2 0.18590134E+00 0.49907939E+03</pdfrwt>
<pdfrwt beam="2">  1       -2 0.25109559E-01 0.49907939E+03</pdfrwt>
<totfact> 0.27382080E+02</totfact>
</mgrwt>
</event>
<event>
 5    0  0.2465569E-003  0.4674907E+03  0.7546771E-02  0.1022631E+00
          2   -1    0    0  503    0  0.00000000000E+00  0.00000000000E+00  0.10609005593E+04  0.10609005593E+04  0.00000000000E+00 0. -1.
         -2   -1    0    0    0  501 -0.00000000000E+00 -0.00000000000E+00 -0.10156829355E+03  0.10156829355E+03  0.00000000000E+00 0.  1.
         25    1    1    2    0    0 -0.96208441318E+02  0.19601921413E+03  0.68773752554E+03  0.73231653028E+03  0.12500000000E+03 0.  0.
         21    1    1    2  502  501 -0.35446486446E+02 -0.44965753296E+02 -0.32604562378E+02  0.65889527686E+02  0.00000000000E+00 0.  1.
         21    1    1    2  503  502  0.13165492776E+03 -0.15105346084E+03  0.30419930256E+03  0.36426279485E+03  0.00000000000E+00 0. -1.
<mgrwt>
<rscale>  4 0.46749069E+03</rscale>
<asrwt>0</asrwt>
<pdfrwt beam="1">  1        2 0.16321546E+00 0.46749069E+03</pdfrwt>
<pdfrwt beam="2">  1       -2 0.15625892E-01 0.46749069E+03</pdfrwt>
<totfact> 0.76517230E+02</totfact>
</mgrwt>
</event>
<event>
 5    0  0.2465569E-003  0.7972723E+03  0.7546771E-02  0.9563974E-01
          2   -1    0    0  503    0  0.00000000000E+00  0.00000000000E+00  0.10824755853E+04  0.10824755853E+04  0.00000000000E+00 0. -1.
         -2   -1    0    0    0  501 -0.00000000000E+00 -0.00000000000E+00 -0.31420705014E+03  0.31420705014E+03  0.00000000000E+00 0.  1.
         25    1    1    2    0    0  0.81849230538E+02 -0.37329112812E+03  0.37305846193E+03  0.54849173092E+03  0.12500000000E+03 0.  0.
         21    1    1    2  502  501  0.12501567062E+03  0.24417037579E+03 -0.10339134456E+03  0.29315159977E+03  0.00000000000E+00 0. -1.
         21    1    1    2  503  502 -0.20686490116E+03  0.12912075232E+03  0.49860141782E+03  0.55503930480E+03  0.00000000000E+00 0. -1.
<mgrwt>
<rscale>  4 0.79727231E+03</rscale>
<asrwt>0</asrwt>
<pdfrwt beam="1">  1        2 0.16653470E+00 0.79727231E+03</pdfrwt>
<pdfrwt beam="2">  1       -2 0.48339547E-01 0.79727231E+03</pdfrwt>
<totfact> 0.91536876E+01</totfact>
</mgrwt>
</event>
<event>
 5    0  0.2465569E-003  0.5209164E+03  0.7546771E-02  0.1008459E+00
         -2   -1    0    0    0  501 -0.00000000000E+00  0.00000000000E+00  0.12097178649E+03  0.12097178649E+03  0.00000000000E+00 0.  1.
          2   -1    0    0  502    0  0.00000000000E+00 -0.00000000000E+00 -0.10114644383E+04  0.10114644383E+04  0.00000000000E+00 0. -1.
         25    1    1    2    0    0  0.24994707698E+03  0.79546930401E+01 -0.45075272619E+03  0.53041477977E+03  0.12500000000E+03 0.  0.
         21    1    1    2  502  503 -0.93211546776E+02  0.14850091442E+03 -0.27446945097E+03  0.32569064087E+03  0.00000000000E+00 0. -1.
         21    1    1    2  503  501 -0.15673553020E+03 -0.15645560746E+03 -0.16527047467E+03  0.27633080417E+03  0.00000000000E+00 0.  1.
<mgrwt>
<rscale>  4 0.52091636E+03</rscale>
<asrwt>0</asrwt>
<pdfrwt beam="1">  1        2 0.15560992E+00 0.52091636E+03</pdfrwt>
<pdfrwt beam="2">  1       -2 0.18611044E-01 0.52091636E+03</pdfrwt>
<totfact> 0.60809438E+02</totfact>
</mgrwt>
</event>
<event>
 5    0  0.2465569E-003  0.2130241E+04  0.7546771E-02  0.8548038E-01
          2   -1    0    0  502    0  0.00000000000E+00  0.00000000000E+00  0.23855463216E+04  0.23855463216E+04  0.00000000000E+00 0. -1.
         -2   -1    0    0    0  501 -0.00000000000E+00 -0.00000000000E+00 -0.73232271530E+03  0.73232271530E+03  0.00000000000E+00 0.  1.
         25    1    1    2    0    0  0.40411030524E+03  0.11677982526E+03  0.14628442731E+04  0.15272462256E+04  0.12500000000E+03 0.  0.
         21    1    1    2  502  503  0.63789239448E+00 -0.87519149179E+02  0.82920085048E+03  0.83380696736E+03  0.00000000000E+00 0. -1.
         21    1    1    2  503  501 -0.40474819763E+03 -0.29260676080E+02 -0.63882151727E+03  0.75681584390E+03  0.00000000000E+00 0.  1.
<mgrwt>
<rscale>  4 0.21302408E+04</rscale>
<asrwt>0</asrwt>
<pdfrwt beam="1">  1        2 0.36700712E+00 0.21302408E+04</pdfrwt>
<pdfrwt beam="2">  1       -2 0.11266503E+00 0.21302408E+04</pdfrwt>
<totfact> 0.22779444E+00</totfact>
</mgrwt>
</event>
<event>
 5    0  0.2465569E-003  0.6985381E+03  0.7546771E-02  0.9719736E-01
          2   -1    0    0  502    0  0.00000000000E+00  0.00000000000E+00  0.26586916722E+04  0.26586916722E+04  0.00000000000E+00 0. -1.
         -2   -1    0    0    0  501 -0.00000000000E+00 -0.00000000000E+00 -0.69675207702E+02  0.69675207702E+02  0.00000000000E+00 0.  1.
         25    1    1    2    0    0  0.12298000466E+03  0.17551177492E+03  0.18996369319E+04  0.19157698029E+04  0.12500000000E+03 0.  0.
         21    1    1    2  502  503 -0.10633351540E+03  0.10281882105E+03  0.28959606454E+03  0.32518365127E+03  0.00000000000E+00 0.  1.
         21    1    1    2  503  501 -0.16646489261E+02 -0.27833059597E+03  0.39978346812E+03  0.48741342579E+03  0.00000000000E+00 0.  1.
<mgrwt>
<rscale>  4 0.69853808E+03</rscale>
<asrwt>0</asrwt>
<pdfrwt beam="1">  1        2 0.40902941E+00 0.69853808E+03</pdfrwt>
<pdfrwt beam="2">  1       -2 0.10719265E-01 0.69853808E+03</pdfrwt>
<totfact> 0.18061633E+02</totfact>
</mgrwt>
</event>
<event>
 5    0  0.2465569E-003  0.6341007E+03  0.7546771E-02  0.9837079E-01
         -2   -1    0    0    0  501 -0.00000000000E+00  0.00000000000E+00  0.10155023168E+03  0.10155023168E+03  0.00000000000E+00 0. -1.
          2   -1    0    0  502    0  0.00000000000E+00 -0.00000000000E+00 -0.12427544033E+04  0.12427544033E+04  0.00000000000E+00 0.  1.
         25    1    1    2    0    0  0.11994356121E+03  0.17189613587E+03 -0.91401377253E+03  0.94603431004E+03  0.12500000000E+03 0.  0.
         21    1    1    2  502  503 -0.24508942001E+02 -0.37516195802E+02 -0.22909737116E+03  0.23343898273E+03  0.00000000000E+00 0.  1.
         21    1    1    2  503  501 -0.95434619209E+02 -0.13437994007E+03  0.19069720516E+01  0.16483134222E+03  0.00000000000E+00 0. -1.
<mgrwt>
<rscale>  4 0.63410069E+03</rscale>
<asrwt>0</asrwt>
<pdfrwt beam="1">  1        2 0.19119299E+00 0.63410069E+03</pdfrwt>
<pdfrwt beam="2">  1       -2 0.15623112E-01 0.63410069E+03</pdfrwt>
<totfact> 0.59189330E+02</totfact>
</mgrwt>
</event>
<event>
 5    0  0.2465569E-003  0.1098367E+04  0.7546771E-02  0.9206785E-01
          1   -1    0    0  502    0  0.00000000000E+00  0.00000000000E+00  0.11434659861E+04  0.11434659861E+04  0.00000000000E+00 0. -1.
         -1   -1    0    0    0  501 -0.00000000000E+00 -0.00000000000E+00 -0.49705453601E+03  0.49705453601E+03  0.00000000000E+00 0.  1.
         25    1    1    2    0    0  0.35801652835E+03  0.18755607303E+03  0.22241195785E+03  0.47795940633E+03  0.12500000000E+03 0.  0.
         21    1    1    2  502  503 -0.61282277763E+03 -0.26358705860E+03  0.55346904711E+03  0.86680902185E+03  0.00000000000E+00 0. -1.
         21    1    1    2  503  501  0.25480624928E+03  0.76030985578E+02 -0.12946955486E+03  0.29575209395E+03  0.00000000000E+00 0.  1.
<mgrwt>
<rscale>  4 0.10983673E+04</rscale>
<asrwt>0</asrwt>
<pdfrwt beam="1">  1        1 0.17591784E+00 0.10983673E+04</pdfrwt>
<pdfrwt beam="2">  1       -1 0.76469929E-01 0.10983673E+04</pdfrwt>
<totfact> 0.20088530E+01</totfact>
</mgrwt>
</event>
<event>
 5    0  0.2465569E-003  0.5909778E+03  0.7546771E-02  0.9924303E-01
         -1   -1    0    0    0  501 -0.00000000000E+00  0.00000000000E+00  0.12830881320E+03  0.12830881320E+03  0.00000000000E+00 0.  1.
          1   -1    0    0  503    0  0.00000000000E+00 -0.00000000000E+00 -0.12442342575E+04  0.12442342575E+04  0.00000000000E+00 0. -1.
         25    1    1    2    0    0 -0.32239424845E+03 -0.83589519449E+02 -0.50053836759E+03  0.61407566034E+03  0.12500000000E+03 0.  0.
         21    1    1    2  502  501  0.19886897486E+03  0.55008758353E+02 -0.10298006828E+03  0.23060730067E+03  0.00000000000E+00 0. -1.
         21    1    1    2  503  502  0.12352527358E+03  0.28580761096E+02 -0.51240700838E+03  0.52786010964E+03  0.00000000000E+00 0. -1.
<mgrwt>
<rscale>  4 0.59097784E+03</rscale>
<asrwt>0</asrwt>
<pdfrwt beam="1">  1        1 0.19142065E+00 0.59097784E+03</pdfrwt>
<pdfrwt beam="2">  1       -1 0.19739818E-01 0.59097784E+03</pdfrwt>
<totfact> 0.21306340E+02</totfact>
</mgrwt>
</event>
<event>
 5    0  0.2465569E-003  0.8430359E+03  0.7546771E-02  0.9499732E-01
         -2   -1    0    0    0  501 -0.00000000000E+00  0.00000000000E+00  0.25522404325E+03  0.25522404325E+03  0.00000000000E+00 0.  1.
          2   -1    0    0  503    0  0.00000000000E+00 -0.00000000000E+00 -0.12641530137E+04  0.12641530137E+04  0.00000000000E+00 0. -1.
         25    1    1    2    0    0 -0.20723705105E+03 -0.26353618158E+03 -0.37980724443E+03  0.52180174132E+03  0.12500000000E+03 0.  0.
         21    1    1    2  502  501  0.18049775469E+03  0.39572560227E+03 -0.93036053678E+02  0.44478522798E+03  0.00000000000E+00 0.  1.
         21    1    1    2  503  502  0.26739296358E+02 -0.13218942070E+03 -0.53608567239E+03  0.55279008769E+03  0.00000000000E+00 0.  1.
<mgrwt>
<rscale>  4 0.84303593E+03</rscale>
<asrwt>0</asrwt>
<pdfrwt beam="1">  1        2 0.19448508E+00 0.84303593E+03</pdfrwt>
<pdfrwt beam="2">  1       -2 0.39265238E-01 0.84303593E+03</pdfrwt>
<totfact> 0.10727342E+02</totfact>
</mgrwt>
</event>
<event>
 5    0  0.2465569E-003  0.8456381E+03  0.7546771E-02  0.9496210E-01
         -1   -1    0    0    0  501 -0.00000000000E+00  0.00000000000E+00  0.11689394357E+03  0.11689394357E+03  0.00000000000E+00 0.  1.
          1   -1    0    0  503    0  0.00000000000E+00 -0.00000000000E+00 -0.18180362263E+04  0.18180362263E+04  0.00000000000E+00 0. -1.
         25    1    1    2    0    0 -0.19540479019E+03  0.27155659346E+03 -0.11632211618E+04  0.12168132506E+04  0.12500000000E+03 0.  0.
         21    1    1    2  502  501  0.23293684223E+03 -0.26907500406E+03 -0.26781714586E+03  0.44540650410E+03  0.00000000000E+00 0.  1.
         21    1    1    2  503  502 -0.37532052034E+02 -0.24815893973E+01 -0.27010397504E+03  0.27271041518E+03  0.00000000000E+00 0. -1.
<mgrwt>
<rscale>  4 0.84563815E+03</rscale>
<asrwt>0</asrwt>
<pdfrwt beam="1">  1        1 0.27969787E+00 0.84563815E+03</pdfrwt>
<pdfrwt beam="2">  1       -1 0.17983685E-01 0.84563815E+03</pdfrwt>
<totfact> 0.98411927E+01</totfact>
</mgrwt>
</event>
<event>
 5    0  0.2465569E-003  0.5779411E+03  0.7546771E-02  0.9952259E-01
         -1   -1    0    0    0  501 -0.00000000000E+00  0.00000000000E+00  0.23253208612E+03  0.23253208612E+03  0.00000000000E+00 0. -1.
          1   -1    0    0  502    0  0.00000000000E+00 -0.00000000000E+00 -0.70277646278E+03  0.70277646278E+03  0.00000000000E+00 0.  1.
         25    1    1    2    0    0 -0.22099639976E+03 -0.13575716585E+03 -0.64976133634E+02  0.29515473015E+03  0.12500000000E+03 0.  0.
         21    1    1    2  502  503  0.12874833685E+03  0.54221723336E+02 -0.47742905543E+03  0.49744812040E+03  0.00000000000E+00 0.  1.
         21    1    1    2  503  501  0.92248062909E+02  0.81535442516E+02  0.72160812395E+02  0.14270569835E+03  0.00000000000E+00 0.  1.
<mgrwt>
<rscale>  4 0.57794108E+03</rscale>
<asrwt>0</asrwt>
<pdfrwt beam="1">  1        1 0.10811945E+00 0.57794108E+03</pdfrwt>
<pdfrwt beam="2">  1       -1 0.35774168E-01 0.57794108E+03</pdfrwt>
<totfact> 0.20684131E+02</totfact>
</mgrwt>
</event>
<event>
 5    0  0.2465569E-003  0.7291603E+03  0.7546771E-02  0.9668624E-01
          2   -1    0    0  502    0  0.00000000000E+00  0.00000000000E+00  0.37619106832E+03  0.37619106832E+03  0.00000000000E+00 0.  1.
         -2   -1    0    0    0  501 -0.00000000000E+00 -0.00000000000E+00 -0.74252045854E+03  0.74252045854E+03  0.00000000000E+00 0. -1.
         25    1    1    2    0    0 -0.20623263787E+03  0.69129818288E+02 -0.14603784951E+02  0.25129485318E+03  0.12500000000E+03 0.  0.
         21    1    1    2  502  503 -0.11205504392E+03  0.19611101770E+03  0.10644705073E+03  0.24969348959E+03  0.00000000000E+00 0.  1.
         21    1    1    2  503  501  0.31828768179E+03 -0.26524083599E+03 -0.45817265600E+03  0.61772318409E+03  0.00000000000E+00 0. -1.
<mgrwt>
<rscale>  4 0.72916033E+03</rscale>
<asrwt>0</asrwt>
<pdfrwt beam="1">  1        2 0.57875549E-01 0.72916033E+03</pdfrwt>
<pdfrwt beam="2">  1       -2 0.11423392E+00 0.72916033E+03</pdfrwt>
<totfact> 0.51702086E+01</totfact>
</mgrwt>
</event>
<event>
 5    0  0.2465569E-003  0.5010198E+03  0.7546771E-02  0.1013513E+00
         -2   -1    0    0    0  501 -0.00000000000E+00  0.00000000000E+00  0.10540880516E+03  0.10540880516E+03  0.00000000000E+00 0. -1.
          2   -1    0    0  503    0  0.00000000000E+00 -0.00000000000E+00 -0.23397397966E+04  0.23397397966E+04  0.00000000000E+00 0.  1.
         25    1    1    2    0    0 -0.15724581642E+03 -0.13585119663E+03 -0.58119202539E+03  0.62975468620E+03  0.12500000000E+03 0.  0.
         21    1    1    2  502  501  0.14324517024E+02  0.11811674940E+03  0.32716424484E+02  0.12339822814E+03  0.00000000000E+00 0. -1.
         21    1    1    2  503  502  0.14292129940E+03  0.17734447221E+02 -0.16858553905E+04  0.16919956874E+04  0.00000000000E+00 0. -1.
<mgrwt>
<rscale>  4 0.50101977E+03</rscale>
<asrwt>0</asrwt>
<pdfrwt beam="1">  1        2 0.35995995E+00 0.50101977E+03</pdfrwt>
<pdfrwt beam="2">  1       -2 0.16216740E-01 0.50101977E+03</pdfrwt>
<totfact> 0.14090305E+02</totfact>
</mgrwt>
</event>
<event>
 5    0  0.2465569E-003  0.5349745E+03  0.7546771E-02  0.1005033E+00
          2   -1    0    0  503    0  0.00000000000E+00  0.00000000000E+00  0.21211688387E+04  0.21211688387E+04  0.00000000000E+00 0.  1.
         -2   -1    0    0    0  501 -0.00000000000E+00 -0.00000000000E+00 -0.33731137708E+02  0.33731137708E+02  0.00000000000E+00 0. -1.
         25    1    1    2    0    0 -0.21325378399E+03  0.11893970496E+03  0.98964958720E+03  0.10269640380E+04  0.12500000000E+03 0.  0.
         21    1    1    2  502  501  0.46979085654E+02  0.89197467111E+01  0.16089537731E+03  0.16785088266E+03  0.00000000000E+00 0.  1.
         21    1    1    2  503  502  0.16627469833E+03 -0.12785945167E+03  0.93689273643E+03  0.96008505575E+03  0.00000000000E+00 0. -1.
<mgrwt>
<rscale>  4 0.53497453E+03</rscale>
<asrwt>0</asrwt>
<pdfrwt beam="1">  1        2 0.32633356E+00 0.53497453E+03</pdfrwt>
<pdfrwt beam="2">  1       -2 0.51894075E-02 0.53497453E+03</pdfrwt>
<totfact> 0.11591115E+03</totfact>
</mgrwt>
</event>
<event>
 5    0  0.2465569E-003  0.4524230E+03  0.7546771E-02  0.1027002E+00
         -1   -1    0    0    0  501 -0.00000000000E+00  0.00000000000E+00  0.11699695544E+03  0.11699695544E+03  0.00000000000E+00 0. -1.
          1   -1    0    0  503    0  0.00000000000E+00 -0.00000000000E+00 -0.77058770436E+03  0.77058770436E+03  0.00000000000E+00 0.  1.
         25    1    1    2    0    0  0.18312537913E+03  0.13167935619E+03 -0.36139475191E+03  0.44396567890E+03  0.12500000000E+03 0.  0.
         21    1    1    2  502  501 -0.85653621275E+02 -0.10585899492E+03 -0.17661533123E+01  0.13618292455E+03  0.00000000000E+00 0. -1.
         21    1    1    2  503  502 -0.97471757858E+02 -0.25820361276E+02 -0.29042984369E+03  0.30743605635E+03  0.00000000000E+00 0. -1.
<mgrwt>
<rscale>  4 0.45242299E+03</rscale>
<asrwt>0</asrwt>
<pdfrwt beam="1">  1        1 0.11855195E+00 0.45242299E+03</pdfrwt>
<pdfrwt beam="2">  1       -1 0.17999532E-01 0.45242299E+03</pdfrwt>
<totfact> 0.58181382E+02</totfact>
</mgrwt>
</event>
<event>
 5    0  0.2465569E-003  0.8450478E+03  0.7546771E-02  0.9497008E-01
          2   -1    0    0  503    0  0.00000000000E+00  0.00000000000E+00  0.45533556570E+03  0.45533556570E+03  0.00000000000E+00 0. -1.
         -2   -1    0    0    0  501 -0.00000000000E+00 -0.00000000000E+00 -0.57519484898E+03  0.57519484898E+03  0.00000000000E+00 0.  1.
         25    1    1    2    0    0 -0.35249939975E+03 -0.98544423874E+02 -0.42186047958E+02  0.38906489554E+03  0.12500000000E+03 0.  0.
         21    1    1    2  502  501 -0.96275847146E+02  0.54250280949E+02 -0.14836954034E+03  0.18500176277E+03  0.00000000000E+00 0. -1.
         21    1    1    2  503  502  0.44877524690E+03  0.44294142925E+02  0.70696305018E+02  0.45646375636E+03  0.00000000000E+00 0. -1.
<mgrwt>
<rscale>  4 0.84504785E+03</rscale>
<asrwt>0</asrwt>
<pdfrwt beam="1">  1        2 0.70051626E-01 0.84504785E+03</pdfrwt>
<pdfrwt beam="2">  1       -2 0.88491515E-01 0.84504785E+03</pdfrwt>
<totfact> 0.75843715E+01</totfact>
</mgrwt>
</event>
<event>
 5    0  0.2465569E-003  0.4761448E+03  0.7546771E-02  0.1020200E+00
         -1   -1    0    0    0  501 -0.00000000000E+00  0.00000000000E+00  0.14176598348E+03  0.14176598348E+03  0.00000000000E+00 0. -1.
          1   -1    0    0  502    0  0.00000000000E+00 -0.00000000000E+00 -0.78181776728E+03  0.78181776728E+03  0.00000000000E+00 0.  1.
         25    1    1    2    0    0  0.21614316521E+03 -0.10668291141E+03 -0.25577261798E+03  0.37301976296E+03  0.12500000000E+03 0.  0.
         21    1    1    2  502  503 -0.15218084061E+03 -0.82525757457E+02 -0.26918704252E+03  0.32004870372E+03  0.00000000000E+00 0. -1.
         21    1    1    2  503  501 -0.63962324601E+02  0.18920866887E+03 -0.11509212331E+03  0.23051528407E+03  0.00000000000E+00 0.  1.
<mgrwt>
<rscale>  4 0.47614483E+03</rscale>
<asrwt>0</asrwt>
<pdfrwt beam="1">  1        1 0.12027966E+00 0.47614483E+03</pdfrwt>
<pdfrwt beam="2">  1       -1 0.21810151E-01 0.47614483E+03</pdfrwt>
<totfact> 0.41390536E+02</totfact>
</mgrwt>
</event>
<event>
 5    0  0.2465569E-003  0.5701966E+03  0.7546771E-02  0.9969244E-01
         -2   -1    0    0    0  501 -0.00000000000E+00  0.00000000000E+00  0.52585006754E+02  0.52585006754E+02  0.00000000000E+00 0.  1.
          2   -1    0    0  503    0  0.00000000000E+00 -0.00000000000E+00 -0.33027477671E+04  0.33027477671E+04  0.00000000000E+00 0. -1.
         25    1    1    2    0    0  0.22017062006E+03  0.42469643917E+02 -0.10161092126E+04  0.10480370721E+04  0.12500000000E+03 0.  0.
         21    1    1    2  502  501  0.21590243334E+02  0.11225430006E+03 -0.93770617922E+02  0.14785159883E+03  0.00000000000E+00 0.  1.
         21    1    1    2  503  502 -0.24176086339E+03 -0.15472394398E+03 -0.21402829298E+04  0.21594441029E+04  0.00000000000E+00 0. -1.
<mgrwt>
<rscale>  4 0.57019657E+03</rscale>
<asrwt>0</asrwt>
<pdfrwt beam="1">  1        2 0.50811484E+00 0.57019657E+03</pdfrwt>
<pdfrwt beam="2">  1       -2 0.80900043E-02 0.57019657E+03</pdfrwt>
<totfact> 0.11754882E+02</totfact>
</mgrwt>
</event>
<event>
 5    0  0.2465569E-003  0.4659704E+03  0.7546771E-02  0.1023064E+00
         -4   -1    0    0    0  501 -0.00000000000E+00  0.00000000000E+00  0.41221956169E+03  0.41221956169E+03  0.00000000000E+00 0.  1.
          4   -1    0    0  502    0  0.00000000000E+00 -0.00000000000E+00 -0.27023389498E+03  0.27023389498E+03  0.00000000000E+00 0. -1.
         25    1    1    2    0    0 -0.12842017002E+03  0.17730287689E+03  0.82758768144E+02  0.26533387256E+03  0.12500000000E+03 0.  0.
         21    1    1    2  502  503 -0.64828606657E+02 -0.19044873914E+03 -0.30800945020E+02  0.20352436880E+03  0.00000000000E+00 0. -1.
         21    1    1    2  503  501  0.19324877668E+03  0.13145862248E+02  0.90027843592E+02  0.21359521531E+03  0.00000000000E+00 0. -1.
<mgrwt>
<rscale>  4 0.46597042E+03</rscale>
<asrwt>0</asrwt>
<pdfrwt beam="1">  1        4 0.41574445E-01 0.46597042E+03</pdfrwt>
<pdfrwt beam="2">  1       -4 0.63418394E-01 0.46597042E+03</pdfrwt>
<totfact> 0.25382510E+01</totfact>
</mgrwt>
</event>
<event>
 5    0  0.2465569E-003  0.7290749E+03  0.7546771E-02  0.9668763E-01
         -2   -1    0    0    0  501 -0.00000000000E+00  0.00000000000E+00  0.18657181165E+03  0.18657181165E+03  0.00000000000E+00 0. -1.
          2   -1    0    0  503    0  0.00000000000E+00 -0.00000000000E+00 -0.27234836464E+04  0.27234836464E+04  0.00000000000E+00 0.  1.
         25    1    1    2    0    0 -0.76606753227E+02  0.21280743044E+03 -0.48234281552E+03  0.54720671484E+03  0.12500000000E+03 0.  0.
         21    1    1    2  502  501 -0.17756019143E+03 -0.32441352464E+03 -0.92471502519E+02  0.38121219200E+03  0.00000000000E+00 0. -1.
         21    1    1    2  503  502  0.25416694466E+03  0.11160609420E+03 -0.19620975167E+04  0.19816365512E+04  0.00000000000E+00 0. -1.
<mgrwt>
<rscale>  4 0.72907487E+03</rscale>
<asrwt>0</asrwt>
<pdfrwt beam="1">  1        2 0.41899748E+00 0.72907487E+03</pdfrwt>
<pdfrwt beam="2">  1       -2 0.28703356E-01 0.72907487E+03</pdfrwt>
<totfact> 0.30116193E+01</totfact>
</mgrwt>
</event>
<event>
 5    0  0.2465569E-003  0.5052088E+03  0.7546771E-02  0.1012428E+00
         -2   -1    0    0    0  501 -0.00000000000E+00  0.00000000000E+00  0.19692963500E+02  0.19692963500E+02  0.00000000000E+00 0. -1.
          2   -1    0    0  503    0  0.00000000000E+00 -0.00000000000E+00 -0.39810938845E+04  0.39810938845E+04  0.00000000000E+00 0.  1.
         25    1    1    2    0    0  0.68461760924E+02  0.21429692690E+03 -0.12667227481E+04  0.12926026869E+04  0.12500000000E+03 0.  0.
         21    1    1    2  502  501 -0.12601588922E+02 -0.32435523260E+02 -0.88860306083E+02  0.95430693226E+02  0.00000000000E+00 0.  1.
         21    1    1    2  503  502 -0.55860172002E+02 -0.18186140364E+03 -0.26058178668E+04  0.26127534679E+04  0.00000000000E+00 0.  1.
<mgrwt>
<rscale>  4 0.50520875E+03</rscale>
<asrwt>0</asrwt>
<pdfrwt beam="1">  1        2 0.61247638E+00 0.50520875E+03</pdfrwt>
<pdfrwt beam="2">  1       -2 0.30296847E-02 0.50520875E+03</pdfrwt>
<totfact> 0.18130023E+02</totfact>
</mgrwt>
</event>
<event>
 5    0  0.2465569E-003  0.1010268E+04  0.7546771E-02  0.9297355E-01
          2   -1    0    0  502    0  0.00000000000E+00  0.00000000000E+00  0.21919757715E+03  0.21919757715E+03  0.00000000000E+00 0. -1.
         -2   -1    0    0    0  501 -0.00000000000E+00 -0.00000000000E+00 -0.20148320694E+04  0.20148320694E+04  0.00000000000E+00 0.  1.
         25    1    1    2    0    0 -0.21469431644E+03  0.18235606912E+03 -0.58829986333E+02  0.31374090066E+03  0.12500000000E+03 0.  0.
         21    1    1    2  502  503  0.21528278879E+03  0.77965860692E+02 -0.79063048955E+02  0.24223195556E+03  0.00000000000E+00 0. -1.
         21    1    1    2  503  501 -0.58847235720E+00 -0.26032192981E+03 -0.16577414570E+04  0.16780567904E+04  0.00000000000E+00 0.  1.
<mgrwt>
<rscale>  4 0.10102675E+04</rscale>
<asrwt>0</asrwt>
<pdfrwt beam="1">  1        2 0.33722704E-01 0.10102675E+04</pdfrwt>
<pdfrwt beam="2">  1       -2 0.30997417E+00 0.10102675E+04</pdfrwt>
<totfact> 0.43550733E+00</totfact>
</mgrwt>
</event>
<event>
 5    0  0.2465569E-003  0.5836613E+03  0.7546771E-02  0.9939896E-01
         -2   -1    0    0    0  501 -0.00000000000E+00  0.00000000000E+00  0.28792464849E+03  0.28792464849E+03  0.00000000000E+00 0.  1.
          2   -1    0    0  502    0  0.00000000000E+00 -0.00000000000E+00 -0.47972040503E+03  0.47972040503E+03  0.00000000000E+00 0. -1.
         25    1    1    2    0    0 -0.17070611907E+03  0.14957665341E+03  0.93031551504E+02  0.27530641821E+03  0.12500000000E+03 0.  0.
         21    1    1    2  502  503  0.12530920562E+03  0.89882441530E+02 -0.78680274747E+02  0.17312375904E+03  0.00000000000E+00 0.  1.
         21    1    1    2  503  501  0.45396913445E+02 -0.23945909494E+03 -0.20614703330E+03  0.31921487628E+03  0.00000000000E+00 0. -1.
<mgrwt>
<rscale>  4 0.58366125E+03</rscale>
<asrwt>0</asrwt>
<pdfrwt beam="1">  1        2 0.73803139E-01 0.58366125E+03</pdfrwt>
<pdfrwt beam="2">  1       -2 0.44296100E-01 0.58366125E+03</pdfrwt>
<totfact> 0.31642836E+02</totfact>
</mgrwt>
</event>
<event>
 5    0  0.2465569E-003  0.9810153E+03  0.7546771E-02  0.9329615E-01
         -2   -1    0    0    0  501 -0.00000000000E+00  0.00000000000E+00  0.61428347304E+03  0.61428347304E+03  0.00000000000E+00 0.  1.
          2   -1    0    0  503    0  0.00000000000E+00 -0.00000000000E+00 -0.62439179858E+03  0.62439179858E+03  0.00000000000E+00 0. -1.
         25    1    1    2    0    0  0.32129654953E+03  0.16678144362E+03  0.34724256129E+03  0.51696220272E+03  0.12500000000E+03 0.  0.
         21    1    1    2  502  501 -0.45736868324E+02  0.17275387444E+03 -0.16771566547E+03  0.24508020464E+03  0.00000000000E+00 0. -1.
         21    1    1    2  503  502 -0.27555968120E+03 -0.33953531806E+03 -0.18963522135E+03  0.47663286426E+03  0.00000000000E+00 0.  1.
<mgrwt>
<rscale>  4 0.98101533E+03</rscale>
<asrwt>0</asrwt>
<pdfrwt beam="1">  1        2 0.96060276E-01 0.98101533E+03</pdfrwt>
<pdfrwt beam="2">  1       -2 0.94505150E-01 0.98101533E+03</pdfrwt>
<totfact> 0.44462935E+01</totfact>
</mgrwt>
</event>
<event>
 5    0  0.2465569E-003  0.1004960E+04  0.7546771E-02  0.9303122E-01
          1   -1    0    0  502    0  0.00000000000E+00  0.00000000000E+00  0.81878011862E+03  0.81878011862E+03  0.00000000000E+00 0. -1.
         -1   -1    0    0    0  501 -0.00000000000E+00 -0.00000000000E+00 -0.40639502537E+03  0.40639502537E+03  0.00000000000E+00 0.  1.
         25    1    1    2    0    0  0.35416542784E+03 -0.24695419442E+03  0.15222382303E+03  0.47456992817E+03  0.12500000000E+03 0.  0.
         21    1    1    2  502  503 -0.49043626979E+03  0.25621456987E+03  0.26589356763E+03  0.61389985327E+03  0.00000000000E+00 0. -1.
         21    1    1    2  503  501  0.13627084194E+03 -0.92603754454E+01 -0.57322974151E+01  0.13670536255E+03  0.00000000000E+00 0.  1.
<mgrwt>
<rscale>  4 0.10049599E+04</rscale>
<asrwt>0</asrwt>
<pdfrwt beam="1">  1        1 0.12596617E+00 0.10049599E+04</pdfrwt>
<pdfrwt beam="2">  1       -1 0.62522312E-01 0.10049599E+04</pdfrwt>
<totfact> 0.55382123E+01</totfact>
</mgrwt>
</event>
<event>
 5    0  0.2465569E-003  0.7886662E+03  0.7546771E-02  0.9576569E-01
          1   -1    0    0  503    0  0.00000000000E+00  0.00000000000E+00  0.60773585680E+03  0.60773585680E+03  0.00000000000E+00 0. -1.
         -1   -1    0    0    0  501 -0.00000000000E+00 -0.00000000000E+00 -0.25586543270E+03  0.25586543270E+03  0.00000000000E+00 0.  1.
         25    1    1    2    0    0  0.12884832001E+03  0.35022568828E+03  0.10936073471E+03  0.40846626862E+03  0.12500000000E+03 0.  0.
         21    1    1    2  502  501 -0.91716664385E+02 -0.33009672179E+03  0.21005497992E+03  0.40186924099E+03  0.00000000000E+00 0.  1.
         21    1    1    2  503  502 -0.37131655626E+02 -0.20128966495E+02  0.32454709472E+02  0.53265779902E+02  0.00000000000E+00 0. -1.
<mgrwt>
<rscale>  4 0.78866621E+03</rscale>
<asrwt>0</asrwt>
<pdfrwt beam="1">  1        1 0.93497824E-01 0.78866621E+03</pdfrwt>
<pdfrwt beam="2">  1       -1 0.39363913E-01 0.78866621E+03</pdfrwt>
<totfact> 0.21315623E+02</totfact>
</mgrwt>
</event>
<event>
 5    0  0.2465569E-003  0.7674942E+03  0.7546771E-02  0.9608298E-01
          2   -1    0    0  502    0  0.00000000000E+00  0.00000000000E+00  0.22381277494E+04  0.22381277494E+04  0.00000000000E+00 0. -1.
         -2   -1    0    0    0  501 -0.00000000000E+00 -0.00000000000E+00 -0.10424743666E+03  0.10424743666E+03  0.00000000000E+00 0.  1.
         25    1    1    2    0    0  0.45236481496E+02  0.31725127805E+03  0.42191378030E+03  0.54436288512E+03  0.12500000000E+03 0.  0.
         21    1    1    2  502  503 -0.17304062216E+03  0.31509045608E+02  0.62835257638E+03  0.65250504758E+03  0.00000000000E+00 0. -1.
         21    1    1    2  503  501  0.12780414067E+03 -0.34876032366E+03  0.10836139560E+04  0.11455072533E+04  0.00000000000E+00 0.  1.
<mgrwt>
<rscale>  4 0.76749418E+03</rscale>
<asrwt>0</asrwt>
<pdfrwt beam="1">  1        2 0.34432731E+00 0.76749418E+03</pdfrwt>
<pdfrwt beam="2">  1       -2 0.16038069E-01 0.76749418E+03</pdfrwt>
<totfact> 0.15804122E+02</totfact>
</mgrwt>
</event>
<event>
 5    0  0.2465569E-003  0.1086193E+04  0.7546771E-02  0.9218754E-01
          2   -1    0    0  503    0  0.00000000000E+00  0.00000000000E+00  0.24276321505E+04  0.24276321505E+04  0.00000000000E+00 0.  1.
         -2   -1    0    0    0  501 -0.00000000000E+00 -0.00000000000E+00 -0.23893812279E+03  0.23893812279E+03  0.00000000000E+00 0. -1.
         25    1    1    2    0    0 -0.28555645068E+02 -0.27224086056E+03  0.14764015044E+03  0.33519117686E+03  0.12500000000E+03 0.  0.
         21    1    1    2  502  501 -0.33385776507E+03 -0.24535473399E+03  0.41297464200E+03  0.58498547651E+03  0.00000000000E+00 0.  1.
         21    1    1    2  503  502  0.36241341014E+03  0.51759559455E+03  0.16280792353E+04  0.17463936199E+04  0.00000000000E+00 0. -1.
<mgrwt>
<rscale>  4 0.10861933E+04</rscale>
<asrwt>0</asrwt>
<pdfrwt beam="1">  1        2 0.37348185E+00 0.10861933E+04</pdfrwt>
<pdfrwt beam="2">  1       -2 0.36759713E-01 0.10861933E+04</pdfrwt>
<totfact> 0.26763271E+01</totfact>
</mgrwt>
</event>
<event>
 5    0  0.2465569E-003  0.4421975E+03  0.7546771E-02  0.1030075E+00
          2   -1    0    0  503    0  0.00000000000E+00  0.00000000000E+00  0.19312398220E+04  0.19312398220E+04  0.00000000000E+00 0. -1.
         -2   -1    0    0    0  501 -0.00000000000E+00 -0.00000000000E+00 -0.76815110448E+02  0.76815110448E+02  0.00000000000E+00 0.  1.
         25    1    1    2    0    0 -0.23899997530E+03 -0.10837767191E+02  0.41742521318E+03  0.49709883724E+03  0.12500000000E+03 0.  0.
         21    1    1    2  502  501  0.14689086034E+03 -0.80030427008E+02  0.17407356017E+03  0.24141954860E+03  0.00000000000E+00 0. -1.
         21    1    1    2  503  502  0.92109114960E+02  0.90868194199E+02  0.12629259382E+04  0.12695365466E+04  0.00000000000E+00 0. -1.
<mgrwt>
<rscale>  4 0.44219748E+03</rscale>
<asrwt>0</asrwt>
<pdfrwt beam="1">  1        2 0.29711378E+00 0.44219748E+03</pdfrwt>
<pdfrwt beam="2">  1       -2 0.11817711E-01 0.44219748E+03</pdfrwt>
<totfact> 0.40022971E+02</totfact>
</mgrwt>
</event>
<event>
 5    0  0.2465569E-003  0.4615787E+03  0.7546771E-02  0.1024324E+00
         -2   -1    0    0    0  501 -0.00000000000E+00  0.00000000000E+00  0.53902536738E+02  0.53902536738E+02  0.00000000000E+00 0. -1.
          2   -1    0    0  503    0  0.00000000000E+00 -0.00000000000E+00 -0.17944944327E+04  0.17944944327E+04  0.00000000000E+00 0.  1.
         25    1    1    2    0    0  0.18790022693E+03 -0.16290804365E+03 -0.78083040975E+03  0.82895515847E+03  0.12500000000E+03 0.  0.
         21    1    1    2  502  501 -0.13800423166E+02  0.13901537531E+03 -0.23242574825E+03  0.27117790231E+03  0.00000000000E+00 0.  1.
         21    1    1    2  503  502 -0.17409980377E+03  0.23892668339E+02 -0.72733573794E+03  0.74826390863E+03  0.00000000000E+00 0.  1.
<mgrwt>
<rscale>  4 0.46157866E+03</rscale>
<asrwt>0</asrwt>
<pdfrwt beam="1">  1        2 0.27607611E+00 0.46157866E+03</pdfrwt>
<pdfrwt beam="2">  1       -2 0.82926965E-02 0.46157866E+03</pdfrwt>
<totfact> 0.83706700E+02</totfact>
</mgrwt>
</event>
<event>
 5    0  0.2465569E-003  0.4936594E+03  0.7546771E-02  0.1015447E+00
          2   -1    0    0  503    0  0.00000000000E+00  0.00000000000E+00  0.36866844150E+04  0.36866844150E+04  0.00000000000E+00 0.  1.
         -2   -1    0    0    0  501 -0.00000000000E+00 -0.00000000000E+00 -0.40621062910E+02  0.40621062910E+02  0.00000000000E+00 0. -1.
         25    1    1    2    0    0 -0.99962282250E+01  0.20131619848E+03  0.13499650209E+04  0.13706417089E+04  0.12500000000E+03 0.  0.
         21    1    1    2  502  501 -0.13209085346E+03 -0.11161672521E+03  0.25176951592E+03  0.30544095348E+03  0.00000000000E+00 0. -1.
         21    1    1    2  503  502  0.14208708168E+03 -0.89699473268E+02  0.20443288152E+04  0.20512228155E+04  0.00000000000E+00 0. -1.
<mgrwt>
<rscale>  4 0.49365936E+03</rscale>
<asrwt>0</asrwt>
<pdfrwt beam="1">  1        2 0.56718195E+00 0.49365936E+03</pdfrwt>
<pdfrwt beam="2">  1       -2 0.62493972E-02 0.49365936E+03</pdfrwt>
<totfact> 0.98684757E+01</totfact>
</mgrwt>
</event>
<event>
 5    0  0.2465569E-003  0.8280317E+03  0.7546771E-02  0.9520306E-01
          1   -1    0    0  502    0  0.00000000000E+00  0.00000000000E+00  0.92868357344E+03  0.92868357344E+03  0.00000000000E+00 0.  1.
         -1   -1    0    0    0  501 -0.00000000000E+00 -0.00000000000E+00 -0.30623937793E+03  0.30623937793E+03  0.00000000000E+00 0. -1.
         25    1    1    2    0    0 -0.25047466699E+03 -0.21017616761E+03  0.33456168293E+03  0.48421906191E+03  0.12500000000E+03 0.  0.
         21    1    1    2  502  503  0.42466945736E+03  0.20931545573E+03  0.32282299251E+03  0.57303733955E+03  0.00000000000E+00 0.  1.
         21    1    1    2  503  501 -0.17419479037E+03  0.86071188438E+00 -0.34940479937E+02  0.17766654991E+03  0.00000000000E+00 0. -1.
<mgrwt>
<rscale>  4 0.82803169E+03</rscale>
<asrwt>0</asrwt>
<pdfrwt beam="1">  1        1 0.14287439E+00 0.82803169E+03</pdfrwt>
<pdfrwt beam="2">  1       -1 0.47113751E-01 0.82803169E+03</pdfrwt>
<totfact> 0.78573828E+01</totfact>
</mgrwt>
</event>
