<event>
 5    0  0.2754780E-002  0.4944905E+03  0.7546771E-02  0.1015227E+00
         -3   -1    0    0    0  501 -0.00000000000E+00  0.00000000000E+00  0.11850433462E+04  0.11850433462E+04  0.00000000000E+00 0. -1.
          3   -1    0    0  502    0  0.00000000000E+00 -0.00000000000E+00 -0.82308917070E+02  0.82308917070E+02  0.00000000000E+00 0.  1.
         25    1    1    2    0    0 -0.23364283462E+03  0.41491988774E+02  0.74993608230E+03  0.79645444743E+03  0.12500000000E+03 0.  0.
         21    1    1    2  502  503  0.21218514547E+03 -0.38462524145E+02  0.37951251587E+03  0.43649931435E+03  0.00000000000E+00 0. -1.
         21    1    1    2  503  501  0.21457689158E+02 -0.30294646288E+01 -0.26714169019E+02  0.34398501513E+02  0.00000000000E+00 0.  1.
<mgrwt>
<rscale>  4 0.49449049E+03</rscale>
<asrwt>0</asrwt>
<pdfrwt beam="1">  1        3 0.12662911E-01 0.49449049E+03</pdfrwt>
<pdfrwt beam="2">  1       -3 0.18231435E+00 0.49449049E+03</pdfrwt>
<totfact> 0.25883910E+01</totfact>
</mgrwt>
</event>
<event>
 5    0  0.2754780E-002  0.4527662E+03  0.7546771E-02  0.1026900E+00
          2   -1    0    0  502    0  0.00000000000E+00  0.00000000000E+00  0.52759332664E+03  0.52759332664E+03  0.00000000000E+00 0.  1.
         -2   -1    0    0    0  501 -0.00000000000E+00 -0.00000000000E+00 -0.16697249591E+03  0.16697249591E+03  0.00000000000E+00 0. -1.
         25    1    1    2    0    0  0.39262129757E+02  0.20828788270E+03  0.66955227271E+02  0.25501639039E+03  0.12500000000E+03 0.  0.
         21    1    1    2  502  503 -0.70566209136E+02 -0.19372753070E+03  0.76902945128E+02  0.22005455913E+03  0.00000000000E+00 0. -1.
         21    1    1    2  503  501  0.31304079379E+02 -0.14560351995E+02  0.21676265834E+03  0.21949487303E+03  0.00000000000E+00 0.  1.
<mgrwt>
<rscale>  4 0.45276620E+03</rscale>
<asrwt>0</asrwt>
<pdfrwt beam="1">  1        2 0.81168203E-01 0.45276620E+03</pdfrwt>
<pdfrwt beam="2">  1       -2 0.25688077E-01 0.45276620E+03</pdfrwt>
<totfact> 0.79411454E+02</totfact>
</mgrwt>
</event>
<event>
 5    0  0.2754780E-002  0.5135953E+03  0.7546771E-02  0.1010290E+00
         -4   -1    0    0    0  501 -0.00000000000E+00  0.00000000000E+00  0.12290189053E+03  0.12290189053E+03  0.00000000000E+00 0. -1.
          4   -1    0    0  503    0  0.00000000000E+00 -0.00000000000E+00 -0.53656656569E+03  0.53656656569E+03  0.00000000000E+00 0.  1.
         25    1    1    2    0    0 -0.78497555591E+02 -0.22066412160E+03 -0.16905015815E+03  0.31473397777E+03  0.12500000000E+03 0.  0.
         21    1    1    2  502  501 -0.94950647745E+01  0.17923462676E+02 -0.33085895558E+02  0.38808288474E+02  0.00000000000E+00 0. -1.
         21    1    1    2  503  502  0.87992620365E+02  0.20274065892E+03 -0.21152862145E+03  0.30592618998E+03  0.00000000000E+00 0.  1.
<mgrwt>
<rscale>  4 0.51359535E+03</rscale>
<asrwt>0</asrwt>
<pdfrwt beam="1">  1        4 0.82548702E-01 0.51359535E+03</pdfrwt>
<pdfrwt beam="2">  1       -4 0.18907983E-01 0.51359535E+03</pdfrwt>
<totfact> 0.64633722E+01</totfact>
</mgrwt>
</event>
<event>
 5    0  0.2754780E-002  0.4468025E+03  0.7546771E-02  0.1028680E+00
          3   -1    0    0  502    0  0.00000000000E+00  0.00000000000E+00  0.24214672862E+03  0.24214672862E+03  0.00000000000E+00 0. -1.
         -3   -1    0    0    0  501 -0.00000000000E+00 -0.00000000000E+00 -0.24425900920E+03  0.24425900920E+03  0.00000000000E+00 0.  1.
         25    1    1    2    0    0 -0.14969829065E+03 -0.15665369153E+03 -0.35670186522E+01  0.25017530037E+03  0.12500000000E+03 0.  0.
         21    1    1    2  502  503  0.13819132365E+03  0.13840290950E+03 -0.30223058174E+02  0.19790310896E+03  0.00000000000E+00 0. -1.
         21    1    1    2  503  501  0.11506966997E+02  0.18250782038E+02  0.31677796239E+02  0.38327328488E+02  0.00000000000E+00 0. -1.
<mgrwt>
<rscale>  4 0.44680252E+03</rscale>
<asrwt>0</asrwt>
<pdfrwt beam="1">  1        3 0.37253343E-01 0.44680252E+03</pdfrwt>
<pdfrwt beam="2">  1       -3 0.37578309E-01 0.44680252E+03</pdfrwt>
<totfact> 0.12986665E+02</totfact>
</mgrwt>
</event>
<event>
 5    0  0.2754780E-002  0.4725866E+03  0.7546771E-02  0.1021193E+00
          2   -1    0    0  503    0  0.00000000000E+00  0.00000000000E+00  0.14572525288E+04  0.14572525288E+04  0.00000000000E+00 0.  1.
         -2   -1    0    0    0  501 -0.00000000000E+00 -0.00000000000E+00 -0.49690827621E+02  0.49690827621E+02  0.00000000000E+00 0. -1.
         25    1    1    2    0    0  0.20246907134E+03 -0.16001706833E+01  0.93817802222E+03  0.96788392216E+03  0.12500000000E+03 0.  0.
         21    1    1    2  502  501 -0.31005547860E+02  0.48976547184E+02  0.24992579094E+03  0.25655983151E+03  0.00000000000E+00 0. -1.
         21    1    1    2  503  502 -0.17146352348E+03 -0.47376376501E+02  0.21945788801E+03  0.28249960273E+03  0.00000000000E+00 0.  1.
<mgrwt>
<rscale>  4 0.47258656E+03</rscale>
<asrwt>0</asrwt>
<pdfrwt beam="1">  1        2 0.22419266E+00 0.47258656E+03</pdfrwt>
<pdfrwt beam="2">  1       -2 0.76447438E-02 0.47258656E+03</pdfrwt>
<totfact> 0.14496736E+03</totfact>
</mgrwt>
</event>
<event>
 5    0  0.2754780E-002  0.7475763E+03  0.7546771E-02  0.9639161E-01
          2   -1    0    0  502    0  0.00000000000E+00  0.00000000000E+00  0.25419657215E+03  0.25419657215E+03  0.00000000000E+00 0.  1.
         -2   -1    0    0    0  501 -0.00000000000E+00 -0.00000000000E+00 -0.62139525482E+03  0.62139525482E+03  0.00000000000E+00 0. -1.
         25    1    1    2    0    0 -0.11088028543E+03 -0.28753635492E+03  0.79676115665E+01  0.33265609259E+03  0.12500000000E+03 0.  0.
         21    1    1    2  502  503  0.83305928172E+02  0.32074886381E+03 -0.37407898929E+03  0.49975474138E+03  0.00000000000E+00 0. -1.
         21    1    1    2  503  501  0.27574357262E+02 -0.33212508881E+02 -0.10873049445E+01  0.43180993002E+02  0.00000000000E+00 0.  1.
<mgrwt>
<rscale>  4 0.74757625E+03</rscale>
<asrwt>0</asrwt>
<pdfrwt beam="1">  1        2 0.39107165E-01 0.74757625E+03</pdfrwt>
<pdfrwt beam="2">  1       -2 0.95599269E-01 0.74757625E+03</pdfrwt>
<totfact> 0.12243039E+02</totfact>
</mgrwt>
</event>
<event>
 5    0  0.2754780E-002  0.6099278E+03  0.7546771E-02  0.9885020E-01
          1   -1    0    0  503    0  0.00000000000E+00  0.00000000000E+00  0.64796240467E+02  0.64796240467E+02  0.00000000000E+00 0.  1.
         -1   -1    0    0    0  501 -0.00000000000E+00 -0.00000000000E+00 -0.15550460976E+04  0.15550460976E+04  0.00000000000E+00 0. -1.
         25    1    1    2    0    0  0.24688541456E+03 -0.96797656092E+02 -0.48656280357E+03  0.56805858498E+03  0.12500000000E+03 0.  0.
         21    1    1    2  502  501  0.17849012668E+02 -0.17404235348E+02 -0.58211257745E+02  0.63324917604E+02  0.00000000000E+00 0.  1.
         21    1    1    2  503  502 -0.26473442723E+03  0.11420189144E+03 -0.94547579581E+03  0.98845883548E+03  0.00000000000E+00 0. -1.
<mgrwt>
<rscale>  4 0.60992781E+03</rscale>
<asrwt>0</asrwt>
<pdfrwt beam="1">  1        1 0.99686529E-02 0.60992781E+03</pdfrwt>
<pdfrwt beam="2">  1       -1 0.23923785E+00 0.60992781E+03</pdfrwt>
<totfact> 0.57519336E+01</totfact>
</mgrwt>
</event>
<event>
 5    0  0.2754780E-002  0.7091223E+03  0.7546771E-02  0.9701758E-01
         -1   -1    0    0    0  501 -0.00000000000E+00  0.00000000000E+00  0.17586379989E+03  0.17586379989E+03  0.00000000000E+00 0.  1.
          1   -1    0    0  502    0  0.00000000000E+00 -0.00000000000E+00 -0.22317234469E+04  0.22317234469E+04  0.00000000000E+00 0. -1.
         25    1    1    2    0    0 -0.21551303371E+03  0.30195645891E+03 -0.27753386902E+03  0.47986833530E+03  0.12500000000E+03 0.  0.
         21    1    1    2  502  503  0.14879474048E+03 -0.27960636816E+03 -0.26559469872E+03  0.41335231934E+03  0.00000000000E+00 0. -1.
         21    1    1    2  503  501  0.66718293223E+02 -0.22350090745E+02 -0.15127310793E+04  0.15143665921E+04  0.00000000000E+00 0. -1.
<mgrwt>
<rscale>  4 0.70912234E+03</rscale>
<asrwt>0</asrwt>
<pdfrwt beam="1">  1        1 0.34334206E+00 0.70912234E+03</pdfrwt>
<pdfrwt beam="2">  1       -1 0.27055970E-01 0.70912234E+03</pdfrwt>
<totfact> 0.26531070E+01</totfact>
</mgrwt>
</event>
<event>
 5    0  0.2754780E-002  0.6362986E+03  0.7546771E-02  0.9832834E-01
         -2   -1    0    0    0  501 -0.00000000000E+00  0.00000000000E+00  0.24287600667E+03  0.24287600667E+03  0.00000000000E+00 0.  1.
          2   -1    0    0  502    0  0.00000000000E+00 -0.00000000000E+00 -0.46493132873E+03  0.46493132873E+03  0.00000000000E+00 0. -1.
         25    1    1    2    0    0  0.24154572303E+03 -0.46628308565E+02  0.83210352023E+02  0.28821432677E+03  0.12500000000E+03 0.  0.
         21    1    1    2  502  503 -0.24024490055E+03  0.11274231927E+02 -0.29889781871E+03  0.38364648646E+03  0.00000000000E+00 0. -1.
         21    1    1    2  503  501 -0.13008224814E+01  0.35354076638E+02 -0.63678553670E+01  0.35946522169E+02  0.00000000000E+00 0.  1.
<mgrwt>
<rscale>  4 0.63629857E+03</rscale>
<asrwt>0</asrwt>
<pdfrwt beam="1">  1        2 0.71527897E-01 0.63629857E+03</pdfrwt>
<pdfrwt beam="2">  1       -2 0.37365540E-01 0.63629857E+03</pdfrwt>
<totfact> 0.45630167E+02</totfact>
</mgrwt>
</event>
<event>
 5    0  0.2754780E-002  0.3931802E+03  0.7546771E-02  0.1046167E+00
         -1   -1    0    0    0  501 -0.00000000000E+00  0.00000000000E+00  0.61183492632E+03  0.61183492632E+03  0.00000000000E+00 0.  1.
          1   -1    0    0  503    0  0.00000000000E+00 -0.00000000000E+00 -0.18695770194E+03  0.18695770194E+03  0.00000000000E+00 0. -1.
         25    1    1    2    0    0 -0.19401854377E+03 -0.10270552520E+03  0.35408371760E+03  0.43496195155E+03  0.12500000000E+03 0.  0.
         21    1    1    2  502  501  0.13932091253E+03 -0.64198059481E+01  0.16028904861E+03  0.21247143263E+03  0.00000000000E+00 0.  1.
         21    1    1    2  503  502  0.54697631236E+02  0.10912533114E+03 -0.89495541836E+02  0.15135924408E+03  0.00000000000E+00 0.  1.
<mgrwt>
<rscale>  4 0.39318017E+03</rscale>
<asrwt>0</asrwt>
<pdfrwt beam="1">  1        1 0.28762724E-01 0.39318017E+03</pdfrwt>
<pdfrwt beam="2">  1       -1 0.94128449E-01 0.39318017E+03</pdfrwt>
<totfact> 0.18347239E+02</totfact>
</mgrwt>
</event>
<event>
 5    0  0.2754780E-002  0.8203089E+03  0.7546771E-02  0.9531077E-01
         -2   -1    0    0    0  501 -0.00000000000E+00  0.00000000000E+00  0.72145766955E+03  0.72145766955E+03  0.00000000000E+00 0. -1.
          2   -1    0    0  502    0  0.00000000000E+00 -0.00000000000E+00 -0.75130021872E+03  0.75130021872E+03  0.00000000000E+00 0.  1.
         25    1    1    2    0    0 -0.20929932915E+02 -0.24857394436E+03  0.62133019505E+03  0.68110445542E+03  0.12500000000E+03 0.  0.
         21    1    1    2  502  503  0.40954660554E+02  0.23502159116E+03 -0.13342196439E+03  0.27333834915E+03  0.00000000000E+00 0.  1.
         21    1    1    2  503  501 -0.20024727639E+02  0.13552353204E+02 -0.51775077982E+03  0.51831508371E+03  0.00000000000E+00 0.  1.
<mgrwt>
<rscale>  4 0.82030886E+03</rscale>
<asrwt>0</asrwt>
<pdfrwt beam="1">  1        2 0.11558465E+00 0.82030886E+03</pdfrwt>
<pdfrwt beam="2">  1       -2 0.11099349E+00 0.82030886E+03</pdfrwt>
<totfact> 0.24239639E+01</totfact>
</mgrwt>
</event>
<event>
 5    0  0.2754780E-002  0.6573257E+03  0.7546771E-02  0.9793129E-01
          2   -1    0    0  503    0  0.00000000000E+00  0.00000000000E+00  0.25956725194E+04  0.25956725194E+04  0.00000000000E+00 0.  1.
         -2   -1    0    0    0  501 -0.00000000000E+00 -0.00000000000E+00 -0.55002938958E+02  0.55002938958E+02  0.00000000000E+00 0. -1.
         25    1    1    2    0    0 -0.30071071759E+02 -0.29183393852E+03  0.14169735585E+04  0.14524153616E+04  0.12500000000E+03 0.  0.
         21    1    1    2  502  501  0.58494814552E+02  0.41151014330E+01  0.57563710965E+03  0.57861615895E+03  0.00000000000E+00 0.  1.
         21    1    1    2  503  502 -0.28423742793E+02  0.28771883709E+03  0.54805891232E+03  0.61964393788E+03  0.00000000000E+00 0. -1.
<mgrwt>
<rscale>  4 0.65732574E+03</rscale>
<asrwt>0</asrwt>
<pdfrwt beam="1">  1        2 0.39933414E+00 0.65732574E+03</pdfrwt>
<pdfrwt beam="2">  1       -2 0.84619927E-02 0.65732574E+03</pdfrwt>
<totfact> 0.28925083E+02</totfact>
</mgrwt>
</event>
<event>
 5    0  0.2754780E-002  0.5395023E+03  0.7546771E-02  0.1003953E+00
         -3   -1    0    0    0  501 -0.00000000000E+00  0.00000000000E+00  0.39014530870E+03  0.39014530870E+03  0.00000000000E+00 0. -1.
          3   -1    0    0  502    0  0.00000000000E+00 -0.00000000000E+00 -0.36914856413E+03  0.36914856413E+03  0.00000000000E+00 0.  1.
         25    1    1    2    0    0 -0.24280845585E+03  0.15805396252E+02  0.22058635013E+03  0.35141015160E+03  0.12500000000E+03 0.  0.
         21    1    1    2  502  503  0.36230150816E+02  0.60029373300E+02 -0.17244946930E+03  0.18615845119E+03  0.00000000000E+00 0.  1.
         21    1    1    2  503  501  0.20657830503E+03 -0.75834769552E+02 -0.27140136254E+02  0.22172527005E+03  0.00000000000E+00 0.  1.
<mgrwt>
<rscale>  4 0.53950234E+03</rscale>
<asrwt>0</asrwt>
<pdfrwt beam="1">  1        3 0.56792087E-01 0.53950234E+03</pdfrwt>
<pdfrwt beam="2">  1       -3 0.60022355E-01 0.53950234E+03</pdfrwt>
<totfact> 0.21610515E+01</totfact>
</mgrwt>
</event>
<event>
 5    0  0.2754780E-002  0.8199266E+03  0.7546771E-02  0.9531614E-01
          2   -1    0    0  502    0  0.00000000000E+00  0.00000000000E+00  0.15019812134E+04  0.15019812134E+04  0.00000000000E+00 0. -1.
         -2   -1    0    0    0  501 -0.00000000000E+00 -0.00000000000E+00 -0.13726507961E+03  0.13726507961E+03  0.00000000000E+00 0.  1.
         25    1    1    2    0    0 -0.35057545758E+03  0.12734516442E+03  0.33114524080E+03  0.51420045981E+03  0.12500000000E+03 0.  0.
         21    1    1    2  502  503  0.36557490587E+03 -0.11099979718E+03  0.76048344750E+03  0.85105877628E+03  0.00000000000E+00 0. -1.
         21    1    1    2  503  501 -0.14999448284E+02 -0.16345367243E+02  0.27308744550E+03  0.27398705694E+03  0.00000000000E+00 0.  1.
<mgrwt>
<rscale>  4 0.81992658E+03</rscale>
<asrwt>0</asrwt>
<pdfrwt beam="1">  1        2 0.23107402E+00 0.81992658E+03</pdfrwt>
<pdfrwt beam="2">  1       -2 0.21117706E-01 0.81992658E+03</pdfrwt>
<totfact> 0.24774280E+02</totfact>
</mgrwt>
</event>
<event>
 5    0  0.2754780E-002  0.6299947E+03  0.7546771E-02  0.9845059E-01
          2   -1    0    0  502    0  0.00000000000E+00  0.00000000000E+00  0.11705859763E+04  0.11705859763E+04  0.00000000000E+00 0.  1.
         -2   -1    0    0    0  501 -0.00000000000E+00 -0.00000000000E+00 -0.12354675328E+03  0.12354675328E+03  0.00000000000E+00 0. -1.
         25    1    1    2    0    0 -0.14386402803E+03  0.26188267385E+03  0.37729054686E+03  0.49724495993E+03  0.12500000000E+03 0.  0.
         21    1    1    2  502  503  0.16437358710E+03 -0.25703492265E+03  0.30457009821E+03  0.43110158005E+03  0.00000000000E+00 0. -1.
         21    1    1    2  503  501 -0.20509559068E+02 -0.48477512026E+01  0.36517857792E+03  0.36578618956E+03  0.00000000000E+00 0.  1.
<mgrwt>
<rscale>  4 0.62999473E+03</rscale>
<asrwt>0</asrwt>
<pdfrwt beam="1">  1        2 0.18009014E+00 0.62999473E+03</pdfrwt>
<pdfrwt beam="2">  1       -2 0.19007194E-01 0.62999473E+03</pdfrwt>
<totfact> 0.46650611E+02</totfact>
</mgrwt>
</event>
<event>
 5    0  0.2754780E-002  0.7107493E+03  0.7546771E-02  0.9699024E-01
          2   -1    0    0  503    0  0.00000000000E+00  0.00000000000E+00  0.18848639975E+04  0.18848639975E+04  0.00000000000E+00 0.  1.
         -2   -1    0    0    0  501 -0.00000000000E+00 -0.00000000000E+00 -0.80660194559E+02  0.80660194559E+02  0.00000000000E+00 0. -1.
         25    1    1    2    0    0 -0.24537540926E+03 -0.20141931733E+03  0.51719071227E+03  0.61958862620E+03  0.12500000000E+03 0.  0.
         21    1    1    2  502  501 -0.42723629242E+02  0.27716401373E+02  0.26895748250E+03  0.27373643307E+03  0.00000000000E+00 0.  1.
         21    1    1    2  503  502  0.28809903850E+03  0.17370291595E+03  0.10180556081E+04  0.10721991327E+04  0.00000000000E+00 0.  1.
<mgrwt>
<rscale>  4 0.71074929E+03</rscale>
<asrwt>0</asrwt>
<pdfrwt beam="1">  1        2 0.28997904E+00 0.71074929E+03</pdfrwt>
<pdfrwt beam="2">  1       -2 0.12409262E-01 0.71074929E+03</pdfrwt>
<totfact> 0.38151276E+02</totfact>
</mgrwt>
</event>
<event>
 5    0  0.2754780E-002  0.5015381E+03  0.7546771E-02  0.1013378E+00
          2   -1    0    0  502    0  0.00000000000E+00  0.00000000000E+00  0.15852695768E+04  0.15852695768E+04  0.00000000000E+00 0. -1.
         -2   -1    0    0    0  501 -0.00000000000E+00 -0.00000000000E+00 -0.45146983387E+02  0.45146983387E+02  0.00000000000E+00 0.  1.
         25    1    1    2    0    0  0.75737677835E+01  0.23617382127E+03  0.58127733607E+03  0.63979979465E+03  0.12500000000E+03 0.  0.
         21    1    1    2  502  503 -0.24455358148E+02 -0.21917381980E+03  0.79469859620E+03  0.82473091771E+03  0.00000000000E+00 0.  1.
         21    1    1    2  503  501  0.16881590364E+02 -0.17000001467E+02  0.16414666119E+03  0.16588584787E+03  0.00000000000E+00 0. -1.
<mgrwt>
<rscale>  4 0.50153808E+03</rscale>
<asrwt>0</asrwt>
<pdfrwt beam="1">  1        2 0.24388758E+00 0.50153808E+03</pdfrwt>
<pdfrwt beam="2">  1       -2 0.69456910E-02 0.50153808E+03</pdfrwt>
<totfact> 0.14336690E+03</totfact>
</mgrwt>
</event>
<event>
 5    0  0.2754780E-002  0.4679397E+03  0.7546771E-02  0.1022503E+00
         -2   -1    0    0    0  501 -0.00000000000E+00  0.00000000000E+00  0.10360127863E+03  0.10360127863E+03  0.00000000000E+00 0.  1.
          2   -1    0    0  502    0  0.00000000000E+00 -0.00000000000E+00 -0.91573706317E+03  0.91573706317E+03  0.00000000000E+00 0. -1.
         25    1    1    2    0    0 -0.21441404119E+03 -0.11174828591E+03 -0.57221105194E+03  0.63364938919E+03  0.12500000000E+03 0.  0.
         21    1    1    2  502  503  0.34735671028E+02  0.56507590535E+02  0.15917122249E+02  0.68213117584E+02  0.00000000000E+00 0.  1.
         21    1    1    2  503  501  0.17967837017E+03  0.55240695374E+02 -0.25584185485E+03  0.31747583502E+03  0.00000000000E+00 0.  1.
<mgrwt>
<rscale>  4 0.46793971E+03</rscale>
<asrwt>0</asrwt>
<pdfrwt beam="1">  1        2 0.14088263E+00 0.46793971E+03</pdfrwt>
<pdfrwt beam="2">  1       -2 0.15938658E-01 0.46793971E+03</pdfrwt>
<totfact> 0.91407356E+02</totfact>
</mgrwt>
</event>
<event>
 5    0  0.2754780E-002  0.5971138E+03  0.7546771E-02  0.9911412E-01
          2   -1    0    0  502    0  0.00000000000E+00  0.00000000000E+00  0.35355598313E+03  0.35355598313E+03  0.00000000000E+00 0. -1.
         -2   -1    0    0    0  501 -0.00000000000E+00 -0.00000000000E+00 -0.25211348192E+03  0.25211348192E+03  0.00000000000E+00 0.  1.
         25    1    1    2    0    0  0.19721060507E+03 -0.49656985143E+02 -0.14350767187E+03  0.27852700194E+03  0.12500000000E+03 0.  0.
         21    1    1    2  502  503 -0.15333176954E+03  0.10779665614E+02  0.14523638485E+03  0.21147207906E+03  0.00000000000E+00 0. -1.
         21    1    1    2  503  501 -0.43878835526E+02  0.38877319530E+02  0.99713788237E+02  0.11567038405E+03  0.00000000000E+00 0. -1.
<mgrwt>
<rscale>  4 0.59711382E+03</rscale>
<asrwt>0</asrwt>
<pdfrwt beam="1">  1        2 0.54393228E-01 0.59711382E+03</pdfrwt>
<pdfrwt beam="2">  1       -2 0.38786690E-01 0.59711382E+03</pdfrwt>
<totfact> 0.57808957E+02</totfact>
</mgrwt>
</event>
<event>
 5    0  0.2754780E-002  0.4631313E+03  0.7546771E-02  0.1023877E+00
         -2   -1    0    0    0  501 -0.00000000000E+00  0.00000000000E+00  0.31765228610E+02  0.31765228610E+02  0.00000000000E+00 0.  1.
          2   -1    0    0  503    0  0.00000000000E+00 -0.00000000000E+00 -0.18602184463E+04  0.18602184463E+04  0.00000000000E+00 0. -1.
         25    1    1    2    0    0 -0.13207006141E+03 -0.16286170623E+03 -0.11915446463E+04  0.12162935833E+04  0.12500000000E+03 0.  0.
         21    1    1    2  502  501 -0.11557474216E+02  0.19314093678E+02 -0.67881402111E+02  0.71515691827E+02  0.00000000000E+00 0.  1.
         21    1    1    2  503  502  0.14362753563E+03  0.14354761255E+03 -0.56902716922E+03  0.60417439979E+03  0.00000000000E+00 0. -1.
<mgrwt>
<rscale>  4 0.46313126E+03</rscale>
<asrwt>0</asrwt>
<pdfrwt beam="1">  1        2 0.28618747E+00 0.46313126E+03</pdfrwt>
<pdfrwt beam="2">  1       -2 0.48869580E-02 0.46313126E+03</pdfrwt>
<totfact> 0.17651853E+03</totfact>
</mgrwt>
</event>
<event>
 5    0  0.2754780E-002  0.7834243E+03  0.7546771E-02  0.9584325E-01
          2   -1    0    0  503    0  0.00000000000E+00  0.00000000000E+00  0.11135449924E+04  0.11135449924E+04  0.00000000000E+00 0.  1.
         -2   -1    0    0    0  501 -0.00000000000E+00 -0.00000000000E+00 -0.18028260294E+03  0.18028260294E+03  0.00000000000E+00 0. -1.
         25    1    1    2    0    0 -0.12695652016E+03 -0.21101891045E+03  0.75973317997E+03  0.80837271313E+03  0.12500000000E+03 0.  0.
         21    1    1    2  502  501  0.34525345748E+02  0.18011947563E+02  0.25389489164E+03  0.25686386619E+03  0.00000000000E+00 0.  1.
         21    1    1    2  503  502  0.92431174411E+02  0.19300696289E+03 -0.80365682167E+02  0.22859101600E+03  0.00000000000E+00 0. -1.
<mgrwt>
<rscale>  4 0.78342426E+03</rscale>
<asrwt>0</asrwt>
<pdfrwt beam="1">  1        2 0.17131461E+00 0.78342426E+03</pdfrwt>
<pdfrwt beam="2">  1       -2 0.27735786E-01 0.78342426E+03</pdfrwt>
<totfact> 0.25531031E+02</totfact>
</mgrwt>
</event>
<event>
 5    0  0.2754780E-002  0.5812249E+03  0.7546771E-02  0.9945143E-01
         -1   -1    0    0    0  501 -0.00000000000E+00  0.00000000000E+00  0.28113505729E+03  0.28113505729E+03  0.00000000000E+00 0. -1.
          1   -1    0    0  503    0  0.00000000000E+00 -0.00000000000E+00 -0.47327994202E+03  0.47327994202E+03  0.00000000000E+00 0.  1.
         25    1    1    2    0    0 -0.22107137671E+03 -0.13802780477E+03 -0.46606452245E+02  0.29278215431E+03  0.12500000000E+03 0.  0.
         21    1    1    2  502  501 -0.45326430227E+02  0.27256858514E+02 -0.16421164049E+03  0.17251922932E+03  0.00000000000E+00 0.  1.
         21    1    1    2  503  502  0.26639780694E+03  0.11077094625E+03  0.18673207997E+02  0.28911361568E+03  0.00000000000E+00 0. -1.
<mgrwt>
<rscale>  4 0.58122493E+03</rscale>
<asrwt>0</asrwt>
<pdfrwt beam="1">  1        1 0.72812298E-01 0.58122493E+03</pdfrwt>
<pdfrwt beam="2">  1       -1 0.43251548E-01 0.58122493E+03</pdfrwt>
<totfact> 0.25706694E+02</totfact>
</mgrwt>
</event>
<event>
 5    0  0.2754780E-002  0.4783861E+03  0.7546771E-02  0.1019580E+00
         -2   -1    0    0    0  501 -0.00000000000E+00  0.00000000000E+00  0.13561180445E+02  0.13561180445E+02  0.00000000000E+00 0.  1.
          2   -1    0    0  503    0  0.00000000000E+00 -0.00000000000E+00 -0.42189045254E+04  0.42189045254E+04  0.00000000000E+00 0. -1.
         25    1    1    2    0    0 -0.16122518854E+03 -0.12818014493E+03 -0.15527030781E+04  0.15712846845E+04  0.12500000000E+03 0.  0.
         21    1    1    2  502  501  0.83647022043E+01  0.18364050572E+02 -0.47265842637E+03  0.47308899228E+03  0.00000000000E+00 0.  1.
         21    1    1    2  503  502  0.15286048633E+03  0.10981609436E+03 -0.21799818405E+04  0.21880920291E+04  0.00000000000E+00 0.  1.
<mgrwt>
<rscale>  4 0.47838614E+03</rscale>
<asrwt>0</asrwt>
<pdfrwt beam="1">  1        2 0.64906243E+00 0.47838614E+03</pdfrwt>
<pdfrwt beam="2">  1       -2 0.20863348E-02 0.47838614E+03</pdfrwt>
<totfact> 0.20538082E+02</totfact>
</mgrwt>
</event>
<event>
 5    0  0.2754780E-002  0.4775774E+03  0.7546771E-02  0.1019803E+00
         -1   -1    0    0    0  501 -0.00000000000E+00  0.00000000000E+00  0.51930848304E+02  0.51930848304E+02  0.00000000000E+00 0.  1.
          1   -1    0    0  503    0  0.00000000000E+00 -0.00000000000E+00 -0.10979995975E+04  0.10979995975E+04  0.00000000000E+00 0. -1.
         25    1    1    2    0    0  0.15562243913E+03  0.14522620573E+03 -0.58399365757E+03  0.63402096691E+03  0.12500000000E+03 0.  0.
         21    1    1    2  502  501 -0.42096363764E+02  0.10849499207E+01 -0.11589327472E+03  0.12330665872E+03  0.00000000000E+00 0. -1.
         21    1    1    2  503  502 -0.11352607537E+03 -0.14631115565E+03 -0.34618181688E+03  0.39260282015E+03  0.00000000000E+00 0.  1.
<mgrwt>
<rscale>  4 0.47757743E+03</rscale>
<asrwt>0</asrwt>
<pdfrwt beam="1">  1        1 0.16892303E+00 0.47757743E+03</pdfrwt>
<pdfrwt beam="2">  1       -1 0.79893606E-02 0.47757743E+03</pdfrwt>
<totfact> 0.11620183E+03</totfact>
</mgrwt>
</event>
<event>
 5    0  0.2754780E-002  0.5583097E+03  0.7546771E-02  0.9995886E-01
         -1   -1    0    0    0  501 -0.00000000000E+00  0.00000000000E+00  0.68444552180E+02  0.68444552180E+02  0.00000000000E+00 0. -1.
          1   -1    0    0  502    0  0.00000000000E+00 -0.00000000000E+00 -0.13180685166E+04  0.13180685166E+04  0.00000000000E+00 0.  1.
         25    1    1    2    0    0 -0.13549638920E+03  0.18183652752E+03 -0.82897999086E+03  0.86847948708E+03  0.12500000000E+03 0.  0.
         21    1    1    2  502  503  0.16482080898E+03 -0.17926986091E+03 -0.26610148503E+03  0.36071260366E+03  0.00000000000E+00 0. -1.
         21    1    1    2  503  501 -0.29324419776E+02 -0.25666666038E+01 -0.15454248854E+03  0.15732097805E+03  0.00000000000E+00 0.  1.
<mgrwt>
<rscale>  4 0.55830973E+03</rscale>
<asrwt>0</asrwt>
<pdfrwt beam="1">  1        1 0.20277978E+00 0.55830973E+03</pdfrwt>
<pdfrwt beam="2">  1       -1 0.10529931E-01 0.55830973E+03</pdfrwt>
<totfact> 0.52285106E+02</totfact>
</mgrwt>
</event>
<event>
 5    0  0.2754780E-002  0.9966110E+03  0.7546771E-02  0.9312270E-01
          2   -1    0    0  502    0  0.00000000000E+00  0.00000000000E+00  0.57321089404E+03  0.57321089404E+03  0.00000000000E+00 0.  1.
         -2   -1    0    0    0  501 -0.00000000000E+00 -0.00000000000E+00 -0.56852728079E+03  0.56852728079E+03  0.00000000000E+00 0. -1.
         25    1    1    2    0    0  0.25047811853E+02 -0.35237768926E+03  0.27218673986E+03  0.46315013778E+03  0.12500000000E+03 0.  0.
         21    1    1    2  502  503  0.11939834542E+01  0.36403230924E+03 -0.40125962060E+03  0.54178430292E+03  0.00000000000E+00 0. -1.
         21    1    1    2  503  501 -0.26241795308E+02 -0.11654619983E+02  0.13375649399E+03  0.13680373413E+03  0.00000000000E+00 0. -1.
<mgrwt>
<rscale>  4 0.99661097E+03</rscale>
<asrwt>0</asrwt>
<pdfrwt beam="1">  1        2 0.88186291E-01 0.99661097E+03</pdfrwt>
<pdfrwt beam="2">  1       -2 0.87465736E-01 0.99661097E+03</pdfrwt>
<totfact> 0.59006370E+01</totfact>
</mgrwt>
</event>
<event>
 5    0  0.2754780E-002  0.7721787E+03  0.7546771E-02  0.9601184E-01
         -1   -1    0    0    0  501 -0.00000000000E+00  0.00000000000E+00  0.10432636578E+04  0.10432636578E+04  0.00000000000E+00 0.  1.
          1   -1    0    0  502    0  0.00000000000E+00 -0.00000000000E+00 -0.27337447309E+03  0.27337447309E+03  0.00000000000E+00 0. -1.
         25    1    1    2    0    0  0.11162204370E+02  0.28017599855E+03  0.47980800067E+03  0.56961732986E+03  0.12500000000E+03 0.  0.
         21    1    1    2  502  503 -0.28291313089E+02 -0.10802424667E+03  0.47842295288E+03  0.49128215732E+03  0.00000000000E+00 0.  1.
         21    1    1    2  503  501  0.17129108719E+02 -0.17215175187E+03 -0.18834176879E+03  0.25573864376E+03  0.00000000000E+00 0. -1.
<mgrwt>
<rscale>  4 0.77217868E+03</rscale>
<asrwt>0</asrwt>
<pdfrwt beam="1">  1        1 0.42057612E-01 0.77217868E+03</pdfrwt>
<pdfrwt beam="2">  1       -1 0.16050210E+00 0.77217868E+03</pdfrwt>
<totfact> 0.29276495E+01</totfact>
</mgrwt>
</event>
<event>
 5    0  0.2754780E-002  0.6053947E+03  0.7546771E-02  0.9894276E-01
          2   -1    0    0  503    0  0.00000000000E+00  0.00000000000E+00  0.71298409951E+03  0.71298409951E+03  0.00000000000E+00 0.  1.
         -2   -1    0    0    0  501 -0.00000000000E+00 -0.00000000000E+00 -0.12851015639E+03  0.12851015639E+03  0.00000000000E+00 0. -1.
         25    1    1    2    0    0  0.14891090074E+03 -0.23317140509E+03  0.19141060133E+03  0.35889605572E+03  0.12500000000E+03 0.  0.
         21    1    1    2  502  501 -0.21515052289E+02  0.11706420300E+02  0.32868246981E+02  0.40990967430E+02  0.00000000000E+00 0.  1.
         21    1    1    2  503  502 -0.12739584845E+03  0.22146498479E+03  0.36019509481E+03  0.44160723275E+03  0.00000000000E+00 0.  1.
<mgrwt>
<rscale>  4 0.60539474E+03</rscale>
<asrwt>0</asrwt>
<pdfrwt beam="1">  1        2 0.10968986E+00 0.60539474E+03</pdfrwt>
<pdfrwt beam="2">  1       -2 0.19770794E-01 0.60539474E+03</pdfrwt>
<totfact> 0.87592062E+02</totfact>
</mgrwt>
</event>
<event>
 5    0  0.2754780E-002  0.4854962E+03  0.7546771E-02  0.1017635E+00
         -2   -1    0    0    0  501 -0.00000000000E+00  0.00000000000E+00  0.48639429313E+02  0.48639429313E+02  0.00000000000E+00 0.  1.
          2   -1    0    0  502    0  0.00000000000E+00 -0.00000000000E+00 -0.13362667860E+04  0.13362667860E+04  0.00000000000E+00 0. -1.
         25    1    1    2    0    0  0.97392964161E+02  0.20303534303E+03 -0.60407277291E+03  0.65668687740E+03  0.12500000000E+03 0.  0.
         21    1    1    2  502  503 -0.78761170858E+02 -0.21332536547E+03 -0.59076765734E+03  0.63302247870E+03  0.00000000000E+00 0. -1.
         21    1    1    2  503  501 -0.18631793304E+02  0.10290022445E+02 -0.92786926427E+02  0.95196859189E+02  0.00000000000E+00 0. -1.
<mgrwt>
<rscale>  4 0.48549621E+03</rscale>
<asrwt>0</asrwt>
<pdfrwt beam="1">  1        2 0.20557950E+00 0.48549621E+03</pdfrwt>
<pdfrwt beam="2">  1       -2 0.74829894E-02 0.48549621E+03</pdfrwt>
<totfact> 0.17505279E+03</totfact>
</mgrwt>
</event>
<event>
 5    0  0.2754780E-002  0.7065182E+03  0.7546771E-02  0.9706150E-01
         -2   -1    0    0    0  501 -0.00000000000E+00  0.00000000000E+00  0.21314216272E+03  0.21314216272E+03  0.00000000000E+00 0.  1.
          2   -1    0    0  503    0  0.00000000000E+00 -0.00000000000E+00 -0.82321502762E+03  0.82321502762E+03  0.00000000000E+00 0. -1.
         25    1    1    2    0    0 -0.13327448346E+03 -0.24421955652E+03 -0.42258745237E+01  0.30503792837E+03  0.12500000000E+03 0.  0.
         21    1    1    2  502  501 -0.93648996532E+02  0.84862045391E+02 -0.13526243574E+03  0.18511517448E+03  0.00000000000E+00 0.  1.
         21    1    1    2  503  502  0.22692348000E+03  0.15935751113E+03 -0.47058455463E+03  0.54620408749E+03  0.00000000000E+00 0. -1.
<mgrwt>
<rscale>  4 0.70651824E+03</rscale>
<asrwt>0</asrwt>
<pdfrwt beam="1">  1        2 0.12664847E+00 0.70651824E+03</pdfrwt>
<pdfrwt beam="2">  1       -2 0.32791102E-01 0.70651824E+03</pdfrwt>
<totfact> 0.29025208E+02</totfact>
</mgrwt>
</event>
<event>
 5    0  0.2754780E-002  0.4149767E+03  0.7546771E-02  0.1038714E+00
         -2   -1    0    0    0  501 -0.00000000000E+00  0.00000000000E+00  0.10099083587E+03  0.10099083587E+03  0.00000000000E+00 0. -1.
          2   -1    0    0  502    0  0.00000000000E+00 -0.00000000000E+00 -0.76874264860E+03  0.76874264860E+03  0.00000000000E+00 0.  1.
         25    1    1    2    0    0  0.16911250507E+03  0.12711449076E+03 -0.21935054845E+03  0.32938851868E+03  0.12500000000E+03 0.  0.
         21    1    1    2  502  503 -0.13997500019E+03 -0.92615012065E+02 -0.11396962128E+03  0.20287832736E+03  0.00000000000E+00 0.  1.
         21    1    1    2  503  501 -0.29137504877E+02 -0.34499478692E+02 -0.33443164299E+03  0.33746663843E+03  0.00000000000E+00 0. -1.
<mgrwt>
<rscale>  4 0.41497670E+03</rscale>
<asrwt>0</asrwt>
<pdfrwt beam="1">  1        2 0.11826810E+00 0.41497670E+03</pdfrwt>
<pdfrwt beam="2">  1       -2 0.15537052E-01 0.41497670E+03</pdfrwt>
<totfact> 0.12052304E+03</totfact>
</mgrwt>
</event>
<event>
 5    0  0.2754780E-002  0.5698363E+03  0.7546771E-02  0.9970041E-01
         -2   -1    0    0    0  501 -0.00000000000E+00  0.00000000000E+00  0.12834448842E+03  0.12834448842E+03  0.00000000000E+00 0. -1.
          2   -1    0    0  502    0  0.00000000000E+00 -0.00000000000E+00 -0.95186111637E+03  0.95186111637E+03  0.00000000000E+00 0.  1.
         25    1    1    2    0    0 -0.14150223438E+03  0.17619398995E+03 -0.56282425043E+03  0.61924416937E+03  0.12500000000E+03 0.  0.
         21    1    1    2  502  503  0.32081526307E+02 -0.19130342783E+03 -0.18605408048E+02  0.19486504827E+03  0.00000000000E+00 0. -1.
         21    1    1    2  503  501  0.10942070807E+03  0.15109437883E+02 -0.24208696946E+03  0.26609638714E+03  0.00000000000E+00 0.  1.
<mgrwt>
<rscale>  4 0.56983627E+03</rscale>
<asrwt>0</asrwt>
<pdfrwt beam="1">  1        2 0.14644018E+00 0.56983627E+03</pdfrwt>
<pdfrwt beam="2">  1       -2 0.19745305E-01 0.56983627E+03</pdfrwt>
<totfact> 0.59774536E+02</totfact>
</mgrwt>
</event>
<event>
 5    0  0.2754780E-002  0.6101671E+03  0.7546771E-02  0.9884534E-01
         -2   -1    0    0    0  501 -0.00000000000E+00  0.00000000000E+00  0.92062259133E+03  0.92062259133E+03  0.00000000000E+00 0.  1.
          2   -1    0    0  503    0  0.00000000000E+00 -0.00000000000E+00 -0.12976078451E+03  0.12976078451E+03  0.00000000000E+00 0. -1.
         25    1    1    2    0    0  0.24510875127E+03  0.50447729384E+02  0.58368927552E+03  0.64725686068E+03  0.12500000000E+03 0.  0.
         21    1    1    2  502  501  0.39410370308E+02 -0.19022359153E+02 -0.86809427293E+01  0.44613744544E+02  0.00000000000E+00 0. -1.
         21    1    1    2  503  502 -0.28451912158E+03 -0.31425370231E+02  0.21585347403E+03  0.35851277061E+03  0.00000000000E+00 0. -1.
<mgrwt>
<rscale>  4 0.61016714E+03</rscale>
<asrwt>0</asrwt>
<pdfrwt beam="1">  1        2 0.19963198E-01 0.61016714E+03</pdfrwt>
<pdfrwt beam="2">  1       -2 0.14163424E+00 0.61016714E+03</pdfrwt>
<totfact> 0.10082457E+02</totfact>
</mgrwt>
</event>
<event>
 5    0  0.2754780E-002  0.4958815E+03  0.7546771E-02  0.1014860E+00
         -2   -1    0    0    0  501 -0.00000000000E+00  0.00000000000E+00  0.33066844205E+03  0.33066844205E+03  0.00000000000E+00 0.  1.
          2   -1    0    0  502    0  0.00000000000E+00 -0.00000000000E+00 -0.18591014545E+03  0.18591014545E+03  0.00000000000E+00 0. -1.
         25    1    1    2    0    0 -0.18819316647E+02 -0.22576476151E+03  0.49283503021E+02  0.26339657911E+03  0.12500000000E+03 0.  0.
         21    1    1    2  502  503  0.39170328939E+02  0.17726633203E+03  0.79744706143E+02  0.19828485897E+03  0.00000000000E+00 0. -1.
         21    1    1    2  503  501 -0.20351012292E+02  0.48498429481E+02  0.15730087443E+02  0.54897149419E+02  0.00000000000E+00 0.  1.
<mgrwt>
<rscale>  4 0.49588151E+03</rscale>
<asrwt>0</asrwt>
<pdfrwt beam="1">  1        2 0.28601561E-01 0.49588151E+03</pdfrwt>
<pdfrwt beam="2">  1       -2 0.50872068E-01 0.49588151E+03</pdfrwt>
<totfact> 0.69011684E+02</totfact>
</mgrwt>
</event>
<event>
 5    0  0.2754780E-002  0.5574100E+03  0.7546771E-02  0.9997932E-01
         -2   -1    0    0    0  501 -0.00000000000E+00  0.00000000000E+00  0.16012728599E+03  0.16012728599E+03  0.00000000000E+00 0. -1.
          2   -1    0    0  503    0  0.00000000000E+00 -0.00000000000E+00 -0.80447913461E+03  0.80447913461E+03  0.00000000000E+00 0.  1.
         25    1    1    2    0    0 -0.27393963565E+03 -0.14756351552E+03 -0.36260076680E+03  0.49388483595E+03  0.12500000000E+03 0.  0.
         21    1    1    2  502  501  0.12499984410E+03 -0.16792696975E+02 -0.20108138289E+02  0.12771567219E+03  0.00000000000E+00 0.  1.
         21    1    1    2  503  502  0.14893979155E+03  0.16435621249E+03 -0.26164294352E+03  0.34300591247E+03  0.00000000000E+00 0.  1.
<mgrwt>
<rscale>  4 0.55741001E+03</rscale>
<asrwt>0</asrwt>
<pdfrwt beam="1">  1        2 0.12376602E+00 0.55741001E+03</pdfrwt>
<pdfrwt beam="2">  1       -2 0.24634967E-01 0.55741001E+03</pdfrwt>
<totfact> 0.50919777E+02</totfact>
</mgrwt>
</event>
<event>
 5    0  0.2754780E-002  0.5302127E+03  0.7546771E-02  0.1006181E+00
          1   -1    0    0  503    0  0.00000000000E+00  0.00000000000E+00  0.10963461584E+03  0.10963461584E+03  0.00000000000E+00 0.  1.
         -1   -1    0    0    0  501 -0.00000000000E+00 -0.00000000000E+00 -0.11529445760E+04  0.11529445760E+04  0.00000000000E+00 0. -1.
         25    1    1    2    0    0  0.26560523930E+03 -0.48288702771E+02 -0.74177398327E+03  0.79920684696E+03  0.12500000000E+03 0.  0.
         21    1    1    2  502  501 -0.84591311577E+02 -0.65357436619E+02 -0.18158616067E+02  0.10842979228E+03  0.00000000000E+00 0. -1.
         21    1    1    2  503  502 -0.18101392772E+03  0.11364613939E+03 -0.28337736087E+03  0.35494255265E+03  0.00000000000E+00 0.  1.
<mgrwt>
<rscale>  4 0.53021275E+03</rscale>
<asrwt>0</asrwt>
<pdfrwt beam="1">  1        1 0.16866865E-01 0.53021275E+03</pdfrwt>
<pdfrwt beam="2">  1       -1 0.17737608E+00 0.53021275E+03</pdfrwt>
<totfact> 0.74207422E+01</totfact>
</mgrwt>
</event>
<event>
 5    0  0.2754780E-002  0.5750615E+03  0.7546771E-02  0.9958540E-01
          2   -1    0    0  502    0  0.00000000000E+00  0.00000000000E+00  0.96234729031E+03  0.96234729031E+03  0.00000000000E+00 0. -1.
         -2   -1    0    0    0  501 -0.00000000000E+00 -0.00000000000E+00 -0.25020006417E+03  0.25020006417E+03  0.00000000000E+00 0.  1.
         25    1    1    2    0    0  0.23391598515E+03 -0.17534829870E+03  0.50257669587E+02  0.32189213616E+03  0.12500000000E+03 0.  0.
         21    1    1    2  502  503 -0.16821370513E+03  0.19440063192E+03  0.34305387868E+02  0.25935365029E+03  0.00000000000E+00 0.  1.
         21    1    1    2  503  501 -0.65702280029E+02 -0.19052333224E+02  0.62758416869E+03  0.63130156803E+03  0.00000000000E+00 0. -1.
<mgrwt>
<rscale>  4 0.57506152E+03</rscale>
<asrwt>0</asrwt>
<pdfrwt beam="1">  1        2 0.14805343E+00 0.57506152E+03</pdfrwt>
<pdfrwt beam="2">  1       -2 0.38492318E-01 0.57506152E+03</pdfrwt>
<totfact> 0.17379634E+02</totfact>
</mgrwt>
</event>
<event>
 5    0  0.2754780E-002  0.6608801E+03  0.7546771E-02  0.9786575E-01
         -2   -1    0    0    0  501 -0.00000000000E+00  0.00000000000E+00  0.68795331054E+02  0.68795331054E+02  0.00000000000E+00 0. -1.
          2   -1    0    0  503    0  0.00000000000E+00 -0.00000000000E+00 -0.17829652678E+04  0.17829652678E+04  0.00000000000E+00 0.  1.
         25    1    1    2    0    0 -0.17691070744E+03  0.25243898738E+03 -0.72380917759E+03  0.79658493981E+03  0.12500000000E+03 0.  0.
         21    1    1    2  502  501 -0.16970978705E+02  0.11034620902E+02 -0.18218415495E+03  0.18330532805E+03  0.00000000000E+00 0. -1.
         21    1    1    2  503  502  0.19388168615E+03 -0.26347360829E+03 -0.80817660418E+03  0.87187033097E+03  0.00000000000E+00 0. -1.
<mgrwt>
<rscale>  4 0.66088014E+03</rscale>
<asrwt>0</asrwt>
<pdfrwt beam="1">  1        2 0.27430229E+00 0.66088014E+03</pdfrwt>
<pdfrwt beam="2">  1       -2 0.10583899E-01 0.66088014E+03</pdfrwt>
<totfact> 0.56505286E+02</totfact>
</mgrwt>
</event>
<event>
 5    0  0.2754780E-002  0.4521347E+03  0.7546771E-02  0.1027087E+00
          2   -1    0    0  503    0  0.00000000000E+00  0.00000000000E+00  0.20221814472E+04  0.20221814472E+04  0.00000000000E+00 0. -1.
         -2   -1    0    0    0  501 -0.00000000000E+00 -0.00000000000E+00 -0.41460623280E+02  0.41460623280E+02  0.00000000000E+00 0.  1.
         25    1    1    2    0    0 -0.14226353108E+03 -0.14786508018E+03  0.45866447685E+03  0.51778479751E+03  0.12500000000E+03 0.  0.
         21    1    1    2  502  501  0.11324306196E+03 -0.59594497776E+01  0.60476657130E+03  0.61530651864E+03  0.00000000000E+00 0. -1.
         21    1    1    2  503  502  0.29020469112E+02  0.15382452995E+03  0.91728977575E+03  0.93055075430E+03  0.00000000000E+00 0. -1.
<mgrwt>
<rscale>  4 0.45213468E+03</rscale>
<asrwt>0</asrwt>
<pdfrwt beam="1">  1        2 0.31110476E+00 0.45213468E+03</pdfrwt>
<pdfrwt beam="2">  1       -2 0.63785590E-02 0.45213468E+03</pdfrwt>
<totfact> 0.95657192E+02</totfact>
</mgrwt>
</event>
<event>
 5    0  0.2754780E-002  0.4961889E+03  0.7546771E-02  0.1014778E+00
          1   -1    0    0  503    0  0.00000000000E+00  0.00000000000E+00  0.16931209193E+04  0.16931209193E+04  0.00000000000E+00 0.  1.
         -1   -1    0    0    0  501 -0.00000000000E+00 -0.00000000000E+00 -0.36353495648E+02  0.36353495648E+02  0.00000000000E+00 0. -1.
         25    1    1    2    0    0 -0.73619510769E+02 -0.19896862971E+03  0.64775004595E+03  0.69297436460E+03  0.12500000000E+03 0.  0.
         21    1    1    2  502  501  0.14362939984E+00  0.12019708869E+03  0.67266084757E+03  0.68331542981E+03  0.00000000000E+00 0.  1.
         21    1    1    2  503  502  0.73475881369E+02  0.78771541026E+02  0.33635653012E+03  0.35318462052E+03  0.00000000000E+00 0.  1.
<mgrwt>
<rscale>  4 0.49618893E+03</rscale>
<asrwt>0</asrwt>
<pdfrwt beam="1">  1        1 0.26048008E+00 0.49618893E+03</pdfrwt>
<pdfrwt beam="2">  1       -1 0.55928468E-02 0.49618893E+03</pdfrwt>
<totfact> 0.78026618E+02</totfact>
</mgrwt>
</event>
<event>
 5    0  0.2754780E-002  0.5181640E+03  0.7546771E-02  0.1009144E+00
         -1   -1    0    0    0  501 -0.00000000000E+00  0.00000000000E+00  0.20824574855E+03  0.20824574855E+03  0.00000000000E+00 0. -1.
          1   -1    0    0  503    0  0.00000000000E+00 -0.00000000000E+00 -0.66228121094E+03  0.66228121094E+03  0.00000000000E+00 0.  1.
         25    1    1    2    0    0 -0.30070854111E+01  0.24955594285E+03 -0.15554155961E+03  0.31953933708E+03  0.12500000000E+03 0.  0.
         21    1    1    2  502  501  0.45653535540E+02 -0.43888317018E+02 -0.33226614078E+03  0.33824727344E+03  0.00000000000E+00 0.  1.
         21    1    1    2  503  502 -0.42646450129E+02 -0.20566762583E+03  0.33772238002E+02  0.21274034898E+03  0.00000000000E+00 0. -1.
<mgrwt>
<rscale>  4 0.51816397E+03</rscale>
<asrwt>0</asrwt>
<pdfrwt beam="1">  1        1 0.10188942E+00 0.51816397E+03</pdfrwt>
<pdfrwt beam="2">  1       -1 0.32037807E-01 0.51816397E+03</pdfrwt>
<totfact> 0.27546733E+02</totfact>
</mgrwt>
</event>
<event>
 5    0  0.2754780E-002  0.7262517E+03  0.7546771E-02  0.9673362E-01
          1   -1    0    0  503    0  0.00000000000E+00  0.00000000000E+00  0.19753878872E+04  0.19753878872E+04  0.00000000000E+00 0. -1.
         -1   -1    0    0    0  501 -0.00000000000E+00 -0.00000000000E+00 -0.96476080379E+02  0.96476080379E+02  0.00000000000E+00 0.  1.
         25    1    1    2    0    0 -0.70771343871E+02 -0.31883563682E+03  0.53645828334E+03  0.64037273223E+03  0.12500000000E+03 0.  0.
         21    1    1    2  502  501  0.73388302879E+02  0.27991412336E+03  0.13587442144E+04  0.13892169015E+04  0.00000000000E+00 0. -1.
         21    1    1    2  503  502 -0.26169590088E+01  0.38921513468E+02 -0.16290690920E+02  0.42274333770E+02  0.00000000000E+00 0.  1.
<mgrwt>
<rscale>  4 0.72625173E+03</rscale>
<asrwt>0</asrwt>
<pdfrwt beam="1">  1        1 0.30390580E+00 0.72625173E+03</pdfrwt>
<pdfrwt beam="2">  1       -1 0.14842475E-01 0.72625173E+03</pdfrwt>
<totfact> 0.10694840E+02</totfact>
</mgrwt>
</event>
<event>
 5    0  0.2754780E-002  0.5456884E+03  0.7546771E-02  0.1002497E+00
         -1   -1    0    0    0  501 -0.00000000000E+00  0.00000000000E+00  0.26373233325E+03  0.26373233325E+03  0.00000000000E+00 0. -1.
          1   -1    0    0  502    0  0.00000000000E+00 -0.00000000000E+00 -0.31500687596E+03  0.31500687596E+03  0.00000000000E+00 0.  1.
         25    1    1    2    0    0  0.65681908120E+02  0.23481249373E+03  0.60738296670E+02  0.28065131560E+03  0.12500000000E+03 0.  0.
         21    1    1    2  502  503 -0.90240046769E+02 -0.23285659552E+03 -0.91283862839E+02  0.26589133821E+03  0.00000000000E+00 0.  1.
         21    1    1    2  503  501  0.24558138649E+02 -0.19558982114E+01 -0.20728976541E+02  0.32196555408E+02  0.00000000000E+00 0. -1.
<mgrwt>
<rscale>  4 0.54568841E+03</rscale>
<asrwt>0</asrwt>
<pdfrwt beam="1">  1        1 0.48462596E-01 0.54568841E+03</pdfrwt>
<pdfrwt beam="2">  1       -1 0.40574205E-01 0.54568841E+03</pdfrwt>
<totfact> 0.49391419E+02</totfact>
</mgrwt>
</event>
<event>
 5    0  0.2754780E-002  0.5941801E+03  0.7546771E-02  0.9917555E-01
         -2   -1    0    0    0  501 -0.00000000000E+00  0.00000000000E+00  0.62567079763E+02  0.62567079763E+02  0.00000000000E+00 0. -1.
          2   -1    0    0  502    0  0.00000000000E+00 -0.00000000000E+00 -0.31647636711E+04  0.31647636711E+04  0.00000000000E+00 0.  1.
         25    1    1    2    0    0  0.47022893356E+02 -0.22759371000E+03 -0.10752373057E+04  0.11071451183E+04  0.12500000000E+03 0.  0.
         21    1    1    2  502  503  0.25788726000E+03  0.13564891335E+03 -0.11766633178E+04  0.12122058530E+04  0.00000000000E+00 0.  1.
         21    1    1    2  503  501 -0.30491015336E+03  0.91944796652E+02 -0.85029596783E+03  0.90797977960E+03  0.00000000000E+00 0.  1.
<mgrwt>
<rscale>  4 0.59418008E+03</rscale>
<asrwt>0</asrwt>
<pdfrwt beam="1">  1        2 0.48688682E+00 0.59418008E+03</pdfrwt>
<pdfrwt beam="2">  1       -2 0.96257025E-02 0.59418008E+03</pdfrwt>
<totfact> 0.10841645E+02</totfact>
</mgrwt>
</event>
<event>
 5    0  0.2754780E-002  0.9859153E+03  0.7546771E-02  0.9324129E-01
         -2   -1    0    0    0  501 -0.00000000000E+00  0.00000000000E+00  0.23865565800E+04  0.23865565800E+04  0.00000000000E+00 0. -1.
          2   -1    0    0  503    0  0.00000000000E+00 -0.00000000000E+00 -0.20222006261E+03  0.20222006261E+03  0.00000000000E+00 0.  1.
         25    1    1    2    0    0 -0.31941960431E+03  0.20591918181E+03  0.15426307358E+04  0.15936643875E+04  0.12500000000E+03 0.  0.
         21    1    1    2  502  501 -0.56852977699E+02  0.11246882357E+03 -0.58403041043E+02  0.13889712938E+03  0.00000000000E+00 0.  1.
         21    1    1    2  503  502  0.37627258201E+03 -0.31838800538E+03  0.70010882267E+03  0.85621512572E+03  0.00000000000E+00 0.  1.
<mgrwt>
<rscale>  4 0.98591526E+03</rscale>
<asrwt>0</asrwt>
<pdfrwt beam="1">  1        2 0.31110781E-01 0.98591526E+03</pdfrwt>
<pdfrwt beam="2">  1       -2 0.36716253E+00 0.98591526E+03</pdfrwt>
<totfact> 0.21151200E+00</totfact>
</mgrwt>
</event>
<event>
 5    0  0.2754780E-002  0.4273243E+03  0.7546771E-02  0.1034709E+00
         -2   -1    0    0    0  501 -0.00000000000E+00  0.00000000000E+00  0.20967994973E+02  0.20967994973E+02  0.00000000000E+00 0.  1.
          2   -1    0    0  503    0  0.00000000000E+00 -0.00000000000E+00 -0.46799421289E+04  0.46799421289E+04  0.00000000000E+00 0. -1.
         25    1    1    2    0    0 -0.14515926662E+03  0.17050653070E+03 -0.17312154444E+04  0.17501073123E+04  0.12500000000E+03 0.  0.
         21    1    1    2  502  501  0.14462147916E+02 -0.94609491567E+02 -0.23979376274E+04  0.23998468649E+04  0.00000000000E+00 0.  1.
         21    1    1    2  503  502  0.13069711870E+03 -0.75897039137E+02 -0.52982106212E+03  0.55095594674E+03  0.00000000000E+00 0. -1.
<mgrwt>
<rscale>  4 0.42732428E+03</rscale>
<asrwt>0</asrwt>
<pdfrwt beam="1">  1        2 0.71999178E+00 0.42732428E+03</pdfrwt>
<pdfrwt beam="2">  1       -2 0.32258423E-02 0.42732428E+03</pdfrwt>
<totfact> 0.40541179E+01</totfact>
</mgrwt>
</event>
<event>
 5    0  0.2754780E-002  0.6384085E+03  0.7546771E-02  0.9828776E-01
          2   -1    0    0  503    0  0.00000000000E+00  0.00000000000E+00  0.14528917991E+04  0.14528917991E+04  0.00000000000E+00 0.  1.
         -2   -1    0    0    0  501 -0.00000000000E+00 -0.00000000000E+00 -0.22380239414E+03  0.22380239414E+03  0.00000000000E+00 0. -1.
         25    1    1    2    0    0  0.27993427262E+03  0.76485103454E+02  0.13105421414E+02  0.31624345070E+03  0.12500000000E+03 0.  0.
         21    1    1    2  502  501  0.12160472323E+01 -0.12650722928E+03  0.98519327497E+03  0.99328311517E+03  0.00000000000E+00 0.  1.
         21    1    1    2  503  502 -0.28115031986E+03  0.50022125830E+02  0.23079070859E+03  0.36716762738E+03  0.00000000000E+00 0.  1.
<mgrwt>
<rscale>  4 0.63840847E+03</rscale>
<asrwt>0</asrwt>
<pdfrwt beam="1">  1        2 0.22352181E+00 0.63840847E+03</pdfrwt>
<pdfrwt beam="2">  1       -2 0.34431138E-01 0.63840847E+03</pdfrwt>
<totfact> 0.10968641E+02</totfact>
</mgrwt>
</event>
<event>
 5    0  0.2754780E-002  0.5377561E+03  0.7546771E-02  0.1004368E+00
          1   -1    0    0  502    0  0.00000000000E+00  0.00000000000E+00  0.29701731313E+03  0.29701731313E+03  0.00000000000E+00 0. -1.
         -1   -1    0    0    0  501 -0.00000000000E+00 -0.00000000000E+00 -0.27580858336E+03  0.27580858336E+03  0.00000000000E+00 0.  1.
         25    1    1    2    0    0  0.19959862694E+03 -0.30789066495E+02  0.14247729300E+03  0.27696995778E+03  0.12500000000E+03 0.  0.
         21    1    1    2  502  503 -0.22000234211E+03  0.58316580421E+02 -0.12772300033E+03  0.26098854170E+03  0.00000000000E+00 0.  1.
         21    1    1    2  503  501  0.20403715175E+02 -0.27527513926E+02  0.64544371027E+01  0.34867397010E+02  0.00000000000E+00 0. -1.
<mgrwt>
<rscale>  4 0.53775613E+03</rscale>
<asrwt>0</asrwt>
<pdfrwt beam="1">  1        1 0.45694971E-01 0.53775613E+03</pdfrwt>
<pdfrwt beam="2">  1       -1 0.42432090E-01 0.53775613E+03</pdfrwt>
<totfact> 0.49121291E+02</totfact>
</mgrwt>
</event>
<event>
 5    0  0.2754780E-002  0.6495543E+03  0.7546771E-02  0.9807616E-01
         -1   -1    0    0    0  501 -0.00000000000E+00  0.00000000000E+00  0.23286605630E+03  0.23286605630E+03  0.00000000000E+00 0.  1.
          1   -1    0    0  503    0  0.00000000000E+00 -0.00000000000E+00 -0.54592695681E+03  0.54592695681E+03  0.00000000000E+00 0. -1.
         25    1    1    2    0    0 -0.27359977092E+03  0.88639294654E+02 -0.26016673451E+02  0.31466748561E+03  0.12500000000E+03 0.  0.
         21    1    1    2  502  501 -0.10335473693E+02  0.41295494563E+02 -0.76418200399E+02  0.87475032094E+02  0.00000000000E+00 0.  1.
         21    1    1    2  503  502  0.28393524461E+03 -0.12993478922E+03 -0.21062602666E+03  0.37665049541E+03  0.00000000000E+00 0.  1.
<mgrwt>
<rscale>  4 0.64955430E+03</rscale>
<asrwt>0</asrwt>
<pdfrwt beam="1">  1        1 0.83988762E-01 0.64955430E+03</pdfrwt>
<pdfrwt beam="2">  1       -1 0.35825547E-01 0.64955430E+03</pdfrwt>
<totfact> 0.29603248E+02</totfact>
</mgrwt>
</event>
<event>
 5    0  0.2754780E-002  0.8417942E+03  0.7546771E-02  0.9501417E-01
          1   -1    0    0  502    0  0.00000000000E+00  0.00000000000E+00  0.11476888391E+03  0.11476888391E+03  0.00000000000E+00 0. -1.
         -1   -1    0    0    0  501 -0.00000000000E+00 -0.00000000000E+00 -0.15435748283E+04  0.15435748283E+04  0.00000000000E+00 0.  1.
         25    1    1    2    0    0 -0.69526890082E+02 -0.38963575736E+03 -0.92365218592E+03  0.10126244972E+04  0.12500000000E+03 0.  0.
         21    1    1    2  502  503  0.49636594656E+02  0.36494986697E+03 -0.48125298616E+03  0.60601702420E+03  0.00000000000E+00 0.  1.
         21    1    1    2  503  501  0.19890295426E+02  0.24685890395E+02 -0.23900772355E+02  0.39702190819E+02  0.00000000000E+00 0.  1.
<mgrwt>
<rscale>  4 0.84179418E+03</rscale>
<asrwt>0</asrwt>
<pdfrwt beam="1">  1        1 0.17656753E-01 0.84179418E+03</pdfrwt>
<pdfrwt beam="2">  1       -1 0.23747302E+00 0.84179418E+03</pdfrwt>
<totfact> 0.26643655E+01</totfact>
</mgrwt>
</event>
<event>
 5    0  0.2754780E-002  0.6276934E+03  0.7546771E-02  0.9849560E-01
          2   -1    0    0  503    0  0.00000000000E+00  0.00000000000E+00  0.11939337338E+04  0.11939337338E+04  0.00000000000E+00 0. -1.
         -2   -1    0    0    0  501 -0.00000000000E+00 -0.00000000000E+00 -0.12632854833E+03  0.12632854833E+03  0.00000000000E+00 0.  1.
         25    1    1    2    0    0  0.33294638664E+03 -0.53337583072E+02  0.39857691242E+03  0.53683027975E+03  0.12500000000E+03 0.  0.
         21    1    1    2  502  501 -0.22281161287E+03  0.29046963924E+02  0.62181338425E+03  0.66116611058E+03  0.00000000000E+00 0. -1.
         21    1    1    2  503  502 -0.11013477377E+03  0.24290619148E+02  0.47214888786E+02  0.12226589179E+03  0.00000000000E+00 0. -1.
<mgrwt>
<rscale>  4 0.62769339E+03</rscale>
<asrwt>0</asrwt>
<pdfrwt beam="1">  1        2 0.18368211E+00 0.62769339E+03</pdfrwt>
<pdfrwt beam="2">  1       -2 0.19435162E-01 0.62769339E+03</pdfrwt>
<totfact> 0.43482476E+02</totfact>
</mgrwt>
</event>
<event>
 5    0  0.2754780E-002  0.6655241E+03  0.7546771E-02  0.9778078E-01
          1   -1    0    0  502    0  0.00000000000E+00  0.00000000000E+00  0.80485003013E+03  0.80485003013E+03  0.00000000000E+00 0.  1.
         -1   -1    0    0    0  501 -0.00000000000E+00 -0.00000000000E+00 -0.21893483564E+03  0.21893483564E+03  0.00000000000E+00 0. -1.
         25    1    1    2    0    0 -0.29602619795E+03  0.92852041071E+02  0.12959259346E+03  0.35870914636E+03  0.12500000000E+03 0.  0.
         21    1    1    2  502  503  0.42069454414E+02 -0.10880664918E+03 -0.26206769281E+02  0.11956387689E+03  0.00000000000E+00 0.  1.
         21    1    1    2  503  501  0.25395674354E+03  0.15954608111E+02  0.48252937032E+03  0.54551184252E+03  0.00000000000E+00 0.  1.
<mgrwt>
<rscale>  4 0.66552408E+03</rscale>
<asrwt>0</asrwt>
<pdfrwt beam="1">  1        1 0.12382308E+00 0.66552408E+03</pdfrwt>
<pdfrwt beam="2">  1       -1 0.33682283E-01 0.66552408E+03</pdfrwt>
<totfact> 0.18549659E+02</totfact>
</mgrwt>
</event>
<event>
 5    0  0.2754780E-002  0.8559074E+03  0.7546771E-02  0.9482442E-01
         -1   -1    0    0    0  501 -0.00000000000E+00  0.00000000000E+00  0.91754788293E+03  0.91754788293E+03  0.00000000000E+00 0.  1.
          1   -1    0    0  502    0  0.00000000000E+00 -0.00000000000E+00 -0.35594824761E+03  0.35594824761E+03  0.00000000000E+00 0. -1.
         25    1    1    2    0    0  0.31478296554E+02  0.46303140898E+03  0.44491444642E+03  0.65495254293E+03  0.12500000000E+03 0.  0.
         21    1    1    2  502  503  0.49527778576E+02 -0.36705130426E+03  0.24095602892E+03  0.44185910502E+03  0.00000000000E+00 0. -1.
         21    1    1    2  503  501 -0.81006075130E+02 -0.95980104714E+02 -0.12427084003E+03  0.17668448260E+03  0.00000000000E+00 0. -1.
<mgrwt>
<rscale>  4 0.85590740E+03</rscale>
<asrwt>0</asrwt>
<pdfrwt beam="1">  1        1 0.54761269E-01 0.85590740E+03</pdfrwt>
<pdfrwt beam="2">  1       -1 0.14116121E+00 0.85590740E+03</pdfrwt>
<totfact> 0.29130959E+01</totfact>
</mgrwt>
</event>
<event>
 5    0  0.2754780E-002  0.9324734E+03  0.7546771E-02  0.9385874E-01
         -1   -1    0    0    0  501 -0.00000000000E+00  0.00000000000E+00  0.29232170259E+03  0.29232170259E+03  0.00000000000E+00 0.  1.
          1   -1    0    0  502    0  0.00000000000E+00 -0.00000000000E+00 -0.11473405764E+04  0.11473405764E+04  0.00000000000E+00 0. -1.
         25    1    1    2    0    0  0.15099204782E+03 -0.32464520135E+03 -0.53075770268E+03  0.65232035398E+03  0.12500000000E+03 0.  0.
         21    1    1    2  502  503 -0.17325137150E+03  0.33386544471E+03  0.78180142053E+02  0.38418004569E+03  0.00000000000E+00 0.  1.
         21    1    1    2  503  501  0.22259323680E+02 -0.92202433551E+01 -0.40244131315E+03  0.40316187928E+03  0.00000000000E+00 0.  1.
<mgrwt>
<rscale>  4 0.93247339E+03</rscale>
<asrwt>0</asrwt>
<pdfrwt beam="1">  1        1 0.17651394E+00 0.93247339E+03</pdfrwt>
<pdfrwt beam="2">  1       -1 0.44972569E-01 0.93247339E+03</pdfrwt>
<totfact> 0.57743831E+01</totfact>
</mgrwt>
</event>
<event>
 5    0  0.2754780E-002  0.5694268E+03  0.7546771E-02  0.9970948E-01
          1   -1    0    0  502    0  0.00000000000E+00  0.00000000000E+00  0.80372914620E+03  0.80372914620E+03  0.00000000000E+00 0. -1.
         -1   -1    0    0    0  501 -0.00000000000E+00 -0.00000000000E+00 -0.10085700116E+03  0.10085700116E+03  0.00000000000E+00 0.  1.
         25    1    1    2    0    0 -0.55816068944E+02  0.21532502828E+03  0.13446184721E+03  0.28841860153E+03  0.12500000000E+03 0.  0.
         21    1    1    2  502  503  0.71870511401E+02 -0.13534032270E+03  0.32200291203E+03  0.35660657413E+03  0.00000000000E+00 0. -1.
         21    1    1    2  503  501 -0.16054442457E+02 -0.79984705580E+02  0.24640738581E+03  0.25956097170E+03  0.00000000000E+00 0. -1.
<mgrwt>
<rscale>  4 0.56942677E+03</rscale>
<asrwt>0</asrwt>
<pdfrwt beam="1">  1        1 0.12365063E+00 0.56942677E+03</pdfrwt>
<pdfrwt beam="2">  1       -1 0.15516462E-01 0.56942677E+03</pdfrwt>
<totfact> 0.69052888E+02</totfact>
</mgrwt>
</event>
<event>
 5    0  0.2754780E-002  0.4855938E+03  0.7546771E-02  0.1017609E+00
          1   -1    0    0  503    0  0.00000000000E+00  0.00000000000E+00  0.27197446580E+03  0.27197446580E+03  0.00000000000E+00 0. -1.
         -1   -1    0    0    0  501 -0.00000000000E+00 -0.00000000000E+00 -0.21674951293E+03  0.21674951293E+03  0.00000000000E+00 0.  1.
         25    1    1    2    0    0 -0.15331042796E+03  0.14963523849E+03  0.78932599874E+02  0.26028858454E+03  0.12500000000E+03 0.  0.
         21    1    1    2  502  501 -0.33548377859E+01 -0.28919089674E+02  0.93122842347E+00  0.29127922524E+02  0.00000000000E+00 0. -1.
         21    1    1    2  503  502  0.15666526575E+03 -0.12071614882E+03 -0.24638875420E+02  0.19930747166E+03  0.00000000000E+00 0. -1.
<mgrwt>
<rscale>  4 0.48559379E+03</rscale>
<asrwt>0</asrwt>
<pdfrwt beam="1">  1        1 0.41842225E-01 0.48559379E+03</pdfrwt>
<pdfrwt beam="2">  1       -1 0.33346079E-01 0.48559379E+03</pdfrwt>
<totfact> 0.84696830E+02</totfact>
</mgrwt>
</event>
<event>
 5    0  0.2754780E-002  0.5624212E+03  0.7546771E-02  0.9986591E-01
          3   -1    0    0  502    0  0.00000000000E+00  0.00000000000E+00  0.76847382171E+03  0.76847382171E+03  0.00000000000E+00 0. -1.
         -3   -1    0    0    0  501 -0.00000000000E+00 -0.00000000000E+00 -0.35655546222E+03  0.35655546222E+03  0.00000000000E+00 0.  1.
         25    1    1    2    0    0  0.88132044539E+02 -0.30209280813E+03 -0.18591593156E+02  0.33911350509E+03  0.12500000000E+03 0.  0.
         21    1    1    2  502  503  0.67384517515E+01  0.11277469842E+03  0.53709323791E+03  0.54884668674E+03  0.00000000000E+00 0. -1.
         21    1    1    2  503  501 -0.94870496291E+02  0.18931810971E+03 -0.10658328527E+03  0.23706909210E+03  0.00000000000E+00 0. -1.
<mgrwt>
<rscale>  4 0.56242123E+03</rscale>
<asrwt>0</asrwt>
<pdfrwt beam="1">  1        3 0.11822674E+00 0.56242123E+03</pdfrwt>
<pdfrwt beam="2">  1       -3 0.54854687E-01 0.56242123E+03</pdfrwt>
<totfact> 0.50367926E+00</totfact>
</mgrwt>
</event>
<event>
 5    0  0.2754780E-002  0.7682516E+03  0.7546771E-02  0.9607144E-01
         -2   -1    0    0    0  501 -0.00000000000E+00  0.00000000000E+00  0.19062889178E+03  0.19062889178E+03  0.00000000000E+00 0. -1.
          2   -1    0    0  502    0  0.00000000000E+00 -0.00000000000E+00 -0.84861365814E+03  0.84861365814E+03  0.00000000000E+00 0.  1.
         25    1    1    2    0    0 -0.24706692861E+03  0.24163059805E+03 -0.52164353106E+03  0.63809433991E+03  0.12500000000E+03 0.  0.
         21    1    1    2  502  503  0.22690175637E+03 -0.23211747525E+03 -0.71223016071E+02  0.33231859319E+03  0.00000000000E+00 0. -1.
         21    1    1    2  503  501  0.20165172241E+02 -0.95131228059E+01 -0.65118219223E+02  0.68829616822E+02  0.00000000000E+00 0.  1.
<mgrwt>
<rscale>  4 0.76825160E+03</rscale>
<asrwt>0</asrwt>
<pdfrwt beam="1">  1        2 0.13055595E+00 0.76825160E+03</pdfrwt>
<pdfrwt beam="2">  1       -2 0.29327522E-01 0.76825160E+03</pdfrwt>
<totfact> 0.34216828E+02</totfact>
</mgrwt>
</event>
<event>
 5    0  0.2754780E-002  0.4705139E+03  0.7546771E-02  0.1021775E+00
         -3   -1    0    0    0  501 -0.00000000000E+00  0.00000000000E+00  0.12621436645E+04  0.12621436645E+04  0.00000000000E+00 0.  1.
          3   -1    0    0  502    0  0.00000000000E+00 -0.00000000000E+00 -0.68099990363E+02  0.68099990363E+02  0.00000000000E+00 0. -1.
         25    1    1    2    0    0 -0.20835402923E+03 -0.11417365434E+03  0.50613017714E+03  0.57292214222E+03  0.12500000000E+03 0.  0.
         21    1    1    2  502  503  0.16803497805E+03  0.66309229664E+02  0.66747152893E+03  0.69148456940E+03  0.00000000000E+00 0.  1.
         21    1    1    2  503  501  0.40319051186E+02  0.47864424672E+02  0.20441968084E+02  0.65836943253E+02  0.00000000000E+00 0.  1.
<mgrwt>
<rscale>  4 0.47051394E+03</rscale>
<asrwt>0</asrwt>
<pdfrwt beam="1">  1        3 0.10476923E-01 0.47051394E+03</pdfrwt>
<pdfrwt beam="2">  1       -3 0.19417593E+00 0.47051394E+03</pdfrwt>
<totfact> 0.29993745E+01</totfact>
</mgrwt>
</event>
<event>
 5    0  0.2754780E-002  0.5408347E+03  0.7546771E-02  0.1003638E+00
         -2   -1    0    0    0  501 -0.00000000000E+00  0.00000000000E+00  0.20640153027E+03  0.20640153027E+03  0.00000000000E+00 0.  1.
          2   -1    0    0  503    0  0.00000000000E+00 -0.00000000000E+00 -0.39408450148E+03  0.39408450148E+03  0.00000000000E+00 0. -1.
         25    1    1    2    0    0  0.12968940407E+03 -0.17762553367E+03 -0.22949935348E+03  0.34156276873E+03  0.12500000000E+03 0.  0.
         21    1    1    2  502  501  0.86828949834E+01  0.19971878526E+02 -0.30117714139E+02  0.37166453989E+02  0.00000000000E+00 0. -1.
         21    1    1    2  503  502 -0.13837229905E+03  0.15765365514E+03  0.71934096400E+02  0.22175680903E+03  0.00000000000E+00 0.  1.
<mgrwt>
<rscale>  4 0.54083467E+03</rscale>
<asrwt>0</asrwt>
<pdfrwt beam="1">  1        2 0.60628384E-01 0.54083467E+03</pdfrwt>
<pdfrwt beam="2">  1       -2 0.31754082E-01 0.54083467E+03</pdfrwt>
<totfact> 0.74921074E+02</totfact>
</mgrwt>
</event>
<event>
 5    0  0.2754780E-002  0.1246223E+04  0.7546771E-02  0.9073333E-01
         -2   -1    0    0    0  501 -0.00000000000E+00  0.00000000000E+00  0.15064483891E+03  0.15064483891E+03  0.00000000000E+00 0.  1.
          2   -1    0    0  503    0  0.00000000000E+00 -0.00000000000E+00 -0.35283944077E+04  0.35283944077E+04  0.00000000000E+00 0. -1.
         25    1    1    2    0    0 -0.49202205869E+03  0.58697631016E+02 -0.54328580146E+03  0.74586565828E+03  0.12500000000E+03 0.  0.
         21    1    1    2  502  501  0.38398006901E+03 -0.21364854430E+03 -0.25750411380E+04  0.26122640097E+04  0.00000000000E+00 0. -1.
         21    1    1    2  503  502  0.10804198967E+03  0.15495091328E+03 -0.25942262928E+03  0.32090957861E+03  0.00000000000E+00 0. -1.
<mgrwt>
<rscale>  4 0.12462231E+04</rscale>
<asrwt>0</asrwt>
<pdfrwt beam="1">  1        2 0.54282992E+00 0.12462231E+04</pdfrwt>
<pdfrwt beam="2">  1       -2 0.23176129E-01 0.12462231E+04</pdfrwt>
<totfact> 0.12844405E+01</totfact>
</mgrwt>
</event>
<event>
 5    0  0.2754780E-002  0.4350467E+03  0.7546771E-02  0.1032278E+00
         -2   -1    0    0    0  501 -0.00000000000E+00  0.00000000000E+00  0.11255078207E+03  0.11255078207E+03  0.00000000000E+00 0. -1.
          2   -1    0    0  503    0  0.00000000000E+00 -0.00000000000E+00 -0.72059443427E+03  0.72059443427E+03  0.00000000000E+00 0.  1.
         25    1    1    2    0    0  0.17049631334E+03  0.11783039335E+03 -0.10716452018E+03  0.26469270644E+03  0.12500000000E+03 0.  0.
         21    1    1    2  502  501 -0.21808085112E+02 -0.21771773827E+02 -0.29638993821E+03  0.29798758058E+03  0.00000000000E+00 0.  1.
         21    1    1    2  503  502 -0.14868822823E+03 -0.96058619526E+02 -0.20448919382E+03  0.27046492931E+03  0.00000000000E+00 0.  1.
<mgrwt>
<rscale>  4 0.43504673E+03</rscale>
<asrwt>0</asrwt>
<pdfrwt beam="1">  1        2 0.11086068E+00 0.43504673E+03</pdfrwt>
<pdfrwt beam="2">  1       -2 0.17315506E-01 0.43504673E+03</pdfrwt>
<totfact> 0.10887836E+03</totfact>
</mgrwt>
</event>
<event>
 5    0  0.2754780E-002  0.1062932E+04  0.7546771E-02  0.9242094E-01
         -2   -1    0    0    0  501 -0.00000000000E+00  0.00000000000E+00  0.12387476792E+04  0.12387476792E+04  0.00000000000E+00 0. -1.
          2   -1    0    0  503    0  0.00000000000E+00 -0.00000000000E+00 -0.25641438225E+03  0.25641438225E+03  0.00000000000E+00 0.  1.
         25    1    1    2    0    0 -0.49953290055E+03  0.11798508064E+03  0.45767419661E+03  0.69895941815E+03  0.12500000000E+03 0.  0.
         21    1    1    2  502  501 -0.14930635605E+02  0.20989476941E+02 -0.21189977281E+02  0.33354117572E+02  0.00000000000E+00 0. -1.
         21    1    1    2  503  502  0.51446353615E+03 -0.13897455758E+03  0.54584907764E+03  0.76284852575E+03  0.00000000000E+00 0. -1.
<mgrwt>
<rscale>  4 0.10629316E+04</rscale>
<asrwt>0</asrwt>
<pdfrwt beam="1">  1        2 0.39448367E-01 0.10629316E+04</pdfrwt>
<pdfrwt beam="2">  1       -2 0.19057656E+00 0.10629316E+04</pdfrwt>
<totfact> 0.19981250E+01</totfact>
</mgrwt>
</event>
<event>
 5    0  0.2754780E-002  0.9098554E+03  0.7546771E-02  0.9413345E-01
         -2   -1    0    0    0  501 -0.00000000000E+00  0.00000000000E+00  0.28920753887E+03  0.28920753887E+03  0.00000000000E+00 0.  1.
          2   -1    0    0  503    0  0.00000000000E+00 -0.00000000000E+00 -0.22195549894E+04  0.22195549894E+04  0.00000000000E+00 0. -1.
         25    1    1    2    0    0  0.45916181662E+03 -0.22851061642E+03 -0.12940623226E+04  0.13975939934E+04  0.12500000000E+03 0.  0.
         21    1    1    2  502  501 -0.37462525775E+03  0.59288475452E+02 -0.78415573190E+03  0.87106797607E+03  0.00000000000E+00 0.  1.
         21    1    1    2  503  502 -0.84536558869E+02  0.16922214097E+03  0.14787060401E+03  0.24010055875E+03  0.00000000000E+00 0.  1.
<mgrwt>
<rscale>  4 0.90985540E+03</rscale>
<asrwt>0</asrwt>
<pdfrwt beam="1">  1        2 0.34147000E+00 0.90985540E+03</pdfrwt>
<pdfrwt beam="2">  1       -2 0.44493467E-01 0.90985540E+03</pdfrwt>
<totfact> 0.24532556E+01</totfact>
</mgrwt>
</event>
<event>
 5    0  0.2754780E-002  0.5808647E+03  0.7546771E-02  0.9945921E-01
         -1   -1    0    0    0  501 -0.00000000000E+00  0.00000000000E+00  0.11587273816E+04  0.11587273816E+04  0.00000000000E+00 0. -1.
          1   -1    0    0  502    0  0.00000000000E+00 -0.00000000000E+00 -0.87665297503E+02  0.87665297503E+02  0.00000000000E+00 0.  1.
         25    1    1    2    0    0 -0.29407790130E+01 -0.27736000985E+03  0.42593106704E+03  0.52343050840E+03  0.12500000000E+03 0.  0.
         21    1    1    2  502  503  0.14941946168E+02  0.25744901465E+03  0.64993112868E+03  0.69922366159E+03  0.00000000000E+00 0. -1.
         21    1    1    2  503  501 -0.12001167155E+02  0.19910995199E+02 -0.48001116376E+01  0.23738509107E+02  0.00000000000E+00 0. -1.
<mgrwt>
<rscale>  4 0.58086466E+03</rscale>
<asrwt>0</asrwt>
<pdfrwt beam="1">  1        1 0.13486970E-01 0.58086466E+03</pdfrwt>
<pdfrwt beam="2">  1       -1 0.17826574E+00 0.58086466E+03</pdfrwt>
<totfact> 0.98306556E+01</totfact>
</mgrwt>
</event>
<event>
 5    0  0.2754780E-002  0.5735606E+03  0.7546771E-02  0.9961830E-01
         -2   -1    0    0    0  501 -0.00000000000E+00  0.00000000000E+00  0.30290065385E+03  0.30290065385E+03  0.00000000000E+00 0. -1.
          2   -1    0    0  502    0  0.00000000000E+00 -0.00000000000E+00 -0.48574775530E+03  0.48574775530E+03  0.00000000000E+00 0.  1.
         25    1    1    2    0    0 -0.14287202573E+03 -0.19759671515E+03  0.18540110217E+03  0.33084051484E+03  0.12500000000E+03 0.  0.
         21    1    1    2  502  503  0.11232876650E+03  0.14050106319E+03 -0.16357394440E+03  0.24313522128E+03  0.00000000000E+00 0.  1.
         21    1    1    2  503  501  0.30543259230E+02  0.57095651960E+02 -0.20467425922E+03  0.21467267303E+03  0.00000000000E+00 0.  1.
<mgrwt>
<rscale>  4 0.57356056E+03</rscale>
<asrwt>0</asrwt>
<pdfrwt beam="1">  1        2 0.74730423E-01 0.57356056E+03</pdfrwt>
<pdfrwt beam="2">  1       -2 0.46600101E-01 0.57356056E+03</pdfrwt>
<totfact> 0.28210565E+02</totfact>
</mgrwt>
</event>
<event>
 5    0  0.2754780E-002  0.9657329E+03  0.7546771E-02  0.9346948E-01
         -2   -1    0    0    0  501 -0.00000000000E+00  0.00000000000E+00  0.19956404063E+03  0.19956404063E+03  0.00000000000E+00 0. -1.
          2   -1    0    0  503    0  0.00000000000E+00 -0.00000000000E+00 -0.12849125497E+04  0.12849125497E+04  0.00000000000E+00 0.  1.
         25    1    1    2    0    0  0.24162469487E+03  0.12651591021E+03  0.43151906029E+02  0.30311030286E+03  0.12500000000E+03 0.  0.
         21    1    1    2  502  501  0.29207787619E+02  0.24028873396E+02 -0.90001703678E+02  0.97625756228E+02  0.00000000000E+00 0. -1.
         21    1    1    2  503  502 -0.27083248249E+03 -0.15054478361E+03 -0.10384987114E+04  0.10837405312E+04  0.00000000000E+00 0.  1.
<mgrwt>
<rscale>  4 0.96573287E+03</rscale>
<asrwt>0</asrwt>
<pdfrwt beam="1">  1        2 0.19767885E+00 0.96573287E+03</pdfrwt>
<pdfrwt beam="2">  1       -2 0.30702160E-01 0.96573287E+03</pdfrwt>
<totfact> 0.16549914E+02</totfact>
</mgrwt>
</event>
<event>
 5    0  0.2754780E-002  0.5638836E+03  0.7546771E-02  0.9983305E-01
          2   -1    0    0  502    0  0.00000000000E+00  0.00000000000E+00  0.14160755748E+04  0.14160755748E+04  0.00000000000E+00 0. -1.
         -2   -1    0    0    0  501 -0.00000000000E+00 -0.00000000000E+00 -0.12814155298E+03  0.12814155298E+03  0.00000000000E+00 0.  1.
         25    1    1    2    0    0 -0.22767248799E+03 -0.46126943545E+02  0.46595552227E+03  0.53544561390E+03  0.12500000000E+03 0.  0.
         21    1    1    2  502  503  0.20355069207E+03  0.59870873870E+02  0.27660480643E+02  0.21396847424E+03  0.00000000000E+00 0.  1.
         21    1    1    2  503  501  0.24121795922E+02 -0.13743930324E+02  0.79431801894E+03  0.79480303967E+03  0.00000000000E+00 0. -1.
<mgrwt>
<rscale>  4 0.56388360E+03</rscale>
<asrwt>0</asrwt>
<pdfrwt beam="1">  1        2 0.21785777E+00 0.56388360E+03</pdfrwt>
<pdfrwt beam="2">  1       -2 0.19714086E-01 0.56388360E+03</pdfrwt>
<totfact> 0.31794700E+02</totfact>
</mgrwt>
</event>
<event>
 5    0  0.2754780E-002  0.8398265E+03  0.7546771E-02  0.9504094E-01
          2   -1    0    0  503    0  0.00000000000E+00  0.00000000000E+00  0.17356117405E+04  0.17356117405E+04  0.00000000000E+00 0. -1.
         -2   -1    0    0    0  501 -0.00000000000E+00 -0.00000000000E+00 -0.15663983572E+03  0.15663983572E+03  0.00000000000E+00 0.  1.
         25    1    1    2    0    0 -0.17680412486E+03  0.17051016845E+03  0.86131215363E+02  0.28875076168E+03  0.12500000000E+03 0.  0.
         21    1    1    2  502  501  0.12130445597E+03 -0.80487485849E+02  0.14906300053E+04  0.14977218764E+04  0.00000000000E+00 0. -1.
         21    1    1    2  503  502  0.55499668881E+02 -0.90022682601E+02  0.22106841247E+01  0.10577893813E+03  0.00000000000E+00 0. -1.
<mgrwt>
<rscale>  4 0.83982649E+03</rscale>
<asrwt>0</asrwt>
<pdfrwt beam="1">  1        2 0.26701718E+00 0.83982649E+03</pdfrwt>
<pdfrwt beam="2">  1       -2 0.24098437E-01 0.83982649E+03</pdfrwt>
<totfact> 0.14524871E+02</totfact>
</mgrwt>
</event>
<event>
 5    0  0.2754780E-002  0.3732758E+03  0.7546771E-02  0.1053447E+00
          2   -1    0    0  502    0  0.00000000000E+00  0.00000000000E+00  0.36855329794E+03  0.36855329794E+03  0.00000000000E+00 0. -1.
         -2   -1    0    0    0  501 -0.00000000000E+00 -0.00000000000E+00 -0.46979525502E+03  0.46979525502E+03  0.00000000000E+00 0.  1.
         25    1    1    2    0    0  0.15919233092E+03 -0.13189499142E+03 -0.19941375724E+03  0.31325601919E+03  0.12500000000E+03 0.  0.
         21    1    1    2  502  503 -0.71894307327E+02  0.10002476445E+03 -0.18769080591E+03  0.22450297003E+03  0.00000000000E+00 0. -1.
         21    1    1    2  503  501 -0.87298023591E+02  0.31870226969E+02  0.28586260606E+03  0.30058956375E+03  0.00000000000E+00 0. -1.
<mgrwt>
<rscale>  4 0.37327575E+03</rscale>
<asrwt>0</asrwt>
<pdfrwt beam="1">  1        2 0.56700508E-01 0.37327575E+03</pdfrwt>
<pdfrwt beam="2">  1       -2 0.72276193E-01 0.37327575E+03</pdfrwt>
<totfact> 0.15557613E+02</totfact>
</mgrwt>
</event>
<event>
 5    0  0.2754780E-002  0.4513903E+03  0.7546771E-02  0.1027308E+00
         -2   -1    0    0    0  501 -0.00000000000E+00  0.00000000000E+00  0.69638113149E+03  0.69638113149E+03  0.00000000000E+00 0.  1.
          2   -1    0    0  502    0  0.00000000000E+00 -0.00000000000E+00 -0.11754665794E+03  0.11754665794E+03  0.00000000000E+00 0. -1.
         25    1    1    2    0    0 -0.23593307859E+03  0.63967039909E+02  0.32326346758E+03  0.42412317697E+03  0.12500000000E+03 0.  0.
         21    1    1    2  502  503  0.84019447352E+02 -0.48959301787E+02  0.20849505763E+03  0.23005753589E+03  0.00000000000E+00 0. -1.
         21    1    1    2  503  501  0.15191363124E+03 -0.15007738122E+02  0.47075948340E+02  0.15974707657E+03  0.00000000000E+00 0. -1.
<mgrwt>
<rscale>  4 0.45139029E+03</rscale>
<asrwt>0</asrwt>
<pdfrwt beam="1">  1        2 0.18084102E-01 0.45139029E+03</pdfrwt>
<pdfrwt beam="2">  1       -2 0.10713556E+00 0.45139029E+03</pdfrwt>
<totfact> 0.22762217E+02</totfact>
</mgrwt>
</event>
<event>
 5    0  0.2754780E-002  0.4765889E+03  0.7546771E-02  0.1020077E+00
         -2   -1    0    0    0  501 -0.00000000000E+00  0.00000000000E+00  0.12651405793E+03  0.12651405793E+03  0.00000000000E+00 0. -1.
          2   -1    0    0  503    0  0.00000000000E+00 -0.00000000000E+00 -0.55527882653E+03  0.55527882653E+03  0.00000000000E+00 0.  1.
         25    1    1    2    0    0 -0.11727469438E+03 -0.19764688777E+03 -0.14165713472E+03  0.29750527727E+03  0.12500000000E+03 0.  0.
         21    1    1    2  502  501  0.14311436660E+02  0.13997504311E+02 -0.10198952988E+03  0.10393561253E+03  0.00000000000E+00 0.  1.
         21    1    1    2  503  502  0.10296325772E+03  0.18364938346E+03 -0.18511810399E+03  0.28035199466E+03  0.00000000000E+00 0.  1.
<mgrwt>
<rscale>  4 0.47658889E+03</rscale>
<asrwt>0</asrwt>
<pdfrwt beam="1">  1        2 0.85427510E-01 0.47658889E+03</pdfrwt>
<pdfrwt beam="2">  1       -2 0.19463702E-01 0.47658889E+03</pdfrwt>
<totfact> 0.12199839E+03</totfact>
</mgrwt>
</event>
<event>
 5    0  0.2754780E-002  0.4833455E+03  0.7546771E-02  0.1018220E+00
          1   -1    0    0  503    0  0.00000000000E+00  0.00000000000E+00  0.68628490864E+03  0.68628490864E+03  0.00000000000E+00 0. -1.
         -1   -1    0    0    0  501 -0.00000000000E+00 -0.00000000000E+00 -0.85104171715E+02  0.85104171715E+02  0.00000000000E+00 0.  1.
         25    1    1    2    0    0  0.14370214403E+03 -0.15447544499E+03  0.22666945415E+03  0.33394162776E+03  0.12500000000E+03 0.  0.
         21    1    1    2  502  501 -0.17132113342E+02  0.40925947726E+02  0.14613086440E+03  0.15271762189E+03  0.00000000000E+00 0. -1.
         21    1    1    2  503  502 -0.12657003069E+03  0.11354949727E+03  0.22838041837E+03  0.28472983071E+03  0.00000000000E+00 0.  1.
<mgrwt>
<rscale>  4 0.48334546E+03</rscale>
<asrwt>0</asrwt>
<pdfrwt beam="1">  1        1 0.10558229E+00 0.48334546E+03</pdfrwt>
<pdfrwt beam="2">  1       -1 0.13092950E-01 0.48334546E+03</pdfrwt>
<totfact> 0.11582378E+03</totfact>
</mgrwt>
</event>
<event>
 5    0  0.2754780E-002  0.5373259E+03  0.7546771E-02  0.1004471E+00
         -2   -1    0    0    0  501 -0.00000000000E+00  0.00000000000E+00  0.69940786051E+02  0.69940786051E+02  0.00000000000E+00 0. -1.
          2   -1    0    0  503    0  0.00000000000E+00 -0.00000000000E+00 -0.12550499580E+04  0.12550499580E+04  0.00000000000E+00 0.  1.
         25    1    1    2    0    0 -0.22022569330E+03 -0.93035751440E+02 -0.32209352486E+03  0.42014788562E+03  0.12500000000E+03 0.  0.
         21    1    1    2  502  501  0.17103716619E+02 -0.20216100642E+02 -0.20977462001E+03  0.21143939805E+03  0.00000000000E+00 0.  1.
         21    1    1    2  503  502  0.20312197668E+03  0.11325185208E+03 -0.65324102708E+03  0.69340346039E+03  0.00000000000E+00 0.  1.
<mgrwt>
<rscale>  4 0.53732589E+03</rscale>
<asrwt>0</asrwt>
<pdfrwt beam="1">  1        2 0.19308459E+00 0.53732589E+03</pdfrwt>
<pdfrwt beam="2">  1       -2 0.10760122E-01 0.53732589E+03</pdfrwt>
<totfact> 0.10858448E+03</totfact>
</mgrwt>
</event>
<event>
 5    0  0.2754780E-002  0.5103419E+03  0.7546771E-02  0.1011114E+00
          2   -1    0    0  502    0  0.00000000000E+00  0.00000000000E+00  0.51345555534E+03  0.51345555534E+03  0.00000000000E+00 0.  1.
         -2   -1    0    0    0  501 -0.00000000000E+00 -0.00000000000E+00 -0.22928100647E+03  0.22928100647E+03  0.00000000000E+00 0. -1.
         25    1    1    2    0    0  0.19774870552E+03 -0.16410547570E+03  0.16213811810E+03  0.32855582027E+03  0.12500000000E+03 0.  0.
         21    1    1    2  502  503 -0.15379332708E+03  0.73490860740E+02 -0.80108383232E+02  0.18833652628E+03  0.00000000000E+00 0. -1.
         21    1    1    2  503  501 -0.43955378437E+02  0.90614614961E+02  0.20214481400E+03  0.22584421526E+03  0.00000000000E+00 0. -1.
<mgrwt>
<rscale>  4 0.51034187E+03</rscale>
<asrwt>0</asrwt>
<pdfrwt beam="1">  1        2 0.78993162E-01 0.51034187E+03</pdfrwt>
<pdfrwt beam="2">  1       -2 0.35274001E-01 0.51034187E+03</pdfrwt>
<totfact> 0.45602382E+02</totfact>
</mgrwt>
</event>
<event>
 5    0  0.2754780E-002  0.5514808E+03  0.7546771E-02  0.1001152E+00
         -1   -1    0    0    0  501 -0.00000000000E+00  0.00000000000E+00  0.37047943817E+03  0.37047943817E+03  0.00000000000E+00 0.  1.
          1   -1    0    0  502    0  0.00000000000E+00 -0.00000000000E+00 -0.53633168946E+03  0.53633168946E+03  0.00000000000E+00 0. -1.
         25    1    1    2    0    0 -0.22490067019E+03  0.18386566594E+03  0.20259332195E+03  0.37557415867E+03  0.12500000000E+03 0.  0.
         21    1    1    2  502  503  0.96576694797E+02 -0.15850282006E+03 -0.58160144149E+02  0.19450656624E+03  0.00000000000E+00 0. -1.
         21    1    1    2  503  501  0.12832397539E+03 -0.25362845878E+02 -0.31028542909E+03  0.33673040272E+03  0.00000000000E+00 0. -1.
<mgrwt>
<rscale>  4 0.55148082E+03</rscale>
<asrwt>0</asrwt>
<pdfrwt beam="1">  1        1 0.82512567E-01 0.55148082E+03</pdfrwt>
<pdfrwt beam="2">  1       -1 0.56996837E-01 0.55148082E+03</pdfrwt>
<totfact> 0.12913462E+02</totfact>
</mgrwt>
</event>
<event>
 5    0  0.2754780E-002  0.6180309E+03  0.7546771E-02  0.9868688E-01
          2   -1    0    0  503    0  0.00000000000E+00  0.00000000000E+00  0.14278620020E+03  0.14278620020E+03  0.00000000000E+00 0.  1.
         -2   -1    0    0    0  501 -0.00000000000E+00 -0.00000000000E+00 -0.74960096490E+03  0.74960096490E+03  0.00000000000E+00 0. -1.
         25    1    1    2    0    0  0.12929963494E+03  0.18153755290E+03 -0.59713660787E+03  0.64951628707E+03  0.12500000000E+03 0.  0.
         21    1    1    2  502  501  0.15220727354E+02 -0.16151047032E+02  0.49941776244E+01  0.22747937743E+02  0.00000000000E+00 0.  1.
         21    1    1    2  503  502 -0.14452036229E+03 -0.16538650587E+03 -0.14672334448E+02  0.22012294028E+03  0.00000000000E+00 0.  1.
<mgrwt>
<rscale>  4 0.61803091E+03</rscale>
<asrwt>0</asrwt>
<pdfrwt beam="1">  1        2 0.21967107E-01 0.61803091E+03</pdfrwt>
<pdfrwt beam="2">  1       -2 0.11532323E+00 0.61803091E+03</pdfrwt>
<totfact> 0.15105485E+02</totfact>
</mgrwt>
</event>
<event>
 5    0  0.2754780E-002  0.5699648E+03  0.7546771E-02  0.9969756E-01
          1   -1    0    0  503    0  0.00000000000E+00  0.00000000000E+00  0.41628502428E+03  0.41628502428E+03  0.00000000000E+00 0. -1.
         -1   -1    0    0    0  501 -0.00000000000E+00 -0.00000000000E+00 -0.52779165856E+03  0.52779165856E+03  0.00000000000E+00 0.  1.
         25    1    1    2    0    0  0.38420546012E+01 -0.25086256505E+03 -0.18428678219E+03  0.33545999167E+03  0.12500000000E+03 0.  0.
         21    1    1    2  502  501  0.63521023441E+02 -0.30823863890E+02  0.25622837756E+03  0.26577812640E+03  0.00000000000E+00 0. -1.
         21    1    1    2  503  502 -0.67363078042E+02  0.28168642894E+03 -0.18344822966E+03  0.34283856477E+03  0.00000000000E+00 0. -1.
<mgrwt>
<rscale>  4 0.56996482E+03</rscale>
<asrwt>0</asrwt>
<pdfrwt beam="1">  1        1 0.64043850E-01 0.56996482E+03</pdfrwt>
<pdfrwt beam="2">  1       -1 0.81198717E-01 0.56996482E+03</pdfrwt>
<totfact> 0.88724420E+01</totfact>
</mgrwt>
</event>
<event>
 5    0  0.2754780E-002  0.6415781E+03  0.7546771E-02  0.9822712E-01
         -2   -1    0    0    0  501 -0.00000000000E+00  0.00000000000E+00  0.33501013060E+02  0.33501013060E+02  0.00000000000E+00 0. -1.
          2   -1    0    0  502    0  0.00000000000E+00 -0.00000000000E+00 -0.30717169416E+04  0.30717169416E+04  0.00000000000E+00 0.  1.
         25    1    1    2    0    0 -0.28782000361E+03 -0.28785862404E+02 -0.12626686596E+04  0.13013939159E+04  0.12500000000E+03 0.  0.
         21    1    1    2  502  503  0.19573896873E+03  0.27693464364E+02 -0.80502224615E+03  0.82893997892E+03  0.00000000000E+00 0. -1.
         21    1    1    2  503  501  0.92081034883E+02  0.10923980398E+01 -0.97052502270E+03  0.97488405978E+03  0.00000000000E+00 0. -1.
<mgrwt>
<rscale>  4 0.64157815E+03</rscale>
<asrwt>0</asrwt>
<pdfrwt beam="1">  1        2 0.47257200E+00 0.64157815E+03</pdfrwt>
<pdfrwt beam="2">  1       -2 0.51540003E-02 0.64157815E+03</pdfrwt>
<totfact> 0.33093466E+02</totfact>
</mgrwt>
</event>
<event>
 5    0  0.2754780E-002  0.7772198E+03  0.7546771E-02  0.9593589E-01
          2   -1    0    0  502    0  0.00000000000E+00  0.00000000000E+00  0.11023546872E+04  0.11023546872E+04  0.00000000000E+00 0.  1.
         -2   -1    0    0    0  501 -0.00000000000E+00 -0.00000000000E+00 -0.27351563184E+03  0.27351563184E+03  0.00000000000E+00 0. -1.
         25    1    1    2    0    0 -0.20476431820E+03 -0.10533840329E+03 -0.17970294226E+03  0.31771489212E+03  0.12500000000E+03 0.  0.
         21    1    1    2  502  503  0.18435392164E+03  0.11631639075E+03  0.45906050334E+03  0.50818541588E+03  0.00000000000E+00 0.  1.
         21    1    1    2  503  501  0.20410396560E+02 -0.10977987463E+02  0.54948149427E+03  0.54997001104E+03  0.00000000000E+00 0.  1.
<mgrwt>
<rscale>  4 0.77721983E+03</rscale>
<asrwt>0</asrwt>
<pdfrwt beam="1">  1        2 0.16959303E+00 0.77721983E+03</pdfrwt>
<pdfrwt beam="2">  1       -2 0.42079329E-01 0.77721983E+03</pdfrwt>
<totfact> 0.11756034E+02</totfact>
</mgrwt>
</event>
<event>
 5    0  0.2754780E-002  0.4660931E+03  0.7546771E-02  0.1023029E+00
          2   -1    0    0  503    0  0.00000000000E+00  0.00000000000E+00  0.35520527883E+03  0.35520527883E+03  0.00000000000E+00 0. -1.
         -2   -1    0    0    0  501 -0.00000000000E+00 -0.00000000000E+00 -0.17827260439E+03  0.17827260439E+03  0.00000000000E+00 0.  1.
         25    1    1    2    0    0  0.19850868970E+03  0.90987169982E+02  0.15259180633E+02  0.25207579729E+03  0.12500000000E+03 0.  0.
         21    1    1    2  502  501 -0.22668041451E+02  0.47793404424E+01  0.42468967735E+02  0.48376599909E+02  0.00000000000E+00 0. -1.
         21    1    1    2  503  502 -0.17584064825E+03 -0.95766510424E+02  0.11920452608E+03  0.23302548602E+03  0.00000000000E+00 0. -1.
<mgrwt>
<rscale>  4 0.46609309E+03</rscale>
<asrwt>0</asrwt>
<pdfrwt beam="1">  1        2 0.54646966E-01 0.46609309E+03</pdfrwt>
<pdfrwt beam="2">  1       -2 0.27426555E-01 0.46609309E+03</pdfrwt>
<totfact> 0.11005871E+03</totfact>
</mgrwt>
</event>
<event>
 5    0  0.2754780E-002  0.4470032E+03  0.7546771E-02  0.1028620E+00
          1   -1    0    0  503    0  0.00000000000E+00  0.00000000000E+00  0.46406730938E+03  0.46406730938E+03  0.00000000000E+00 0. -1.
         -1   -1    0    0    0  501 -0.00000000000E+00 -0.00000000000E+00 -0.14796522999E+03  0.14796522999E+03  0.00000000000E+00 0.  1.
         25    1    1    2    0    0 -0.20744144758E+03 -0.44986207352E+02  0.10373266140E+03  0.26728482573E+03  0.12500000000E+03 0.  0.
         21    1    1    2  502  501  0.15374414960E+02 -0.13068398701E+02  0.12377670970E+03  0.12541064367E+03  0.00000000000E+00 0.  1.
         21    1    1    2  503  502  0.19206703262E+03  0.58054606053E+02  0.88592708296E+02  0.21933706998E+03  0.00000000000E+00 0.  1.
<mgrwt>
<rscale>  4 0.44700316E+03</rscale>
<asrwt>0</asrwt>
<pdfrwt beam="1">  1        1 0.71394970E-01 0.44700316E+03</pdfrwt>
<pdfrwt beam="2">  1       -1 0.22763882E-01 0.44700316E+03</pdfrwt>
<totfact> 0.81282689E+02</totfact>
</mgrwt>
</event>
<event>
 5    0  0.2754780E-002  0.1585172E+04  0.7546771E-02  0.8829710E-01
         -2   -1    0    0    0  501 -0.00000000000E+00  0.00000000000E+00  0.77421849899E+03  0.77421849899E+03  0.00000000000E+00 0.  1.
          2   -1    0    0  502    0  0.00000000000E+00 -0.00000000000E+00 -0.11904438521E+04  0.11904438521E+04  0.00000000000E+00 0. -1.
         25    1    1    2    0    0  0.75642232571E+03  0.57240026966E+02  0.23662593496E+03  0.80440536337E+03  0.12500000000E+03 0.  0.
         21    1    1    2  502  503 -0.73040910945E+03 -0.24481621932E+02 -0.27616924440E+03  0.78125941180E+03  0.00000000000E+00 0. -1.
         21    1    1    2  503  501 -0.26013216257E+02 -0.32758405035E+02 -0.37668204368E+03  0.37899757592E+03  0.00000000000E+00 0. -1.
<mgrwt>
<rscale>  4 0.15851716E+04</rscale>
<asrwt>0</asrwt>
<pdfrwt beam="1">  1        2 0.18314521E+00 0.15851716E+04</pdfrwt>
<pdfrwt beam="2">  1       -2 0.11911054E+00 0.15851716E+04</pdfrwt>
<totfact> 0.98790573E+00</totfact>
</mgrwt>
</event>
<event>
 5    0  0.2754780E-002  0.5074432E+03  0.7546771E-02  0.1011854E+00
          2   -1    0    0  502    0  0.00000000000E+00  0.00000000000E+00  0.11239989992E+04  0.11239989992E+04  0.00000000000E+00 0. -1.
         -2   -1    0    0    0  501 -0.00000000000E+00 -0.00000000000E+00 -0.11374843553E+03  0.11374843553E+03  0.00000000000E+00 0.  1.
         25    1    1    2    0    0 -0.10509825659E+03  0.18911588530E+03  0.41724530873E+03  0.48634258427E+03  0.12500000000E+03 0.  0.
         21    1    1    2  502  503  0.92874111960E+02 -0.16690736697E+03  0.36673474297E+02  0.19449579311E+03  0.00000000000E+00 0.  1.
         21    1    1    2  503  501  0.12224144626E+02 -0.22208518331E+02  0.55633178066E+03  0.55690905737E+03  0.00000000000E+00 0.  1.
<mgrwt>
<rscale>  4 0.50744323E+03</rscale>
<asrwt>0</asrwt>
<pdfrwt beam="1">  1        2 0.17292292E+00 0.50744323E+03</pdfrwt>
<pdfrwt beam="2">  1       -2 0.17499760E-01 0.50744323E+03</pdfrwt>
<totfact> 0.57715687E+02</totfact>
</mgrwt>
</event>
<event>
 5    0  0.2754780E-002  0.5687109E+03  0.7546771E-02  0.9972535E-01
          4   -1    0    0  502    0  0.00000000000E+00  0.00000000000E+00  0.10551934314E+04  0.10551934314E+04  0.00000000000E+00 0.  1.
         -4   -1    0    0    0  501 -0.00000000000E+00 -0.00000000000E+00 -0.76628616385E+02  0.76628616385E+02  0.00000000000E+00 0. -1.
         25    1    1    2    0    0  0.35392558486E+02 -0.24026402926E+03  0.28661030977E+03  0.39591653996E+03  0.12500000000E+03 0.  0.
         21    1    1    2  502  503 -0.16661539220E+02  0.21150234068E+03  0.54133014675E+03  0.58141996421E+03  0.00000000000E+00 0.  1.
         21    1    1    2  503  501 -0.18731019266E+02  0.28761688578E+02  0.15062435851E+03  0.15448554363E+03  0.00000000000E+00 0.  1.
<mgrwt>
<rscale>  4 0.56871087E+03</rscale>
<asrwt>0</asrwt>
<pdfrwt beam="1">  1        4 0.16233744E+00 0.56871087E+03</pdfrwt>
<pdfrwt beam="2">  1       -4 0.11789019E-01 0.56871087E+03</pdfrwt>
<totfact> 0.28430011E+01</totfact>
</mgrwt>
</event>
<event>
 5    0  0.2754780E-002  0.5728202E+03  0.7546771E-02  0.9963457E-01
         -1   -1    0    0    0  501 -0.00000000000E+00  0.00000000000E+00  0.90123558536E+02  0.90123558536E+02  0.00000000000E+00 0. -1.
          1   -1    0    0  503    0  0.00000000000E+00 -0.00000000000E+00 -0.14134736768E+04  0.14134736768E+04  0.00000000000E+00 0.  1.
         25    1    1    2    0    0 -0.18114281244E+03  0.17992985635E+03 -0.57119698305E+03  0.63802700974E+03  0.12500000000E+03 0.  0.
         21    1    1    2  502  501 -0.34320107789E+02 -0.25435671119E+02 -0.49292023515E+03  0.49476782574E+03  0.00000000000E+00 0.  1.
         21    1    1    2  503  502  0.21546292022E+03 -0.15449418523E+03 -0.25923290002E+03  0.37080239983E+03  0.00000000000E+00 0. -1.
<mgrwt>
<rscale>  4 0.57282020E+03</rscale>
<asrwt>0</asrwt>
<pdfrwt beam="1">  1        1 0.21745749E+00 0.57282020E+03</pdfrwt>
<pdfrwt beam="2">  1       -1 0.13865163E-01 0.57282020E+03</pdfrwt>
<totfact> 0.28929671E+02</totfact>
</mgrwt>
</event>
<event>
 5    0  0.2754780E-002  0.4975326E+03  0.7546771E-02  0.1014425E+00
         -1   -1    0    0    0  501 -0.00000000000E+00  0.00000000000E+00  0.65668051976E+02  0.65668051976E+02  0.00000000000E+00 0. -1.
          1   -1    0    0  503    0  0.00000000000E+00 -0.00000000000E+00 -0.17197277663E+04  0.17197277663E+04  0.00000000000E+00 0.  1.
         25    1    1    2    0    0 -0.25369696689E+02 -0.22120520575E+03 -0.73049265121E+03  0.77383452885E+03  0.12500000000E+03 0.  0.
         21    1    1    2  502  501 -0.23758400479E+02  0.41315904838E+02 -0.76584865959E+03  0.76733019944E+03  0.00000000000E+00 0.  1.
         21    1    1    2  503  502  0.49128097168E+02  0.17988930091E+03 -0.15771840357E+03  0.24423109003E+03  0.00000000000E+00 0. -1.
<mgrwt>
<rscale>  4 0.49753264E+03</rscale>
<asrwt>0</asrwt>
<pdfrwt beam="1">  1        1 0.26457351E+00 0.49753264E+03</pdfrwt>
<pdfrwt beam="2">  1       -1 0.10102777E-01 0.49753264E+03</pdfrwt>
<totfact> 0.29953694E+02</totfact>
</mgrwt>
</event>
<event>
 5    0  0.2754780E-002  0.4750764E+03  0.7546771E-02  0.1020497E+00
         -2   -1    0    0    0  501 -0.00000000000E+00  0.00000000000E+00  0.25885283566E+03  0.25885283566E+03  0.00000000000E+00 0.  1.
          2   -1    0    0  502    0  0.00000000000E+00 -0.00000000000E+00 -0.35250421749E+03  0.35250421749E+03  0.00000000000E+00 0. -1.
         25    1    1    2    0    0  0.23254437141E+03  0.10766174051E+02  0.78670236818E+02  0.27569331029E+03  0.12500000000E+03 0.  0.
         21    1    1    2  502  503 -0.18250510651E+03  0.51670659182E+02 -0.62349729872E+02  0.19966336603E+03  0.00000000000E+00 0. -1.
         21    1    1    2  503  501 -0.50039264906E+02 -0.62436833233E+02 -0.10997188877E+03  0.13600037683E+03  0.00000000000E+00 0.  1.
<mgrwt>
<rscale>  4 0.47507643E+03</rscale>
<asrwt>0</asrwt>
<pdfrwt beam="1">  1        2 0.54231418E-01 0.47507643E+03</pdfrwt>
<pdfrwt beam="2">  1       -2 0.39823513E-01 0.47507643E+03</pdfrwt>
<totfact> 0.55204943E+02</totfact>
</mgrwt>
</event>
<event>
 5    0  0.2754780E-002  0.7072256E+03  0.7546771E-02  0.9704955E-01
          2   -1    0    0  502    0  0.00000000000E+00  0.00000000000E+00  0.51823912542E+03  0.51823912542E+03  0.00000000000E+00 0. -1.
         -2   -1    0    0    0  501 -0.00000000000E+00 -0.00000000000E+00 -0.26220104977E+03  0.26220104977E+03  0.00000000000E+00 0.  1.
         25    1    1    2    0    0  0.26949475357E+03 -0.15639324442E+03  0.25312776337E+03  0.42045800467E+03  0.12500000000E+03 0.  0.
         21    1    1    2  502  503 -0.29078359514E+03  0.14038032236E+03 -0.21821810719E+02  0.32363239258E+03  0.00000000000E+00 0.  1.
         21    1    1    2  503  501  0.21288841571E+02  0.16012922061E+02  0.24732122997E+02  0.36349777940E+02  0.00000000000E+00 0. -1.
<mgrwt>
<rscale>  4 0.70722562E+03</rscale>
<asrwt>0</asrwt>
<pdfrwt beam="1">  1        2 0.79729096E-01 0.70722562E+03</pdfrwt>
<pdfrwt beam="2">  1       -2 0.40338623E-01 0.70722562E+03</pdfrwt>
<totfact> 0.34642425E+02</totfact>
</mgrwt>
</event>
<event>
 5    0  0.2754780E-002  0.4189339E+03  0.7546771E-02  0.1037414E+00
         -1   -1    0    0    0  501 -0.00000000000E+00  0.00000000000E+00  0.26910065675E+02  0.26910065675E+02  0.00000000000E+00 0. -1.
          1   -1    0    0  503    0  0.00000000000E+00 -0.00000000000E+00 -0.24326206183E+04  0.24326206183E+04  0.00000000000E+00 0.  1.
         25    1    1    2    0    0 -0.18739755763E+03 -0.76714957292E+02 -0.10786682785E+04  0.11046054881E+04  0.12500000000E+03 0.  0.
         21    1    1    2  502  501  0.26757990516E+02  0.92734943346E+01 -0.78629005256E+03  0.78679986942E+03  0.00000000000E+00 0. -1.
         21    1    1    2  503  502  0.16063956711E+03  0.67441462958E+02 -0.54075222154E+03  0.56812532645E+03  0.00000000000E+00 0. -1.
<mgrwt>
<rscale>  4 0.41893391E+03</rscale>
<asrwt>0</asrwt>
<pdfrwt beam="1">  1        1 0.37424942E+00 0.41893391E+03</pdfrwt>
<pdfrwt beam="2">  1       -1 0.41400090E-02 0.41893391E+03</pdfrwt>
<totfact> 0.40149785E+02</totfact>
</mgrwt>
</event>
<event>
 5    0  0.2754780E-002  0.5079169E+03  0.7546771E-02  0.1011733E+00
         -2   -1    0    0    0  501 -0.00000000000E+00  0.00000000000E+00  0.65488769309E+02  0.65488769309E+02  0.00000000000E+00 0. -1.
          2   -1    0    0  503    0  0.00000000000E+00 -0.00000000000E+00 -0.19291395011E+04  0.19291395011E+04  0.00000000000E+00 0.  1.
         25    1    1    2    0    0 -0.24040786594E+03  0.86112921763E+02 -0.78394354384E+03  0.83390878232E+03  0.12500000000E+03 0.  0.
         21    1    1    2  502  501  0.18555324795E+03 -0.67619925929E+02 -0.10847791223E+04  0.11026097253E+04  0.00000000000E+00 0.  1.
         21    1    1    2  503  502  0.54854617991E+02 -0.18492995835E+02  0.50719343521E+01  0.58109762759E+02  0.00000000000E+00 0. -1.
<mgrwt>
<rscale>  4 0.50791685E+03</rscale>
<asrwt>0</asrwt>
<pdfrwt beam="1">  1        2 0.29679073E+00 0.50791685E+03</pdfrwt>
<pdfrwt beam="2">  1       -2 0.10075194E-01 0.50791685E+03</pdfrwt>
<totfact> 0.51654375E+02</totfact>
</mgrwt>
</event>
<event>
 5    0  0.2754780E-002  0.6235926E+03  0.7546771E-02  0.9857633E-01
          2   -1    0    0  503    0  0.00000000000E+00  0.00000000000E+00  0.87787841446E+03  0.87787841446E+03  0.00000000000E+00 0.  1.
         -2   -1    0    0    0  501 -0.00000000000E+00 -0.00000000000E+00 -0.12672601569E+03  0.12672601569E+03  0.00000000000E+00 0. -1.
         25    1    1    2    0    0  0.18112534082E+03  0.10534569485E+03  0.32170680937E+02  0.24609765790E+03  0.12500000000E+03 0.  0.
         21    1    1    2  502  501  0.15357956590E+02 -0.24824929214E+02  0.95049345133E+02  0.99430990900E+02  0.00000000000E+00 0.  1.
         21    1    1    2  503  502 -0.19648329741E+03 -0.80520765639E+02  0.62393237270E+03  0.65907578135E+03  0.00000000000E+00 0.  1.
<mgrwt>
<rscale>  4 0.62359261E+03</rscale>
<asrwt>0</asrwt>
<pdfrwt beam="1">  1        2 0.13505821E+00 0.62359261E+03</pdfrwt>
<pdfrwt beam="2">  1       -2 0.19496311E-01 0.62359261E+03</pdfrwt>
<totfact> 0.68270862E+02</totfact>
</mgrwt>
</event>
<event>
 5    0  0.2754780E-002  0.4868847E+03  0.7546771E-02  0.1017260E+00
         -2   -1    0    0    0  501 -0.00000000000E+00  0.00000000000E+00  0.21394487244E+03  0.21394487244E+03  0.00000000000E+00 0. -1.
          2   -1    0    0  503    0  0.00000000000E+00 -0.00000000000E+00 -0.20689531342E+04  0.20689531342E+04  0.00000000000E+00 0.  1.
         25    1    1    2    0    0  0.13602075306E+03  0.20335674861E+03 -0.13726155423E+03  0.30711780596E+03  0.12500000000E+03 0.  0.
         21    1    1    2  502  501 -0.10918248555E+03 -0.34875657055E+02 -0.17877143483E+04  0.17913848603E+04  0.00000000000E+00 0.  1.
         21    1    1    2  503  502 -0.26838267515E+02 -0.16848109156E+03  0.69967640732E+02  0.18439534041E+03  0.00000000000E+00 0. -1.
<mgrwt>
<rscale>  4 0.48688469E+03</rscale>
<asrwt>0</asrwt>
<pdfrwt beam="1">  1        2 0.31830048E+00 0.48688469E+03</pdfrwt>
<pdfrwt beam="2">  1       -2 0.32914596E-01 0.48688469E+03</pdfrwt>
<totfact> 0.56444810E+01</totfact>
</mgrwt>
</event>
<event>
 5    0  0.2754780E-002  0.6922498E+03  0.7546771E-02  0.9730579E-01
         -1   -1    0    0    0  501 -0.00000000000E+00  0.00000000000E+00  0.88488133561E+02  0.88488133561E+02  0.00000000000E+00 0.  1.
          1   -1    0    0  502    0  0.00000000000E+00 -0.00000000000E+00 -0.22263089459E+04  0.22263089459E+04  0.00000000000E+00 0. -1.
         25    1    1    2    0    0  0.22463019278E+03 -0.24307010939E+03 -0.10064044363E+04  0.10667786514E+04  0.12500000000E+03 0.  0.
         21    1    1    2  502  503 -0.31957777460E+02 -0.31885441325E+02  0.19466979357E+02  0.49162426648E+02  0.00000000000E+00 0.  1.
         21    1    1    2  503  501 -0.19267241533E+03  0.27495555072E+03 -0.11508833553E+04  0.11988560014E+04  0.00000000000E+00 0. -1.
<mgrwt>
<rscale>  4 0.69224978E+03</rscale>
<asrwt>0</asrwt>
<pdfrwt beam="1">  1        1 0.34250905E+00 0.69224978E+03</pdfrwt>
<pdfrwt beam="2">  1       -1 0.13613560E-01 0.69224978E+03</pdfrwt>
<totfact> 0.83898354E+01</totfact>
</mgrwt>
</event>
<event>
 5    0  0.2754780E-002  0.5208237E+03  0.7546771E-02  0.1008482E+00
         -2   -1    0    0    0  501 -0.00000000000E+00  0.00000000000E+00  0.53592996793E+02  0.53592996793E+02  0.00000000000E+00 0. -1.
          2   -1    0    0  502    0  0.00000000000E+00 -0.00000000000E+00 -0.15399709538E+04  0.15399709538E+04  0.00000000000E+00 0.  1.
         25    1    1    2    0    0  0.12932187851E+03  0.19986509621E+03 -0.78538790430E+03  0.83013816028E+03  0.12500000000E+03 0.  0.
         21    1    1    2  502  503 -0.99667183477E+02 -0.22055335715E+03 -0.46045829784E+03  0.52019147904E+03  0.00000000000E+00 0.  1.
         21    1    1    2  503  501 -0.29654695032E+02  0.20688260944E+02 -0.24053175484E+03  0.24323431124E+03  0.00000000000E+00 0.  1.
<mgrwt>
<rscale>  4 0.52082375E+03</rscale>
<asrwt>0</asrwt>
<pdfrwt beam="1">  1        2 0.23691856E+00 0.52082375E+03</pdfrwt>
<pdfrwt beam="2">  1       -2 0.82450781E-02 0.52082375E+03</pdfrwt>
<totfact> 0.11556441E+03</totfact>
</mgrwt>
</event>
<event>
 5    0  0.2754780E-002  0.4211742E+03  0.7546771E-02  0.1036685E+00
         -2   -1    0    0    0  501 -0.00000000000E+00  0.00000000000E+00  0.43967375151E+02  0.43967375151E+02  0.00000000000E+00 0. -1.
          2   -1    0    0  502    0  0.00000000000E+00 -0.00000000000E+00 -0.15012616173E+04  0.15012616173E+04  0.00000000000E+00 0.  1.
         25    1    1    2    0    0  0.16164887372E+03 -0.13088651602E+03 -0.63524970160E+03  0.68002119219E+03  0.12500000000E+03 0.  0.
         21    1    1    2  502  503 -0.16863854105E+03  0.56853001547E+02 -0.41690363860E+03  0.45329886961E+03  0.00000000000E+00 0. -1.
         21    1    1    2  503  501  0.69896673317E+01  0.74033514472E+02 -0.40514090191E+03  0.41190893061E+03  0.00000000000E+00 0. -1.
<mgrwt>
<rscale>  4 0.42117421E+03</rscale>
<asrwt>0</asrwt>
<pdfrwt beam="1">  1        2 0.23096333E+00 0.42117421E+03</pdfrwt>
<pdfrwt beam="2">  1       -2 0.67642115E-02 0.42117421E+03</pdfrwt>
<totfact> 0.16658330E+03</totfact>
</mgrwt>
</event>
<event>
 5    0  0.2754780E-002  0.3765108E+03  0.7546771E-02  0.1052231E+00
          1   -1    0    0  502    0  0.00000000000E+00  0.00000000000E+00  0.13980488433E+04  0.13980488433E+04  0.00000000000E+00 0.  1.
         -1   -1    0    0    0  501 -0.00000000000E+00 -0.00000000000E+00 -0.42132709623E+02  0.42132709623E+02  0.00000000000E+00 0. -1.
         25    1    1    2    0    0  0.65807670928E+02  0.19495051923E+03  0.60189513172E+03  0.64825851640E+03  0.12500000000E+03 0.  0.
         21    1    1    2  502  503 -0.35030166731E+02 -0.12865313981E+03  0.25674507933E+03  0.28930395560E+03  0.00000000000E+00 0.  1.
         21    1    1    2  503  501 -0.30777504197E+02 -0.66297379414E+02  0.49727592260E+03  0.50261908089E+03  0.00000000000E+00 0.  1.
<mgrwt>
<rscale>  4 0.37651079E+03</rscale>
<asrwt>0</asrwt>
<pdfrwt beam="1">  1        1 0.21508440E+00 0.37651079E+03</pdfrwt>
<pdfrwt beam="2">  1       -1 0.64819564E-02 0.37651079E+03</pdfrwt>
<totfact> 0.98935316E+02</totfact>
</mgrwt>
</event>
<event>
 5    0  0.2754780E-002  0.7268967E+03  0.7546771E-02  0.9672310E-01
          1   -1    0    0  503    0  0.00000000000E+00  0.00000000000E+00  0.54520259260E+03  0.54520259260E+03  0.00000000000E+00 0.  1.
         -1   -1    0    0    0  501 -0.00000000000E+00 -0.00000000000E+00 -0.27771813175E+03  0.27771813175E+03  0.00000000000E+00 0. -1.
         25    1    1    2    0    0 -0.35910450398E+03  0.60255105173E+02  0.13845508831E+03  0.40912288368E+03  0.12500000000E+03 0.  0.
         21    1    1    2  502  501  0.30413386061E+02  0.29557036074E+02  0.47033543722E+02  0.63330456088E+02  0.00000000000E+00 0.  1.
         21    1    1    2  503  502  0.32869111792E+03 -0.89812141247E+02  0.81995828825E+02  0.35046738458E+03  0.00000000000E+00 0. -1.
<mgrwt>
<rscale>  4 0.72689667E+03</rscale>
<asrwt>0</asrwt>
<pdfrwt beam="1">  1        1 0.83877322E-01 0.72689667E+03</pdfrwt>
<pdfrwt beam="2">  1       -1 0.42725867E-01 0.72689667E+03</pdfrwt>
<totfact> 0.21481900E+02</totfact>
</mgrwt>
</event>
