<event>
 5    0  0.1911311E+001  0.9179929E+03  0.7546771E-02  0.9403365E-01
         21   -1    0    0  502  501  0.00000000000E+00  0.00000000000E+00  0.11403702348E+04  0.11403702348E+04  0.00000000000E+00 0. -1.
         21   -1    0    0  504  502 -0.00000000000E+00 -0.00000000000E+00 -0.96073888777E+03  0.96073888777E+03  0.00000000000E+00 0. -1.
         25    1    1    2    0    0 -0.67981230925E+03  0.61532485052E+03  0.10757201931E+03  0.93164702909E+03  0.12500000000E+03 0.  0.
         21    1    1    2  503  501  0.68496685418E+03 -0.58930897368E+03  0.29071826873E+03  0.94920059501E+03  0.00000000000E+00 0. -1.
         21    1    1    2  504  503 -0.51545449280E+01 -0.26015876842E+02 -0.21865894106E+03  0.22026149842E+03  0.00000000000E+00 0.  1.
<mgrwt>
<rscale>  4 0.91799295E+03</rscale>
<asrwt>0</asrwt>
<pdfrwt beam="1">  1       21 0.17544158E+00 0.91799295E+03</pdfrwt>
<pdfrwt beam="2">  1       21 0.14780598E+00 0.91799295E+03</pdfrwt>
<totfact> 0.39326709E+01</totfact>
</mgrwt>
</event>
<event>
 5    0  0.1911311E+001  0.2748245E+03  0.7546771E-02  0.1098550E+00
         21   -1    0    0  504  501  0.00000000000E+00  0.00000000000E+00  0.11313268075E+04  0.11313268075E+04  0.00000000000E+00 0.  1.
         21   -1    0    0  503  502 -0.00000000000E+00 -0.00000000000E+00 -0.46114097153E+03  0.46114097153E+03  0.00000000000E+00 0.  1.
         25    1    1    2    0    0 -0.27505504515E+03 -0.59624969456E+01  0.85395318310E+03  0.90584318078E+03  0.12500000000E+03 0.  0.
         21    1    1    2  503  501  0.24338558431E+03 -0.10022154579E+02 -0.39954747728E+03  0.46794783131E+03  0.00000000000E+00 0.  1.
         21    1    1    2  504  502  0.31669460838E+02  0.15984651525E+02  0.21578013010E+03  0.21867676690E+03  0.00000000000E+00 0.  1.
<mgrwt>
<rscale>  4 0.27482454E+03</rscale>
<asrwt>0</asrwt>
<pdfrwt beam="1">  1       21 0.17405028E+00 0.27482454E+03</pdfrwt>
<pdfrwt beam="2">  1       21 0.70944765E-01 0.27482454E+03</pdfrwt>
<totfact> 0.33042079E+02</totfact>
</mgrwt>
</event>
<event>
 5    0  0.1911311E+001  0.2361298E+03  0.7546771E-02  0.1122398E+00
         21   -1    0    0  502  501  0.00000000000E+00  0.00000000000E+00  0.13353896098E+04  0.13353896098E+04  0.00000000000E+00 0. -1.
         21   -1    0    0  504  502 -0.00000000000E+00 -0.00000000000E+00 -0.67765747589E+02  0.67765747589E+02  0.00000000000E+00 0. -1.
         25    1    1    2    0    0  0.12942467970E+03  0.18009643794E+03  0.92846913979E+03  0.96273849939E+03  0.12500000000E+03 0.  0.
         21    1    1    2  503  501  0.13885303057E+02 -0.45722925297E+02  0.18394108860E+03  0.19004660380E+03  0.00000000000E+00 0. -1.
         21    1    1    2  504  503 -0.14330998276E+03 -0.13437351264E+03  0.15521363378E+03  0.25037025416E+03  0.00000000000E+00 0. -1.
<mgrwt>
<rscale>  4 0.23612983E+03</rscale>
<asrwt>0</asrwt>
<pdfrwt beam="1">  1       21 0.20544454E+00 0.23612983E+03</pdfrwt>
<pdfrwt beam="2">  1       21 0.10425501E-01 0.23612983E+03</pdfrwt>
<totfact> 0.90230435E+03</totfact>
</mgrwt>
</event>
<event>
 5    0  0.1911311E+001  0.2333576E+03  0.7546771E-02  0.1124299E+00
         21   -1    0    0  502  501  0.00000000000E+00  0.00000000000E+00  0.10461377467E+03  0.10461377467E+03  0.00000000000E+00 0. -1.
         21   -1    0    0  504  502 -0.00000000000E+00 -0.00000000000E+00 -0.97931713297E+03  0.97931713297E+03  0.00000000000E+00 0. -1.
         25    1    1    2    0    0  0.13943640822E+03 -0.18458251195E+03 -0.20792636327E+03  0.33521871696E+03  0.12500000000E+03 0.  0.
         21    1    1    2  503  501 -0.10311047352E+03 -0.52218955859E+01 -0.79053114825E+02  0.13003243021E+03  0.00000000000E+00 0. -1.
         21    1    1    2  504  503 -0.36325934698E+02  0.18980440754E+03 -0.58772388020E+03  0.61867976047E+03  0.00000000000E+00 0. -1.
<mgrwt>
<rscale>  4 0.23335764E+03</rscale>
<asrwt>0</asrwt>
<pdfrwt beam="1">  1       21 0.16094427E-01 0.23335764E+03</pdfrwt>
<pdfrwt beam="2">  1       21 0.15066418E+00 0.23335764E+03</pdfrwt>
<totfact> 0.98994594E+03</totfact>
</mgrwt>
</event>
