<event>
 5    0  0.4115852E+000  0.2334964E+03  0.7546771E-02  0.1124203E+00
         21   -1    0    0  503  502  0.00000000000E+00  0.00000000000E+00  0.46283529295E+03  0.46283529295E+03  0.00000000000E+00 0.  1.
          2   -1    0    0  502    0 -0.00000000000E+00 -0.00000000000E+00 -0.15603527250E+04  0.15603527250E+04  0.00000000000E+00 0.  1.
         25    1    1    2    0    0 -0.32832086620E+03  0.43630812065E+02 -0.47528095090E+03  0.59263413775E+03  0.12500000000E+03 0.  0.
         21    1    1    2  503  501  0.17028164942E+03  0.45053210438E+02  0.37641721333E+03  0.41559060431E+03  0.00000000000E+00 0.  1.
          2    1    1    2  501    0  0.15803921678E+03 -0.88684022503E+02 -0.99865369444E+03  0.10149632758E+04  0.00000000000E+00 0.  1.
<mgrwt>
<rscale>  4 0.23349636E+03</rscale>
<asrwt>0</asrwt>
<pdfrwt beam="1">  1       21 0.71205431E-01 0.23349636E+03</pdfrwt>
<pdfrwt beam="2">  1        2 0.24005426E+00 0.23349636E+03</pdfrwt>
<totfact> 0.28209663E+02</totfact>
</mgrwt>
</event>
<event>
 5    0  0.4115852E+000  0.3029690E+03  0.7546771E-02  0.1083766E+00
          2   -1    0    0  502    0 -0.00000000000E+00  0.00000000000E+00  0.14703135903E+04  0.14703135903E+04  0.00000000000E+00 0.  1.
         21   -1    0    0  503  502  0.00000000000E+00 -0.00000000000E+00 -0.22182214013E+03  0.22182214013E+03  0.00000000000E+00 0. -1.
         25    1    1    2    0    0 -0.31865452354E+03  0.11783526786E+03  0.16237911577E+03  0.39675916242E+03  0.12500000000E+03 0.  0.
         21    1    1    2  503  501  0.50101921939E+02 -0.10081920226E+03 -0.53341772703E+02  0.12457952818E+03  0.00000000000E+00 0. -1.
          2    1    1    2  501    0  0.26855260160E+03 -0.17016065605E+02  0.11394541071E+04  0.11707970399E+04  0.00000000000E+00 0.  1.
<mgrwt>
<rscale>  4 0.30296902E+03</rscale>
<asrwt>0</asrwt>
<pdfrwt beam="1">  1       21 0.34126484E-01 0.30296902E+03</pdfrwt>
<pdfrwt beam="2">  1        2 0.22620209E+00 0.30296902E+03</pdfrwt>
<totfact> 0.14269305E+03</totfact>
</mgrwt>
</event>
<event>
 5    0  0.4115852E+000  0.1904692E+03  0.7546771E-02  0.1158039E+00
         21   -1    0    0  501  502  0.00000000000E+00  0.00000000000E+00  0.88462686213E+03  0.88462686213E+03  0.00000000000E+00 0.  1.
         -4   -1    0    0    0  501 -0.00000000000E+00 -0.00000000000E+00 -0.68709252980E+03  0.68709252980E+03  0.00000000000E+00 0. -1.
         25    1    1    2    0    0  0.98098336761E+02 -0.17813263650E+03  0.71794018392E+03  0.75658286231E+03  0.12500000000E+03 0.  0.
         21    1    1    2  503  502 -0.25023153570E+02  0.55111277830E+02  0.13306474427E+03  0.14618357407E+03  0.00000000000E+00 0.  1.
         -4    1    1    2    0  503 -0.73075183191E+02  0.12302135867E+03 -0.65347059586E+03  0.66895295556E+03  0.00000000000E+00 0. -1.
<mgrwt>
<rscale>  4 0.19046924E+03</rscale>
<asrwt>0</asrwt>
<pdfrwt beam="1">  1       21 0.13609644E+00 0.19046924E+03</pdfrwt>
<pdfrwt beam="2">  1       -4 0.10570654E+00 0.19046924E+03</pdfrwt>
<totfact> 0.12159327E+01</totfact>
</mgrwt>
</event>
<event>
 5    0  0.4115852E+000  0.1669376E+03  0.7546771E-02  0.1181080E+00
         -3   -1    0    0    0  501 -0.00000000000E+00  0.00000000000E+00  0.85561206454E+03  0.85561206454E+03  0.00000000000E+00 0. -1.
         21   -1    0    0  501  502  0.00000000000E+00 -0.00000000000E+00 -0.16757869028E+03  0.16757869028E+03  0.00000000000E+00 0. -1.
         25    1    1    2    0    0 -0.13332688110E+02  0.20230715214E+03  0.40887470649E+03  0.47319073320E+03  0.12500000000E+03 0.  0.
         21    1    1    2  503  502 -0.22886537584E+02 -0.10392271935E+03 -0.10637621709E+03  0.15046469607E+03  0.00000000000E+00 0. -1.
         -3    1    1    2    0  503  0.36219225693E+02 -0.98384432794E+02  0.38553488486E+03  0.39953532556E+03  0.00000000000E+00 0. -1.
<mgrwt>
<rscale>  4 0.16693757E+03</rscale>
<asrwt>0</asrwt>
<pdfrwt beam="1">  1       21 0.25781337E-01 0.16693757E+03</pdfrwt>
<pdfrwt beam="2">  1       -3 0.13163262E+00 0.16693757E+03</pdfrwt>
<totfact> 0.33587813E+02</totfact>
</mgrwt>
</event>
<event>
 5    0  0.4115852E+000  0.2238022E+03  0.7546771E-02  0.1131080E+00
          2   -1    0    0  502    0 -0.00000000000E+00  0.00000000000E+00  0.22245686254E+04  0.22245686254E+04  0.00000000000E+00 0.  1.
         21   -1    0    0  503  502  0.00000000000E+00 -0.00000000000E+00 -0.17330117471E+03  0.17330117471E+03  0.00000000000E+00 0.  1.
         25    1    1    2    0    0 -0.16767859350E+02 -0.21715885382E+03 -0.35563779660E+02  0.25363144782E+03  0.12500000000E+03 0.  0.
         21    1    1    2  503  501  0.25658406128E+02  0.32590843187E+02 -0.71749522336E+01  0.42095092401E+02  0.00000000000E+00 0.  1.
          2    1    1    2  501    0 -0.88905467785E+01  0.18456801063E+03  0.20940061826E+04  0.21021432599E+04  0.00000000000E+00 0.  1.
<mgrwt>
<rscale>  4 0.22380222E+03</rscale>
<asrwt>0</asrwt>
<pdfrwt beam="1">  1       21 0.26661721E-01 0.22380222E+03</pdfrwt>
<pdfrwt beam="2">  1        2 0.34224131E+00 0.22380222E+03</pdfrwt>
<totfact> 0.96376998E+02</totfact>
</mgrwt>
</event>
<event>
 5    0  0.4115852E+000  0.2091755E+03  0.7546771E-02  0.1142221E+00
         21   -1    0    0  501  502  0.00000000000E+00  0.00000000000E+00  0.27687132076E+03  0.27687132076E+03  0.00000000000E+00 0. -1.
         -4   -1    0    0    0  501 -0.00000000000E+00 -0.00000000000E+00 -0.60888687284E+03  0.60888687284E+03  0.00000000000E+00 0.  1.
         25    1    1    2    0    0 -0.21589076511E+03 -0.20223848990E+02  0.12977933795E+03  0.28193173480E+03  0.12500000000E+03 0.  0.
         21    1    1    2  503  502  0.54935499469E+02 -0.14656728088E+02  0.44000333383E+02  0.71894075680E+02  0.00000000000E+00 0.  1.
         -4    1    1    2    0  503  0.16095526564E+03  0.34880577077E+02 -0.50579522341E+03  0.53193238312E+03  0.00000000000E+00 0.  1.
<mgrwt>
<rscale>  4 0.20917551E+03</rscale>
<asrwt>0</asrwt>
<pdfrwt beam="1">  1       21 0.42595588E-01 0.20917551E+03</pdfrwt>
<pdfrwt beam="2">  1       -4 0.93674903E-01 0.20917551E+03</pdfrwt>
<totfact> 0.22117454E+02</totfact>
</mgrwt>
</event>
<event>
 5    0  0.4115852E+000  0.2507568E+03  0.7546771E-02  0.1112827E+00
         21   -1    0    0  501  502  0.00000000000E+00  0.00000000000E+00  0.10184590519E+04  0.10184590519E+04  0.00000000000E+00 0.  1.
         -2   -1    0    0    0  501 -0.00000000000E+00 -0.00000000000E+00 -0.26598714914E+03  0.26598714914E+03  0.00000000000E+00 0. -1.
         25    1    1    2    0    0  0.85809537312E+02 -0.23721584382E+03  0.89377172783E+03  0.93706325011E+03  0.12500000000E+03 0.  0.
         21    1    1    2  503  502 -0.20960096172E+02  0.31674278282E+02  0.47525787302E+02  0.60838195198E+02  0.00000000000E+00 0. -1.
         -2    1    1    2    0  503 -0.64849441139E+02  0.20554156554E+03 -0.18882561234E+03  0.28654475576E+03  0.00000000000E+00 0. -1.
<mgrwt>
<rscale>  4 0.25075684E+03</rscale>
<asrwt>0</asrwt>
<pdfrwt beam="1">  1       21 0.15668601E+00 0.25075684E+03</pdfrwt>
<pdfrwt beam="2">  1       -2 0.40921100E-01 0.25075684E+03</pdfrwt>
<totfact> 0.11815183E+02</totfact>
</mgrwt>
</event>
<event>
 5    0  0.4115852E+000  0.2691454E+03  0.7546771E-02  0.1101770E+00
          1   -1    0    0  502    0 -0.00000000000E+00  0.00000000000E+00  0.12408344343E+04  0.12408344343E+04  0.00000000000E+00 0.  1.
         21   -1    0    0  503  502  0.00000000000E+00 -0.00000000000E+00 -0.67748047607E+02  0.67748047607E+02  0.00000000000E+00 0. -1.
         25    1    1    2    0    0 -0.46479855303E+02 -0.25271756231E+03  0.50895377742E+03  0.58368269702E+03  0.12500000000E+03 0.  0.
         21    1    1    2  503  501 -0.15576591910E+01  0.29066846688E+02  0.82264190958E+01  0.30248666908E+02  0.00000000000E+00 0. -1.
          1    1    1    2  501    0  0.48037514494E+02  0.22365071562E+03  0.65590619019E+03  0.69465111799E+03  0.00000000000E+00 0.  1.
<mgrwt>
<rscale>  4 0.26914542E+03</rscale>
<asrwt>0</asrwt>
<pdfrwt beam="1">  1       21 0.10422777E-01 0.26914542E+03</pdfrwt>
<pdfrwt beam="2">  1        1 0.19089759E+00 0.26914542E+03</pdfrwt>
<totfact> 0.89359214E+03</totfact>
</mgrwt>
</event>
<event>
 5    0  0.4115852E+000  0.3349247E+03  0.7546771E-02  0.1068978E+00
          2   -1    0    0  502    0 -0.00000000000E+00  0.00000000000E+00  0.10555732870E+04  0.10555732870E+04  0.00000000000E+00 0.  1.
         21   -1    0    0  503  502  0.00000000000E+00 -0.00000000000E+00 -0.19770628162E+03  0.19770628162E+03  0.00000000000E+00 0.  1.
         25    1    1    2    0    0  0.30485001170E+03 -0.51662376688E+02  0.76739317238E+03  0.83673162472E+03  0.12500000000E+03 0.  0.
         21    1    1    2  503  501 -0.12507661565E+01 -0.39565035132E+02 -0.54991456992E+02  0.67757042166E+02  0.00000000000E+00 0.  1.
          2    1    1    2  501    0 -0.30359924554E+03  0.91227411820E+02  0.14546529004E+03  0.34879090178E+03  0.00000000000E+00 0.  1.
<mgrwt>
<rscale>  4 0.33492466E+03</rscale>
<asrwt>0</asrwt>
<pdfrwt beam="1">  1       21 0.30416352E-01 0.33492466E+03</pdfrwt>
<pdfrwt beam="2">  1        2 0.16239589E+00 0.33492466E+03</pdfrwt>
<totfact> 0.30502293E+03</totfact>
</mgrwt>
</event>
<event>
 5    0  0.4115852E+000  0.3218891E+03  0.7546771E-02  0.1074783E+00
         -2   -1    0    0    0  501 -0.00000000000E+00  0.00000000000E+00  0.40822909256E+03  0.40822909256E+03  0.00000000000E+00 0. -1.
         21   -1    0    0  501  502  0.00000000000E+00 -0.00000000000E+00 -0.26224150288E+03  0.26224150288E+03  0.00000000000E+00 0.  1.
         25    1    1    2    0    0 -0.26350472341E+03  0.11395956482E+03  0.58195568574E+02  0.31848586448E+03  0.12500000000E+03 0.  0.
         21    1    1    2  503  502 -0.27925091196E+02 -0.20848171999E+02  0.68540525113E+01  0.35516686639E+02  0.00000000000E+00 0.  1.
         -2    1    1    2    0  503  0.29142981460E+03 -0.93111392825E+02  0.80937968597E+02  0.31646804432E+03  0.00000000000E+00 0. -1.
<mgrwt>
<rscale>  4 0.32188908E+03</rscale>
<asrwt>0</asrwt>
<pdfrwt beam="1">  1       21 0.40344846E-01 0.32188908E+03</pdfrwt>
<pdfrwt beam="2">  1       -2 0.62804476E-01 0.32188908E+03</pdfrwt>
<totfact> 0.11197142E+03</totfact>
</mgrwt>
</event>
<event>
 5    0  0.4115852E+000  0.2398614E+03  0.7546771E-02  0.1119885E+00
         21   -1    0    0  503  502  0.00000000000E+00  0.00000000000E+00  0.24653619887E+03  0.24653619887E+03  0.00000000000E+00 0.  1.
          1   -1    0    0  502    0 -0.00000000000E+00 -0.00000000000E+00 -0.68338722543E+03  0.68338722543E+03  0.00000000000E+00 0.  1.
         25    1    1    2    0    0 -0.13171975846E+03  0.17947925170E+03  0.10791833516E+03  0.27718994142E+03  0.12500000000E+03 0.  0.
         21    1    1    2  503  501  0.18916322277E+02 -0.10558810552E+02  0.33462260125E+02  0.39862746787E+02  0.00000000000E+00 0.  1.
          1    1    1    2  501    0  0.11280343619E+03 -0.16892044115E+03 -0.57823162184E+03  0.61287073609E+03  0.00000000000E+00 0.  1.
<mgrwt>
<rscale>  4 0.23986139E+03</rscale>
<asrwt>0</asrwt>
<pdfrwt beam="1">  1       21 0.37928646E-01 0.23986139E+03</pdfrwt>
<pdfrwt beam="2">  1        1 0.10513650E+00 0.23986139E+03</pdfrwt>
<totfact> 0.21371315E+03</totfact>
</mgrwt>
</event>
<event>
 5    0  0.4115852E+000  0.5811189E+03  0.7546771E-02  0.9945372E-01
         21   -1    0    0  503  502  0.00000000000E+00  0.00000000000E+00  0.43882695798E+03  0.43882695798E+03  0.00000000000E+00 0.  1.
          1   -1    0    0  502    0 -0.00000000000E+00 -0.00000000000E+00 -0.17967881327E+04  0.17967881327E+04  0.00000000000E+00 0. -1.
         25    1    1    2    0    0  0.58782229545E+03  0.10869917338E+03  0.76063561089E+02  0.61543580221E+03  0.12500000000E+03 0.  0.
         21    1    1    2  503  501 -0.31711243907E+02 -0.21063397133E+02  0.32027595452E+02  0.49749739289E+02  0.00000000000E+00 0. -1.
          1    1    1    2  501    0 -0.55611105154E+03 -0.87635776250E+02 -0.14660523313E+04  0.15704295492E+04  0.00000000000E+00 0. -1.
<mgrwt>
<rscale>  4 0.58111892E+03</rscale>
<asrwt>0</asrwt>
<pdfrwt beam="1">  1       21 0.67511842E-01 0.58111892E+03</pdfrwt>
<pdfrwt beam="2">  1        1 0.27642894E+00 0.58111892E+03</pdfrwt>
<totfact> 0.86057515E+01</totfact>
</mgrwt>
</event>
<event>
 5    0  0.4115852E+000  0.2372197E+03  0.7546771E-02  0.1121659E+00
         21   -1    0    0  503  502  0.00000000000E+00  0.00000000000E+00  0.30101103023E+03  0.30101103023E+03  0.00000000000E+00 0. -1.
          2   -1    0    0  502    0 -0.00000000000E+00 -0.00000000000E+00 -0.38688868324E+03  0.38688868324E+03  0.00000000000E+00 0. -1.
         25    1    1    2    0    0  0.46313573141E+00 -0.21086877791E+03  0.59282641571E+02  0.25220088736E+03  0.12500000000E+03 0.  0.
         21    1    1    2  503  501 -0.27129057954E+02  0.12748959810E+02  0.10859705496E+03  0.11265807608E+03  0.00000000000E+00 0. -1.
          2    1    1    2  501    0  0.26665922223E+02  0.19811981810E+03 -0.25375734954E+03  0.32304075002E+03  0.00000000000E+00 0. -1.
<mgrwt>
<rscale>  4 0.23721974E+03</rscale>
<asrwt>0</asrwt>
<pdfrwt beam="1">  1       21 0.46309389E-01 0.23721974E+03</pdfrwt>
<pdfrwt beam="2">  1        2 0.59521336E-01 0.23721974E+03</pdfrwt>
<totfact> 0.45460910E+03</totfact>
</mgrwt>
</event>
<event>
 5    0  0.4115852E+000  0.2914528E+03  0.7546771E-02  0.1089593E+00
         21   -1    0    0  503  502  0.00000000000E+00  0.00000000000E+00  0.52637354412E+03  0.52637354412E+03  0.00000000000E+00 0. -1.
          2   -1    0    0  502    0 -0.00000000000E+00 -0.00000000000E+00 -0.92172241505E+03  0.92172241505E+03  0.00000000000E+00 0.  1.
         25    1    1    2    0    0  0.61791224614E+01 -0.24636864959E+03  0.39037362195E+03  0.47828052205E+03  0.12500000000E+03 0.  0.
         21    1    1    2  503  501  0.11580926327E+02 -0.17100853408E+02  0.70674540101E+02  0.73630480511E+02  0.00000000000E+00 0.  1.
          2    1    1    2  501    0 -0.17760048788E+02  0.26346950300E+03 -0.85639703298E+03  0.89618495660E+03  0.00000000000E+00 0.  1.
<mgrwt>
<rscale>  4 0.29145280E+03</rscale>
<asrwt>0</asrwt>
<pdfrwt beam="1">  1       21 0.80980546E-01 0.29145280E+03</pdfrwt>
<pdfrwt beam="2">  1        2 0.14180345E+00 0.29145280E+03</pdfrwt>
<totfact> 0.47236701E+02</totfact>
</mgrwt>
</event>
<event>
 5    0  0.4115852E+000  0.2539948E+03  0.7546771E-02  0.1110806E+00
          4   -1    0    0  502    0 -0.00000000000E+00  0.00000000000E+00  0.48065293249E+03  0.48065293249E+03  0.00000000000E+00 0. -1.
         21   -1    0    0  503  502  0.00000000000E+00 -0.00000000000E+00 -0.75304327065E+03  0.75304327065E+03  0.00000000000E+00 0.  1.
         25    1    1    2    0    0 -0.52496363179E+02  0.25323967148E+03 -0.47772258956E+03  0.55743167468E+03  0.12500000000E+03 0.  0.
         21    1    1    2  503  501  0.51913917401E+02 -0.17886595735E+03 -0.19466486312E+03  0.26941138516E+03  0.00000000000E+00 0.  1.
          4    1    1    2  501    0  0.58244577786E+00 -0.74373714124E+02  0.39999711452E+03  0.40685314331E+03  0.00000000000E+00 0. -1.
<mgrwt>
<rscale>  4 0.25399482E+03</rscale>
<asrwt>0</asrwt>
<pdfrwt beam="1">  1       21 0.11585281E+00 0.25399482E+03</pdfrwt>
<pdfrwt beam="2">  1        4 0.73946605E-01 0.25399482E+03</pdfrwt>
<totfact> 0.40039108E+01</totfact>
</mgrwt>
</event>
<event>
 5    0  0.4115852E+000  0.5840401E+03  0.7546771E-02  0.9939082E-01
          1   -1    0    0  502    0 -0.00000000000E+00  0.00000000000E+00  0.77301093957E+03  0.77301093957E+03  0.00000000000E+00 0. -1.
         21   -1    0    0  503  502  0.00000000000E+00 -0.00000000000E+00 -0.46921476651E+03  0.46921476651E+03  0.00000000000E+00 0. -1.
         25    1    1    2    0    0  0.25325075460E+03 -0.49577354383E+03  0.34941948883E+02  0.57164087613E+03  0.12500000000E+03 0.  0.
         21    1    1    2  503  501  0.28203234697E+02 -0.11523623132E+02 -0.15757934538E+01  0.30507367348E+02  0.00000000000E+00 0.  1.
          1    1    1    2  501    0 -0.28145398930E+03  0.50729716696E+03  0.27043001763E+03  0.64007746261E+03  0.00000000000E+00 0. -1.
<mgrwt>
<rscale>  4 0.58404014E+03</rscale>
<asrwt>0</asrwt>
<pdfrwt beam="1">  1       21 0.72186887E-01 0.58404014E+03</pdfrwt>
<pdfrwt beam="2">  1        1 0.11892476E+00 0.58404014E+03</pdfrwt>
<totfact> 0.40798346E+02</totfact>
</mgrwt>
</event>
<event>
 5    0  0.4115852E+000  0.2430633E+03  0.7546771E-02  0.1117769E+00
         21   -1    0    0  503  502  0.00000000000E+00  0.00000000000E+00  0.41574933197E+03  0.41574933197E+03  0.00000000000E+00 0. -1.
          1   -1    0    0  502    0 -0.00000000000E+00 -0.00000000000E+00 -0.44457090427E+03  0.44457090427E+03  0.00000000000E+00 0. -1.
         25    1    1    2    0    0 -0.16703081863E+03  0.11402709614E+03 -0.20858900939E+02  0.23866622462E+03  0.12500000000E+03 0.  0.
         21    1    1    2  503  501  0.25532152164E+02  0.43815393986E+02  0.26851592105E+03  0.27326265644E+03  0.00000000000E+00 0. -1.
          1    1    1    2  501    0  0.14149866646E+03 -0.15784249012E+03 -0.27647859242E+03  0.34839135518E+03  0.00000000000E+00 0. -1.
<mgrwt>
<rscale>  4 0.24306332E+03</rscale>
<asrwt>0</asrwt>
<pdfrwt beam="1">  1       21 0.63961436E-01 0.24306332E+03</pdfrwt>
<pdfrwt beam="2">  1        1 0.68395523E-01 0.24306332E+03</pdfrwt>
<totfact> 0.12841129E+03</totfact>
</mgrwt>
</event>
<event>
 5    0  0.4115852E+000  0.1962335E+03  0.7546771E-02  0.1152956E+00
          2   -1    0    0  502    0 -0.00000000000E+00  0.00000000000E+00  0.79878562013E+03  0.79878562013E+03  0.00000000000E+00 0.  1.
         21   -1    0    0  503  502  0.00000000000E+00 -0.00000000000E+00 -0.35587821892E+03  0.35587821892E+03  0.00000000000E+00 0. -1.
         25    1    1    2    0    0 -0.17290450761E+03  0.15361275471E+03 -0.20098387456E+03  0.33092652507E+03  0.12500000000E+03 0.  0.
         21    1    1    2  503  501  0.77648021856E+02 -0.39045865815E+02 -0.59117801501E+02  0.10511284122E+03  0.00000000000E+00 0. -1.
          2    1    1    2  501    0  0.95256485751E+02 -0.11456688890E+03  0.70300907728E+03  0.71862447276E+03  0.00000000000E+00 0.  1.
<mgrwt>
<rscale>  4 0.19623345E+03</rscale>
<asrwt>0</asrwt>
<pdfrwt beam="1">  1       21 0.54750495E-01 0.19623345E+03</pdfrwt>
<pdfrwt beam="2">  1        2 0.12289010E+00 0.19623345E+03</pdfrwt>
<totfact> 0.14132623E+03</totfact>
</mgrwt>
</event>
<event>
 5    0  0.4115852E+000  0.2467983E+03  0.7546771E-02  0.1115345E+00
         21   -1    0    0  503  502  0.00000000000E+00  0.00000000000E+00  0.45133029165E+02  0.45133029165E+02  0.00000000000E+00 0.  1.
          2   -1    0    0  502    0 -0.00000000000E+00 -0.00000000000E+00 -0.29334963344E+04  0.29334963344E+04  0.00000000000E+00 0.  1.
         25    1    1    2    0    0  0.21717028731E+03 -0.20707402210E+03 -0.81905178542E+03  0.88119998384E+03  0.12500000000E+03 0.  0.
         21    1    1    2  503  501 -0.97641875398E+02  0.11995929096E+03 -0.56257200722E+03  0.58344788167E+03  0.00000000000E+00 0.  1.
          2    1    1    2  501    0 -0.11952841191E+03  0.87114731142E+02 -0.15067395126E+04  0.15139814980E+04  0.00000000000E+00 0.  1.
<mgrwt>
<rscale>  4 0.24679826E+03</rscale>
<asrwt>0</asrwt>
<pdfrwt beam="1">  1       21 0.69435429E-02 0.24679826E+03</pdfrwt>
<pdfrwt beam="2">  1        2 0.45130713E+00 0.24679826E+03</pdfrwt>
<totfact> 0.44710643E+03</totfact>
</mgrwt>
</event>
<event>
 5    0  0.4115852E+000  0.5189960E+03  0.7546771E-02  0.1008936E+00
         21   -1    0    0  503  502  0.00000000000E+00  0.00000000000E+00  0.81711958039E+03  0.81711958039E+03  0.00000000000E+00 0.  1.
          1   -1    0    0  502    0 -0.00000000000E+00 -0.00000000000E+00 -0.60215170428E+03  0.60215170428E+03  0.00000000000E+00 0. -1.
         25    1    1    2    0    0  0.86711052491E+02 -0.48558035346E+03  0.37581054310E+03  0.63258647677E+03  0.12500000000E+03 0.  0.
         21    1    1    2  503  501 -0.66111236780E+02 -0.21567365196E+02  0.16805425940E+03  0.18187380508E+03  0.00000000000E+00 0.  1.
          1    1    1    2  501    0 -0.20599815711E+02  0.50714771865E+03 -0.32889692640E+03  0.60481100282E+03  0.00000000000E+00 0. -1.
<mgrwt>
<rscale>  4 0.51899602E+03</rscale>
<asrwt>0</asrwt>
<pdfrwt beam="1">  1       21 0.12571071E+00 0.51899602E+03</pdfrwt>
<pdfrwt beam="2">  1        1 0.92638723E-01 0.51899602E+03</pdfrwt>
<totfact> 0.15714632E+02</totfact>
</mgrwt>
</event>
<event>
 5    0  0.4115852E+000  0.2746164E+03  0.7546771E-02  0.1098666E+00
          2   -1    0    0  502    0 -0.00000000000E+00  0.00000000000E+00  0.23643310081E+04  0.23643310081E+04  0.00000000000E+00 0. -1.
         21   -1    0    0  503  502  0.00000000000E+00 -0.00000000000E+00 -0.44290891437E+02  0.44290891437E+02  0.00000000000E+00 0.  1.
         25    1    1    2    0    0  0.13635556363E+03  0.23455353143E+03  0.70490446163E+03  0.76558702893E+03  0.12500000000E+03 0.  0.
         21    1    1    2  503  501  0.69861555493E+01 -0.46058071227E+02  0.11110584591E+03  0.12047680810E+03  0.00000000000E+00 0.  1.
          2    1    1    2  501    0 -0.14334171918E+03 -0.18849546020E+03  0.15040298091E+04  0.15225580625E+04  0.00000000000E+00 0. -1.
<mgrwt>
<rscale>  4 0.27461636E+03</rscale>
<asrwt>0</asrwt>
<pdfrwt beam="1">  1       21 0.68139852E-02 0.27461636E+03</pdfrwt>
<pdfrwt beam="2">  1        2 0.36374313E+00 0.27461636E+03</pdfrwt>
<totfact> 0.95079648E+03</totfact>
</mgrwt>
</event>
<event>
 5    0  0.4115852E+000  0.4234432E+03  0.7546771E-02  0.1035951E+00
         21   -1    0    0  503  502  0.00000000000E+00  0.00000000000E+00  0.62812306028E+03  0.62812306028E+03  0.00000000000E+00 0. -1.
          2   -1    0    0  502    0 -0.00000000000E+00 -0.00000000000E+00 -0.51050574041E+03  0.51050574041E+03  0.00000000000E+00 0.  1.
         25    1    1    2    0    0 -0.29712212444E+03 -0.27760449819E+03  0.40652241835E+03  0.58841421708E+03  0.12500000000E+03 0.  0.
         21    1    1    2  503  501  0.16534145215E+02 -0.13420121465E+02  0.28965721235E+02  0.35951225637E+02  0.00000000000E+00 0. -1.
          2    1    1    2  501    0  0.28058797923E+03  0.29102461965E+03 -0.31787081971E+03  0.51426335798E+03  0.00000000000E+00 0.  1.
<mgrwt>
<rscale>  4 0.42344323E+03</rscale>
<asrwt>0</asrwt>
<pdfrwt beam="1">  1       21 0.96634317E-01 0.42344323E+03</pdfrwt>
<pdfrwt beam="2">  1        2 0.78539345E-01 0.42344323E+03</pdfrwt>
<totfact> 0.61768624E+02</totfact>
</mgrwt>
</event>
<event>
 5    0  0.4115852E+000  0.2460568E+03  0.7546771E-02  0.1115822E+00
          2   -1    0    0  502    0 -0.00000000000E+00  0.00000000000E+00  0.33632232362E+04  0.33632232362E+04  0.00000000000E+00 0. -1.
         21   -1    0    0  503  502  0.00000000000E+00 -0.00000000000E+00 -0.10826625383E+03  0.10826625383E+03  0.00000000000E+00 0. -1.
         25    1    1    2    0    0 -0.25062375593E+03 -0.27226043148E+03  0.18502801026E+04  0.18910577642E+04  0.12500000000E+03 0.  0.
         21    1    1    2  503  501  0.10325157745E+03  0.17352481553E+03  0.41980641038E+02  0.20623802770E+03  0.00000000000E+00 0. -1.
          2    1    1    2  501    0  0.14737217848E+03  0.98735615951E+02  0.13626962388E+04  0.13741936982E+04  0.00000000000E+00 0. -1.
<mgrwt>
<rscale>  4 0.24605679E+03</rscale>
<asrwt>0</asrwt>
<pdfrwt beam="1">  1       21 0.16656349E-01 0.24605679E+03</pdfrwt>
<pdfrwt beam="2">  1        2 0.51741888E+00 0.24605679E+03</pdfrwt>
<totfact> 0.51229565E+02</totfact>
</mgrwt>
</event>
<event>
 5    0  0.4115852E+000  0.2624177E+03  0.7546771E-02  0.1105699E+00
          3   -1    0    0  502    0 -0.00000000000E+00  0.00000000000E+00  0.28786533444E+03  0.28786533444E+03  0.00000000000E+00 0. -1.
         21   -1    0    0  503  502  0.00000000000E+00 -0.00000000000E+00 -0.76185602100E+03  0.76185602100E+03  0.00000000000E+00 0.  1.
         25    1    1    2    0    0  0.25303133828E+03  0.30523617493E+02  0.12907484616E+02  0.28416219406E+03  0.12500000000E+03 0.  0.
         21    1    1    2  503  501 -0.37648684415E+02 -0.15710742661E+02 -0.54136752659E+03  0.54290243113E+03  0.00000000000E+00 0.  1.
          3    1    1    2  501    0 -0.21538265386E+03 -0.14812874832E+02  0.54469355416E+02  0.22265673025E+03  0.00000000000E+00 0. -1.
<mgrwt>
<rscale>  4 0.26241768E+03</rscale>
<asrwt>0</asrwt>
<pdfrwt beam="1">  1       21 0.11720862E+00 0.26241768E+03</pdfrwt>
<pdfrwt beam="2">  1        3 0.44286975E-01 0.26241768E+03</pdfrwt>
<totfact> 0.13716085E+02</totfact>
</mgrwt>
</event>
<event>
 5    0  0.4115852E+000  0.2951921E+03  0.7546771E-02  0.1087669E+00
          2   -1    0    0  502    0 -0.00000000000E+00  0.00000000000E+00  0.25914363158E+04  0.25914363158E+04  0.00000000000E+00 0. -1.
         21   -1    0    0  503  502  0.00000000000E+00 -0.00000000000E+00 -0.83432104995E+02  0.83432104995E+02  0.00000000000E+00 0.  1.
         25    1    1    2    0    0  0.10268722837E+03  0.26929341090E+03  0.31833112539E+03  0.44723965993E+03  0.12500000000E+03 0.  0.
         21    1    1    2  503  501 -0.75180105842E+01 -0.22138380278E+02  0.14375421977E+01  0.23424237277E+02  0.00000000000E+00 0.  1.
          2    1    1    2  501    0 -0.95169217782E+02 -0.24715503063E+03  0.21882355432E+04  0.22042045235E+04  0.00000000000E+00 0. -1.
<mgrwt>
<rscale>  4 0.29519208E+03</rscale>
<asrwt>0</asrwt>
<pdfrwt beam="1">  1       21 0.12835710E-01 0.29519208E+03</pdfrwt>
<pdfrwt beam="2">  1        2 0.39868245E+00 0.29519208E+03</pdfrwt>
<totfact> 0.23018990E+03</totfact>
</mgrwt>
</event>
<event>
 5    0  0.4115852E+000  0.2518339E+03  0.7546771E-02  0.1112151E+00
         21   -1    0    0  503  502  0.00000000000E+00  0.00000000000E+00  0.26036716651E+03  0.26036716651E+03  0.00000000000E+00 0.  1.
          2   -1    0    0  502    0 -0.00000000000E+00 -0.00000000000E+00 -0.43416400781E+03  0.43416400781E+03  0.00000000000E+00 0.  1.
         25    1    1    2    0    0  0.20675756231E+03 -0.71039429988E+02 -0.33388692422E+03  0.41821139195E+03  0.12500000000E+03 0.  0.
         21    1    1    2  503  501 -0.61631442898E+02  0.19627563531E+02  0.79663111504E+02  0.10261523931E+03  0.00000000000E+00 0.  1.
          2    1    1    2  501    0 -0.14512611941E+03  0.51411866458E+02  0.80426971428E+02  0.17370454307E+03  0.00000000000E+00 0.  1.
<mgrwt>
<rscale>  4 0.25183385E+03</rscale>
<asrwt>0</asrwt>
<pdfrwt beam="1">  1       21 0.40056487E-01 0.25183385E+03</pdfrwt>
<pdfrwt beam="2">  1        2 0.66794462E-01 0.25183385E+03</pdfrwt>
<totfact> 0.53772801E+03</totfact>
</mgrwt>
</event>
<event>
 5    0  0.4115852E+000  0.3008321E+03  0.7546771E-02  0.1084825E+00
          2   -1    0    0  502    0 -0.00000000000E+00  0.00000000000E+00  0.31883278688E+04  0.31883278688E+04  0.00000000000E+00 0.  1.
         21   -1    0    0  503  502  0.00000000000E+00 -0.00000000000E+00 -0.45529822893E+02  0.45529822893E+02  0.00000000000E+00 0.  1.
         25    1    1    2    0    0  0.20710506771E+03 -0.15845650599E+03  0.72943003627E+03  0.78466180688E+03  0.12500000000E+03 0.  0.
         21    1    1    2  503  501 -0.17208310008E+01 -0.28252915787E+02  0.10254346720E+02  0.30105483494E+02  0.00000000000E+00 0. -1.
          2    1    1    2  501    0 -0.20538423671E+03  0.18670942178E+03  0.24031136629E+04  0.24190904013E+04  0.00000000000E+00 0.  1.
<mgrwt>
<rscale>  4 0.30083205E+03</rscale>
<asrwt>0</asrwt>
<pdfrwt beam="1">  1       21 0.70045906E-02 0.30083205E+03</pdfrwt>
<pdfrwt beam="2">  1        2 0.49051181E+00 0.30083205E+03</pdfrwt>
<totfact> 0.30198404E+03</totfact>
</mgrwt>
</event>
<event>
 5    0  0.4115852E+000  0.2329541E+03  0.7546771E-02  0.1124578E+00
         -3   -1    0    0    0  501 -0.00000000000E+00  0.00000000000E+00  0.11029663665E+04  0.11029663665E+04  0.00000000000E+00 0.  1.
         21   -1    0    0  501  502  0.00000000000E+00 -0.00000000000E+00 -0.30195985761E+03  0.30195985761E+03  0.00000000000E+00 0.  1.
         25    1    1    2    0    0 -0.18647719798E+03 -0.13284080203E+03  0.28459002516E+03  0.38605298402E+03  0.12500000000E+03 0.  0.
         21    1    1    2  503  502  0.31904867648E+02  0.23861656851E+02 -0.23789771210E+03  0.24121073912E+03  0.00000000000E+00 0.  1.
         -3    1    1    2    0  503  0.15457233033E+03  0.10897914518E+03  0.75431419582E+03  0.77766250096E+03  0.00000000000E+00 0.  1.
<mgrwt>
<rscale>  4 0.23295413E+03</rscale>
<asrwt>0</asrwt>
<pdfrwt beam="1">  1       21 0.46455363E-01 0.23295413E+03</pdfrwt>
<pdfrwt beam="2">  1       -3 0.16968713E+00 0.23295413E+03</pdfrwt>
<totfact> 0.53901364E+01</totfact>
</mgrwt>
</event>
<event>
 5    0  0.4115852E+000  0.3623969E+03  0.7546771E-02  0.1057639E+00
          2   -1    0    0  502    0 -0.00000000000E+00  0.00000000000E+00  0.93860014967E+03  0.93860014967E+03  0.00000000000E+00 0.  1.
         21   -1    0    0  503  502  0.00000000000E+00 -0.00000000000E+00 -0.23693408338E+03  0.23693408338E+03  0.00000000000E+00 0.  1.
         25    1    1    2    0    0  0.74351045379E+02 -0.37548023103E+03  0.76658806223E+02  0.40989639474E+03  0.12500000000E+03 0.  0.
         21    1    1    2  503  501 -0.23236424333E+01  0.53625683936E+02 -0.56220632796E+01  0.53969629304E+02  0.00000000000E+00 0.  1.
          2    1    1    2  501    0 -0.72027402945E+02  0.32185454710E+03  0.63062932334E+03  0.71166820901E+03  0.00000000000E+00 0.  1.
<mgrwt>
<rscale>  4 0.36239694E+03</rscale>
<asrwt>0</asrwt>
<pdfrwt beam="1">  1       21 0.36451398E-01 0.36239694E+03</pdfrwt>
<pdfrwt beam="2">  1        2 0.14440002E+00 0.36239694E+03</pdfrwt>
<totfact> 0.24929924E+03</totfact>
</mgrwt>
</event>
<event>
 5    0  0.4115852E+000  0.2576605E+03  0.7546771E-02  0.1108557E+00
         21   -1    0    0  503  502  0.00000000000E+00  0.00000000000E+00  0.10444421347E+03  0.10444421347E+03  0.00000000000E+00 0. -1.
          1   -1    0    0  502    0 -0.00000000000E+00 -0.00000000000E+00 -0.62672348247E+03  0.62672348247E+03  0.00000000000E+00 0. -1.
         25    1    1    2    0    0 -0.36159017745E+02 -0.22238807888E+03 -0.28790165728E+03  0.38636290772E+03  0.12500000000E+03 0.  0.
         21    1    1    2  503  501  0.67580095099E+02  0.90719670643E+02 -0.75137584594E+02  0.13580421390E+03  0.00000000000E+00 0. -1.
          1    1    1    2  501    0 -0.31421077354E+02  0.13166840823E+03 -0.15924002712E+03  0.20900057432E+03  0.00000000000E+00 0. -1.
<mgrwt>
<rscale>  4 0.25766050E+03</rscale>
<asrwt>0</asrwt>
<pdfrwt beam="1">  1       21 0.16068341E-01 0.25766050E+03</pdfrwt>
<pdfrwt beam="2">  1        1 0.96418996E-01 0.25766050E+03</pdfrwt>
<totfact> 0.12544258E+04</totfact>
</mgrwt>
</event>
<event>
 5    0  0.4115852E+000  0.3112338E+03  0.7546771E-02  0.1079756E+00
         21   -1    0    0  503  502  0.00000000000E+00  0.00000000000E+00  0.12677368250E+03  0.12677368250E+03  0.00000000000E+00 0. -1.
          3   -1    0    0  502    0 -0.00000000000E+00 -0.00000000000E+00 -0.10778436326E+04  0.10778436326E+04  0.00000000000E+00 0. -1.
         25    1    1    2    0    0  0.64699358591E+02  0.29449982218E+03 -0.19540498190E+03  0.38042641761E+03  0.12500000000E+03 0.  0.
         21    1    1    2  503  501 -0.22854736018E+02 -0.17045858830E+02 -0.15125123283E+02  0.32274906910E+02  0.00000000000E+00 0. -1.
          3    1    1    2  501    0 -0.41844622573E+02 -0.27745396335E+03 -0.74053984493E+03  0.79191599059E+03  0.00000000000E+00 0. -1.
<mgrwt>
<rscale>  4 0.31123375E+03</rscale>
<asrwt>0</asrwt>
<pdfrwt beam="1">  1       21 0.19503643E-01 0.31123375E+03</pdfrwt>
<pdfrwt beam="2">  1        3 0.16582210E+00 0.31123375E+03</pdfrwt>
<totfact> 0.31146541E+02</totfact>
</mgrwt>
</event>
<event>
 5    0  0.4115852E+000  0.3906340E+03  0.7546771E-02  0.1047072E+00
          2   -1    0    0  502    0 -0.00000000000E+00  0.00000000000E+00  0.24763152831E+04  0.24763152831E+04  0.00000000000E+00 0.  1.
         21   -1    0    0  503  502  0.00000000000E+00 -0.00000000000E+00 -0.91157781267E+02  0.91157781267E+02  0.00000000000E+00 0.  1.
         25    1    1    2    0    0  0.91340772168E+02  0.31756153465E+03  0.95642540707E+03  0.10195896352E+04  0.12500000000E+03 0.  0.
         21    1    1    2  503  501 -0.90004114495E+02  0.10203750769E+03  0.15216338504E+03  0.20412273109E+03  0.00000000000E+00 0.  1.
          2    1    1    2  501    0 -0.13366576729E+01 -0.41959904235E+03  0.12765687097E+04  0.13437606981E+04  0.00000000000E+00 0.  1.
<mgrwt>
<rscale>  4 0.39063403E+03</rscale>
<asrwt>0</asrwt>
<pdfrwt beam="1">  1       21 0.14024276E-01 0.39063403E+03</pdfrwt>
<pdfrwt beam="2">  1        2 0.38097153E+00 0.39063403E+03</pdfrwt>
<totfact> 0.21889002E+03</totfact>
</mgrwt>
</event>
<event>
 5    0  0.4115852E+000  0.4474774E+03  0.7546771E-02  0.1028477E+00
         -1   -1    0    0    0  501 -0.00000000000E+00  0.00000000000E+00  0.16605051380E+04  0.16605051380E+04  0.00000000000E+00 0.  1.
         21   -1    0    0  501  502  0.00000000000E+00 -0.00000000000E+00 -0.19714648245E+03  0.19714648245E+03  0.00000000000E+00 0.  1.
         25    1    1    2    0    0 -0.30822669092E+03 -0.29568158067E+03  0.52749860416E+03  0.69015293054E+03  0.12500000000E+03 0.  0.
         21    1    1    2  503  502  0.12342901280E+02 -0.18036246472E+02 -0.69872976233E+02  0.73211243716E+02  0.00000000000E+00 0.  1.
         -1    1    1    2    0  503  0.29588378965E+03  0.31371782714E+03  0.10057330277E+04  0.10942874462E+04  0.00000000000E+00 0.  1.
<mgrwt>
<rscale>  4 0.44747738E+03</rscale>
<asrwt>0</asrwt>
<pdfrwt beam="1">  1       21 0.30330229E-01 0.44747738E+03</pdfrwt>
<pdfrwt beam="2">  1       -1 0.25546232E+00 0.44747738E+03</pdfrwt>
<totfact> 0.65180140E+01</totfact>
</mgrwt>
</event>
<event>
 5    0  0.4115852E+000  0.2743618E+03  0.7546771E-02  0.1098809E+00
         21   -1    0    0  501  502  0.00000000000E+00  0.00000000000E+00  0.12455586094E+04  0.12455586094E+04  0.00000000000E+00 0. -1.
         -3   -1    0    0    0  501 -0.00000000000E+00 -0.00000000000E+00 -0.96632651250E+02  0.96632651250E+02  0.00000000000E+00 0. -1.
         25    1    1    2    0    0  0.79707864814E+02  0.25378354191E+03  0.70726690645E+03  0.76590528580E+03  0.12500000000E+03 0.  0.
         21    1    1    2  503  502  0.20089924135E+02 -0.37354780730E+02  0.29155979351E+03  0.29462874586E+03  0.00000000000E+00 0.  1.
         -3    1    1    2    0  503 -0.99797788949E+02 -0.21642876118E+03  0.15009925823E+03  0.28165722903E+03  0.00000000000E+00 0. -1.
<mgrwt>
<rscale>  4 0.27436178E+03</rscale>
<asrwt>0</asrwt>
<pdfrwt beam="1">  1       21 0.19162439E+00 0.27436178E+03</pdfrwt>
<pdfrwt beam="2">  1       -3 0.14866563E-01 0.27436178E+03</pdfrwt>
<totfact> 0.27370470E+02</totfact>
</mgrwt>
</event>
<event>
 5    0  0.4115852E+000  0.2858265E+03  0.7546771E-02  0.1092549E+00
         21   -1    0    0  503  502  0.00000000000E+00  0.00000000000E+00  0.25431710257E+03  0.25431710257E+03  0.00000000000E+00 0. -1.
          2   -1    0    0  502    0 -0.00000000000E+00 -0.00000000000E+00 -0.54519516831E+03  0.54519516831E+03  0.00000000000E+00 0. -1.
         25    1    1    2    0    0 -0.65162787495E+00 -0.27139071680E+03  0.86962700805E+02  0.31119263667E+03  0.12500000000E+03 0.  0.
         21    1    1    2  503  501  0.13163137355E+02  0.17332015841E+02  0.10439947086E+02  0.24138339903E+02  0.00000000000E+00 0.  1.
          2    1    1    2  501    0 -0.12511509480E+02  0.25405870096E+03 -0.38828071363E+03  0.46418129430E+03  0.00000000000E+00 0. -1.
<mgrwt>
<rscale>  4 0.28582652E+03</rscale>
<asrwt>0</asrwt>
<pdfrwt beam="1">  1       21 0.39125708E-01 0.28582652E+03</pdfrwt>
<pdfrwt beam="2">  1        2 0.83876179E-01 0.28582652E+03</pdfrwt>
<totfact> 0.43323830E+03</totfact>
</mgrwt>
</event>
<event>
 5    0  0.4115852E+000  0.2230808E+03  0.7546771E-02  0.1131607E+00
         21   -1    0    0  503  502  0.00000000000E+00  0.00000000000E+00  0.96586000316E+03  0.96586000316E+03  0.00000000000E+00 0.  1.
          2   -1    0    0  502    0 -0.00000000000E+00 -0.00000000000E+00 -0.67278517508E+02  0.67278517508E+02  0.00000000000E+00 0.  1.
         25    1    1    2    0    0 -0.18863508717E+03 -0.68753848574E+02  0.27165906441E+03  0.36018597291E+03  0.12500000000E+03 0.  0.
         21    1    1    2  503  501  0.42257073297E+02 -0.16258535159E+02  0.31338642674E+03  0.31664025750E+03  0.00000000000E+00 0.  1.
          2    1    1    2  501    0  0.14637801388E+03  0.85012383733E+02  0.31353599450E+03  0.35631229025E+03  0.00000000000E+00 0.  1.
<mgrwt>
<rscale>  4 0.22308082E+03</rscale>
<asrwt>0</asrwt>
<pdfrwt beam="1">  1       21 0.14859384E+00 0.22308082E+03</pdfrwt>
<pdfrwt beam="2">  1        2 0.10350542E-01 0.22308082E+03</pdfrwt>
<totfact> 0.22465770E+03</totfact>
</mgrwt>
</event>
<event>
 5    0  0.4115852E+000  0.2560131E+03  0.7546771E-02  0.1109563E+00
         21   -1    0    0  503  502  0.00000000000E+00  0.00000000000E+00  0.11804649632E+04  0.11804649632E+04  0.00000000000E+00 0.  1.
          1   -1    0    0  502    0 -0.00000000000E+00 -0.00000000000E+00 -0.11461176407E+03  0.11461176407E+03  0.00000000000E+00 0.  1.
         25    1    1    2    0    0 -0.24286722279E+03  0.92282229167E+02  0.47007537551E+03  0.55144932350E+03  0.12500000000E+03 0.  0.
         21    1    1    2  503  501  0.41426888938E+02 -0.24847185336E+02  0.51358622234E+03  0.51585305807E+03  0.00000000000E+00 0.  1.
          1    1    1    2  501    0  0.20144033385E+03 -0.67435043830E+02  0.82191601289E+02  0.22777434570E+03  0.00000000000E+00 0.  1.
<mgrwt>
<rscale>  4 0.25601305E+03</rscale>
<asrwt>0</asrwt>
<pdfrwt beam="1">  1       21 0.18160999E+00 0.25601305E+03</pdfrwt>
<pdfrwt beam="2">  1        1 0.17632580E-01 0.25601305E+03</pdfrwt>
<totfact> 0.55248025E+02</totfact>
</mgrwt>
</event>
<event>
 5    0  0.4115852E+000  0.4264763E+03  0.7546771E-02  0.1034979E+00
         21   -1    0    0  501  502  0.00000000000E+00  0.00000000000E+00  0.29472254545E+03  0.29472254545E+03  0.00000000000E+00 0. -1.
         -3   -1    0    0    0  501 -0.00000000000E+00 -0.00000000000E+00 -0.69858963368E+03  0.69858963368E+03  0.00000000000E+00 0. -1.
         25    1    1    2    0    0 -0.22625181390E+03 -0.34147083342E+03 -0.17118464716E+03  0.46121729889E+03  0.12500000000E+03 0.  0.
         21    1    1    2  503  502 -0.20340576149E+02  0.18038740430E+02  0.35653862068E+02  0.44836738003E+02  0.00000000000E+00 0.  1.
         -3    1    1    2    0  503  0.24659239004E+03  0.32343209299E+03 -0.26833630313E+03  0.48725814224E+03  0.00000000000E+00 0. -1.
<mgrwt>
<rscale>  4 0.42647626E+03</rscale>
<asrwt>0</asrwt>
<pdfrwt beam="1">  1       21 0.45341930E-01 0.42647626E+03</pdfrwt>
<pdfrwt beam="2">  1       -3 0.10747533E+00 0.42647626E+03</pdfrwt>
<totfact> 0.16807191E+02</totfact>
</mgrwt>
</event>
<event>
 5    0  0.4115852E+000  0.2210095E+03  0.7546771E-02  0.1133133E+00
         -3   -1    0    0    0  501 -0.00000000000E+00  0.00000000000E+00  0.28817791855E+04  0.28817791855E+04  0.00000000000E+00 0. -1.
         21   -1    0    0  501  502  0.00000000000E+00 -0.00000000000E+00 -0.21230401578E+02  0.21230401578E+02  0.00000000000E+00 0. -1.
         25    1    1    2    0    0  0.22418343010E+02 -0.21022984544E+03  0.13787653435E+04  0.14004706504E+04  0.12500000000E+03 0.  0.
         21    1    1    2  503  502 -0.22649507777E+01  0.42760703317E+02  0.80869778947E+02  0.91506988242E+02  0.00000000000E+00 0. -1.
         -3    1    1    2    0  503 -0.20153392233E+02  0.16746914212E+03  0.14009136615E+04  0.14110319485E+04  0.00000000000E+00 0. -1.
<mgrwt>
<rscale>  4 0.22100949E+03</rscale>
<asrwt>0</asrwt>
<pdfrwt beam="1">  1       21 0.32662179E-02 0.22100949E+03</pdfrwt>
<pdfrwt beam="2">  1       -3 0.44335033E+00 0.22100949E+03</pdfrwt>
<totfact> 0.20954599E+02</totfact>
</mgrwt>
</event>
<event>
 5    0  0.4115852E+000  0.3243834E+03  0.7546771E-02  0.1073649E+00
          1   -1    0    0  502    0 -0.00000000000E+00  0.00000000000E+00  0.70411755861E+03  0.70411755861E+03  0.00000000000E+00 0. -1.
         21   -1    0    0  503  502  0.00000000000E+00 -0.00000000000E+00 -0.16521872995E+04  0.16521872995E+04  0.00000000000E+00 0. -1.
         25    1    1    2    0    0  0.18824224199E+02  0.36558778775E+03  0.21429474487E+03  0.44221716345E+03  0.12500000000E+03 0.  0.
         21    1    1    2  503  501 -0.12175947130E+02 -0.29617267155E+03 -0.15205519434E+04  0.15491754960E+04  0.00000000000E+00 0. -1.
          1    1    1    2  501    0 -0.66482770694E+01 -0.69415116194E+02  0.35818745758E+03  0.36491219864E+03  0.00000000000E+00 0. -1.
<mgrwt>
<rscale>  4 0.32438337E+03</rscale>
<asrwt>0</asrwt>
<pdfrwt beam="1">  1       21 0.25418266E+00 0.32438337E+03</pdfrwt>
<pdfrwt beam="2">  1        1 0.10832578E+00 0.32438337E+03</pdfrwt>
<totfact> 0.17165768E+01</totfact>
</mgrwt>
</event>
<event>
 5    0  0.4115852E+000  0.3456786E+03  0.7546771E-02  0.1064403E+00
          2   -1    0    0  502    0 -0.00000000000E+00  0.00000000000E+00  0.23122678522E+04  0.23122678522E+04  0.00000000000E+00 0.  1.
         21   -1    0    0  503  502  0.00000000000E+00 -0.00000000000E+00 -0.29365106602E+03  0.29365106602E+03  0.00000000000E+00 0.  1.
         25    1    1    2    0    0  0.35137277388E+03 -0.31613137031E+03  0.69632999828E+03  0.85082450366E+03  0.12500000000E+03 0.  0.
         21    1    1    2  503  501 -0.26967622419E+03  0.13786415637E+03 -0.10030572587E+03  0.31905020005E+03  0.00000000000E+00 0.  1.
          2    1    1    2  501    0 -0.81696549685E+02  0.17826721394E+03  0.14225925137E+04  0.14360442145E+04  0.00000000000E+00 0.  1.
<mgrwt>
<rscale>  4 0.34567860E+03</rscale>
<asrwt>0</asrwt>
<pdfrwt beam="1">  1       21 0.45177089E-01 0.34567860E+03</pdfrwt>
<pdfrwt beam="2">  1        2 0.35573350E+00 0.34567860E+03</pdfrwt>
<totfact> 0.28104398E+02</totfact>
</mgrwt>
</event>
<event>
 5    0  0.4115852E+000  0.2620298E+03  0.7546771E-02  0.1105930E+00
         21   -1    0    0  503  502  0.00000000000E+00  0.00000000000E+00  0.50490162318E+02  0.50490162318E+02  0.00000000000E+00 0.  1.
          2   -1    0    0  502    0 -0.00000000000E+00 -0.00000000000E+00 -0.16444858337E+04  0.16444858337E+04  0.00000000000E+00 0.  1.
         25    1    1    2    0    0  0.23865767241E+02  0.21527772056E+03 -0.60427644675E+03  0.65397943080E+03  0.12500000000E+03 0.  0.
         21    1    1    2  503  501  0.16370680495E+02  0.19546624091E+02 -0.27099236105E+01  0.25640073697E+02  0.00000000000E+00 0. -1.
          2    1    1    2  501    0 -0.40236447735E+02 -0.23482434465E+03 -0.98700930100E+03  0.10153564915E+04  0.00000000000E+00 0.  1.
<mgrwt>
<rscale>  4 0.26202978E+03</rscale>
<asrwt>0</asrwt>
<pdfrwt beam="1">  1       21 0.77677184E-02 0.26202978E+03</pdfrwt>
<pdfrwt beam="2">  1        2 0.25299778E+00 0.26202978E+03</pdfrwt>
<totfact> 0.18251815E+04</totfact>
</mgrwt>
</event>
<event>
 5    0  0.4115852E+000  0.6452886E+03  0.7546771E-02  0.9819394E-01
          1   -1    0    0  502    0 -0.00000000000E+00  0.00000000000E+00  0.24978738336E+04  0.24978738336E+04  0.00000000000E+00 0. -1.
         21   -1    0    0  503  502  0.00000000000E+00 -0.00000000000E+00 -0.22010213440E+03  0.22010213440E+03  0.00000000000E+00 0.  1.
         25    1    1    2    0    0 -0.61218338215E+03  0.12629747717E+03  0.45176506123E+03  0.78130417679E+03  0.12500000000E+03 0.  0.
         21    1    1    2  503  501  0.53476539940E+02  0.31859226493E+02  0.13273722905E+03  0.14660805780E+03  0.00000000000E+00 0. -1.
          1    1    1    2  501    0  0.55870684221E+03 -0.15815670366E+03  0.16932694089E+04  0.17900637334E+04  0.00000000000E+00 0. -1.
<mgrwt>
<rscale>  4 0.64332037E+03</rscale>
<asrwt>0</asrwt>
<pdfrwt beam="1">  1       21 0.33861869E-01 0.64528861E+03</pdfrwt>
<pdfrwt beam="2">  1        1 0.38428826E+00 0.64528861E+03</pdfrwt>
<totfact> 0.12503465E+02</totfact>
</mgrwt>
</event>
<event>
 5    0  0.4115852E+000  0.2310795E+03  0.7546771E-02  0.1125882E+00
         21   -1    0    0  503  502  0.00000000000E+00  0.00000000000E+00  0.23175943684E+03  0.23175943684E+03  0.00000000000E+00 0. -1.
          2   -1    0    0  502    0 -0.00000000000E+00 -0.00000000000E+00 -0.13187645172E+04  0.13187645172E+04  0.00000000000E+00 0.  1.
         25    1    1    2    0    0 -0.68466289742E+01 -0.20903164931E+03  0.81713082203E+02  0.25698858836E+03  0.12500000000E+03 0.  0.
         21    1    1    2  503  501  0.11914845564E+02  0.17347481690E+03 -0.59567881307E+02  0.18380372175E+03  0.00000000000E+00 0. -1.
          2    1    1    2  501    0 -0.50682165895E+01  0.35556832406E+02 -0.11091502812E+04  0.11097316439E+04  0.00000000000E+00 0.  1.
<mgrwt>
<rscale>  4 0.23107948E+03</rscale>
<asrwt>0</asrwt>
<pdfrwt beam="1">  1       21 0.35655298E-01 0.23107948E+03</pdfrwt>
<pdfrwt beam="2">  1        2 0.20288685E+00 0.23107948E+03</pdfrwt>
<totfact> 0.16310346E+03</totfact>
</mgrwt>
</event>
<event>
 5    0  0.4115852E+000  0.2473126E+03  0.7546771E-02  0.1115015E+00
         -3   -1    0    0    0  501 -0.00000000000E+00  0.00000000000E+00  0.12314110525E+03  0.12314110525E+03  0.00000000000E+00 0. -1.
         21   -1    0    0  501  502  0.00000000000E+00 -0.00000000000E+00 -0.16443904061E+04  0.16443904061E+04  0.00000000000E+00 0. -1.
         25    1    1    2    0    0  0.98252852845E+02 -0.25126791505E+03 -0.19912373894E+03  0.35786093896E+03  0.12500000000E+03 0.  0.
         21    1    1    2  503  502  0.95199749821E+02  0.19405262086E+03 -0.10436707316E+04  0.10658179995E+04  0.00000000000E+00 0. -1.
         -3    1    1    2    0  503 -0.19345260267E+03  0.57215294190E+02 -0.27845483035E+03  0.34385257293E+03  0.00000000000E+00 0. -1.
<mgrwt>
<rscale>  4 0.24731259E+03</rscale>
<asrwt>0</asrwt>
<pdfrwt beam="1">  1       21 0.25298312E+00 0.24731259E+03</pdfrwt>
<pdfrwt beam="2">  1       -3 0.18944787E-01 0.24731259E+03</pdfrwt>
<totfact> 0.75008005E+01</totfact>
</mgrwt>
</event>
<event>
 5    0  0.4115852E+000  0.3029691E+03  0.7546771E-02  0.1083766E+00
         21   -1    0    0  503  502  0.00000000000E+00  0.00000000000E+00  0.24896547904E+03  0.24896547904E+03  0.00000000000E+00 0. -1.
          1   -1    0    0  502    0 -0.00000000000E+00 -0.00000000000E+00 -0.11663987762E+04  0.11663987762E+04  0.00000000000E+00 0. -1.
         25    1    1    2    0    0  0.24851911046E+02  0.22077727432E+03  0.76739748910E+02  0.26622210916E+03  0.12500000000E+03 0.  0.
         21    1    1    2  503  501  0.50250750531E+00  0.59967211820E+02  0.43356870415E+02  0.74000927153E+02  0.00000000000E+00 0. -1.
          1    1    1    2  501    0 -0.25354418551E+02 -0.28074448614E+03 -0.10375299164E+04  0.10751412189E+04  0.00000000000E+00 0. -1.
<mgrwt>
<rscale>  4 0.30296912E+03</rscale>
<asrwt>0</asrwt>
<pdfrwt beam="1">  1       21 0.38302381E-01 0.30296912E+03</pdfrwt>
<pdfrwt beam="2">  1        1 0.17944597E+00 0.30296912E+03</pdfrwt>
<totfact> 0.84954017E+02</totfact>
</mgrwt>
</event>
<event>
 5    0  0.4115852E+000  0.2867525E+03  0.7546771E-02  0.1092057E+00
         21   -1    0    0  503  502  0.00000000000E+00  0.00000000000E+00  0.40400443393E+03  0.40400443393E+03  0.00000000000E+00 0. -1.
          2   -1    0    0  502    0 -0.00000000000E+00 -0.00000000000E+00 -0.18995343484E+04  0.18995343484E+04  0.00000000000E+00 0. -1.
         25    1    1    2    0    0  0.11941895852E+03  0.17790142652E+03  0.15627485831E+03  0.29318362259E+03  0.12500000000E+03 0.  0.
         21    1    1    2  503  501  0.46145205909E+02  0.22462318726E+02  0.16615926572E+03  0.17390467899E+03  0.00000000000E+00 0. -1.
          2    1    1    2  501    0 -0.16556416443E+03 -0.20036374524E+03 -0.18179640385E+04  0.18364504807E+04  0.00000000000E+00 0. -1.
<mgrwt>
<rscale>  4 0.28675249E+03</rscale>
<asrwt>0</asrwt>
<pdfrwt beam="1">  1       21 0.62154528E-01 0.28675249E+03</pdfrwt>
<pdfrwt beam="2">  1        2 0.29223605E+00 0.28675249E+03</pdfrwt>
<totfact> 0.24385243E+02</totfact>
</mgrwt>
</event>
<event>
 5    0  0.4115852E+000  0.5396709E+03  0.7546771E-02  0.1003913E+00
          1   -1    0    0  502    0 -0.00000000000E+00  0.00000000000E+00  0.24836790849E+04  0.24836790849E+04  0.00000000000E+00 0.  1.
         21   -1    0    0  503  502  0.00000000000E+00 -0.00000000000E+00 -0.14396240737E+03  0.14396240737E+03  0.00000000000E+00 0.  1.
         25    1    1    2    0    0  0.32343181887E+03  0.36704514420E+03  0.64208003793E+03  0.81683661430E+03  0.12500000000E+03 0.  0.
         21    1    1    2  503  501  0.16939886614E+02  0.56103829005E+02  0.53675071753E+02  0.79470829335E+02  0.00000000000E+00 0.  1.
          1    1    1    2  501    0 -0.34037170549E+03 -0.42314897321E+03  0.16439615679E+04  0.17313340487E+04  0.00000000000E+00 0.  1.
<mgrwt>
<rscale>  4 0.53967088E+03</rscale>
<asrwt>0</asrwt>
<pdfrwt beam="1">  1       21 0.22148064E-01 0.53967088E+03</pdfrwt>
<pdfrwt beam="2">  1        1 0.38210444E+00 0.53967088E+03</pdfrwt>
<totfact> 0.30451183E+02</totfact>
</mgrwt>
</event>
<event>
 5    0  0.4115852E+000  0.2071691E+03  0.7546771E-02  0.1143828E+00
          2   -1    0    0  502    0 -0.00000000000E+00  0.00000000000E+00  0.29731118139E+03  0.29731118139E+03  0.00000000000E+00 0. -1.
         21   -1    0    0  503  502  0.00000000000E+00 -0.00000000000E+00 -0.30605782725E+03  0.30605782725E+03  0.00000000000E+00 0. -1.
         25    1    1    2    0    0  0.14649688851E+03  0.16393295658E+03 -0.40002563810E+02  0.25604795978E+03  0.12500000000E+03 0.  0.
         21    1    1    2  503  501 -0.63757241813E+02 -0.13371914901E+03 -0.10745273762E+03  0.18300788922E+03  0.00000000000E+00 0. -1.
          2    1    1    2  501    0 -0.82739646702E+02 -0.30213807574E+02  0.13870865556E+03  0.16431315964E+03  0.00000000000E+00 0. -1.
<mgrwt>
<rscale>  4 0.20716907E+03</rscale>
<asrwt>0</asrwt>
<pdfrwt beam="1">  1       21 0.47085819E-01 0.20716907E+03</pdfrwt>
<pdfrwt beam="2">  1        2 0.45740182E-01 0.20716907E+03</pdfrwt>
<totfact> 0.58854546E+03</totfact>
</mgrwt>
</event>
<event>
 5    0  0.4119781E+000  0.3484486E+03  0.7546771E-02  0.1063254E+00
          1   -1    0    0  502    0 -0.00000000000E+00  0.00000000000E+00  0.27833064743E+04  0.27833064743E+04  0.00000000000E+00 0. -1.
         21   -1    0    0  503  502  0.00000000000E+00 -0.00000000000E+00 -0.87315363124E+03  0.87315363124E+03  0.00000000000E+00 0. -1.
         25    1    1    2    0    0  0.30321064946E+03  0.96794237110E+02 -0.76376786922E+03  0.83682266959E+03  0.12500000000E+03 0.  0.
         21    1    1    2  503  501  0.16916227781E+02 -0.38608965155E+02 -0.56169372380E+02  0.70226842064E+02  0.00000000000E+00 0.  1.
          1    1    1    2  501    0 -0.32012687724E+03 -0.58185271955E+02  0.27300900847E+04  0.27494105939E+04  0.00000000000E+00 0. -1.
<mgrwt>
<rscale>  4 0.34844857E+03</rscale>
<asrwt>0</asrwt>
<pdfrwt beam="1">  1       21 0.13433133E+00 0.34844857E+03</pdfrwt>
<pdfrwt beam="2">  1        1 0.42820099E+00 0.34844857E+03</pdfrwt>
<totfact> 0.40098420E+00</totfact>
</mgrwt>
</event>
<event>
 5    0  0.4115852E+000  0.3082108E+03  0.7546771E-02  0.1081207E+00
          1   -1    0    0  502    0 -0.00000000000E+00  0.00000000000E+00  0.22484070015E+04  0.22484070015E+04  0.00000000000E+00 0. -1.
         21   -1    0    0  503  502  0.00000000000E+00 -0.00000000000E+00 -0.23856254216E+03  0.23856254216E+03  0.00000000000E+00 0. -1.
         25    1    1    2    0    0 -0.25522683619E+03  0.44643672856E+02 -0.11047186822E+03  0.30816039510E+03  0.12500000000E+03 0.  0.
         21    1    1    2  503  501 -0.27650617443E+02 -0.41613626924E+02  0.11717442559E+02  0.51318116206E+02  0.00000000000E+00 0.  1.
          1    1    1    2  501    0  0.28287745364E+03 -0.30300459317E+01  0.21085988850E+04  0.21274910324E+04  0.00000000000E+00 0. -1.
<mgrwt>
<rscale>  4 0.30821080E+03</rscale>
<asrwt>0</asrwt>
<pdfrwt beam="1">  1       21 0.36701931E-01 0.30821080E+03</pdfrwt>
<pdfrwt beam="2">  1        1 0.34590875E+00 0.30821080E+03</pdfrwt>
<totfact> 0.17644538E+02</totfact>
</mgrwt>
</event>
<event>
 5    0  0.4115852E+000  0.3052051E+03  0.7546771E-02  0.1082667E+00
          1   -1    0    0  502    0 -0.00000000000E+00  0.00000000000E+00  0.28799445915E+04  0.28799445915E+04  0.00000000000E+00 0. -1.
         21   -1    0    0  503  502  0.00000000000E+00 -0.00000000000E+00 -0.18137495049E+03  0.18137495049E+03  0.00000000000E+00 0. -1.
         25    1    1    2    0    0 -0.21059438040E+03  0.14512303997E+03  0.14246499479E+02  0.28502395081E+03  0.12500000000E+03 0.  0.
         21    1    1    2  503  501 -0.39147087088E+02 -0.19050935539E+02 -0.26570994937E+02  0.51004414949E+02  0.00000000000E+00 0.  1.
          1    1    1    2  501    0  0.24974146749E+03 -0.12607210444E+03  0.27108941365E+04  0.27252911762E+04  0.00000000000E+00 0. -1.
<mgrwt>
<rscale>  4 0.30520512E+03</rscale>
<asrwt>0</asrwt>
<pdfrwt beam="1">  1       21 0.27903841E-01 0.30520512E+03</pdfrwt>
<pdfrwt beam="2">  1        1 0.44306837E+00 0.30520512E+03</pdfrwt>
<totfact> 0.11459343E+02</totfact>
</mgrwt>
</event>
<event>
 5    0  0.4115852E+000  0.3963654E+03  0.7546771E-02  0.1045046E+00
          1   -1    0    0  502    0 -0.00000000000E+00  0.00000000000E+00  0.20588689616E+04  0.20588689616E+04  0.00000000000E+00 0.  1.
         21   -1    0    0  503  502  0.00000000000E+00 -0.00000000000E+00 -0.20732978545E+04  0.20732978545E+04  0.00000000000E+00 0.  1.
         25    1    1    2    0    0 -0.14830701968E+03  0.37906545343E+03  0.13752749883E+04  0.14396846473E+04  0.12500000000E+03 0.  0.
         21    1    1    2  503  501  0.62876186886E+02 -0.54192121767E+02 -0.19968654956E+04  0.19985900051E+04  0.00000000000E+00 0.  1.
          1    1    1    2  501    0  0.85430832796E+02 -0.32487333166E+03  0.60716161444E+03  0.69389216372E+03  0.00000000000E+00 0.  1.
<mgrwt>
<rscale>  4 0.39636535E+03</rscale>
<asrwt>0</asrwt>
<pdfrwt beam="1">  1       21 0.31896890E+00 0.39636535E+03</pdfrwt>
<pdfrwt beam="2">  1        1 0.31674907E+00 0.39636535E+03</pdfrwt>
<totfact> 0.72073305E-01</totfact>
</mgrwt>
</event>
<event>
 5    0  0.4115852E+000  0.2153780E+03  0.7546771E-02  0.1137377E+00
         21   -1    0    0  503  502  0.00000000000E+00  0.00000000000E+00  0.89393669229E+03  0.89393669229E+03  0.00000000000E+00 0. -1.
          1   -1    0    0  502    0 -0.00000000000E+00 -0.00000000000E+00 -0.15458181305E+04  0.15458181305E+04  0.00000000000E+00 0. -1.
         25    1    1    2    0    0 -0.88348445568E+02 -0.24851368325E+03  0.53601439110E+03  0.61032853945E+03  0.12500000000E+03 0.  0.
         21    1    1    2  503  501 -0.69877877977E+01  0.10215213771E+03  0.30737873702E+03  0.32398391378E+03  0.00000000000E+00 0. -1.
          1    1    1    2  501    0  0.95336233366E+02  0.14636154554E+03 -0.14952745664E+04  0.15054423696E+04  0.00000000000E+00 0. -1.
<mgrwt>
<rscale>  4 0.21537802E+03</rscale>
<asrwt>0</asrwt>
<pdfrwt beam="1">  1       21 0.13752872E+00 0.21537802E+03</pdfrwt>
<pdfrwt beam="2">  1        1 0.23781817E+00 0.21537802E+03</pdfrwt>
<totfact> 0.27729402E+01</totfact>
</mgrwt>
</event>
<event>
 5    0  0.4115852E+000  0.2942064E+03  0.7546771E-02  0.1088173E+00
         21   -1    0    0  503  502  0.00000000000E+00  0.00000000000E+00  0.61213717487E+02  0.61213717487E+02  0.00000000000E+00 0.  1.
          2   -1    0    0  502    0 -0.00000000000E+00 -0.00000000000E+00 -0.17834197355E+04  0.17834197355E+04  0.00000000000E+00 0.  1.
         25    1    1    2    0    0  0.12363787212E+03 -0.21930192604E+03 -0.87161448052E+03  0.91581464327E+03  0.12500000000E+03 0.  0.
         21    1    1    2  503  501 -0.11601615612E+02 -0.39835508136E+02 -0.10844151790E+02  0.42884272424E+02  0.00000000000E+00 0.  1.
          2    1    1    2  501    0 -0.11203625651E+03  0.25913743417E+03 -0.83974738570E+03  0.88593453728E+03  0.00000000000E+00 0.  1.
<mgrwt>
<rscale>  4 0.29420640E+03</rscale>
<asrwt>0</asrwt>
<pdfrwt beam="1">  1       21 0.94174946E-02 0.29420640E+03</pdfrwt>
<pdfrwt beam="2">  1        2 0.27437228E+00 0.29420640E+03</pdfrwt>
<totfact> 0.10887459E+04</totfact>
</mgrwt>
</event>
<event>
 5    0  0.4115852E+000  0.2390910E+03  0.7546771E-02  0.1120400E+00
          1   -1    0    0  502    0 -0.00000000000E+00  0.00000000000E+00  0.93415529867E+03  0.93415529867E+03  0.00000000000E+00 0.  1.
         21   -1    0    0  503  502  0.00000000000E+00 -0.00000000000E+00 -0.12207252469E+03  0.12207252469E+03  0.00000000000E+00 0.  1.
         25    1    1    2    0    0 -0.32444949543E+02 -0.21414843450E+03  0.62393312296E+02  0.25774047445E+03  0.12500000000E+03 0.  0.
         21    1    1    2  503  501 -0.13561486803E+02  0.17311336981E+02 -0.34072729875E-01  0.21990849764E+02  0.00000000000E+00 0.  1.
          1    1    1    2  501    0  0.46006436346E+02  0.19683709752E+03  0.74972353441E+03  0.77649649915E+03  0.00000000000E+00 0.  1.
<mgrwt>
<rscale>  4 0.23909098E+03</rscale>
<asrwt>0</asrwt>
<pdfrwt beam="1">  1       21 0.18780389E-01 0.23909098E+03</pdfrwt>
<pdfrwt beam="2">  1        1 0.14371619E+00 0.23909098E+03</pdfrwt>
<totfact> 0.51462038E+03</totfact>
</mgrwt>
</event>
<event>
 5    0  0.4115852E+000  0.2209318E+03  0.7546771E-02  0.1133190E+00
         21   -1    0    0  503  502  0.00000000000E+00  0.00000000000E+00  0.59418113232E+03  0.59418113232E+03  0.00000000000E+00 0. -1.
          3   -1    0    0  502    0 -0.00000000000E+00 -0.00000000000E+00 -0.20733856320E+03  0.20733856320E+03  0.00000000000E+00 0. -1.
         25    1    1    2    0    0  0.20407556126E+03 -0.71160747135E+02  0.20964125352E+03  0.32601402089E+03  0.12500000000E+03 0.  0.
         21    1    1    2  503  501 -0.38564063881E+02  0.12635627025E+02  0.27266907543E+03  0.27567239759E+03  0.00000000000E+00 0. -1.
          3    1    1    2  501    0 -0.16551149738E+03  0.58525120110E+02 -0.95467759829E+02  0.19983327705E+03  0.00000000000E+00 0. -1.
<mgrwt>
<rscale>  4 0.22093176E+03</rscale>
<asrwt>0</asrwt>
<pdfrwt beam="1">  1       21 0.91412481E-01 0.22093176E+03</pdfrwt>
<pdfrwt beam="2">  1        3 0.31898241E-01 0.22093176E+03</pdfrwt>
<totfact> 0.47524654E+02</totfact>
</mgrwt>
</event>
<event>
 5    0  0.4115852E+000  0.2449159E+03  0.7546771E-02  0.1116561E+00
         21   -1    0    0  503  502  0.00000000000E+00  0.00000000000E+00  0.45838540023E+02  0.45838540023E+02  0.00000000000E+00 0.  1.
          2   -1    0    0  502    0 -0.00000000000E+00 -0.00000000000E+00 -0.13614626257E+04  0.13614626257E+04  0.00000000000E+00 0.  1.
         25    1    1    2    0    0 -0.93532114762E+01  0.21059786421E+03 -0.48461572171E+03  0.54306200447E+03  0.12500000000E+03 0.  0.
         21    1    1    2  503  501  0.31423427988E+02 -0.20867507175E+03 -0.69152037344E+03  0.72300286602E+03  0.00000000000E+00 0.  1.
          2    1    1    2  501    0 -0.22070216512E+02 -0.19227924591E+01 -0.13948799053E+03  0.14123629522E+03  0.00000000000E+00 0.  1.
<mgrwt>
<rscale>  4 0.24491587E+03</rscale>
<asrwt>0</asrwt>
<pdfrwt beam="1">  1       21 0.70520825E-02 0.24491587E+03</pdfrwt>
<pdfrwt beam="2">  1        2 0.20945581E+00 0.24491587E+03</pdfrwt>
<totfact> 0.30739806E+04</totfact>
</mgrwt>
</event>
<event>
 5    0  0.4115852E+000  0.5667816E+03  0.7546771E-02  0.9976826E-01
          3   -1    0    0  502    0 -0.00000000000E+00  0.00000000000E+00  0.12374095356E+04  0.12374095356E+04  0.00000000000E+00 0. -1.
         21   -1    0    0  503  502  0.00000000000E+00 -0.00000000000E+00 -0.51025652180E+03  0.51025652180E+03  0.00000000000E+00 0. -1.
         25    1    1    2    0    0  0.31092940689E+03  0.44935820725E+03  0.48086430387E+03  0.73854950629E+03  0.12500000000E+03 0.  0.
         21    1    1    2  503  501  0.24145299226E+02 -0.16780184791E+01 -0.25619175487E+03  0.25733252123E+03  0.00000000000E+00 0. -1.
          3    1    1    2  501    0 -0.33507470612E+03 -0.44768018877E+03  0.50248046479E+03  0.75178402989E+03  0.00000000000E+00 0. -1.
<mgrwt>
<rscale>  4 0.56678156E+03</rscale>
<asrwt>0</asrwt>
<pdfrwt beam="1">  1       21 0.78501004E-01 0.56678156E+03</pdfrwt>
<pdfrwt beam="2">  1        3 0.19037070E+00 0.56678156E+03</pdfrwt>
<totfact> 0.11428835E+01</totfact>
</mgrwt>
</event>
<event>
 5    0  0.4115852E+000  0.2113164E+03  0.7546771E-02  0.1140528E+00
          1   -1    0    0  502    0 -0.00000000000E+00  0.00000000000E+00  0.50838504991E+03  0.50838504991E+03  0.00000000000E+00 0. -1.
         21   -1    0    0  503  502  0.00000000000E+00 -0.00000000000E+00 -0.20838343982E+04  0.20838343982E+04  0.00000000000E+00 0. -1.
         25    1    1    2    0    0  0.48088540723E+02 -0.23525621352E+03 -0.23605418329E+03  0.35917206350E+03  0.12500000000E+03 0.  0.
         21    1    1    2  503  501  0.94908012421E+01  0.78649685510E+02 -0.17697271293E+04  0.17714993538E+04  0.00000000000E+00 0. -1.
          1    1    1    2  501    0 -0.57579341965E+02  0.15660652801E+03  0.43033196431E+03  0.46154803080E+03  0.00000000000E+00 0. -1.
<mgrwt>
<rscale>  4 0.21131645E+03</rscale>
<asrwt>0</asrwt>
<pdfrwt beam="1">  1       21 0.32058991E+00 0.21131645E+03</pdfrwt>
<pdfrwt beam="2">  1        1 0.78213084E-01 0.21131645E+03</pdfrwt>
<totfact> 0.12345022E+01</totfact>
</mgrwt>
</event>
<event>
 5    0  0.4115852E+000  0.2754656E+03  0.7546771E-02  0.1098192E+00
         21   -1    0    0  503  502  0.00000000000E+00  0.00000000000E+00  0.12235259052E+04  0.12235259052E+04  0.00000000000E+00 0. -1.
          1   -1    0    0  502    0 -0.00000000000E+00 -0.00000000000E+00 -0.17657055940E+03  0.17657055940E+03  0.00000000000E+00 0. -1.
         25    1    1    2    0    0 -0.95587800636E+02 -0.18309503348E+03  0.94183019233E+03  0.97228078768E+03  0.12500000000E+03 0.  0.
         21    1    1    2  503  501 -0.19457725973E+02 -0.38253967217E+02  0.16564806548E+03  0.17111765164E+03  0.00000000000E+00 0. -1.
          1    1    1    2  501    0  0.11504552661E+03  0.22134900069E+03 -0.60522912004E+02  0.25669802527E+03  0.00000000000E+00 0. -1.
<mgrwt>
<rscale>  4 0.27546557E+03</rscale>
<asrwt>0</asrwt>
<pdfrwt beam="1">  1       21 0.18823475E+00 0.27546557E+03</pdfrwt>
<pdfrwt beam="2">  1        1 0.27164702E-01 0.27546557E+03</pdfrwt>
<totfact> 0.28250174E+02</totfact>
</mgrwt>
</event>
<event>
 5    0  0.4115852E+000  0.2979487E+03  0.7546771E-02  0.1086271E+00
         21   -1    0    0  501  502  0.00000000000E+00  0.00000000000E+00  0.17252216242E+03  0.17252216242E+03  0.00000000000E+00 0. -1.
         -2   -1    0    0    0  501 -0.00000000000E+00 -0.00000000000E+00 -0.59965101684E+03  0.59965101684E+03  0.00000000000E+00 0.  1.
         25    1    1    2    0    0 -0.28460541621E+03  0.51853424455E+01 -0.14369589871E+03  0.34249181307E+03  0.12500000000E+03 0.  0.
         21    1    1    2  503  502  0.21323345281E+02  0.35000049856E+01  0.18883751318E+02  0.28697232492E+02  0.00000000000E+00 0. -1.
         -2    1    1    2    0  503  0.26328207093E+03 -0.86853474311E+01 -0.30231670703E+03  0.40098413370E+03  0.00000000000E+00 0.  1.
<mgrwt>
<rscale>  4 0.29794867E+03</rscale>
<asrwt>0</asrwt>
<pdfrwt beam="1">  1       21 0.26541871E-01 0.29794867E+03</pdfrwt>
<pdfrwt beam="2">  1       -2 0.92254003E-01 0.29794867E+03</pdfrwt>
<totfact> 0.11144572E+03</totfact>
</mgrwt>
</event>
<event>
 5    0  0.4115852E+000  0.2833855E+03  0.7546771E-02  0.1093854E+00
         21   -1    0    0  503  502  0.00000000000E+00  0.00000000000E+00  0.15427392943E+03  0.15427392943E+03  0.00000000000E+00 0. -1.
          1   -1    0    0  502    0 -0.00000000000E+00 -0.00000000000E+00 -0.48239518100E+03  0.48239518100E+03  0.00000000000E+00 0. -1.
         25    1    1    2    0    0  0.23039682059E+02  0.25328147640E+03 -0.14697055292E+03  0.31922981794E+03  0.12500000000E+03 0.  0.
         21    1    1    2  503  501 -0.43424419349E+01 -0.23050240603E+02  0.68562036418E+00  0.23465729673E+02  0.00000000000E+00 0. -1.
          1    1    1    2  501    0 -0.18697240124E+02 -0.23023123579E+03 -0.18183631901E+03  0.29397356281E+03  0.00000000000E+00 0. -1.
<mgrwt>
<rscale>  4 0.28338549E+03</rscale>
<asrwt>0</asrwt>
<pdfrwt beam="1">  1       21 0.23734451E-01 0.28338549E+03</pdfrwt>
<pdfrwt beam="2">  1        1 0.74214643E-01 0.28338549E+03</pdfrwt>
<totfact> 0.85763876E+03</totfact>
</mgrwt>
</event>
<event>
 5    0  0.4115852E+000  0.3425442E+03  0.7546771E-02  0.1065717E+00
         21   -1    0    0  501  502  0.00000000000E+00  0.00000000000E+00  0.20563563429E+03  0.20563563429E+03  0.00000000000E+00 0. -1.
         -1   -1    0    0    0  501 -0.00000000000E+00 -0.00000000000E+00 -0.86360081980E+03  0.86360081980E+03  0.00000000000E+00 0. -1.
         25    1    1    2    0    0 -0.28381658511E+02 -0.30396776504E+03 -0.47598332653E+03  0.57912610704E+03  0.12500000000E+03 0.  0.
         21    1    1    2  503  502 -0.28303144707E+01 -0.36941001834E+02  0.60258973118E+02  0.70737487499E+02  0.00000000000E+00 0.  1.
         -1    1    1    2    0  503  0.31211972982E+02  0.34090876687E+03 -0.24224083210E+03  0.41937285955E+03  0.00000000000E+00 0. -1.
<mgrwt>
<rscale>  4 0.34254419E+03</rscale>
<asrwt>0</asrwt>
<pdfrwt beam="1">  1       21 0.31636251E-01 0.34254419E+03</pdfrwt>
<pdfrwt beam="2">  1       -1 0.13286166E+00 0.34254419E+03</pdfrwt>
<totfact> 0.44211115E+02</totfact>
</mgrwt>
</event>
<event>
 5    0  0.4115852E+000  0.1833189E+03  0.7546771E-02  0.1164629E+00
         21   -1    0    0  503  502  0.00000000000E+00  0.00000000000E+00  0.33650600994E+02  0.33650600994E+02  0.00000000000E+00 0.  1.
          2   -1    0    0  502    0 -0.00000000000E+00 -0.00000000000E+00 -0.29428162121E+04  0.29428162121E+04  0.00000000000E+00 0. -1.
         25    1    1    2    0    0 -0.18470332678E+02 -0.20309971191E+03 -0.18590679640E+04  0.18743930593E+04  0.12500000000E+03 0.  0.
         21    1    1    2  503  501  0.26055081781E+02  0.12521927532E+03 -0.14398497879E+03  0.19258870246E+03  0.00000000000E+00 0.  1.
          2    1    1    2  501    0 -0.75847491034E+01  0.77880436589E+02 -0.90611266833E+03  0.90948505129E+03  0.00000000000E+00 0. -1.
<mgrwt>
<rscale>  4 0.18331895E+03</rscale>
<asrwt>0</asrwt>
<pdfrwt beam="1">  1       21 0.51770151E-02 0.18331895E+03</pdfrwt>
<pdfrwt beam="2">  1        2 0.45274100E+00 0.18331895E+03</pdfrwt>
<totfact> 0.75602685E+03</totfact>
</mgrwt>
</event>
<event>
 5    0  0.4115852E+000  0.2495341E+03  0.7546771E-02  0.1113600E+00
          2   -1    0    0  502    0 -0.00000000000E+00  0.00000000000E+00  0.34727448251E+03  0.34727448251E+03  0.00000000000E+00 0. -1.
         21   -1    0    0  503  502  0.00000000000E+00 -0.00000000000E+00 -0.36565125052E+03  0.36565125052E+03  0.00000000000E+00 0. -1.
         25    1    1    2    0    0  0.75853112240E+02 -0.29081998732E+03  0.23944124122E+02  0.32638670430E+03  0.12500000000E+03 0.  0.
         21    1    1    2  503  501 -0.85289294431E+02  0.17312737628E+03 -0.13576539058E+03  0.23596523779E+03  0.00000000000E+00 0. -1.
          2    1    1    2  501    0  0.94361821907E+01  0.11769261104E+03  0.93444498455E+02  0.15057379094E+03  0.00000000000E+00 0. -1.
<mgrwt>
<rscale>  4 0.24953406E+03</rscale>
<asrwt>0</asrwt>
<pdfrwt beam="1">  1       21 0.56254038E-01 0.24953406E+03</pdfrwt>
<pdfrwt beam="2">  1        2 0.53426844E-01 0.24953406E+03</pdfrwt>
<totfact> 0.33824172E+03</totfact>
</mgrwt>
</event>
<event>
 5    0  0.4115852E+000  0.2545244E+03  0.7546771E-02  0.1110478E+00
          2   -1    0    0  502    0 -0.00000000000E+00  0.00000000000E+00  0.11593838352E+04  0.11593838352E+04  0.00000000000E+00 0. -1.
         21   -1    0    0  503  502  0.00000000000E+00 -0.00000000000E+00 -0.20528322931E+03  0.20528322931E+03  0.00000000000E+00 0.  1.
         25    1    1    2    0    0 -0.16777925291E+03  0.11820570965E+03  0.27624175638E+02  0.24188956691E+03  0.12500000000E+03 0.  0.
         21    1    1    2  503  501 -0.26697400167E+02 -0.76654960744E+01 -0.83669326131E+02  0.88159328156E+02  0.00000000000E+00 0.  1.
          2    1    1    2  501    0  0.19447665307E+03 -0.11054021358E+03  0.10101457564E+04  0.10346181694E+04  0.00000000000E+00 0. -1.
<mgrwt>
<rscale>  4 0.25452444E+03</rscale>
<asrwt>0</asrwt>
<pdfrwt beam="1">  1       21 0.31582036E-01 0.25452444E+03</pdfrwt>
<pdfrwt beam="2">  1        2 0.17836674E+00 0.25452444E+03</pdfrwt>
<totfact> 0.25244663E+03</totfact>
</mgrwt>
</event>
<event>
 5    0  0.4115852E+000  0.2169219E+03  0.7546771E-02  0.1136199E+00
         21   -1    0    0  501  502  0.00000000000E+00  0.00000000000E+00  0.15674572418E+04  0.15674572418E+04  0.00000000000E+00 0. -1.
         -3   -1    0    0    0  501 -0.00000000000E+00 -0.00000000000E+00 -0.17414025728E+04  0.17414025728E+04  0.00000000000E+00 0. -1.
         25    1    1    2    0    0 -0.56430117223E+02  0.20050943603E+03  0.41455147104E+03  0.48048549843E+03  0.12500000000E+03 0.  0.
         21    1    1    2  503  502  0.24425121047E+02 -0.26450664582E+02  0.11150641828E+04  0.11156452644E+04  0.00000000000E+00 0. -1.
         -3    1    1    2    0  503  0.32004996177E+02 -0.17405877145E+03 -0.17035609849E+04  0.17127290518E+04  0.00000000000E+00 0. -1.
<mgrwt>
<rscale>  4 0.21692193E+03</rscale>
<asrwt>0</asrwt>
<pdfrwt beam="1">  1       21 0.24114727E+00 0.21692193E+03</pdfrwt>
<pdfrwt beam="2">  1       -3 0.26790809E+00 0.21692193E+03</pdfrwt>
<totfact> 0.23743848E-01</totfact>
</mgrwt>
</event>
<event>
 5    0  0.4115852E+000  0.2991647E+03  0.7546771E-02  0.1085659E+00
         21   -1    0    0  503  502  0.00000000000E+00  0.00000000000E+00  0.45228869243E+03  0.45228869243E+03  0.00000000000E+00 0. -1.
          2   -1    0    0  502    0 -0.00000000000E+00 -0.00000000000E+00 -0.48177655200E+03  0.48177655200E+03  0.00000000000E+00 0.  1.
         25    1    1    2    0    0  0.78079178233E+02  0.23179652133E+03  0.26464492502E+02  0.27595534917E+03  0.12500000000E+03 0.  0.
         21    1    1    2  503  501  0.17564234561E+02  0.33344024316E+02  0.24377380827E+03  0.24666981147E+03  0.00000000000E+00 0. -1.
          2    1    1    2  501    0 -0.95643412794E+02 -0.26514054564E+03 -0.29972616035E+03  0.41144008379E+03  0.00000000000E+00 0.  1.
<mgrwt>
<rscale>  4 0.29916468E+03</rscale>
<asrwt>0</asrwt>
<pdfrwt beam="1">  1       21 0.69582877E-01 0.29916468E+03</pdfrwt>
<pdfrwt beam="2">  1        2 0.74119469E-01 0.29916468E+03</pdfrwt>
<totfact> 0.14616945E+03</totfact>
</mgrwt>
</event>
<event>
 5    0  0.4115852E+000  0.3609313E+03  0.7546771E-02  0.1058216E+00
          2   -1    0    0  502    0 -0.00000000000E+00  0.00000000000E+00  0.13775547672E+04  0.13775547672E+04  0.00000000000E+00 0.  1.
         21   -1    0    0  503  502  0.00000000000E+00 -0.00000000000E+00 -0.12615196164E+04  0.12615196164E+04  0.00000000000E+00 0. -1.
         25    1    1    2    0    0  0.29587524779E+03 -0.11519834268E+03 -0.11489577395E+04  0.11985581787E+04  0.12500000000E+03 0.  0.
         21    1    1    2  503  501  0.22047703382E+02 -0.24060896372E+01 -0.64647769566E+02  0.68346357633E+02  0.00000000000E+00 0. -1.
          2    1    1    2  501    0 -0.31792295117E+03  0.11760443232E+03  0.13296406599E+04  0.13721698473E+04  0.00000000000E+00 0.  1.
<mgrwt>
<rscale>  4 0.36093134E+03</rscale>
<asrwt>0</asrwt>
<pdfrwt beam="1">  1       21 0.19407994E+00 0.36093134E+03</pdfrwt>
<pdfrwt beam="2">  1        2 0.21193150E+00 0.36093134E+03</pdfrwt>
<totfact> 0.25814746E+01</totfact>
</mgrwt>
</event>
<event>
 5    0  0.4115852E+000  0.3139692E+03  0.7546771E-02  0.1078459E+00
         21   -1    0    0  501  502  0.00000000000E+00  0.00000000000E+00  0.11900475081E+04  0.11900475081E+04  0.00000000000E+00 0.  1.
         -2   -1    0    0    0  501 -0.00000000000E+00 -0.00000000000E+00 -0.12300292030E+03  0.12300292030E+03  0.00000000000E+00 0.  1.
         25    1    1    2    0    0 -0.29220461393E+03  0.36667642874E+02  0.55924132349E+03  0.64428558135E+03  0.12500000000E+03 0.  0.
         21    1    1    2  503  502  0.28443749557E+03  0.27343963849E+02  0.52870247299E+03  0.60098143581E+03  0.00000000000E+00 0.  1.
         -2    1    1    2    0  503  0.77671183665E+01 -0.64011606722E+02 -0.20899208633E+02  0.67783411277E+02  0.00000000000E+00 0.  1.
<mgrwt>
<rscale>  4 0.31396924E+03</rscale>
<asrwt>0</asrwt>
<pdfrwt beam="1">  1       21 0.18308422E+00 0.31396924E+03</pdfrwt>
<pdfrwt beam="2">  1       -2 0.18923527E-01 0.31396924E+03</pdfrwt>
<totfact> 0.29876984E+02</totfact>
</mgrwt>
</event>
<event>
 5    0  0.4115852E+000  0.4396723E+03  0.7546771E-02  0.1030847E+00
          2   -1    0    0  502    0 -0.00000000000E+00  0.00000000000E+00  0.23047076213E+04  0.23047076213E+04  0.00000000000E+00 0.  1.
         21   -1    0    0  503  502  0.00000000000E+00 -0.00000000000E+00 -0.37254690183E+03  0.37254690183E+03  0.00000000000E+00 0. -1.
         25    1    1    2    0    0  0.33056979993E+03 -0.35452044727E+03 -0.13410700658E+03  0.51823819752E+03  0.12500000000E+03 0.  0.
         21    1    1    2  503  501 -0.27899708986E+02  0.66970958802E+02  0.26934210114E+02  0.77388337357E+02  0.00000000000E+00 0. -1.
          2    1    1    2  501    0 -0.30267009094E+03  0.28754948847E+03  0.20393335159E+04  0.20816279883E+04  0.00000000000E+00 0.  1.
<mgrwt>
<rscale>  4 0.43967234E+03</rscale>
<asrwt>0</asrwt>
<pdfrwt beam="1">  1       21 0.57314909E-01 0.43967234E+03</pdfrwt>
<pdfrwt beam="2">  1        2 0.35457039E+00 0.43967234E+03</pdfrwt>
<totfact> 0.16409985E+02</totfact>
</mgrwt>
</event>
<event>
 5    0  0.4115852E+000  0.4434883E+03  0.7546771E-02  0.1029682E+00
         21   -1    0    0  503  502  0.00000000000E+00  0.00000000000E+00  0.13004434288E+03  0.13004434288E+03  0.00000000000E+00 0.  1.
          1   -1    0    0  502    0 -0.00000000000E+00 -0.00000000000E+00 -0.24887562012E+04  0.24887562012E+04  0.00000000000E+00 0.  1.
         25    1    1    2    0    0 -0.17395187835E+03  0.40376093458E+03 -0.11592877745E+04  0.12461361452E+04  0.12500000000E+03 0.  0.
         21    1    1    2  503  501  0.28679354613E+01 -0.26065517229E+02  0.49878279903E+02  0.56351389054E+02  0.00000000000E+00 0. -1.
          1    1    1    2  501    0  0.17108394289E+03 -0.37769541735E+03 -0.12493023637E+04  0.13163130098E+04  0.00000000000E+00 0.  1.
<mgrwt>
<rscale>  4 0.44348829E+03</rscale>
<asrwt>0</asrwt>
<pdfrwt beam="1">  1       21 0.20006824E-01 0.44348829E+03</pdfrwt>
<pdfrwt beam="2">  1        1 0.38288553E+00 0.44348829E+03</pdfrwt>
<totfact> 0.37804584E+02</totfact>
</mgrwt>
</event>
<event>
 5    0  0.4115852E+000  0.2762639E+03  0.7546771E-02  0.1097747E+00
         21   -1    0    0  503  502  0.00000000000E+00  0.00000000000E+00  0.94876644477E+02  0.94876644477E+02  0.00000000000E+00 0.  1.
          1   -1    0    0  502    0 -0.00000000000E+00 -0.00000000000E+00 -0.12643907944E+04  0.12643907944E+04  0.00000000000E+00 0.  1.
         25    1    1    2    0    0  0.21599965569E+03  0.48998611200E+02 -0.16240872702E+03  0.30175869460E+03  0.12500000000E+03 0.  0.
         21    1    1    2  503  501  0.15620919609E+02  0.53618174765E+02 -0.88813049331E+02  0.10491272337E+03  0.00000000000E+00 0.  1.
          1    1    1    2  501    0 -0.23162057530E+03 -0.10261678596E+03 -0.91829237361E+03  0.95259602093E+03  0.00000000000E+00 0.  1.
<mgrwt>
<rscale>  4 0.27626394E+03</rscale>
<asrwt>0</asrwt>
<pdfrwt beam="1">  1       21 0.14596408E-01 0.27626394E+03</pdfrwt>
<pdfrwt beam="2">  1        1 0.19452164E+00 0.27626394E+03</pdfrwt>
<totfact> 0.46728885E+03</totfact>
</mgrwt>
</event>
<event>
 5    0  0.4115852E+000  0.2662442E+03  0.7546771E-02  0.1103449E+00
          2   -1    0    0  502    0 -0.00000000000E+00  0.00000000000E+00  0.11958865795E+04  0.11958865795E+04  0.00000000000E+00 0.  1.
         21   -1    0    0  503  502  0.00000000000E+00 -0.00000000000E+00 -0.74232421563E+03  0.74232421563E+03  0.00000000000E+00 0.  1.
         25    1    1    2    0    0 -0.20914257701E+03 -0.37448462236E+02 -0.25981639942E+03  0.35815159675E+03  0.12500000000E+03 0.  0.
         21    1    1    2  503  501  0.26704068659E+01 -0.77705991018E+02 -0.41752803404E+03  0.42470579384E+03  0.00000000000E+00 0.  1.
          2    1    1    2  501    0  0.20647217015E+03  0.11515445325E+03  0.11309067973E+04  0.11553534046E+04  0.00000000000E+00 0.  1.
<mgrwt>
<rscale>  4 0.26624423E+03</rscale>
<asrwt>0</asrwt>
<pdfrwt beam="1">  1       21 0.11420373E+00 0.26624423E+03</pdfrwt>
<pdfrwt beam="2">  1        2 0.18398255E+00 0.26624423E+03</pdfrwt>
<totfact> 0.14470786E+02</totfact>
</mgrwt>
</event>
<event>
 5    0  0.4115852E+000  0.2036064E+03  0.7546771E-02  0.1146731E+00
         21   -1    0    0  503  502  0.00000000000E+00  0.00000000000E+00  0.52557441617E+02  0.52557441617E+02  0.00000000000E+00 0.  1.
          2   -1    0    0  502    0 -0.00000000000E+00 -0.00000000000E+00 -0.36142562836E+04  0.36142562836E+04  0.00000000000E+00 0. -1.
         25    1    1    2    0    0  0.14864180672E+03  0.14495823112E+03 -0.93744452954E+03  0.96826366319E+03  0.12500000000E+03 0.  0.
         21    1    1    2  503  501 -0.12941268591E+02 -0.70634697275E+02 -0.21062880395E+01  0.71841306650E+02  0.00000000000E+00 0.  1.
          2    1    1    2  501    0 -0.13570053813E+03 -0.74323533844E+02 -0.26221480244E+04  0.26267087554E+04  0.00000000000E+00 0. -1.
<mgrwt>
<rscale>  4 0.20360637E+03</rscale>
<asrwt>0</asrwt>
<pdfrwt beam="1">  1       21 0.80857609E-02 0.20360637E+03</pdfrwt>
<pdfrwt beam="2">  1        2 0.55603938E+00 0.20360637E+03</pdfrwt>
<totfact> 0.13216730E+03</totfact>
</mgrwt>
</event>
<event>
 5    0  0.4115852E+000  0.4409492E+03  0.7546771E-02  0.1030456E+00
         21   -1    0    0  503  502  0.00000000000E+00  0.00000000000E+00  0.42043070914E+03  0.42043070914E+03  0.00000000000E+00 0. -1.
          2   -1    0    0  502    0 -0.00000000000E+00 -0.00000000000E+00 -0.66358993115E+03  0.66358993115E+03  0.00000000000E+00 0.  1.
         25    1    1    2    0    0  0.19336385593E+03  0.42746166826E+03 -0.14454776375E+03  0.50658870360E+03  0.12500000000E+03 0.  0.
         21    1    1    2  503  501 -0.30931125846E+02 -0.70019636867E+02  0.10908416630E+03  0.13326229560E+03  0.00000000000E+00 0. -1.
          2    1    1    2  501    0 -0.16243273008E+03 -0.35744203139E+03 -0.20769562456E+03  0.44416964109E+03  0.00000000000E+00 0.  1.
<mgrwt>
<rscale>  4 0.44094921E+03</rscale>
<asrwt>0</asrwt>
<pdfrwt beam="1">  1       21 0.64681648E-01 0.44094921E+03</pdfrwt>
<pdfrwt beam="2">  1        2 0.10209076E+00 0.44094921E+03</pdfrwt>
<totfact> 0.11388006E+03</totfact>
</mgrwt>
</event>
<event>
 5    0  0.4115852E+000  0.3660111E+03  0.7546771E-02  0.1056229E+00
         21   -1    0    0  501  502  0.00000000000E+00  0.00000000000E+00  0.40041257344E+03  0.40041257344E+03  0.00000000000E+00 0.  1.
         -1   -1    0    0    0  501 -0.00000000000E+00 -0.00000000000E+00 -0.40111456556E+03  0.40111456556E+03  0.00000000000E+00 0.  1.
         25    1    1    2    0    0  0.19825477769E+03  0.23464592131E+03  0.96834965375E+02  0.34549338023E+03  0.12500000000E+03 0.  0.
         21    1    1    2  503  502  0.36514213643E+01  0.73167199568E+02  0.63475880515E+01  0.73532739951E+02  0.00000000000E+00 0.  1.
         -1    1    1    2    0  503 -0.20190619905E+03 -0.30781312088E+03 -0.10388454554E+03  0.38250101882E+03  0.00000000000E+00 0.  1.
<mgrwt>
<rscale>  4 0.36601114E+03</rscale>
<asrwt>0</asrwt>
<pdfrwt beam="1">  1       21 0.61601934E-01 0.36601114E+03</pdfrwt>
<pdfrwt beam="2">  1       -1 0.61709933E-01 0.36601114E+03</pdfrwt>
<totfact> 0.58903578E+02</totfact>
</mgrwt>
</event>
<event>
 5    0  0.4115852E+000  0.3544912E+03  0.7546771E-02  0.1060787E+00
          1   -1    0    0  502    0 -0.00000000000E+00  0.00000000000E+00  0.89898913251E+03  0.89898913251E+03  0.00000000000E+00 0.  1.
         21   -1    0    0  503  502  0.00000000000E+00 -0.00000000000E+00 -0.65540180625E+03  0.65540180625E+03  0.00000000000E+00 0. -1.
         25    1    1    2    0    0  0.30807198683E+03  0.18821314795E+01 -0.42011683973E+03  0.53575652167E+03  0.12500000000E+03 0.  0.
         21    1    1    2  503  501  0.23528935091E+02 -0.37332020076E+02 -0.14090385570E+03  0.14765225045E+03  0.00000000000E+00 0. -1.
          1    1    1    2  501    0 -0.33160092192E+03  0.35449888596E+02  0.80460802170E+03  0.87098216664E+03  0.00000000000E+00 0.  1.
<mgrwt>
<rscale>  4 0.35449122E+03</rscale>
<asrwt>0</asrwt>
<pdfrwt beam="1">  1       21 0.10083105E+00 0.35449122E+03</pdfrwt>
<pdfrwt beam="2">  1        1 0.13830602E+00 0.35449122E+03</pdfrwt>
<totfact> 0.15681139E+02</totfact>
</mgrwt>
</event>
<event>
 5    0  0.4115852E+000  0.2323218E+03  0.7546771E-02  0.1125016E+00
         21   -1    0    0  503  502  0.00000000000E+00  0.00000000000E+00  0.23432718226E+04  0.23432718226E+04  0.00000000000E+00 0. -1.
          3   -1    0    0  502    0 -0.00000000000E+00 -0.00000000000E+00 -0.10384875511E+03  0.10384875511E+03  0.00000000000E+00 0. -1.
         25    1    1    2    0    0  0.33615422767E+02 -0.22097517402E+03  0.19441828489E+04  0.19609773008E+04  0.12500000000E+03 0.  0.
         21    1    1    2  503  501 -0.11243220843E+02  0.27847704619E+02  0.29010623917E+03  0.29165653545E+03  0.00000000000E+00 0. -1.
          3    1    1    2  501    0 -0.22372201924E+02  0.19312746941E+03  0.51339793896E+01  0.19448674146E+03  0.00000000000E+00 0. -1.
<mgrwt>
<rscale>  4 0.23232182E+03</rscale>
<asrwt>0</asrwt>
<pdfrwt beam="1">  1       21 0.36050332E+00 0.23232182E+03</pdfrwt>
<pdfrwt beam="2">  1        3 0.15976733E-01 0.23232182E+03</pdfrwt>
<totfact> 0.23849827E+01</totfact>
</mgrwt>
</event>
<event>
 5    0  0.4115852E+000  0.2565593E+03  0.7546771E-02  0.1109228E+00
          2   -1    0    0  502    0 -0.00000000000E+00  0.00000000000E+00  0.28863385705E+04  0.28863385705E+04  0.00000000000E+00 0.  1.
         21   -1    0    0  503  502  0.00000000000E+00 -0.00000000000E+00 -0.70479261323E+02  0.70479261323E+02  0.00000000000E+00 0.  1.
         25    1    1    2    0    0  0.63084952224E+02 -0.21162160423E+03  0.28270129081E+03  0.37987949984E+03  0.12500000000E+03 0.  0.
         21    1    1    2  503  501  0.24931846789E+02  0.50865569954E+01 -0.73844527165E+01  0.26495286152E+02  0.00000000000E+00 0. -1.
          2    1    1    2  501    0 -0.88016799013E+02  0.20653504723E+03  0.25405424711E+04  0.25504430458E+04  0.00000000000E+00 0.  1.
<mgrwt>
<rscale>  4 0.25655933E+03</rscale>
<asrwt>0</asrwt>
<pdfrwt beam="1">  1       21 0.10842965E-01 0.25655933E+03</pdfrwt>
<pdfrwt beam="2">  1        2 0.44405200E+00 0.25655933E+03</pdfrwt>
<totfact> 0.21618783E+03</totfact>
</mgrwt>
</event>
<event>
 5    0  0.4115852E+000  0.2708604E+03  0.7546771E-02  0.1100788E+00
         21   -1    0    0  503  502  0.00000000000E+00  0.00000000000E+00  0.20153763052E+03  0.20153763052E+03  0.00000000000E+00 0.  1.
          2   -1    0    0  502    0 -0.00000000000E+00 -0.00000000000E+00 -0.21060894980E+04  0.21060894980E+04  0.00000000000E+00 0.  1.
         25    1    1    2    0    0  0.58931908243E+02  0.21551080249E+03 -0.45406982272E+03  0.52126987224E+03  0.12500000000E+03 0.  0.
         21    1    1    2  503  501  0.83951080131E+01  0.20005661092E+02  0.15792324761E+03  0.15940657593E+03  0.00000000000E+00 0.  1.
          2    1    1    2  501    0 -0.67327016256E+02 -0.23551646358E+03 -0.16084052924E+04  0.16269506804E+04  0.00000000000E+00 0.  1.
<mgrwt>
<rscale>  4 0.27086037E+03</rscale>
<asrwt>0</asrwt>
<pdfrwt beam="1">  1       21 0.31005789E-01 0.27086037E+03</pdfrwt>
<pdfrwt beam="2">  1        2 0.32401377E+00 0.27086037E+03</pdfrwt>
<totfact> 0.80687712E+02</totfact>
</mgrwt>
</event>
<event>
 5    0  0.4115852E+000  0.2676987E+03  0.7546771E-02  0.1102604E+00
         21   -1    0    0  503  502  0.00000000000E+00  0.00000000000E+00  0.73525125571E+03  0.73525125571E+03  0.00000000000E+00 0. -1.
          2   -1    0    0  502    0 -0.00000000000E+00 -0.00000000000E+00 -0.19630328077E+04  0.19630328077E+04  0.00000000000E+00 0.  1.
         25    1    1    2    0    0  0.63639319427E+02 -0.22677084282E+03  0.65618897514E+03  0.70829651222E+03  0.12500000000E+03 0.  0.
         21    1    1    2  503  501 -0.22761867095E+02 -0.64210909063E+01  0.42707351102E+02  0.48818550165E+02  0.00000000000E+00 0. -1.
          2    1    1    2  501    0 -0.40877452332E+02  0.23319193373E+03 -0.19266778782E+04  0.19411690010E+04  0.00000000000E+00 0.  1.
<mgrwt>
<rscale>  4 0.26769869E+03</rscale>
<asrwt>0</asrwt>
<pdfrwt beam="1">  1       21 0.11311558E+00 0.26769869E+03</pdfrwt>
<pdfrwt beam="2">  1        2 0.30200504E+00 0.26769869E+03</pdfrwt>
<totfact> 0.57331923E+01</totfact>
</mgrwt>
</event>
<event>
 5    0  0.4115852E+000  0.1877588E+03  0.7546771E-02  0.1160498E+00
         21   -1    0    0  501  502  0.00000000000E+00  0.00000000000E+00  0.31265582070E+03  0.31265582070E+03  0.00000000000E+00 0. -1.
         -4   -1    0    0    0  501 -0.00000000000E+00 -0.00000000000E+00 -0.14090132492E+04  0.14090132492E+04  0.00000000000E+00 0. -1.
         25    1    1    2    0    0  0.76000496172E+02 -0.19031369565E+03 -0.16153454461E+03  0.28933334974E+03  0.12500000000E+03 0.  0.
         21    1    1    2  503  502 -0.38740238185E+02  0.59339081772E+02  0.23969459003E+03  0.24995085351E+03  0.00000000000E+00 0. -1.
         -4    1    1    2    0  503 -0.37260257986E+02  0.13097461388E+03 -0.11745174739E+04  0.11823848666E+04  0.00000000000E+00 0. -1.
<mgrwt>
<rscale>  4 0.18775883E+03</rscale>
<asrwt>0</asrwt>
<pdfrwt beam="1">  1       21 0.48100896E-01 0.18775883E+03</pdfrwt>
<pdfrwt beam="2">  1       -4 0.21677127E+00 0.18775883E+03</pdfrwt>
<totfact> 0.19914952E+01</totfact>
</mgrwt>
</event>
<event>
 5    0  0.4115852E+000  0.2753709E+03  0.7546771E-02  0.1098244E+00
          3   -1    0    0  502    0 -0.00000000000E+00  0.00000000000E+00  0.34006140579E+03  0.34006140579E+03  0.00000000000E+00 0. -1.
         21   -1    0    0  503  502  0.00000000000E+00 -0.00000000000E+00 -0.45487525283E+03  0.45487525283E+03  0.00000000000E+00 0. -1.
         25    1    1    2    0    0  0.12466856662E+03  0.20954306316E+03  0.21666464209E+03  0.34931234441E+03  0.12500000000E+03 0.  0.
         21    1    1    2  503  501  0.21647012944E+02 -0.35572722899E+01 -0.10191075860E+03  0.10424514412E+03  0.00000000000E+00 0. -1.
          3    1    1    2  501    0 -0.14631557956E+03 -0.20598579087E+03 -0.22956773054E+03  0.34137917009E+03  0.00000000000E+00 0. -1.
<mgrwt>
<rscale>  4 0.27537095E+03</rscale>
<asrwt>0</asrwt>
<pdfrwt beam="1">  1       21 0.69980808E-01 0.27537095E+03</pdfrwt>
<pdfrwt beam="2">  1        3 0.52317140E-01 0.27537095E+03</pdfrwt>
<totfact> 0.32772189E+02</totfact>
</mgrwt>
</event>
<event>
 5    0  0.4115852E+000  0.2262318E+03  0.7546771E-02  0.1129320E+00
          2   -1    0    0  502    0 -0.00000000000E+00  0.00000000000E+00  0.10072260796E+04  0.10072260796E+04  0.00000000000E+00 0.  1.
         21   -1    0    0  503  502  0.00000000000E+00 -0.00000000000E+00 -0.92926898572E+02  0.92926898572E+02  0.00000000000E+00 0.  1.
         25    1    1    2    0    0 -0.64681115735E+02 -0.23342363222E+03  0.46187786607E+03  0.53630812224E+03  0.12500000000E+03 0.  0.
         21    1    1    2  503  501  0.11089829961E+03  0.67811759172E+02  0.77399912897E+02  0.15128652965E+03  0.00000000000E+00 0.  1.
          2    1    1    2  501    0 -0.46217183875E+02  0.16561187305E+03  0.37502140206E+03  0.41255832628E+03  0.00000000000E+00 0.  1.
<mgrwt>
<rscale>  4 0.22623175E+03</rscale>
<asrwt>0</asrwt>
<pdfrwt beam="1">  1       21 0.14296447E-01 0.22623175E+03</pdfrwt>
<pdfrwt beam="2">  1        2 0.15495785E+00 0.22623175E+03</pdfrwt>
<totfact> 0.14026125E+04</totfact>
</mgrwt>
</event>
<event>
 5    0  0.4115852E+000  0.2595446E+03  0.7546771E-02  0.1107417E+00
         21   -1    0    0  503  502  0.00000000000E+00  0.00000000000E+00  0.87358594299E+03  0.87358594299E+03  0.00000000000E+00 0. -1.
          2   -1    0    0  502    0 -0.00000000000E+00 -0.00000000000E+00 -0.16845614054E+03  0.16845614054E+03  0.00000000000E+00 0. -1.
         25    1    1    2    0    0  0.33889085502E+03 -0.42179794776E+02  0.27908788008E+03  0.45841159618E+03  0.12500000000E+03 0.  0.
         21    1    1    2  503  501 -0.17630820520E+03 -0.46100852771E+02  0.32557426910E+03  0.37310652172E+03  0.00000000000E+00 0. -1.
          2    1    1    2  501    0 -0.16258264982E+03  0.88280647547E+02  0.10046765327E+03  0.21052396564E+03  0.00000000000E+00 0. -1.
<mgrwt>
<rscale>  4 0.25954456E+03</rscale>
<asrwt>0</asrwt>
<pdfrwt beam="1">  1       21 0.13439784E+00 0.25954456E+03</pdfrwt>
<pdfrwt beam="2">  1        2 0.25916330E-01 0.25954456E+03</pdfrwt>
<totfact> 0.97604158E+02</totfact>
</mgrwt>
</event>
<event>
 5    0  0.4115852E+000  0.4481376E+03  0.7546771E-02  0.1028279E+00
         21   -1    0    0  503  502  0.00000000000E+00  0.00000000000E+00  0.13261413005E+03  0.13261413005E+03  0.00000000000E+00 0. -1.
          2   -1    0    0  502    0 -0.00000000000E+00 -0.00000000000E+00 -0.38765140255E+04  0.38765140255E+04  0.00000000000E+00 0.  1.
         25    1    1    2    0    0  0.26016516392E+02  0.40771196042E+03 -0.28150854669E+03  0.51164241776E+03  0.12500000000E+03 0.  0.
         21    1    1    2  503  501  0.15113632806E+02  0.23292322770E+02 -0.45718731811E+02  0.53489780660E+02  0.00000000000E+00 0.  1.
          2    1    1    2  501    0 -0.41130149198E+02 -0.43100428319E+03 -0.34166726170E+04  0.34439959572E+04  0.00000000000E+00 0.  1.
<mgrwt>
<rscale>  4 0.44813756E+03</rscale>
<asrwt>0</asrwt>
<pdfrwt beam="1">  1       21 0.20402178E-01 0.44813756E+03</pdfrwt>
<pdfrwt beam="2">  1        2 0.59638665E+00 0.44813756E+03</pdfrwt>
<totfact> 0.13842608E+02</totfact>
</mgrwt>
</event>
<event>
 5    0  0.4115852E+000  0.2800127E+03  0.7546771E-02  0.1095682E+00
         21   -1    0    0  503  502  0.00000000000E+00  0.00000000000E+00  0.36120069586E+03  0.36120069586E+03  0.00000000000E+00 0.  1.
          2   -1    0    0  502    0 -0.00000000000E+00 -0.00000000000E+00 -0.46376226027E+04  0.46376226027E+04  0.00000000000E+00 0. -1.
         25    1    1    2    0    0 -0.27015586819E+03 -0.11401580814E+03  0.26315937497E+03  0.41335415113E+03  0.12500000000E+03 0.  0.
         21    1    1    2  503  501  0.68426979307E+02 -0.33997447997E+02 -0.55558780314E+02  0.94471456204E+02  0.00000000000E+00 0.  1.
          2    1    1    2  501    0  0.20172888889E+03  0.14801325614E+03 -0.44840225015E+04  0.44909976912E+04  0.00000000000E+00 0. -1.
<mgrwt>
<rscale>  4 0.28001270E+03</rscale>
<asrwt>0</asrwt>
<pdfrwt beam="1">  1       21 0.55569339E-01 0.28001270E+03</pdfrwt>
<pdfrwt beam="2">  1        2 0.71348038E+00 0.28001270E+03</pdfrwt>
<totfact> 0.46446341E+00</totfact>
</mgrwt>
</event>
<event>
 5    0  0.4115852E+000  0.3158015E+03  0.7546771E-02  0.1077598E+00
         21   -1    0    0  501  502  0.00000000000E+00  0.00000000000E+00  0.23077052251E+03  0.23077052251E+03  0.00000000000E+00 0.  1.
         -2   -1    0    0    0  501 -0.00000000000E+00 -0.00000000000E+00 -0.62264753163E+03  0.62264753163E+03  0.00000000000E+00 0.  1.
         25    1    1    2    0    0 -0.23623677184E+03  0.11713384134E+03 -0.57879527318E+02  0.29749485514E+03  0.12500000000E+03 0.  0.
         21    1    1    2  503  502 -0.42726035246E+02 -0.23704156123E+01  0.51163405269E+02  0.66699527710E+02  0.00000000000E+00 0.  1.
         -2    1    1    2    0  503  0.27896280708E+03 -0.11476342573E+03 -0.38516088707E+03  0.48922367129E+03  0.00000000000E+00 0.  1.
<mgrwt>
<rscale>  4 0.31580150E+03</rscale>
<asrwt>0</asrwt>
<pdfrwt beam="1">  1       21 0.35503158E-01 0.31580150E+03</pdfrwt>
<pdfrwt beam="2">  1       -2 0.95791927E-01 0.31580150E+03</pdfrwt>
<totfact> 0.57291695E+02</totfact>
</mgrwt>
</event>
<event>
 5    0  0.4115852E+000  0.4033524E+03  0.7546771E-02  0.1042625E+00
         21   -1    0    0  503  502  0.00000000000E+00  0.00000000000E+00  0.21140195706E+03  0.21140195706E+03  0.00000000000E+00 0.  1.
          2   -1    0    0  502    0 -0.00000000000E+00 -0.00000000000E+00 -0.80105199936E+03  0.80105199936E+03  0.00000000000E+00 0. -1.
         25    1    1    2    0    0 -0.34234191835E+03  0.15428815243E+03 -0.28105979562E+03  0.48540955054E+03  0.12500000000E+03 0.  0.
         21    1    1    2  503  501 -0.23880252108E+02 -0.16474931337E+02 -0.49777528095E+00  0.29016160731E+02  0.00000000000E+00 0. -1.
          2    1    1    2  501    0  0.36622217046E+03 -0.13781322109E+03 -0.30809247139E+03  0.49802824515E+03  0.00000000000E+00 0. -1.
<mgrwt>
<rscale>  4 0.40335242E+03</rscale>
<asrwt>0</asrwt>
<pdfrwt beam="1">  1       21 0.32523377E-01 0.40335242E+03</pdfrwt>
<pdfrwt beam="2">  1        2 0.12323877E+00 0.40335242E+03</pdfrwt>
<totfact> 0.38426130E+03</totfact>
</mgrwt>
</event>
<event>
 5    0  0.4115852E+000  0.2634528E+03  0.7546771E-02  0.1105086E+00
         -2   -1    0    0    0  501 -0.00000000000E+00  0.00000000000E+00  0.24515385349E+03  0.24515385349E+03  0.00000000000E+00 0.  1.
         21   -1    0    0  501  502  0.00000000000E+00 -0.00000000000E+00 -0.29881883275E+03  0.29881883275E+03  0.00000000000E+00 0.  1.
         25    1    1    2    0    0  0.70597600544E+02 -0.22090347962E+03 -0.11666342409E+03  0.28812796295E+03  0.12500000000E+03 0.  0.
         21    1    1    2  503  502 -0.28593828131E+02  0.38123570246E+02  0.48099811378E+02  0.67709714739E+02  0.00000000000E+00 0. -1.
         -2    1    1    2    0  503 -0.42003772413E+02  0.18277990937E+03  0.14898633453E+02  0.18813500856E+03  0.00000000000E+00 0.  1.
<mgrwt>
<rscale>  4 0.26345278E+03</rscale>
<asrwt>0</asrwt>
<pdfrwt beam="1">  1       21 0.45972128E-01 0.26345278E+03</pdfrwt>
<pdfrwt beam="2">  1       -2 0.37715978E-01 0.26345278E+03</pdfrwt>
<totfact> 0.23970547E+03</totfact>
</mgrwt>
</event>
