<event>
 5    0  0.1911311E+001  0.2187947E+03  0.7546771E-02  0.1134785E+00
         21   -1    0    0  504  501  0.00000000000E+00  0.00000000000E+00  0.68754795592E+03  0.68754795592E+03  0.00000000000E+00 0. -1.
         21   -1    0    0  503  502 -0.00000000000E+00 -0.00000000000E+00 -0.40665057648E+03  0.40665057648E+03  0.00000000000E+00 0. -1.
         25    1    1    2    0    0  0.21114325638E+03  0.68167779757E+02 -0.30687359782E+03  0.39877904402E+03  0.12500000000E+03 0.  0.
         21    1    1    2  503  501 -0.11529384867E+03 -0.16973651116E+02  0.21109314186E+02  0.11843301701E+03  0.00000000000E+00 0. -1.
         21    1    1    2  504  502 -0.95849407711E+02 -0.51194128642E+02  0.56666166307E+03  0.57698647138E+03  0.00000000000E+00 0. -1.
<mgrwt>
<rscale>  4 0.21879471E+03</rscale>
<asrwt>0</asrwt>
<pdfrwt beam="1">  1       21 0.10577661E+00 0.21879471E+03</pdfrwt>
<pdfrwt beam="2">  1       21 0.62561627E-01 0.21879471E+03</pdfrwt>
<totfact> 0.16600413E+03</totfact>
</mgrwt>
</event>
<event>
 5    0  0.1911311E+001  0.2436675E+03  0.7546771E-02  0.1117374E+00
         21   -1    0    0  503  501  0.00000000000E+00  0.00000000000E+00  0.16133452036E+03  0.16133452036E+03  0.00000000000E+00 0.  1.
         21   -1    0    0  504  502 -0.00000000000E+00 -0.00000000000E+00 -0.95965937751E+03  0.95965937751E+03  0.00000000000E+00 0.  1.
         25    1    1    2    0    0 -0.88207869447E+02 -0.18455393025E+03 -0.62001907206E+03  0.66474764469E+03  0.12500000000E+03 0.  0.
         21    1    1    2  503  502  0.26349133039E+02 -0.16107821397E+02 -0.23637560821E+03  0.23838449379E+03  0.00000000000E+00 0. -1.
         21    1    1    2  504  501  0.61858736408E+02  0.20066175165E+03  0.58069823124E+02  0.21786175938E+03  0.00000000000E+00 0.  1.
<mgrwt>
<rscale>  4 0.24366746E+03</rscale>
<asrwt>0</asrwt>
<pdfrwt beam="1">  1       21 0.24820695E-01 0.24366746E+03</pdfrwt>
<pdfrwt beam="2">  1       21 0.14763990E+00 0.24366746E+03</pdfrwt>
<totfact> 0.45998458E+03</totfact>
</mgrwt>
</event>
<event>
 5    0  0.1911311E+001  0.2347538E+03  0.7546771E-02  0.1123338E+00
         21   -1    0    0  502  501  0.00000000000E+00  0.00000000000E+00  0.20738693239E+03  0.20738693239E+03  0.00000000000E+00 0.  1.
         21   -1    0    0  504  502 -0.00000000000E+00 -0.00000000000E+00 -0.30306830065E+03  0.30306830065E+03  0.00000000000E+00 0.  1.
         25    1    1    2    0    0  0.69362149269E+02  0.19292404780E+03  0.48548034028E+02  0.24497491214E+03  0.12500000000E+03 0.  0.
         21    1    1    2  503  501 -0.51856932556E+02 -0.18192157965E+03 -0.94154189407E+02  0.21130455267E+03  0.00000000000E+00 0.  1.
         21    1    1    2  504  503 -0.17505216713E+02 -0.11002468144E+02 -0.50075212885E+02  0.54175768226E+02  0.00000000000E+00 0. -1.
<mgrwt>
<rscale>  4 0.23475380E+03</rscale>
<asrwt>0</asrwt>
<pdfrwt beam="1">  1       21 0.31905682E-01 0.23475380E+03</pdfrwt>
<pdfrwt beam="2">  1       21 0.46625892E-01 0.23475380E+03</pdfrwt>
<totfact> 0.40774312E+04</totfact>
</mgrwt>
</event>
