<event>
 5    0  0.3275920E+000  0.3865206E+03  0.7546771E-02  0.1048550E+00
         21   -1    0    0  501  502  0.00000000000E+00  0.00000000000E+00  0.77919644464E+02  0.77919644464E+02  0.00000000000E+00 0.  1.
          2   -1    0    0  503    0 -0.00000000000E+00 -0.00000000000E+00 -0.26102438541E+04  0.26102438541E+04  0.00000000000E+00 0.  1.
         25    1    1    2    0    0 -0.41202114660E+02 -0.33482757342E+03 -0.14993599558E+04  0.15419184140E+04  0.12500000000E+03 0.  0.
         21    1    1    2  503  502  0.62439105122E+01 -0.41315451164E+02 -0.44774996430E+03  0.44969543410E+03  0.00000000000E+00 0.  1.
          2    1    1    2  501    0  0.34958204148E+02  0.37614302458E+03 -0.58521428956E+03  0.69654965055E+03  0.00000000000E+00 0.  1.
<mgrwt>
<rscale>  4 0.38652060E+03</rscale>
<asrwt>0</asrwt>
<pdfrwt beam="1">  1       21 0.11987639E-01 0.38652060E+03</pdfrwt>
<pdfrwt beam="2">  1        2 0.40157593E+00 0.38652060E+03</pdfrwt>
<totfact> 0.24582710E+03</totfact>
</mgrwt>
</event>
<event>
 5    0  0.3275920E+000  0.3707375E+03  0.7546771E-02  0.1054411E+00
         21   -1    0    0  501  502  0.00000000000E+00  0.00000000000E+00  0.26251195755E+03  0.26251195755E+03  0.00000000000E+00 0. -1.
          2   -1    0    0  503    0 -0.00000000000E+00 -0.00000000000E+00 -0.73289466357E+03  0.73289466357E+03  0.00000000000E+00 0. -1.
         25    1    1    2    0    0 -0.78111559668E+02  0.34234170892E+03  0.14366589024E+02  0.37300222559E+03  0.12500000000E+03 0.  0.
         21    1    1    2  503  502 -0.17216075971E+02 -0.11521789362E+02 -0.11633131165E+03  0.11816141067E+03  0.00000000000E+00 0.  1.
          2    1    1    2  501    0  0.95327635640E+02 -0.33081991955E+03 -0.36841798339E+03  0.50424298486E+03  0.00000000000E+00 0. -1.
<mgrwt>
<rscale>  4 0.37073752E+03</rscale>
<asrwt>0</asrwt>
<pdfrwt beam="1">  1       21 0.40386455E-01 0.37073752E+03</pdfrwt>
<pdfrwt beam="2">  1        2 0.11275303E+00 0.37073752E+03</pdfrwt>
<totfact> 0.27945509E+03</totfact>
</mgrwt>
</event>
<event>
 5    0  0.3275920E+000  0.3040512E+03  0.7546771E-02  0.1083233E+00
          1   -1    0    0  503    0 -0.00000000000E+00  0.00000000000E+00  0.30061740103E+04  0.30061740103E+04  0.00000000000E+00 0. -1.
         21   -1    0    0  501  502  0.00000000000E+00 -0.00000000000E+00 -0.35124184966E+02  0.35124184966E+02  0.00000000000E+00 0. -1.
         25    1    1    2    0    0 -0.25423046830E+03  0.18207311246E+01  0.10117982230E+04  0.10507126582E+04  0.12500000000E+03 0.  0.
         21    1    1    2  503  502 -0.35023750584E+02  0.43405702785E+02  0.22591894961E+03  0.23270171880E+03  0.00000000000E+00 0.  1.
          1    1    1    2  501    0  0.28925421888E+03 -0.45226433910E+02  0.17333326527E+04  0.17578838182E+04  0.00000000000E+00 0. -1.
<mgrwt>
<rscale>  4 0.30405118E+03</rscale>
<asrwt>0</asrwt>
<pdfrwt beam="1">  1       21 0.54037232E-02 0.30405118E+03</pdfrwt>
<pdfrwt beam="2">  1        1 0.46248810E+00 0.30405118E+03</pdfrwt>
<totfact> 0.18555447E+03</totfact>
</mgrwt>
</event>
<event>
 5    0  0.3275920E+000  0.2409632E+03  0.7546771E-02  0.1119153E+00
         -4   -1    0    0    0  501 -0.00000000000E+00  0.00000000000E+00  0.81401530038E+03  0.81401530038E+03  0.00000000000E+00 0.  1.
         21   -1    0    0  503  502  0.00000000000E+00 -0.00000000000E+00 -0.14406667923E+03  0.14406667923E+03  0.00000000000E+00 0. -1.
         25    1    1    2    0    0 -0.17855255705E+02  0.20053515959E+03  0.76750112677E+00  0.23697837337E+03  0.12500000000E+03 0.  0.
         21    1    1    2  503  501 -0.25738114521E+01  0.24515724158E+02  0.18675220490E+03  0.18837205544E+03  0.00000000000E+00 0.  1.
         -4    1    1    2    0  502  0.20429067157E+02 -0.22505088375E+03  0.48242891513E+03  0.53273155079E+03  0.00000000000E+00 0.  1.
<mgrwt>
<rscale>  4 0.24096319E+03</rscale>
<asrwt>0</asrwt>
<pdfrwt beam="1">  1       21 0.22164105E-01 0.24096319E+03</pdfrwt>
<pdfrwt beam="2">  1       -4 0.12523312E+00 0.24096319E+03</pdfrwt>
<totfact> 0.39830306E+02</totfact>
</mgrwt>
</event>
<event>
 5    0  0.3275920E+000  0.5793211E+03  0.7546771E-02  0.9949262E-01
         21   -1    0    0  501  502  0.00000000000E+00  0.00000000000E+00  0.11543124387E+04  0.11543124387E+04  0.00000000000E+00 0. -1.
          2   -1    0    0  503    0 -0.00000000000E+00 -0.00000000000E+00 -0.11953321958E+04  0.11953321958E+04  0.00000000000E+00 0.  1.
         25    1    1    2    0    0 -0.19656257617E+03  0.53072898824E+03  0.99212517152E+03  0.11490202180E+04  0.12500000000E+03 0.  0.
         21    1    1    2  503  502  0.44710914783E+02  0.12207537985E+02 -0.10326581426E+03  0.11318974459E+03  0.00000000000E+00 0. -1.
          2    1    1    2  501    0  0.15185166139E+03 -0.54293652622E+03 -0.92987911432E+03  0.10874346720E+04  0.00000000000E+00 0.  1.
<mgrwt>
<rscale>  4 0.57932112E+03</rscale>
<asrwt>0</asrwt>
<pdfrwt beam="1">  1       21 0.17758653E+00 0.57932112E+03</pdfrwt>
<pdfrwt beam="2">  1        2 0.18389726E+00 0.57932112E+03</pdfrwt>
<totfact> 0.38531889E+01</totfact>
</mgrwt>
</event>
<event>
 5    0  0.3275920E+000  0.2565852E+03  0.7546771E-02  0.1109212E+00
         21   -1    0    0  501  502  0.00000000000E+00  0.00000000000E+00  0.12219736141E+03  0.12219736141E+03  0.00000000000E+00 0. -1.
          1   -1    0    0  503    0 -0.00000000000E+00 -0.00000000000E+00 -0.18121848475E+04  0.18121848475E+04  0.00000000000E+00 0. -1.
         25    1    1    2    0    0 -0.44829036506E+02  0.21954801562E+03 -0.31411674565E+02  0.25850080653E+03  0.12500000000E+03 0.  0.
         21    1    1    2  503  502  0.12617263025E+02 -0.56487769351E+02 -0.21099920141E+03  0.21879379883E+03  0.00000000000E+00 0. -1.
          1    1    1    2  501    0  0.32211773481E+02 -0.16306024627E+03 -0.14475766101E+04  0.14570876035E+04  0.00000000000E+00 0. -1.
<mgrwt>
<rscale>  4 0.25658522E+03</rscale>
<asrwt>0</asrwt>
<pdfrwt beam="1">  1       21 0.18799596E-01 0.25658522E+03</pdfrwt>
<pdfrwt beam="2">  1        1 0.27879763E+00 0.25658522E+03</pdfrwt>
<totfact> 0.12760775E+03</totfact>
</mgrwt>
</event>
<event>
 5    0  0.3275920E+000  0.3351591E+03  0.7546771E-02  0.1068877E+00
         21   -1    0    0  503  502  0.00000000000E+00  0.00000000000E+00  0.72603383935E+03  0.72603383935E+03  0.00000000000E+00 0. -1.
         -1   -1    0    0    0  501 -0.00000000000E+00 -0.00000000000E+00 -0.85212295556E+03  0.85212295556E+03  0.00000000000E+00 0. -1.
         25    1    1    2    0    0  0.27203053373E+03  0.15163902399E+03  0.65113016693E+03  0.73252337789E+03  0.12500000000E+03 0.  0.
         21    1    1    2  503  501  0.58258292051E+01 -0.28734976584E+02 -0.73114598551E+02  0.78774257765E+02  0.00000000000E+00 0.  1.
         -1    1    1    2    0  502 -0.27785636293E+03 -0.12290404741E+03 -0.70410468458E+03  0.76685915926E+03  0.00000000000E+00 0. -1.
<mgrwt>
<rscale>  4 0.33515911E+03</rscale>
<asrwt>0</asrwt>
<pdfrwt beam="1">  1       21 0.11169751E+00 0.33515911E+03</pdfrwt>
<pdfrwt beam="2">  1       -1 0.13109584E+00 0.33515911E+03</pdfrwt>
<totfact> 0.28864644E+01</totfact>
</mgrwt>
</event>
<event>
 5    0  0.3275920E+000  0.2810913E+03  0.7546771E-02  0.1095094E+00
          2   -1    0    0  503    0 -0.00000000000E+00  0.00000000000E+00  0.77427716795E+03  0.77427716795E+03  0.00000000000E+00 0.  1.
         21   -1    0    0  501  502  0.00000000000E+00 -0.00000000000E+00 -0.12316445942E+03  0.12316445942E+03  0.00000000000E+00 0.  1.
         25    1    1    2    0    0 -0.87759296108E+02  0.24815727590E+03  0.24422790179E+03  0.38020520203E+03  0.12500000000E+03 0.  0.
         21    1    1    2  503  502 -0.59313024322E+01 -0.24951112484E+02  0.19151788607E+03  0.19322742830E+03  0.00000000000E+00 0.  1.
          2    1    1    2  501    0  0.93690598540E+02 -0.22320616342E+03  0.21536692067E+03  0.32400899704E+03  0.00000000000E+00 0.  1.
<mgrwt>
<rscale>  4 0.28109130E+03</rscale>
<asrwt>0</asrwt>
<pdfrwt beam="1">  1       21 0.18948379E-01 0.28109130E+03</pdfrwt>
<pdfrwt beam="2">  1        2 0.11911956E+00 0.28109130E+03</pdfrwt>
<totfact> 0.11695474E+04</totfact>
</mgrwt>
</event>
<event>
 5    0  0.3275920E+000  0.3410329E+03  0.7546771E-02  0.1066357E+00
          1   -1    0    0  503    0 -0.00000000000E+00  0.00000000000E+00  0.49070532123E+03  0.49070532123E+03  0.00000000000E+00 0.  1.
         21   -1    0    0  501  502  0.00000000000E+00 -0.00000000000E+00 -0.45319862911E+03  0.45319862911E+03  0.00000000000E+00 0.  1.
         25    1    1    2    0    0  0.13798823237E+03  0.27947175357E+03 -0.28983658094E+03  0.44359379726E+03  0.12500000000E+03 0.  0.
         21    1    1    2  503  502  0.86835966918E+01  0.32415484531E+02  0.33134577937E+02  0.47160033332E+02  0.00000000000E+00 0. -1.
          1    1    1    2  501    0 -0.14667182906E+03 -0.31188723811E+03  0.29420869512E+03  0.45315011974E+03  0.00000000000E+00 0.  1.
<mgrwt>
<rscale>  4 0.34103292E+03</rscale>
<asrwt>0</asrwt>
<pdfrwt beam="1">  1       21 0.69722866E-01 0.34103292E+03</pdfrwt>
<pdfrwt beam="2">  1        1 0.75493127E-01 0.34103292E+03</pdfrwt>
<totfact> 0.90036393E+02</totfact>
</mgrwt>
</event>
<event>
 5    0  0.3275920E+000  0.2699147E+03  0.7546771E-02  0.1101328E+00
          1   -1    0    0  503    0 -0.00000000000E+00  0.00000000000E+00  0.13008793340E+03  0.13008793340E+03  0.00000000000E+00 0.  1.
         21   -1    0    0  501  502  0.00000000000E+00 -0.00000000000E+00 -0.69417305748E+03  0.69417305748E+03  0.00000000000E+00 0.  1.
         25    1    1    2    0    0  0.24366670286E+03 -0.39733630317E+02 -0.41173250270E+03  0.49608555436E+03  0.12500000000E+03 0.  0.
         21    1    1    2  503  502 -0.13259419802E+02  0.41162466731E+02  0.12321943376E+02  0.44966556121E+02  0.00000000000E+00 0.  1.
          1    1    1    2  501    0 -0.23040728306E+03 -0.14288364140E+01 -0.16467456475E+03  0.28320888040E+03  0.00000000000E+00 0.  1.
<mgrwt>
<rscale>  4 0.26991471E+03</rscale>
<asrwt>0</asrwt>
<pdfrwt beam="1">  1       21 0.10679585E+00 0.26991471E+03</pdfrwt>
<pdfrwt beam="2">  1        1 0.20013529E-01 0.26991471E+03</pdfrwt>
<totfact> 0.18711879E+03</totfact>
</mgrwt>
</event>
<event>
 5    0  0.3275920E+000  0.2631732E+03  0.7546771E-02  0.1105252E+00
          2   -1    0    0  503    0 -0.00000000000E+00  0.00000000000E+00  0.10480885017E+04  0.10480885017E+04  0.00000000000E+00 0.  1.
         21   -1    0    0  501  502  0.00000000000E+00 -0.00000000000E+00 -0.79750938197E+02  0.79750938197E+02  0.00000000000E+00 0.  1.
         25    1    1    2    0    0  0.20241833189E+03  0.65959161048E+02  0.25394260884E+03  0.35416894358E+03  0.12500000000E+03 0.  0.
         21    1    1    2  503  502  0.10529271956E+02  0.45785234032E+02  0.58196870643E+02  0.74793241512E+02  0.00000000000E+00 0.  1.
          2    1    1    2  501    0 -0.21294760384E+03 -0.11174439508E+03  0.65619808399E+03  0.69887725478E+03  0.00000000000E+00 0.  1.
<mgrwt>
<rscale>  4 0.26317318E+03</rscale>
<asrwt>0</asrwt>
<pdfrwt beam="1">  1       21 0.12269376E-01 0.26317318E+03</pdfrwt>
<pdfrwt beam="2">  1        2 0.16124437E+00 0.26317318E+03</pdfrwt>
<totfact> 0.17340934E+04</totfact>
</mgrwt>
</event>
<event>
 5    0  0.3275920E+000  0.2368033E+03  0.7546771E-02  0.1121941E+00
          2   -1    0    0  503    0 -0.00000000000E+00  0.00000000000E+00  0.11215874294E+04  0.11215874294E+04  0.00000000000E+00 0. -1.
         21   -1    0    0  501  502  0.00000000000E+00 -0.00000000000E+00 -0.88248349956E+02  0.88248349956E+02  0.00000000000E+00 0. -1.
         25    1    1    2    0    0 -0.16596022753E+03  0.11170131406E+03  0.11675365952E+03  0.26320409893E+03  0.12500000000E+03 0.  0.
         21    1    1    2  503  502  0.89369182849E+01  0.23564804743E+02  0.55470768775E+02  0.60927618692E+02  0.00000000000E+00 0.  1.
          2    1    1    2  501    0  0.15702330924E+03 -0.13526611880E+03  0.86111465115E+03  0.88570406173E+03  0.00000000000E+00 0. -1.
<mgrwt>
<rscale>  4 0.23680333E+03</rscale>
<asrwt>0</asrwt>
<pdfrwt beam="1">  1       21 0.13576670E-01 0.23680333E+03</pdfrwt>
<pdfrwt beam="2">  1        2 0.17255190E+00 0.23680333E+03</pdfrwt>
<totfact> 0.13140826E+04</totfact>
</mgrwt>
</event>
<event>
 5    0  0.3275920E+000  0.2364547E+03  0.7546771E-02  0.1122177E+00
          1   -1    0    0  503    0 -0.00000000000E+00  0.00000000000E+00  0.33716588305E+04  0.33716588305E+04  0.00000000000E+00 0.  1.
         21   -1    0    0  501  502  0.00000000000E+00 -0.00000000000E+00 -0.26535975812E+02  0.26535975812E+02  0.00000000000E+00 0.  1.
         25    1    1    2    0    0 -0.88229435489E+02 -0.19082411491E+03  0.66803512033E+03  0.71140297871E+03  0.12500000000E+03 0.  0.
         21    1    1    2  503  502  0.34294808548E+02  0.22172395462E+02  0.89447034752E+03  0.89540211726E+03  0.00000000000E+00 0.  1.
          1    1    1    2  501    0  0.53934626941E+02  0.16865171944E+03  0.17826173868E+04  0.17913897104E+04  0.00000000000E+00 0.  1.
<mgrwt>
<rscale>  4 0.23645472E+03</rscale>
<asrwt>0</asrwt>
<pdfrwt beam="1">  1       21 0.40824605E-02 0.23645472E+03</pdfrwt>
<pdfrwt beam="2">  1        1 0.51871641E+00 0.23645472E+03</pdfrwt>
<totfact> 0.16854794E+03</totfact>
</mgrwt>
</event>
<event>
 5    0  0.3275920E+000  0.2675252E+03  0.7546771E-02  0.1102704E+00
          2   -1    0    0  503    0 -0.00000000000E+00  0.00000000000E+00  0.46528868924E+04  0.46528868924E+04  0.00000000000E+00 0.  1.
         21   -1    0    0  501  502  0.00000000000E+00 -0.00000000000E+00 -0.38002113341E+02  0.38002113341E+02  0.00000000000E+00 0.  1.
         25    1    1    2    0    0  0.23009626168E+03  0.55237494149E+02  0.49705668408E+03  0.56452264577E+03  0.12500000000E+03 0.  0.
         21    1    1    2  503  502  0.54581924311E+01 -0.27305163253E+02  0.37940520600E+03  0.38042564865E+03  0.00000000000E+00 0. -1.
          2    1    1    2  501    0 -0.23555445411E+03 -0.27932330896E+02  0.37384228890E+04  0.37459407114E+04  0.00000000000E+00 0.  1.
<mgrwt>
<rscale>  4 0.26752521E+03</rscale>
<asrwt>0</asrwt>
<pdfrwt beam="1">  1       21 0.58464827E-02 0.26752521E+03</pdfrwt>
<pdfrwt beam="2">  1        2 0.71582830E+00 0.26752521E+03</pdfrwt>
<totfact> 0.31725734E+02</totfact>
</mgrwt>
</event>
<event>
 5    0  0.3275920E+000  0.2406063E+03  0.7546771E-02  0.1119390E+00
          1   -1    0    0  503    0 -0.00000000000E+00  0.00000000000E+00  0.11011621474E+04  0.11011621474E+04  0.00000000000E+00 0.  1.
         21   -1    0    0  501  502  0.00000000000E+00 -0.00000000000E+00 -0.87450837296E+02  0.87450837296E+02  0.00000000000E+00 0. -1.
         25    1    1    2    0    0  0.22799644985E+02 -0.22710804182E+03  0.36659369951E+03  0.44957071412E+03  0.12500000000E+03 0.  0.
         21    1    1    2  503  502  0.41102309634E+02  0.42260932456E+02  0.47459849866E+03  0.47824587944E+03  0.00000000000E+00 0.  1.
          1    1    1    2  501    0 -0.63901954618E+02  0.18484710937E+03  0.17251911191E+03  0.26079639112E+03  0.00000000000E+00 0.  1.
<mgrwt>
<rscale>  4 0.24060627E+03</rscale>
<asrwt>0</asrwt>
<pdfrwt beam="1">  1       21 0.13453976E-01 0.24060627E+03</pdfrwt>
<pdfrwt beam="2">  1        1 0.16940955E+00 0.24060627E+03</pdfrwt>
<totfact> 0.71388147E+03</totfact>
</mgrwt>
</event>
<event>
 5    0  0.3275920E+000  0.3983543E+03  0.7546771E-02  0.1044351E+00
          2   -1    0    0  503    0 -0.00000000000E+00  0.00000000000E+00  0.12237017874E+04  0.12237017874E+04  0.00000000000E+00 0.  1.
         21   -1    0    0  501  502  0.00000000000E+00 -0.00000000000E+00 -0.34834276862E+03  0.34834276862E+03  0.00000000000E+00 0. -1.
         25    1    1    2    0    0  0.13526215612E+03 -0.35391920201E+03 -0.18414867570E+03  0.43942051294E+03  0.12500000000E+03 0.  0.
         21    1    1    2  503  502 -0.24229566990E+02 -0.30251187584E+01  0.98272309536E+02  0.10126040728E+03  0.00000000000E+00 0.  1.
          2    1    1    2  501    0 -0.11103258913E+03  0.35694432077E+03  0.96123538494E+03  0.10313636358E+04  0.00000000000E+00 0.  1.
<mgrwt>
<rscale>  4 0.39835430E+03</rscale>
<asrwt>0</asrwt>
<pdfrwt beam="1">  1       21 0.53591196E-01 0.39835430E+03</pdfrwt>
<pdfrwt beam="2">  1        2 0.18826181E+00 0.39835430E+03</pdfrwt>
<totfact> 0.74398514E+02</totfact>
</mgrwt>
</event>
<event>
 5    0  0.3275920E+000  0.2279284E+03  0.7546771E-02  0.1128106E+00
          1   -1    0    0  503    0 -0.00000000000E+00  0.00000000000E+00  0.10174299859E+04  0.10174299859E+04  0.00000000000E+00 0.  1.
         21   -1    0    0  501  502  0.00000000000E+00 -0.00000000000E+00 -0.77244434639E+02  0.77244434639E+02  0.00000000000E+00 0. -1.
         25    1    1    2    0    0 -0.81845660230E+02 -0.19754427109E+03  0.34721704578E+03  0.42650571863E+03  0.12500000000E+03 0.  0.
         21    1    1    2  503  502 -0.31335715203E+02  0.57858440387E+02  0.39623525248E+03  0.40166142643E+03  0.00000000000E+00 0.  1.
          1    1    1    2  501    0  0.11318137543E+03  0.13968583070E+03  0.19673325294E+03  0.26650727543E+03  0.00000000000E+00 0.  1.
<mgrwt>
<rscale>  4 0.22792840E+03</rscale>
<asrwt>0</asrwt>
<pdfrwt beam="1">  1       21 0.11883760E-01 0.22792840E+03</pdfrwt>
<pdfrwt beam="2">  1        1 0.15652768E+00 0.22792840E+03</pdfrwt>
<totfact> 0.10315714E+04</totfact>
</mgrwt>
</event>
<event>
 5    0  0.3275920E+000  0.4489995E+03  0.7546771E-02  0.1028021E+00
          2   -1    0    0  503    0 -0.00000000000E+00  0.00000000000E+00  0.19137447084E+04  0.19137447084E+04  0.00000000000E+00 0.  1.
         21   -1    0    0  501  502  0.00000000000E+00 -0.00000000000E+00 -0.22155504941E+03  0.22155504941E+03  0.00000000000E+00 0.  1.
         25    1    1    2    0    0  0.15139519088E+03  0.37680374305E+03  0.16950792986E+03  0.45744890740E+03  0.12500000000E+03 0.  0.
         21    1    1    2  503  502 -0.21376877648E+02  0.15074208849E+03  0.23231589082E+03  0.27776036662E+03  0.00000000000E+00 0. -1.
          2    1    1    2  501    0 -0.13001831323E+03 -0.52754583153E+03  0.12903658383E+04  0.14000904838E+04  0.00000000000E+00 0.  1.
<mgrwt>
<rscale>  4 0.44899946E+03</rscale>
<asrwt>0</asrwt>
<pdfrwt beam="1">  1       21 0.34085393E-01 0.44899946E+03</pdfrwt>
<pdfrwt beam="2">  1        2 0.29442225E+00 0.44899946E+03</pdfrwt>
<totfact> 0.78772400E+02</totfact>
</mgrwt>
</event>
<event>
 5    0  0.3275920E+000  0.3564466E+03  0.7546771E-02  0.1060000E+00
         21   -1    0    0  501  502  0.00000000000E+00  0.00000000000E+00  0.12769330422E+04  0.12769330422E+04  0.00000000000E+00 0. -1.
          2   -1    0    0  503    0 -0.00000000000E+00 -0.00000000000E+00 -0.48675667895E+03  0.48675667895E+03  0.00000000000E+00 0. -1.
         25    1    1    2    0    0  0.25714992683E+03  0.21645246347E+03  0.10812011198E+04  0.11391218615E+04  0.12500000000E+03 0.  0.
         21    1    1    2  503  502  0.90966014920E+00 -0.24105555463E+02 -0.30157452593E+03  0.30253776620E+03  0.00000000000E+00 0. -1.
          2    1    1    2  501    0 -0.25805958698E+03 -0.19234690801E+03  0.10549769340E+02  0.32203009345E+03  0.00000000000E+00 0. -1.
<mgrwt>
<rscale>  4 0.35644660E+03</rscale>
<asrwt>0</asrwt>
<pdfrwt beam="1">  1       21 0.19645124E+00 0.35644660E+03</pdfrwt>
<pdfrwt beam="2">  1        2 0.74885643E-01 0.35644660E+03</pdfrwt>
<totfact> 0.10151902E+02</totfact>
</mgrwt>
</event>
<event>
 5    0  0.3275920E+000  0.2756861E+03  0.7546771E-02  0.1098069E+00
         21   -1    0    0  503  502  0.00000000000E+00  0.00000000000E+00  0.30880409254E+03  0.30880409254E+03  0.00000000000E+00 0.  1.
         -1   -1    0    0    0  501 -0.00000000000E+00 -0.00000000000E+00 -0.12018424448E+04  0.12018424448E+04  0.00000000000E+00 0.  1.
         25    1    1    2    0    0 -0.23359779664E+03 -0.90498235764E+02  0.19033656412E+03  0.33854227049E+03  0.12500000000E+03 0.  0.
         21    1    1    2  503  501  0.41805363098E+02 -0.37149553032E+02 -0.82113295930E+03  0.82303530576E+03  0.00000000000E+00 0. -1.
         -1    1    1    2    0  502  0.19179243354E+03  0.12764778880E+03 -0.26224195711E+03  0.34906896112E+03  0.00000000000E+00 0.  1.
<mgrwt>
<rscale>  4 0.27568612E+03</rscale>
<asrwt>0</asrwt>
<pdfrwt beam="1">  1       21 0.47508322E-01 0.27568612E+03</pdfrwt>
<pdfrwt beam="2">  1       -1 0.18489884E+00 0.27568612E+03</pdfrwt>
<totfact> 0.81123693E+01</totfact>
</mgrwt>
</event>
