<event>
 5    0  0.8645418E+000  0.3376077E+03  0.7546771E-02  0.1067819E+00
         21   -1    0    0  502  501  0.00000000000E+00  0.00000000000E+00  0.82691663565E+02  0.82691663565E+02  0.00000000000E+00 0. -1.
         21   -1    0    0  503  502 -0.00000000000E+00 -0.00000000000E+00 -0.13692412344E+04  0.13692412344E+04  0.00000000000E+00 0. -1.
         25    1    1    2    0    0 -0.14244445142E+03  0.27939851669E+03 -0.49507819433E+03  0.59923398716E+03  0.12500000000E+03 0.  0.
         21    1    1    2  503  504  0.80093768904E+00 -0.32327071340E+02 -0.72994918278E+02  0.79836953456E+02  0.00000000000E+00 0.  1.
         21    1    1    2  504  501  0.14164351373E+03 -0.24707144535E+03 -0.71847645823E+03  0.77286195735E+03  0.00000000000E+00 0. -1.
<mgrwt>
<rscale>  4 0.33760769E+03</rscale>
<asrwt>0</asrwt>
<pdfrwt beam="1">  1       21 0.12721796E-01 0.33760769E+03</pdfrwt>
<pdfrwt beam="2">  1       21 0.21065247E+00 0.33760769E+03</pdfrwt>
<totfact> 0.54847999E+03</totfact>
</mgrwt>
</event>
<event>
 5    0  0.2159162E+000  0.3014445E+03  0.7546771E-02  0.1084521E+00
         21   -1    0    0  502  501  0.00000000000E+00  0.00000000000E+00  0.12792112255E+04  0.12792112255E+04  0.00000000000E+00 0.  1.
         21   -1    0    0  503  502 -0.00000000000E+00 -0.00000000000E+00 -0.77579179253E+02  0.77579179253E+02  0.00000000000E+00 0.  1.
         25    1    1    2    0    0  0.27331754436E+03  0.23266346529E+02  0.83830005252E+03  0.89085115535E+03  0.12500000000E+03 0.  0.
         21    1    1    2  503  504 -0.82926457781E+02 -0.36849138894E+02  0.17848885676E+03  0.20023218629E+03  0.00000000000E+00 0.  1.
         21    1    1    2  504  501 -0.19039108658E+03  0.13582792365E+02  0.18484313692E+03  0.26570706307E+03  0.00000000000E+00 0.  1.
<mgrwt>
<rscale>  4 0.30144453E+03</rscale>
<asrwt>0</asrwt>
<pdfrwt beam="1">  1       21 0.19680171E+00 0.30144453E+03</pdfrwt>
<pdfrwt beam="2">  1       21 0.11935259E-01 0.30144453E+03</pdfrwt>
<totfact> 0.77311272E+03</totfact>
</mgrwt>
</event>
<event>
 5    0  0.2159162E+000  0.3499848E+03  0.7546771E-02  0.1062621E+00
         21   -1    0    0  502  501  0.00000000000E+00  0.00000000000E+00  0.78992953783E+03  0.78992953783E+03  0.00000000000E+00 0.  1.
         21   -1    0    0  503  502 -0.00000000000E+00 -0.00000000000E+00 -0.23007552065E+03  0.23007552065E+03  0.00000000000E+00 0. -1.
         25    1    1    2    0    0  0.20820615223E+03  0.31049392215E+03  0.41245352266E+03  0.57052535953E+03  0.12500000000E+03 0.  0.
         21    1    1    2  503  504  0.15337838827E+02 -0.13981404426E+03  0.25501189896E+02  0.14294588821E+03  0.00000000000E+00 0. -1.
         21    1    1    2  504  501 -0.22354399106E+03 -0.17067987789E+03  0.12189930462E+03  0.30653381073E+03  0.00000000000E+00 0. -1.
<mgrwt>
<rscale>  4 0.34998481E+03</rscale>
<asrwt>0</asrwt>
<pdfrwt beam="1">  1       21 0.12152762E+00 0.34998481E+03</pdfrwt>
<pdfrwt beam="2">  1       21 0.35396234E-01 0.34998481E+03</pdfrwt>
<totfact> 0.35665725E+03</totfact>
</mgrwt>
</event>
<event>
 5    0  0.3249808E+000  0.3454888E+03  0.7546771E-02  0.1064482E+00
         21   -1    0    0  502  501  0.00000000000E+00  0.00000000000E+00  0.79262348186E+03  0.79262348186E+03  0.00000000000E+00 0. -1.
         21   -1    0    0  503  502 -0.00000000000E+00 -0.00000000000E+00 -0.15195155551E+03  0.15195155551E+03  0.00000000000E+00 0. -1.
         25    1    1    2    0    0  0.22059544529E+03 -0.23468100121E+03  0.37379811035E+03  0.50900643425E+03  0.12500000000E+03 0.  0.
         21    1    1    2  503  504 -0.72034948040E+02  0.19839827148E+02  0.22901687374E+02  0.78148191054E+02  0.00000000000E+00 0. -1.
         21    1    1    2  504  501 -0.14856049725E+03  0.21484117406E+03  0.24397212862E+03  0.35742041206E+03  0.00000000000E+00 0. -1.
<mgrwt>
<rscale>  4 0.34548882E+03</rscale>
<asrwt>0</asrwt>
<pdfrwt beam="1">  1       21 0.12194207E+00 0.34548882E+03</pdfrwt>
<pdfrwt beam="2">  1       21 0.23377163E-01 0.34548882E+03</pdfrwt>
<totfact> 0.80117955E+03</totfact>
</mgrwt>
</event>
<event>
 5    0  0.2159162E+000  0.2362559E+03  0.7546771E-02  0.1122312E+00
         21   -1    0    0  502  501  0.00000000000E+00  0.00000000000E+00  0.61884240517E+03  0.61884240517E+03  0.00000000000E+00 0. -1.
         21   -1    0    0  503  502 -0.00000000000E+00 -0.00000000000E+00 -0.15530031136E+03  0.15530031136E+03  0.00000000000E+00 0. -1.
         25    1    1    2    0    0 -0.69286354655E+02  0.19927031421E+03  0.47826350400E+03  0.53746649786E+03  0.12500000000E+03 0.  0.
         21    1    1    2  503  504  0.15458300358E+02 -0.17359848225E+03  0.34925919743E+01  0.17432036682E+03  0.00000000000E+00 0. -1.
         21    1    1    2  504  501  0.53828054297E+02 -0.25671831962E+02 -0.18214002159E+02  0.62355851853E+02  0.00000000000E+00 0. -1.
<mgrwt>
<rscale>  4 0.23625594E+03</rscale>
<asrwt>0</asrwt>
<pdfrwt beam="1">  1       21 0.95206523E-01 0.23625594E+03</pdfrwt>
<pdfrwt beam="2">  1       21 0.23892356E-01 0.23625594E+03</pdfrwt>
<totfact> 0.14817839E+04</totfact>
</mgrwt>
</event>
<event>
 5    0  0.2159162E+000  0.2275169E+03  0.7546771E-02  0.1128400E+00
         21   -1    0    0  502  501  0.00000000000E+00  0.00000000000E+00  0.62203721069E+03  0.62203721069E+03  0.00000000000E+00 0.  1.
         21   -1    0    0  503  502 -0.00000000000E+00 -0.00000000000E+00 -0.12123509957E+03  0.12123509957E+03  0.00000000000E+00 0.  1.
         25    1    1    2    0    0  0.74059256019E+02  0.20934080920E+03  0.31497278182E+03  0.40514343273E+03  0.12500000000E+03 0.  0.
         21    1    1    2  503  504 -0.84809433228E+02 -0.37648907829E+02  0.11992843947E+02  0.93562324314E+02  0.00000000000E+00 0.  1.
         21    1    1    2  504  501  0.10750177208E+02 -0.17169190137E+03  0.17383648535E+03  0.24456655320E+03  0.00000000000E+00 0.  1.
<mgrwt>
<rscale>  4 0.22751685E+03</rscale>
<asrwt>0</asrwt>
<pdfrwt beam="1">  1       21 0.95698031E-01 0.22751685E+03</pdfrwt>
<pdfrwt beam="2">  1       21 0.18651554E-01 0.22751685E+03</pdfrwt>
<totfact> 0.23463688E+04</totfact>
</mgrwt>
</event>
<event>
 5    0  0.6619220E+000  0.2507297E+03  0.7546771E-02  0.1112845E+00
         21   -1    0    0  502  501  0.00000000000E+00  0.00000000000E+00  0.85886412850E+03  0.85886412850E+03  0.00000000000E+00 0.  1.
         21   -1    0    0  503  502 -0.00000000000E+00 -0.00000000000E+00 -0.18282930200E+03  0.18282930200E+03  0.00000000000E+00 0. -1.
         25    1    1    2    0    0 -0.13902728885E+03 -0.16706821374E+03  0.75858209165E+03  0.79894440661E+03  0.12500000000E+03 0.  0.
         21    1    1    2  503  504  0.11488449257E+03  0.16839928201E+03 -0.70230592271E+02  0.21561331338E+03  0.00000000000E+00 0. -1.
         21    1    1    2  504  501  0.24142796276E+02 -0.13310682714E+01 -0.12316672870E+02  0.27135710519E+02  0.00000000000E+00 0.  1.
<mgrwt>
<rscale>  4 0.25072969E+03</rscale>
<asrwt>0</asrwt>
<pdfrwt beam="1">  1       21 0.13213294E+00 0.25072969E+03</pdfrwt>
<pdfrwt beam="2">  1       21 0.28127585E-01 0.25072969E+03</pdfrwt>
<totfact> 0.47988602E+03</totfact>
</mgrwt>
</event>
<event>
 5    0  0.2159162E+000  0.2386432E+03  0.7546771E-02  0.1120700E+00
         21   -1    0    0  502  501  0.00000000000E+00  0.00000000000E+00  0.10461987720E+03  0.10461987720E+03  0.00000000000E+00 0.  1.
         21   -1    0    0  503  502 -0.00000000000E+00 -0.00000000000E+00 -0.53098017049E+03  0.53098017049E+03  0.00000000000E+00 0.  1.
         25    1    1    2    0    0  0.16833484082E+03  0.11396906329E+03 -0.12755912348E+03  0.27059544712E+03  0.12500000000E+03 0.  0.
         21    1    1    2  503  504 -0.45146580655E+02 -0.33104250051E+02 -0.12617492754E+03  0.13803701481E+03  0.00000000000E+00 0.  1.
         21    1    1    2  504  501 -0.12318826017E+03 -0.80864813236E+02 -0.17262624227E+03  0.22696758575E+03  0.00000000000E+00 0.  1.
<mgrwt>
<rscale>  4 0.23864318E+03</rscale>
<asrwt>0</asrwt>
<pdfrwt beam="1">  1       21 0.16095366E-01 0.23864318E+03</pdfrwt>
<pdfrwt beam="2">  1       21 0.81689253E-01 0.23864318E+03</pdfrwt>
<totfact> 0.44255266E+04</totfact>
</mgrwt>
</event>
<event>
 5    0  0.2159162E+000  0.3559707E+03  0.7546771E-02  0.1060191E+00
         21   -1    0    0  502  501  0.00000000000E+00  0.00000000000E+00  0.22084618046E+03  0.22084618046E+03  0.00000000000E+00 0. -1.
         21   -1    0    0  503  502 -0.00000000000E+00 -0.00000000000E+00 -0.14146983773E+04  0.14146983773E+04  0.00000000000E+00 0.  1.
         25    1    1    2    0    0 -0.21040832710E+02  0.33273861273E+03  0.29055212011E+02  0.35724908172E+03  0.12500000000E+03 0.  0.
         21    1    1    2  503  504 -0.35683748186E+02 -0.33163042245E+01 -0.83464120638E+02  0.90832742952E+02  0.00000000000E+00 0.  1.
         21    1    1    2  504  501  0.56724580895E+02 -0.32942230851E+03 -0.11394432882E+04  0.11874627330E+04  0.00000000000E+00 0.  1.
<mgrwt>
<rscale>  4 0.35597071E+03</rscale>
<asrwt>0</asrwt>
<pdfrwt beam="1">  1       21 0.33976336E-01 0.35597071E+03</pdfrwt>
<pdfrwt beam="2">  1       21 0.21764590E+00 0.35597071E+03</pdfrwt>
<totfact> 0.75417300E+02</totfact>
</mgrwt>
</event>
