<event>
 5    0  0.1814147E+000  0.3372511E+03  0.7546771E-02  0.1067973E+00
         21   -1    0    0  503  501  0.00000000000E+00  0.00000000000E+00  0.44924227176E+03  0.44924227176E+03  0.00000000000E+00 0. -1.
         21   -1    0    0  501  502 -0.00000000000E+00 -0.00000000000E+00 -0.72601957815E+03  0.72601957815E+03  0.00000000000E+00 0.  1.
         25    1    1    2    0    0  0.24712692381E+03  0.17351588565E+03 -0.13122202049E+03  0.35216998410E+03  0.12500000000E+03 0.  0.
         21    1    1    2  503  504 -0.43424398136E+02  0.76695643257E+02  0.27743290411E+03  0.29109606032E+03  0.00000000000E+00 0. -1.
         21    1    1    2  504  502 -0.20370252567E+03 -0.25021152890E+03 -0.42298819002E+03  0.53199580549E+03  0.00000000000E+00 0.  1.
<mgrwt>
<rscale>  4 0.33725114E+03</rscale>
<asrwt>0</asrwt>
<pdfrwt beam="1">  1       21 0.69114197E-01 0.33725114E+03</pdfrwt>
<pdfrwt beam="2">  1       21 0.11169532E+00 0.33725114E+03</pdfrwt>
<totfact> 0.10758809E+03</totfact>
</mgrwt>
</event>
<event>
 5    0  0.1814147E+000  0.4182227E+03  0.7546771E-02  0.1037646E+00
         21   -1    0    0  503  501  0.00000000000E+00  0.00000000000E+00  0.14180621095E+04  0.14180621095E+04  0.00000000000E+00 0.  1.
         21   -1    0    0  501  502 -0.00000000000E+00 -0.00000000000E+00 -0.57115599031E+03  0.57115599031E+03  0.00000000000E+00 0.  1.
         25    1    1    2    0    0  0.39719568061E+03 -0.11375236276E+03  0.11885012536E+04  0.12644620353E+04  0.12500000000E+03 0.  0.
         21    1    1    2  503  504 -0.78126248959E+01  0.29932464125E+02  0.11486055683E+03  0.11895350786E+03  0.00000000000E+00 0.  1.
         21    1    1    2  504  502 -0.38938305572E+03  0.83819898633E+02 -0.45645569132E+03  0.60580255664E+03  0.00000000000E+00 0.  1.
<mgrwt>
<rscale>  4 0.41822272E+03</rscale>
<asrwt>0</asrwt>
<pdfrwt beam="1">  1       21 0.21816340E+00 0.41822272E+03</pdfrwt>
<pdfrwt beam="2">  1       21 0.87870153E-01 0.41822272E+03</pdfrwt>
<totfact> 0.92430217E+01</totfact>
</mgrwt>
</event>
<event>
 5    0  0.1814147E+000  0.2493618E+03  0.7546771E-02  0.1113709E+00
         21   -1    0    0  503  501  0.00000000000E+00  0.00000000000E+00  0.16351009908E+04  0.16351009908E+04  0.00000000000E+00 0. -1.
         21   -1    0    0  504  502 -0.00000000000E+00 -0.00000000000E+00 -0.30195914328E+03  0.30195914328E+03  0.00000000000E+00 0.  1.
         25    1    1    2    0    0  0.21342023255E+03  0.59127366032E+01 -0.46465823923E+02  0.25172848251E+03  0.12500000000E+03 0.  0.
         21    1    1    2  503  502 -0.21682628296E+03  0.28138868310E+02 -0.74373566084E+02  0.23094774349E+03  0.00000000000E+00 0.  1.
         21    1    1    2  504  501  0.34060504123E+01 -0.34051604913E+02  0.14539812375E+04  0.14543839081E+04  0.00000000000E+00 0. -1.
<mgrwt>
<rscale>  4 0.24936185E+03</rscale>
<asrwt>0</asrwt>
<pdfrwt beam="1">  1       21 0.25155399E+00 0.24936185E+03</pdfrwt>
<pdfrwt beam="2">  1       21 0.46455254E-01 0.24936185E+03</pdfrwt>
<totfact> 0.26936866E+02</totfact>
</mgrwt>
</event>
<event>
 5    0  0.1814147E+000  0.2217132E+03  0.7546771E-02  0.1132612E+00
         21   -1    0    0  502  501  0.00000000000E+00  0.00000000000E+00  0.20562876034E+03  0.20562876034E+03  0.00000000000E+00 0. -1.
         21   -1    0    0  504  502 -0.00000000000E+00 -0.00000000000E+00 -0.27598095021E+03  0.27598095021E+03  0.00000000000E+00 0. -1.
         25    1    1    2    0    0  0.10056465473E+03 -0.17619805507E+03 -0.10069092581E+03  0.25869415713E+03  0.12500000000E+03 0.  0.
         21    1    1    2  503  501 -0.11133416399E+03  0.13648841480E+03  0.40066840617E+02  0.18063702600E+03  0.00000000000E+00 0. -1.
         21    1    1    2  504  503  0.10769509258E+02  0.39709640270E+02 -0.97281046859E+01  0.42278527420E+02  0.00000000000E+00 0. -1.
<mgrwt>
<rscale>  4 0.22171321E+03</rscale>
<asrwt>0</asrwt>
<pdfrwt beam="1">  1       21 0.31635194E-01 0.22171321E+03</pdfrwt>
<pdfrwt beam="2">  1       21 0.42458608E-01 0.22171321E+03</pdfrwt>
<totfact> 0.50570720E+04</totfact>
</mgrwt>
</event>
<event>
 5    0  0.1814147E+000  0.2566814E+03  0.7546771E-02  0.1109154E+00
         21   -1    0    0  502  501  0.00000000000E+00  0.00000000000E+00  0.16824778821E+03  0.16824778821E+03  0.00000000000E+00 0. -1.
         21   -1    0    0  503  502 -0.00000000000E+00 -0.00000000000E+00 -0.56221014617E+03  0.56221014617E+03  0.00000000000E+00 0.  1.
         25    1    1    2    0    0  0.14789546208E+03  0.16848521983E+03 -0.41783305558E+03  0.49037720108E+03  0.12500000000E+03 0.  0.
         21    1    1    2  503  504 -0.38716463622E+02 -0.76419551150E+00  0.55149274781E+01  0.39114741150E+02  0.00000000000E+00 0. -1.
         21    1    1    2  504  501 -0.10917899846E+03 -0.16772102432E+03  0.18355770133E+02  0.20096599215E+03  0.00000000000E+00 0. -1.
<mgrwt>
<rscale>  4 0.25668139E+03</rscale>
<asrwt>0</asrwt>
<pdfrwt beam="1">  1       21 0.25884275E-01 0.25668139E+03</pdfrwt>
<pdfrwt beam="2">  1       21 0.86493869E-01 0.25668139E+03</pdfrwt>
<totfact> 0.15729700E+04</totfact>
</mgrwt>
</event>
<event>
 5    0  0.1814147E+000  0.2562243E+03  0.7546771E-02  0.1109433E+00
         21   -1    0    0  503  501  0.00000000000E+00  0.00000000000E+00  0.42839779049E+03  0.42839779049E+03  0.00000000000E+00 0. -1.
         21   -1    0    0  501  502 -0.00000000000E+00 -0.00000000000E+00 -0.42898346217E+03  0.42898346217E+03  0.00000000000E+00 0. -1.
         25    1    1    2    0    0 -0.22189521894E+03 -0.64546913431E+02 -0.31934005368E+03  0.41352975964E+03  0.12500000000E+03 0.  0.
         21    1    1    2  503  504  0.38786345809E+02  0.81647554498E+02  0.19292768372E+02  0.92427889125E+02  0.00000000000E+00 0. -1.
         21    1    1    2  504  502  0.18310887313E+03 -0.17100641067E+02  0.29946161362E+03  0.35142360390E+03  0.00000000000E+00 0. -1.
<mgrwt>
<rscale>  4 0.25622433E+03</rscale>
<asrwt>0</asrwt>
<pdfrwt beam="1">  1       21 0.65907353E-01 0.25622433E+03</pdfrwt>
<pdfrwt beam="2">  1       21 0.65997455E-01 0.25622433E+03</pdfrwt>
<totfact> 0.42614870E+03</totfact>
</mgrwt>
</event>
<event>
 5    0  0.1814147E+000  0.3304280E+03  0.7546771E-02  0.1070948E+00
         21   -1    0    0  503  501  0.00000000000E+00  0.00000000000E+00  0.58772591321E+03  0.58772591321E+03  0.00000000000E+00 0. -1.
         21   -1    0    0  504  502 -0.00000000000E+00 -0.00000000000E+00 -0.80216588896E+03  0.80216588896E+03  0.00000000000E+00 0. -1.
         25    1    1    2    0    0 -0.11235047680E+02  0.28828894028E+03 -0.55635942740E+03  0.63905989691E+03  0.12500000000E+03 0.  0.
         21    1    1    2  503  502  0.14688269063E+03 -0.42592736441E+03  0.14107054526E+03  0.47211179111E+03  0.00000000000E+00 0. -1.
         21    1    1    2  504  501 -0.13564764295E+03  0.13763842414E+03  0.20084890638E+03  0.27872011415E+03  0.00000000000E+00 0. -1.
<mgrwt>
<rscale>  4 0.33042801E+03</rscale>
<asrwt>0</asrwt>
<pdfrwt beam="1">  1       21 0.90419372E-01 0.33042801E+03</pdfrwt>
<pdfrwt beam="2">  1       21 0.12341014E+00 0.33042801E+03</pdfrwt>
<totfact> 0.45512407E+02</totfact>
</mgrwt>
</event>
<event>
 5    0  0.1814147E+000  0.2359609E+03  0.7546771E-02  0.1122513E+00
         21   -1    0    0  503  501  0.00000000000E+00  0.00000000000E+00  0.10620743442E+04  0.10620743442E+04  0.00000000000E+00 0.  1.
         21   -1    0    0  501  502 -0.00000000000E+00 -0.00000000000E+00 -0.82657198176E+02  0.82657198176E+02  0.00000000000E+00 0.  1.
         25    1    1    2    0    0 -0.11465893719E+01  0.20578962546E+03  0.22029086951E+03  0.32634912564E+03  0.12500000000E+03 0.  0.
         21    1    1    2  503  504 -0.92283486656E+02 -0.23728693300E+02  0.32060029341E+03  0.33446052223E+03  0.00000000000E+00 0.  1.
         21    1    1    2  504  502  0.93430076028E+02 -0.18206093216E+03  0.43852598312E+03  0.48392189452E+03  0.00000000000E+00 0.  1.
<mgrwt>
<rscale>  4 0.23596087E+03</rscale>
<asrwt>0</asrwt>
<pdfrwt beam="1">  1       21 0.16339604E+00 0.23596087E+03</pdfrwt>
<pdfrwt beam="2">  1       21 0.12716493E-01 0.23596087E+03</pdfrwt>
<totfact> 0.12198690E+04</totfact>
</mgrwt>
</event>
<event>
 5    0  0.1814147E+000  0.2964727E+03  0.7546771E-02  0.1087017E+00
         21   -1    0    0  502  501  0.00000000000E+00  0.00000000000E+00  0.61202429339E+02  0.61202429339E+02  0.00000000000E+00 0. -1.
         21   -1    0    0  504  502 -0.00000000000E+00 -0.00000000000E+00 -0.14765781929E+04  0.14765781929E+04  0.00000000000E+00 0.  1.
         25    1    1    2    0    0  0.19311101871E+03  0.18702728114E+03 -0.91146535165E+03  0.95847021690E+03  0.12500000000E+03 0.  0.
         21    1    1    2  503  501 -0.15214038694E+03 -0.18710941300E+03 -0.45916224301E+03  0.51863917628E+03  0.00000000000E+00 0. -1.
         21    1    1    2  504  503 -0.40970631769E+02  0.82131867053E-01 -0.44748168883E+02  0.60671229027E+02  0.00000000000E+00 0.  1.
<mgrwt>
<rscale>  4 0.29647271E+03</rscale>
<asrwt>0</asrwt>
<pdfrwt beam="1">  1       21 0.94157598E-02 0.29647271E+03</pdfrwt>
<pdfrwt beam="2">  1       21 0.22716584E+00 0.29647271E+03</pdfrwt>
<totfact> 0.75879031E+03</totfact>
</mgrwt>
</event>
<event>
 5    0  0.1814147E+000  0.2684193E+03  0.7546771E-02  0.1102188E+00
         21   -1    0    0  503  501  0.00000000000E+00  0.00000000000E+00  0.11612508140E+03  0.11612508140E+03  0.00000000000E+00 0. -1.
         21   -1    0    0  504  502 -0.00000000000E+00 -0.00000000000E+00 -0.73398473666E+03  0.73398473666E+03  0.00000000000E+00 0. -1.
         25    1    1    2    0    0  0.16636768113E+03  0.13794751543E+03 -0.15657016576E+03  0.29469804741E+03  0.12500000000E+03 0.  0.
         21    1    1    2  503  502 -0.18733672018E+03 -0.16121218125E+03 -0.46214235122E+03  0.52408011497E+03  0.00000000000E+00 0. -1.
         21    1    1    2  504  501  0.20969039049E+02  0.23264665823E+02  0.85286171778E+00  0.31331655679E+02  0.00000000000E+00 0. -1.
<mgrwt>
<rscale>  4 0.26841927E+03</rscale>
<asrwt>0</asrwt>
<pdfrwt beam="1">  1       21 0.17865397E-01 0.26841927E+03</pdfrwt>
<pdfrwt beam="2">  1       21 0.11292073E+00 0.26841927E+03</pdfrwt>
<totfact> 0.16710202E+04</totfact>
</mgrwt>
</event>
<event>
 5    0  0.1814147E+000  0.2277058E+03  0.7546771E-02  0.1128265E+00
         21   -1    0    0  502  501  0.00000000000E+00  0.00000000000E+00  0.14562010698E+03  0.14562010698E+03  0.00000000000E+00 0.  1.
         21   -1    0    0  503  502 -0.00000000000E+00 -0.00000000000E+00 -0.61491872478E+03  0.61491872478E+03  0.00000000000E+00 0.  1.
         25    1    1    2    0    0  0.20165343251E+03  0.57147803318E+02 -0.34986596468E+03  0.42656907003E+03  0.12500000000E+03 0.  0.
         21    1    1    2  503  504 -0.27244690531E+02  0.85834435268E+01 -0.14324991137E+03  0.14607013991E+03  0.00000000000E+00 0. -1.
         21    1    1    2  504  501 -0.17440874197E+03 -0.65731246845E+02  0.23817258250E+02  0.18789962182E+03  0.00000000000E+00 0.  1.
<mgrwt>
<rscale>  4 0.22770583E+03</rscale>
<asrwt>0</asrwt>
<pdfrwt beam="1">  1       21 0.22403094E-01 0.22770583E+03</pdfrwt>
<pdfrwt beam="2">  1       21 0.94602880E-01 0.22770583E+03</pdfrwt>
<totfact> 0.17082084E+04</totfact>
</mgrwt>
</event>
<event>
 5    0  0.1814147E+000  0.2393198E+03  0.7546771E-02  0.1120247E+00
         21   -1    0    0  503  501  0.00000000000E+00  0.00000000000E+00  0.18753865427E+03  0.18753865427E+03  0.00000000000E+00 0.  1.
         21   -1    0    0  504  502 -0.00000000000E+00 -0.00000000000E+00 -0.72875225958E+03  0.72875225958E+03  0.00000000000E+00 0.  1.
         25    1    1    2    0    0  0.22436109925E+03 -0.58120889815E+02 -0.56162084420E+03  0.62028937870E+03  0.12500000000E+03 0.  0.
         21    1    1    2  503  502 -0.10318517584E+03  0.11811762079E+03 -0.10866768846E+02  0.15721653705E+03  0.00000000000E+00 0.  1.
         21    1    1    2  504  501 -0.12117592340E+03 -0.59996730979E+02  0.31274007728E+02  0.13878499811E+03  0.00000000000E+00 0.  1.
<mgrwt>
<rscale>  4 0.23931982E+03</rscale>
<asrwt>0</asrwt>
<pdfrwt beam="1">  1       21 0.28852101E-01 0.23931982E+03</pdfrwt>
<pdfrwt beam="2">  1       21 0.11211573E+00 0.23931982E+03</pdfrwt>
<totfact> 0.69379618E+03</totfact>
</mgrwt>
</event>
<event>
 5    0  0.1814147E+000  0.2599810E+03  0.7546771E-02  0.1107155E+00
         21   -1    0    0  503  501  0.00000000000E+00  0.00000000000E+00  0.40159967132E+03  0.40159967132E+03  0.00000000000E+00 0. -1.
         21   -1    0    0  504  502 -0.00000000000E+00 -0.00000000000E+00 -0.55714920283E+03  0.55714920283E+03  0.00000000000E+00 0. -1.
         25    1    1    2    0    0  0.21770453944E+03 -0.39523327193E+02 -0.42925703424E+03  0.49884262181E+03  0.12500000000E+03 0.  0.
         21    1    1    2  503  502 -0.27345543065E+03  0.94402274287E+02  0.23452167490E+03  0.37241116786E+03  0.00000000000E+00 0. -1.
         21    1    1    2  504  501  0.55750891211E+02 -0.54878947094E+02  0.39185827831E+02  0.87495084478E+02  0.00000000000E+00 0.  1.
<mgrwt>
<rscale>  4 0.25998103E+03</rscale>
<asrwt>0</asrwt>
<pdfrwt beam="1">  1       21 0.61784565E-01 0.25998103E+03</pdfrwt>
<pdfrwt beam="2">  1       21 0.85715262E-01 0.25998103E+03</pdfrwt>
<totfact> 0.27173386E+03</totfact>
</mgrwt>
</event>
<event>
 5    0  0.1814147E+000  0.3191913E+03  0.7546771E-02  0.1076022E+00
         21   -1    0    0  503  501  0.00000000000E+00  0.00000000000E+00  0.14695960015E+03  0.14695960015E+03  0.00000000000E+00 0. -1.
         21   -1    0    0  501  502 -0.00000000000E+00 -0.00000000000E+00 -0.18869866819E+04  0.18869866819E+04  0.00000000000E+00 0. -1.
         25    1    1    2    0    0 -0.17327306929E+03  0.19448079758E+03 -0.10930477377E+04  0.11305859959E+04  0.12500000000E+03 0.  0.
         21    1    1    2  503  504 -0.90411764385E+02  0.83823479182E+02  0.28612320672E+02  0.12656748277E+03  0.00000000000E+00 0. -1.
         21    1    1    2  504  502  0.26368483368E+03 -0.27830427676E+03 -0.67559166466E+03  0.77679280334E+03  0.00000000000E+00 0. -1.
<mgrwt>
<rscale>  4 0.31919126E+03</rscale>
<asrwt>0</asrwt>
<pdfrwt beam="1">  1       21 0.22609167E-01 0.31919126E+03</pdfrwt>
<pdfrwt beam="2">  1       21 0.29030567E+00 0.31919126E+03</pdfrwt>
<totfact> 0.62264195E+02</totfact>
</mgrwt>
</event>
<event>
 5    0  0.1814147E+000  0.2315081E+03  0.7546771E-02  0.1125583E+00
         21   -1    0    0  503  501  0.00000000000E+00  0.00000000000E+00  0.63331124037E+03  0.63331124037E+03  0.00000000000E+00 0.  1.
         21   -1    0    0  504  502 -0.00000000000E+00 -0.00000000000E+00 -0.35901183525E+03  0.35901183525E+03  0.00000000000E+00 0.  1.
         25    1    1    2    0    0 -0.10078661414E+03 -0.17377968532E+03 -0.17390961338E+03  0.29364412857E+03  0.12500000000E+03 0.  0.
         21    1    1    2  503  502  0.75220796184E+02  0.17273220593E+03 -0.53868392063E+02  0.19594995996E+03  0.00000000000E+00 0.  1.
         21    1    1    2  504  501  0.25565817957E+02  0.10474793851E+01  0.50207741057E+03  0.50272898709E+03  0.00000000000E+00 0.  1.
<mgrwt>
<rscale>  4 0.23150809E+03</rscale>
<asrwt>0</asrwt>
<pdfrwt beam="1">  1       21 0.97432499E-01 0.23150809E+03</pdfrwt>
<pdfrwt beam="2">  1       21 0.55232590E-01 0.23150809E+03</pdfrwt>
<totfact> 0.26140500E+03</totfact>
</mgrwt>
</event>
<event>
 5    0  0.1814147E+000  0.2883850E+03  0.7546771E-02  0.1091195E+00
         21   -1    0    0  502  501  0.00000000000E+00  0.00000000000E+00  0.17515599143E+04  0.17515599143E+04  0.00000000000E+00 0.  1.
         21   -1    0    0  503  502 -0.00000000000E+00 -0.00000000000E+00 -0.87002962762E+02  0.87002962762E+02  0.00000000000E+00 0. -1.
         25    1    1    2    0    0  0.14384088047E+03  0.17594513572E+03  0.18497995785E+03  0.31857412714E+03  0.12500000000E+03 0.  0.
         21    1    1    2  503  504 -0.15682083585E+02  0.58117576017E+02  0.11754852387E+03  0.13206527118E+03  0.00000000000E+00 0.  1.
         21    1    1    2  504  501 -0.12815879689E+03 -0.23406271173E+03  0.13620284698E+04  0.13879234787E+04  0.00000000000E+00 0.  1.
<mgrwt>
<rscale>  4 0.28838500E+03</rscale>
<asrwt>0</asrwt>
<pdfrwt beam="1">  1       21 0.26947073E+00 0.28838500E+03</pdfrwt>
<pdfrwt beam="2">  1       21 0.13385073E-01 0.28838500E+03</pdfrwt>
<totfact> 0.22517419E+03</totfact>
</mgrwt>
</event>
<event>
 5    0  0.1814147E+000  0.2678526E+03  0.7546771E-02  0.1102515E+00
         21   -1    0    0  503  501  0.00000000000E+00  0.00000000000E+00  0.18563000866E+04  0.18563000866E+04  0.00000000000E+00 0. -1.
         21   -1    0    0  501  502 -0.00000000000E+00 -0.00000000000E+00 -0.81780579054E+02  0.81780579054E+02  0.00000000000E+00 0. -1.
         25    1    1    2    0    0 -0.18254617095E+03  0.14448368072E+03  0.18945546398E+03  0.32514152512E+03  0.12500000000E+03 0.  0.
         21    1    1    2  503  504 -0.30416079843E+02 -0.13376724071E+00  0.35256039282E+03  0.35387001341E+03  0.00000000000E+00 0. -1.
         21    1    1    2  504  502  0.21296225079E+03 -0.14434991348E+03  0.12325036508E+04  0.12590691271E+04  0.00000000000E+00 0. -1.
<mgrwt>
<rscale>  4 0.26785263E+03</rscale>
<asrwt>0</asrwt>
<pdfrwt beam="1">  1       21 0.28558460E+00 0.26785263E+03</pdfrwt>
<pdfrwt beam="2">  1       21 0.12581629E-01 0.26785263E+03</pdfrwt>
<totfact> 0.20597081E+03</totfact>
</mgrwt>
</event>
<event>
 5    0  0.1814147E+000  0.2759300E+03  0.7546771E-02  0.1097933E+00
         21   -1    0    0  503  501  0.00000000000E+00  0.00000000000E+00  0.27839358954E+03  0.27839358954E+03  0.00000000000E+00 0. -1.
         21   -1    0    0  501  502 -0.00000000000E+00 -0.00000000000E+00 -0.50519328535E+03  0.50519328535E+03  0.00000000000E+00 0. -1.
         25    1    1    2    0    0  0.13785777389E+03  0.19797664911E+03 -0.24141244887E+03  0.36346181352E+03  0.12500000000E+03 0.  0.
         21    1    1    2  503  504 -0.34932151568E+02  0.35357124901E+02  0.13076592565E+03  0.13989320500E+03  0.00000000000E+00 0. -1.
         21    1    1    2  504  502 -0.10292562232E+03 -0.23333377401E+03 -0.11615317259E+03  0.28023185637E+03  0.00000000000E+00 0. -1.
<mgrwt>
<rscale>  4 0.27593003E+03</rscale>
<asrwt>0</asrwt>
<pdfrwt beam="1">  1       21 0.42829784E-01 0.27593003E+03</pdfrwt>
<pdfrwt beam="2">  1       21 0.77722042E-01 0.27593003E+03</pdfrwt>
<totfact> 0.73050447E+03</totfact>
</mgrwt>
</event>
<event>
 5    0  0.1814147E+000  0.2337138E+03  0.7546771E-02  0.1124053E+00
         21   -1    0    0  503  501  0.00000000000E+00  0.00000000000E+00  0.87982402265E+03  0.87982402265E+03  0.00000000000E+00 0.  1.
         21   -1    0    0  504  502 -0.00000000000E+00 -0.00000000000E+00 -0.97158041587E+02  0.97158041587E+02  0.00000000000E+00 0. -1.
         25    1    1    2    0    0  0.22171063313E+03  0.10604398717E+02  0.59063394828E+03  0.64322742400E+03  0.12500000000E+03 0.  0.
         21    1    1    2  503  502 -0.19114109466E+03 -0.20318737964E+02  0.65270121869E+02  0.20299743345E+03  0.00000000000E+00 0. -1.
         21    1    1    2  504  501 -0.30569538476E+02  0.97143392474E+01  0.12676191091E+03  0.13075720679E+03  0.00000000000E+00 0.  1.
<mgrwt>
<rscale>  4 0.23371379E+03</rscale>
<asrwt>0</asrwt>
<pdfrwt beam="1">  1       21 0.13535754E+00 0.23371379E+03</pdfrwt>
<pdfrwt beam="2">  1       21 0.14947392E-01 0.23371379E+03</pdfrwt>
<totfact> 0.15000212E+04</totfact>
</mgrwt>
</event>
<event>
 5    0  0.1814147E+000  0.2591327E+03  0.7546771E-02  0.1107665E+00
         21   -1    0    0  503  501  0.00000000000E+00  0.00000000000E+00  0.73488333439E+03  0.73488333439E+03  0.00000000000E+00 0.  1.
         21   -1    0    0  501  502 -0.00000000000E+00 -0.00000000000E+00 -0.10132712144E+04  0.10132712144E+04  0.00000000000E+00 0. -1.
         25    1    1    2    0    0  0.20783041478E+03 -0.94685132758E+02 -0.95533494870E+03  0.99017605499E+03  0.12500000000E+03 0.  0.
         21    1    1    2  503  504 -0.13960432959E+03  0.11076146033E+03  0.66297097422E+03  0.68650417522E+03  0.00000000000E+00 0.  1.
         21    1    1    2  504  502 -0.68226085191E+02 -0.16076327572E+02  0.13976094425E+02  0.71474318633E+02  0.00000000000E+00 0. -1.
<mgrwt>
<rscale>  4 0.25913267E+03</rscale>
<asrwt>0</asrwt>
<pdfrwt beam="1">  1       21 0.11305898E+00 0.25913267E+03</pdfrwt>
<pdfrwt beam="2">  1       21 0.15588788E+00 0.25913267E+03</pdfrwt>
<totfact> 0.15283789E+02</totfact>
</mgrwt>
</event>
<event>
 5    0  0.1814147E+000  0.2697807E+03  0.7546771E-02  0.1101405E+00
         21   -1    0    0  502  501  0.00000000000E+00  0.00000000000E+00  0.80090868719E+03  0.80090868719E+03  0.00000000000E+00 0.  1.
         21   -1    0    0  503  502 -0.00000000000E+00 -0.00000000000E+00 -0.19976919424E+03  0.19976919424E+03  0.00000000000E+00 0. -1.
         25    1    1    2    0    0 -0.25500594014E+03 -0.88503666903E+02 -0.13200957143E+02  0.29775861672E+03  0.12500000000E+03 0.  0.
         21    1    1    2  503  504  0.10219466628E+03  0.12717103995E+03  0.43262273787E+03  0.46236204055E+03  0.00000000000E+00 0.  1.
         21    1    1    2  504  501  0.15281127387E+03 -0.38667373050E+02  0.18171771222E+03  0.24055722416E+03  0.00000000000E+00 0.  1.
<mgrwt>
<rscale>  4 0.26978072E+03</rscale>
<asrwt>0</asrwt>
<pdfrwt beam="1">  1       21 0.12321672E+00 0.26978072E+03</pdfrwt>
<pdfrwt beam="2">  1       21 0.30733723E-01 0.26978072E+03</pdfrwt>
<totfact> 0.47604906E+03</totfact>
</mgrwt>
</event>
<event>
 5    0  0.1814147E+000  0.2781691E+03  0.7546771E-02  0.1096693E+00
         21   -1    0    0  503  501  0.00000000000E+00  0.00000000000E+00  0.41072087839E+03  0.41072087839E+03  0.00000000000E+00 0. -1.
         21   -1    0    0  504  502 -0.00000000000E+00 -0.00000000000E+00 -0.12995332199E+04  0.12995332199E+04  0.00000000000E+00 0. -1.
         25    1    1    2    0    0  0.18444162745E+01 -0.24478187886E+03 -0.11756826155E+04  0.12073840244E+04  0.12500000000E+03 0.  0.
         21    1    1    2  503  502 -0.23142259227E+02  0.29954822126E+03  0.11579330080E+03  0.32198259197E+03  0.00000000000E+00 0. -1.
         21    1    1    2  504  501  0.21297842953E+02 -0.54766342393E+02  0.17107697316E+03  0.18088748193E+03  0.00000000000E+00 0. -1.
<mgrwt>
<rscale>  4 0.27816914E+03</rscale>
<asrwt>0</asrwt>
<pdfrwt beam="1">  1       21 0.63187829E-01 0.27816914E+03</pdfrwt>
<pdfrwt beam="2">  1       21 0.19992818E+00 0.27816914E+03</pdfrwt>
<totfact> 0.28414187E+02</totfact>
</mgrwt>
</event>
<event>
 5    0  0.1814147E+000  0.2468560E+03  0.7546771E-02  0.1115308E+00
         21   -1    0    0  503  501  0.00000000000E+00  0.00000000000E+00  0.40043446018E+03  0.40043446018E+03  0.00000000000E+00 0.  1.
         21   -1    0    0  504  502 -0.00000000000E+00 -0.00000000000E+00 -0.30121172893E+03  0.30121172893E+03  0.00000000000E+00 0.  1.
         25    1    1    2    0    0 -0.14790393435E+03  0.17692658326E+03 -0.11055345821E+03  0.28465006022E+03  0.12500000000E+03 0.  0.
         21    1    1    2  503  502  0.15417164307E+03 -0.12066163326E+03 -0.40346117266E+01  0.19581727032E+03  0.00000000000E+00 0.  1.
         21    1    1    2  504  501 -0.62677087189E+01 -0.56264950004E+02  0.21381080119E+03  0.22117885857E+03  0.00000000000E+00 0.  1.
<mgrwt>
<rscale>  4 0.24685603E+03</rscale>
<asrwt>0</asrwt>
<pdfrwt beam="1">  1       21 0.61605301E-01 0.24685603E+03</pdfrwt>
<pdfrwt beam="2">  1       21 0.46340266E-01 0.24685603E+03</pdfrwt>
<totfact> 0.10559027E+04</totfact>
</mgrwt>
</event>
<event>
 5    0  0.1814147E+000  0.2698698E+03  0.7546771E-02  0.1101354E+00
         21   -1    0    0  503  501  0.00000000000E+00  0.00000000000E+00  0.66025822464E+02  0.66025822464E+02  0.00000000000E+00 0.  1.
         21   -1    0    0  501  502 -0.00000000000E+00 -0.00000000000E+00 -0.13699492659E+04  0.13699492659E+04  0.00000000000E+00 0.  1.
         25    1    1    2    0    0 -0.72360619454E+02  0.21340092916E+03 -0.67332480717E+03  0.72094889678E+03  0.12500000000E+03 0.  0.
         21    1    1    2  503  504 -0.70616414343E+02  0.46541725701E+01 -0.87189712920E+02  0.11229597204E+03  0.00000000000E+00 0.  1.
         21    1    1    2  504  502  0.14297703380E+03 -0.21805510173E+03 -0.54340892337E+03  0.60273021957E+03  0.00000000000E+00 0.  1.
<mgrwt>
<rscale>  4 0.26986981E+03</rscale>
<asrwt>0</asrwt>
<pdfrwt beam="1">  1       21 0.10157819E-01 0.26986981E+03</pdfrwt>
<pdfrwt beam="2">  1       21 0.21076143E+00 0.26986981E+03</pdfrwt>
<totfact> 0.85434407E+03</totfact>
</mgrwt>
</event>
<event>
 5    0  0.1814147E+000  0.2044097E+03  0.7546771E-02  0.1146071E+00
         21   -1    0    0  503  501  0.00000000000E+00  0.00000000000E+00  0.33263718543E+03  0.33263718543E+03  0.00000000000E+00 0.  1.
         21   -1    0    0  504  502 -0.00000000000E+00 -0.00000000000E+00 -0.43631292836E+03  0.43631292836E+03  0.00000000000E+00 0.  1.
         25    1    1    2    0    0  0.13802362046E+03  0.14532526324E+03 -0.24744687956E+03  0.34208903833E+03  0.12500000000E+03 0.  0.
         21    1    1    2  503  502 -0.42294436382E+02 -0.18529439702E+02 -0.11459902405E+03  0.12355199634E+03  0.00000000000E+00 0.  1.
         21    1    1    2  504  501 -0.95729184073E+02 -0.12679582354E+03  0.25837016068E+03  0.30330907912E+03  0.00000000000E+00 0.  1.
<mgrwt>
<rscale>  4 0.20440967E+03</rscale>
<asrwt>0</asrwt>
<pdfrwt beam="1">  1       21 0.51174952E-01 0.20440967E+03</pdfrwt>
<pdfrwt beam="2">  1       21 0.67125066E-01 0.20440967E+03</pdfrwt>
<totfact> 0.73122546E+03</totfact>
</mgrwt>
</event>
<event>
 5    0  0.1814147E+000  0.3826495E+03  0.7546771E-02  0.1049959E+00
         21   -1    0    0  502  501  0.00000000000E+00  0.00000000000E+00  0.26117155883E+03  0.26117155883E+03  0.00000000000E+00 0. -1.
         21   -1    0    0  504  502 -0.00000000000E+00 -0.00000000000E+00 -0.72185224256E+03  0.72185224256E+03  0.00000000000E+00 0. -1.
         25    1    1    2    0    0 -0.58561827875E+02  0.35785747888E+03 -0.46341673362E+03  0.60155758816E+03  0.12500000000E+03 0.  0.
         21    1    1    2  503  501  0.79073483596E+02 -0.35077987760E+03  0.52688408773E+01  0.35962049305E+03  0.00000000000E+00 0. -1.
         21    1    1    2  504  503 -0.20511655720E+02 -0.70776012796E+01 -0.25327909793E+01  0.21845720185E+02  0.00000000000E+00 0.  1.
<mgrwt>
<rscale>  4 0.38264948E+03</rscale>
<asrwt>0</asrwt>
<pdfrwt beam="1">  1       21 0.40180241E-01 0.38264948E+03</pdfrwt>
<pdfrwt beam="2">  1       21 0.11105419E+00 0.38264948E+03</pdfrwt>
<totfact> 0.34022492E+03</totfact>
</mgrwt>
</event>
<event>
 5    0  0.1814147E+000  0.4369189E+03  0.7546771E-02  0.1031696E+00
         21   -1    0    0  503  501  0.00000000000E+00  0.00000000000E+00  0.37851254381E+03  0.37851254381E+03  0.00000000000E+00 0.  1.
         21   -1    0    0  501  502 -0.00000000000E+00 -0.00000000000E+00 -0.94178077394E+03  0.94178077394E+03  0.00000000000E+00 0.  1.
         25    1    1    2    0    0  0.65125691677E+02 -0.41594759553E+03 -0.69728345147E+03  0.82406490620E+03  0.12500000000E+03 0.  0.
         21    1    1    2  503  504 -0.26249587134E+02  0.73098827078E+01  0.77156161080E+02  0.81826330741E+02  0.00000000000E+00 0.  1.
         21    1    1    2  504  502 -0.38876104543E+02  0.40863771282E+03  0.56859060263E+02  0.41440208081E+03  0.00000000000E+00 0.  1.
<mgrwt>
<rscale>  4 0.43691894E+03</rscale>
<asrwt>0</asrwt>
<pdfrwt beam="1">  1       21 0.58232699E-01 0.43691894E+03</pdfrwt>
<pdfrwt beam="2">  1       21 0.14488935E+00 0.43691894E+03</pdfrwt>
<totfact> 0.76480186E+02</totfact>
</mgrwt>
</event>
<event>
 5    0  0.1814147E+000  0.2408966E+03  0.7546771E-02  0.1119197E+00
         21   -1    0    0  503  501  0.00000000000E+00  0.00000000000E+00  0.13991542728E+04  0.13991542728E+04  0.00000000000E+00 0.  1.
         21   -1    0    0  501  502 -0.00000000000E+00 -0.00000000000E+00 -0.11870718959E+03  0.11870718959E+03  0.00000000000E+00 0.  1.
         25    1    1    2    0    0  0.17007207753E+03  0.11760659571E+03  0.52970453547E+02  0.24735943858E+03  0.12500000000E+03 0.  0.
         21    1    1    2  503  504  0.50913801595E+02 -0.90231243663E+02  0.44949411328E+03  0.46127957943E+03  0.00000000000E+00 0.  1.
         21    1    1    2  504  502 -0.22098587912E+03 -0.27375352044E+02  0.77798251635E+03  0.80922244433E+03  0.00000000000E+00 0.  1.
<mgrwt>
<rscale>  4 0.24089655E+03</rscale>
<asrwt>0</asrwt>
<pdfrwt beam="1">  1       21 0.21525449E+00 0.24089655E+03</pdfrwt>
<pdfrwt beam="2">  1       21 0.18262646E-01 0.24089655E+03</pdfrwt>
<totfact> 0.28114851E+03</totfact>
</mgrwt>
</event>
<event>
 5    0  0.1814147E+000  0.2404570E+03  0.7546771E-02  0.1119489E+00
         21   -1    0    0  503  501  0.00000000000E+00  0.00000000000E+00  0.39464415514E+03  0.39464415514E+03  0.00000000000E+00 0.  1.
         21   -1    0    0  504  502 -0.00000000000E+00 -0.00000000000E+00 -0.24457139946E+03  0.24457139946E+03  0.00000000000E+00 0.  1.
         25    1    1    2    0    0 -0.50794620135E+02  0.21471468661E+03 -0.10268608062E+03  0.27359079158E+03  0.12500000000E+03 0.  0.
         21    1    1    2  503  502 -0.21414775780E+02 -0.25100504868E+02 -0.92243234291E+01  0.34259540409E+02  0.00000000000E+00 0. -1.
         21    1    1    2  504  501  0.72209395914E+02 -0.18961418174E+03  0.26198315974E+03  0.33136522262E+03  0.00000000000E+00 0.  1.
<mgrwt>
<rscale>  4 0.24045700E+03</rscale>
<asrwt>0</asrwt>
<pdfrwt beam="1">  1       21 0.60714485E-01 0.24045700E+03</pdfrwt>
<pdfrwt beam="2">  1       21 0.37626369E-01 0.24045700E+03</pdfrwt>
<totfact> 0.16739197E+04</totfact>
</mgrwt>
</event>
<event>
 5    0  0.1814147E+000  0.1833903E+03  0.7546771E-02  0.1164562E+00
         21   -1    0    0  503  501  0.00000000000E+00  0.00000000000E+00  0.31132780519E+03  0.31132780519E+03  0.00000000000E+00 0.  1.
         21   -1    0    0  501  502 -0.00000000000E+00 -0.00000000000E+00 -0.12153590584E+04  0.12153590584E+04  0.00000000000E+00 0.  1.
         25    1    1    2    0    0  0.17330808199E+03 -0.10034616925E+03  0.11423281957E+03  0.26225785409E+03  0.12500000000E+03 0.  0.
         21    1    1    2  503  504 -0.96860608847E+02 -0.87098090607E+01  0.99280539023E+02  0.13897648632E+03  0.00000000000E+00 0.  1.
         21    1    1    2  504  502 -0.76447473143E+02  0.10905597831E+03 -0.11175446118E+04  0.11254525232E+04  0.00000000000E+00 0.  1.
<mgrwt>
<rscale>  4 0.18339031E+03</rscale>
<asrwt>0</asrwt>
<pdfrwt beam="1">  1       21 0.47896585E-01 0.18339031E+03</pdfrwt>
<pdfrwt beam="2">  1       21 0.18697832E+00 0.18339031E+03</pdfrwt>
<totfact> 0.68796607E+02</totfact>
</mgrwt>
</event>
<event>
 5    0  0.1814147E+000  0.2853538E+03  0.7546771E-02  0.1092800E+00
         21   -1    0    0  503  501  0.00000000000E+00  0.00000000000E+00  0.35852725524E+03  0.35852725524E+03  0.00000000000E+00 0. -1.
         21   -1    0    0  501  502 -0.00000000000E+00 -0.00000000000E+00 -0.13513054704E+04  0.13513054704E+04  0.00000000000E+00 0. -1.
         25    1    1    2    0    0  0.20890800006E+02 -0.20814115547E+03 -0.18105193285E+01  0.24369539205E+03  0.12500000000E+03 0.  0.
         21    1    1    2  503  504 -0.22337297867E+02 -0.53986298824E+02  0.21974154683E+03  0.22737595022E+03  0.00000000000E+00 0. -1.
         21    1    1    2  504  502  0.14464978610E+01  0.26212745430E+03 -0.12107092427E+04  0.12387613834E+04  0.00000000000E+00 0. -1.
<mgrwt>
<rscale>  4 0.28535383E+03</rscale>
<asrwt>0</asrwt>
<pdfrwt beam="1">  1       21 0.55158038E-01 0.28535383E+03</pdfrwt>
<pdfrwt beam="2">  1       21 0.20789316E+00 0.28535383E+03</pdfrwt>
<totfact> 0.33641812E+02</totfact>
</mgrwt>
</event>
<event>
 5    0  0.1814147E+000  0.4236167E+03  0.7546771E-02  0.1035896E+00
         21   -1    0    0  502  501  0.00000000000E+00  0.00000000000E+00  0.64624710344E+03  0.64624710344E+03  0.00000000000E+00 0. -1.
         21   -1    0    0  503  502 -0.00000000000E+00 -0.00000000000E+00 -0.77940116183E+03  0.77940116183E+03  0.00000000000E+00 0. -1.
         25    1    1    2    0    0  0.36222296572E+03 -0.17673740295E+03 -0.59875006940E+03  0.73250817886E+03  0.12500000000E+03 0.  0.
         21    1    1    2  503  504  0.49403390772E+02  0.70485019215E+02  0.55223541117E+02  0.10226667320E+03  0.00000000000E+00 0.  1.
         21    1    1    2  504  501 -0.41162635649E+03  0.10625238373E+03  0.41037246989E+03  0.59087341322E+03  0.00000000000E+00 0. -1.
<mgrwt>
<rscale>  4 0.42361672E+03</rscale>
<asrwt>0</asrwt>
<pdfrwt beam="1">  1       21 0.99422631E-01 0.42361672E+03</pdfrwt>
<pdfrwt beam="2">  1       21 0.11990787E+00 0.42361672E+03</pdfrwt>
<totfact> 0.37031375E+02</totfact>
</mgrwt>
</event>
<event>
 5    0  0.1814147E+000  0.2702652E+03  0.7546771E-02  0.1101128E+00
         21   -1    0    0  502  501  0.00000000000E+00  0.00000000000E+00  0.58901196591E+03  0.58901196591E+03  0.00000000000E+00 0. -1.
         21   -1    0    0  504  502 -0.00000000000E+00 -0.00000000000E+00 -0.33338445131E+03  0.33338445131E+03  0.00000000000E+00 0. -1.
         25    1    1    2    0    0 -0.11146066920E+03 -0.21211978461E+03 -0.24479870606E+03  0.36465009295E+03  0.12500000000E+03 0.  0.
         21    1    1    2  503  501  0.38464938745E+02  0.13363851470E+03  0.27781978329E+03  0.31068092332E+03  0.00000000000E+00 0. -1.
         21    1    1    2  504  503  0.72995730457E+02  0.78481269910E+02  0.22260643736E+03  0.24706540095E+03  0.00000000000E+00 0. -1.
<mgrwt>
<rscale>  4 0.27026521E+03</rscale>
<asrwt>0</asrwt>
<pdfrwt beam="1">  1       21 0.90617225E-01 0.27026521E+03</pdfrwt>
<pdfrwt beam="2">  1       21 0.51289916E-01 0.27026521E+03</pdfrwt>
<totfact> 0.35343073E+03</totfact>
</mgrwt>
</event>
<event>
 5    0  0.1814147E+000  0.2670176E+03  0.7546771E-02  0.1102999E+00
         21   -1    0    0  503  501  0.00000000000E+00  0.00000000000E+00  0.92893355386E+03  0.92893355386E+03  0.00000000000E+00 0. -1.
         21   -1    0    0  501  502 -0.00000000000E+00 -0.00000000000E+00 -0.11683400795E+03  0.11683400795E+03  0.00000000000E+00 0. -1.
         25    1    1    2    0    0  0.18942365242E+03  0.11726148376E+03  0.13837510498E+03  0.29052408738E+03  0.12500000000E+03 0.  0.
         21    1    1    2  503  504  0.65068114067E+02 -0.18163705006E+02  0.15285949813E+03  0.16712212845E+03  0.00000000000E+00 0. -1.
         21    1    1    2  504  502 -0.25449176649E+03 -0.99097778757E+02  0.52086494280E+03  0.58812134599E+03  0.00000000000E+00 0. -1.
<mgrwt>
<rscale>  4 0.26701758E+03</rscale>
<asrwt>0</asrwt>
<pdfrwt beam="1">  1       21 0.14291285E+00 0.26701758E+03</pdfrwt>
<pdfrwt beam="2">  1       21 0.17974463E-01 0.26701758E+03</pdfrwt>
<totfact> 0.90913031E+03</totfact>
</mgrwt>
</event>
<event>
 5    0  0.1814147E+000  0.2976769E+03  0.7546771E-02  0.1086408E+00
         21   -1    0    0  502  501  0.00000000000E+00  0.00000000000E+00  0.10382830394E+04  0.10382830394E+04  0.00000000000E+00 0.  1.
         21   -1    0    0  503  502 -0.00000000000E+00 -0.00000000000E+00 -0.13177682127E+03  0.13177682127E+03  0.00000000000E+00 0.  1.
         25    1    1    2    0    0 -0.85672480732E+02 -0.26325758895E+03  0.60305255498E+03  0.67523456381E+03  0.12500000000E+03 0.  0.
         21    1    1    2  503  504 -0.90199246936E+02  0.55486340910E+02  0.32564107206E+02  0.11079286644E+03  0.00000000000E+00 0.  1.
         21    1    1    2  504  501  0.17587172767E+03  0.20777124804E+03  0.27088955597E+03  0.38403243046E+03  0.00000000000E+00 0.  1.
<mgrwt>
<rscale>  4 0.29767692E+03</rscale>
<asrwt>0</asrwt>
<pdfrwt beam="1">  1       21 0.15973585E+00 0.29767692E+03</pdfrwt>
<pdfrwt beam="2">  1       21 0.20273358E-01 0.29767692E+03</pdfrwt>
<totfact> 0.52911772E+03</totfact>
</mgrwt>
</event>
<event>
 5    0  0.1814147E+000  0.4816250E+03  0.7546771E-02  0.1018690E+00
         21   -1    0    0  502  501  0.00000000000E+00  0.00000000000E+00  0.32176788935E+03  0.32176788935E+03  0.00000000000E+00 0. -1.
         21   -1    0    0  504  502 -0.00000000000E+00 -0.00000000000E+00 -0.88558218900E+03  0.88558218900E+03  0.00000000000E+00 0. -1.
         25    1    1    2    0    0  0.41543630055E+03 -0.20305161671E+03 -0.47658895668E+03  0.67570652838E+03  0.12500000000E+03 0.  0.
         21    1    1    2  503  501 -0.39941546304E+03  0.25239567143E+03 -0.75798248253E+02  0.47852028328E+03  0.00000000000E+00 0. -1.
         21    1    1    2  504  503 -0.16020837512E+02 -0.49344054712E+02 -0.11427094721E+02  0.53123266689E+02  0.00000000000E+00 0.  1.
<mgrwt>
<rscale>  4 0.48162504E+03</rscale>
<asrwt>0</asrwt>
<pdfrwt beam="1">  1       21 0.49502753E-01 0.48162504E+03</pdfrwt>
<pdfrwt beam="2">  1       21 0.13624341E+00 0.48162504E+03</pdfrwt>
<totfact> 0.12544000E+03</totfact>
</mgrwt>
</event>
<event>
 5    0  0.1814147E+000  0.2364294E+03  0.7546771E-02  0.1122195E+00
         21   -1    0    0  503  501  0.00000000000E+00  0.00000000000E+00  0.10942459948E+04  0.10942459948E+04  0.00000000000E+00 0. -1.
         21   -1    0    0  504  502 -0.00000000000E+00 -0.00000000000E+00 -0.10992894318E+03  0.10992894318E+03  0.00000000000E+00 0. -1.
         25    1    1    2    0    0  0.41088336584E+02  0.19643216010E+03  0.44431297735E+02  0.24056804680E+03  0.12500000000E+03 0.  0.
         21    1    1    2  503  502  0.10856486448E+02 -0.10345281591E+03  0.39911584877E+03  0.41244855335E+03  0.00000000000E+00 0. -1.
         21    1    1    2  504  501 -0.51944823033E+02 -0.92979344194E+02  0.54076990507E+03  0.55115833779E+03  0.00000000000E+00 0. -1.
<mgrwt>
<rscale>  4 0.23642937E+03</rscale>
<asrwt>0</asrwt>
<pdfrwt beam="1">  1       21 0.16834553E+00 0.23642937E+03</pdfrwt>
<pdfrwt beam="2">  1       21 0.16912146E-01 0.23642937E+03</pdfrwt>
<totfact> 0.66732959E+03</totfact>
</mgrwt>
</event>
<event>
 5    0  0.1814147E+000  0.2622000E+03  0.7546771E-02  0.1105829E+00
         21   -1    0    0  502  501  0.00000000000E+00  0.00000000000E+00  0.11049639785E+04  0.11049639785E+04  0.00000000000E+00 0. -1.
         21   -1    0    0  504  502 -0.00000000000E+00 -0.00000000000E+00 -0.12778066283E+03  0.12778066283E+03  0.00000000000E+00 0. -1.
         25    1    1    2    0    0 -0.92796789505E+02  0.20887635180E+03  0.73078937757E+02  0.27056626846E+03  0.12500000000E+03 0.  0.
         21    1    1    2  503  501  0.13455178455E+03 -0.19761021540E+03  0.48369744107E+03  0.53955277263E+03  0.00000000000E+00 0. -1.
         21    1    1    2  504  503 -0.41754995043E+02 -0.11266136394E+02  0.42040693683E+03  0.42262560024E+03  0.00000000000E+00 0. -1.
<mgrwt>
<rscale>  4 0.26219996E+03</rscale>
<asrwt>0</asrwt>
<pdfrwt beam="1">  1       21 0.16999445E+00 0.26219996E+03</pdfrwt>
<pdfrwt beam="2">  1       21 0.19658564E-01 0.26219996E+03</pdfrwt>
<totfact> 0.48229474E+03</totfact>
</mgrwt>
</event>
<event>
 5    0  0.1814147E+000  0.4603967E+03  0.7546771E-02  0.1024666E+00
         21   -1    0    0  503  501  0.00000000000E+00  0.00000000000E+00  0.41846852698E+03  0.41846852698E+03  0.00000000000E+00 0.  1.
         21   -1    0    0  504  502 -0.00000000000E+00 -0.00000000000E+00 -0.81870983962E+03  0.81870983962E+03  0.00000000000E+00 0.  1.
         25    1    1    2    0    0  0.34318814569E+03  0.27775110792E+03 -0.56545578866E+03  0.72820946864E+03  0.12500000000E+03 0.  0.
         21    1    1    2  503  502 -0.33224921702E+03 -0.30306858318E+03  0.13845783839E+03  0.47054296438E+03  0.00000000000E+00 0.  1.
         21    1    1    2  504  501 -0.10938928670E+02  0.25317475257E+02  0.26756637631E+02  0.38425933576E+02  0.00000000000E+00 0.  1.
<mgrwt>
<rscale>  4 0.46039670E+03</rscale>
<asrwt>0</asrwt>
<pdfrwt beam="1">  1       21 0.64379774E-01 0.46039670E+03</pdfrwt>
<pdfrwt beam="2">  1       21 0.12595536E+00 0.46039670E+03</pdfrwt>
<totfact> 0.87712441E+02</totfact>
</mgrwt>
</event>
<event>
 5    0  0.1814147E+000  0.2782262E+03  0.7546771E-02  0.1096662E+00
         21   -1    0    0  503  501  0.00000000000E+00  0.00000000000E+00  0.12416505081E+04  0.12416505081E+04  0.00000000000E+00 0. -1.
         21   -1    0    0  501  502 -0.00000000000E+00 -0.00000000000E+00 -0.83016914127E+02  0.83016914127E+02  0.00000000000E+00 0. -1.
         25    1    1    2    0    0 -0.15472397321E+03  0.21218002165E+03  0.47111974777E+03  0.55365935937E+03  0.12500000000E+03 0.  0.
         21    1    1    2  503  504  0.26420141411E+02 -0.10226183244E+02  0.38154678755E+03  0.38259711158E+03  0.00000000000E+00 0. -1.
         21    1    1    2  504  502  0.12830383180E+03 -0.20195383841E+03  0.30596705867E+03  0.38841095131E+03  0.00000000000E+00 0. -1.
<mgrwt>
<rscale>  4 0.27822616E+03</rscale>
<asrwt>0</asrwt>
<pdfrwt beam="1">  1       21 0.19102314E+00 0.27822616E+03</pdfrwt>
<pdfrwt beam="2">  1       21 0.12771834E-01 0.27822616E+03</pdfrwt>
<totfact> 0.75727916E+03</totfact>
</mgrwt>
</event>
<event>
 5    0  0.1814147E+000  0.2343005E+03  0.7546771E-02  0.1123649E+00
         21   -1    0    0  503  501  0.00000000000E+00  0.00000000000E+00  0.12642801303E+04  0.12642801303E+04  0.00000000000E+00 0. -1.
         21   -1    0    0  504  502 -0.00000000000E+00 -0.00000000000E+00 -0.88014120938E+02  0.88014120938E+02  0.00000000000E+00 0.  1.
         25    1    1    2    0    0 -0.33833110504E+02 -0.21161662928E+03  0.95088608181E+03  0.98271848346E+03  0.12500000000E+03 0.  0.
         21    1    1    2  503  502  0.39697363756E+02  0.19189242063E+03  0.62907713733E+02  0.20580564188E+03  0.00000000000E+00 0.  1.
         21    1    1    2  504  501 -0.58642532516E+01  0.19724208655E+02  0.16247221379E+03  0.16377012587E+03  0.00000000000E+00 0. -1.
<mgrwt>
<rscale>  4 0.23430046E+03</rscale>
<asrwt>0</asrwt>
<pdfrwt beam="1">  1       21 0.19450462E+00 0.23430046E+03</pdfrwt>
<pdfrwt beam="2">  1       21 0.13540635E-01 0.23430046E+03</pdfrwt>
<totfact> 0.66509490E+03</totfact>
</mgrwt>
</event>
