<event>
 5    0  0.1911311E+001  0.2692349E+03  0.7546771E-02  0.1101718E+00
         21   -1    0    0  503  501  0.00000000000E+00  0.00000000000E+00  0.12236541721E+04  0.12236541721E+04  0.00000000000E+00 0.  1.
         21   -1    0    0  501  502 -0.00000000000E+00 -0.00000000000E+00 -0.37833282355E+03  0.37833282355E+03  0.00000000000E+00 0.  1.
         25    1    1    2    0    0 -0.26092437003E+03 -0.12299953598E+03 -0.27692122500E+03  0.41895199913E+03  0.12500000000E+03 0.  0.
         21    1    1    2  503  504  0.41434651310E+02  0.34486742254E+02  0.23010304675E+02  0.58614331368E+02  0.00000000000E+00 0.  1.
         21    1    1    2  504  502  0.21948971872E+03  0.88512793722E+02  0.10992322689E+04  0.11244206652E+04  0.00000000000E+00 0.  1.
<mgrwt>
<rscale>  4 0.26923492E+03</rscale>
<asrwt>0</asrwt>
<pdfrwt beam="1">  1       21 0.18825449E+00 0.26923492E+03</pdfrwt>
<pdfrwt beam="2">  1       21 0.58205050E-01 0.26923492E+03</pdfrwt>
<totfact> 0.40908082E+02</totfact>
</mgrwt>
</event>
<event>
 5    0  0.1911311E+001  0.1907846E+03  0.7546771E-02  0.1157756E+00
         21   -1    0    0  504  501  0.00000000000E+00  0.00000000000E+00  0.11535827426E+04  0.11535827426E+04  0.00000000000E+00 0. -1.
         21   -1    0    0  503  502 -0.00000000000E+00 -0.00000000000E+00 -0.12657296663E+03  0.12657296663E+03  0.00000000000E+00 0. -1.
         25    1    1    2    0    0  0.20327718748E+03  0.57244437467E+02  0.88610431676E+03  0.91945875424E+03  0.12500000000E+03 0.  0.
         21    1    1    2  503  501 -0.13617724064E+03 -0.34970607762E+02 -0.56110922529E+02  0.15137906032E+03  0.00000000000E+00 0. -1.
         21    1    1    2  504  502 -0.67099946840E+02 -0.22273829705E+02  0.19701638171E+03  0.20931789465E+03  0.00000000000E+00 0.  1.
<mgrwt>
<rscale>  4 0.19078455E+03</rscale>
<asrwt>0</asrwt>
<pdfrwt beam="1">  1       21 0.17747426E+00 0.19078455E+03</pdfrwt>
<pdfrwt beam="2">  1       21 0.19472765E-01 0.19078455E+03</pdfrwt>
<totfact> 0.46016995E+03</totfact>
</mgrwt>
</event>
<event>
 5    0  0.1911311E+001  0.2431894E+03  0.7546771E-02  0.1117686E+00
         21   -1    0    0  502  501  0.00000000000E+00  0.00000000000E+00  0.58082663143E+03  0.58082663143E+03  0.00000000000E+00 0.  1.
         21   -1    0    0  504  502 -0.00000000000E+00 -0.00000000000E+00 -0.16888254015E+03  0.16888254015E+03  0.00000000000E+00 0.  1.
         25    1    1    2    0    0  0.25990480984E+03 -0.15654805738E+02  0.13380487590E+03  0.31831482519E+03  0.12500000000E+03 0.  0.
         21    1    1    2  503  501 -0.15589969761E+03 -0.91158142396E+02  0.15702402723E+03  0.23931374337E+03  0.00000000000E+00 0.  1.
         21    1    1    2  504  503 -0.10400511223E+03  0.10681294813E+03  0.12111518815E+03  0.19208060303E+03  0.00000000000E+00 0.  1.
<mgrwt>
<rscale>  4 0.24318935E+03</rscale>
<asrwt>0</asrwt>
<pdfrwt beam="1">  1       21 0.89357942E-01 0.24318935E+03</pdfrwt>
<pdfrwt beam="2">  1       21 0.25981930E-01 0.24318935E+03</pdfrwt>
<totfact> 0.14580133E+04</totfact>
</mgrwt>
</event>
