<event>
 5    0  0.1359949E+000  0.2844932E+03  0.7546771E-02  0.1093260E+00
         21   -1    0    0  502  501  0.00000000000E+00  0.00000000000E+00  0.13125432155E+04  0.13125432155E+04  0.00000000000E+00 0.  1.
         21   -1    0    0  503  502 -0.00000000000E+00 -0.00000000000E+00 -0.12634798807E+03  0.12634798807E+03  0.00000000000E+00 0.  1.
         25    1    1    2    0    0 -0.22688046726E+03  0.11762910591E+03  0.11149678318E+04  0.11506909311E+04  0.12500000000E+03 0.  0.
         21    1    1    2  503  504  0.12832717233E+03 -0.78995978584E+02  0.97051723576E+02  0.17924080127E+03  0.00000000000E+00 0.  1.
         21    1    1    2  504  501  0.98553294925E+02 -0.38633127321E+02 -0.25824327879E+02  0.10895947126E+03  0.00000000000E+00 0.  1.
<mgrwt>
<rscale>  4 0.28449315E+03</rscale>
<asrwt>0</asrwt>
<pdfrwt beam="1">  1       21 0.20192972E+00 0.28449315E+03</pdfrwt>
<pdfrwt beam="2">  1       21 0.19438153E-01 0.28449315E+03</pdfrwt>
<totfact> 0.29447813E+03</totfact>
</mgrwt>
</event>
<event>
 5    0  0.1359949E+000  0.4290890E+03  0.7546771E-02  0.1035557E+00
         21   -1    0    0  502  501  0.00000000000E+00  0.00000000000E+00  0.83056440844E+03  0.83056440844E+03  0.00000000000E+00 0. -1.
         21   -1    0    0  503  502 -0.00000000000E+00 -0.00000000000E+00 -0.34446305011E+03  0.34446305011E+03  0.00000000000E+00 0.  1.
         25    1    1    2    0    0  0.34375320388E+03 -0.18891650258E+03  0.60315598482E+03  0.73025875698E+03  0.12500000000E+03 0.  0.
         21    1    1    2  503  504 -0.16835352961E+03  0.23666960139E+02 -0.11227907160E+03  0.20373911223E+03  0.00000000000E+00 0.  1.
         21    1    1    2  504  501 -0.17539967427E+03  0.16524954244E+03 -0.47755548917E+01  0.24102958934E+03  0.00000000000E+00 0.  1.
<mgrwt>
<rscale>  4 0.42466905E+03</rscale>
<asrwt>0</asrwt>
<pdfrwt beam="1">  1       21 0.12777914E+00 0.42908905E+03</pdfrwt>
<pdfrwt beam="2">  1       21 0.52994316E-01 0.42908905E+03</pdfrwt>
<totfact> 0.13092655E+03</totfact>
</mgrwt>
</event>
<event>
 5    0  0.1359949E+000  0.2502035E+03  0.7546771E-02  0.1113176E+00
         21   -1    0    0  502  501  0.00000000000E+00  0.00000000000E+00  0.58051127797E+03  0.58051127797E+03  0.00000000000E+00 0. -1.
         21   -1    0    0  503  502 -0.00000000000E+00 -0.00000000000E+00 -0.45141770996E+03  0.45141770996E+03  0.00000000000E+00 0.  1.
         25    1    1    2    0    0 -0.24209234296E+02  0.21538500454E+03  0.52230093256E+03  0.57913733377E+03  0.12500000000E+03 0.  0.
         21    1    1    2  503  504 -0.60921603659E+00 -0.44740826193E+02 -0.13564104221E+03  0.14283068650E+03  0.00000000000E+00 0.  1.
         21    1    1    2  504  501  0.24818450333E+02 -0.17064417834E+03 -0.25756632234E+03  0.30996096768E+03  0.00000000000E+00 0.  1.
<mgrwt>
<rscale>  4 0.25020349E+03</rscale>
<asrwt>0</asrwt>
<pdfrwt beam="1">  1       21 0.89309427E-01 0.25020349E+03</pdfrwt>
<pdfrwt beam="2">  1       21 0.69448879E-01 0.25020349E+03</pdfrwt>
<totfact> 0.19238971E+03</totfact>
</mgrwt>
</event>
<event>
 5    0  0.1359949E+000  0.2572641E+03  0.7546771E-02  0.1108798E+00
         21   -1    0    0  502  501  0.00000000000E+00  0.00000000000E+00  0.31688982145E+03  0.31688982145E+03  0.00000000000E+00 0.  1.
         21   -1    0    0  503  502 -0.00000000000E+00 -0.00000000000E+00 -0.34481375575E+03  0.34481375575E+03  0.00000000000E+00 0.  1.
         25    1    1    2    0    0 -0.21967441464E+03  0.70445097742E+02  0.19483944269E+03  0.32681304850E+03  0.12500000000E+03 0.  0.
         21    1    1    2  503  504  0.18906805050E+03 -0.85711423578E+02 -0.15529623319E+03  0.25924910008E+03  0.00000000000E+00 0.  1.
         21    1    1    2  504  501  0.30606364137E+02  0.15266325836E+02 -0.67467143805E+02  0.75641428618E+02  0.00000000000E+00 0. -1.
<mgrwt>
<rscale>  4 0.25726409E+03</rscale>
<asrwt>0</asrwt>
<pdfrwt beam="1">  1       21 0.48752281E-01 0.25726409E+03</pdfrwt>
<pdfrwt beam="2">  1       21 0.53048270E-01 0.25726409E+03</pdfrwt>
<totfact> 0.13019229E+04</totfact>
</mgrwt>
</event>
<event>
 5    0  0.1359949E+000  0.3852990E+03  0.7546771E-02  0.1048992E+00
         21   -1    0    0  502  501  0.00000000000E+00  0.00000000000E+00  0.40843220386E+03  0.40843220386E+03  0.00000000000E+00 0.  1.
         21   -1    0    0  503  502 -0.00000000000E+00 -0.00000000000E+00 -0.24348436736E+04  0.24348436736E+04  0.00000000000E+00 0.  1.
         25    1    1    2    0    0 -0.14839942472E+02  0.36511034888E+03  0.29773269652E+03  0.48764285018E+03  0.12500000000E+03 0.  0.
         21    1    1    2  503  504  0.32550981623E+02 -0.34377523603E+03 -0.19402458831E+04  0.19707346514E+04  0.00000000000E+00 0.  1.
         21    1    1    2  504  501 -0.17711039152E+02 -0.21335112846E+02 -0.38389828314E+03  0.38489837586E+03  0.00000000000E+00 0.  1.
<mgrwt>
<rscale>  4 0.38529899E+03</rscale>
<asrwt>0</asrwt>
<pdfrwt beam="1">  1       21 0.62835726E-01 0.38529899E+03</pdfrwt>
<pdfrwt beam="2">  1       21 0.37459132E+00 0.38529899E+03</pdfrwt>
<totfact> 0.22677703E+01</totfact>
</mgrwt>
</event>
<event>
 5    0  0.1359949E+000  0.3318059E+03  0.7546771E-02  0.1070341E+00
         21   -1    0    0  502  501  0.00000000000E+00  0.00000000000E+00  0.24198629316E+03  0.24198629316E+03  0.00000000000E+00 0. -1.
         21   -1    0    0  503  502 -0.00000000000E+00 -0.00000000000E+00 -0.50541484467E+03  0.50541484467E+03  0.00000000000E+00 0. -1.
         25    1    1    2    0    0 -0.33803154756E+02 -0.30549553836E+03  0.88191084557E+01  0.33192311444E+03  0.12500000000E+03 0.  0.
         21    1    1    2  503  504  0.93689908801E+01  0.91319383346E+02 -0.44937407750E+02  0.10220752604E+03  0.00000000000E+00 0. -1.
         21    1    1    2  504  501  0.24434163876E+02  0.21417615501E+03 -0.22731025222E+03  0.31327049734E+03  0.00000000000E+00 0. -1.
<mgrwt>
<rscale>  4 0.33180593E+03</rscale>
<asrwt>0</asrwt>
<pdfrwt beam="1">  1       21 0.37228661E-01 0.33180593E+03</pdfrwt>
<pdfrwt beam="2">  1       21 0.77756128E-01 0.33180593E+03</pdfrwt>
<totfact> 0.94668430E+03</totfact>
</mgrwt>
</event>
<event>
 5    0  0.1359949E+000  0.2143423E+03  0.7546771E-02  0.1138173E+00
         21   -1    0    0  502  501  0.00000000000E+00  0.00000000000E+00  0.69233690308E+02  0.69233690308E+02  0.00000000000E+00 0. -1.
         21   -1    0    0  503  502 -0.00000000000E+00 -0.00000000000E+00 -0.14613761575E+04  0.14613761575E+04  0.00000000000E+00 0. -1.
         25    1    1    2    0    0 -0.47509216815E+02  0.19470661034E+03 -0.11645862841E+04  0.11882987852E+04  0.12500000000E+03 0.  0.
         21    1    1    2  503  504  0.99813580111E+01 -0.27674034716E+02 -0.15262482558E+03  0.15543428543E+03  0.00000000000E+00 0. -1.
         21    1    1    2  504  501  0.37527858804E+02 -0.16703257563E+03 -0.74931357507E+02  0.18687677717E+03  0.00000000000E+00 0. -1.
<mgrwt>
<rscale>  4 0.21434226E+03</rscale>
<asrwt>0</asrwt>
<pdfrwt beam="1">  1       21 0.10651337E-01 0.21434226E+03</pdfrwt>
<pdfrwt beam="2">  1       21 0.22482709E+00 0.21434226E+03</pdfrwt>
<totfact> 0.66873995E+03</totfact>
</mgrwt>
</event>
<event>
 5    0  0.1359949E+000  0.3886135E+03  0.7546771E-02  0.1047795E+00
         21   -1    0    0  502  501  0.00000000000E+00  0.00000000000E+00  0.64903124605E+03  0.64903124605E+03  0.00000000000E+00 0. -1.
         21   -1    0    0  503  502 -0.00000000000E+00 -0.00000000000E+00 -0.67133250438E+03  0.67133250438E+03  0.00000000000E+00 0. -1.
         25    1    1    2    0    0  0.26225817459E+03 -0.25810092758E+03  0.52715792118E+03  0.65491672205E+03  0.12500000000E+03 0.  0.
         21    1    1    2  503  504 -0.22925645818E+03  0.23521792729E+03 -0.52219874643E+03  0.61690965928E+03  0.00000000000E+00 0. -1.
         21    1    1    2  504  501 -0.33001716407E+02  0.22883000289E+02 -0.27260433073E+02  0.48537369103E+02  0.00000000000E+00 0. -1.
<mgrwt>
<rscale>  4 0.38861348E+03</rscale>
<asrwt>0</asrwt>
<pdfrwt beam="1">  1       21 0.99850961E-01 0.38861348E+03</pdfrwt>
<pdfrwt beam="2">  1       21 0.10328192E+00 0.38861348E+03</pdfrwt>
<totfact> 0.54048119E+02</totfact>
</mgrwt>
</event>
<event>
 5    0  0.1359949E+000  0.3110728E+03  0.7546771E-02  0.1079833E+00
         21   -1    0    0  502  501  0.00000000000E+00  0.00000000000E+00  0.14605659679E+03  0.14605659679E+03  0.00000000000E+00 0. -1.
         21   -1    0    0  503  502 -0.00000000000E+00 -0.00000000000E+00 -0.84892670615E+03  0.84892670615E+03  0.00000000000E+00 0. -1.
         25    1    1    2    0    0 -0.72446867565E+02 -0.27548641179E+03 -0.10455351387E+03  0.32817335200E+03  0.12500000000E+03 0.  0.
         21    1    1    2  503  504 -0.72302983287E+01  0.53358229311E+02 -0.71101301732E+02  0.89189533899E+02  0.00000000000E+00 0.  1.
         21    1    1    2  504  501  0.79677165894E+02  0.22212818248E+03 -0.52721529376E+03  0.57762041705E+03  0.00000000000E+00 0. -1.
<mgrwt>
<rscale>  4 0.31107284E+03</rscale>
<asrwt>0</asrwt>
<pdfrwt beam="1">  1       21 0.22470246E-01 0.31107284E+03</pdfrwt>
<pdfrwt beam="2">  1       21 0.13060411E+00 0.31107284E+03</pdfrwt>
<totfact> 0.73684364E+03</totfact>
</mgrwt>
</event>
<event>
 5    0  0.1359949E+000  0.2684016E+03  0.7546771E-02  0.1102198E+00
         21   -1    0    0  502  501  0.00000000000E+00  0.00000000000E+00  0.48978431863E+03  0.48978431863E+03  0.00000000000E+00 0. -1.
         21   -1    0    0  503  502 -0.00000000000E+00 -0.00000000000E+00 -0.13566008529E+03  0.13566008529E+03  0.00000000000E+00 0. -1.
         25    1    1    2    0    0  0.21873221723E+03  0.92577685992E+02  0.16365145146E+03  0.31435840750E+03  0.12500000000E+03 0.  0.
         21    1    1    2  503  504 -0.15221872290E+03 -0.93096674812E+02  0.15093392379E+03  0.23370618266E+03  0.00000000000E+00 0. -1.
         21    1    1    2  504  501 -0.66513494337E+02  0.51898881928E+00  0.39538858092E+02  0.77379813760E+02  0.00000000000E+00 0. -1.
<mgrwt>
<rscale>  4 0.26840158E+03</rscale>
<asrwt>0</asrwt>
<pdfrwt beam="1">  1       21 0.75351433E-01 0.26840158E+03</pdfrwt>
<pdfrwt beam="2">  1       21 0.20870783E-01 0.26840158E+03</pdfrwt>
<totfact> 0.32335444E+04</totfact>
</mgrwt>
</event>
<event>
 5    0  0.1359949E+000  0.2394878E+03  0.7546771E-02  0.1120135E+00
         21   -1    0    0  502  501  0.00000000000E+00  0.00000000000E+00  0.14734456243E+03  0.14734456243E+03  0.00000000000E+00 0.  1.
         21   -1    0    0  503  502 -0.00000000000E+00 -0.00000000000E+00 -0.40767451329E+03  0.40767451329E+03  0.00000000000E+00 0.  1.
         25    1    1    2    0    0 -0.19127633927E+03 -0.71712979650E+02 -0.33439504587E+02  0.24181106237E+03  0.12500000000E+03 0.  0.
         21    1    1    2  503  504  0.17341118472E+03  0.49032702182E+02 -0.16256103995E+03  0.24269679969E+03  0.00000000000E+00 0.  1.
         21    1    1    2  504  501  0.17865154548E+02  0.22680277468E+02 -0.64329406321E+02  0.70511213652E+02  0.00000000000E+00 0.  1.
<mgrwt>
<rscale>  4 0.23948776E+03</rscale>
<asrwt>0</asrwt>
<pdfrwt beam="1">  1       21 0.22668395E-01 0.23948776E+03</pdfrwt>
<pdfrwt beam="2">  1       21 0.62719155E-01 0.23948776E+03</pdfrwt>
<totfact> 0.42013973E+04</totfact>
</mgrwt>
</event>
<event>
 5    0  0.1359949E+000  0.3130795E+03  0.7546771E-02  0.1078879E+00
         21   -1    0    0  502  501  0.00000000000E+00  0.00000000000E+00  0.38333590552E+03  0.38333590552E+03  0.00000000000E+00 0.  1.
         21   -1    0    0  503  502 -0.00000000000E+00 -0.00000000000E+00 -0.24503451909E+03  0.24503451909E+03  0.00000000000E+00 0.  1.
         25    1    1    2    0    0 -0.84857665456E+02 -0.27421336754E+03  0.56236618924E+02  0.31809016274E+03  0.12500000000E+03 0.  0.
         21    1    1    2  503  504  0.58187252433E+02  0.26452823290E+03  0.73795816377E+02  0.28072542611E+03  0.00000000000E+00 0.  1.
         21    1    1    2  504  501  0.26670413023E+02  0.96851346403E+01  0.82689511317E+01  0.29554835758E+02  0.00000000000E+00 0.  1.
<mgrwt>
<rscale>  4 0.31307953E+03</rscale>
<asrwt>0</asrwt>
<pdfrwt beam="1">  1       21 0.58974755E-01 0.31307953E+03</pdfrwt>
<pdfrwt beam="2">  1       21 0.37697618E-01 0.31307953E+03</pdfrwt>
<totfact> 0.17188538E+04</totfact>
</mgrwt>
</event>
<event>
 5    0  0.1359949E+000  0.5527253E+03  0.7546771E-02  0.1000865E+00
         21   -1    0    0  502  501  0.00000000000E+00  0.00000000000E+00  0.36672522832E+03  0.36672522832E+03  0.00000000000E+00 0. -1.
         21   -1    0    0  503  502 -0.00000000000E+00 -0.00000000000E+00 -0.81901588792E+03  0.81901588792E+03  0.00000000000E+00 0. -1.
         25    1    1    2    0    0 -0.36769594997E+03 -0.39329370237E+03 -0.21636010797E+03  0.59356292360E+03  0.12500000000E+03 0.  0.
         21    1    1    2  503  504  0.35957205155E+03  0.37396824488E+03 -0.21219280884E+03  0.56050878366E+03  0.00000000000E+00 0. -1.
         21    1    1    2  504  501  0.81238984132E+01  0.19325457496E+02 -0.23737742785E+02  0.31669408984E+02  0.00000000000E+00 0. -1.
<mgrwt>
<rscale>  4 0.55272529E+03</rscale>
<asrwt>0</asrwt>
<pdfrwt beam="1">  1       21 0.56419267E-01 0.55272529E+03</pdfrwt>
<pdfrwt beam="2">  1       21 0.12600244E+00 0.55272529E+03</pdfrwt>
<totfact> 0.11320199E+03</totfact>
</mgrwt>
</event>
<event>
 5    0  0.1359949E+000  0.2714353E+03  0.7546771E-02  0.1100461E+00
         21   -1    0    0  502  501  0.00000000000E+00  0.00000000000E+00  0.50162585569E+03  0.50162585569E+03  0.00000000000E+00 0.  1.
         21   -1    0    0  503  502 -0.00000000000E+00 -0.00000000000E+00 -0.24992164464E+03  0.24992164464E+03  0.00000000000E+00 0.  1.
         25    1    1    2    0    0 -0.23448008546E+03 -0.55418528477E+02  0.38502337485E+03  0.47108398716E+03  0.12500000000E+03 0.  0.
         21    1    1    2  503  504  0.21429202625E+03  0.42396149925E+02 -0.10225621684E+03  0.24119461007E+03  0.00000000000E+00 0.  1.
         21    1    1    2  504  501  0.20188059208E+02  0.13022378553E+02 -0.31062946948E+02  0.39268903102E+02  0.00000000000E+00 0.  1.
<mgrwt>
<rscale>  4 0.27143530E+03</rscale>
<asrwt>0</asrwt>
<pdfrwt beam="1">  1       21 0.77173208E-01 0.27143530E+03</pdfrwt>
<pdfrwt beam="2">  1       21 0.38449484E-01 0.27143530E+03</pdfrwt>
<totfact> 0.92742386E+03</totfact>
</mgrwt>
</event>
<event>
 5    0  0.1359949E+000  0.2992717E+03  0.7546771E-02  0.1085605E+00
         21   -1    0    0  502  501  0.00000000000E+00  0.00000000000E+00  0.75940170514E+03  0.75940170514E+03  0.00000000000E+00 0.  1.
         21   -1    0    0  503  502 -0.00000000000E+00 -0.00000000000E+00 -0.56731259034E+03  0.56731259034E+03  0.00000000000E+00 0.  1.
         25    1    1    2    0    0 -0.54747323234E+02 -0.26634799258E+03  0.69020819761E+03  0.75229706805E+03  0.12500000000E+03 0.  0.
         21    1    1    2  503  504  0.62015872789E+02  0.19870429970E+03 -0.43206433658E+03  0.47959249175E+03  0.00000000000E+00 0.  1.
         21    1    1    2  504  501 -0.72685495552E+01  0.67643692881E+02 -0.66054746224E+02  0.94824735686E+02  0.00000000000E+00 0. -1.
<mgrwt>
<rscale>  4 0.29927165E+03</rscale>
<asrwt>0</asrwt>
<pdfrwt beam="1">  1       21 0.11683103E+00 0.29927165E+03</pdfrwt>
<pdfrwt beam="2">  1       21 0.87278860E-01 0.29927165E+03</pdfrwt>
<totfact> 0.57944543E+02</totfact>
</mgrwt>
</event>
<event>
 5    0  0.1359949E+000  0.2520869E+03  0.7546771E-02  0.1111993E+00
         21   -1    0    0  502  501  0.00000000000E+00  0.00000000000E+00  0.14023577798E+04  0.14023577798E+04  0.00000000000E+00 0. -1.
         21   -1    0    0  503  502 -0.00000000000E+00 -0.00000000000E+00 -0.11247205392E+03  0.11247205392E+03  0.00000000000E+00 0. -1.
         25    1    1    2    0    0  0.21422359589E+03 -0.45067161099E+02  0.12657249870E+04  0.12905841858E+04  0.12500000000E+03 0.  0.
         21    1    1    2  503  504 -0.52934298122E+02 -0.70237462770E+01  0.37728951760E+01  0.53531370872E+02  0.00000000000E+00 0. -1.
         21    1    1    2  504  501 -0.16128929777E+03  0.52090907376E+02  0.20387843726E+02  0.17071427702E+03  0.00000000000E+00 0. -1.
<mgrwt>
<rscale>  4 0.25208689E+03</rscale>
<asrwt>0</asrwt>
<pdfrwt beam="1">  1       21 0.21574734E+00 0.25208689E+03</pdfrwt>
<pdfrwt beam="2">  1       21 0.17303394E-01 0.25208689E+03</pdfrwt>
<totfact> 0.30581548E+03</totfact>
</mgrwt>
</event>
<event>
 5    0  0.1359949E+000  0.3350644E+03  0.7546771E-02  0.1068918E+00
         21   -1    0    0  502  501  0.00000000000E+00  0.00000000000E+00  0.11304249862E+04  0.11304249862E+04  0.00000000000E+00 0. -1.
         21   -1    0    0  503  502 -0.00000000000E+00 -0.00000000000E+00 -0.14771476802E+03  0.14771476802E+03  0.00000000000E+00 0. -1.
         25    1    1    2    0    0  0.25573741275E+03 -0.21801001399E+03  0.78622545135E+03  0.86412120147E+03  0.12500000000E+03 0.  0.
         21    1    1    2  503  504 -0.20078318979E+03  0.17911363066E+03  0.21475086645E+03  0.34425792167E+03  0.00000000000E+00 0. -1.
         21    1    1    2  504  501 -0.54954222961E+02  0.38896383330E+02 -0.18266099608E+02  0.69760631106E+02  0.00000000000E+00 0. -1.
<mgrwt>
<rscale>  4 0.33506439E+03</rscale>
<asrwt>0</asrwt>
<pdfrwt beam="1">  1       21 0.17391153E+00 0.33506439E+03</pdfrwt>
<pdfrwt beam="2">  1       21 0.22725350E-01 0.33506439E+03</pdfrwt>
<totfact> 0.32911441E+03</totfact>
</mgrwt>
</event>
<event>
 5    0  0.1359949E+000  0.3752984E+03  0.7546771E-02  0.1052685E+00
         21   -1    0    0  502  501  0.00000000000E+00  0.00000000000E+00  0.16044999991E+04  0.16044999991E+04  0.00000000000E+00 0.  1.
         21   -1    0    0  503  502 -0.00000000000E+00 -0.00000000000E+00 -0.89659619633E+02  0.89659619633E+02  0.00000000000E+00 0.  1.
         25    1    1    2    0    0  0.34943526616E+03 -0.55846750821E+02  0.95708337568E+03  0.10280357255E+04  0.12500000000E+03 0.  0.
         21    1    1    2  503  504 -0.31358127720E+03  0.21461016013E+02  0.47405576757E+03  0.56879052681E+03  0.00000000000E+00 0.  1.
         21    1    1    2  504  501 -0.35853988954E+02  0.34385734808E+02  0.83701236166E+02  0.97333366416E+02  0.00000000000E+00 0.  1.
<mgrwt>
<rscale>  4 0.37529837E+03</rscale>
<asrwt>0</asrwt>
<pdfrwt beam="1">  1       21 0.24684613E+00 0.37529837E+03</pdfrwt>
<pdfrwt beam="2">  1       21 0.13793789E-01 0.37529837E+03</pdfrwt>
<totfact> 0.27545670E+03</totfact>
</mgrwt>
</event>
<event>
 5    0  0.1359949E+000  0.2457306E+03  0.7546771E-02  0.1116033E+00
         21   -1    0    0  502  501  0.00000000000E+00  0.00000000000E+00  0.24100083682E+03  0.24100083682E+03  0.00000000000E+00 0. -1.
         21   -1    0    0  503  502 -0.00000000000E+00 -0.00000000000E+00 -0.24672186209E+03  0.24672186209E+03  0.00000000000E+00 0.  1.
         25    1    1    2    0    0 -0.88777447877E+01 -0.21137578462E+03  0.73612984157E+02  0.25651980062E+03  0.12500000000E+03 0.  0.
         21    1    1    2  503  504 -0.39275584029E+00  0.56212096706E+02  0.10175038143E+01  0.56222676807E+02  0.00000000000E+00 0.  1.
         21    1    1    2  504  501  0.92705006279E+01  0.15516368791E+03 -0.80351513244E+02  0.17498022148E+03  0.00000000000E+00 0.  1.
<mgrwt>
<rscale>  4 0.24573062E+03</rscale>
<asrwt>0</asrwt>
<pdfrwt beam="1">  1       21 0.37077052E-01 0.24573062E+03</pdfrwt>
<pdfrwt beam="2">  1       21 0.37957209E-01 0.24573062E+03</pdfrwt>
<totfact> 0.45834821E+04</totfact>
</mgrwt>
</event>
<event>
 5    0  0.1359949E+000  0.2576653E+03  0.7546771E-02  0.1108554E+00
         21   -1    0    0  502  501  0.00000000000E+00  0.00000000000E+00  0.19658891691E+03  0.19658891691E+03  0.00000000000E+00 0.  1.
         21   -1    0    0  503  502 -0.00000000000E+00 -0.00000000000E+00 -0.44810453960E+03  0.44810453960E+03  0.00000000000E+00 0.  1.
         25    1    1    2    0    0  0.30502590833E+02 -0.22323978014E+03 -0.29731437235E+03  0.39343009988E+03  0.12500000000E+03 0.  0.
         21    1    1    2  503  504  0.55570059909E+00  0.15724560900E+03 -0.12708973170E+02  0.15775933681E+03  0.00000000000E+00 0.  1.
         21    1    1    2  504  501 -0.31058291432E+02  0.65994171139E+02  0.58507722835E+02  0.93504019819E+02  0.00000000000E+00 0.  1.
<mgrwt>
<rscale>  4 0.25766530E+03</rscale>
<asrwt>0</asrwt>
<pdfrwt beam="1">  1       21 0.30244449E-01 0.25766530E+03</pdfrwt>
<pdfrwt beam="2">  1       21 0.68939160E-01 0.25766530E+03</pdfrwt>
<totfact> 0.19402611E+04</totfact>
</mgrwt>
</event>
<event>
 5    0  0.1359949E+000  0.3007623E+03  0.7546771E-02  0.1084860E+00
         21   -1    0    0  502  501  0.00000000000E+00  0.00000000000E+00  0.68987940234E+03  0.68987940234E+03  0.00000000000E+00 0. -1.
         21   -1    0    0  503  502 -0.00000000000E+00 -0.00000000000E+00 -0.14083043128E+03  0.14083043128E+03  0.00000000000E+00 0. -1.
         25    1    1    2    0    0 -0.15602829141E+03  0.22469558358E+03  0.42967885380E+03  0.52448245958E+03  0.12500000000E+03 0.  0.
         21    1    1    2  503  504  0.18784749474E+02 -0.14956731363E+02 -0.76864806071E+01  0.25212152031E+02  0.00000000000E+00 0. -1.
         21    1    1    2  504  501  0.13724354194E+03 -0.20973885222E+03  0.12705659787E+03  0.28101522200E+03  0.00000000000E+00 0. -1.
<mgrwt>
<rscale>  4 0.30076225E+03</rscale>
<asrwt>0</asrwt>
<pdfrwt beam="1">  1       21 0.10613529E+00 0.30076225E+03</pdfrwt>
<pdfrwt beam="2">  1       21 0.21666221E-01 0.30076225E+03</pdfrwt>
<totfact> 0.13325903E+04</totfact>
</mgrwt>
</event>
<event>
 5    0  0.1359949E+000  0.2465279E+03  0.7546771E-02  0.1115519E+00
         21   -1    0    0  502  501  0.00000000000E+00  0.00000000000E+00  0.14047176474E+04  0.14047176474E+04  0.00000000000E+00 0.  1.
         21   -1    0    0  503  502 -0.00000000000E+00 -0.00000000000E+00 -0.92824419849E+02  0.92824419849E+02  0.00000000000E+00 0. -1.
         25    1    1    2    0    0 -0.18392436329E+03 -0.10274234128E+03  0.11663052018E+04  0.11917537430E+04  0.12500000000E+03 0.  0.
         21    1    1    2  503  504  0.21384621710E+03  0.71101002735E+02  0.12233406354E+03  0.25641992953E+03  0.00000000000E+00 0. -1.
         21    1    1    2  504  501 -0.29921853812E+02  0.31641338548E+02  0.23253962171E+02  0.49368394721E+02  0.00000000000E+00 0. -1.
<mgrwt>
<rscale>  4 0.24652795E+03</rscale>
<asrwt>0</asrwt>
<pdfrwt beam="1">  1       21 0.21611039E+00 0.24652795E+03</pdfrwt>
<pdfrwt beam="2">  1       21 0.14280681E-01 0.24652795E+03</pdfrwt>
<totfact> 0.43490173E+03</totfact>
</mgrwt>
</event>
<event>
 5    0  0.1359949E+000  0.3590219E+03  0.7546771E-02  0.1058972E+00
         21   -1    0    0  502  501  0.00000000000E+00  0.00000000000E+00  0.37546774444E+03  0.37546774444E+03  0.00000000000E+00 0. -1.
         21   -1    0    0  503  502 -0.00000000000E+00 -0.00000000000E+00 -0.33002693110E+03  0.33002693110E+03  0.00000000000E+00 0. -1.
         25    1    1    2    0    0  0.31338619902E+03 -0.12272248661E+03  0.47460995540E+02  0.36214536385E+03  0.12500000000E+03 0.  0.
         21    1    1    2  503  504 -0.27581303902E+03  0.11614630767E+03  0.18859798342E+02  0.29986411802E+03  0.00000000000E+00 0. -1.
         21    1    1    2  504  501 -0.37573159996E+02  0.65761789476E+01 -0.20879980544E+02  0.43485193677E+02  0.00000000000E+00 0.  1.
<mgrwt>
<rscale>  4 0.35902189E+03</rscale>
<asrwt>0</asrwt>
<pdfrwt beam="1">  1       21 0.57764269E-01 0.35902189E+03</pdfrwt>
<pdfrwt beam="2">  1       21 0.50773374E-01 0.35902189E+03</pdfrwt>
<totfact> 0.95274755E+03</totfact>
</mgrwt>
</event>
<event>
 5    0  0.1359949E+000  0.2934263E+03  0.7546771E-02  0.1088574E+00
         21   -1    0    0  502  501  0.00000000000E+00  0.00000000000E+00  0.23504107919E+03  0.23504107919E+03  0.00000000000E+00 0.  1.
         21   -1    0    0  503  502 -0.00000000000E+00 -0.00000000000E+00 -0.57420252869E+03  0.57420252869E+03  0.00000000000E+00 0.  1.
         25    1    1    2    0    0  0.28816357979E+03 -0.23575263401E+02  0.22915414558E+02  0.31582298521E+03  0.12500000000E+03 0.  0.
         21    1    1    2  503  504 -0.66338058375E+02  0.81746749059E+02 -0.12792164915E+03  0.16567201722E+03  0.00000000000E+00 0.  1.
         21    1    1    2  504  501 -0.22182552142E+03 -0.58171485658E+02 -0.23415521492E+03  0.32774860544E+03  0.00000000000E+00 0.  1.
<mgrwt>
<rscale>  4 0.29342632E+03</rscale>
<asrwt>0</asrwt>
<pdfrwt beam="1">  1       21 0.36160167E-01 0.29342632E+03</pdfrwt>
<pdfrwt beam="2">  1       21 0.88338849E-01 0.29342632E+03</pdfrwt>
<totfact> 0.76110625E+03</totfact>
</mgrwt>
</event>
<event>
 5    0  0.1359949E+000  0.2818917E+03  0.7546771E-02  0.1094660E+00
         21   -1    0    0  502  501  0.00000000000E+00  0.00000000000E+00  0.23554218186E+04  0.23554218186E+04  0.00000000000E+00 0. -1.
         21   -1    0    0  503  502 -0.00000000000E+00 -0.00000000000E+00 -0.12824867096E+03  0.12824867096E+03  0.00000000000E+00 0. -1.
         25    1    1    2    0    0  0.11114871747E+03  0.22690067074E+03  0.22083820343E+04  0.22263005550E+04  0.12500000000E+03 0.  0.
         21    1    1    2  503  504 -0.22950328295E+02 -0.19348488074E+02  0.10157714211E+02  0.31690072855E+02  0.00000000000E+00 0.  1.
         21    1    1    2  504  501 -0.88198389173E+02 -0.20755218267E+03  0.86333990843E+01  0.22567986167E+03  0.00000000000E+00 0. -1.
<mgrwt>
<rscale>  4 0.28189174E+03</rscale>
<asrwt>0</asrwt>
<pdfrwt beam="1">  1       21 0.36237255E+00 0.28189174E+03</pdfrwt>
<pdfrwt beam="2">  1       21 0.19730567E-01 0.28189174E+03</pdfrwt>
<totfact> 0.31050681E+02</totfact>
</mgrwt>
</event>
<event>
 5    0  0.1359949E+000  0.2137119E+03  0.7546771E-02  0.1138660E+00
         21   -1    0    0  502  501  0.00000000000E+00  0.00000000000E+00  0.28052298281E+03  0.28052298281E+03  0.00000000000E+00 0.  1.
         21   -1    0    0  503  502 -0.00000000000E+00 -0.00000000000E+00 -0.25556060835E+03  0.25556060835E+03  0.00000000000E+00 0.  1.
         25    1    1    2    0    0  0.16950612421E+03 -0.10683899634E+03  0.14842337930E+03  0.27892901751E+03  0.12500000000E+03 0.  0.
         21    1    1    2  503  504 -0.10879376836E+03  0.40098013135E+02 -0.11999899190E+03  0.16686429441E+03  0.00000000000E+00 0.  1.
         21    1    1    2  504  501 -0.60712355845E+02  0.66740983210E+02 -0.34620129442E+01  0.90290279243E+02  0.00000000000E+00 0.  1.
<mgrwt>
<rscale>  4 0.21371188E+03</rscale>
<asrwt>0</asrwt>
<pdfrwt beam="1">  1       21 0.43157382E-01 0.21371188E+03</pdfrwt>
<pdfrwt beam="2">  1       21 0.39317017E-01 0.21371188E+03</pdfrwt>
<totfact> 0.31834688E+04</totfact>
</mgrwt>
</event>
<event>
 5    0  0.1359949E+000  0.2496740E+03  0.7546771E-02  0.1113511E+00
         21   -1    0    0  502  501  0.00000000000E+00  0.00000000000E+00  0.33829732540E+03  0.33829732540E+03  0.00000000000E+00 0. -1.
         21   -1    0    0  503  502 -0.00000000000E+00 -0.00000000000E+00 -0.95984680471E+03  0.95984680471E+03  0.00000000000E+00 0. -1.
         25    1    1    2    0    0 -0.17713852496E+03 -0.12653407754E+03  0.27298804725E+03  0.37085900790E+03  0.12500000000E+03 0.  0.
         21    1    1    2  503  504  0.17593725257E+03  0.81310568897E+02 -0.78906078058E+03  0.81251599425E+03  0.00000000000E+00 0. -1.
         21    1    1    2  504  501  0.12012723868E+01  0.45223508646E+02 -0.10547674598E+03  0.11476912796E+03  0.00000000000E+00 0.  1.
<mgrwt>
<rscale>  4 0.24967401E+03</rscale>
<asrwt>0</asrwt>
<pdfrwt beam="1">  1       21 0.52045743E-01 0.24967401E+03</pdfrwt>
<pdfrwt beam="2">  1       21 0.14766874E+00 0.24967401E+03</pdfrwt>
<totfact> 0.10350952E+03</totfact>
</mgrwt>
</event>
<event>
 5    0  0.1359949E+000  0.2282405E+03  0.7546771E-02  0.1127884E+00
         21   -1    0    0  502  501  0.00000000000E+00  0.00000000000E+00  0.58079592455E+03  0.58079592455E+03  0.00000000000E+00 0. -1.
         21   -1    0    0  503  502 -0.00000000000E+00 -0.00000000000E+00 -0.22167007881E+03  0.22167007881E+03  0.00000000000E+00 0.  1.
         25    1    1    2    0    0  0.19315407596E+03  0.53915328487E+02  0.48924629573E+03  0.54332522267E+03  0.12500000000E+03 0.  0.
         21    1    1    2  503  504 -0.12999039433E+03 -0.28889729979E+02 -0.13675489274E+03  0.19087697557E+03  0.00000000000E+00 0.  1.
         21    1    1    2  504  501 -0.63163681631E+02 -0.25025598508E+02  0.66344427532E+01  0.68263805113E+02  0.00000000000E+00 0.  1.
<mgrwt>
<rscale>  4 0.22824051E+03</rscale>
<asrwt>0</asrwt>
<pdfrwt beam="1">  1       21 0.89353219E-01 0.22824051E+03</pdfrwt>
<pdfrwt beam="2">  1       21 0.34103089E-01 0.22824051E+03</pdfrwt>
<totfact> 0.86383021E+03</totfact>
</mgrwt>
</event>
<event>
 5    0  0.1359949E+000  0.3126812E+03  0.7546771E-02  0.1079068E+00
         21   -1    0    0  502  501  0.00000000000E+00  0.00000000000E+00  0.10026445533E+03  0.10026445533E+03  0.00000000000E+00 0.  1.
         21   -1    0    0  503  502 -0.00000000000E+00 -0.00000000000E+00 -0.12615206054E+04  0.12615206054E+04  0.00000000000E+00 0.  1.
         25    1    1    2    0    0  0.27987104129E+03  0.61779522458E+02 -0.24486271000E+03  0.39714890897E+03  0.12500000000E+03 0.  0.
         21    1    1    2  503  504 -0.96665399742E+02 -0.95882887542E+01 -0.45887668845E+03  0.46904578667E+03  0.00000000000E+00 0.  1.
         21    1    1    2  504  501 -0.18320564155E+03 -0.52191233704E+02 -0.45751675163E+03  0.49559036511E+03  0.00000000000E+00 0.  1.
<mgrwt>
<rscale>  4 0.31268116E+03</rscale>
<asrwt>0</asrwt>
<pdfrwt beam="1">  1       21 0.15425301E-01 0.31268116E+03</pdfrwt>
<pdfrwt beam="2">  1       21 0.19408009E+00 0.31268116E+03</pdfrwt>
<totfact> 0.50142494E+03</totfact>
</mgrwt>
</event>
<event>
 5    0  0.1359949E+000  0.2526319E+03  0.7546771E-02  0.1111653E+00
         21   -1    0    0  502  501  0.00000000000E+00  0.00000000000E+00  0.18942603769E+03  0.18942603769E+03  0.00000000000E+00 0. -1.
         21   -1    0    0  503  502 -0.00000000000E+00 -0.00000000000E+00 -0.35674908868E+03  0.35674908868E+03  0.00000000000E+00 0. -1.
         25    1    1    2    0    0 -0.69644008131E+02 -0.20820083636E+03  0.23121648884E+02  0.25368777420E+03  0.12500000000E+03 0.  0.
         21    1    1    2  503  504  0.58925451132E+02  0.18973397232E+03 -0.18229033017E+03  0.26963114345E+03  0.00000000000E+00 0. -1.
         21    1    1    2  504  501  0.10718556999E+02  0.18466864036E+02 -0.81543697038E+01  0.22856208713E+02  0.00000000000E+00 0. -1.
<mgrwt>
<rscale>  4 0.25263190E+03</rscale>
<asrwt>0</asrwt>
<pdfrwt beam="1">  1       21 0.29142468E-01 0.25263190E+03</pdfrwt>
<pdfrwt beam="2">  1       21 0.54884474E-01 0.25263190E+03</pdfrwt>
<totfact> 0.34314583E+04</totfact>
</mgrwt>
</event>
<event>
 5    0  0.1359949E+000  0.2376377E+03  0.7546771E-02  0.1121377E+00
         21   -1    0    0  502  501  0.00000000000E+00  0.00000000000E+00  0.23016395041E+03  0.23016395041E+03  0.00000000000E+00 0. -1.
         21   -1    0    0  503  502 -0.00000000000E+00 -0.00000000000E+00 -0.47996171936E+03  0.47996171936E+03  0.00000000000E+00 0. -1.
         25    1    1    2    0    0  0.14669582480E+03  0.13991112719E+03  0.10962867152E+03  0.26217977448E+03  0.12500000000E+03 0.  0.
         21    1    1    2  503  504 -0.10169648255E+03 -0.17998380745E+03 -0.28765666894E+03  0.35423538035E+03  0.00000000000E+00 0. -1.
         21    1    1    2  504  501 -0.44999342244E+02  0.40072680258E+02 -0.71769771526E+02  0.93710514940E+02  0.00000000000E+00 0.  1.
<mgrwt>
<rscale>  4 0.23763773E+03</rscale>
<asrwt>0</asrwt>
<pdfrwt beam="1">  1       21 0.35409839E-01 0.23763773E+03</pdfrwt>
<pdfrwt beam="2">  1       21 0.73840264E-01 0.23763773E+03</pdfrwt>
<totfact> 0.12309639E+04</totfact>
</mgrwt>
</event>
<event>
 5    0  0.1359949E+000  0.3280885E+03  0.7546771E-02  0.1071986E+00
         21   -1    0    0  502  501  0.00000000000E+00  0.00000000000E+00  0.15236153398E+04  0.15236153398E+04  0.00000000000E+00 0.  1.
         21   -1    0    0  503  502 -0.00000000000E+00 -0.00000000000E+00 -0.88256883562E+02  0.88256883562E+02  0.00000000000E+00 0.  1.
         25    1    1    2    0    0 -0.11897518026E+03 -0.30386274119E+03  0.77001112232E+03  0.84559433980E+03  0.12500000000E+03 0.  0.
         21    1    1    2  503  504  0.11399769350E+03  0.26184780820E+03  0.66526042601E+03  0.72396904850E+03  0.00000000000E+00 0.  1.
         21    1    1    2  504  501  0.49774867585E+01  0.42014932993E+02  0.86907882827E-01  0.42308835033E+02  0.00000000000E+00 0.  1.
<mgrwt>
<rscale>  4 0.32808854E+03</rscale>
<asrwt>0</asrwt>
<pdfrwt beam="1">  1       21 0.23440234E+00 0.32808854E+03</pdfrwt>
<pdfrwt beam="2">  1       21 0.13577983E-01 0.32808854E+03</pdfrwt>
<totfact> 0.34726538E+03</totfact>
</mgrwt>
</event>
<event>
 5    0  0.1359949E+000  0.2536883E+03  0.7546771E-02  0.1110996E+00
         21   -1    0    0  502  501  0.00000000000E+00  0.00000000000E+00  0.67260185353E+03  0.67260185353E+03  0.00000000000E+00 0.  1.
         21   -1    0    0  503  502 -0.00000000000E+00 -0.00000000000E+00 -0.85754330133E+02  0.85754330133E+02  0.00000000000E+00 0. -1.
         25    1    1    2    0    0  0.20538223600E+03  0.80937610664E+02  0.35471985889E+03  0.43610083465E+03  0.12500000000E+03 0.  0.
         21    1    1    2  503  504 -0.18374946018E+03 -0.59676533859E+02  0.20079009188E+03  0.27864280685E+03  0.00000000000E+00 0. -1.
         21    1    1    2  504  501 -0.21632775822E+02 -0.21261076805E+02  0.31337572617E+02  0.43612542166E+02  0.00000000000E+00 0.  1.
<mgrwt>
<rscale>  4 0.25368831E+03</rscale>
<asrwt>0</asrwt>
<pdfrwt beam="1">  1       21 0.10347720E+00 0.25368831E+03</pdfrwt>
<pdfrwt beam="2">  1       21 0.13192974E-01 0.25368831E+03</pdfrwt>
<totfact> 0.36329127E+04</totfact>
</mgrwt>
</event>
<event>
 5    0  0.1359949E+000  0.2527869E+03  0.7546771E-02  0.1111556E+00
         21   -1    0    0  502  501  0.00000000000E+00  0.00000000000E+00  0.49003186701E+03  0.49003186701E+03  0.00000000000E+00 0. -1.
         21   -1    0    0  503  502 -0.00000000000E+00 -0.00000000000E+00 -0.13099300158E+03  0.13099300158E+03  0.00000000000E+00 0. -1.
         25    1    1    2    0    0  0.19930084775E+03 -0.92495452140E+02  0.28341309998E+03  0.37976864249E+03  0.12500000000E+03 0.  0.
         21    1    1    2  503  504 -0.27666692434E+02 -0.58881340668E+01  0.23231194670E+02  0.36603338630E+02  0.00000000000E+00 0. -1.
         21    1    1    2  504  501 -0.17163415531E+03  0.98383586207E+02  0.52394570777E+02  0.20465288747E+03  0.00000000000E+00 0. -1.
<mgrwt>
<rscale>  4 0.25278694E+03</rscale>
<asrwt>0</asrwt>
<pdfrwt beam="1">  1       21 0.75389517E-01 0.25278694E+03</pdfrwt>
<pdfrwt beam="2">  1       21 0.20152770E-01 0.25278694E+03</pdfrwt>
<totfact> 0.34730001E+04</totfact>
</mgrwt>
</event>
<event>
 5    0  0.1359949E+000  0.2484064E+03  0.7546771E-02  0.1114316E+00
         21   -1    0    0  502  501  0.00000000000E+00  0.00000000000E+00  0.25854305396E+03  0.25854305396E+03  0.00000000000E+00 0. -1.
         21   -1    0    0  503  502 -0.00000000000E+00 -0.00000000000E+00 -0.23072776558E+03  0.23072776558E+03  0.00000000000E+00 0. -1.
         25    1    1    2    0    0 -0.73827084370E+02  0.20156961801E+03  0.83182724496E+02  0.26196395734E+03  0.12500000000E+03 0.  0.
         21    1    1    2  503  504  0.68011139336E+02 -0.18156695229E+03 -0.64815066160E+02  0.20443352475E+03  0.00000000000E+00 0. -1.
         21    1    1    2  504  501  0.58159450334E+01 -0.20002665717E+02  0.94476300436E+01  0.22873337444E+02  0.00000000000E+00 0.  1.
<mgrwt>
<rscale>  4 0.24840642E+03</rscale>
<asrwt>0</asrwt>
<pdfrwt beam="1">  1       21 0.39775855E-01 0.24840642E+03</pdfrwt>
<pdfrwt beam="2">  1       21 0.35496579E-01 0.24840642E+03</pdfrwt>
<totfact> 0.45450256E+04</totfact>
</mgrwt>
</event>
<event>
 5    0  0.1359949E+000  0.4321316E+03  0.7546771E-02  0.1033189E+00
         21   -1    0    0  502  501  0.00000000000E+00  0.00000000000E+00  0.13983123792E+03  0.13983123792E+03  0.00000000000E+00 0. -1.
         21   -1    0    0  503  502 -0.00000000000E+00 -0.00000000000E+00 -0.12894407027E+04  0.12894407027E+04  0.00000000000E+00 0. -1.
         25    1    1    2    0    0  0.22334248032E+03  0.34818220279E+03 -0.61130298635E+03  0.74861809421E+03  0.12500000000E+03 0.  0.
         21    1    1    2  503  504 -0.21131783646E+02 -0.12463800725E+02 -0.28224794355E+02  0.37397026954E+02  0.00000000000E+00 0. -1.
         21    1    1    2  504  501 -0.20221069667E+03 -0.33571840206E+03 -0.51008168403E+03  0.64325681941E+03  0.00000000000E+00 0. -1.
<mgrwt>
<rscale>  4 0.43213159E+03</rscale>
<asrwt>0</asrwt>
<pdfrwt beam="1">  1       21 0.21512497E-01 0.43213159E+03</pdfrwt>
<pdfrwt beam="2">  1       21 0.19837550E+00 0.43213159E+03</pdfrwt>
<totfact> 0.23677954E+03</totfact>
</mgrwt>
</event>
<event>
 5    0  0.1359949E+000  0.2462280E+03  0.7546771E-02  0.1115712E+00
         21   -1    0    0  502  501  0.00000000000E+00  0.00000000000E+00  0.87187809133E+02  0.87187809133E+02  0.00000000000E+00 0. -1.
         21   -1    0    0  503  502 -0.00000000000E+00 -0.00000000000E+00 -0.61502201648E+03  0.61502201648E+03  0.00000000000E+00 0.  1.
         25    1    1    2    0    0 -0.15684318170E+02 -0.21155901003E+03 -0.26614336536E+03  0.36257482467E+03  0.12500000000E+03 0.  0.
         21    1    1    2  503  504  0.15467521282E+02  0.13260292237E+03 -0.13161243068E+03  0.18746896048E+03  0.00000000000E+00 0.  1.
         21    1    1    2  504  501  0.21679688824E+00  0.78956087663E+02 -0.13007841131E+03  0.15216604046E+03  0.00000000000E+00 0. -1.
<mgrwt>
<rscale>  4 0.24622797E+03</rscale>
<asrwt>0</asrwt>
<pdfrwt beam="1">  1       21 0.13413509E-01 0.24622797E+03</pdfrwt>
<pdfrwt beam="2">  1       21 0.94618773E-01 0.24622797E+03</pdfrwt>
<totfact> 0.43778914E+04</totfact>
</mgrwt>
</event>
<event>
 5    0  0.1359949E+000  0.2512708E+03  0.7546771E-02  0.1112504E+00
         21   -1    0    0  502  501  0.00000000000E+00  0.00000000000E+00  0.86295206609E+03  0.86295206609E+03  0.00000000000E+00 0. -1.
         21   -1    0    0  503  502 -0.00000000000E+00 -0.00000000000E+00 -0.92847740539E+02  0.92847740539E+02  0.00000000000E+00 0. -1.
         25    1    1    2    0    0 -0.67946843011E+02  0.20711160704E+03  0.66241340117E+03  0.70846912798E+03  0.12500000000E+03 0.  0.
         21    1    1    2  503  504  0.68174975152E+02 -0.17995749397E+03  0.79574012725E+02  0.20824156736E+03  0.00000000000E+00 0. -1.
         21    1    1    2  504  501 -0.22813214092E+00 -0.27154113068E+02  0.28116911655E+02  0.39089111294E+02  0.00000000000E+00 0. -1.
<mgrwt>
<rscale>  4 0.25127075E+03</rscale>
<asrwt>0</asrwt>
<pdfrwt beam="1">  1       21 0.13276185E+00 0.25127075E+03</pdfrwt>
<pdfrwt beam="2">  1       21 0.14284268E-01 0.25127075E+03</pdfrwt>
<totfact> 0.16958420E+04</totfact>
</mgrwt>
</event>
<event>
 5    0  0.1359949E+000  0.4330044E+03  0.7546771E-02  0.1032915E+00
         21   -1    0    0  502  501  0.00000000000E+00  0.00000000000E+00  0.21831761408E+03  0.21831761408E+03  0.00000000000E+00 0. -1.
         21   -1    0    0  503  502 -0.00000000000E+00 -0.00000000000E+00 -0.20614297467E+04  0.20614297467E+04  0.00000000000E+00 0. -1.
         25    1    1    2    0    0 -0.11110316096E+03  0.39940444979E+03 -0.48945890034E+02  0.43576200733E+03  0.12500000000E+03 0.  0.
         21    1    1    2  503  504  0.18702746557E+02 -0.20447753522E+02 -0.24103071885E+03  0.24261844691E+03  0.00000000000E+00 0. -1.
         21    1    1    2  504  501  0.92400414400E+02 -0.37895669626E+03 -0.15531355238E+04  0.16013669065E+04  0.00000000000E+00 0. -1.
<mgrwt>
<rscale>  4 0.43300442E+03</rscale>
<asrwt>0</asrwt>
<pdfrwt beam="1">  1       21 0.33587326E-01 0.43300442E+03</pdfrwt>
<pdfrwt beam="2">  1       21 0.31714303E+00 0.43300442E+03</pdfrwt>
<totfact> 0.18248319E+02</totfact>
</mgrwt>
</event>
<event>
 5    0  0.1359949E+000  0.2461512E+03  0.7546771E-02  0.1115762E+00
         21   -1    0    0  502  501  0.00000000000E+00  0.00000000000E+00  0.78326036071E+02  0.78326036071E+02  0.00000000000E+00 0. -1.
         21   -1    0    0  503  502 -0.00000000000E+00 -0.00000000000E+00 -0.72849900342E+03  0.72849900342E+03  0.00000000000E+00 0. -1.
         25    1    1    2    0    0  0.20567337991E+03 -0.51612776002E+02 -0.25746252584E+03  0.35619849812E+03  0.12500000000E+03 0.  0.
         21    1    1    2  503  504 -0.11641605672E+03  0.12674986418E+02 -0.26746664411E+03  0.29197903906E+03  0.00000000000E+00 0. -1.
         21    1    1    2  504  501 -0.89257323188E+02  0.38937789584E+02 -0.12524379740E+03  0.15864750231E+03  0.00000000000E+00 0. -1.
<mgrwt>
<rscale>  4 0.24615121E+03</rscale>
<asrwt>0</asrwt>
<pdfrwt beam="1">  1       21 0.12050160E-01 0.24615121E+03</pdfrwt>
<pdfrwt beam="2">  1       21 0.11207677E+00 0.24615121E+03</pdfrwt>
<totfact> 0.35361890E+04</totfact>
</mgrwt>
</event>
<event>
 5    0  0.1359949E+000  0.2717117E+03  0.7546771E-02  0.1100304E+00
         21   -1    0    0  502  501  0.00000000000E+00  0.00000000000E+00  0.69991027620E+02  0.69991027620E+02  0.00000000000E+00 0.  1.
         21   -1    0    0  503  502 -0.00000000000E+00 -0.00000000000E+00 -0.10270514145E+04  0.10270514145E+04  0.00000000000E+00 0.  1.
         25    1    1    2    0    0  0.16396658480E+03 -0.17696662319E+03 -0.37211310471E+03  0.46075523801E+03  0.12500000000E+03 0.  0.
         21    1    1    2  503  504 -0.10419686713E+03  0.14143166270E+03 -0.35550609542E+03  0.39654064888E+03  0.00000000000E+00 0.  1.
         21    1    1    2  504  501 -0.59769717671E+02  0.35534960494E+02 -0.22944118673E+03  0.23974655521E+03  0.00000000000E+00 0.  1.
<mgrwt>
<rscale>  4 0.27171166E+03</rscale>
<asrwt>0</asrwt>
<pdfrwt beam="1">  1       21 0.10767851E-01 0.27171166E+03</pdfrwt>
<pdfrwt beam="2">  1       21 0.15800790E+00 0.27171166E+03</pdfrwt>
<totfact> 0.17662597E+04</totfact>
</mgrwt>
</event>
<event>
 5    0  0.1359949E+000  0.2716793E+03  0.7546771E-02  0.1100322E+00
         21   -1    0    0  502  501  0.00000000000E+00  0.00000000000E+00  0.38880552118E+03  0.38880552118E+03  0.00000000000E+00 0.  1.
         21   -1    0    0  503  502 -0.00000000000E+00 -0.00000000000E+00 -0.17232633693E+03  0.17232633693E+03  0.00000000000E+00 0.  1.
         25    1    1    2    0    0  0.17846838820E+03  0.16227654852E+03  0.14211828236E+03  0.30660601750E+03  0.12500000000E+03 0.  0.
         21    1    1    2  503  504 -0.12286641349E+02 -0.24190739694E+02  0.11791336854E+02  0.29583594565E+02  0.00000000000E+00 0.  1.
         21    1    1    2  504  501 -0.16618174685E+03 -0.13808580883E+03  0.62569565040E+02  0.22494224604E+03  0.00000000000E+00 0.  1.
<mgrwt>
<rscale>  4 0.27167930E+03</rscale>
<asrwt>0</asrwt>
<pdfrwt beam="1">  1       21 0.59816234E-01 0.27167930E+03</pdfrwt>
<pdfrwt beam="2">  1       21 0.26511744E-01 0.27167930E+03</pdfrwt>
<totfact> 0.34026066E+04</totfact>
</mgrwt>
</event>
<event>
 5    0  0.1359949E+000  0.2341084E+03  0.7546771E-02  0.1123781E+00
         21   -1    0    0  502  501  0.00000000000E+00  0.00000000000E+00  0.19567873172E+03  0.19567873172E+03  0.00000000000E+00 0.  1.
         21   -1    0    0  503  502 -0.00000000000E+00 -0.00000000000E+00 -0.15311595134E+04  0.15311595134E+04  0.00000000000E+00 0.  1.
         25    1    1    2    0    0 -0.14824852492E+03  0.14042380791E+03  0.10935444425E+03  0.26321068642E+03  0.12500000000E+03 0.  0.
         21    1    1    2  503  504  0.32956219675E+02 -0.94035722261E+02 -0.44029942039E+03  0.45143372611E+03  0.00000000000E+00 0.  1.
         21    1    1    2  504  501  0.11529230525E+03 -0.46388085646E+02 -0.10045358055E+04  0.10121938326E+04  0.00000000000E+00 0.  1.
<mgrwt>
<rscale>  4 0.23410842E+03</rscale>
<asrwt>0</asrwt>
<pdfrwt beam="1">  1       21 0.30104420E-01 0.23410842E+03</pdfrwt>
<pdfrwt beam="2">  1       21 0.23556301E+00 0.23410842E+03</pdfrwt>
<totfact> 0.81780892E+02</totfact>
</mgrwt>
</event>
<event>
 5    0  0.1359949E+000  0.4346324E+03  0.7546771E-02  0.1032407E+00
         21   -1    0    0  502  501  0.00000000000E+00  0.00000000000E+00  0.24802221257E+04  0.24802221257E+04  0.00000000000E+00 0. -1.
         21   -1    0    0  503  502 -0.00000000000E+00 -0.00000000000E+00 -0.98697985527E+02  0.98697985527E+02  0.00000000000E+00 0. -1.
         25    1    1    2    0    0 -0.23628912610E+03 -0.36403674138E+03  0.17235076108E+04  0.17817010929E+04  0.12500000000E+03 0.  0.
         21    1    1    2  503  504  0.67384554280E+01  0.24260111780E+02  0.10959767381E+03  0.11245270077E+03  0.00000000000E+00 0. -1.
         21    1    1    2  504  501  0.22955067067E+03  0.33977662960E+03  0.54841885555E+03  0.68476631748E+03  0.00000000000E+00 0. -1.
<mgrwt>
<rscale>  4 0.43463236E+03</rscale>
<asrwt>0</asrwt>
<pdfrwt beam="1">  1       21 0.38157259E+00 0.43463236E+03</pdfrwt>
<pdfrwt beam="2">  1       21 0.15184307E-01 0.43463236E+03</pdfrwt>
<totfact> 0.33888355E+02</totfact>
</mgrwt>
</event>
<event>
 5    0  0.1359949E+000  0.2724398E+03  0.7546771E-02  0.1099891E+00
         21   -1    0    0  502  501  0.00000000000E+00  0.00000000000E+00  0.39659876308E+03  0.39659876308E+03  0.00000000000E+00 0.  1.
         21   -1    0    0  503  502 -0.00000000000E+00 -0.00000000000E+00 -0.20341288349E+03  0.20341288349E+03  0.00000000000E+00 0.  1.
         25    1    1    2    0    0 -0.65069069269E+02 -0.24159927378E+03  0.12106992393E+03  0.30477388232E+03  0.12500000000E+03 0.  0.
         21    1    1    2  503  504  0.19673695708E+02  0.23558141656E+03  0.78296326827E+02  0.24903006430E+03  0.00000000000E+00 0.  1.
         21    1    1    2  504  501  0.45395373561E+02  0.60178572156E+01 -0.61803711672E+01  0.46207699943E+02  0.00000000000E+00 0.  1.
<mgrwt>
<rscale>  4 0.27243983E+03</rscale>
<asrwt>0</asrwt>
<pdfrwt beam="1">  1       21 0.61015194E-01 0.27243983E+03</pdfrwt>
<pdfrwt beam="2">  1       21 0.31294290E-01 0.27243983E+03</pdfrwt>
<totfact> 0.23556312E+04</totfact>
</mgrwt>
</event>
<event>
 5    0  0.1359949E+000  0.3864993E+03  0.7546771E-02  0.1048557E+00
         21   -1    0    0  502  501  0.00000000000E+00  0.00000000000E+00  0.42909612317E+03  0.42909612317E+03  0.00000000000E+00 0. -1.
         21   -1    0    0  503  502 -0.00000000000E+00 -0.00000000000E+00 -0.17627816475E+04  0.17627816475E+04  0.00000000000E+00 0. -1.
         25    1    1    2    0    0 -0.34372278485E+03 -0.47486183116E+03  0.48526502772E+02  0.60134759748E+03  0.12500000000E+03 0.  0.
         21    1    1    2  503  504  0.16817298764E+03  0.30703690061E+03 -0.12800427297E+04  0.13270505650E+04  0.00000000000E+00 0. -1.
         21    1    1    2  504  501  0.17554979721E+03  0.16782493055E+03 -0.10216929738E+03  0.26347960821E+03  0.00000000000E+00 0. -1.
<mgrwt>
<rscale>  4 0.38649932E+03</rscale>
<asrwt>0</asrwt>
<pdfrwt beam="1">  1       21 0.66014790E-01 0.38649932E+03</pdfrwt>
<pdfrwt beam="2">  1       21 0.27119717E+00 0.38649932E+03</pdfrwt>
<totfact> 0.85551295E+01</totfact>
</mgrwt>
</event>
<event>
 5    0  0.1359949E+000  0.3143521E+03  0.7546771E-02  0.1078278E+00
         21   -1    0    0  502  501  0.00000000000E+00  0.00000000000E+00  0.61522426991E+03  0.61522426991E+03  0.00000000000E+00 0.  1.
         21   -1    0    0  503  502 -0.00000000000E+00 -0.00000000000E+00 -0.48690948865E+03  0.48690948865E+03  0.00000000000E+00 0.  1.
         25    1    1    2    0    0  0.17790841033E+03  0.25032384534E+03  0.49498679679E+03  0.59577710514E+03  0.12500000000E+03 0.  0.
         21    1    1    2  503  504 -0.11737096965E+03 -0.12012611578E+03 -0.30886494387E+03  0.35157329500E+03  0.00000000000E+00 0.  1.
         21    1    1    2  504  501 -0.60537440684E+02 -0.13019772956E+03 -0.57807071660E+02  0.15478335841E+03  0.00000000000E+00 0.  1.
<mgrwt>
<rscale>  4 0.31435212E+03</rscale>
<asrwt>0</asrwt>
<pdfrwt beam="1">  1       21 0.94649888E-01 0.31435212E+03</pdfrwt>
<pdfrwt beam="2">  1       21 0.74909152E-01 0.31435212E+03</pdfrwt>
<totfact> 0.13593066E+03</totfact>
</mgrwt>
</event>
<event>
 5    0  0.1359949E+000  0.2717686E+03  0.7546771E-02  0.1100272E+00
         21   -1    0    0  502  501  0.00000000000E+00  0.00000000000E+00  0.85309774852E+03  0.85309774852E+03  0.00000000000E+00 0. -1.
         21   -1    0    0  503  502 -0.00000000000E+00 -0.00000000000E+00 -0.23829370908E+03  0.23829370908E+03  0.00000000000E+00 0.  1.
         25    1    1    2    0    0  0.24110312292E+03  0.10121998343E+02  0.75615568907E+03  0.80351079448E+03  0.12500000000E+03 0.  0.
         21    1    1    2  503  504 -0.21842044241E+03  0.74804257125E+01 -0.10769864518E+03  0.24364409414E+03  0.00000000000E+00 0.  1.
         21    1    1    2  504  501 -0.22682680510E+02 -0.17602424055E+02 -0.33653004443E+02  0.44236568987E+02  0.00000000000E+00 0. -1.
<mgrwt>
<rscale>  4 0.27176860E+03</rscale>
<asrwt>0</asrwt>
<pdfrwt beam="1">  1       21 0.13124581E+00 0.27176860E+03</pdfrwt>
<pdfrwt beam="2">  1       21 0.36660571E-01 0.27176860E+03</pdfrwt>
<totfact> 0.28508211E+03</totfact>
</mgrwt>
</event>
<event>
 5    0  0.1359949E+000  0.2585924E+03  0.7546771E-02  0.1107992E+00
         21   -1    0    0  502  501  0.00000000000E+00  0.00000000000E+00  0.15069213718E+04  0.15069213718E+04  0.00000000000E+00 0.  1.
         21   -1    0    0  503  502 -0.00000000000E+00 -0.00000000000E+00 -0.93592058436E+02  0.93592058436E+02  0.00000000000E+00 0.  1.
         25    1    1    2    0    0 -0.22627487915E+03  0.66883411301E+01  0.13248390301E+04  0.13498401796E+04  0.12500000000E+03 0.  0.
         21    1    1    2  503  504  0.34137311647E+02 -0.19532472993E+02  0.29853680454E+02  0.49377280042E+02  0.00000000000E+00 0.  1.
         21    1    1    2  504  501  0.19213756750E+03  0.12844131863E+02  0.58636602765E+02  0.20129597053E+03  0.00000000000E+00 0.  1.
<mgrwt>
<rscale>  4 0.25859245E+03</rscale>
<asrwt>0</asrwt>
<pdfrwt beam="1">  1       21 0.23183404E+00 0.25859245E+03</pdfrwt>
<pdfrwt beam="2">  1       21 0.14398779E-01 0.25859245E+03</pdfrwt>
<totfact> 0.33931579E+03</totfact>
</mgrwt>
</event>
<event>
 5    0  0.1359949E+000  0.2544963E+03  0.7546771E-02  0.1110496E+00
         21   -1    0    0  502  501  0.00000000000E+00  0.00000000000E+00  0.21947140662E+04  0.21947140662E+04  0.00000000000E+00 0.  1.
         21   -1    0    0  503  502 -0.00000000000E+00 -0.00000000000E+00 -0.51418782110E+02  0.51418782110E+02  0.00000000000E+00 0.  1.
         25    1    1    2    0    0 -0.61867121349E+00  0.23394350512E+03  0.16796005410E+04  0.17004155150E+04  0.12500000000E+03 0.  0.
         21    1    1    2  503  504 -0.31603299621E+02 -0.21755627294E+03  0.26761948793E+03  0.34633753877E+03  0.00000000000E+00 0.  1.
         21    1    1    2  504  501  0.32221970834E+02 -0.16387232187E+02  0.19607525510E+03  0.19937979447E+03  0.00000000000E+00 0.  1.
<mgrwt>
<rscale>  4 0.25449633E+03</rscale>
<asrwt>0</asrwt>
<pdfrwt beam="1">  1       21 0.33764824E+00 0.25449633E+03</pdfrwt>
<pdfrwt beam="2">  1       21 0.79105836E-02 0.25449633E+03</pdfrwt>
<totfact> 0.23541963E+03</totfact>
</mgrwt>
</event>
<event>
 5    0  0.1359949E+000  0.3352247E+03  0.7546771E-02  0.1068848E+00
         21   -1    0    0  502  501  0.00000000000E+00  0.00000000000E+00  0.34819639750E+03  0.34819639750E+03  0.00000000000E+00 0.  1.
         21   -1    0    0  503  502 -0.00000000000E+00 -0.00000000000E+00 -0.46582903237E+03  0.46582903237E+03  0.00000000000E+00 0. -1.
         25    1    1    2    0    0  0.12540296535E+03 -0.28464836733E+03  0.17253596978E+03  0.37702023502E+03  0.12500000000E+03 0.  0.
         21    1    1    2  503  504 -0.84789038251E+02  0.23018989953E+03 -0.27282189716E+03  0.36689011764E+03  0.00000000000E+00 0. -1.
         21    1    1    2  504  501 -0.40613927102E+02  0.54458467806E+02 -0.17346707495E+02  0.70115077204E+02  0.00000000000E+00 0.  1.
<mgrwt>
<rscale>  4 0.33522470E+03</rscale>
<asrwt>0</asrwt>
<pdfrwt beam="1">  1       21 0.53568677E-01 0.33522470E+03</pdfrwt>
<pdfrwt beam="2">  1       21 0.71666005E-01 0.33522470E+03</pdfrwt>
<totfact> 0.53347156E+03</totfact>
</mgrwt>
</event>
<event>
 5    0  0.1359949E+000  0.2562218E+03  0.7546771E-02  0.1109435E+00
         21   -1    0    0  502  501  0.00000000000E+00  0.00000000000E+00  0.69782064247E+03  0.69782064247E+03  0.00000000000E+00 0. -1.
         21   -1    0    0  503  502 -0.00000000000E+00 -0.00000000000E+00 -0.17644878669E+03  0.17644878669E+03  0.00000000000E+00 0. -1.
         25    1    1    2    0    0 -0.17017848682E+03 -0.18961182597E+03  0.45305075089E+03  0.53459643172E+03  0.12500000000E+03 0.  0.
         21    1    1    2  503  504  0.10869757223E+02  0.13983747345E+03  0.96715050326E+02  0.17037156911E+03  0.00000000000E+00 0. -1.
         21    1    1    2  504  501  0.15930872960E+03  0.49774352521E+02 -0.28393945438E+02  0.16930142833E+03  0.00000000000E+00 0. -1.
<mgrwt>
<rscale>  4 0.25622178E+03</rscale>
<asrwt>0</asrwt>
<pdfrwt beam="1">  1       21 0.10735702E+00 0.25622178E+03</pdfrwt>
<pdfrwt beam="2">  1       21 0.27145968E-01 0.25622178E+03</pdfrwt>
<totfact> 0.85957688E+03</totfact>
</mgrwt>
</event>
<event>
 5    0  0.1359949E+000  0.3184440E+03  0.7546771E-02  0.1076368E+00
         21   -1    0    0  502  501  0.00000000000E+00  0.00000000000E+00  0.17697083519E+03  0.17697083519E+03  0.00000000000E+00 0. -1.
         21   -1    0    0  503  502 -0.00000000000E+00 -0.00000000000E+00 -0.63846610952E+03  0.63846610952E+03  0.00000000000E+00 0. -1.
         25    1    1    2    0    0 -0.16289567022E+03 -0.24340619479E+03 -0.75823339535E+02  0.32734653482E+03  0.12500000000E+03 0.  0.
         21    1    1    2  503  504  0.11012387721E+03  0.13377152253E+03 -0.26578987776E+03  0.31727960491E+03  0.00000000000E+00 0. -1.
         21    1    1    2  504  501  0.52771793004E+02  0.10963467225E+03 -0.11988205705E+03  0.17081080498E+03  0.00000000000E+00 0. -1.
<mgrwt>
<rscale>  4 0.31844399E+03</rscale>
<asrwt>0</asrwt>
<pdfrwt beam="1">  1       21 0.27226282E-01 0.31844399E+03</pdfrwt>
<pdfrwt beam="2">  1       21 0.98225556E-01 0.31844399E+03</pdfrwt>
<totfact> 0.10274440E+04</totfact>
</mgrwt>
</event>
<event>
 5    0  0.1359949E+000  0.2541937E+03  0.7546771E-02  0.1110683E+00
         21   -1    0    0  502  501  0.00000000000E+00  0.00000000000E+00  0.97005297508E+03  0.97005297508E+03  0.00000000000E+00 0.  1.
         21   -1    0    0  503  502 -0.00000000000E+00 -0.00000000000E+00 -0.62460011584E+03  0.62460011584E+03  0.00000000000E+00 0.  1.
         25    1    1    2    0    0 -0.21628946203E+03 -0.46992444254E+02  0.93193796435E+03  0.96598281072E+03  0.12500000000E+03 0.  0.
         21    1    1    2  503  504  0.29548059453E+02  0.14188113260E+02 -0.13633850068E+03  0.14022331170E+03  0.00000000000E+00 0.  1.
         21    1    1    2  504  501  0.18674140258E+03  0.32804330995E+02 -0.45014660443E+03  0.48844696851E+03  0.00000000000E+00 0.  1.
<mgrwt>
<rscale>  4 0.25419367E+03</rscale>
<asrwt>0</asrwt>
<pdfrwt beam="1">  1       21 0.14923892E+00 0.25419367E+03</pdfrwt>
<pdfrwt beam="2">  1       21 0.96092326E-01 0.25419367E+03</pdfrwt>
<totfact> 0.25554359E+02</totfact>
</mgrwt>
</event>
<event>
 5    0  0.1359949E+000  0.2555943E+03  0.7546771E-02  0.1109820E+00
         21   -1    0    0  502  501  0.00000000000E+00  0.00000000000E+00  0.19935121315E+03  0.19935121315E+03  0.00000000000E+00 0. -1.
         21   -1    0    0  503  502 -0.00000000000E+00 -0.00000000000E+00 -0.10975010699E+04  0.10975010699E+04  0.00000000000E+00 0. -1.
         25    1    1    2    0    0  0.10046176444E+03  0.19902483853E+03  0.98395715059E+02  0.27387984447E+03  0.12500000000E+03 0.  0.
         21    1    1    2  503  504 -0.34901237731E+02 -0.77020771320E+02 -0.51532581474E+03  0.52221737902E+03  0.00000000000E+00 0. -1.
         21    1    1    2  504  501 -0.65560526712E+02 -0.12200406721E+03 -0.48121975709E+03  0.50075505958E+03  0.00000000000E+00 0. -1.
<mgrwt>
<rscale>  4 0.25559431E+03</rscale>
<asrwt>0</asrwt>
<pdfrwt beam="1">  1       21 0.30669417E-01 0.25559431E+03</pdfrwt>
<pdfrwt beam="2">  1       21 0.16884632E+00 0.25559431E+03</pdfrwt>
<totfact> 0.21017824E+03</totfact>
</mgrwt>
</event>
<event>
 5    0  0.1359949E+000  0.2456533E+03  0.7546771E-02  0.1116083E+00
         21   -1    0    0  502  501  0.00000000000E+00  0.00000000000E+00  0.96512115750E+03  0.96512115750E+03  0.00000000000E+00 0.  1.
         21   -1    0    0  503  502 -0.00000000000E+00 -0.00000000000E+00 -0.12567158594E+03  0.12567158594E+03  0.00000000000E+00 0.  1.
         25    1    1    2    0    0  0.18188398973E+03  0.10788298127E+03  0.84036181136E+03  0.87553040916E+03  0.12500000000E+03 0.  0.
         21    1    1    2  503  504 -0.13523626738E+03 -0.61953606692E+02  0.91346059092E+01  0.14903200469E+03  0.00000000000E+00 0.  1.
         21    1    1    2  504  501 -0.46647722356E+02 -0.45929374573E+02 -0.10046845712E+02  0.66230329596E+02  0.00000000000E+00 0. -1.
<mgrwt>
<rscale>  4 0.24565326E+03</rscale>
<asrwt>0</asrwt>
<pdfrwt beam="1">  1       21 0.14848017E+00 0.24565326E+03</pdfrwt>
<pdfrwt beam="2">  1       21 0.19334091E-01 0.24565326E+03</pdfrwt>
<totfact> 0.72651244E+03</totfact>
</mgrwt>
</event>
<event>
 5    0  0.1359949E+000  0.3492543E+03  0.7546771E-02  0.1062922E+00
         21   -1    0    0  502  501  0.00000000000E+00  0.00000000000E+00  0.35222575110E+03  0.35222575110E+03  0.00000000000E+00 0. -1.
         21   -1    0    0  503  502 -0.00000000000E+00 -0.00000000000E+00 -0.37715967353E+03  0.37715967353E+03  0.00000000000E+00 0. -1.
         25    1    1    2    0    0 -0.33252926227E+02 -0.32491354189E+03  0.47895472288E+02  0.35297810566E+03  0.12500000000E+03 0.  0.
         21    1    1    2  503  504  0.69033962347E+02  0.31920634337E+03 -0.86225526396E+02  0.33777687755E+03  0.00000000000E+00 0. -1.
         21    1    1    2  504  501 -0.35781036120E+02  0.57071985267E+01  0.13396131670E+02  0.38630441424E+02  0.00000000000E+00 0. -1.
<mgrwt>
<rscale>  4 0.34925435E+03</rscale>
<asrwt>0</asrwt>
<pdfrwt beam="1">  1       21 0.54188578E-01 0.34925435E+03</pdfrwt>
<pdfrwt beam="2">  1       21 0.58024565E-01 0.34925435E+03</pdfrwt>
<totfact> 0.82436514E+03</totfact>
</mgrwt>
</event>
<event>
 5    0  0.1359949E+000  0.3239435E+03  0.7546771E-02  0.1073849E+00
         21   -1    0    0  502  501  0.00000000000E+00  0.00000000000E+00  0.22894193054E+03  0.22894193054E+03  0.00000000000E+00 0. -1.
         21   -1    0    0  503  502 -0.00000000000E+00 -0.00000000000E+00 -0.97802833758E+03  0.97802833758E+03  0.00000000000E+00 0.  1.
         25    1    1    2    0    0 -0.13438209394E+03  0.26693786343E+03  0.71358673563E+02  0.33170985876E+03  0.12500000000E+03 0.  0.
         21    1    1    2  503  504  0.90183913908E+02 -0.22745872317E+03 -0.63183043884E+03  0.67755465648E+03  0.00000000000E+00 0.  1.
         21    1    1    2  504  501  0.44198180037E+02 -0.39479140260E+02 -0.18861464176E+03  0.19770575288E+03  0.00000000000E+00 0.  1.
<mgrwt>
<rscale>  4 0.32394347E+03</rscale>
<asrwt>0</asrwt>
<pdfrwt beam="1">  1       21 0.35221835E-01 0.32394347E+03</pdfrwt>
<pdfrwt beam="2">  1       21 0.15046590E+00 0.32394347E+03</pdfrwt>
<totfact> 0.20924567E+03</totfact>
</mgrwt>
</event>
<event>
 5    0  0.1359949E+000  0.2690038E+03  0.7546771E-02  0.1101851E+00
         21   -1    0    0  502  501  0.00000000000E+00  0.00000000000E+00  0.30826010115E+03  0.30826010115E+03  0.00000000000E+00 0. -1.
         21   -1    0    0  503  502 -0.00000000000E+00 -0.00000000000E+00 -0.50838279157E+03  0.50838279157E+03  0.00000000000E+00 0.  1.
         25    1    1    2    0    0  0.10956627061E+03  0.22039782815E+03  0.19281183849E+03  0.33672151011E+03  0.12500000000E+03 0.  0.
         21    1    1    2  503  504 -0.29002710275E+02 -0.43939145201E+02 -0.14405120074E+02  0.54583085005E+02  0.00000000000E+00 0. -1.
         21    1    1    2  504  501 -0.80563560335E+02 -0.17645868295E+03 -0.37852940885E+03  0.42533829760E+03  0.00000000000E+00 0.  1.
<mgrwt>
<rscale>  4 0.26900376E+03</rscale>
<asrwt>0</asrwt>
<pdfrwt beam="1">  1       21 0.47424631E-01 0.26900376E+03</pdfrwt>
<pdfrwt beam="2">  1       21 0.78212737E-01 0.26900376E+03</pdfrwt>
<totfact> 0.58528856E+03</totfact>
</mgrwt>
</event>
<event>
 5    0  0.1359949E+000  0.3618527E+03  0.7546771E-02  0.1058064E+00
         21   -1    0    0  502  501  0.00000000000E+00  0.00000000000E+00  0.34082403624E+03  0.34082403624E+03  0.00000000000E+00 0.  1.
         21   -1    0    0  503  502 -0.00000000000E+00 -0.00000000000E+00 -0.20419636037E+04  0.20419636037E+04  0.00000000000E+00 0.  1.
         25    1    1    2    0    0 -0.82944837363E+02  0.32693684858E+03  0.22411956212E+03  0.42381850729E+03  0.12500000000E+03 0.  0.
         21    1    1    2  503  504  0.87893765754E+02 -0.10903556917E+03 -0.89664518489E+03  0.90751675301E+03  0.00000000000E+00 0.  1.
         21    1    1    2  504  501 -0.49489283915E+01 -0.21790127941E+03 -0.10286139447E+04  0.10514523797E+04  0.00000000000E+00 0.  1.
<mgrwt>
<rscale>  4 0.36131624E+03</rscale>
<asrwt>0</asrwt>
<pdfrwt beam="1">  1       21 0.52434466E-01 0.36185266E+03</pdfrwt>
<pdfrwt beam="2">  1       21 0.31414826E+00 0.36185266E+03</pdfrwt>
<totfact> 0.79801421E+01</totfact>
</mgrwt>
</event>
<event>
 5    0  0.1359949E+000  0.3193495E+03  0.7546771E-02  0.1075949E+00
         21   -1    0    0  502  501  0.00000000000E+00  0.00000000000E+00  0.60086888320E+03  0.60086888320E+03  0.00000000000E+00 0. -1.
         21   -1    0    0  503  502 -0.00000000000E+00 -0.00000000000E+00 -0.39080324737E+03  0.39080324737E+03  0.00000000000E+00 0.  1.
         25    1    1    2    0    0 -0.27088913226E+03  0.11392168336E+03  0.48592452244E+03  0.58146944324E+03  0.12500000000E+03 0.  0.
         21    1    1    2  503  504  0.32492114405E+02 -0.42184065310E+01 -0.67811266194E+02  0.75312019460E+02  0.00000000000E+00 0.  1.
         21    1    1    2  504  501  0.23839701785E+03 -0.10970327683E+03 -0.20804762042E+03  0.33489066787E+03  0.00000000000E+00 0.  1.
<mgrwt>
<rscale>  4 0.31934945E+03</rscale>
<asrwt>0</asrwt>
<pdfrwt beam="1">  1       21 0.92441367E-01 0.31934945E+03</pdfrwt>
<pdfrwt beam="2">  1       21 0.60123576E-01 0.31934945E+03</pdfrwt>
<totfact> 0.23337542E+03</totfact>
</mgrwt>
</event>
<event>
 5    0  0.1359949E+000  0.4009841E+03  0.7546771E-02  0.1043439E+00
         21   -1    0    0  502  501  0.00000000000E+00  0.00000000000E+00  0.36253713494E+03  0.36253713494E+03  0.00000000000E+00 0.  1.
         21   -1    0    0  503  502 -0.00000000000E+00 -0.00000000000E+00 -0.55090584274E+03  0.55090584274E+03  0.00000000000E+00 0. -1.
         25    1    1    2    0    0  0.36839249232E+03 -0.10545939873E+03  0.10698727946E+03  0.41702037258E+03  0.12500000000E+03 0.  0.
         21    1    1    2  503  504 -0.36693527400E+03  0.83014488989E+02 -0.27405781200E+03  0.46544665108E+03  0.00000000000E+00 0. -1.
         21    1    1    2  504  501 -0.14572183256E+01  0.22444909740E+02 -0.21298175257E+02  0.30975954025E+02  0.00000000000E+00 0.  1.
<mgrwt>
<rscale>  4 0.40098412E+03</rscale>
<asrwt>0</asrwt>
<pdfrwt beam="1">  1       21 0.55774944E-01 0.40098412E+03</pdfrwt>
<pdfrwt beam="2">  1       21 0.84754745E-01 0.40098412E+03</pdfrwt>
<totfact> 0.32421418E+03</totfact>
</mgrwt>
</event>
<event>
 5    0  0.1359949E+000  0.3125887E+03  0.7546771E-02  0.1079112E+00
         21   -1    0    0  502  501  0.00000000000E+00  0.00000000000E+00  0.23597384106E+03  0.23597384106E+03  0.00000000000E+00 0. -1.
         21   -1    0    0  503  502 -0.00000000000E+00 -0.00000000000E+00 -0.39187856610E+03  0.39187856610E+03  0.00000000000E+00 0. -1.
         25    1    1    2    0    0 -0.21099246436E+03  0.19382693771E+03 -0.74879184778E+02  0.32143209876E+03  0.12500000000E+03 0.  0.
         21    1    1    2  503  504  0.59396843074E+02 -0.78209003332E+02 -0.58828792547E+02  0.11447908107E+03  0.00000000000E+00 0. -1.
         21    1    1    2  504  501  0.15159562128E+03 -0.11561793438E+03 -0.22196747720E+02  0.19194122734E+03  0.00000000000E+00 0. -1.
<mgrwt>
<rscale>  4 0.31258871E+03</rscale>
<asrwt>0</asrwt>
<pdfrwt beam="1">  1       21 0.36303668E-01 0.31258871E+03</pdfrwt>
<pdfrwt beam="2">  1       21 0.60289010E-01 0.31258871E+03</pdfrwt>
<totfact> 0.17685685E+04</totfact>
</mgrwt>
</event>
<event>
 5    0  0.1359949E+000  0.3097140E+03  0.7546771E-02  0.1080483E+00
         21   -1    0    0  502  501  0.00000000000E+00  0.00000000000E+00  0.24972555757E+03  0.24972555757E+03  0.00000000000E+00 0.  1.
         21   -1    0    0  503  502 -0.00000000000E+00 -0.00000000000E+00 -0.51473876629E+03  0.51473876629E+03  0.00000000000E+00 0.  1.
         25    1    1    2    0    0  0.26906066713E+03 -0.88905011171E+02  0.76142813093E+02  0.31893646952E+03  0.12500000000E+03 0.  0.
         21    1    1    2  503  504 -0.24903891455E+03  0.77026060500E+02 -0.32734397927E+03  0.41845845160E+03  0.00000000000E+00 0.  1.
         21    1    1    2  504  501 -0.20021752582E+02  0.11878950670E+02 -0.13812042540E+02  0.27069402739E+02  0.00000000000E+00 0. -1.
<mgrwt>
<rscale>  4 0.30971397E+03</rscale>
<asrwt>0</asrwt>
<pdfrwt beam="1">  1       21 0.38419317E-01 0.30971397E+03</pdfrwt>
<pdfrwt beam="2">  1       21 0.79190579E-01 0.30971397E+03</pdfrwt>
<totfact> 0.86001589E+03</totfact>
</mgrwt>
</event>
<event>
 5    0  0.1359949E+000  0.3978707E+03  0.7546771E-02  0.1044519E+00
         21   -1    0    0  502  501  0.00000000000E+00  0.00000000000E+00  0.14878073009E+04  0.14878073009E+04  0.00000000000E+00 0. -1.
         21   -1    0    0  503  502 -0.00000000000E+00 -0.00000000000E+00 -0.23781969309E+03  0.23781969309E+03  0.00000000000E+00 0.  1.
         25    1    1    2    0    0 -0.61689253777E+02  0.37807311611E+03  0.11859486529E+04  0.12525350504E+04  0.12500000000E+03 0.  0.
         21    1    1    2  503  504  0.47584121018E+02 -0.10206382045E+01  0.82587120979E+02  0.95320107150E+02  0.00000000000E+00 0.  1.
         21    1    1    2  504  501  0.14105132759E+02 -0.37705247791E+03 -0.18548166166E+02  0.37777183634E+03  0.00000000000E+00 0.  1.
<mgrwt>
<rscale>  4 0.39787065E+03</rscale>
<asrwt>0</asrwt>
<pdfrwt beam="1">  1       21 0.22889343E+00 0.39787065E+03</pdfrwt>
<pdfrwt beam="2">  1       21 0.36587646E-01 0.39787065E+03</pdfrwt>
<totfact> 0.53776392E+02</totfact>
</mgrwt>
</event>
<event>
 5    0  0.1359949E+000  0.2548344E+03  0.7546771E-02  0.1110287E+00
         21   -1    0    0  502  501  0.00000000000E+00  0.00000000000E+00  0.32860959082E+03  0.32860959082E+03  0.00000000000E+00 0.  1.
         21   -1    0    0  503  502 -0.00000000000E+00 -0.00000000000E+00 -0.35193062492E+03  0.35193062492E+03  0.00000000000E+00 0.  1.
         25    1    1    2    0    0 -0.19851877485E+03  0.43278663344E+02  0.16224045219E+03  0.28849559961E+03  0.12500000000E+03 0.  0.
         21    1    1    2  503  504 -0.28499660485E+02 -0.58721755268E+02  0.35923557760E+02  0.74504880321E+02  0.00000000000E+00 0.  1.
         21    1    1    2  504  501  0.22701843533E+03  0.15443091924E+02 -0.22148504406E+03  0.31753973580E+03  0.00000000000E+00 0.  1.
<mgrwt>
<rscale>  4 0.25483441E+03</rscale>
<asrwt>0</asrwt>
<pdfrwt beam="1">  1       21 0.50555322E-01 0.25483441E+03</pdfrwt>
<pdfrwt beam="2">  1       21 0.54143173E-01 0.25483441E+03</pdfrwt>
<totfact> 0.11566893E+04</totfact>
</mgrwt>
</event>
<event>
 5    0  0.1359949E+000  0.4009032E+03  0.7546771E-02  0.1043467E+00
         21   -1    0    0  502  501  0.00000000000E+00  0.00000000000E+00  0.41591647852E+03  0.41591647852E+03  0.00000000000E+00 0. -1.
         21   -1    0    0  503  502 -0.00000000000E+00 -0.00000000000E+00 -0.41065857097E+03  0.41065857097E+03  0.00000000000E+00 0.  1.
         25    1    1    2    0    0 -0.33738504669E+03  0.17683238531E+03  0.11325963202E+03  0.41659465487E+03  0.12500000000E+03 0.  0.
         21    1    1    2  503  504  0.14779325874E+03 -0.13617665405E+03 -0.43379170375E+02  0.20559348448E+03  0.00000000000E+00 0.  1.
         21    1    1    2  504  501  0.18959178794E+03 -0.40655731251E+02 -0.64622554088E+02  0.20438691014E+03  0.00000000000E+00 0.  1.
<mgrwt>
<rscale>  4 0.40090318E+03</rscale>
<asrwt>0</asrwt>
<pdfrwt beam="1">  1       21 0.63987150E-01 0.40090318E+03</pdfrwt>
<pdfrwt beam="2">  1       21 0.63178242E-01 0.40090318E+03</pdfrwt>
<totfact> 0.46734663E+03</totfact>
</mgrwt>
</event>
<event>
 5    0  0.1359949E+000  0.2571899E+03  0.7546771E-02  0.1108843E+00
         21   -1    0    0  502  501  0.00000000000E+00  0.00000000000E+00  0.55571802546E+03  0.55571802546E+03  0.00000000000E+00 0.  1.
         21   -1    0    0  503  502 -0.00000000000E+00 -0.00000000000E+00 -0.10828248116E+03  0.10828248116E+03  0.00000000000E+00 0. -1.
         25    1    1    2    0    0  0.22417927375E+03  0.16287575101E+02  0.18487187013E+03  0.31674001997E+03  0.12500000000E+03 0.  0.
         21    1    1    2  503  504 -0.33160852031E+02  0.37268180214E+01  0.56104415007E+02  0.65278148436E+02  0.00000000000E+00 0.  1.
         21    1    1    2  504  501 -0.19101842172E+03 -0.20014393123E+02  0.20645925917E+03  0.28198233822E+03  0.00000000000E+00 0. -1.
<mgrwt>
<rscale>  4 0.25718988E+03</rscale>
<asrwt>0</asrwt>
<pdfrwt beam="1">  1       21 0.85495079E-01 0.25718988E+03</pdfrwt>
<pdfrwt beam="2">  1       21 0.16658844E-01 0.25718988E+03</pdfrwt>
<totfact> 0.37115675E+04</totfact>
</mgrwt>
</event>
<event>
 5    0  0.1359949E+000  0.2259834E+03  0.7546771E-02  0.1129499E+00
         21   -1    0    0  502  501  0.00000000000E+00  0.00000000000E+00  0.34678897605E+04  0.34678897605E+04  0.00000000000E+00 0.  1.
         21   -1    0    0  503  502 -0.00000000000E+00 -0.00000000000E+00 -0.25637861012E+02  0.25637861012E+02  0.00000000000E+00 0.  1.
         25    1    1    2    0    0 -0.17128685567E+03  0.18950061947E+03  0.17331307200E+04  0.17563077078E+04  0.12500000000E+03 0.  0.
         21    1    1    2  503  504  0.61860051939E+02 -0.69106586941E+02  0.21349990837E+03  0.23277585197E+03  0.00000000000E+00 0.  1.
         21    1    1    2  504  501  0.10942680373E+03 -0.12039403253E+03  0.14956212711E+04  0.15044440618E+04  0.00000000000E+00 0.  1.
<mgrwt>
<rscale>  4 0.22598336E+03</rscale>
<asrwt>0</asrwt>
<pdfrwt beam="1">  1       21 0.53352113E+00 0.22598336E+03</pdfrwt>
<pdfrwt beam="2">  1       21 0.39442890E-02 0.22598336E+03</pdfrwt>
<totfact> 0.41413966E+02</totfact>
</mgrwt>
</event>
<event>
 5    0  0.1359949E+000  0.2365338E+03  0.7546771E-02  0.1122124E+00
         21   -1    0    0  502  501  0.00000000000E+00  0.00000000000E+00  0.11382599926E+03  0.11382599926E+03  0.00000000000E+00 0. -1.
         21   -1    0    0  503  502 -0.00000000000E+00 -0.00000000000E+00 -0.46430087904E+03  0.46430087904E+03  0.00000000000E+00 0. -1.
         25    1    1    2    0    0 -0.93183008284E+02 -0.17787681805E+03 -0.12846808239E+03  0.26916961869E+03  0.12500000000E+03 0.  0.
         21    1    1    2  503  504  0.31067610632E+02  0.63675957168E+02 -0.13519626837E+03  0.15263634866E+03  0.00000000000E+00 0. -1.
         21    1    1    2  504  501  0.62115397651E+02  0.11420086088E+03 -0.86810529011E+02  0.15632091095E+03  0.00000000000E+00 0. -1.
<mgrwt>
<rscale>  4 0.23653379E+03</rscale>
<asrwt>0</asrwt>
<pdfrwt beam="1">  1       21 0.17511692E-01 0.23653379E+03</pdfrwt>
<pdfrwt beam="2">  1       21 0.71430903E-01 0.23653379E+03</pdfrwt>
<totfact> 0.51289213E+04</totfact>
</mgrwt>
</event>
<event>
 5    0  0.1359949E+000  0.2407583E+03  0.7546771E-02  0.1119289E+00
         21   -1    0    0  502  501  0.00000000000E+00  0.00000000000E+00  0.18677871517E+03  0.18677871517E+03  0.00000000000E+00 0.  1.
         21   -1    0    0  503  502 -0.00000000000E+00 -0.00000000000E+00 -0.42678720699E+03  0.42678720699E+03  0.00000000000E+00 0.  1.
         25    1    1    2    0    0  0.83004381461E+02  0.20629372653E+03  0.16721371860E+02  0.25563926386E+03  0.12500000000E+03 0.  0.
         21    1    1    2  503  504 -0.41479000552E+02 -0.29235060768E+02 -0.12034086010E+03  0.13060290531E+03  0.00000000000E+00 0.  1.
         21    1    1    2  504  501 -0.41525380908E+02 -0.17705866576E+03 -0.13638900358E+03  0.22732375300E+03  0.00000000000E+00 0.  1.
<mgrwt>
<rscale>  4 0.24075827E+03</rscale>
<asrwt>0</asrwt>
<pdfrwt beam="1">  1       21 0.28735187E-01 0.24075827E+03</pdfrwt>
<pdfrwt beam="2">  1       21 0.65659569E-01 0.24075827E+03</pdfrwt>
<totfact> 0.24072895E+04</totfact>
</mgrwt>
</event>
<event>
 5    0  0.1359949E+000  0.3019883E+03  0.7546771E-02  0.1084793E+00
         21   -1    0    0  502  501  0.00000000000E+00  0.00000000000E+00  0.10995734575E+03  0.10995734575E+03  0.00000000000E+00 0. -1.
         21   -1    0    0  503  502 -0.00000000000E+00 -0.00000000000E+00 -0.11352789003E+04  0.11352789003E+04  0.00000000000E+00 0. -1.
         25    1    1    2    0    0  0.79373415459E+02 -0.25820260656E+03 -0.18058942387E+03  0.34814690165E+03  0.12500000000E+03 0.  0.
         21    1    1    2  503  504 -0.80739260376E+02  0.66293370771E+02 -0.21999460053E+03  0.24353903883E+03  0.00000000000E+00 0. -1.
         21    1    1    2  504  501  0.13658449174E+01  0.19190923579E+03 -0.62473753015E+03  0.65355030556E+03  0.00000000000E+00 0. -1.
<mgrwt>
<rscale>  4 0.30089705E+03</rscale>
<asrwt>0</asrwt>
<pdfrwt beam="1">  1       21 0.16916513E-01 0.30198828E+03</pdfrwt>
<pdfrwt beam="2">  1       21 0.17465831E+00 0.30198828E+03</pdfrwt>
<totfact> 0.57768526E+03</totfact>
</mgrwt>
</event>
<event>
 5    0  0.1359949E+000  0.4439768E+03  0.7546771E-02  0.1029974E+00
         21   -1    0    0  502  501  0.00000000000E+00  0.00000000000E+00  0.87885447735E+03  0.87885447735E+03  0.00000000000E+00 0.  1.
         21   -1    0    0  503  502 -0.00000000000E+00 -0.00000000000E+00 -0.27960840922E+03  0.27960840922E+03  0.00000000000E+00 0.  1.
         25    1    1    2    0    0 -0.88511398956E+02 -0.41057701924E+03  0.56238523266E+03  0.71295855868E+03  0.12500000000E+03 0.  0.
         21    1    1    2  503  504  0.80390500988E+02  0.16241783941E+03 -0.40003718522E+02  0.18558686565E+03  0.00000000000E+00 0.  1.
         21    1    1    2  504  501  0.81208979686E+01  0.24815917983E+03  0.76864553988E+02  0.25991746224E+03  0.00000000000E+00 0.  1.
<mgrwt>
<rscale>  4 0.44252938E+03</rscale>
<asrwt>0</asrwt>
<pdfrwt beam="1">  1       21 0.13520838E+00 0.44397678E+03</pdfrwt>
<pdfrwt beam="2">  1       21 0.43016679E-01 0.44397678E+03</pdfrwt>
<totfact> 0.17453441E+03</totfact>
</mgrwt>
</event>
<event>
 5    0  0.1359949E+000  0.2863610E+03  0.7546771E-02  0.1092265E+00
         21   -1    0    0  502  501  0.00000000000E+00  0.00000000000E+00  0.14661838975E+04  0.14661838975E+04  0.00000000000E+00 0. -1.
         21   -1    0    0  503  502 -0.00000000000E+00 -0.00000000000E+00 -0.10718033360E+03  0.10718033360E+03  0.00000000000E+00 0. -1.
         25    1    1    2    0    0 -0.25123180556E+03 -0.71277003680E+02  0.12302013880E+04  0.12638110169E+04  0.12500000000E+03 0.  0.
         21    1    1    2  503  504  0.22371774304E+03  0.89991598495E+02  0.87521362075E+02  0.25653090490E+03  0.00000000000E+00 0. -1.
         21    1    1    2  504  501  0.27514062522E+02 -0.18714594815E+02  0.41280813864E+02  0.53022309350E+02  0.00000000000E+00 0. -1.
<mgrwt>
<rscale>  4 0.28636100E+03</rscale>
<asrwt>0</asrwt>
<pdfrwt beam="1">  1       21 0.22556674E+00 0.28636100E+03</pdfrwt>
<pdfrwt beam="2">  1       21 0.16489283E-01 0.28636100E+03</pdfrwt>
<totfact> 0.28304463E+03</totfact>
</mgrwt>
</event>
<event>
 5    0  0.1359949E+000  0.2591790E+03  0.7546771E-02  0.1107638E+00
         21   -1    0    0  502  501  0.00000000000E+00  0.00000000000E+00  0.20298020318E+03  0.20298020318E+03  0.00000000000E+00 0.  1.
         21   -1    0    0  503  502 -0.00000000000E+00 -0.00000000000E+00 -0.31337624120E+03  0.31337624120E+03  0.00000000000E+00 0.  1.
         25    1    1    2    0    0 -0.10995900257E+03  0.19863978173E+03 -0.16915409073E+02  0.25973039136E+03  0.12500000000E+03 0.  0.
         21    1    1    2  503  504  0.99665034720E+02 -0.14073594116E+03 -0.96723531838E+02  0.19772497539E+03  0.00000000000E+00 0.  1.
         21    1    1    2  504  501  0.10293967847E+02 -0.57903840568E+02  0.32429028907E+01  0.58901077628E+02  0.00000000000E+00 0. -1.
<mgrwt>
<rscale>  4 0.25917898E+03</rscale>
<asrwt>0</asrwt>
<pdfrwt beam="1">  1       21 0.31227724E-01 0.25917898E+03</pdfrwt>
<pdfrwt beam="2">  1       21 0.48211729E-01 0.25917898E+03</pdfrwt>
<totfact> 0.39273127E+04</totfact>
</mgrwt>
</event>
<event>
 5    0  0.1359949E+000  0.3044316E+03  0.7546771E-02  0.1083046E+00
         21   -1    0    0  502  501  0.00000000000E+00  0.00000000000E+00  0.10666428604E+03  0.10666428604E+03  0.00000000000E+00 0. -1.
         21   -1    0    0  503  502 -0.00000000000E+00 -0.00000000000E+00 -0.14633372717E+04  0.14633372717E+04  0.00000000000E+00 0. -1.
         25    1    1    2    0    0 -0.12101406023E+03 -0.31846461898E+03 -0.44359252568E+03  0.57311730488E+03  0.12500000000E+03 0.  0.
         21    1    1    2  503  504 -0.22308908389E+02  0.21572779572E+03 -0.59342665905E+03  0.63181592962E+03  0.00000000000E+00 0. -1.
         21    1    1    2  504  501  0.14332296862E+03  0.10273682325E+03 -0.31965380097E+03  0.36506832328E+03  0.00000000000E+00 0. -1.
<mgrwt>
<rscale>  4 0.30443160E+03</rscale>
<asrwt>0</asrwt>
<pdfrwt beam="1">  1       21 0.16409890E-01 0.30443160E+03</pdfrwt>
<pdfrwt beam="2">  1       21 0.22512881E+00 0.30443160E+03</pdfrwt>
<totfact> 0.28389817E+03</totfact>
</mgrwt>
</event>
<event>
 5    0  0.1359949E+000  0.2447677E+03  0.7546771E-02  0.1116657E+00
         21   -1    0    0  502  501  0.00000000000E+00  0.00000000000E+00  0.83204806003E+02  0.83204806003E+02  0.00000000000E+00 0.  1.
         21   -1    0    0  503  502 -0.00000000000E+00 -0.00000000000E+00 -0.81381549171E+03  0.81381549171E+03  0.00000000000E+00 0.  1.
         25    1    1    2    0    0 -0.11761419666E+03  0.18450485506E+03 -0.40004383889E+03  0.47279510767E+03  0.12500000000E+03 0.  0.
         21    1    1    2  503  504 -0.32382909675E+01 -0.19905394581E+02  0.13398428405E+02  0.24212169369E+02  0.00000000000E+00 0. -1.
         21    1    1    2  504  501  0.12085248763E+03 -0.16459946048E+03 -0.34396527522E+03  0.40001302068E+03  0.00000000000E+00 0.  1.
<mgrwt>
<rscale>  4 0.24476770E+03</rscale>
<asrwt>0</asrwt>
<pdfrwt beam="1">  1       21 0.12800740E-01 0.24476770E+03</pdfrwt>
<pdfrwt beam="2">  1       21 0.12520238E+00 0.24476770E+03</pdfrwt>
<totfact> 0.24102074E+04</totfact>
</mgrwt>
</event>
<event>
 5    0  0.1359949E+000  0.2475175E+03  0.7546771E-02  0.1114884E+00
         21   -1    0    0  502  501  0.00000000000E+00  0.00000000000E+00  0.88694106852E+03  0.88694106852E+03  0.00000000000E+00 0.  1.
         21   -1    0    0  503  502 -0.00000000000E+00 -0.00000000000E+00 -0.28778028583E+03  0.28778028583E+03  0.00000000000E+00 0.  1.
         25    1    1    2    0    0 -0.11705469610E+03  0.18097505683E+03  0.81974903040E+03  0.85677724405E+03  0.12500000000E+03 0.  0.
         21    1    1    2  503  504  0.13600443232E+02 -0.17747578732E+02 -0.68400092114E+02  0.71961942776E+02  0.00000000000E+00 0.  1.
         21    1    1    2  504  501  0.10345425287E+03 -0.16322747810E+03 -0.15218815559E+03  0.24598216754E+03  0.00000000000E+00 0.  1.
<mgrwt>
<rscale>  4 0.24751754E+03</rscale>
<asrwt>0</asrwt>
<pdfrwt beam="1">  1       21 0.13645247E+00 0.24751754E+03</pdfrwt>
<pdfrwt beam="2">  1       21 0.44273890E-01 0.24751754E+03</pdfrwt>
<totfact> 0.17866737E+03</totfact>
</mgrwt>
</event>
<event>
 5    0  0.1359949E+000  0.2648178E+03  0.7546771E-02  0.1104283E+00
         21   -1    0    0  502  501  0.00000000000E+00  0.00000000000E+00  0.11528091808E+04  0.11528091808E+04  0.00000000000E+00 0. -1.
         21   -1    0    0  503  502 -0.00000000000E+00 -0.00000000000E+00 -0.10506192147E+03  0.10506192147E+03  0.00000000000E+00 0. -1.
         25    1    1    2    0    0 -0.26873826337E+03  0.47035004893E+02  0.84715003672E+03  0.89873284718E+03  0.12500000000E+03 0.  0.
         21    1    1    2  503  504  0.22386078937E+03 -0.28927407162E+02  0.98748276748E+02  0.24637708916E+03  0.00000000000E+00 0. -1.
         21    1    1    2  504  501  0.44877473996E+02 -0.18107597732E+02  0.10184894582E+03  0.11276116589E+03  0.00000000000E+00 0. -1.
<mgrwt>
<rscale>  4 0.26481783E+03</rscale>
<asrwt>0</asrwt>
<pdfrwt beam="1">  1       21 0.17735525E+00 0.26481783E+03</pdfrwt>
<pdfrwt beam="2">  1       21 0.16163373E-01 0.26481783E+03</pdfrwt>
<totfact> 0.61516604E+03</totfact>
</mgrwt>
</event>
<event>
 5    0  0.1359949E+000  0.4383138E+03  0.7546771E-02  0.1031265E+00
         21   -1    0    0  502  501  0.00000000000E+00  0.00000000000E+00  0.15060896755E+03  0.15060896755E+03  0.00000000000E+00 0. -1.
         21   -1    0    0  503  502 -0.00000000000E+00 -0.00000000000E+00 -0.15925449699E+04  0.15925449699E+04  0.00000000000E+00 0. -1.
         25    1    1    2    0    0  0.23967653611E+03 -0.34503493707E+03 -0.11305491415E+04  0.12125429111E+04  0.12500000000E+03 0.  0.
         21    1    1    2  503  504 -0.19533058601E+03  0.29255314965E+03 -0.29707136353E+03  0.46042673492E+03  0.00000000000E+00 0. -1.
         21    1    1    2  504  501 -0.44345950105E+02  0.52481787418E+02 -0.14315497264E+02  0.70184291428E+02  0.00000000000E+00 0. -1.
<mgrwt>
<rscale>  4 0.43831376E+03</rscale>
<asrwt>0</asrwt>
<pdfrwt beam="1">  1       21 0.23170610E-01 0.43831376E+03</pdfrwt>
<pdfrwt beam="2">  1       21 0.24500693E+00 0.43831376E+03</pdfrwt>
<totfact> 0.10311080E+03</totfact>
</mgrwt>
</event>
<event>
 5    0  0.1359949E+000  0.2425538E+03  0.7546771E-02  0.1118103E+00
         21   -1    0    0  502  501  0.00000000000E+00  0.00000000000E+00  0.18941115109E+04  0.18941115109E+04  0.00000000000E+00 0. -1.
         21   -1    0    0  503  502 -0.00000000000E+00 -0.00000000000E+00 -0.47976161867E+02  0.47976161867E+02  0.00000000000E+00 0. -1.
         25    1    1    2    0    0 -0.19638757487E+03 -0.68112074656E+02  0.15853792281E+04  0.16038265589E+04  0.12500000000E+03 0.  0.
         21    1    1    2  503  504  0.10868703763E+03  0.42170866594E+02  0.18878935593E+03  0.22188437316E+03  0.00000000000E+00 0. -1.
         21    1    1    2  504  501  0.87700537245E+02  0.25941208062E+02  0.71966765051E+02  0.11637674072E+03  0.00000000000E+00 0. -1.
<mgrwt>
<rscale>  4 0.24255378E+03</rscale>
<asrwt>0</asrwt>
<pdfrwt beam="1">  1       21 0.29140171E+00 0.24255378E+03</pdfrwt>
<pdfrwt beam="2">  1       21 0.73809494E-02 0.24255378E+03</pdfrwt>
<totfact> 0.50169747E+03</totfact>
</mgrwt>
</event>
<event>
 5    0  0.1359949E+000  0.2614060E+03  0.7546771E-02  0.1106301E+00
         21   -1    0    0  502  501  0.00000000000E+00  0.00000000000E+00  0.69827444073E+03  0.69827444073E+03  0.00000000000E+00 0. -1.
         21   -1    0    0  503  502 -0.00000000000E+00 -0.00000000000E+00 -0.18144854161E+03  0.18144854161E+03  0.00000000000E+00 0. -1.
         25    1    1    2    0    0 -0.56387566915E+02 -0.22880878448E+03  0.54427701109E+03  0.60613157182E+03  0.12500000000E+03 0.  0.
         21    1    1    2  503  504  0.90304504311E+02  0.18647570641E+03 -0.52655870810E+02  0.21377729840E+03  0.00000000000E+00 0. -1.
         21    1    1    2  504  501 -0.33916937396E+02  0.42333078065E+02  0.25204758840E+02  0.59814112122E+02  0.00000000000E+00 0. -1.
<mgrwt>
<rscale>  4 0.26140602E+03</rscale>
<asrwt>0</asrwt>
<pdfrwt beam="1">  1       21 0.10742684E+00 0.26140602E+03</pdfrwt>
<pdfrwt beam="2">  1       21 0.27915160E-01 0.26140602E+03</pdfrwt>
<totfact> 0.81048331E+03</totfact>
</mgrwt>
</event>
<event>
 5    0  0.1359949E+000  0.2461294E+03  0.7546771E-02  0.1115776E+00
         21   -1    0    0  502  501  0.00000000000E+00  0.00000000000E+00  0.16559263911E+03  0.16559263911E+03  0.00000000000E+00 0.  1.
         21   -1    0    0  503  502 -0.00000000000E+00 -0.00000000000E+00 -0.93026951234E+03  0.93026951234E+03  0.00000000000E+00 0.  1.
         25    1    1    2    0    0  0.22733144141E+03 -0.18672835374E+02  0.11979246120E+02  0.26037811231E+03  0.12500000000E+03 0.  0.
         21    1    1    2  503  504 -0.17629915000E+03 -0.19961092351E+02 -0.25934799594E+03  0.31423115456E+03  0.00000000000E+00 0.  1.
         21    1    1    2  504  501 -0.51032291410E+02  0.38633927725E+02 -0.51730812341E+03  0.52125288458E+03  0.00000000000E+00 0.  1.
<mgrwt>
<rscale>  4 0.24612939E+03</rscale>
<asrwt>0</asrwt>
<pdfrwt beam="1">  1       21 0.25475790E-01 0.24612939E+03</pdfrwt>
<pdfrwt beam="2">  1       21 0.14311839E+00 0.24612939E+03</pdfrwt>
<totfact> 0.47409240E+03</totfact>
</mgrwt>
</event>
<event>
 5    0  0.1359949E+000  0.2477103E+03  0.7546771E-02  0.1114760E+00
         21   -1    0    0  502  501  0.00000000000E+00  0.00000000000E+00  0.29249841966E+03  0.29249841966E+03  0.00000000000E+00 0. -1.
         21   -1    0    0  503  502 -0.00000000000E+00 -0.00000000000E+00 -0.29463697536E+03  0.29463697536E+03  0.00000000000E+00 0. -1.
         25    1    1    2    0    0  0.19821864136E+03  0.80279320352E+02  0.17658006123E+03  0.30420538635E+03  0.12500000000E+03 0.  0.
         21    1    1    2  503  504 -0.15321358953E+03 -0.41020337507E+02 -0.11738263453E+03  0.19732145092E+03  0.00000000000E+00 0. -1.
         21    1    1    2  504  501 -0.45005051836E+02 -0.39258982845E+02 -0.61335982391E+02  0.85608557754E+02  0.00000000000E+00 0. -1.
<mgrwt>
<rscale>  4 0.24771031E+03</rscale>
<asrwt>0</asrwt>
<pdfrwt beam="1">  1       21 0.44999757E-01 0.24771031E+03</pdfrwt>
<pdfrwt beam="2">  1       21 0.45328765E-01 0.24771031E+03</pdfrwt>
<totfact> 0.21474254E+04</totfact>
</mgrwt>
</event>
<event>
 5    0  0.1359949E+000  0.2493074E+03  0.7546771E-02  0.1113743E+00
         21   -1    0    0  502  501  0.00000000000E+00  0.00000000000E+00  0.80758828047E+03  0.80758828047E+03  0.00000000000E+00 0.  1.
         21   -1    0    0  503  502 -0.00000000000E+00 -0.00000000000E+00 -0.78226779451E+03  0.78226779451E+03  0.00000000000E+00 0. -1.
         25    1    1    2    0    0  0.75253751343E+02  0.20272784249E+03  0.76631740140E+03  0.80599569782E+03  0.12500000000E+03 0.  0.
         21    1    1    2  503  504 -0.49480737361E+02  0.71257127586E+00 -0.17488979550E+03  0.18175613249E+03  0.00000000000E+00 0. -1.
         21    1    1    2  504  501 -0.25773013982E+02 -0.20344041376E+03 -0.56610711995E+03  0.60210424467E+03  0.00000000000E+00 0. -1.
<mgrwt>
<rscale>  4 0.24930745E+03</rscale>
<asrwt>0</asrwt>
<pdfrwt beam="1">  1       21 0.12424435E+00 0.24930745E+03</pdfrwt>
<pdfrwt beam="2">  1       21 0.12034889E+00 0.24930745E+03</pdfrwt>
<totfact> 0.23863346E+02</totfact>
</mgrwt>
</event>
<event>
 5    0  0.1359949E+000  0.2407277E+03  0.7546771E-02  0.1119309E+00
         21   -1    0    0  502  501  0.00000000000E+00  0.00000000000E+00  0.11805170412E+04  0.11805170412E+04  0.00000000000E+00 0. -1.
         21   -1    0    0  503  502 -0.00000000000E+00 -0.00000000000E+00 -0.46542944388E+02  0.46542944388E+02  0.00000000000E+00 0. -1.
         25    1    1    2    0    0 -0.15853827842E+03 -0.13111231029E+03  0.44534775919E+03  0.50624544467E+03  0.12500000000E+03 0.  0.
         21    1    1    2  503  504  0.10596838619E+03  0.95840735338E+02  0.38497523966E+03  0.41063448537E+03  0.00000000000E+00 0. -1.
         21    1    1    2  504  501  0.52569892224E+02  0.35271574950E+02  0.30365109792E+03  0.31018005551E+03  0.00000000000E+00 0. -1.
<mgrwt>
<rscale>  4 0.24072770E+03</rscale>
<asrwt>0</asrwt>
<pdfrwt beam="1">  1       21 0.18161798E+00 0.24072770E+03</pdfrwt>
<pdfrwt beam="2">  1       21 0.71604539E-02 0.24072770E+03</pdfrwt>
<totfact> 0.25016089E+04</totfact>
</mgrwt>
</event>
<event>
 5    0  0.1359949E+000  0.3035771E+03  0.7546771E-02  0.1083466E+00
         21   -1    0    0  502  501  0.00000000000E+00  0.00000000000E+00  0.98011581295E+02  0.98011581295E+02  0.00000000000E+00 0.  1.
         21   -1    0    0  503  502 -0.00000000000E+00 -0.00000000000E+00 -0.28102052457E+04  0.28102052457E+04  0.00000000000E+00 0.  1.
         25    1    1    2    0    0  0.26685615234E+03 -0.11704917804E+03 -0.20046084701E+03  0.37512966732E+03  0.12500000000E+03 0.  0.
         21    1    1    2  503  504 -0.16968819221E+03  0.47038008281E+02 -0.19904497434E+04  0.19982234204E+04  0.00000000000E+00 0.  1.
         21    1    1    2  504  501 -0.97167960124E+02  0.70011169763E+02 -0.52128307401E+03  0.53486373930E+03  0.00000000000E+00 0. -1.
<mgrwt>
<rscale>  4 0.30357707E+03</rscale>
<asrwt>0</asrwt>
<pdfrwt beam="1">  1       21 0.15078708E-01 0.30357707E+03</pdfrwt>
<pdfrwt beam="2">  1       21 0.43233919E+00 0.30357707E+03</pdfrwt>
<totfact> 0.18104727E+02</totfact>
</mgrwt>
</event>
<event>
 5    0  0.1359949E+000  0.4881113E+03  0.7546771E-02  0.1016929E+00
         21   -1    0    0  502  501  0.00000000000E+00  0.00000000000E+00  0.19976654441E+03  0.19976654441E+03  0.00000000000E+00 0. -1.
         21   -1    0    0  503  502 -0.00000000000E+00 -0.00000000000E+00 -0.11776370420E+04  0.11776370420E+04  0.00000000000E+00 0. -1.
         25    1    1    2    0    0 -0.34919021673E+03  0.31732295272E+03 -0.48734699412E+03  0.68975340265E+03  0.12500000000E+03 0.  0.
         21    1    1    2  503  504  0.24183770988E+03 -0.26968393078E+03 -0.34074748413E+03  0.49731654746E+03  0.00000000000E+00 0. -1.
         21    1    1    2  504  501  0.10735250685E+03 -0.47639021946E+02 -0.14977601930E+03  0.19033363627E+03  0.00000000000E+00 0.  1.
<mgrwt>
<rscale>  4 0.48811132E+03</rscale>
<asrwt>0</asrwt>
<pdfrwt beam="1">  1       21 0.30733315E-01 0.48811132E+03</pdfrwt>
<pdfrwt beam="2">  1       21 0.18117493E+00 0.48811132E+03</pdfrwt>
<totfact> 0.15118680E+03</totfact>
</mgrwt>
</event>
<event>
 5    0  0.1359949E+000  0.2446739E+03  0.7546771E-02  0.1116718E+00
         21   -1    0    0  502  501  0.00000000000E+00  0.00000000000E+00  0.25584670196E+03  0.25584670196E+03  0.00000000000E+00 0.  1.
         21   -1    0    0  503  502 -0.00000000000E+00 -0.00000000000E+00 -0.56917791871E+03  0.56917791871E+03  0.00000000000E+00 0. -1.
         25    1    1    2    0    0 -0.11923229765E+03 -0.24070999388E+03  0.92240040621E+02  0.31030769738E+03  0.12500000000E+03 0.  0.
         21    1    1    2  503  504  0.12473550577E+03  0.16080168788E+03 -0.37925433927E+03  0.43040676467E+03  0.00000000000E+00 0. -1.
         21    1    1    2  504  501 -0.55032081145E+01  0.79908306005E+02 -0.26316918099E+02  0.84310158619E+02  0.00000000000E+00 0. -1.
<mgrwt>
<rscale>  4 0.24467387E+03</rscale>
<asrwt>0</asrwt>
<pdfrwt beam="1">  1       21 0.39361032E-01 0.24467387E+03</pdfrwt>
<pdfrwt beam="2">  1       21 0.87565831E-01 0.24467387E+03</pdfrwt>
<totfact> 0.67213691E+03</totfact>
</mgrwt>
</event>
<event>
 5    0  0.1359949E+000  0.2637676E+03  0.7546771E-02  0.1104900E+00
         21   -1    0    0  502  501  0.00000000000E+00  0.00000000000E+00  0.83659094500E+03  0.83659094500E+03  0.00000000000E+00 0.  1.
         21   -1    0    0  503  502 -0.00000000000E+00 -0.00000000000E+00 -0.11406247176E+03  0.11406247176E+03  0.00000000000E+00 0.  1.
         25    1    1    2    0    0  0.15942186834E+02 -0.23172012052E+03  0.64475575158E+03  0.69662281528E+03  0.12500000000E+03 0.  0.
         21    1    1    2  503  504  0.23619294730E+02  0.63464018654E+02  0.33784018515E+02  0.75676367871E+02  0.00000000000E+00 0. -1.
         21    1    1    2  504  501 -0.39561481564E+02  0.16825610187E+03  0.43988703147E+02  0.17835423360E+03  0.00000000000E+00 0.  1.
<mgrwt>
<rscale>  4 0.26376764E+03</rscale>
<asrwt>0</asrwt>
<pdfrwt beam="1">  1       21 0.12870630E+00 0.26376764E+03</pdfrwt>
<pdfrwt beam="2">  1       21 0.17548073E-01 0.26376764E+03</pdfrwt>
<totfact> 0.12482731E+04</totfact>
</mgrwt>
</event>
<event>
 5    0  0.1359949E+000  0.2916009E+03  0.7546771E-02  0.1089516E+00
         21   -1    0    0  502  501  0.00000000000E+00  0.00000000000E+00  0.38449180712E+03  0.38449180712E+03  0.00000000000E+00 0. -1.
         21   -1    0    0  503  502 -0.00000000000E+00 -0.00000000000E+00 -0.65868451485E+03  0.65868451485E+03  0.00000000000E+00 0. -1.
         25    1    1    2    0    0  0.71171869646E+02 -0.25365459488E+03  0.29343689705E+03  0.41368623506E+03  0.12500000000E+03 0.  0.
         21    1    1    2  503  504 -0.38255038082E+02  0.37802891202E+02 -0.11187157850E+03  0.12412798475E+03  0.00000000000E+00 0. -1.
         21    1    1    2  504  501 -0.32916831563E+02  0.21585170368E+03 -0.45575802627E+03  0.50536210215E+03  0.00000000000E+00 0. -1.
<mgrwt>
<rscale>  4 0.29160091E+03</rscale>
<asrwt>0</asrwt>
<pdfrwt beam="1">  1       21 0.59152587E-01 0.29160091E+03</pdfrwt>
<pdfrwt beam="2">  1       21 0.10133608E+00 0.29160091E+03</pdfrwt>
<totfact> 0.19730812E+03</totfact>
</mgrwt>
</event>
<event>
 5    0  0.1359949E+000  0.3702159E+03  0.7546771E-02  0.1054610E+00
         21   -1    0    0  502  501  0.00000000000E+00  0.00000000000E+00  0.93935765984E+03  0.93935765984E+03  0.00000000000E+00 0.  1.
         21   -1    0    0  503  502 -0.00000000000E+00 -0.00000000000E+00 -0.32379288418E+03  0.32379288418E+03  0.00000000000E+00 0. -1.
         25    1    1    2    0    0  0.28218195459E+03 -0.21280874847E+03  0.76224437644E+03  0.84944435270E+03  0.12500000000E+03 0.  0.
         21    1    1    2  503  504 -0.57422009952E+02 -0.20874455174E+02 -0.10295703635E+02  0.61959919457E+02  0.00000000000E+00 0.  1.
         21    1    1    2  504  501 -0.22475994464E+03  0.23368320364E+03 -0.13638389714E+03  0.35174627187E+03  0.00000000000E+00 0. -1.
<mgrwt>
<rscale>  4 0.37021589E+03</rscale>
<asrwt>0</asrwt>
<pdfrwt beam="1">  1       21 0.14451656E+00 0.37021589E+03</pdfrwt>
<pdfrwt beam="2">  1       21 0.49814290E-01 0.37021589E+03</pdfrwt>
<totfact> 0.11123274E+03</totfact>
</mgrwt>
</event>
<event>
 5    0  0.1359949E+000  0.2603061E+03  0.7546771E-02  0.1106959E+00
         21   -1    0    0  502  501  0.00000000000E+00  0.00000000000E+00  0.39396600809E+03  0.39396600809E+03  0.00000000000E+00 0. -1.
         21   -1    0    0  503  502 -0.00000000000E+00 -0.00000000000E+00 -0.66489766531E+03  0.66489766531E+03  0.00000000000E+00 0. -1.
         25    1    1    2    0    0 -0.18892714943E+03 -0.12822160063E+03  0.32686971773E+03  0.41785530872E+03  0.12500000000E+03 0.  0.
         21    1    1    2  503  504  0.17995603183E+03  0.10971938797E+03 -0.54735973017E+03  0.58653660730E+03  0.00000000000E+00 0. -1.
         21    1    1    2  504  501  0.89711176001E+01  0.18502212664E+02 -0.50441644768E+02  0.54471757373E+02  0.00000000000E+00 0. -1.
<mgrwt>
<rscale>  4 0.26030606E+03</rscale>
<asrwt>0</asrwt>
<pdfrwt beam="1">  1       21 0.60610155E-01 0.26030606E+03</pdfrwt>
<pdfrwt beam="2">  1       21 0.10229195E+00 0.26030606E+03</pdfrwt>
<totfact> 0.18673848E+03</totfact>
</mgrwt>
</event>
<event>
 5    0  0.1359949E+000  0.2483357E+03  0.7546771E-02  0.1114361E+00
         21   -1    0    0  502  501  0.00000000000E+00  0.00000000000E+00  0.10247191320E+04  0.10247191320E+04  0.00000000000E+00 0.  1.
         21   -1    0    0  503  502 -0.00000000000E+00 -0.00000000000E+00 -0.26430644157E+03  0.26430644157E+03  0.00000000000E+00 0.  1.
         25    1    1    2    0    0  0.36713801302E+02  0.21141839566E+03  0.95128573348E+03  0.98316590052E+03  0.12500000000E+03 0.  0.
         21    1    1    2  503  504 -0.55667494774E+02 -0.63778071761E+02 -0.39008711673E+02  0.93210471506E+02  0.00000000000E+00 0. -1.
         21    1    1    2  504  501  0.18953693472E+02 -0.14764032390E+03 -0.15186433142E+03  0.21264920149E+03  0.00000000000E+00 0.  1.
<mgrwt>
<rscale>  4 0.24833574E+03</rscale>
<asrwt>0</asrwt>
<pdfrwt beam="1">  1       21 0.15764910E+00 0.24833574E+03</pdfrwt>
<pdfrwt beam="2">  1       21 0.40662530E-01 0.24833574E+03</pdfrwt>
<totfact> 0.14512300E+03</totfact>
</mgrwt>
</event>
<event>
 5    0  0.1359949E+000  0.2374766E+03  0.7546771E-02  0.1121485E+00
         21   -1    0    0  502  501  0.00000000000E+00  0.00000000000E+00  0.27181402346E+03  0.27181402346E+03  0.00000000000E+00 0.  1.
         21   -1    0    0  503  502 -0.00000000000E+00 -0.00000000000E+00 -0.22382921141E+03  0.22382921141E+03  0.00000000000E+00 0.  1.
         25    1    1    2    0    0  0.16621389857E+03  0.11464323760E+03  0.12719713504E+03  0.26939607118E+03  0.12500000000E+03 0.  0.
         21    1    1    2  503  504 -0.13442567874E+03 -0.10380682333E+03 -0.88343168128E+02  0.19144355573E+03  0.00000000000E+00 0.  1.
         21    1    1    2  504  501 -0.31788219830E+02 -0.10836414269E+02  0.91308451345E+01  0.34803607960E+02  0.00000000000E+00 0. -1.
<mgrwt>
<rscale>  4 0.23747659E+03</rscale>
<asrwt>0</asrwt>
<pdfrwt beam="1">  1       21 0.41817542E-01 0.23747659E+03</pdfrwt>
<pdfrwt beam="2">  1       21 0.34435263E-01 0.23747659E+03</pdfrwt>
<totfact> 0.43804842E+04</totfact>
</mgrwt>
</event>
<event>
 5    0  0.1359949E+000  0.3215868E+03  0.7546771E-02  0.1074921E+00
         21   -1    0    0  502  501  0.00000000000E+00  0.00000000000E+00  0.22776400860E+03  0.22776400860E+03  0.00000000000E+00 0.  1.
         21   -1    0    0  503  502 -0.00000000000E+00 -0.00000000000E+00 -0.10716661679E+04  0.10716661679E+04  0.00000000000E+00 0.  1.
         25    1    1    2    0    0  0.18750905318E+02 -0.29570502032E+03  0.73484518751E+02  0.32987577963E+03  0.12500000000E+03 0.  0.
         21    1    1    2  503  504 -0.45612483314E+02  0.19121087305E+03 -0.47225415552E+03  0.51153307226E+03  0.00000000000E+00 0.  1.
         21    1    1    2  504  501  0.26861577996E+02  0.10449414726E+03 -0.44513252254E+03  0.45802132462E+03  0.00000000000E+00 0.  1.
<mgrwt>
<rscale>  4 0.32158678E+03</rscale>
<asrwt>0</asrwt>
<pdfrwt beam="1">  1       21 0.35040617E-01 0.32158678E+03</pdfrwt>
<pdfrwt beam="2">  1       21 0.16487172E+00 0.32158678E+03</pdfrwt>
<totfact> 0.16488382E+03</totfact>
</mgrwt>
</event>
<event>
 5    0  0.1359949E+000  0.2765454E+03  0.7546771E-02  0.1097591E+00
         21   -1    0    0  502  501  0.00000000000E+00  0.00000000000E+00  0.17399187264E+03  0.17399187264E+03  0.00000000000E+00 0. -1.
         21   -1    0    0  503  502 -0.00000000000E+00 -0.00000000000E+00 -0.55379654257E+03  0.55379654257E+03  0.00000000000E+00 0. -1.
         25    1    1    2    0    0 -0.22738511125E+03 -0.95647030356E+02 -0.80698358231E+01  0.27666309021E+03  0.12500000000E+03 0.  0.
         21    1    1    2  503  504  0.70595145507E+01  0.22001837187E+02 -0.29013771094E+02  0.37090652440E+02  0.00000000000E+00 0.  1.
         21    1    1    2  504  501  0.22032559670E+03  0.73645193169E+02 -0.34272106301E+03  0.41403467255E+03  0.00000000000E+00 0. -1.
<mgrwt>
<rscale>  4 0.27654537E+03</rscale>
<asrwt>0</asrwt>
<pdfrwt beam="1">  1       21 0.26767980E-01 0.27654537E+03</pdfrwt>
<pdfrwt beam="2">  1       21 0.85199468E-01 0.27654537E+03</pdfrwt>
<totfact> 0.15118289E+04</totfact>
</mgrwt>
</event>
<event>
 5    0  0.1359949E+000  0.3785818E+03  0.7546771E-02  0.1051459E+00
         21   -1    0    0  502  501  0.00000000000E+00  0.00000000000E+00  0.22217543838E+03  0.22217543838E+03  0.00000000000E+00 0.  1.
         21   -1    0    0  503  502 -0.00000000000E+00 -0.00000000000E+00 -0.77590219061E+03  0.77590219061E+03  0.00000000000E+00 0.  1.
         25    1    1    2    0    0 -0.28716306511E+03 -0.21268885734E+03 -0.49434308220E+03  0.62265500795E+03  0.12500000000E+03 0.  0.
         21    1    1    2  503  504  0.59723093309E+02  0.27475921563E+02  0.24807965945E+02  0.70265278156E+02  0.00000000000E+00 0. -1.
         21    1    1    2  504  501  0.22743997180E+03  0.18521293578E+03 -0.84191635974E+02  0.30515734290E+03  0.00000000000E+00 0.  1.
<mgrwt>
<rscale>  4 0.37858180E+03</rscale>
<asrwt>0</asrwt>
<pdfrwt beam="1">  1       21 0.34180836E-01 0.37858180E+03</pdfrwt>
<pdfrwt beam="2">  1       21 0.11936957E+00 0.37858180E+03</pdfrwt>
<totfact> 0.39537805E+03</totfact>
</mgrwt>
</event>
<event>
 5    0  0.1359949E+000  0.3112992E+03  0.7546771E-02  0.1079725E+00
         21   -1    0    0  502  501  0.00000000000E+00  0.00000000000E+00  0.29374647123E+03  0.29374647123E+03  0.00000000000E+00 0.  1.
         21   -1    0    0  503  502 -0.00000000000E+00 -0.00000000000E+00 -0.47339782133E+03  0.47339782133E+03  0.00000000000E+00 0.  1.
         25    1    1    2    0    0 -0.26289873947E+03  0.11030149332E+03  0.13470580237E+03  0.33919436881E+03  0.12500000000E+03 0.  0.
         21    1    1    2  503  504  0.40724115814E+02  0.22179843102E+01 -0.35465821528E+02  0.54048104129E+02  0.00000000000E+00 0.  1.
         21    1    1    2  504  501  0.22217462365E+03 -0.11251947763E+03 -0.27889133094E+03  0.37390181962E+03  0.00000000000E+00 0.  1.
<mgrwt>
<rscale>  4 0.31129916E+03</rscale>
<asrwt>0</asrwt>
<pdfrwt beam="1">  1       21 0.45191765E-01 0.31129916E+03</pdfrwt>
<pdfrwt beam="2">  1       21 0.72830434E-01 0.31129916E+03</pdfrwt>
<totfact> 0.74418708E+03</totfact>
</mgrwt>
</event>
<event>
 5    0  0.1359949E+000  0.2405300E+03  0.7546771E-02  0.1119440E+00
         21   -1    0    0  502  501  0.00000000000E+00  0.00000000000E+00  0.30228942539E+02  0.30228942539E+02  0.00000000000E+00 0. -1.
         21   -1    0    0  503  502 -0.00000000000E+00 -0.00000000000E+00 -0.17011470321E+04  0.17011470321E+04  0.00000000000E+00 0. -1.
         25    1    1    2    0    0  0.18719323122E+03 -0.84784264455E+02 -0.79198535940E+03  0.82770495155E+03  0.12500000000E+03 0.  0.
         21    1    1    2  503  504 -0.17111529560E+03  0.64310144626E+02 -0.79732019416E+03  0.81800717057E+03  0.00000000000E+00 0. -1.
         21    1    1    2  504  501 -0.16077935621E+02  0.20474119828E+02 -0.81612536005E+02  0.85663852527E+02  0.00000000000E+00 0.  1.
<mgrwt>
<rscale>  4 0.24052999E+03</rscale>
<asrwt>0</asrwt>
<pdfrwt beam="1">  1       21 0.46506037E-02 0.24052999E+03</pdfrwt>
<pdfrwt beam="2">  1       21 0.26171509E+00 0.24052999E+03</pdfrwt>
<totfact> 0.16583634E+04</totfact>
</mgrwt>
</event>
<event>
 5    0  0.1359949E+000  0.2505520E+03  0.7546771E-02  0.1112956E+00
         21   -1    0    0  502  501  0.00000000000E+00  0.00000000000E+00  0.47757567100E+03  0.47757567100E+03  0.00000000000E+00 0. -1.
         21   -1    0    0  503  502 -0.00000000000E+00 -0.00000000000E+00 -0.15238988331E+03  0.15238988331E+03  0.00000000000E+00 0. -1.
         25    1    1    2    0    0 -0.12030217662E+03  0.19909671634E+03  0.23679560376E+03  0.35469603059E+03  0.12500000000E+03 0.  0.
         21    1    1    2  503  504  0.11721613648E+03 -0.16449066722E+03  0.11416080957E+03  0.23201183740E+03  0.00000000000E+00 0. -1.
         21    1    1    2  504  501  0.30860401471E+01 -0.34606049116E+02 -0.25770625649E+02  0.43257686318E+02  0.00000000000E+00 0. -1.
<mgrwt>
<rscale>  4 0.25055197E+03</rscale>
<asrwt>0</asrwt>
<pdfrwt beam="1">  1       21 0.73473180E-01 0.25055197E+03</pdfrwt>
<pdfrwt beam="2">  1       21 0.23444598E-01 0.25055197E+03</pdfrwt>
<totfact> 0.27653226E+04</totfact>
</mgrwt>
</event>
<event>
 5    0  0.1359949E+000  0.2662180E+03  0.7546771E-02  0.1103464E+00
         21   -1    0    0  502  501  0.00000000000E+00  0.00000000000E+00  0.36214940849E+03  0.36214940849E+03  0.00000000000E+00 0.  1.
         21   -1    0    0  503  502 -0.00000000000E+00 -0.00000000000E+00 -0.17789189197E+03  0.17789189197E+03  0.00000000000E+00 0.  1.
         25    1    1    2    0    0 -0.23101417422E+02 -0.23390889089E+03  0.10922028606E+03  0.28775182990E+03  0.12500000000E+03 0.  0.
         21    1    1    2  503  504  0.14297640026E+02  0.19221462380E+03  0.81352070503E+02  0.20921052432E+03  0.00000000000E+00 0.  1.
         21    1    1    2  504  501  0.88037773959E+01  0.41694267086E+02 -0.63148400399E+01  0.43078946239E+02  0.00000000000E+00 0.  1.
<mgrwt>
<rscale>  4 0.26621804E+03</rscale>
<asrwt>0</asrwt>
<pdfrwt beam="1">  1       21 0.55715294E-01 0.26621804E+03</pdfrwt>
<pdfrwt beam="2">  1       21 0.27367983E-01 0.26621804E+03</pdfrwt>
<totfact> 0.37353033E+04</totfact>
</mgrwt>
</event>
<event>
 5    0  0.1359949E+000  0.3002150E+03  0.7546771E-02  0.1085133E+00
         21   -1    0    0  502  501  0.00000000000E+00  0.00000000000E+00  0.47498785432E+02  0.47498785432E+02  0.00000000000E+00 0.  1.
         21   -1    0    0  503  502 -0.00000000000E+00 -0.00000000000E+00 -0.17611471357E+04  0.17611471357E+04  0.00000000000E+00 0.  1.
         25    1    1    2    0    0  0.98342860751E+02  0.25462271645E+03 -0.93090499439E+03  0.97811714767E+03  0.12500000000E+03 0.  0.
         21    1    1    2  503  504 -0.10105199248E+03 -0.21158028410E+03 -0.65523893466E+03  0.69592800152E+03  0.00000000000E+00 0.  1.
         21    1    1    2  504  501  0.27091317316E+01 -0.43042432350E+02 -0.12750442123E+03  0.13460077195E+03  0.00000000000E+00 0.  1.
<mgrwt>
<rscale>  4 0.30021500E+03</rscale>
<asrwt>0</asrwt>
<pdfrwt beam="1">  1       21 0.73075059E-02 0.30021500E+03</pdfrwt>
<pdfrwt beam="2">  1       21 0.27094570E+00 0.30021500E+03</pdfrwt>
<totfact> 0.64370645E+03</totfact>
</mgrwt>
</event>
<event>
 5    0  0.1359949E+000  0.3339239E+03  0.7546771E-02  0.1069414E+00
         21   -1    0    0  502  501  0.00000000000E+00  0.00000000000E+00  0.69951601900E+03  0.69951601900E+03  0.00000000000E+00 0. -1.
         21   -1    0    0  503  502 -0.00000000000E+00 -0.00000000000E+00 -0.30160427917E+03  0.30160427917E+03  0.00000000000E+00 0. -1.
         25    1    1    2    0    0 -0.11343231258E+02  0.37530451394E+03  0.30412262224E+03  0.49909690085E+03  0.12500000000E+03 0.  0.
         21    1    1    2  503  504  0.16143287542E+03 -0.15016756280E+03  0.18990392477E+02  0.22129506364E+03  0.00000000000E+00 0. -1.
         21    1    1    2  504  501 -0.15008964416E+03 -0.22513695114E+03  0.74798725114E+02  0.28072833368E+03  0.00000000000E+00 0. -1.
<mgrwt>
<rscale>  4 0.33392386E+03</rscale>
<asrwt>0</asrwt>
<pdfrwt beam="1">  1       21 0.10761785E+00 0.33392386E+03</pdfrwt>
<pdfrwt beam="2">  1       21 0.46400658E-01 0.33392386E+03</pdfrwt>
<totfact> 0.27897563E+03</totfact>
</mgrwt>
</event>
<event>
 5    0  0.1359949E+000  0.2555755E+03  0.7546771E-02  0.1109831E+00
         21   -1    0    0  502  501  0.00000000000E+00  0.00000000000E+00  0.17373315407E+03  0.17373315407E+03  0.00000000000E+00 0. -1.
         21   -1    0    0  503  502 -0.00000000000E+00 -0.00000000000E+00 -0.74182329347E+03  0.74182329347E+03  0.00000000000E+00 0. -1.
         25    1    1    2    0    0  0.46255784419E+02  0.22269183719E+03  0.36574617670E+02  0.26209531587E+03  0.12500000000E+03 0.  0.
         21    1    1    2  503  504 -0.15898700702E+02 -0.20046445785E+03 -0.56027993133E+03  0.59527503643E+03  0.00000000000E+00 0. -1.
         21    1    1    2  504  501 -0.30357083717E+02 -0.22227379341E+02 -0.44384825739E+02  0.58186095246E+02  0.00000000000E+00 0. -1.
<mgrwt>
<rscale>  4 0.25557553E+03</rscale>
<asrwt>0</asrwt>
<pdfrwt beam="1">  1       21 0.26728178E-01 0.25557553E+03</pdfrwt>
<pdfrwt beam="2">  1       21 0.11412666E+00 0.25557553E+03</pdfrwt>
<totfact> 0.76311974E+03</totfact>
</mgrwt>
</event>
<event>
 5    0  0.1359949E+000  0.2496906E+03  0.7546771E-02  0.1113500E+00
         21   -1    0    0  502  501  0.00000000000E+00  0.00000000000E+00  0.22333681430E+04  0.22333681430E+04  0.00000000000E+00 0.  1.
         21   -1    0    0  503  502 -0.00000000000E+00 -0.00000000000E+00 -0.30765456298E+02  0.30765456298E+02  0.00000000000E+00 0.  1.
         25    1    1    2    0    0 -0.14008840037E+03 -0.18762719014E+03  0.10215888232E+04  0.10555081459E+04  0.12500000000E+03 0.  0.
         21    1    1    2  503  504  0.14484541526E+03  0.14203449934E+03  0.82039158549E+03  0.84510138259E+03  0.00000000000E+00 0.  1.
         21    1    1    2  504  501 -0.47570148851E+01  0.45592690794E+02  0.36062227805E+03  0.36352407083E+03  0.00000000000E+00 0. -1.
<mgrwt>
<rscale>  4 0.24969065E+03</rscale>
<asrwt>0</asrwt>
<pdfrwt beam="1">  1       21 0.34359497E+00 0.24969065E+03</pdfrwt>
<pdfrwt beam="2">  1       21 0.47331489E-02 0.24969065E+03</pdfrwt>
<totfact> 0.52870165E+03</totfact>
</mgrwt>
</event>
<event>
 5    0  0.1359949E+000  0.3127496E+03  0.7546771E-02  0.1079035E+00
         21   -1    0    0  502  501  0.00000000000E+00  0.00000000000E+00  0.11332343784E+03  0.11332343784E+03  0.00000000000E+00 0. -1.
         21   -1    0    0  503  502 -0.00000000000E+00 -0.00000000000E+00 -0.26172216452E+04  0.26172216452E+04  0.00000000000E+00 0. -1.
         25    1    1    2    0    0  0.22503275485E+03 -0.18657499513E+03 -0.15082500248E+03  0.35188513884E+03  0.12500000000E+03 0.  0.
         21    1    1    2  503  504 -0.14657597686E+03  0.21429324273E+03 -0.15891752851E+04  0.16102435212E+04  0.00000000000E+00 0. -1.
         21    1    1    2  504  501 -0.78456777988E+02 -0.27718247593E+02 -0.76389791976E+03  0.76841642296E+03  0.00000000000E+00 0. -1.
<mgrwt>
<rscale>  4 0.31274957E+03</rscale>
<asrwt>0</asrwt>
<pdfrwt beam="1">  1       21 0.17434377E-01 0.31274957E+03</pdfrwt>
<pdfrwt beam="2">  1       21 0.40264945E+00 0.31274957E+03</pdfrwt>
<totfact> 0.21313805E+02</totfact>
</mgrwt>
</event>
<event>
 5    0  0.1359949E+000  0.2429776E+03  0.7546771E-02  0.1117825E+00
         21   -1    0    0  502  501  0.00000000000E+00  0.00000000000E+00  0.82349714167E+02  0.82349714167E+02  0.00000000000E+00 0. -1.
         21   -1    0    0  503  502 -0.00000000000E+00 -0.00000000000E+00 -0.14513626558E+04  0.14513626558E+04  0.00000000000E+00 0.  1.
         25    1    1    2    0    0  0.20386900694E+03 -0.60893208090E+02 -0.14739404507E+03  0.28743792253E+03  0.12500000000E+03 0.  0.
         21    1    1    2  503  504 -0.16754067731E+03  0.97846949945E+02 -0.91995592644E+03  0.94019296464E+03  0.00000000000E+00 0.  1.
         21    1    1    2  504  501 -0.36328329633E+02 -0.36953741856E+02 -0.30166297014E+03  0.30608148281E+03  0.00000000000E+00 0. -1.
<mgrwt>
<rscale>  4 0.24297765E+03</rscale>
<asrwt>0</asrwt>
<pdfrwt beam="1">  1       21 0.12669187E-01 0.24297765E+03</pdfrwt>
<pdfrwt beam="2">  1       21 0.22328655E+00 0.24297765E+03</pdfrwt>
<totfact> 0.48905551E+03</totfact>
</mgrwt>
</event>
<event>
 5    0  0.1359949E+000  0.2969804E+03  0.7546771E-02  0.1086760E+00
         21   -1    0    0  502  501  0.00000000000E+00  0.00000000000E+00  0.20985576185E+04  0.20985576185E+04  0.00000000000E+00 0. -1.
         21   -1    0    0  503  502 -0.00000000000E+00 -0.00000000000E+00 -0.52094960943E+02  0.52094960943E+02  0.00000000000E+00 0. -1.
         25    1    1    2    0    0  0.26703618633E+03  0.35553104264E+02  0.15972282928E+04  0.16246032031E+04  0.12500000000E+03 0.  0.
         21    1    1    2  503  504 -0.22356535597E+03 -0.47436064450E+02  0.36984181554E+03  0.43475811335E+03  0.00000000000E+00 0. -1.
         21    1    1    2  504  501 -0.43470830368E+02  0.11882960187E+02  0.79392549135E+02  0.91291262965E+02  0.00000000000E+00 0.  1.
<mgrwt>
<rscale>  4 0.29698038E+03</rscale>
<asrwt>0</asrwt>
<pdfrwt beam="1">  1       21 0.32285495E+00 0.29698038E+03</pdfrwt>
<pdfrwt beam="2">  1       21 0.80146110E-02 0.29698038E+03</pdfrwt>
<totfact> 0.27094100E+03</totfact>
</mgrwt>
</event>
<event>
 5    0  0.1359949E+000  0.2489608E+03  0.7546771E-02  0.1113963E+00
         21   -1    0    0  502  501  0.00000000000E+00  0.00000000000E+00  0.50805333271E+03  0.50805333271E+03  0.00000000000E+00 0. -1.
         21   -1    0    0  503  502 -0.00000000000E+00 -0.00000000000E+00 -0.20645310439E+03  0.20645310439E+03  0.00000000000E+00 0. -1.
         25    1    1    2    0    0 -0.89290320086E+02  0.19591757916E+03  0.39933110590E+03  0.47058133327E+03  0.12500000000E+03 0.  0.
         21    1    1    2  503  504  0.77439022679E+02 -0.10356991818E+03 -0.45003565343E+02  0.13692644404E+03  0.00000000000E+00 0. -1.
         21    1    1    2  504  501  0.11851297406E+02 -0.92347660977E+02 -0.52727312240E+02  0.10699865978E+03  0.00000000000E+00 0. -1.
<mgrwt>
<rscale>  4 0.24896076E+03</rscale>
<asrwt>0</asrwt>
<pdfrwt beam="1">  1       21 0.78162051E-01 0.24896076E+03</pdfrwt>
<pdfrwt beam="2">  1       21 0.31762016E-01 0.24896076E+03</pdfrwt>
<totfact> 0.13357256E+04</totfact>
</mgrwt>
</event>
<event>
 5    0  0.1359949E+000  0.3122575E+03  0.7546771E-02  0.1079269E+00
         21   -1    0    0  502  501  0.00000000000E+00  0.00000000000E+00  0.18071753215E+04  0.18071753215E+04  0.00000000000E+00 0. -1.
         21   -1    0    0  503  502 -0.00000000000E+00 -0.00000000000E+00 -0.59705759398E+02  0.59705759398E+02  0.00000000000E+00 0. -1.
         25    1    1    2    0    0  0.28598903382E+03 -0.94885997054E+01  0.12473360896E+04  0.12858273917E+04  0.12500000000E+03 0.  0.
         21    1    1    2  503  504 -0.44382466212E+02  0.16753940086E+02  0.13563203349E+03  0.14368906126E+03  0.00000000000E+00 0. -1.
         21    1    1    2  504  501 -0.24160656761E+03 -0.72653403807E+01  0.36450143905E+03  0.43736462792E+03  0.00000000000E+00 0. -1.
<mgrwt>
<rscale>  4 0.31225752E+03</rscale>
<asrwt>0</asrwt>
<pdfrwt beam="1">  1       21 0.27802693E+00 0.31225752E+03</pdfrwt>
<pdfrwt beam="2">  1       21 0.91855028E-02 0.31225752E+03</pdfrwt>
<totfact> 0.38743439E+03</totfact>
</mgrwt>
</event>
<event>
 5    0  0.1359949E+000  0.2723183E+03  0.7546771E-02  0.1099960E+00
         21   -1    0    0  502  501  0.00000000000E+00  0.00000000000E+00  0.15406208226E+04  0.15406208226E+04  0.00000000000E+00 0. -1.
         21   -1    0    0  503  502 -0.00000000000E+00 -0.00000000000E+00 -0.96405385287E+02  0.96405385287E+02  0.00000000000E+00 0.  1.
         25    1    1    2    0    0  0.13025311048E+03 -0.20387830281E+03  0.13437160774E+04  0.13710325057E+04  0.12500000000E+03 0.  0.
         21    1    1    2  503  504 -0.15504235997E+02  0.25012583910E+02 -0.30735406427E+01  0.29588128359E+02  0.00000000000E+00 0.  1.
         21    1    1    2  504  501 -0.11474887448E+03  0.17886571890E+03  0.10357290058E+03  0.23640557380E+03  0.00000000000E+00 0.  1.
<mgrwt>
<rscale>  4 0.27231826E+03</rscale>
<asrwt>0</asrwt>
<pdfrwt beam="1">  1       21 0.23701857E+00 0.27231826E+03</pdfrwt>
<pdfrwt beam="2">  1       21 0.14831599E-01 0.27231826E+03</pdfrwt>
<totfact> 0.29567116E+03</totfact>
</mgrwt>
</event>
<event>
 5    0  0.1359949E+000  0.2550426E+03  0.7546771E-02  0.1110159E+00
         21   -1    0    0  502  501  0.00000000000E+00  0.00000000000E+00  0.65642111923E+03  0.65642111923E+03  0.00000000000E+00 0. -1.
         21   -1    0    0  503  502 -0.00000000000E+00 -0.00000000000E+00 -0.87752595433E+02  0.87752595433E+02  0.00000000000E+00 0. -1.
         25    1    1    2    0    0 -0.69086547272E+02  0.21130262894E+03  0.32134570280E+03  0.41025578938E+03  0.12500000000E+03 0.  0.
         21    1    1    2  503  504  0.61275136332E+02 -0.18617171522E+03  0.23102186665E+03  0.30296147074E+03  0.00000000000E+00 0. -1.
         21    1    1    2  504  501  0.78114109397E+01 -0.25130913720E+02  0.16300954347E+02  0.30956454543E+02  0.00000000000E+00 0. -1.
<mgrwt>
<rscale>  4 0.25504265E+03</rscale>
<asrwt>0</asrwt>
<pdfrwt beam="1">  1       21 0.10098786E+00 0.25504265E+03</pdfrwt>
<pdfrwt beam="2">  1       21 0.13500400E-01 0.25504265E+03</pdfrwt>
<totfact> 0.36924072E+04</totfact>
</mgrwt>
</event>
<event>
 5    0  0.1359949E+000  0.2843037E+03  0.7546771E-02  0.1093361E+00
         21   -1    0    0  502  501  0.00000000000E+00  0.00000000000E+00  0.26839117881E+03  0.26839117881E+03  0.00000000000E+00 0. -1.
         21   -1    0    0  503  502 -0.00000000000E+00 -0.00000000000E+00 -0.45799740417E+03  0.45799740417E+03  0.00000000000E+00 0. -1.
         25    1    1    2    0    0  0.61533411278E+02  0.24782498835E+03  0.12979702091E+03  0.31253136194E+03  0.12500000000E+03 0.  0.
         21    1    1    2  503  504 -0.64974351190E+02 -0.16159407775E+03 -0.18458204051E+03  0.25378109062E+03  0.00000000000E+00 0. -1.
         21    1    1    2  504  501  0.34409399123E+01 -0.86230910602E+02 -0.13482120576E+03  0.16007613043E+03  0.00000000000E+00 0. -1.
<mgrwt>
<rscale>  4 0.28430369E+03</rscale>
<asrwt>0</asrwt>
<pdfrwt beam="1">  1       21 0.41290951E-01 0.28430369E+03</pdfrwt>
<pdfrwt beam="2">  1       21 0.70461139E-01 0.28430369E+03</pdfrwt>
<totfact> 0.97774469E+03</totfact>
</mgrwt>
</event>
<event>
 5    0  0.1359949E+000  0.2797406E+03  0.7546771E-02  0.1095831E+00
         21   -1    0    0  502  501  0.00000000000E+00  0.00000000000E+00  0.10627181547E+03  0.10627181547E+03  0.00000000000E+00 0.  1.
         21   -1    0    0  503  502 -0.00000000000E+00 -0.00000000000E+00 -0.70512715400E+03  0.70512715400E+03  0.00000000000E+00 0.  1.
         25    1    1    2    0    0 -0.11919622506E+03 -0.22005015302E+03 -0.25744535962E+03  0.38017485859E+03  0.12500000000E+03 0.  0.
         21    1    1    2  503  504 -0.61525695448E+01  0.48938221826E+02 -0.45211785318E+02  0.66909709304E+02  0.00000000000E+00 0. -1.
         21    1    1    2  504  501  0.12534879460E+03  0.17111193120E+03 -0.29619819359E+03  0.36431440157E+03  0.00000000000E+00 0.  1.
<mgrwt>
<rscale>  4 0.27974061E+03</rscale>
<asrwt>0</asrwt>
<pdfrwt beam="1">  1       21 0.16349509E-01 0.27974061E+03</pdfrwt>
<pdfrwt beam="2">  1       21 0.10848111E+00 0.27974061E+03</pdfrwt>
<totfact> 0.21617529E+04</totfact>
</mgrwt>
</event>
<event>
 5    0  0.1359949E+000  0.2437650E+03  0.7546771E-02  0.1117310E+00
         21   -1    0    0  502  501  0.00000000000E+00  0.00000000000E+00  0.38268031333E+03  0.38268031333E+03  0.00000000000E+00 0. -1.
         21   -1    0    0  503  502 -0.00000000000E+00 -0.00000000000E+00 -0.31130063572E+03  0.31130063572E+03  0.00000000000E+00 0. -1.
         25    1    1    2    0    0 -0.13413719420E+03  0.18295404392E+03  0.24790514545E+03  0.35853441982E+03  0.12500000000E+03 0.  0.
         21    1    1    2  503  504 -0.16726671293E+02 -0.86666952230E+02 -0.11756607857E+03  0.14701266942E+03  0.00000000000E+00 0. -1.
         21    1    1    2  504  501  0.15086386549E+03 -0.96287091692E+02 -0.58959389271E+02  0.18843385981E+03  0.00000000000E+00 0. -1.
<mgrwt>
<rscale>  4 0.24376499E+03</rscale>
<asrwt>0</asrwt>
<pdfrwt beam="1">  1       21 0.58873894E-01 0.24376499E+03</pdfrwt>
<pdfrwt beam="2">  1       21 0.47892405E-01 0.24376499E+03</pdfrwt>
<totfact> 0.10894004E+04</totfact>
</mgrwt>
</event>
<event>
 5    0  0.1359949E+000  0.2548682E+03  0.7546771E-02  0.1110266E+00
         21   -1    0    0  502  501  0.00000000000E+00  0.00000000000E+00  0.30127568650E+03  0.30127568650E+03  0.00000000000E+00 0. -1.
         21   -1    0    0  503  502 -0.00000000000E+00 -0.00000000000E+00 -0.74238445804E+03  0.74238445804E+03  0.00000000000E+00 0. -1.
         25    1    1    2    0    0 -0.13944278093E+03 -0.19394671257E+03  0.18139264057E+03  0.32494292810E+03  0.12500000000E+03 0.  0.
         21    1    1    2  503  504  0.66161713373E+02  0.21157313106E+03 -0.60063745525E+03  0.64023895129E+03  0.00000000000E+00 0. -1.
         21    1    1    2  504  501  0.73281067558E+02 -0.17626418488E+02 -0.21863956857E+02  0.78478265147E+02  0.00000000000E+00 0.  1.
<mgrwt>
<rscale>  4 0.25486823E+03</rscale>
<asrwt>0</asrwt>
<pdfrwt beam="1">  1       21 0.46350105E-01 0.25486823E+03</pdfrwt>
<pdfrwt beam="2">  1       21 0.11421299E+00 0.25486823E+03</pdfrwt>
<totfact> 0.25308997E+03</totfact>
</mgrwt>
</event>
