<LesHouchesEvents version="3.0">
  <!--
  <scalesfunctionalform>
    muR  H_T/2 := sum_i mT(i)/2, i=final state
    muF1 H_T/2 := sum_i mT(i)/2, i=final state
    muF2 H_T/2 := sum_i mT(i)/2, i=final state
    QES  H_T/2 := sum_i mT(i)/2, i=final state
  </scalesfunctionalform>
HERWIG6   
  -->
  <header>
      108
  </header>
  <init>
   2212   2212 0.65000000D+04 0.65000000D+04 -1 -1   247000   247000 -3   1
 0.21999918D-01 0.62031836D-03 0.44820762D-03     66
  </init>
  <event>
  5     66 -.44820762E-03 0.24089250E+02 0.75467711E-02 0.12300222E+00
       -1 -1    0    0    0  501 0.00000000E+00 0.00000000E+00 0.25773075E+02 0.25775061E+02 0.32000000E+00 0.0000E+00 0.9000E+01
        1 -1    0    0  502    0 0.00000000E+00 0.00000000E+00 -.68826343E+03 0.68826350E+03 0.32000000E+00 0.0000E+00 0.9000E+01
       25  1    1    2    0    0 0.18215714E+02 0.12963545E+02 -.24543098E+03 0.27633536E+03 0.12500000E+03 0.0000E+00 0.9000E+01
       23  1    1    2    0    0 -.14797980E+02 -.36804700E+02 -.25228500E+03 0.27117621E+03 0.91188000E+02 0.0000E+00 0.9000E+01
       21  1    1    2  502  501 -.34177340E+01 0.23841155E+02 -.16477438E+03 0.16652700E+03 0.75000000E+00 0.0000E+00 0.9000E+01
#aMCatNLO 1  0  0  2  5 0.62314981D+01 0.00000000D+00  -5  6  0 0.00000000D+00 0.00000000D+00 0.00000000D+00 0.00000000D+00 0.00000000D+00
  <mgrwgt>
 -.2918667954D+00   11    4    0
 0.133189341466268D+03 0.000000000000000D+00 0.000000000000000D+00 0.133189341466268D+03
 0.133189341466268D+03 0.000000000000000D+00 0.000000000000000D+00 -.133189341466268D+03
 0.130335375865955D+03 0.182160652601136D+02 0.129610925210583D+02 0.293682694284092D+02
 0.994601298106608D+02 -.147977115262124D+02 -.368065707534575D+02 -.183579980151028D+01
 0.365831772559193D+02 -.341835373390114D+01 0.238454782323992D+02 -.275324696268990D+02
 0.000000000000000D+00 0.000000000000000D+00 0.000000000000000D+00 -.000000000000000D+00
 0.133353710629479D+03 0.000000000000000D+00 0.000000000000000D+00 0.133353710629479D+03
 0.209110071310142D+03 0.000000000000000D+00 0.000000000000000D+00 -.209110071310142D+03
 0.129905868277433D+03 0.168169041386783D+02 0.102582210389793D+02 0.293682694284092D+02
 0.100411131838185D+03 -.158722994513962D+02 -.388824382239503D+02 -.183579980151028D+01
 0.361345607531724D+02 -.380931340747608D+01 0.230902301511313D+02 -.275324696268990D+02
 0.760122210708312D+02 0.286470872019392D+01 0.553398703383965D+01 -.757563606806627D+02
 0.133189341466268D+03 0.000000000000000D+00 0.000000000000000D+00 0.133189341466268D+03
 0.133189341466268D+03 0.000000000000000D+00 0.000000000000000D+00 -.133189341466268D+03
 0.130335375865955D+03 0.182160652601136D+02 0.129610925210583D+02 0.293682694284092D+02
 0.994601298106608D+02 -.147977115262124D+02 -.368065707534575D+02 -.183579980151028D+01
 0.000000000000000D+00 0.000000000000000D+00 0.000000000000000D+00 -.000000000000000D+00
 0.365831772559193D+02 -.341835373390114D+01 0.238454782323992D+02 -.275324696268990D+02
 0.133353710629479D+03 0.000000000000000D+00 0.000000000000000D+00 0.133353710629479D+03
 0.209110071310142D+03 0.000000000000000D+00 0.000000000000000D+00 -.209110071310142D+03
 0.129905868277433D+03 0.168169041386783D+02 0.102582210389793D+02 0.293682694284092D+02
 0.100411131838185D+03 -.158722994513962D+02 -.388824382239503D+02 -.183579980151028D+01
 0.760122210708312D+02 0.286470872019392D+01 0.553398703383965D+01 -.757563606806627D+02
 0.361345607531724D+02 -.380931340747608D+01 0.230902301511313D+02 -.275324696268990D+02
0.490529948934D-05 0.000000000000D+00 0.000000000000D+00 0.338575155167D-04 0.000000000000D+00  6 -1 1 25 23 21 21 2 0.39652470D-02 0.10588684D+00 0.15689561D+05 0.15689561D+05 0.15689561D+05 0.12456034D+01  1  2  2  2  6  2        1 0.525651266482D-02 0.100000000000D+01
0.599019504501D-06 0.258859765823D-06 -.188376416341D-07 0.338575155167D-04 0.000000000000D+00  6 -1 1 25 23 21 21 4 0.39652470D-02 0.10588684D+00 0.15689561D+05 0.15689561D+05 0.15689561D+05 0.12456034D+01  1  2  3  2  6  2        1 0.995938970187D-03 0.100000000000D+01
0.179913483381D-06 0.000000000000D+00 0.000000000000D+00 0.338575155167D-04 0.000000000000D+00  6 -1 1 25 23 21 21 4 0.39652470D-02 0.10588684D+00 0.15689561D+05 0.15689561D+05 0.15689561D+05 0.12456034D+01  1  2 15  2  6  2        1 0.299126903239D-03 0.100000000000D+01
0.537928762715D-03 0.000000000000D+00 0.000000000000D+00 0.337301553640D-04 0.000000000000D+00  6 -1 1 25 23 21 21 4 0.39652470D-02 0.16851662D+00 0.16457147D+05 0.16457147D+05 0.16457147D+05 0.12432584D+01  1  2 12  2  6  2        1 0.428019494594D+00 0.100000000000D+01
-.772486096809D-03 0.000000000000D+00 0.000000000000D+00 0.338575155167D-04 0.000000000000D+00  6 -1 1 25 23 21 21 4 0.39652470D-02 0.10588684D+00 0.15689561D+05 0.15689561D+05 0.15689561D+05 0.12456034D+01  1  2  4  2  6  2        1 -.128434717394D+01 0.100000000000D+01
-.668904991819D-03 0.000000000000D+00 -.351497221972D-05 0.338575155167D-04 0.000000000000D+00  6 -1 1 25 23 21 21 4 0.39652470D-02 0.16631174D+00 0.15689561D+05 0.15689561D+05 0.15689561D+05 0.12456034D+01  1  2  5  2  6  2        1 -.548514193384D+00 0.100000000000D+01
0.607812539264D-03 0.000000000000D+00 0.318481469156D-05 0.338575155167D-04 0.000000000000D+00  6 -1 1 25 23 21 21 4 0.39652470D-02 0.10588684D+00 0.15689561D+05 0.15689561D+05 0.15689561D+05 0.12456034D+01  1  2  6  2  6  2        1 0.101055840398D+01 0.100000000000D+01
0.120760803806D-03 0.000000000000D+00 0.000000000000D+00 0.338575155167D-04 0.470023150333D-05  6 -1 1 25 23 21 21 4 0.39701405D-02 0.16624457D+00 0.16457147D+05 0.16457147D+05 0.16457147D+05 0.12432584D+01  1  2 11  2  6  2        1 0.982437040722D-01 0.100000000000D+01
0.286456810587D-04 0.000000000000D+00 0.000000000000D+00 0.337301553640D-04 0.000000000000D+00  6 -1 21 25 23 -1 21 4 0.39652470D-02 0.16851662D+00 0.16457147D+05 0.16457147D+05 0.16457147D+05 0.12432584D+01  3  4 12  5  5  2        1 0.336020810221D-01 0.100000000000D+01
-.347067730322D-04 0.000000000000D+00 -.183115737696D-06 0.338575155167D-04 0.000000000000D+00  6 -1 21 25 23 -1 21 4 0.39652470D-02 0.16631174D+00 0.15689561D+05 0.15689561D+05 0.15689561D+05 0.12456034D+01  3  4  5  5  5  2        1 -.425486795119D-01 0.100000000000D+01
0.540836398498D-05 0.000000000000D+00 0.000000000000D+00 0.338575155167D-04 0.420951646726D-06  6 -1 21 25 23 -1 21 4 0.39701405D-02 0.16624457D+00 0.16457147D+05 0.16457147D+05 0.16457147D+05 0.12432584D+01  3  4 11  5  5  2        1 0.656798923303D-02 0.100000000000D+01
  </mgrwgt>
  </event>
  <event>
  5     66 0.44820762E-03 0.58763916E+02 0.75467711E-02 0.11629458E+00
       -1 -1    0    0    0  501 0.00000000E+00 0.00000000E+00 0.10841649E+03 0.10841696E+03 0.32000000E+00 0.0000E+00 0.9000E+01
        1 -1    0    0  502    0 -.00000000E+00 -.00000000E+00 -.24091915E+04 0.24091915E+04 0.32000000E+00 0.0000E+00 0.9000E+01
       25  1    1    2    0    0 0.11726907E+03 -.69790589E+02 -.10762781E+03 0.21408294E+03 0.12500000E+03 0.0000E+00 0.9000E+01
       23  1    1    2    0    0 -.60290257E+02 0.43453384E+02 -.84640706E+01 0.11794068E+03 0.91188000E+02 0.0000E+00 0.9000E+01
       21  1    1    2  502  501 -.56978816E+02 0.26337205E+02 -.21846831E+04 0.21855848E+04 0.75000000E+00 0.0000E+00 0.9000E+01
#aMCatNLO 1  0  0  5  1 0.60829702D+02 0.00000000D+00  -5  6  0 0.00000000D+00 0.00000000D+00 0.00000000D+00 0.00000000D+00 0.00000000D+00
  <mgrwgt>
 0.6771299230D-01   15    2    0
 0.511074066193589D+03 0.000000000000000D+00 0.000000000000000D+00 0.511074066193589D+03
 0.511074066193589D+03 -.000000000000000D+00 -.000000000000000D+00 -.511074066193589D+03
 0.285036767763488D+03 0.117269092933148D+03 -.697905985684956D+02 0.216790662093976D+03
 0.271442716787631D+03 -.602902370875618D+02 0.434533750349548D+02 0.244627857495926D+03
 0.465668647836060D+03 -.569788558455862D+02 0.263372235335407D+02 -.461418519589902D+03
 0.000000000000000D+00 0.000000000000000D+00 0.000000000000000D+00 0.000000000000000D+00
 0.511074066193589D+03 0.000000000000000D+00 0.000000000000000D+00 0.511074066193589D+03
 0.511074066193589D+03 -.000000000000000D+00 -.000000000000000D+00 -.511074066193589D+03
 0.273463001956709D+03 0.115518925028382D+03 -.689816219289158D+02 0.202617687370867D+03
 0.259879180445914D+03 -.619552378307200D+02 0.442229850263332D+02 0.231144572045159D+03
 0.425832121079552D+03 0.127083608915851D+01 -.516565024491822D+01 -.425798891938779D+03
 0.629738289050026D+02 -.548345232868199D+02 0.299242871475008D+02 -.796336747724658D+01
0.389199444861D-02 0.000000000000D+00 0.000000000000D+00 0.188919671278D-04 0.000000000000D+00  6 -1 1 25 23 21 21 2 0.16679498D-01 0.37064488D+00 0.33391972D+05 0.33391972D+05 0.33391972D+05 0.12100460D+01  1  2  2  3  6  5       21 0.294017759144D-01 0.100000000000D+01
0.575946208075D-03 0.205386189720D-03 -.149462834683D-04 0.188919671278D-04 0.000000000000D+00  6 -1 1 25 23 21 21 4 0.16679498D-01 0.37064488D+00 0.33391972D+05 0.33391972D+05 0.33391972D+05 0.12100460D+01  1  2  3  3  6  5       21 0.637069802856D-02 0.100000000000D+01
0.165935661894D-03 0.000000000000D+00 0.000000000000D+00 0.188919671278D-04 0.000000000000D+00  6 -1 1 25 23 21 21 4 0.16679498D-01 0.37064488D+00 0.33391972D+05 0.33391972D+05 0.33391972D+05 0.12100460D+01  1  2 15  3  6  5       21 0.183545959549D-02 0.100000000000D+01
0.563332024967D-02 0.000000000000D+00 0.000000000000D+00 0.188557052678D-04 0.000000000000D+00  6 -1 1 25 23 21 21 4 0.16679498D-01 0.37064488D+00 0.34266257D+05 0.34266257D+05 0.34266257D+05 0.12088841D+01  1  2 12  3  6  5       21 0.619936977562D-01 0.100000000000D+01
-.391379206560D-02 0.000000000000D+00 0.000000000000D+00 0.188919671278D-04 0.000000000000D+00  6 -1 1 25 23 21 21 4 0.16679498D-01 0.37064488D+00 0.33391972D+05 0.33391972D+05 0.33391972D+05 0.12100460D+01  1  2  4  3  6  5       21 -.432915210603D-01 0.100000000000D+01
-.920936948829D-02 0.000000000000D+00 0.000000000000D+00 0.188919671278D-04 0.000000000000D+00  6 -1 1 25 23 21 21 4 0.16679498D-01 0.37064488D+00 0.33391972D+05 0.33391972D+05 0.33391972D+05 0.12100460D+01  1  2  5  3  6  5       21 -.101867346674D+00 0.100000000000D+01
0.104013063547D-01 0.000000000000D+00 -.000000000000D+00 0.188919671278D-04 0.000000000000D+00  6 -1 1 25 23 21 21 4 0.16679498D-01 0.37064488D+00 0.33391972D+05 0.33391972D+05 0.33391972D+05 0.12100460D+01  1  2  6  3  6  5       21 0.115051685313D+00 0.100000000000D+01
0.451197724787D-04 0.000000000000D+00 0.000000000000D+00 0.188557052678D-04 0.000000000000D+00  6 -1 1 25 23 1 -1 4 0.16679498D-01 0.37064488D+00 0.34266257D+05 0.34266257D+05 0.34266257D+05 0.12088841D+01  1  2 12  6  6  5       21 0.496535154031D-03 0.100000000000D+01
-.851528869930D-04 0.000000000000D+00 0.000000000000D+00 0.188919671278D-04 0.000000000000D+00  6 -1 1 25 23 1 -1 4 0.16679498D-01 0.37064488D+00 0.33391972D+05 0.33391972D+05 0.33391972D+05 0.12100460D+01  1  2  5  6  6  5       21 -.941899298384D-03 0.100000000000D+01
0.451197724787D-04 0.000000000000D+00 0.000000000000D+00 0.188557052678D-04 0.000000000000D+00  6 -1 1 25 23 2 -2 4 0.16679498D-01 0.37064488D+00 0.34266257D+05 0.34266257D+05 0.34266257D+05 0.12088841D+01  1  2 12  7  6  5       21 0.496535154031D-03 0.100000000000D+01
0.451197724787D-04 0.000000000000D+00 0.000000000000D+00 0.188557052678D-04 0.000000000000D+00  6 -1 1 25 23 4 -4 4 0.16679498D-01 0.37064488D+00 0.34266257D+05 0.34266257D+05 0.34266257D+05 0.12088841D+01  1  2 12  7  6  5       21 0.496535154031D-03 0.100000000000D+01
-.851528869930D-04 0.000000000000D+00 0.000000000000D+00 0.188919671278D-04 0.000000000000D+00  6 -1 1 25 23 2 -2 4 0.16679498D-01 0.37064488D+00 0.33391972D+05 0.33391972D+05 0.33391972D+05 0.12100460D+01  1  2  5  7  6  5       21 -.941899298384D-03 0.100000000000D+01
-.851528869930D-04 0.000000000000D+00 0.000000000000D+00 0.188919671278D-04 0.000000000000D+00  6 -1 1 25 23 4 -4 4 0.16679498D-01 0.37064488D+00 0.33391972D+05 0.33391972D+05 0.33391972D+05 0.12100460D+01  1  2  5  7  6  5       21 -.941899298384D-03 0.100000000000D+01
0.451197724787D-04 0.000000000000D+00 0.000000000000D+00 0.188557052678D-04 0.000000000000D+00  6 -1 1 25 23 3 -3 4 0.16679498D-01 0.37064488D+00 0.34266257D+05 0.34266257D+05 0.34266257D+05 0.12088841D+01  1  2 12  8  6  5       21 0.496535154031D-03 0.100000000000D+01
-.851528869930D-04 0.000000000000D+00 0.000000000000D+00 0.188919671278D-04 0.000000000000D+00  6 -1 1 25 23 3 -3 4 0.16679498D-01 0.37064488D+00 0.33391972D+05 0.33391972D+05 0.33391972D+05 0.12100460D+01  1  2  5  8  6  5       21 -.941899298384D-03 0.100000000000D+01
  </mgrwgt>
  </event>
  <event>
  6     66 0.44820762E-03 0.38804967E+02 0.75467711E-02 0.11052313E+00
       -3 -1    0    0    0  501 0.00000000E+00 0.00000000E+00 0.35842412E+03 0.35842447E+03 0.50000000E+00 0.0000E+00 0.9000E+01
       21 -1    0    0  502  503 0.00000000E+00 0.00000000E+00 -.52634161E+03 0.52634215E+03 0.75000000E+00 0.0000E+00 0.9000E+01
       25  1    1    2    0    0 0.22249063E+03 0.31321304E+02 -.84299521E+02 0.27058181E+03 0.12500000E+03 0.0000E+00 0.9000E+01
       23  1    1    2    0    0 -.20758256E+03 0.38202998E+01 0.21223146E+03 0.31058422E+03 0.91188000E+02 0.0000E+00 0.9000E+01
       -3  1    1    2    0  503 -.17036660E+02 -.36246740E+02 -.29776121E+03 0.30044311E+03 0.50000000E+00 0.0000E+00 0.9000E+01
       21  1    1    2  502  501 0.21285897E+01 0.11051363E+01 0.19117776E+01 0.31574695E+01 0.75000000E+00 0.0000E+00 0.9000E+01
#aMCatNLO 2  0  0  2  2 0.15061830D+02 0.00000000D+00  -5  6  0 0.00000000D+00 0.00000000D+00 0.00000000D+00 0.00000000D+00 0.00000000D+00
  <mgrwgt>
 0.6013418342D-01    1    2    0
 0.284152462946606D+03 0.000000000000000D+00 0.000000000000000D+00 0.284152462946606D+03
 0.284152462946606D+03 0.000000000000000D+00 0.000000000000000D+00 -.284152462946606D+03
 0.288781938734230D+03 0.213681472379687D+03 0.126518522301003D+02 -.148155887955549D+03
 0.276848105469222D+03 -.215813149010835D+03 -.136212035970282D+02 0.146863098443731D+03
 0.000000000000000D+00 -.000000000000000D+00 -.000000000000000D+00 -.000000000000000D+00
 0.267488168976024D+01 0.213167663114805D+01 0.969351366927855D+00 0.129278951181806D+01
 0.285926782369626D+03 0.000000000000000D+00 0.000000000000000D+00 0.285926782369626D+03
 0.659797236160146D+03 0.000000000000000D+00 0.000000000000000D+00 -.659797236160146D+03
 0.296710876180801D+03 0.222446562171726D+03 0.313002218212867D+02 -.148155887955549D+03
 0.270196335892243D+03 -.207623648599178D+03 0.380255749010513D+01 0.146863098443731D+03
 0.376009561305623D+03 -.170366600989830D+02 -.362467403829478D+02 -.373870453790520D+03
 0.280724515110582D+01 0.221374652643533D+01 0.114396107155603D+01 0.129278951181806D+01
0.146891333026D-02 0.000000000000D+00 0.000000000000D+00 0.131305350501D-02 0.731110298688D-06  6 -3 21 25 23 -3 21 4 0.55142208D-01 0.80975654D-01 0.69278165D+05 0.69278165D+05 0.69278165D+05 0.11785052D+01  1  2  1  5  5  2        3 0.601341834223D-01 0.100000000000D+01
  </mgrwgt>
  </event>
  <event>
  6     66 -.44820762E-03 0.11098166E+02 0.75467711E-02 0.12249721E+00
       -1 -1    0    0    0  501 0.00000000E+00 0.00000000E+00 0.25110628E+02 0.25112667E+02 0.32000000E+00 0.0000E+00 0.9000E+01
        1 -1    0    0  502    0 -.00000000E+00 -.00000000E+00 -.89291599E+03 0.89291605E+03 0.32000000E+00 0.0000E+00 0.9000E+01
       25  1    1    2    0    0 -.38284740E+02 0.22745734E+02 -.42712039E+03 0.44725823E+03 0.12500000E+03 0.0000E+00 0.9000E+01
       23  1    1    2    0    0 0.36919896E+02 0.56210353E+01 -.16357658E+03 0.19096393E+03 0.91188000E+02 0.0000E+00 0.9000E+01
       21  1    1    2  502  503 0.18333162E+01 -.17093425E+02 -.24773176E+03 0.24832869E+03 0.75000000E+00 0.0000E+00 0.9000E+01
       21  1    1    2  503  501 -.46847223E+00 -.11273344E+02 -.29376632E+02 0.31477877E+02 0.75000000E+00 0.0000E+00 0.9000E+01
#aMCatNLO 2  0  0  5  1 0.99946233D+01 0.00000000D+00  -5  6  0 0.00000000D+00 0.00000000D+00 0.00000000D+00 0.00000000D+00 0.00000000D+00
  <mgrwgt>
 -.1341051935D+00    2    2    0
 0.149741921946728D+03 0.000000000000000D+00 0.000000000000000D+00 0.149741921946728D+03
 0.149741921946728D+03 -.000000000000000D+00 -.000000000000000D+00 -.149741921946728D+03
 0.133480799516838D+03 -.383716439939262D+02 0.245519276447355D+02 -.108140476134258D+02
 0.112423359825926D+03 0.368470072791651D+02 0.713595690392556D+01 0.539920055580823D+02
 0.535796845506932D+02 0.152463671476116D+01 -.316878845486610D+02 -.431779579446565D+02
 0.000000000000000D+00 0.000000000000000D+00 -.000000000000000D+00 0.000000000000000D+00
 0.149741921946728D+03 0.000000000000000D+00 0.000000000000000D+00 0.149741921946728D+03
 0.149741921946728D+03 -.000000000000000D+00 -.000000000000000D+00 -.149741921946728D+03
 0.133356556252149D+03 -.382834415988646D+02 0.227187386072623D+02 -.133119536835855D+02
 0.111369013260075D+03 0.369209812669744D+02 0.559848954359641D+01 0.518970502787663D+02
 0.431503746676878D+02 0.183839954005208D+01 -.167741621904205D+02 -.397140101715054D+02
 0.116078997135444D+02 -.475939208161865D+00 -.115430659604383D+02 0.112891357632470D+01
-.100564902784D-03 0.000000000000D+00 0.000000000000D+00 0.178302600547D-04 0.000000000000D+00  6 -1 1 25 23 21 21 4 0.38633347D-02 0.13737185D+00 0.16855314D+05 0.16855314D+05 0.16855314D+05 0.12420899D+01  1  2 13  3  6  5       21 -.116647197715D+00 0.100000000000D+01
-.151092165471D-04 0.000000000000D+00 0.000000000000D+00 0.177904807985D-04 0.000000000000D+00  6 -1 1 25 23 21 21 4 0.38633347D-02 0.13737185D+00 0.17341766D+05 0.17341766D+05 0.17341766D+05 0.12407036D+01  1  2  8  3  6  5       21 -.174579957429D-01 0.100000000000D+01
  </mgrwgt>
  </event>
  <event>
  5     66 0.44820762E-03 0.40143682E+02 0.75467711E-02 0.12214098E+00
       -3 -1    0    0    0  501 0.00000000E+00 0.00000000E+00 0.91112541E+03 0.91112555E+03 0.50000000E+00 0.0000E+00 0.9000E+01
        3 -1    0    0  502    0 0.00000000E+00 0.00000000E+00 -.20159657E+02 0.20165856E+02 0.50000000E+00 0.0000E+00 0.9000E+01
       25  1    1    2    0    0 -.11286873E+02 0.22038374E+02 0.43024246E+03 0.44871668E+03 0.12500000E+03 0.0000E+00 0.9000E+01
       23  1    1    2    0    0 -.26580947E+02 -.35346079E+02 0.29013389E+03 0.30732526E+03 0.91188000E+02 0.0000E+00 0.9000E+01
       21  1    1    2  502  501 0.37867820E+02 0.13307705E+02 0.17058941E+03 0.17524947E+03 0.75000000E+00 0.0000E+00 0.9000E+01
#aMCatNLO 1  0  0  5  1 0.42002746D+01 0.00000000D+00  -5  6  0 0.00000000D+00 0.00000000D+00 0.00000000D+00 0.00000000D+00 0.00000000D+00
  <mgrwgt>
 0.1324764804D-01   25    2    0
 0.135539390393482D+03 0.000000000000000D+00 0.000000000000000D+00 0.135539390393482D+03
 0.135539390393482D+03 -.000000000000000D+00 -.000000000000000D+00 -.135539390393482D+03
 0.127471079629288D+03 -.112897973204268D+02 0.220373461372442D+02 0.328207153291183D+01
 0.102222242160137D+03 -.265832923774830D+02 -.353469031055075D+02 -.133439295362637D+02
 0.413854589975390D+02 0.378730896979098D+02 0.133095569682633D+02 0.100618580033518D+02
 0.000000000000000D+00 0.000000000000000D+00 0.000000000000000D+00 0.000000000000000D+00
 0.135539390393482D+03 0.000000000000000D+00 0.000000000000000D+00 0.135539390393482D+03
 0.135539390393482D+03 -.000000000000000D+00 -.000000000000000D+00 -.135539390393482D+03
 0.127463954340234D+03 -.109194235092410D+02 0.221675048166350D+02 0.338046986074926D+01
 0.102099121837265D+03 -.262864509386581D+02 -.352425855525407D+02 -.132650667756389D+02
 0.202480293751764D+02 0.180044385530759D+02 0.406477770412900D+01 0.832469027547181D+01
 0.212676752342880D+02 0.192014358948232D+02 0.901030303177660D+01 0.155990663941781D+01
0.116086876984D-03 0.000000000000D+00 0.000000000000D+00 0.121227689507D-04 0.000000000000D+00  6 -3 3 25 23 21 21 2 0.14017363D+00 0.31019731D-02 0.18079499D+05 0.18079499D+05 0.18079499D+05 0.12386822D+01  1  2  2  3  6  5       21 0.811840218789D-02 0.100000000000D+01
0.557471897126D-05 0.612607280280D-05 -.445804173996D-06 0.121227689507D-04 0.000000000000D+00  6 -3 3 25 23 21 21 4 0.14017363D+00 0.31019731D-02 0.18079499D+05 0.18079499D+05 0.18079499D+05 0.12386822D+01  1  2  3  3  6  5       21 0.598177724790D-03 0.100000000000D+01
0.353541141220D-05 0.000000000000D+00 0.000000000000D+00 0.121227689507D-04 0.000000000000D+00  6 -3 3 25 23 21 21 4 0.14017363D+00 0.31019731D-02 0.18079499D+05 0.18079499D+05 0.18079499D+05 0.12386822D+01  1  2 15  3  6  5       21 0.379356226861D-03 0.100000000000D+01
0.349399175898D-04 0.000000000000D+00 0.000000000000D+00 0.121269968652D-04 0.000000000000D+00  6 -3 3 25 23 21 21 4 0.14017363D+00 0.31019731D-02 0.17999016D+05 0.17999016D+05 0.17999016D+05 0.12388982D+01  1  2 12  3  6  5       21 0.375059063896D-02 0.100000000000D+01
0.350555426806D-04 0.000000000000D+00 0.000000000000D+00 0.121269968652D-04 0.000000000000D+00  6 -3 3 25 23 21 21 4 0.14017363D+00 0.31019731D-02 0.17999016D+05 0.17999016D+05 0.17999016D+05 0.12388982D+01  1  2 12  3  6  5       21 0.376300229911D-02 0.100000000000D+01
-.112378271715D-02 0.000000000000D+00 0.000000000000D+00 0.121227689507D-04 0.000000000000D+00  6 -3 3 25 23 21 21 4 0.14017363D+00 0.31019731D-02 0.18079499D+05 0.18079499D+05 0.18079499D+05 0.12386822D+01  1  2  4  3  6  5       21 -.120583977842D+00 0.100000000000D+01
-.504221439313D-03 0.000000000000D+00 0.000000000000D+00 0.121227689507D-04 0.000000000000D+00  6 -3 3 25 23 21 21 4 0.14017363D+00 0.31019731D-02 0.18079499D+05 0.18079499D+05 0.18079499D+05 0.12386822D+01  1  2  5  3  6  5       21 -.541038992125D-01 0.100000000000D+01
0.110074547162D-02 0.000000000000D+00 -.000000000000D+00 0.121227689507D-04 0.000000000000D+00  6 -3 3 25 23 21 21 4 0.14017363D+00 0.31019731D-02 0.18079499D+05 0.18079499D+05 0.18079499D+05 0.12386822D+01  1  2  6  3  6  5       21 0.118112038505D+00 0.100000000000D+01
0.489946380615D-03 0.000000000000D+00 0.000000000000D+00 0.121227689507D-04 0.421571851988D-05  6 -3 3 25 23 21 21 4 0.14017363D+00 0.31019731D-02 0.17999016D+05 0.17999016D+05 0.17999016D+05 0.12388982D+01  1  2 11  3  6  5       21 0.525928060363D-01 0.100000000000D+01
0.132996686316D-05 0.000000000000D+00 0.000000000000D+00 0.121269968652D-04 0.000000000000D+00  6 -3 3 25 23 3 -3 4 0.14017363D+00 0.31019731D-02 0.17999016D+05 0.17999016D+05 0.17999016D+05 0.12388982D+01  1  2 12  6  6  5       21 0.142763967724D-03 0.100000000000D+01
0.133436468509D-05 0.000000000000D+00 0.000000000000D+00 0.121269968652D-04 0.000000000000D+00  6 -3 3 25 23 3 -3 4 0.14017363D+00 0.31019731D-02 0.17999016D+05 0.17999016D+05 0.17999016D+05 0.12388982D+01  1  2 12  6  6  5       21 0.143236047537D-03 0.100000000000D+01
-.101006948373D-04 0.000000000000D+00 0.000000000000D+00 0.121227689507D-04 0.000000000000D+00  6 -3 3 25 23 3 -3 4 0.14017363D+00 0.31019731D-02 0.18079499D+05 0.18079499D+05 0.18079499D+05 0.12386822D+01  1  2  5  6  6  5       21 -.108382336182D-02 0.100000000000D+01
0.889994206383D-05 0.000000000000D+00 0.000000000000D+00 0.121227689507D-04 0.724217207831D-07  6 -3 3 25 23 3 -3 4 0.14017363D+00 0.31019731D-02 0.17999016D+05 0.17999016D+05 0.17999016D+05 0.12388982D+01  1  2 11  6  6  5       21 0.955355412789D-03 0.100000000000D+01
0.132996686316D-05 0.000000000000D+00 0.000000000000D+00 0.121269968652D-04 0.000000000000D+00  6 -3 3 25 23 2 -2 4 0.14017363D+00 0.31019731D-02 0.17999016D+05 0.17999016D+05 0.17999016D+05 0.12388982D+01  1  2 12  7  6  5       21 0.142763967724D-03 0.100000000000D+01
0.132996686316D-05 0.000000000000D+00 0.000000000000D+00 0.121269968652D-04 0.000000000000D+00  6 -3 3 25 23 4 -4 4 0.14017363D+00 0.31019731D-02 0.17999016D+05 0.17999016D+05 0.17999016D+05 0.12388982D+01  1  2 12  7  6  5       21 0.142763967724D-03 0.100000000000D+01
0.133436468509D-05 0.000000000000D+00 0.000000000000D+00 0.121269968652D-04 0.000000000000D+00  6 -3 3 25 23 2 -2 4 0.14017363D+00 0.31019731D-02 0.17999016D+05 0.17999016D+05 0.17999016D+05 0.12388982D+01  1  2 12  7  6  5       21 0.143236047537D-03 0.100000000000D+01
0.133436468509D-05 0.000000000000D+00 0.000000000000D+00 0.121269968652D-04 0.000000000000D+00  6 -3 3 25 23 4 -4 4 0.14017363D+00 0.31019731D-02 0.17999016D+05 0.17999016D+05 0.17999016D+05 0.12388982D+01  1  2 12  7  6  5       21 0.143236047537D-03 0.100000000000D+01
-.101006948373D-04 0.000000000000D+00 0.000000000000D+00 0.121227689507D-04 0.000000000000D+00  6 -3 3 25 23 2 -2 4 0.14017363D+00 0.31019731D-02 0.18079499D+05 0.18079499D+05 0.18079499D+05 0.12386822D+01  1  2  5  7  6  5       21 -.108382336182D-02 0.100000000000D+01
-.101006948373D-04 0.000000000000D+00 0.000000000000D+00 0.121227689507D-04 0.000000000000D+00  6 -3 3 25 23 4 -4 4 0.14017363D+00 0.31019731D-02 0.18079499D+05 0.18079499D+05 0.18079499D+05 0.12386822D+01  1  2  5  7  6  5       21 -.108382336182D-02 0.100000000000D+01
0.887021475583D-05 0.000000000000D+00 0.000000000000D+00 0.121227689507D-04 0.720077142652D-07  6 -3 3 25 23 2 -2 4 0.14017363D+00 0.31019731D-02 0.17999016D+05 0.17999016D+05 0.17999016D+05 0.12388982D+01  1  2 11  7  6  5       21 0.952164364532D-03 0.100000000000D+01
0.887021475583D-05 0.000000000000D+00 0.000000000000D+00 0.121227689507D-04 0.720077142652D-07  6 -3 3 25 23 4 -4 4 0.14017363D+00 0.31019731D-02 0.17999016D+05 0.17999016D+05 0.17999016D+05 0.12388982D+01  1  2 11  7  6  5       21 0.952164364532D-03 0.100000000000D+01
0.132996686316D-05 0.000000000000D+00 0.000000000000D+00 0.121269968652D-04 0.000000000000D+00  6 -3 3 25 23 1 -1 4 0.14017363D+00 0.31019731D-02 0.17999016D+05 0.17999016D+05 0.17999016D+05 0.12388982D+01  1  2 12  8  6  5       21 0.142763967724D-03 0.100000000000D+01
0.133436468509D-05 0.000000000000D+00 0.000000000000D+00 0.121269968652D-04 0.000000000000D+00  6 -3 3 25 23 1 -1 4 0.14017363D+00 0.31019731D-02 0.17999016D+05 0.17999016D+05 0.17999016D+05 0.12388982D+01  1  2 12  8  6  5       21 0.143236047537D-03 0.100000000000D+01
-.101006948373D-04 0.000000000000D+00 0.000000000000D+00 0.121227689507D-04 0.000000000000D+00  6 -3 3 25 23 1 -1 4 0.14017363D+00 0.31019731D-02 0.18079499D+05 0.18079499D+05 0.18079499D+05 0.12386822D+01  1  2  5  8  6  5       21 -.108382336182D-02 0.100000000000D+01
0.887577031267D-05 0.000000000000D+00 0.000000000000D+00 0.121227689507D-04 0.720528138441D-07  6 -3 3 25 23 1 -1 4 0.14017363D+00 0.31019731D-02 0.17999016D+05 0.17999016D+05 0.17999016D+05 0.12388982D+01  1  2 11  8  6  5       21 0.952760720247D-03 0.100000000000D+01
  </mgrwgt>
  </event>
  <event>
  6     66 0.44820762E-03 0.19154737E+02 0.75467711E-02 0.11671432E+00
       -1 -1    0    0    0  503 0.00000000E+00 0.00000000E+00 0.70142318E+02 0.70143048E+02 0.32000000E+00 0.0000E+00 0.9000E+01
        1 -1    0    0  502    0 0.00000000E+00 0.00000000E+00 -.12253395E+04 0.12253395E+04 0.32000000E+00 0.0000E+00 0.9000E+01
       25  1    1    2    0    0 0.68660536E+02 0.63793557E+02 -.54793243E+03 0.56977086E+03 0.12500000E+03 0.0000E+00 0.9000E+01
       23  1    1    2    0    0 -.59830618E+02 -.87831763E+02 -.24869642E+03 0.28541072E+03 0.91188000E+02 0.0000E+00 0.9000E+01
       21  1    1    2  502  501 -.30503626E+02 -.27651511E+01 -.39145589E+03 0.39265302E+03 0.75000000E+00 0.0000E+00 0.9000E+01
       21  1    1    2  501  503 0.21673708E+02 0.26803357E+02 0.32887600E+02 0.47647941E+02 0.75000000E+00 0.0000E+00 0.9000E+01
#aMCatNLO 2  0  0  1  1 0.28479656D+03 0.00000000D+00  -5  6  0 0.00000000D+00 0.00000000D+00 0.00000000D+00 0.00000000D+00 0.00000000D+00
  <mgrwgt>
 0.6462179206D-01    1    2    0
 0.189972160047072D+03 0.000000000000000D+00 0.000000000000000D+00 0.189972160047072D+03
 0.189972160047072D+03 0.000000000000000D+00 0.000000000000000D+00 -.189972160047072D+03
 0.166307829808410D+03 0.778708764506731D+02 0.751826991061013D+02 -.178040054905754D+02
 0.150080510600401D+03 -.510312778604305D+02 -.769507904370958D+02 0.753876173460528D+02
 0.635559796853324D+02 -.268395985902427D+02 0.176809133099450D+01 -.575836118554775D+02
 0.000000000000000D+00 0.000000000000000D+00 0.000000000000000D+00 0.000000000000000D+00
 0.447862048795017D+03 0.000000000000000D+00 0.000000000000000D+00 0.447862048795017D+03
 0.191907676866582D+03 0.000000000000000D+00 0.000000000000000D+00 -.191907676866582D+03
 0.157244944900716D+03 0.686613456958011D+02 0.637934925565496D+02 -.178040054905754D+02
 0.159036462417016D+03 -.598299113211268D+02 -.878318501246000D+02 0.753876173460528D+02
 0.652233186450609D+02 -.305051425177544D+02 -.276499922682794D+01 -.575836118554775D+02
 0.258264999698806D+03 0.216737081430801D+02 0.268033567948783D+02 0.255954371928434D+03
0.498684861254D-03 0.000000000000D+00 0.000000000000D+00 0.184194467449D-04 0.670572580688D-07  6 -1 1 25 23 21 21 4 0.10791155D-01 0.18851329D+00 0.32646531D+05 0.32646531D+05 0.32646531D+05 0.12110637D+01  1  2  1  1  6  1       -1 0.646217920629D-01 0.100000000000D+01
  </mgrwgt>
  </event>
  <event>
  6     66 0.44820762E-03 0.26021433E+02 0.75467711E-02 0.11675659E+00
       -1 -1    0    0    0  501 0.00000000E+00 0.00000000E+00 0.19077021E+02 0.19079705E+02 0.32000000E+00 0.0000E+00 0.9000E+01
        1 -1    0    0  502    0 -.00000000E+00 -.00000000E+00 -.23895287E+04 0.23895288E+04 0.32000000E+00 0.0000E+00 0.9000E+01
       25  1    1    2    0    0 -.48482123E+02 0.93070161E+02 -.10365925E+04 0.10493624E+04 0.12500000E+03 0.0000E+00 0.9000E+01
       23  1    1    2    0    0 0.66758665E+02 -.92270072E+02 -.43335326E+03 0.45725352E+03 0.91188000E+02 0.0000E+00 0.9000E+01
       21  1    1    2  503  501 0.15840394E+02 -.62894510E+01 -.32956842E+03 0.33000967E+03 0.75000000E+00 0.0000E+00 0.9000E+01
       21  1    1    2  502  503 -.34116937E+02 0.54893624E+01 -.57093755E+03 0.57198282E+03 0.75000000E+00 0.0000E+00 0.9000E+01
#aMCatNLO 2  0  0  5  2 0.22469641D+02 0.00000000D+00  -5  6  0 0.00000000D+00 0.00000000D+00 0.00000000D+00 0.00000000D+00 0.00000000D+00
  <mgrwgt>
 0.3668754852D-02    1    2    0
 0.213514280722014D+03 0.000000000000000D+00 0.000000000000000D+00 0.213514280722014D+03
 0.213514280722014D+03 -.000000000000000D+00 -.000000000000000D+00 -.213514280722014D+03
 0.163654362684932D+03 -.471051246913345D+02 0.931304410968659D+02 -.162965823020705D+02
 0.177271215173332D+03 0.682300095116915D+02 -.922056611303917D+02 0.997627898696288D+02
 0.861029835857647D+02 -.211248848203570D+02 -.924779966474191D+00 -.834662075675583D+02
 0.000000000000000D+00 -.000000000000000D+00 0.000000000000000D+00 0.000000000000000D+00
 0.213514280722014D+03 0.000000000000000D+00 0.000000000000000D+00 0.213514280722014D+03
 0.213514280722014D+03 -.000000000000000D+00 -.000000000000000D+00 -.213514280722014D+03
 0.164634775952028D+03 -.484611103990638D+02 0.930710803747604D+02 -.216541965803229D+02
 0.173584141698425D+03 0.667808149042375D+02 -.922691022403383D+02 0.940368993409867D+02
 0.311333121891022D+02 0.157304210928535D+02 -.619370966905927D+01 -.261433536609405D+02
 0.576763316044729D+02 -.340501255980272D+02 0.539173153463717D+01 -.462393490997233D+02
0.229948853322D-04 0.000000000000D+00 0.000000000000D+00 0.288186503423D-04 0.698263445759D-07  6 -1 1 25 23 21 21 4 0.29351344D-02 0.36762001D+00 0.32488361D+05 0.32488361D+05 0.32488361D+05 0.12112830D+01  1  2  1  3  6  5       21 0.366875485178D-02 0.100000000000D+01
  </mgrwgt>
  </event>
  <event>
  6     66 -.44820762E-03 0.16613661E+02 0.75467711E-02 0.11551959E+00
       -1 -1    0    0    0  503 0.00000000E+00 0.00000000E+00 0.48865648E+02 0.48866696E+02 0.32000000E+00 0.0000E+00 0.9000E+01
        1 -1    0    0  502    0 0.00000000E+00 0.00000000E+00 -.15019809E+04 0.15019809E+04 0.32000000E+00 0.0000E+00 0.9000E+01
       25  1    1    2    0    0 -.90354315E+02 -.91260120E+02 -.22345004E+03 0.28643888E+03 0.12500000E+03 0.0000E+00 0.9000E+01
       23  1    1    2    0    0 0.94810742E+02 0.97189354E+02 -.49530124E+03 0.52160657E+03 0.91188000E+02 0.0000E+00 0.9000E+01
       21  1    1    2  502  501 -.12242255E+02 -.22858348E+02 -.71652715E+03 0.71699658E+03 0.75000000E+00 0.0000E+00 0.9000E+01
       21  1    1    2  501  503 0.77858283E+01 0.16929115E+02 -.17836815E+02 0.25805591E+02 0.75000000E+00 0.0000E+00 0.9000E+01
#aMCatNLO 2  0  0  1  5 0.18633681D+02 0.00000000D+00  -5  6  0 0.00000000D+00 0.00000000D+00 0.00000000D+00 0.00000000D+00 0.00000000D+00
  <mgrwgt>
 -.6927353642D+00    3    2    0
 0.257576113098406D+03 0.000000000000000D+00 0.000000000000000D+00 0.257576113098406D+03
 0.257576113098406D+03 0.000000000000000D+00 0.000000000000000D+00 -.257576113098406D+03
 0.221041712014099D+03 -.869827298731230D+02 -.839291439156452D+02 0.136471029729866D+03
 0.168805047031863D+03 0.973254645100768D+02 0.102657218709686D+03 -.130054590122300D+02
 0.125305467150852D+03 -.103427346369538D+02 -.187280747940412D+02 -.123465570717636D+03
 0.000000000000000D+00 0.000000000000000D+00 0.000000000000000D+00 0.000000000000000D+00
 0.280620268473478D+03 0.000000000000000D+00 0.000000000000000D+00 0.280620268473478D+03
 0.261539130074806D+03 0.000000000000000D+00 0.000000000000000D+00 -.261539130074806D+03
 0.225259000856260D+03 -.903542429180950D+02 -.912599928661423D+02 0.136471029729866D+03
 0.164070939065003D+03 0.948108018686807D+02 0.971894623226766D+02 -.130054590122300D+02
 0.126159177526362D+03 -.122423872824219D+02 -.228585842764550D+02 -.123465570717636D+03
 0.266702811006590D+02 0.778582833183614D+01 0.169291148199208D+02 0.190811383986723D+02
-.541136657704D-02 0.000000000000D+00 0.000000000000D+00 0.279154941188D-04 0.000000000000D+00  6 -1 1 25 23 21 21 4 0.76257833D-02 0.22756814D+00 0.37506479D+05 0.37506479D+05 0.37506479D+05 0.12048493D+01  1  2 13  1  6  1       -1 -.788442698685D+00 0.100000000000D+01
-.802302621987D-05 0.000000000000D+00 0.000000000000D+00 0.281785555698D-04 0.000000000000D+00  6 -1 1 25 23 21 21 4 0.69003799D-02 0.22756814D+00 0.33047595D+05 0.33047595D+05 0.33047595D+05 0.12105130D+01  1  2  8  1  6  1       -1 -.138762553808D-02 0.100000000000D+01
0.674967851797D-03 0.000000000000D+00 0.000000000000D+00 0.281785555698D-04 0.211831691749D-06  6 -1 1 25 23 21 21 4 0.75177253D-02 0.23106946D+00 0.37506479D+05 0.37506479D+05 0.37506479D+05 0.12048493D+01  1  2  1  1  6  1       -1 0.970949600660D-01 0.100000000000D+01
  </mgrwgt>
  </event>
  <event>
  5     66 -.44820762E-03 0.23930967E+02 0.75467711E-02 0.12185876E+00
       -3 -1    0    0    0  501 0.00000000E+00 0.00000000E+00 0.41214176E+03 0.41214206E+03 0.50000000E+00 0.0000E+00 0.9000E+01
        3 -1    0    0  502    0 0.00000000E+00 0.00000000E+00 -.46250822E+02 0.46253524E+02 0.50000000E+00 0.0000E+00 0.9000E+01
       25  1    1    2    0    0 0.52894077E+02 0.65323248E+00 0.15045100E+03 0.20262950E+03 0.12500000E+03 0.0000E+00 0.9000E+01
       23  1    1    2    0    0 -.62139452E+02 -.22716504E+02 0.16326397E+03 0.19836262E+03 0.91188000E+02 0.0000E+00 0.9000E+01
       21  1    1    2  502  501 0.92453746E+01 0.22063272E+02 0.52175963E+02 0.57403471E+02 0.75000000E+00 0.0000E+00 0.9000E+01
#aMCatNLO 1  0  0  5  1 0.39816896D+01 0.00000000D+00  -5  6  0 0.00000000D+00 0.00000000D+00 0.00000000D+00 0.00000000D+00 0.00000000D+00
  <mgrwgt>
 -.1478929442D+00   20    2    0
 0.138067316399561D+03 0.000000000000000D+00 0.000000000000000D+00 0.138067316399561D+03
 0.138067316399561D+03 -.000000000000000D+00 -.000000000000000D+00 -.138067316399561D+03
 0.137018975348382D+03 0.528921900896365D+02 0.648729172491180D+00 -.187401969974425D+02
 0.112959921052804D+03 -.621410074916288D+02 -.227202167782744D+02 0.818409174736815D+01
 0.261557363979355D+02 0.924881740199225D+01 0.220714876057833D+02 0.105561052500744D+02
 0.000000000000000D+00 0.000000000000000D+00 0.000000000000000D+00 0.000000000000000D+00
 0.138067316399561D+03 0.000000000000000D+00 0.000000000000000D+00 0.138067316399561D+03
 0.138067316399561D+03 -.000000000000000D+00 -.000000000000000D+00 -.138067316399561D+03
 0.137079939751099D+03 0.531376913054782D+02 0.123459618739051D+01 -.184599950472032D+02
 0.112769660988963D+03 -.619388290670167D+02 -.222377357864862D+02 0.841484738203333D+01
 0.173055710189254D+02 0.553791476919276D+01 0.160609287828891D+02 0.329558112192542D+01
 0.897946104013416D+01 0.326322299234576D+01 0.494221081620652D+01 0.674956654324442D+01
0.105962552084D-03 0.000000000000D+00 0.000000000000D+00 0.294858646538D-04 0.000000000000D+00  6 -3 3 25 23 21 21 2 0.63406655D-01 0.71157422D-02 0.18540280D+05 0.18540280D+05 0.18540280D+05 0.12374661D+01  1  2  2  3  6  5       21 0.118941668506D-01 0.100000000000D+01
0.193966338833D-04 0.559179749943D-05 -.406924100583D-06 0.294858646538D-04 0.000000000000D+00  6 -3 3 25 23 21 21 4 0.63406655D-01 0.71157422D-02 0.18540280D+05 0.18540280D+05 0.18540280D+05 0.12374661D+01  1  2  3  3  6  5       21 0.333406915189D-02 0.100000000000D+01
0.208591279852D-05 0.000000000000D+00 0.000000000000D+00 0.294858646538D-04 0.000000000000D+00  6 -3 3 25 23 21 21 4 0.63406655D-01 0.71157422D-02 0.18540280D+05 0.18540280D+05 0.18540280D+05 0.12374661D+01  1  2 15  3  6  5       21 0.358545588731D-03 0.100000000000D+01
0.128360275399D-04 0.000000000000D+00 0.000000000000D+00 0.295049588128D-04 0.000000000000D+00  6 -3 3 25 23 21 21 4 0.63406655D-01 0.71157422D-02 0.18387057D+05 0.18387057D+05 0.18387057D+05 0.12378667D+01  1  2 12  3  6  5       21 0.220786840894D-02 0.100000000000D+01
0.130108989203D-04 0.000000000000D+00 0.000000000000D+00 0.295049588128D-04 0.000000000000D+00  6 -3 3 25 23 21 21 4 0.63406655D-01 0.71157422D-02 0.18387057D+05 0.18387057D+05 0.18387057D+05 0.12378667D+01  1  2 12  3  6  5       21 0.223794726280D-02 0.100000000000D+01
-.121126384316D-02 0.000000000000D+00 0.000000000000D+00 0.294858646538D-04 0.000000000000D+00  6 -3 3 25 23 21 21 4 0.63406655D-01 0.71157422D-02 0.18540280D+05 0.18540280D+05 0.18540280D+05 0.12374661D+01  1  2  4  3  6  5       21 -.208203002572D+00 0.100000000000D+01
-.330919762213D-03 0.000000000000D+00 0.000000000000D+00 0.294858646538D-04 0.000000000000D+00  6 -3 3 25 23 21 21 4 0.63406655D-01 0.71157422D-02 0.18540280D+05 0.18540280D+05 0.18540280D+05 0.12374661D+01  1  2  5  3  6  5       21 -.568814866323D-01 0.100000000000D+01
0.570845949865D-03 0.000000000000D+00 -.000000000000D+00 0.294858646538D-04 0.000000000000D+00  6 -3 3 25 23 21 21 4 0.63406655D-01 0.71157422D-02 0.18540280D+05 0.18540280D+05 0.18540280D+05 0.12374661D+01  1  2  6  3  6  5       21 0.981221733306D-01 0.100000000000D+01
0.355894171396D-06 0.000000000000D+00 0.000000000000D+00 0.295049588128D-04 0.000000000000D+00  6 -3 3 25 23 3 -3 4 0.63406655D-01 0.71157422D-02 0.18387057D+05 0.18387057D+05 0.18387057D+05 0.12378667D+01  1  2 12  6  6  5       21 0.612157846740D-04 0.100000000000D+01
0.360078005381D-06 0.000000000000D+00 0.000000000000D+00 0.295049588128D-04 0.000000000000D+00  6 -3 3 25 23 3 -3 4 0.63406655D-01 0.71157422D-02 0.18387057D+05 0.18387057D+05 0.18387057D+05 0.12378667D+01  1  2 12  6  6  5       21 0.619354274804D-04 0.100000000000D+01
-.211739834861D-05 0.000000000000D+00 0.000000000000D+00 0.294858646538D-04 0.000000000000D+00  6 -3 3 25 23 3 -3 4 0.63406655D-01 0.71157422D-02 0.18540280D+05 0.18540280D+05 0.18540280D+05 0.12374661D+01  1  2  5  6  6  5       21 -.363957610318D-03 0.100000000000D+01
0.355894171396D-06 0.000000000000D+00 0.000000000000D+00 0.295049588128D-04 0.000000000000D+00  6 -3 3 25 23 2 -2 4 0.63406655D-01 0.71157422D-02 0.18387057D+05 0.18387057D+05 0.18387057D+05 0.12378667D+01  1  2 12  7  6  5       21 0.612157846740D-04 0.100000000000D+01
0.355894171396D-06 0.000000000000D+00 0.000000000000D+00 0.295049588128D-04 0.000000000000D+00  6 -3 3 25 23 4 -4 4 0.63406655D-01 0.71157422D-02 0.18387057D+05 0.18387057D+05 0.18387057D+05 0.12378667D+01  1  2 12  7  6  5       21 0.612157846740D-04 0.100000000000D+01
0.360078005381D-06 0.000000000000D+00 0.000000000000D+00 0.295049588128D-04 0.000000000000D+00  6 -3 3 25 23 2 -2 4 0.63406655D-01 0.71157422D-02 0.18387057D+05 0.18387057D+05 0.18387057D+05 0.12378667D+01  1  2 12  7  6  5       21 0.619354274804D-04 0.100000000000D+01
0.360078005381D-06 0.000000000000D+00 0.000000000000D+00 0.295049588128D-04 0.000000000000D+00  6 -3 3 25 23 4 -4 4 0.63406655D-01 0.71157422D-02 0.18387057D+05 0.18387057D+05 0.18387057D+05 0.12378667D+01  1  2 12  7  6  5       21 0.619354274804D-04 0.100000000000D+01
-.211739834861D-05 0.000000000000D+00 0.000000000000D+00 0.294858646538D-04 0.000000000000D+00  6 -3 3 25 23 2 -2 4 0.63406655D-01 0.71157422D-02 0.18540280D+05 0.18540280D+05 0.18540280D+05 0.12374661D+01  1  2  5  7  6  5       21 -.363957610318D-03 0.100000000000D+01
-.211739834861D-05 0.000000000000D+00 0.000000000000D+00 0.294858646538D-04 0.000000000000D+00  6 -3 3 25 23 4 -4 4 0.63406655D-01 0.71157422D-02 0.18540280D+05 0.18540280D+05 0.18540280D+05 0.12374661D+01  1  2  5  7  6  5       21 -.363957610318D-03 0.100000000000D+01
0.355894171396D-06 0.000000000000D+00 0.000000000000D+00 0.295049588128D-04 0.000000000000D+00  6 -3 3 25 23 1 -1 4 0.63406655D-01 0.71157422D-02 0.18387057D+05 0.18387057D+05 0.18387057D+05 0.12378667D+01  1  2 12  8  6  5       21 0.612157846740D-04 0.100000000000D+01
0.360078005381D-06 0.000000000000D+00 0.000000000000D+00 0.295049588128D-04 0.000000000000D+00  6 -3 3 25 23 1 -1 4 0.63406655D-01 0.71157422D-02 0.18387057D+05 0.18387057D+05 0.18387057D+05 0.12378667D+01  1  2 12  8  6  5       21 0.619354274804D-04 0.100000000000D+01
-.211739834861D-05 0.000000000000D+00 0.000000000000D+00 0.294858646538D-04 0.000000000000D+00  6 -3 3 25 23 1 -1 4 0.63406655D-01 0.71157422D-02 0.18540280D+05 0.18540280D+05 0.18540280D+05 0.12374661D+01  1  2  5  8  6  5       21 -.363957610318D-03 0.100000000000D+01
  </mgrwgt>
  </event>
  <event>
  5     66 0.44820762E-03 0.10431254E+03 0.75467711E-02 0.11135533E+00
       -1 -1    0    0    0  501 0.00000000E+00 0.00000000E+00 0.27307388E+03 0.27307406E+03 0.32000000E+00 0.0000E+00 0.9000E+01
        1 -1    0    0  502    0 -.00000000E+00 -.00000000E+00 -.33476157E+03 0.33476173E+03 0.32000000E+00 0.0000E+00 0.9000E+01
       25  1    1    2    0    0 -.29059966E+02 0.15019418E+03 -.19462709E+03 0.27732198E+03 0.12500000E+03 0.0000E+00 0.9000E+01
       23  1    1    2    0    0 0.12833217E+03 -.11816544E+03 0.71356075E+02 0.20937803E+03 0.91188000E+02 0.0000E+00 0.9000E+01
       21  1    1    2  502  501 -.99272205E+02 -.32028746E+02 0.61583319E+02 0.12113579E+03 0.75000000E+00 0.0000E+00 0.9000E+01
#aMCatNLO 1  0  0  5  2 0.34380849D+01 0.00000000D+00  -5  6  0 0.00000000D+00 0.00000000D+00 0.00000000D+00 0.00000000D+00 0.00000000D+00
  <mgrwgt>
 0.2563371083D-01   25    2    0
 0.302348712516010D+03 0.000000000000000D+00 0.000000000000000D+00 0.302348712516010D+03
 0.302348712516010D+03 -.000000000000000D+00 -.000000000000000D+00 -.302348712516010D+03
 0.258906960842499D+03 -.290592371321341D+02 0.150194419814144D+03 -.167346978958960D+03
 0.217744080430757D+03 0.128332784121010D+03 -.118165240340181D+03 0.930854753102414D+02
 0.128046383758764D+03 -.992735469888762D+02 -.320291794739626D+02 0.742615036487185D+02
 0.000000000000000D+00 0.000000000000000D+00 -.000000000000000D+00 0.000000000000000D+00
 0.302348712516010D+03 0.000000000000000D+00 0.000000000000000D+00 0.302348712516010D+03
 0.302348712516010D+03 -.000000000000000D+00 -.000000000000000D+00 -.302348712516010D+03
 0.258523444369021D+03 -.297482302442034D+02 0.149972126114441D+03 -.166831578169346D+03
 0.217690568375384D+03 0.127752973830076D+03 -.118352307775892D+03 0.935192019709860D+02
 0.124553335742903D+03 -.974148629745322D+02 -.278306529106835D+02 0.724522786039373D+02
 0.393007654471178D+01 -.589880611340833D+00 -.378916542786491D+01 0.860097594422407D+00
0.271205178995D-03 0.000000000000D+00 0.000000000000D+00 0.770817258096D-06 0.000000000000D+00  6 -1 1 25 23 21 21 2 0.42011392D-01 0.51501807D-01 0.62178201D+05 0.62178201D+05 0.62178201D+05 0.11830185D+01  1  2  2  3  6  5       21 0.164550884399D-01 0.100000000000D+01
-.957955575898D-05 0.143118904925D-04 -.104149929730D-05 0.770817258096D-06 0.000000000000D+00  6 -1 1 25 23 21 21 4 0.42011392D-01 0.51501807D-01 0.62178201D+05 0.62178201D+05 0.62178201D+05 0.11830185D+01  1  2  3  3  6  5       21 -.813449627491D-03 0.100000000000D+01
0.697516775254D-05 0.000000000000D+00 0.000000000000D+00 0.770817258096D-06 0.000000000000D+00  6 -1 1 25 23 21 21 4 0.42011392D-01 0.51501807D-01 0.62178201D+05 0.62178201D+05 0.62178201D+05 0.11830185D+01  1  2 15  3  6  5       21 0.592297571280D-03 0.100000000000D+01
0.213495062141D-05 0.000000000000D+00 0.000000000000D+00 0.770706875598D-06 0.000000000000D+00  6 -1 1 25 23 21 21 4 0.42011392D-01 0.51501807D-01 0.62303783D+05 0.62303783D+05 0.62303783D+05 0.11829338D+01  1  2 12  3  6  5       21 0.181235606382D-03 0.100000000000D+01
0.267323983868D-05 0.000000000000D+00 0.000000000000D+00 0.770706875598D-06 0.000000000000D+00  6 -1 1 25 23 21 21 4 0.42011392D-01 0.51501807D-01 0.62303783D+05 0.62303783D+05 0.62303783D+05 0.11829338D+01  1  2 12  3  6  5       21 0.226930889317D-03 0.100000000000D+01
-.349871791255D-02 0.000000000000D+00 0.000000000000D+00 0.770817258096D-06 0.000000000000D+00  6 -1 1 25 23 21 21 4 0.42011392D-01 0.51501807D-01 0.62178201D+05 0.62178201D+05 0.62178201D+05 0.11830185D+01  1  2  4  3  6  5       21 -.297094234249D+00 0.100000000000D+01
-.505979813184D-02 0.000000000000D+00 0.000000000000D+00 0.770817258096D-06 0.000000000000D+00  6 -1 1 25 23 21 21 4 0.42011392D-01 0.51501807D-01 0.62178201D+05 0.62178201D+05 0.62178201D+05 0.11830185D+01  1  2  5  3  6  5       21 -.429653629988D+00 0.100000000000D+01
0.524333029642D-02 0.000000000000D+00 -.000000000000D+00 0.770817258096D-06 0.000000000000D+00  6 -1 1 25 23 21 21 4 0.42011392D-01 0.51501807D-01 0.62178201D+05 0.62178201D+05 0.62178201D+05 0.11830185D+01  1  2  6  3  6  5       21 0.445238295360D+00 0.100000000000D+01
0.342295851654D-02 0.000000000000D+00 0.000000000000D+00 0.770817258096D-06 0.334476349017D-06  6 -1 1 25 23 21 21 4 0.42011392D-01 0.51501807D-01 0.62303783D+05 0.62303783D+05 0.62303783D+05 0.11829338D+01  1  2 11  3  6  5       21 0.290574384317D+00 0.100000000000D+01
0.242397699752D-06 0.000000000000D+00 0.000000000000D+00 0.770706875598D-06 0.000000000000D+00  6 -1 1 25 23 1 -1 4 0.42011392D-01 0.51501807D-01 0.62303783D+05 0.62303783D+05 0.62303783D+05 0.11829338D+01  1  2 12  6  6  5       21 0.205771007814D-04 0.100000000000D+01
0.248202799155D-06 0.000000000000D+00 0.000000000000D+00 0.770706875598D-06 0.000000000000D+00  6 -1 1 25 23 1 -1 4 0.42011392D-01 0.51501807D-01 0.62303783D+05 0.62303783D+05 0.62303783D+05 0.11829338D+01  1  2 12  6  6  5       21 0.210698947130D-04 0.100000000000D+01
-.132674012593D-04 0.000000000000D+00 0.000000000000D+00 0.770817258096D-06 0.000000000000D+00  6 -1 1 25 23 1 -1 4 0.42011392D-01 0.51501807D-01 0.62178201D+05 0.62178201D+05 0.62178201D+05 0.11830185D+01  1  2  5  6  6  5       21 -.112660366343D-02 0.100000000000D+01
0.121449478519D-04 0.000000000000D+00 0.000000000000D+00 0.770817258096D-06 0.221817218779D-08  6 -1 1 25 23 1 -1 4 0.42011392D-01 0.51501807D-01 0.62303783D+05 0.62303783D+05 0.62303783D+05 0.11829338D+01  1  2 11  6  6  5       21 0.103098262149D-02 0.100000000000D+01
0.242397699752D-06 0.000000000000D+00 0.000000000000D+00 0.770706875598D-06 0.000000000000D+00  6 -1 1 25 23 2 -2 4 0.42011392D-01 0.51501807D-01 0.62303783D+05 0.62303783D+05 0.62303783D+05 0.11829338D+01  1  2 12  7  6  5       21 0.205771007814D-04 0.100000000000D+01
0.242397699752D-06 0.000000000000D+00 0.000000000000D+00 0.770706875598D-06 0.000000000000D+00  6 -1 1 25 23 4 -4 4 0.42011392D-01 0.51501807D-01 0.62303783D+05 0.62303783D+05 0.62303783D+05 0.11829338D+01  1  2 12  7  6  5       21 0.205771007814D-04 0.100000000000D+01
0.248202799155D-06 0.000000000000D+00 0.000000000000D+00 0.770706875598D-06 0.000000000000D+00  6 -1 1 25 23 2 -2 4 0.42011392D-01 0.51501807D-01 0.62303783D+05 0.62303783D+05 0.62303783D+05 0.11829338D+01  1  2 12  7  6  5       21 0.210698947130D-04 0.100000000000D+01
0.248202799155D-06 0.000000000000D+00 0.000000000000D+00 0.770706875598D-06 0.000000000000D+00  6 -1 1 25 23 4 -4 4 0.42011392D-01 0.51501807D-01 0.62303783D+05 0.62303783D+05 0.62303783D+05 0.11829338D+01  1  2 12  7  6  5       21 0.210698947130D-04 0.100000000000D+01
-.132674012593D-04 0.000000000000D+00 0.000000000000D+00 0.770817258096D-06 0.000000000000D+00  6 -1 1 25 23 2 -2 4 0.42011392D-01 0.51501807D-01 0.62178201D+05 0.62178201D+05 0.62178201D+05 0.11830185D+01  1  2  5  7  6  5       21 -.112660366343D-02 0.100000000000D+01
-.132674012593D-04 0.000000000000D+00 0.000000000000D+00 0.770817258096D-06 0.000000000000D+00  6 -1 1 25 23 4 -4 4 0.42011392D-01 0.51501807D-01 0.62178201D+05 0.62178201D+05 0.62178201D+05 0.11830185D+01  1  2  5  7  6  5       21 -.112660366343D-02 0.100000000000D+01
0.127024488655D-04 0.000000000000D+00 0.000000000000D+00 0.770817258096D-06 0.201351300261D-08  6 -1 1 25 23 2 -2 4 0.42011392D-01 0.51501807D-01 0.62303783D+05 0.62303783D+05 0.62303783D+05 0.11829338D+01  1  2 11  7  6  5       21 0.107830879065D-02 0.100000000000D+01
0.127024488655D-04 0.000000000000D+00 0.000000000000D+00 0.770817258096D-06 0.201351300261D-08  6 -1 1 25 23 4 -4 4 0.42011392D-01 0.51501807D-01 0.62303783D+05 0.62303783D+05 0.62303783D+05 0.11829338D+01  1  2 11  7  6  5       21 0.107830879065D-02 0.100000000000D+01
0.242397699752D-06 0.000000000000D+00 0.000000000000D+00 0.770706875598D-06 0.000000000000D+00  6 -1 1 25 23 3 -3 4 0.42011392D-01 0.51501807D-01 0.62303783D+05 0.62303783D+05 0.62303783D+05 0.11829338D+01  1  2 12  8  6  5       21 0.205771007814D-04 0.100000000000D+01
0.248202799155D-06 0.000000000000D+00 0.000000000000D+00 0.770706875598D-06 0.000000000000D+00  6 -1 1 25 23 3 -3 4 0.42011392D-01 0.51501807D-01 0.62303783D+05 0.62303783D+05 0.62303783D+05 0.11829338D+01  1  2 12  8  6  5       21 0.210698947130D-04 0.100000000000D+01
-.132674012593D-04 0.000000000000D+00 0.000000000000D+00 0.770817258096D-06 0.000000000000D+00  6 -1 1 25 23 3 -3 4 0.42011392D-01 0.51501807D-01 0.62178201D+05 0.62178201D+05 0.62178201D+05 0.11830185D+01  1  2  5  8  6  5       21 -.112660366343D-02 0.100000000000D+01
0.127108148220D-04 0.000000000000D+00 0.000000000000D+00 0.770817258096D-06 0.201483912187D-08  6 -1 1 25 23 3 -3 4 0.42011392D-01 0.51501807D-01 0.62303783D+05 0.62303783D+05 0.62303783D+05 0.11829338D+01  1  2 11  8  6  5       21 0.107901897531D-02 0.100000000000D+01
  </mgrwgt>
  </event>
  <event>
  5     66 0.44820762E-03 0.69854018E+02 0.75467711E-02 0.11507666E+00
       -3 -1    0    0    0  501 0.00000000E+00 0.00000000E+00 0.58019543E+03 0.58019564E+03 0.50000000E+00 0.0000E+00 0.9000E+01
        3 -1    0    0  502    0 0.00000000E+00 0.00000000E+00 -.79178745E+02 0.79180324E+02 0.50000000E+00 0.0000E+00 0.9000E+01
       25  1    1    2    0    0 -.65330726E+01 -.82387375E+02 0.18744909E+03 0.23998442E+03 0.12500000E+03 0.0000E+00 0.9000E+01
       23  1    1    2    0    0 0.17089617E+01 0.15287776E+03 0.29786857E+03 0.34700931E+03 0.91188000E+02 0.0000E+00 0.9000E+01
       21  1    1    2  502  501 0.48241109E+01 -.70490382E+02 0.15699029E+02 0.72382236E+02 0.75000000E+00 0.0000E+00 0.9000E+01
#aMCatNLO 1  0  0  5  5 0.17763864D+01 0.00000000D+00  -5  6  0 0.00000000D+00 0.00000000D+00 0.00000000D+00 0.00000000D+00 0.00000000D+00
  <mgrwgt>
 0.1644452744D-02   19    2    0
 0.214335571847773D+03 0.000000000000000D+00 0.000000000000000D+00 0.214335571847773D+03
 0.214335571847773D+03 -.000000000000000D+00 -.000000000000000D+00 -.214335571847773D+03
 0.150055972711231D+03 -.653312753604834D+01 -.823865725835105D+02 0.784639081700863D+01
 0.185626989941743D+03 0.170889378859479D+01 0.152878750335047D+03 0.526050893815929D+02
 0.929881810425724D+02 0.482423374745355D+01 -.704921777515367D+02 -.604514801986015D+02
 0.000000000000000D+00 0.000000000000000D+00 -.000000000000000D+00 0.000000000000000D+00
 0.214335571847773D+03 0.000000000000000D+00 0.000000000000000D+00 0.214335571847773D+03
 0.214335571847773D+03 -.000000000000000D+00 -.000000000000000D+00 -.214335571847773D+03
 0.150275120363046D+03 -.650333323516905D+01 -.828219298368100D+02 0.747304456474910D+01
 0.185054672663043D+03 0.174566720713442D+01 0.152341413528431D+03 0.521442892423259D+02
 0.915573187029809D+02 0.546340451775760D+01 -.683077404404698D+02 -.607202306902071D+02
 0.178403196647637D+01 -.705738489722975D+00 -.121174325115123D+01 0.110289688313212D+01
0.321310850866D-04 0.000000000000D+00 0.000000000000D+00 0.270984186574D-05 0.000000000000D+00  6 -3 3 25 23 21 21 2 0.89260973D-01 0.12181483D-01 0.39705512D+05 0.39705512D+05 0.39705512D+05 0.12023263D+01  1  2  2  3  6  5       21 0.702805321268D-03 0.100000000000D+01
-.129825041496D-07 0.169560394411D-05 -.123391827041D-06 0.270984186574D-05 0.000000000000D+00  6 -3 3 25 23 21 21 4 0.89260973D-01 0.12181483D-01 0.39705512D+05 0.39705512D+05 0.39705512D+05 0.12023263D+01  1  2  3  3  6  5       21 -.410499663105D-06 0.100000000000D+01
0.849467931722D-06 0.000000000000D+00 0.000000000000D+00 0.270984186574D-05 0.000000000000D+00  6 -3 3 25 23 21 21 4 0.89260973D-01 0.12181483D-01 0.39705512D+05 0.39705512D+05 0.39705512D+05 0.12023263D+01  1  2 15  3  6  5       21 0.268597102510D-04 0.100000000000D+01
-.554990700691D-03 0.000000000000D+00 0.000000000000D+00 0.270984186574D-05 0.000000000000D+00  6 -3 3 25 23 21 21 4 0.89260973D-01 0.12181483D-01 0.39705512D+05 0.39705512D+05 0.39705512D+05 0.12023263D+01  1  2  4  3  6  5       21 -.175485016631D-01 0.100000000000D+01
-.565364344657D-03 0.000000000000D+00 0.000000000000D+00 0.270984186574D-05 0.000000000000D+00  6 -3 3 25 23 21 21 4 0.89260973D-01 0.12181483D-01 0.39705512D+05 0.39705512D+05 0.39705512D+05 0.12023263D+01  1  2  5  3  6  5       21 -.178765105976D-01 0.100000000000D+01
0.577492509771D-03 0.000000000000D+00 -.000000000000D+00 0.270984186574D-05 0.000000000000D+00  6 -3 3 25 23 21 21 4 0.89260973D-01 0.12181483D-01 0.39705512D+05 0.39705512D+05 0.39705512D+05 0.12023263D+01  1  2  6  3  6  5       21 0.182599965288D-01 0.100000000000D+01
0.572096596629D-03 0.000000000000D+00 0.000000000000D+00 0.270984186574D-05 0.874314796179D-05  6 -3 3 25 23 21 21 4 0.89260973D-01 0.12181483D-01 0.39516183D+05 0.39516183D+05 0.39516183D+05 0.12025373D+01  1  2 11  3  6  5       21 0.180979419418D-01 0.100000000000D+01
0.263724514859D-09 0.000000000000D+00 0.000000000000D+00 0.271079321108D-05 0.000000000000D+00  6 -3 3 25 23 3 -3 4 0.89260973D-01 0.12181483D-01 0.39516183D+05 0.39516183D+05 0.39516183D+05 0.12025373D+01  1  2 12  6  6  5       21 0.834277111010D-08 0.100000000000D+01
-.866799043517D-06 0.000000000000D+00 0.000000000000D+00 0.270984186574D-05 0.000000000000D+00  6 -3 3 25 23 3 -3 4 0.89260973D-01 0.12181483D-01 0.39705512D+05 0.39705512D+05 0.39705512D+05 0.12023263D+01  1  2  5  6  6  5       21 -.274077105036D-04 0.100000000000D+01
0.396643229740D-06 0.000000000000D+00 0.000000000000D+00 0.270984186574D-05 0.114479665573D-07  6 -3 3 25 23 3 -3 4 0.89260973D-01 0.12181483D-01 0.39516183D+05 0.39516183D+05 0.39516183D+05 0.12025373D+01  1  2 11  6  6  5       21 0.125475770800D-04 0.100000000000D+01
0.263724514859D-09 0.000000000000D+00 0.000000000000D+00 0.271079321108D-05 0.000000000000D+00  6 -3 3 25 23 2 -2 4 0.89260973D-01 0.12181483D-01 0.39516183D+05 0.39516183D+05 0.39516183D+05 0.12025373D+01  1  2 12  7  6  5       21 0.834277111010D-08 0.100000000000D+01
0.263724514859D-09 0.000000000000D+00 0.000000000000D+00 0.271079321108D-05 0.000000000000D+00  6 -3 3 25 23 4 -4 4 0.89260973D-01 0.12181483D-01 0.39516183D+05 0.39516183D+05 0.39516183D+05 0.12025373D+01  1  2 12  7  6  5       21 0.834277111010D-08 0.100000000000D+01
-.866799043517D-06 0.000000000000D+00 0.000000000000D+00 0.270984186574D-05 0.000000000000D+00  6 -3 3 25 23 2 -2 4 0.89260973D-01 0.12181483D-01 0.39705512D+05 0.39705512D+05 0.39705512D+05 0.12023263D+01  1  2  5  7  6  5       21 -.274077105036D-04 0.100000000000D+01
-.866799043517D-06 0.000000000000D+00 0.000000000000D+00 0.270984186574D-05 0.000000000000D+00  6 -3 3 25 23 4 -4 4 0.89260973D-01 0.12181483D-01 0.39705512D+05 0.39705512D+05 0.39705512D+05 0.12023263D+01  1  2  5  7  6  5       21 -.274077105036D-04 0.100000000000D+01
0.835803404528D-06 0.000000000000D+00 0.000000000000D+00 0.270984186574D-05 0.117131711545D-07  6 -3 3 25 23 2 -2 4 0.89260973D-01 0.12181483D-01 0.39516183D+05 0.39516183D+05 0.39516183D+05 0.12025373D+01  1  2 11  7  6  5       21 0.264401529025D-04 0.100000000000D+01
0.835803404528D-06 0.000000000000D+00 0.000000000000D+00 0.270984186574D-05 0.117131711545D-07  6 -3 3 25 23 4 -4 4 0.89260973D-01 0.12181483D-01 0.39516183D+05 0.39516183D+05 0.39516183D+05 0.12025373D+01  1  2 11  7  6  5       21 0.264401529025D-04 0.100000000000D+01
0.263724514859D-09 0.000000000000D+00 0.000000000000D+00 0.271079321108D-05 0.000000000000D+00  6 -3 3 25 23 1 -1 4 0.89260973D-01 0.12181483D-01 0.39516183D+05 0.39516183D+05 0.39516183D+05 0.12025373D+01  1  2 12  8  6  5       21 0.834277111010D-08 0.100000000000D+01
-.866799043517D-06 0.000000000000D+00 0.000000000000D+00 0.270984186574D-05 0.000000000000D+00  6 -3 3 25 23 1 -1 4 0.89260973D-01 0.12181483D-01 0.39705512D+05 0.39705512D+05 0.39705512D+05 0.12023263D+01  1  2  5  8  6  5       21 -.274077105036D-04 0.100000000000D+01
0.835848848667D-06 0.000000000000D+00 0.000000000000D+00 0.270984186574D-05 0.117138080207D-07  6 -3 3 25 23 1 -1 4 0.89260973D-01 0.12181483D-01 0.39516183D+05 0.39516183D+05 0.39516183D+05 0.12025373D+01  1  2 11  8  6  5       21 0.264415905013D-04 0.100000000000D+01
  </mgrwgt>
  </event>
  <event>
  5     66 0.44820762E-03 0.37363197E+02 0.75467711E-02 0.11867454E+00
       -1 -1    0    0    0  501 0.00000000E+00 0.00000000E+00 0.51171000E+03 0.51171010E+03 0.32000000E+00 0.0000E+00 0.9000E+01
        1 -1    0    0  502    0 0.00000000E+00 0.00000000E+00 -.53072626E+02 0.53073591E+02 0.32000000E+00 0.0000E+00 0.9000E+01
       25  1    1    2    0    0 0.85278790E+02 0.56432753E+02 0.21751566E+03 0.27091547E+03 0.12500000E+03 0.0000E+00 0.9000E+01
       23  1    1    2    0    0 -.82585764E+02 -.19172074E+02 0.21439445E+03 0.24792783E+03 0.91188000E+02 0.0000E+00 0.9000E+01
       21  1    1    2  502  501 -.26930254E+01 -.37260679E+02 0.26727257E+02 0.45940389E+02 0.75000000E+00 0.0000E+00 0.9000E+01
#aMCatNLO 1  0  0  2  5 0.10463855D+00 0.00000000D+00  -5  6  0 0.00000000D+00 0.00000000D+00 0.00000000D+00 0.00000000D+00 0.00000000D+00
  <mgrwgt>
 0.7280342456D-01    9    4    0
 0.164797130099503D+03 0.000000000000000D+00 0.000000000000000D+00 0.164797130099503D+03
 0.164797130099503D+03 0.000000000000000D+00 0.000000000000000D+00 -.164797130099503D+03
 0.161556799225102D+03 0.852790049162076D+02 0.564357322955376D+02 -.425427039900774D+01
 0.126507665229251D+03 -.825855955834910D+02 -.191697416154946D+02 0.223847811307506D+02
 0.415297957446513D+02 -.269340933271662D+01 -.372659906800430D+02 -.181305107317429D+02
 0.000000000000000D+00 0.000000000000000D+00 0.000000000000000D+00 -.000000000000000D+00
 0.164797327032374D+03 0.000000000000000D+00 0.000000000000000D+00 0.164797327032374D+03
 0.179308821834641D+03 0.000000000000000D+00 0.000000000000000D+00 -.179308821834641D+03
 0.161524497725327D+03 0.852392149247826D+02 0.564033756773306D+02 -.425427039900774D+01
 0.126531853433154D+03 -.826167593814972D+02 -.191950835439006D+02 0.223847811307506D+02
 0.415379256506841D+02 -.270363977302131D+01 -.372743099191072D+02 -.181305107317429D+02
 0.145118720578500D+02 0.811842297358972D-01 0.660177856772317D-01 -.145114948022671D+02
 0.164797130099503D+03 0.000000000000000D+00 0.000000000000000D+00 0.164797130099503D+03
 0.164797130099503D+03 0.000000000000000D+00 0.000000000000000D+00 -.164797130099503D+03
 0.161556799225102D+03 0.852790049162076D+02 0.564357322955376D+02 -.425427039900774D+01
 0.126507665229251D+03 -.825855955834910D+02 -.191697416154946D+02 0.223847811307506D+02
 0.000000000000000D+00 0.000000000000000D+00 0.000000000000000D+00 -.000000000000000D+00
 0.415297957446513D+02 -.269340933271662D+01 -.372659906800430D+02 -.181305107317429D+02
 0.164797327032374D+03 0.000000000000000D+00 0.000000000000000D+00 0.164797327032374D+03
 0.179308821834641D+03 0.000000000000000D+00 0.000000000000000D+00 -.179308821834641D+03
 0.161524497725327D+03 0.852392149247826D+02 0.564033756773306D+02 -.425427039900774D+01
 0.126531853433154D+03 -.826167593814972D+02 -.191950835439006D+02 0.223847811307506D+02
 0.145118720578500D+02 0.811842297358972D-01 0.660177856772317D-01 -.145114948022671D+02
 0.415379256506841D+02 -.270363977302131D+01 -.372743099191072D+02 -.181305107317429D+02
0.848771794846D-06 0.000000000000D+00 0.000000000000D+00 0.104246417491D-04 0.000000000000D+00  6 -1 1 25 23 21 21 2 0.78724697D-01 0.81651013D-02 0.26142922D+05 0.26142922D+05 0.26142922D+05 0.12212217D+01  1  2  2  2  6  2        1 0.177700362153D-03 0.100000000000D+01
0.879399437701D-07 0.447909181750D-07 -.325950717896D-08 0.104246417491D-04 0.000000000000D+00  6 -1 1 25 23 21 21 4 0.78724697D-01 0.81651013D-02 0.26142922D+05 0.26142922D+05 0.26142922D+05 0.12212217D+01  1  2  3  2  6  2        1 0.274582312624D-04 0.100000000000D+01
0.347628603791D-07 0.000000000000D+00 0.000000000000D+00 0.104246417491D-04 0.000000000000D+00  6 -1 1 25 23 21 21 4 0.78724697D-01 0.81651013D-02 0.26142922D+05 0.26142922D+05 0.26142922D+05 0.12212217D+01  1  2 15  2  6  2        1 0.108543014552D-04 0.100000000000D+01
-.961315444621D-01 0.000000000000D+00 0.000000000000D+00 0.104246417491D-04 0.000000000000D+00  6 -1 1 25 23 21 21 4 0.78724697D-01 0.81651013D-02 0.26142922D+05 0.26142922D+05 0.26142922D+05 0.12212217D+01  1  2  4  2  6  2        1 -.300159639214D+02 0.100000000000D+01
-.973786195954D-01 0.000000000000D+00 -.275407106647D-05 0.104246417491D-04 0.000000000000D+00  6 -1 1 25 23 21 21 4 0.78724697D-01 0.88841082D-02 0.26142922D+05 0.26142922D+05 0.26142922D+05 0.12212217D+01  1  2  5  2  6  2        1 -.271460366023D+02 0.100000000000D+01
0.970330972023D-01 0.000000000000D+00 0.274429214456D-05 0.104246417491D-04 0.000000000000D+00  6 -1 1 25 23 21 21 4 0.78724697D-01 0.81651013D-02 0.26142922D+05 0.26142922D+05 0.26142922D+05 0.12212217D+01  1  2  6  2  6  2        1 0.302974633467D+02 0.100000000000D+01
0.966331603686D-01 0.000000000000D+00 0.000000000000D+00 0.104246417491D-04 0.377091236628D-02  6 -1 1 25 23 21 21 4 0.78724791D-01 0.88841031D-02 0.26160054D+05 0.26160054D+05 0.26160054D+05 0.12211913D+01  1  2 11  2  6  2        1 0.269357472781D+02 0.100000000000D+01
-.136376509881D-02 0.000000000000D+00 -.385703165919D-07 0.104246417491D-04 0.000000000000D+00  6 -1 21 25 23 -1 21 4 0.78724697D-01 0.88841082D-02 0.26142922D+05 0.26142922D+05 0.26142922D+05 0.12212217D+01  3  4  5  5  5  2        1 -.478142284904D+01 0.100000000000D+01
0.136429902598D-02 0.000000000000D+00 0.000000000000D+00 0.104246417491D-04 0.106477978679D-03  6 -1 21 25 23 -1 21 4 0.78724791D-01 0.88841031D-02 0.26160054D+05 0.26160054D+05 0.26160054D+05 0.12211913D+01  3  4 11  5  5  2        1 0.478280015966D+01 0.100000000000D+01
  </mgrwgt>
  </event>
  <event>
  6     66 0.44820762E-03 0.70604376E+02 0.75467711E-02 0.11079227E+00
       21 -1    0    0  503  501 0.00000000E+00 0.00000000E+00 0.19216443E+03 0.19216590E+03 0.75000000E+00 0.0000E+00 0.9000E+01
        1 -1    0    0  502    0 0.00000000E+00 0.00000000E+00 -.65393911E+03 0.65393918E+03 0.32000000E+00 0.0000E+00 0.9000E+01
       25  1    1    2    0    0 -.52530298E+01 -.40705798E+02 -.17470297E+03 0.21870227E+03 0.12500000E+03 0.0000E+00 0.9000E+01
       23  1    1    2    0    0 -.94176727E+02 0.72167341E+02 -.30250608E+03 0.33749454E+03 0.91188000E+02 0.0000E+00 0.9000E+01
        1  1    1    2  503    0 0.97965303E+02 0.78928100E+02 0.91740453E+02 0.15570247E+03 0.32000000E+00 0.0000E+00 0.9000E+01
       21  1    1    2  502  501 0.14644543E+01 -.11038964E+03 -.76306077E+02 0.13420580E+03 0.75000000E+00 0.0000E+00 0.9000E+01
#aMCatNLO 2  0  0  1  5 0.69882762D+00 0.00000000D+00  -5  6  0 0.00000000D+00 0.00000000D+00 0.00000000D+00 0.00000000D+00 0.00000000D+00
  <mgrwgt>
 0.2816263254D-01    1    2    0
 0.196500587774144D+03 0.000000000000000D+00 0.000000000000000D+00 0.196500587774144D+03
 0.196500587774144D+03 0.000000000000000D+00 0.000000000000000D+00 -.196500587774144D+03
 0.128662169139894D+03 0.263905406893724D+02 -.152104888930142D+02 0.106496832858383D+01
 0.157851261113333D+03 -.556619110572700D+02 0.103198839145798D+03 -.534183540319403D+02
 0.000000000000000D+00 0.000000000000000D+00 0.000000000000000D+00 0.000000000000000D+00
 0.106487745295060D+03 0.292713703678976D+02 -.879883502527840D+02 0.523533857033565D+02
 0.579280061742397D+03 0.000000000000000D+00 0.000000000000000D+00 0.579280061742397D+03
 0.216932056564196D+03 0.000000000000000D+00 0.000000000000000D+00 -.216932056564196D+03
 0.131569872676141D+03 -.525322312384240D+01 -.407050474178109D+02 0.106496832858383D+01
 0.158890996497905D+03 -.941772188555306D+02 0.721680561277160D+02 -.534183540319403D+02
 0.383566059953737D+03 0.979653028444501D+02 0.789280997516562D+02 0.362348005178201D+03
 0.122185189178809D+03 0.146513913492284D+01 -.110391108461561D+03 0.523533857033565D+02
0.391381252211D-04 0.000000000000D+00 0.000000000000D+00 0.194851951279D-05 0.296292689571D-09  6 21 1 25 23 1 21 4 0.29563869D-01 0.10060611D+00 0.66929187D+05 0.66929187D+05 0.66929187D+05 0.11799393D+01  1  2  1  4  5  1       -1 0.281626325363D-01 0.100000000000D+01
  </mgrwgt>
  </event>
  <event>
  5     66 0.44820762E-03 0.37393339E+02 0.75467711E-02 0.11412903E+00
       -1 -1    0    0    0  501 0.00000000E+00 0.00000000E+00 0.61997994E+02 0.61998820E+02 0.32000000E+00 0.0000E+00 0.9000E+01
        1 -1    0    0  502    0 0.00000000E+00 0.00000000E+00 -.62343648E+03 0.62343656E+03 0.32000000E+00 0.0000E+00 0.9000E+01
       25  1    1    2    0    0 0.12046112E+03 -.31206657E+02 -.29444439E+03 0.34323059E+03 0.12500000E+03 0.0000E+00 0.9000E+01
       23  1    1    2    0    0 -.14521043E+03 0.31836568E+01 -.18601244E+03 0.25300610E+03 0.91188000E+02 0.0000E+00 0.9000E+01
       21  1    1    2  502  501 0.24749312E+02 0.28023000E+02 -.80981653E+02 0.89198697E+02 0.75000000E+00 0.0000E+00 0.9000E+01
#aMCatNLO 1  0  0  2  5 0.33926597D+02 0.00000000D+00  -5  6  0 0.00000000D+00 0.00000000D+00 0.00000000D+00 0.00000000D+00 0.00000000D+00
  <mgrwgt>
 0.8167128245D-01    7    4    0
 0.196601430653907D+03 0.000000000000000D+00 0.000000000000000D+00 0.196601430653907D+03
 0.196601430653907D+03 0.000000000000000D+00 0.000000000000000D+00 -.196601430653907D+03
 0.177896840236888D+03 0.120459138401102D+03 -.312089013200688D+02 -.231923741847844D+02
 0.175445056950962D+03 -.145212387679617D+03 0.318144297122526D+01 0.369994263405740D+02
 0.398609641199652D+02 0.247532492785148D+02 0.280274583488436D+02 -.138070521557896D+02
 0.000000000000000D+00 0.000000000000000D+00 0.000000000000000D+00 -.000000000000000D+00
 0.209819767644890D+03 0.000000000000000D+00 0.000000000000000D+00 0.209819767644890D+03
 0.220374525111228D+03 0.000000000000000D+00 0.000000000000000D+00 -.220374525111228D+03
 0.168480336238572D+03 0.105616317376951D+03 -.326792133085588D+02 -.231923741847844D+02
 0.188538144470001D+03 -.160809655286745D+03 0.163639641214250D+01 0.369994263405740D+02
 0.376453054843309D+02 0.214319805399329D+02 0.276984574644842D+02 -.138070521557896D+02
 0.355305065632147D+02 0.337613573698613D+02 0.334435943193215D+01 -.105547574663372D+02
 0.196601430653907D+03 0.000000000000000D+00 0.000000000000000D+00 0.196601430653907D+03
 0.196601430653907D+03 0.000000000000000D+00 0.000000000000000D+00 -.196601430653907D+03
 0.177896840236888D+03 0.120459138401102D+03 -.312089013200688D+02 -.231923741847844D+02
 0.175445056950962D+03 -.145212387679617D+03 0.318144297122526D+01 0.369994263405740D+02
 0.000000000000000D+00 0.000000000000000D+00 0.000000000000000D+00 -.000000000000000D+00
 0.398609641199652D+02 0.247532492785148D+02 0.280274583488436D+02 -.138070521557896D+02
 0.209819767644890D+03 0.000000000000000D+00 0.000000000000000D+00 0.209819767644890D+03
 0.220374525111228D+03 0.000000000000000D+00 0.000000000000000D+00 -.220374525111228D+03
 0.168480336238572D+03 0.105616317376951D+03 -.326792133085588D+02 -.231923741847844D+02
 0.188538144470001D+03 -.160809655286745D+03 0.163639641214250D+01 0.369994263405740D+02
 0.355305065632147D+02 0.337613573698613D+02 0.334435943193215D+01 -.105547574663372D+02
 0.376453054843309D+02 0.214319805399329D+02 0.276984574644842D+02 -.138070521557896D+02
0.902443627481D-04 0.000000000000D+00 0.000000000000D+00 0.850231272873D-05 0.000000000000D+00  6 -1 1 25 23 21 21 2 0.95382228D-02 0.95913375D-01 0.37108476D+05 0.37108476D+05 0.37108476D+05 0.12053236D+01  1  2  2  2  6  2        1 0.284275055843D-01 0.100000000000D+01
0.141285465688D-04 0.476232585973D-05 -.346562114839D-06 0.850231272873D-05 0.000000000000D+00  6 -1 1 25 23 21 21 4 0.95382228D-02 0.95913375D-01 0.37108476D+05 0.37108476D+05 0.37108476D+05 0.12053236D+01  1  2  3  2  6  2        1 0.646581779184D-02 0.100000000000D+01
0.141967246240D-05 0.000000000000D+00 0.000000000000D+00 0.850231272873D-05 0.000000000000D+00  6 -1 1 25 23 21 21 4 0.95382228D-02 0.95913375D-01 0.37108476D+05 0.37108476D+05 0.37108476D+05 0.12053236D+01  1  2 15  2  6  2        1 0.649701894053D-03 0.100000000000D+01
-.217103752479D-04 0.000000000000D+00 0.000000000000D+00 0.850231272873D-05 0.000000000000D+00  6 -1 1 25 23 21 21 4 0.95382228D-02 0.95913375D-01 0.37108476D+05 0.37108476D+05 0.37108476D+05 0.12053236D+01  1  2  4  2  6  2        1 -.993558182803D-02 0.100000000000D+01
-.615389214276D-03 0.000000000000D+00 -.144714881671D-03 0.850231272873D-05 0.000000000000D+00  6 -1 1 25 23 21 21 4 0.95382228D-02 0.11293659D+00 0.37108476D+05 0.37108476D+05 0.37108476D+05 0.12053236D+01  1  2  5  2  6  2        1 -.222884148486D+00 0.100000000000D+01
0.632482755640D-03 0.000000000000D+00 0.142804668834D-03 0.850231272873D-05 0.000000000000D+00  6 -1 1 25 23 21 21 4 0.95382228D-02 0.95913375D-01 0.37108476D+05 0.37108476D+05 0.37108476D+05 0.12053236D+01  1  2  6  2  6  2        1 0.289450739646D+00 0.100000000000D+01
-.138648899562D-04 0.000000000000D+00 -.353561341227D-05 0.850231272873D-05 0.000000000000D+00  6 -1 21 25 23 -1 21 4 0.95382228D-02 0.11293659D+00 0.37108476D+05 0.37108476D+05 0.37108476D+05 0.12053236D+01  3  4  5  5  5  2        1 -.105027521518D-01 0.100000000000D+01
  </mgrwgt>
  </event>
  <event>
  6     66 -.44820762E-03 0.96578485E+01 0.75467711E-02 0.12280802E+00
       -1 -1    0    0    0  501 0.00000000E+00 0.00000000E+00 0.47161530E+02 0.47162615E+02 0.32000000E+00 0.0000E+00 0.9000E+01
        1 -1    0    0  502    0 -.00000000E+00 -.00000000E+00 -.41256323E+03 0.41256336E+03 0.32000000E+00 0.0000E+00 0.9000E+01
       25  1    1    2    0    0 -.39968064E+02 0.25186059E+02 -.21882859E+03 0.25640346E+03 0.12500000E+03 0.0000E+00 0.9000E+01
       23  1    1    2    0    0 0.19321414E+02 -.26551250E+02 -.69229765E+02 0.11910624E+03 0.91188000E+02 0.0000E+00 0.9000E+01
       21  1    1    2  502  503 0.87574771E+01 0.13559391E+02 -.41154541E+02 0.44213224E+02 0.75000000E+00 0.0000E+00 0.9000E+01
       21  1    1    2  503  501 0.11889173E+02 -.12194200E+02 -.36188810E+02 0.40003043E+02 0.75000000E+00 0.0000E+00 0.9000E+01
#aMCatNLO 2  0  0  5  1 0.13025109D+02 0.00000000D+00  -5  6  0 0.00000000D+00 0.00000000D+00 0.00000000D+00 0.00000000D+00 0.00000000D+00
  <mgrwgt>
 -.1250072919D+00    2    2    0
 0.139489753073858D+03 0.000000000000000D+00 0.000000000000000D+00 0.139489753073858D+03
 0.139489753073858D+03 -.000000000000000D+00 -.000000000000000D+00 -.139489753073858D+03
 0.136535853316886D+03 -.440223134667359D+02 0.249179850024233D+02 -.214048868585099D+02
 0.106190472723656D+03 0.161697628202781D+02 -.267596419636709D+02 0.445379106558168D+02
 0.362531801071738D+02 0.278525506464579D+02 0.184165696124763D+01 -.231330237973069D+02
 0.000000000000000D+00 0.000000000000000D+00 0.000000000000000D+00 0.000000000000000D+00
 0.139489753073858D+03 0.000000000000000D+00 0.000000000000000D+00 0.139489753073858D+03
 0.139489753073858D+03 -.000000000000000D+00 -.000000000000000D+00 -.139489753073858D+03
 0.135908567889393D+03 -.399876583391330D+02 0.251847631081810D+02 -.247558824016285D+02
 0.105600067318702D+03 0.193061889015180D+02 -.265522562560108D+02 0.419329420805225D+02
 0.182713587487498D+02 0.804775146530555D+01 0.135010382817670D+02 -.931655581169623D+01
 0.191995121908704D+02 0.126337179723096D+02 -.121335451339372D+02 -.786050386719782D+01
-.517814081591D-04 0.000000000000D+00 0.000000000000D+00 0.219292503641D-04 0.000000000000D+00  6 -1 1 25 23 21 21 4 0.72557130D-02 0.63471360D-01 0.17395858D+05 0.17395858D+05 0.17395858D+05 0.12405521D+01  1  2 13  3  6  5       21 -.684171696423D-01 0.100000000000D+01
-.428301292787D-04 0.000000000000D+00 0.000000000000D+00 0.219292503641D-04 0.000000000000D+00  6 -1 1 25 23 21 21 4 0.72557130D-02 0.63471360D-01 0.17395858D+05 0.17395858D+05 0.17395858D+05 0.12405521D+01  1  2 13  3  6  5       21 -.565901223014D-01 0.100000000000D+01
  </mgrwgt>
  </event>
  <event>
  6     66 0.44820762E-03 0.17268428E+02 0.75467711E-02 0.11742155E+00
       -1 -1    0    0    0  501 0.00000000E+00 0.00000000E+00 0.27020291E+03 0.27020310E+03 0.32000000E+00 0.0000E+00 0.9000E+01
        1 -1    0    0  502    0 -.00000000E+00 -.00000000E+00 -.91690878E+03 0.91690884E+03 0.32000000E+00 0.0000E+00 0.9000E+01
       25  1    1    2    0    0 -.97498830E+02 -.64477912E+02 0.98961320E+02 0.19769109E+03 0.12500000E+03 0.0000E+00 0.9000E+01
       23  1    1    2    0    0 0.88684822E+02 0.80166186E+02 0.75221559E+02 0.16812242E+03 0.91188000E+02 0.0000E+00 0.9000E+01
        3  1    1    2  502    0 0.40597856E+01 0.38250737E+01 -.13644451E+03 0.13655939E+03 0.50000000E+00 0.0000E+00 0.9000E+01
       -3  1    1    2    0  501 0.47542229E+01 -.19513348E+02 -.68444424E+03 0.68473903E+03 0.50000000E+00 0.0000E+00 0.9000E+01
#aMCatNLO 2  0  0  5  2 0.98267326D+01 0.00000000D+00  -5  6  0 0.00000000D+00 0.00000000D+00 0.00000000D+00 0.00000000D+00 0.00000000D+00
  <mgrwgt>
 0.4795135171D+00    1    2    0
 0.497746486563813D+03 0.000000000000000D+00 0.000000000000000D+00 0.497746486563813D+03
 0.497746486563813D+03 -.000000000000000D+00 -.000000000000000D+00 -.497746486563813D+03
 0.300129260631083D+03 -.975011630766471D+02 -.644737593667155D+02 0.246554721388142D+03
 0.249428762110089D+03 0.886828830176161D+02 0.801696369466186D+02 0.199016661602245D+03
 0.445934950386454D+03 0.881828005903115D+01 -.156958775799033D+02 -.445571382990387D+03
 0.000000000000000D+00 0.000000000000000D+00 -.000000000000000D+00 0.000000000000000D+00
 0.497746486563813D+03 0.000000000000000D+00 0.000000000000000D+00 0.497746486563813D+03
 0.497746486563813D+03 -.000000000000000D+00 -.000000000000000D+00 -.497746486563813D+03
 0.300034682467142D+03 -.974988812221813D+02 -.644778208966410D+02 0.246439423502009D+03
 0.249351903386409D+03 0.886847794075977D+02 0.801662615145847D+02 0.198920840523627D+03
 0.744895000633617D+02 0.404765838068370D+01 0.377065257028387D+01 -.742838088719005D+02
 0.371616887210712D+03 0.476644343389994D+01 -.194590931882277D+02 -.371076455153736D+03
0.198636087240D-01 0.000000000000D+00 0.000000000000D+00 0.193569362213D-03 0.557556250227D-06  6 -1 1 25 23 3 -3 4 0.41569697D-01 0.14106291D+00 0.30112768D+05 0.30112768D+05 0.30112768D+05 0.12147274D+01  1  2  1  8  6  5       21 0.479513517058D+00 0.100000000000D+01
  </mgrwgt>
  </event>
  <event>
  6     66 -.44820762E-03 0.54213799E+01 0.75467711E-02 0.12257583E+00
       -1 -1    0    0    0  501 0.00000000E+00 0.00000000E+00 0.36276926E+02 0.36278338E+02 0.32000000E+00 0.0000E+00 0.9000E+01
        1 -1    0    0  502    0 -.00000000E+00 -.00000000E+00 -.80054031E+03 0.80054038E+03 0.32000000E+00 0.0000E+00 0.9000E+01
       25  1    1    2    0    0 0.43723830E+01 -.49605868E+02 -.13363457E+03 0.18963928E+03 0.12500000E+03 0.0000E+00 0.9000E+01
       23  1    1    2    0    0 0.12810154E+02 0.48197612E+02 -.42920812E+03 0.44161292E+03 0.91188000E+02 0.0000E+00 0.9000E+01
       21  1    1    2  502  503 -.83622311E+01 0.69702643E+01 -.18907226E+03 0.18938689E+03 0.75000000E+00 0.0000E+00 0.9000E+01
       21  1    1    2  503  501 -.88203058E+01 -.55620086E+01 -.12348433E+02 0.16179618E+02 0.75000000E+00 0.0000E+00 0.9000E+01
#aMCatNLO 2  0  0  5  1 0.12237310D+02 0.00000000D+00  -5  6  0 0.00000000D+00 0.00000000D+00 0.00000000D+00 0.00000000D+00 0.00000000D+00
  <mgrwgt>
 -.9996511577D-01    2    2    0
 0.170416429169028D+03 0.000000000000000D+00 0.000000000000000D+00 0.170416429169028D+03
 0.170416429169028D+03 -.000000000000000D+00 -.000000000000000D+00 -.170416429169028D+03
 0.170275628140202D+03 0.788833188718177D+01 -.498940301266529D+02 0.104005526373836D+03
 0.119539837766101D+03 0.153341204177963D+02 0.479907518072338D+02 -.586197403707562D+02
 0.510173924317529D+02 -.232224523049781D+02 0.190327831941915D+01 -.453857860030795D+02
 0.000000000000000D+00 0.000000000000000D+00 0.000000000000000D+00 0.000000000000000D+00
 0.170416429169028D+03 0.000000000000000D+00 0.000000000000000D+00 0.170416429169028D+03
 0.170416429169028D+03 -.000000000000000D+00 -.000000000000000D+00 -.170416429169028D+03
 0.165866970220368D+03 0.430166657353711D+01 -.496000722689374D+02 0.969957746795735D+02
 0.121874048875704D+03 0.127582171622336D+02 0.482018690809329D+02 -.636540663061160D+02
 0.407730536458118D+02 -.794769775185441D+01 0.710462722812231D+01 -.393547999105425D+02
 0.123187855961729D+02 -.911218598391628D+01 -.570642404011777D+01 0.601309153708497D+01
-.108756355265D-03 0.000000000000D+00 0.000000000000D+00 0.218479293978D-04 0.000000000000D+00  6 -1 1 25 23 21 21 4 0.55811791D-02 0.12316016D+00 0.16885922D+05 0.16885922D+05 0.16885922D+05 0.12420013D+01  1  2 13  3  6  5       21 -.867865098531D-01 0.100000000000D+01
-.165572748457D-04 0.000000000000D+00 0.000000000000D+00 0.218162885828D-04 0.000000000000D+00  6 -1 1 25 23 21 21 4 0.55811791D-02 0.12316016D+00 0.17200482D+05 0.17200482D+05 0.17200482D+05 0.12411017D+01  1  2  8  3  6  5       21 -.131786059166D-01 0.100000000000D+01
  </mgrwgt>
  </event>
  <event>
  6     66 0.44820762E-03 0.20050936E+02 0.75467711E-02 0.11965673E+00
       -1 -1    0    0    0  501 0.00000000E+00 0.00000000E+00 0.73586308E+03 0.73586315E+03 0.32000000E+00 0.0000E+00 0.9000E+01
        1 -1    0    0  502    0 0.00000000E+00 0.00000000E+00 -.38994629E+02 0.38995942E+02 0.32000000E+00 0.0000E+00 0.9000E+01
       25  1    1    2    0    0 0.51475986E+02 0.54684258E+02 0.47247276E+03 0.49446502E+03 0.12500000E+03 0.0000E+00 0.9000E+01
       23  1    1    2    0    0 -.79332834E+02 -.55279897E+02 0.17431437E+03 0.21920382E+03 0.91188000E+02 0.0000E+00 0.9000E+01
       21  1    1    2  503  501 0.23001901E+02 0.74625568E+00 0.19375192E+02 0.30093271E+02 0.75000000E+00 0.0000E+00 0.9000E+01
       21  1    1    2  502  503 0.48549466E+01 -.15061684E+00 0.30706135E+02 0.31096984E+02 0.75000000E+00 0.0000E+00 0.9000E+01
#aMCatNLO 2  0  0  5  1 0.79020397D+01 0.00000000D+00  -5  6  0 0.00000000D+00 0.00000000D+00 0.00000000D+00 0.00000000D+00 0.00000000D+00
  <mgrwgt>
 0.6207199980D-01    4    2    0
 0.169396704430652D+03 0.000000000000000D+00 0.000000000000000D+00 0.169396704430652D+03
 0.169396704430652D+03 -.000000000000000D+00 -.000000000000000D+00 -.169396704430652D+03
 0.158587485053036D+03 0.484664810251987D+02 0.546199082489846D+02 0.647507239755161D+02
 0.143948271675666D+03 -.820495166567140D+02 -.553379851980478D+02 -.511022287677529D+02
 0.362576521326013D+02 0.335830356315152D+02 0.718076949063220D+00 -.136484952077632D+02
 0.000000000000000D+00 0.000000000000000D+00 0.000000000000000D+00 0.000000000000000D+00
 0.169396704430652D+03 0.000000000000000D+00 0.000000000000000D+00 0.169396704430652D+03
 0.169396704430652D+03 -.000000000000000D+00 -.000000000000000D+00 -.169396704430652D+03
 0.159075559889481D+03 0.515528103425365D+02 0.546859005542757D+02 0.634964076189050D+02
 0.142766046223560D+03 -.792638769069186D+02 -.552784222772127D+02 -.522343417545836D+02
 0.287200321054003D+02 0.225968671712221D+02 0.746528107820100D+00 -.177105768953358D+02
 0.823177064286280D+01 0.511419939315996D+01 -.154006384883123D+00 0.644851103101447D+01
-.595432505324D-04 0.000000000000D+00 0.000000000000D+00 0.109802564965D-04 0.000000000000D+00  6 -1 1 25 23 21 21 4 0.11320981D+00 0.59992800D-02 0.23477363D+05 0.23477363D+05 0.23477363D+05 0.12262344D+01  1  2 13  3  6  5       21 -.130362001246D-01 0.100000000000D+01
-.533259542772D-04 0.000000000000D+00 0.000000000000D+00 0.109802564965D-04 0.000000000000D+00  6 -1 1 25 23 21 21 4 0.11320981D+00 0.59992800D-02 0.23477363D+05 0.23477363D+05 0.23477363D+05 0.12262344D+01  1  2 13  3  6  5       21 -.116750060768D-01 0.100000000000D+01
-.145543020466D-03 0.000000000000D+00 0.000000000000D+00 0.109451986458D-04 0.000000000000D+00  6 -1 1 25 23 21 21 4 0.11320981D+00 0.59992800D-02 0.24481196D+05 0.24481196D+05 0.24481196D+05 0.12242753D+01  1  2  8  3  6  5       21 -.316788637696D-01 0.100000000000D+01
0.541079197271D-03 0.000000000000D+00 0.000000000000D+00 0.109451986458D-04 0.499574721817D-05  6 -1 1 25 23 21 21 4 0.11320981D+00 0.59992800D-02 0.23477363D+05 0.23477363D+05 0.23477363D+05 0.12262344D+01  1  2  1  3  6  5       21 0.118462069770D+00 0.100000000000D+01
  </mgrwgt>
  </event>
  <event>
  5     66 0.44820762E-03 0.22098274E+02 0.75467711E-02 0.12356508E+00
       -1 -1    0    0    0  501 0.00000000E+00 0.00000000E+00 0.33288866E+02 0.33290404E+02 0.32000000E+00 0.0000E+00 0.9000E+01
        1 -1    0    0  502    0 -.00000000E+00 -.00000000E+00 -.59779999E+03 0.59780007E+03 0.32000000E+00 0.0000E+00 0.9000E+01
       25  1    1    2    0    0 0.20286621E+02 -.32247967E+02 -.22579950E+03 0.26088674E+03 0.12500000E+03 0.0000E+00 0.9000E+01
       23  1    1    2    0    0 0.15681294E+01 0.28989858E+02 -.13602997E+03 0.16631980E+03 0.91188000E+02 0.0000E+00 0.9000E+01
       21  1    1    2  502  501 -.21854750E+02 0.32581083E+01 -.20268165E+03 0.20388393E+03 0.75000000E+00 0.0000E+00 0.9000E+01
#aMCatNLO 1  0  0  5  1 0.68780520D+01 0.00000000D+00  -5  6  0 0.00000000D+00 0.00000000D+00 0.00000000D+00 0.00000000D+00 0.00000000D+00
  <mgrwgt>
 0.2715539806D+00   25    2    0
 0.141069471683898D+03 0.000000000000000D+00 0.000000000000000D+00 0.141069471683898D+03
 0.141069471683898D+03 -.000000000000000D+00 -.000000000000000D+00 -.141069471683898D+03
 0.131768250612796D+03 0.202877457135589D+02 -.322481344153958D+02 0.169214972784678D+02
 0.998534442538659D+02 0.156898196643108D+01 0.289897313256599D+02 0.285060126747845D+02
 0.505172485011336D+02 -.218567276799900D+02 0.325840308973588D+01 -.454275099532524D+02
 0.000000000000000D+00 -.000000000000000D+00 0.000000000000000D+00 0.000000000000000D+00
 0.141069471683898D+03 0.000000000000000D+00 0.000000000000000D+00 0.141069471683898D+03
 0.141069471683898D+03 -.000000000000000D+00 -.000000000000000D+00 -.141069471683898D+03
 0.131545653554658D+03 0.197904965154691D+02 -.321740044565499D+02 0.158880034624585D+02
 0.996438724413498D+02 0.119224576231225D+01 0.290458951956358D+02 0.277229957514403D+02
 0.139973796901660D+02 0.882901957424643D+00 0.186156455276153D+00 -.139682664671893D+02
 0.369520376816224D+02 -.218656442352060D+02 0.294195280563796D+01 -.296427327467095D+02
0.121183089665D-03 0.000000000000D+00 0.000000000000D+00 0.426636885955D-04 0.000000000000D+00  6 -1 1 25 23 21 21 2 0.51214888D-02 0.91969354D-01 0.15434776D+05 0.15434776D+05 0.15434776D+05 0.12464104D+01  1  2  2  3  6  5       21 0.108422811994D+00 0.100000000000D+01
0.154331369978D-04 0.639500733452D-05 -.465374972553D-06 0.426636885955D-04 0.000000000000D+00  6 -1 1 25 23 21 21 4 0.51214888D-02 0.91969354D-01 0.15434776D+05 0.15434776D+05 0.15434776D+05 0.12464104D+01  1  2  3  3  6  5       21 0.214513664063D-01 0.100000000000D+01
0.325574150921D-05 0.000000000000D+00 0.000000000000D+00 0.426636885955D-04 0.000000000000D+00  6 -1 1 25 23 21 21 4 0.51214888D-02 0.91969354D-01 0.15434776D+05 0.15434776D+05 0.15434776D+05 0.12464104D+01  1  2 15  3  6  5       21 0.452533428869D-02 0.100000000000D+01
0.330392079329D-04 0.000000000000D+00 0.000000000000D+00 0.426424259153D-04 0.000000000000D+00  6 -1 1 25 23 21 21 4 0.51214888D-02 0.91969354D-01 0.15532299D+05 0.15532299D+05 0.15532299D+05 0.12460997D+01  1  2 12  3  6  5       21 0.458852712531D-01 0.100000000000D+01
0.237049697294D-04 0.000000000000D+00 0.000000000000D+00 0.426424259153D-04 0.000000000000D+00  6 -1 1 25 23 21 21 4 0.51214888D-02 0.91969354D-01 0.15532299D+05 0.15532299D+05 0.15532299D+05 0.12460997D+01  1  2 12  3  6  5       21 0.329217627823D-01 0.100000000000D+01
-.190201757724D-03 0.000000000000D+00 0.000000000000D+00 0.426636885955D-04 0.000000000000D+00  6 -1 1 25 23 21 21 4 0.51214888D-02 0.91969354D-01 0.15434776D+05 0.15434776D+05 0.15434776D+05 0.12464104D+01  1  2  4  3  6  5       21 -.264371889956D+00 0.100000000000D+01
-.646373268942D-04 0.000000000000D+00 0.000000000000D+00 0.426636885955D-04 0.000000000000D+00  6 -1 1 25 23 21 21 4 0.51214888D-02 0.91969354D-01 0.15434776D+05 0.15434776D+05 0.15434776D+05 0.12464104D+01  1  2  5  3  6  5       21 -.898429776737D-01 0.100000000000D+01
0.278685656084D-03 0.000000000000D+00 -.000000000000D+00 0.426636885955D-04 0.000000000000D+00  6 -1 1 25 23 21 21 4 0.51214888D-02 0.91969354D-01 0.15434776D+05 0.15434776D+05 0.15434776D+05 0.12464104D+01  1  2  6  3  6  5       21 0.387360529598D+00 0.100000000000D+01
0.750112030773D-06 0.000000000000D+00 0.000000000000D+00 0.426636885955D-04 0.179923896988D-03  6 -1 1 25 23 21 21 4 0.51214888D-02 0.91969354D-01 0.15532299D+05 0.15532299D+05 0.15532299D+05 0.12460997D+01  1  2 11  3  6  5       21 0.104176510745D-02 0.100000000000D+01
0.419476546985D-05 0.000000000000D+00 0.000000000000D+00 0.426424259153D-04 0.000000000000D+00  6 -1 1 25 23 1 -1 4 0.51214888D-02 0.91969354D-01 0.15532299D+05 0.15532299D+05 0.15532299D+05 0.12460997D+01  1  2 12  6  6  5       21 0.582574351716D-02 0.100000000000D+01
0.323674258768D-05 0.000000000000D+00 0.000000000000D+00 0.426424259153D-04 0.000000000000D+00  6 -1 1 25 23 1 -1 4 0.51214888D-02 0.91969354D-01 0.15532299D+05 0.15532299D+05 0.15532299D+05 0.12460997D+01  1  2 12  6  6  5       21 0.449522918085D-02 0.100000000000D+01
-.339262161452D-05 0.000000000000D+00 0.000000000000D+00 0.426636885955D-04 0.000000000000D+00  6 -1 1 25 23 1 -1 4 0.51214888D-02 0.91969354D-01 0.15434776D+05 0.15434776D+05 0.15434776D+05 0.12464104D+01  1  2  5  6  6  5       21 -.471559147963D-02 0.100000000000D+01
0.223493010201D-07 0.000000000000D+00 0.000000000000D+00 0.426636885955D-04 0.129136687397D-05  6 -1 1 25 23 1 -1 4 0.51214888D-02 0.91969354D-01 0.15532299D+05 0.15532299D+05 0.15532299D+05 0.12460997D+01  1  2 11  6  6  5       21 0.310389928749D-04 0.100000000000D+01
0.419476546985D-05 0.000000000000D+00 0.000000000000D+00 0.426424259153D-04 0.000000000000D+00  6 -1 1 25 23 2 -2 4 0.51214888D-02 0.91969354D-01 0.15532299D+05 0.15532299D+05 0.15532299D+05 0.12460997D+01  1  2 12  7  6  5       21 0.582574351716D-02 0.100000000000D+01
0.419476546985D-05 0.000000000000D+00 0.000000000000D+00 0.426424259153D-04 0.000000000000D+00  6 -1 1 25 23 4 -4 4 0.51214888D-02 0.91969354D-01 0.15532299D+05 0.15532299D+05 0.15532299D+05 0.12460997D+01  1  2 12  7  6  5       21 0.582574351716D-02 0.100000000000D+01
0.323674258768D-05 0.000000000000D+00 0.000000000000D+00 0.426424259153D-04 0.000000000000D+00  6 -1 1 25 23 2 -2 4 0.51214888D-02 0.91969354D-01 0.15532299D+05 0.15532299D+05 0.15532299D+05 0.12460997D+01  1  2 12  7  6  5       21 0.449522918085D-02 0.100000000000D+01
0.323674258768D-05 0.000000000000D+00 0.000000000000D+00 0.426424259153D-04 0.000000000000D+00  6 -1 1 25 23 4 -4 4 0.51214888D-02 0.91969354D-01 0.15532299D+05 0.15532299D+05 0.15532299D+05 0.12460997D+01  1  2 12  7  6  5       21 0.449522918085D-02 0.100000000000D+01
-.339262161452D-05 0.000000000000D+00 0.000000000000D+00 0.426636885955D-04 0.000000000000D+00  6 -1 1 25 23 2 -2 4 0.51214888D-02 0.91969354D-01 0.15434776D+05 0.15434776D+05 0.15434776D+05 0.12464104D+01  1  2  5  7  6  5       21 -.471559147963D-02 0.100000000000D+01
-.339262161452D-05 0.000000000000D+00 0.000000000000D+00 0.426636885955D-04 0.000000000000D+00  6 -1 1 25 23 4 -4 4 0.51214888D-02 0.91969354D-01 0.15434776D+05 0.15434776D+05 0.15434776D+05 0.12464104D+01  1  2  5  7  6  5       21 -.471559147963D-02 0.100000000000D+01
0.409396229348D-06 0.000000000000D+00 0.000000000000D+00 0.426636885955D-04 0.145331372838D-06  6 -1 1 25 23 2 -2 4 0.51214888D-02 0.91969354D-01 0.15532299D+05 0.15532299D+05 0.15532299D+05 0.12460997D+01  1  2 11  7  6  5       21 0.568574678660D-03 0.100000000000D+01
0.409396229348D-06 0.000000000000D+00 0.000000000000D+00 0.426636885955D-04 0.145331372838D-06  6 -1 1 25 23 4 -4 4 0.51214888D-02 0.91969354D-01 0.15532299D+05 0.15532299D+05 0.15532299D+05 0.12460997D+01  1  2 11  7  6  5       21 0.568574678660D-03 0.100000000000D+01
0.419476546985D-05 0.000000000000D+00 0.000000000000D+00 0.426424259153D-04 0.000000000000D+00  6 -1 1 25 23 3 -3 4 0.51214888D-02 0.91969354D-01 0.15532299D+05 0.15532299D+05 0.15532299D+05 0.12460997D+01  1  2 12  8  6  5       21 0.582574351716D-02 0.100000000000D+01
0.323674258768D-05 0.000000000000D+00 0.000000000000D+00 0.426424259153D-04 0.000000000000D+00  6 -1 1 25 23 3 -3 4 0.51214888D-02 0.91969354D-01 0.15532299D+05 0.15532299D+05 0.15532299D+05 0.12460997D+01  1  2 12  8  6  5       21 0.449522918085D-02 0.100000000000D+01
-.339262161452D-05 0.000000000000D+00 0.000000000000D+00 0.426636885955D-04 0.000000000000D+00  6 -1 1 25 23 3 -3 4 0.51214888D-02 0.91969354D-01 0.15434776D+05 0.15434776D+05 0.15434776D+05 0.12464104D+01  1  2  5  8  6  5       21 -.471559147963D-02 0.100000000000D+01
0.410633916055D-06 0.000000000000D+00 0.000000000000D+00 0.426636885955D-04 0.145770738654D-06  6 -1 1 25 23 3 -3 4 0.51214888D-02 0.91969354D-01 0.15532299D+05 0.15532299D+05 0.15532299D+05 0.12460997D+01  1  2 11  8  6  5       21 0.570293593665D-03 0.100000000000D+01
  </mgrwgt>
  </event>
  <event>
  5     66 -.44820762E-03 0.20243301E+02 0.75467711E-02 0.12107563E+00
       -1 -1    0    0    0  501 0.00000000E+00 0.00000000E+00 0.46396214E+02 0.46397317E+02 0.32000000E+00 0.0000E+00 0.9000E+01
        1 -1    0    0  502    0 0.00000000E+00 0.00000000E+00 -.55945983E+03 0.55945992E+03 0.32000000E+00 0.0000E+00 0.9000E+01
       25  1    1    2    0    0 -.36141217E+02 -.52269275E+02 -.11124720E+03 0.17899498E+03 0.12500000E+03 0.0000E+00 0.9000E+01
       23  1    1    2    0    0 0.51960273E+02 0.64881644E+02 -.35584408E+03 0.37662947E+03 0.91188000E+02 0.0000E+00 0.9000E+01
       21  1    1    2  502  501 -.15819056E+02 -.12612368E+02 -.45972335E+02 0.50232782E+02 0.75000000E+00 0.0000E+00 0.9000E+01
#aMCatNLO 1  0  0  1  5 0.46109541D+01 0.00000000D+00  -5  6  0 0.00000000D+00 0.00000000D+00 0.00000000D+00 0.00000000D+00 0.00000000D+00
  <mgrwgt>
 -.1148824052D+01    9    4    0
 0.161112320489471D+03 0.000000000000000D+00 0.000000000000000D+00 0.161112320489471D+03
 0.161112320489471D+03 0.000000000000000D+00 0.000000000000000D+00 -.161112320489471D+03
 0.159416901241621D+03 -.361363380446423D+02 -.522653851811824D+02 0.758369500050391D+02
 0.141558957404222D+03 0.519646061677645D+02 0.648850979585932D+02 -.693778844164572D+02
 0.212487823330985D+02 -.158282681231222D+02 -.126197127774108D+02 -.645906558858192D+01
 0.000000000000000D+00 -.000000000000000D+00 -.000000000000000D+00 0.000000000000000D+00
 0.178461813216698D+03 0.000000000000000D+00 0.000000000000000D+00 0.178461813216698D+03
 0.161435468543708D+03 0.000000000000000D+00 0.000000000000000D+00 -.161435468543708D+03
 0.158827017432005D+03 -.338771791081902D+02 -.519818739172738D+02 0.758369500050391D+02
 0.142426876695339D+03 0.539805728439095D+02 0.651380900129057D+02 -.693778844164572D+02
 0.210037359640009D+02 -.155283247504528D+02 -.125820716343666D+02 -.645906558858192D+01
 0.176396516690605D+02 -.457506898526645D+01 -.574144461265215D+00 0.170263446729896D+02
 0.161112320489471D+03 0.000000000000000D+00 0.000000000000000D+00 0.161112320489471D+03
 0.161112320489471D+03 0.000000000000000D+00 0.000000000000000D+00 -.161112320489471D+03
 0.159416901241621D+03 -.361363380446423D+02 -.522653851811824D+02 0.758369500050391D+02
 0.141558957404222D+03 0.519646061677645D+02 0.648850979585932D+02 -.693778844164572D+02
 0.000000000000000D+00 -.000000000000000D+00 -.000000000000000D+00 0.000000000000000D+00
 0.212487823330985D+02 -.158282681231222D+02 -.126197127774108D+02 -.645906558858192D+01
 0.178461813216698D+03 0.000000000000000D+00 0.000000000000000D+00 0.178461813216698D+03
 0.161435468543708D+03 0.000000000000000D+00 0.000000000000000D+00 -.161435468543708D+03
 0.158827017432005D+03 -.338771791081902D+02 -.519818739172738D+02 0.758369500050391D+02
 0.142426876695339D+03 0.539805728439095D+02 0.651380900129057D+02 -.693778844164572D+02
 0.176396516690605D+02 -.457506898526645D+01 -.574144461265215D+00 0.170263446729896D+02
 0.210037359640009D+02 -.155283247504528D+02 -.125820716343666D+02 -.645906558858192D+01
0.207536410020D-04 0.000000000000D+00 0.000000000000D+00 0.278072318742D-04 0.000000000000D+00  6 -1 1 25 23 21 21 2 0.71379709D-02 0.86070835D-01 0.20143927D+05 0.20143927D+05 0.20143927D+05 0.12334834D+01  1  2  2  1  6  1       -1 0.122063930331D-01 0.100000000000D+01
0.521742521952D-05 0.109519972459D-05 -.796994460070D-07 0.278072318742D-04 0.000000000000D+00  6 -1 1 25 23 21 21 4 0.71379709D-02 0.86070835D-01 0.20143927D+05 0.20143927D+05 0.20143927D+05 0.12334834D+01  1  2  3  1  6  1       -1 0.466891392701D-02 0.100000000000D+01
0.288526430026D-06 0.000000000000D+00 0.000000000000D+00 0.278072318742D-04 0.000000000000D+00  6 -1 1 25 23 21 21 4 0.71379709D-02 0.86070835D-01 0.20143927D+05 0.20143927D+05 0.20143927D+05 0.12334834D+01  1  2 15  1  6  1       -1 0.258193459567D-03 0.100000000000D+01
0.317987072077D-03 0.000000000000D+00 0.000000000000D+00 0.277370108147D-04 0.000000000000D+00  6 -1 1 25 23 21 21 4 0.79923770D-02 0.86070835D-01 0.20813247D+05 0.20813247D+05 0.20813247D+05 0.12319249D+01  1  2 12  1  6  1       -1 0.238939588499D+00 0.100000000000D+01
-.151552141124D-02 0.000000000000D+00 0.000000000000D+00 0.278072318742D-04 0.000000000000D+00  6 -1 1 25 23 21 21 4 0.71379709D-02 0.86070835D-01 0.20143927D+05 0.20143927D+05 0.20143927D+05 0.12334834D+01  1  2  4  1  6  1       -1 -.135619366372D+01 0.100000000000D+01
-.157570181405D-02 0.000000000000D+00 -.531552187129D-04 0.278072318742D-04 0.000000000000D+00  6 -1 1 25 23 21 21 4 0.79182912D-02 0.86070835D-01 0.20143927D+05 0.20143927D+05 0.20143927D+05 0.12334834D+01  1  2  5  1  6  1       -1 -.120610367108D+01 0.100000000000D+01
0.157302811817D-02 0.000000000000D+00 0.528704302554D-04 0.278072318742D-04 0.000000000000D+00  6 -1 1 25 23 21 21 4 0.71379709D-02 0.86070835D-01 0.20143927D+05 0.20143927D+05 0.20143927D+05 0.12334834D+01  1  2  6  1  6  1       -1 0.140765465330D+01 0.100000000000D+01
0.573784244451D-05 0.000000000000D+00 0.000000000000D+00 0.277370108147D-04 0.000000000000D+00  6 21 1 25 23 1 21 4 0.79923770D-02 0.86070835D-01 0.20813247D+05 0.20813247D+05 0.20813247D+05 0.12319249D+01  3  4 12  4  5  1       -1 0.682164393220D-01 0.100000000000D+01
-.262298173666D-04 0.000000000000D+00 -.891165226011D-06 0.278072318742D-04 0.000000000000D+00  6 21 1 25 23 1 21 4 0.79182912D-02 0.86070835D-01 0.20143927D+05 0.20143927D+05 0.20143927D+05 0.12334834D+01  3  4  5  4  5  1       -1 -.318470899007D+00 0.100000000000D+01
  </mgrwgt>
  </event>
  <event>
  5     66 0.44820762E-03 0.41219148E+02 0.75467711E-02 0.11881128E+00
       -1 -1    0    0    0  501 0.00000000E+00 0.00000000E+00 0.41964039E+02 0.41965259E+02 0.32000000E+00 0.0000E+00 0.9000E+01
        1 -1    0    0  502    0 -.00000000E+00 -.00000000E+00 -.71762589E+03 0.71762596E+03 0.32000000E+00 0.0000E+00 0.9000E+01
       25  1    1    2    0    0 -.21562195E+02 0.72223066E+02 -.17184690E+03 0.22547163E+03 0.12500000E+03 0.0000E+00 0.9000E+01
       23  1    1    2    0    0 -.11171752E+02 -.97266609E+02 -.34480063E+03 0.36984906E+03 0.91188000E+02 0.0000E+00 0.9000E+01
       21  1    1    2  502  501 0.32733947E+02 0.25043544E+02 -.15901432E+03 0.16427052E+03 0.75000000E+00 0.0000E+00 0.9000E+01
#aMCatNLO 1  0  0  5  1 0.82999303D+01 0.00000000D+00  -5  6  0 0.00000000D+00 0.00000000D+00 0.00000000D+00 0.00000000D+00 0.00000000D+00
  <mgrwgt>
 0.6974008485D-01   14    2    0
 0.173536657307093D+03 0.000000000000000D+00 0.000000000000000D+00 0.173536657307093D+03
 0.173536657307093D+03 -.000000000000000D+00 -.000000000000000D+00 -.173536657307093D+03
 0.158917294946783D+03 -.215638846979647D+02 0.722217730256277D+02 0.628388495357005D+02
 0.138200405358776D+03 -.111732206719558D+02 -.972677334110478D+02 -.346157171559849D+02
 0.499556143086265D+02 0.327371053699205D+02 0.250459603854200D+02 -.282231323797155D+02
 0.000000000000000D+00 0.000000000000000D+00 0.000000000000000D+00 0.000000000000000D+00
 0.173536657307093D+03 0.000000000000000D+00 0.000000000000000D+00 0.173536657307093D+03
 0.173536657307093D+03 -.000000000000000D+00 -.000000000000000D+00 -.173536657307093D+03
 0.158407047253807D+03 -.155688630017243D+02 0.768083445693578D+02 0.576704545587970D+02
 0.136322194939948D+03 -.598682704868049D+01 -.932998135915056D+02 -.390869821670175D+02
 0.411898256059036D+02 0.305745566466962D+02 0.131802772611944D+02 -.242503301136451D+02
 0.111542468145265D+02 -.901886659629140D+01 0.331119176095341D+01 0.566685772186563D+01
0.620006411956D-04 0.000000000000D+00 0.000000000000D+00 0.785377772709D-05 0.000000000000D+00  6 -1 1 25 23 21 21 2 0.64561054D-02 0.11040408D+00 0.25757017D+05 0.25757017D+05 0.25757017D+05 0.12219111D+01  1  2  2  3  6  5       21 0.295665289234D-01 0.100000000000D+01
0.411363109380D-05 0.327186372527D-05 -.238098787335D-06 0.785377772709D-05 0.000000000000D+00  6 -1 1 25 23 21 21 4 0.64561054D-02 0.11040408D+00 0.25757017D+05 0.25757017D+05 0.25757017D+05 0.12219111D+01  1  2  3  3  6  5       21 0.292892808549D-02 0.100000000000D+01
0.176611154683D-05 0.000000000000D+00 0.000000000000D+00 0.785377772709D-05 0.000000000000D+00  6 -1 1 25 23 21 21 4 0.64561054D-02 0.11040408D+00 0.25757017D+05 0.25757017D+05 0.25757017D+05 0.12219111D+01  1  2 15  3  6  5       21 0.125748118722D-02 0.100000000000D+01
0.766504949818D-04 0.000000000000D+00 0.000000000000D+00 0.785356706342D-05 0.000000000000D+00  6 -1 1 25 23 21 21 4 0.64561054D-02 0.11040408D+00 0.25766116D+05 0.25766116D+05 0.25766116D+05 0.12218947D+01  1  2 12  3  6  5       21 0.545729451620D-01 0.100000000000D+01
-.285928682942D-04 0.000000000000D+00 0.000000000000D+00 0.785377772709D-05 0.000000000000D+00  6 -1 1 25 23 21 21 4 0.64561054D-02 0.11040408D+00 0.25757017D+05 0.25757017D+05 0.25757017D+05 0.12219111D+01  1  2  4  3  6  5       21 -.203582803324D-01 0.100000000000D+01
0.101842473199D-06 0.000000000000D+00 0.000000000000D+00 0.785377772709D-05 0.376156446086D-06  6 -1 1 25 23 21 21 4 0.64561054D-02 0.11040408D+00 0.25766116D+05 0.25766116D+05 0.25766116D+05 0.12218947D+01  1  2 11  3  6  5       21 0.725089082123D-04 0.100000000000D+01
0.595573445603D-06 0.000000000000D+00 0.000000000000D+00 0.785356706342D-05 0.000000000000D+00  6 -1 1 25 23 1 -1 4 0.64561054D-02 0.11040408D+00 0.25766116D+05 0.25766116D+05 0.25766116D+05 0.12218947D+01  1  2 12  6  6  5       21 0.424031142846D-03 0.100000000000D+01
0.100403034817D-08 0.000000000000D+00 0.000000000000D+00 0.785356706342D-05 0.638562986800D-08  6 -1 1 25 23 1 -1 4 0.64561054D-02 0.11040408D+00 0.25766116D+05 0.25766116D+05 0.25766116D+05 0.12218947D+01  1  2 11  6  6  5       21 0.714840695349D-06 0.100000000000D+01
0.595573445603D-06 0.000000000000D+00 0.000000000000D+00 0.785356706342D-05 0.000000000000D+00  6 -1 1 25 23 2 -2 4 0.64561054D-02 0.11040408D+00 0.25766116D+05 0.25766116D+05 0.25766116D+05 0.12218947D+01  1  2 12  7  6  5       21 0.424031142846D-03 0.100000000000D+01
0.595573445603D-06 0.000000000000D+00 0.000000000000D+00 0.785356706342D-05 0.000000000000D+00  6 -1 1 25 23 4 -4 4 0.64561054D-02 0.11040408D+00 0.25766116D+05 0.25766116D+05 0.25766116D+05 0.12218947D+01  1  2 12  7  6  5       21 0.424031142846D-03 0.100000000000D+01
0.146495987302D-08 0.000000000000D+00 0.000000000000D+00 0.785356706342D-05 0.474887057103D-08  6 -1 1 25 23 2 -2 4 0.64561054D-02 0.11040408D+00 0.25766116D+05 0.25766116D+05 0.25766116D+05 0.12218947D+01  1  2 11  7  6  5       21 0.104300924389D-05 0.100000000000D+01
0.146495987302D-08 0.000000000000D+00 0.000000000000D+00 0.785356706342D-05 0.474887057103D-08  6 -1 1 25 23 4 -4 4 0.64561054D-02 0.11040408D+00 0.25766116D+05 0.25766116D+05 0.25766116D+05 0.12218947D+01  1  2 11  7  6  5       21 0.104300924389D-05 0.100000000000D+01
0.595573445603D-06 0.000000000000D+00 0.000000000000D+00 0.785356706342D-05 0.000000000000D+00  6 -1 1 25 23 3 -3 4 0.64561054D-02 0.11040408D+00 0.25766116D+05 0.25766116D+05 0.25766116D+05 0.12218947D+01  1  2 12  8  6  5       21 0.424031142846D-03 0.100000000000D+01
0.147125288112D-08 0.000000000000D+00 0.000000000000D+00 0.785356706342D-05 0.476927022943D-08  6 -1 1 25 23 3 -3 4 0.64561054D-02 0.11040408D+00 0.25766116D+05 0.25766116D+05 0.25766116D+05 0.12218947D+01  1  2 11  8  6  5       21 0.104748968444D-05 0.100000000000D+01
  </mgrwgt>
  </event>
  <event>
  6     66 0.44820762E-03 0.29910054E+02 0.75467711E-02 0.11838480E+00
       -1 -1    0    0    0  503 0.00000000E+00 0.00000000E+00 0.22587299E+02 0.22589566E+02 0.32000000E+00 0.0000E+00 0.9000E+01
        1 -1    0    0  502    0 0.00000000E+00 0.00000000E+00 -.24572716E+04 0.24572716E+04 0.32000000E+00 0.0000E+00 0.9000E+01
       25  1    1    2    0    0 0.10287673E+03 0.22719552E+02 -.14553556E+04 0.14645083E+04 0.12500000E+03 0.0000E+00 0.9000E+01
       23  1    1    2    0    0 -.96023423E+02 0.57819041E+01 -.96556989E+03 0.97462526E+03 0.91188000E+02 0.0000E+00 0.9000E+01
       21  1    1    2  502  501 -.49196085E+00 0.16845416E+01 -.93659410E+01 0.95584024E+01 0.75000000E+00 0.0000E+00 0.9000E+01
       21  1    1    2  501  503 -.63613416E+01 -.30185998E+02 -.43929387E+01 0.31169241E+02 0.75000000E+00 0.0000E+00 0.9000E+01
#aMCatNLO 2  0  0  1  2 0.12048372D+03 0.00000000D+00  -5  6  0 0.00000000D+00 0.00000000D+00 0.00000000D+00 0.00000000D+00 0.00000000D+00
  <mgrwgt>
 0.3779104108D-01    1    2    0
 0.149017180589745D+03 0.000000000000000D+00 0.000000000000000D+00 0.149017180589745D+03
 0.149017180589745D+03 0.000000000000000D+00 0.000000000000000D+00 -.149017180589745D+03
 0.160572323562836D+03 0.994431094044363D+02 0.625567281304593D+01 -.151791186832951D+02
 0.135463555907833D+03 -.988650474420750D+02 -.784617820258433D+01 0.141160730050608D+02
 0.199848170882109D+01 -.578061962361304D+00 0.159050538953841D+01 0.106304567823435D+01
 0.000000000000000D+00 -.000000000000000D+00 -.000000000000000D+00 0.000000000000000D+00
 0.367818294761843D+03 0.000000000000000D+00 0.000000000000000D+00 0.367818294761843D+03
 0.150904664881336D+03 0.000000000000000D+00 0.000000000000000D+00 -.150904664881336D+03
 0.164186356833917D+03 0.102899752517754D+03 0.226582227497592D+02 -.151791186832951D+02
 0.133282400726765D+03 -.960045885342545D+02 0.572734343078184D+01 0.141160730050608D+02
 0.215791280160106D+01 -.533822429046508D+00 0.180043193693844D+01 0.106304567823435D+01
 0.219096289280897D+03 -.636134155445272D+01 -.301859981174795D+02 0.216913629880507D+03
0.325750904036D-03 0.000000000000D+00 0.000000000000D+00 0.396812902347D-02 0.196486920389D-04  6 -1 1 25 23 21 21 4 0.34751304D-02 0.37804037D+00 0.27017969D+05 0.27017969D+05 0.27017969D+05 0.12196996D+01  1  2  1  1  6  1       -1 0.377910410805D-01 0.100000000000D+01
  </mgrwgt>
  </event>
  <event>
  5     66 0.44820762E-03 0.49758134E+02 0.75467711E-02 0.11518440E+00
       -1 -1    0    0    0  501 0.00000000E+00 0.00000000E+00 0.96528007E+02 0.96528537E+02 0.32000000E+00 0.0000E+00 0.9000E+01
        1 -1    0    0  502    0 -.00000000E+00 -.00000000E+00 -.56707308E+03 0.56707317E+03 0.32000000E+00 0.0000E+00 0.9000E+01
       25  1    1    2    0    0 -.91148078E+02 0.97144136E+02 -.35743140E+03 0.40140648E+03 0.12500000E+03 0.0000E+00 0.9000E+01
       23  1    1    2    0    0 0.89886716E+02 -.47402697E+02 -.14804705E+03 0.20139468E+03 0.91188000E+02 0.0000E+00 0.9000E+01
       21  1    1    2  502  501 0.12613624E+01 -.49741440E+02 0.34933384E+02 0.60800540E+02 0.75000000E+00 0.0000E+00 0.9000E+01
#aMCatNLO 1  0  0  5  2 0.29438324D+02 0.00000000D+00  -5  6  0 0.00000000D+00 0.00000000D+00 0.00000000D+00 0.00000000D+00 0.00000000D+00
  <mgrwgt>
 0.5325321541D-01   15    2    0
 0.233962902083330D+03 0.000000000000000D+00 0.000000000000000D+00 0.233962902083330D+03
 0.233962902083330D+03 -.000000000000000D+00 -.000000000000000D+00 -.233962902083330D+03
 0.209834020578913D+03 -.911480889129589D+02 0.971445623335216D+02 -.103248613011777D+03
 0.136737517236924D+03 0.898867086995680D+02 -.474024190220941D+02 -.743555957079702D+01
 0.121354266350823D+03 0.126138021339088D+01 -.497421433114275D+02 0.110684172582574D+03
 0.000000000000000D+00 0.000000000000000D+00 0.000000000000000D+00 0.000000000000000D+00
 0.233962902083330D+03 0.000000000000000D+00 0.000000000000000D+00 0.233962902083330D+03
 0.233962902083330D+03 -.000000000000000D+00 -.000000000000000D+00 -.233962902083330D+03
 0.204147252633397D+03 -.910542788250695D+02 0.934451901804511D+02 -.950169221641583D+02
 0.137460060920454D+03 0.899488431500141D+02 -.498526720907988D+02 -.198335716308136D+01
 0.363676404551895D+02 -.292063189839398D+02 -.823458970598148D+01 0.200446435752906D+02
 0.899508501576199D+02 0.303117546589952D+02 -.353579283836708D+02 0.769556357519491D+02
0.205000850996D-03 0.000000000000D+00 0.000000000000D+00 0.603771974027D-05 0.000000000000D+00  6 -1 1 25 23 21 21 2 0.14850510D-01 0.87242059D-01 0.34034350D+05 0.34034350D+05 0.34034350D+05 0.12091891D+01  1  2  2  3  6  5       21 0.371571103451D-01 0.100000000000D+01
0.103985800374D-04 0.108181921201D-04 -.787257245788D-06 0.603771974027D-05 0.000000000000D+00  6 -1 1 25 23 21 21 4 0.14850510D-01 0.87242059D-01 0.34034350D+05 0.34034350D+05 0.34034350D+05 0.12091891D+01  1  2  3  3  6  5       21 0.275580653159D-02 0.100000000000D+01
0.921121156461D-05 0.000000000000D+00 0.000000000000D+00 0.603771974027D-05 0.000000000000D+00  6 -1 1 25 23 21 21 4 0.14850510D-01 0.87242059D-01 0.34034350D+05 0.34034350D+05 0.34034350D+05 0.12091891D+01  1  2 15  3  6  5       21 0.244113301070D-02 0.100000000000D+01
0.266504434851D-04 0.000000000000D+00 0.000000000000D+00 0.597706586778D-05 0.000000000000D+00  6 -1 1 25 23 21 21 4 0.14850510D-01 0.87242059D-01 0.39016196D+05 0.39016196D+05 0.39016196D+05 0.12031001D+01  1  2 12  3  6  5       21 0.692632686590D-02 0.100000000000D+01
-.612942788326D-04 0.000000000000D+00 0.000000000000D+00 0.603771974027D-05 0.000000000000D+00  6 -1 1 25 23 21 21 4 0.14850510D-01 0.87242059D-01 0.34034350D+05 0.34034350D+05 0.34034350D+05 0.12091891D+01  1  2  4  3  6  5       21 -.162440615304D-01 0.100000000000D+01
-.310148483386D-04 0.000000000000D+00 0.000000000000D+00 0.603771974027D-05 0.000000000000D+00  6 -1 1 25 23 21 21 4 0.14850510D-01 0.87242059D-01 0.34034350D+05 0.34034350D+05 0.34034350D+05 0.12091891D+01  1  2  5  3  6  5       21 -.821948009444D-02 0.100000000000D+01
0.124143580261D-03 0.000000000000D+00 -.000000000000D+00 0.603771974027D-05 0.000000000000D+00  6 -1 1 25 23 21 21 4 0.14850510D-01 0.87242059D-01 0.34034350D+05 0.34034350D+05 0.34034350D+05 0.12091891D+01  1  2  6  3  6  5       21 0.329002313883D-01 0.100000000000D+01
0.296985841160D-05 0.000000000000D+00 0.000000000000D+00 0.597706586778D-05 0.000000000000D+00  6 -1 1 25 23 1 -1 4 0.14850510D-01 0.87242059D-01 0.39016196D+05 0.39016196D+05 0.39016196D+05 0.12031001D+01  1  2 12  6  6  5       21 0.771852450250D-03 0.100000000000D+01
-.712335844191D-05 0.000000000000D+00 0.000000000000D+00 0.603771974027D-05 0.000000000000D+00  6 -1 1 25 23 1 -1 4 0.14850510D-01 0.87242059D-01 0.34034350D+05 0.34034350D+05 0.34034350D+05 0.12091891D+01  1  2  5  6  6  5       21 -.188781522578D-02 0.100000000000D+01
0.296985841160D-05 0.000000000000D+00 0.000000000000D+00 0.597706586778D-05 0.000000000000D+00  6 -1 1 25 23 2 -2 4 0.14850510D-01 0.87242059D-01 0.39016196D+05 0.39016196D+05 0.39016196D+05 0.12031001D+01  1  2 12  7  6  5       21 0.771852450250D-03 0.100000000000D+01
0.296985841160D-05 0.000000000000D+00 0.000000000000D+00 0.597706586778D-05 0.000000000000D+00  6 -1 1 25 23 4 -4 4 0.14850510D-01 0.87242059D-01 0.39016196D+05 0.39016196D+05 0.39016196D+05 0.12031001D+01  1  2 12  7  6  5       21 0.771852450250D-03 0.100000000000D+01
-.712335844191D-05 0.000000000000D+00 0.000000000000D+00 0.603771974027D-05 0.000000000000D+00  6 -1 1 25 23 2 -2 4 0.14850510D-01 0.87242059D-01 0.34034350D+05 0.34034350D+05 0.34034350D+05 0.12091891D+01  1  2  5  7  6  5       21 -.188781522578D-02 0.100000000000D+01
-.712335844191D-05 0.000000000000D+00 0.000000000000D+00 0.603771974027D-05 0.000000000000D+00  6 -1 1 25 23 4 -4 4 0.14850510D-01 0.87242059D-01 0.34034350D+05 0.34034350D+05 0.34034350D+05 0.12091891D+01  1  2  5  7  6  5       21 -.188781522578D-02 0.100000000000D+01
0.296985841160D-05 0.000000000000D+00 0.000000000000D+00 0.597706586778D-05 0.000000000000D+00  6 -1 1 25 23 3 -3 4 0.14850510D-01 0.87242059D-01 0.39016196D+05 0.39016196D+05 0.39016196D+05 0.12031001D+01  1  2 12  8  6  5       21 0.771852450250D-03 0.100000000000D+01
-.712335844191D-05 0.000000000000D+00 0.000000000000D+00 0.603771974027D-05 0.000000000000D+00  6 -1 1 25 23 3 -3 4 0.14850510D-01 0.87242059D-01 0.34034350D+05 0.34034350D+05 0.34034350D+05 0.12091891D+01  1  2  5  8  6  5       21 -.188781522578D-02 0.100000000000D+01
  </mgrwgt>
  </event>
  <event>
  5     66 -.44820762E-03 0.31479438E+02 0.75467711E-02 0.12282878E+00
       -1 -1    0    0    0  501 0.00000000E+00 0.00000000E+00 0.35782079E+02 0.35783510E+02 0.32000000E+00 0.0000E+00 0.9000E+01
        1 -1    0    0  502    0 0.00000000E+00 0.00000000E+00 -.59044158E+03 0.59044167E+03 0.32000000E+00 0.0000E+00 0.9000E+01
       25  1    1    2    0    0 0.44067805E+02 0.83635219E+00 -.16884812E+03 0.21465638E+03 0.12500000E+03 0.0000E+00 0.9000E+01
       23  1    1    2    0    0 -.17594141E+02 -.17864447E+02 -.17970219E+03 0.20306852E+03 0.91188000E+02 0.0000E+00 0.9000E+01
       21  1    1    2  502  501 -.26473664E+02 0.17028095E+02 -.20610918E+03 0.20850029E+03 0.75000000E+00 0.0000E+00 0.9000E+01
#aMCatNLO 1  0  0  1  2 0.29352747D+00 0.00000000D+00  -5  6  0 0.00000000D+00 0.00000000D+00 0.00000000D+00 0.00000000D+00 0.00000000D+00
  <mgrwgt>
 -.1441457388D+00    9    4    0
 0.145353715415964D+03 0.000000000000000D+00 0.000000000000000D+00 0.145353715415964D+03
 0.145353715415964D+03 0.000000000000000D+00 0.000000000000000D+00 -.145353715415964D+03
 0.140245144020430D+03 0.440689552591820D+02 0.835612447727003D+00 0.458358959278930D+02
 0.945730037858420D+02 -.175933659206229D+02 -.178649457795756D+02 0.344802773735548D+00
 0.558892830256555D+02 -.264755893385591D+02 0.170293333318486D+02 -.461806987016285D+02
 0.000000000000000D+00 0.000000000000000D+00 0.000000000000000D+00 0.000000000000000D+00
 0.145736867612869D+03 0.000000000000000D+00 0.000000000000000D+00 0.145736867612869D+03
 0.145410017191481D+03 0.000000000000000D+00 0.000000000000000D+00 -.145410017191481D+03
 0.140231150988925D+03 0.440267614844559D+02 0.700446541055580D+00 0.458358959278930D+02
 0.945955641492207D+02 -.176218237121822D+02 -.179561090666471D+02 0.344802773735548D+00
 0.558808638811754D+02 -.264924036094390D+02 0.169754695525764D+02 -.461806987016285D+02
 0.439305785028468D+00 0.874658371652736D-01 0.280192973015052D+00 0.326850421387892D+00
 0.145353715415964D+03 0.000000000000000D+00 0.000000000000000D+00 0.145353715415964D+03
 0.145353715415964D+03 0.000000000000000D+00 0.000000000000000D+00 -.145353715415964D+03
 0.140245144020430D+03 0.440689552591820D+02 0.835612447727003D+00 0.458358959278930D+02
 0.945730037858420D+02 -.175933659206229D+02 -.178649457795756D+02 0.344802773735548D+00
 0.000000000000000D+00 0.000000000000000D+00 0.000000000000000D+00 0.000000000000000D+00
 0.558892830256555D+02 -.264755893385591D+02 0.170293333318486D+02 -.461806987016285D+02
 0.145736867612869D+03 0.000000000000000D+00 0.000000000000000D+00 0.145736867612869D+03
 0.145410017191481D+03 0.000000000000000D+00 0.000000000000000D+00 -.145410017191481D+03
 0.140231150988925D+03 0.440267614844559D+02 0.700446541055580D+00 0.458358959278930D+02
 0.945955641492207D+02 -.176218237121822D+02 -.179561090666471D+02 0.344802773735548D+00
 0.439305785028468D+00 0.874658371652736D-01 0.280192973015052D+00 0.326850421387892D+00
 0.558808638811754D+02 -.264924036094390D+02 0.169754695525764D+02 -.461806987016285D+02
0.202970944881D-04 0.000000000000D+00 0.000000000000D+00 0.204881210021D-04 0.000000000000D+00  6 -1 1 25 23 21 21 2 0.55050520D-02 0.90837283D-01 0.16717880D+05 0.16717880D+05 0.16717880D+05 0.12424897D+01  1  2  2  1  6  1       -1 0.165265971517D-01 0.100000000000D+01
0.128868009311D-05 0.107110710314D-05 -.779461871821D-07 0.204881210021D-04 0.000000000000D+00  6 -1 1 25 23 21 21 4 0.55050520D-02 0.90837283D-01 0.16717880D+05 0.16717880D+05 0.16717880D+05 0.12424897D+01  1  2  3  1  6  1       -1 0.161987045713D-02 0.100000000000D+01
0.741297354381D-06 0.000000000000D+00 0.000000000000D+00 0.204881210021D-04 0.000000000000D+00  6 -1 1 25 23 21 21 4 0.55050520D-02 0.90837283D-01 0.16717880D+05 0.16717880D+05 0.16717880D+05 0.12424897D+01  1  2 15  1  6  1       -1 0.931810532906D-03 0.100000000000D+01
-.605618176524D-02 0.000000000000D+00 0.000000000000D+00 0.204881210021D-04 0.000000000000D+00  6 -1 1 25 23 21 21 4 0.55050520D-02 0.90837283D-01 0.16717880D+05 0.16717880D+05 0.16717880D+05 0.12424897D+01  1  2  4  1  6  1       -1 -.761261850550D+01 0.100000000000D+01
-.247952702772D-01 0.000000000000D+00 -.170001477172D-02 0.204881210021D-04 0.000000000000D+00  6 -1 1 25 23 21 21 4 0.55216297D-02 0.90837283D-01 0.16717880D+05 0.16717880D+05 0.16717880D+05 0.12424897D+01  1  2  5  1  6  1       -1 -.310290012661D+02 0.100000000000D+01
0.248002775150D-01 0.000000000000D+00 0.170000708679D-02 0.204881210021D-04 0.000000000000D+00  6 -1 1 25 23 21 21 4 0.55050520D-02 0.90837283D-01 0.16717880D+05 0.16717880D+05 0.16717880D+05 0.12424897D+01  1  2  6  1  6  1       -1 0.311739407553D+02 0.100000000000D+01
0.602727728346D-02 0.000000000000D+00 0.000000000000D+00 0.204881210021D-04 0.104736933010D-02  6 -1 1 25 23 21 21 4 0.55195633D-02 0.90872468D-01 0.16754922D+05 0.16754922D+05 0.16754922D+05 0.12423816D+01  1  2 11  1  6  1       -1 0.754063409389D+01 0.100000000000D+01
-.139105337326D-04 0.000000000000D+00 -.954128516831D-06 0.204881210021D-04 0.000000000000D+00  6 21 1 25 23 1 21 4 0.55216297D-02 0.90837283D-01 0.16717880D+05 0.16717880D+05 0.16717880D+05 0.12424897D+01  3  4  5  4  5  1       -1 -.298854966340D+00 0.100000000000D+01
0.291794201418D-05 0.000000000000D+00 0.000000000000D+00 0.204881210021D-04 0.971728812656D-06  6 21 1 25 23 1 21 4 0.55195633D-02 0.90872468D-01 0.16754922D+05 0.16754922D+05 0.16754922D+05 0.12423816D+01  3  4 11  4  5  1       -1 0.626758718975D-01 0.100000000000D+01
  </mgrwgt>
  </event>
  <event>
  5     66 -.44820762E-03 0.23397663E+02 0.75467711E-02 0.11922691E+00
       -1 -1    0    0    0  501 0.00000000E+00 0.00000000E+00 0.87410913E+03 0.87410919E+03 0.32000000E+00 0.0000E+00 0.9000E+01
        1 -1    0    0  502    0 0.00000000E+00 0.00000000E+00 -.29525545E+03 0.29525562E+03 0.32000000E+00 0.0000E+00 0.9000E+01
       25  1    1    2    0    0 0.55860933E+02 0.23472537E+02 0.74308088E+03 0.75595344E+03 0.12500000E+03 0.0000E+00 0.9000E+01
       23  1    1    2    0    0 -.55199964E+02 -.46860844E+02 0.96748065E+02 0.15138829E+03 0.91188000E+02 0.0000E+00 0.9000E+01
       21  1    1    2  502  501 -.66096902E+00 0.23388307E+02 -.26097526E+03 0.26202309E+03 0.75000000E+00 0.0000E+00 0.9000E+01
#aMCatNLO 1  0  0  5  5 0.25660324D+02 0.00000000D+00  -5  6  0 0.00000000D+00 0.00000000D+00 0.00000000D+00 0.00000000D+00 0.00000000D+00
  <mgrwgt>
 -.6463888039D+00    8    2    0
 0.508021279016378D+03 0.000000000000000D+00 0.000000000000000D+00 0.508021279016378D+03
 0.508021279016378D+03 -.000000000000000D+00 -.000000000000000D+00 -.508021279016378D+03
 0.446684545842036D+03 0.558609331053100D+02 0.234725226869078D+02 0.424535841037506D+03
 0.119114283827827D+03 -.551999635713061D+02 -.468608474858644D+02 0.250995271359656D+02
 0.450243728362894D+03 -.660969534003854D+00 0.233883247989564D+02 -.449635368173471D+03
 0.000000000000000D+00 0.000000000000000D+00 0.000000000000000D+00 0.000000000000000D+00
 0.508021279016378D+03 0.000000000000000D+00 0.000000000000000D+00 0.508021279016378D+03
 0.508021279016378D+03 -.000000000000000D+00 -.000000000000000D+00 -.508021279016378D+03
 0.445357604489952D+03 0.558588748419282D+02 0.235453540808193D+02 0.423135673607924D+03
 0.119028681439101D+03 -.552005130531270D+02 -.468414041399371D+02 0.247257331135344D+02
 0.161450268256621D+03 -.203551957389182D+02 -.762442936321284D+01 -.159980383808299D+03
 0.290206003847081D+03 0.196968339501169D+02 0.309204794223305D+02 -.287881022913159D+03
0.841105405830D-02 0.000000000000D+00 0.000000000000D+00 0.659648565563D-04 0.000000000000D+00  6 -1 1 25 23 21 21 2 0.13447835D+00 0.45423933D-01 0.19425245D+05 0.19425245D+05 0.19425245D+05 0.12352226D+01  1  2  2  3  6  5       21 0.604273393853D-01 0.100000000000D+01
0.331606640522D-02 0.443863517118D-03 -.323006622653D-04 0.659648565563D-04 0.000000000000D+00  6 -1 1 25 23 21 21 4 0.13447835D+00 0.45423933D-01 0.19425245D+05 0.19425245D+05 0.19425245D+05 0.12352226D+01  1  2  3  3  6  5       21 0.363493578949D-01 0.100000000000D+01
0.375787525966D-03 0.000000000000D+00 0.000000000000D+00 0.659648565563D-04 0.000000000000D+00  6 -1 1 25 23 21 21 4 0.13447835D+00 0.45423933D-01 0.19425245D+05 0.19425245D+05 0.19425245D+05 0.12352226D+01  1  2 15  3  6  5       21 0.411922850889D-02 0.100000000000D+01
-.516559075175D-01 0.000000000000D+00 0.000000000000D+00 0.659648565563D-04 0.000000000000D+00  6 -1 1 25 23 21 21 4 0.13447835D+00 0.45423933D-01 0.19425245D+05 0.19425245D+05 0.19425245D+05 0.12352226D+01  1  2  5  3  6  5       21 -.566230841089D+00 0.100000000000D+01
-.412928007729D-02 0.000000000000D+00 0.000000000000D+00 0.659648565563D-04 0.000000000000D+00  6 -1 1 25 23 1 -1 4 0.13447835D+00 0.45423933D-01 0.19425245D+05 0.19425245D+05 0.19425245D+05 0.12352226D+01  1  2  5  6  6  5       21 -.452634721492D-01 0.100000000000D+01
-.412928007729D-02 0.000000000000D+00 0.000000000000D+00 0.659648565563D-04 0.000000000000D+00  6 -1 1 25 23 2 -2 4 0.13447835D+00 0.45423933D-01 0.19425245D+05 0.19425245D+05 0.19425245D+05 0.12352226D+01  1  2  5  7  6  5       21 -.452634721492D-01 0.100000000000D+01
-.412928007729D-02 0.000000000000D+00 0.000000000000D+00 0.659648565563D-04 0.000000000000D+00  6 -1 1 25 23 4 -4 4 0.13447835D+00 0.45423933D-01 0.19425245D+05 0.19425245D+05 0.19425245D+05 0.12352226D+01  1  2  5  7  6  5       21 -.452634721492D-01 0.100000000000D+01
-.412928007729D-02 0.000000000000D+00 0.000000000000D+00 0.659648565563D-04 0.000000000000D+00  6 -1 1 25 23 3 -3 4 0.13447835D+00 0.45423933D-01 0.19425245D+05 0.19425245D+05 0.19425245D+05 0.12352226D+01  1  2  5  8  6  5       21 -.452634721492D-01 0.100000000000D+01
  </mgrwgt>
  </event>
  <event>
  5     66 0.44820762E-03 0.41385831E+02 0.75467711E-02 0.10749225E+00
       -1 -1    0    0    0  501 0.00000000E+00 0.00000000E+00 0.10958739E+04 0.10958739E+04 0.32000000E+00 0.0000E+00 0.9000E+01
        1 -1    0    0  502    0 0.00000000E+00 0.00000000E+00 -.12353774E+03 0.12353815E+03 0.32000000E+00 0.0000E+00 0.9000E+01
       25  1    1    2    0    0 -.21090263E+03 0.36984639E+02 0.61815482E+03 0.66602415E+03 0.12500000E+03 0.0000E+00 0.9000E+01
       23  1    1    2    0    0 0.18167889E+03 -.76802517E+01 0.42510432E+03 0.47126970E+03 0.91188000E+02 0.0000E+00 0.9000E+01
       21  1    1    2  502  501 0.29223747E+02 -.29304387E+02 -.70922978E+02 0.82118243E+02 0.75000000E+00 0.0000E+00 0.9000E+01
#aMCatNLO 1  0  0  1  5 0.25996981D+01 0.00000000D+00  -5  6  0 0.00000000D+00 0.00000000D+00 0.00000000D+00 0.00000000D+00 0.00000000D+00
  <mgrwgt>
 0.1185269457D+00    7    4    0
 0.367943016999623D+03 0.000000000000000D+00 0.000000000000000D+00 0.367943016999623D+03
 0.367943016999623D+03 0.000000000000000D+00 0.000000000000000D+00 -.367943016999623D+03
 0.286870278753531D+03 -.210902693318282D+03 0.369846996584761D+02 0.144297410837462D+03
 0.219229258589045D+03 0.181678839220593D+03 -.768020516887252D+01 0.817314523639702D+02
 0.229786496656670D+03 0.292238540976890D+02 -.293044944896035D+02 -.226028863201432D+03
 0.000000000000000D+00 -.000000000000000D+00 0.000000000000000D+00 0.000000000000000D+00
 0.453098571368046D+03 0.000000000000000D+00 0.000000000000000D+00 0.453098571368046D+03
 0.414363616119011D+03 0.000000000000000D+00 0.000000000000000D+00 -.414363616119011D+03
 0.269468591095841D+03 -.190169817889307D+03 -.142097738557977D+01 0.144297410837462D+03
 0.236636300667909D+03 0.198667412848379D+03 -.391499197496112D+02 0.817314523639702D+02
 0.238895019264712D+03 0.466900352546743D+02 -.616589315287926D+02 -.226028863201432D+03
 0.122462276458595D+03 -.551876302137463D+02 0.102229828663984D+03 0.387349552490355D+02
 0.367943016999623D+03 0.000000000000000D+00 0.000000000000000D+00 0.367943016999623D+03
 0.367943016999623D+03 0.000000000000000D+00 0.000000000000000D+00 -.367943016999623D+03
 0.286870278753531D+03 -.210902693318282D+03 0.369846996584761D+02 0.144297410837462D+03
 0.219229258589045D+03 0.181678839220593D+03 -.768020516887252D+01 0.817314523639702D+02
 0.000000000000000D+00 -.000000000000000D+00 0.000000000000000D+00 0.000000000000000D+00
 0.229786496656670D+03 0.292238540976890D+02 -.293044944896035D+02 -.226028863201432D+03
 0.453098571368046D+03 0.000000000000000D+00 0.000000000000000D+00 0.453098571368046D+03
 0.414363616119011D+03 0.000000000000000D+00 0.000000000000000D+00 -.414363616119011D+03
 0.269468591095841D+03 -.190169817889307D+03 -.142097738557977D+01 0.144297410837462D+03
 0.236636300667909D+03 0.198667412848379D+03 -.391499197496112D+02 0.817314523639702D+02
 0.122462276458595D+03 -.551876302137463D+02 0.102229828663984D+03 0.387349552490355D+02
 0.238895019264712D+03 0.466900352546743D+02 -.616589315287926D+02 -.226028863201432D+03
0.578541563897D-02 0.000000000000D+00 0.000000000000D+00 0.903716571360D-05 0.000000000000D+00  6 -1 1 25 23 21 21 2 0.16859602D+00 0.19005841D-01 0.60699958D+05 0.60699958D+05 0.60699958D+05 0.11840301D+01  1  2  2  1  6  1       -1 0.615509357857D-01 0.100000000000D+01
0.117262694918D-02 0.305304771044D-03 -.222175193886D-04 0.903716571360D-05 0.000000000000D+00  6 -1 1 25 23 21 21 4 0.16859602D+00 0.19005841D-01 0.60699958D+05 0.60699958D+05 0.60699958D+05 0.11840301D+01  1  2  3  1  6  1       -1 0.174898242960D-01 0.100000000000D+01
0.808144678580D-04 0.000000000000D+00 0.000000000000D+00 0.903716571360D-05 0.000000000000D+00  6 -1 1 25 23 21 21 4 0.16859602D+00 0.19005841D-01 0.60699958D+05 0.60699958D+05 0.60699958D+05 0.11840301D+01  1  2 15  1  6  1       -1 0.120535422148D-02 0.100000000000D+01
-.436912258458D-02 0.000000000000D+00 0.000000000000D+00 0.903716571360D-05 0.000000000000D+00  6 -1 1 25 23 21 21 4 0.16859602D+00 0.19005841D-01 0.60699958D+05 0.60699958D+05 0.60699958D+05 0.11840301D+01  1  2  4  1  6  1       -1 -.651658111605D-01 0.100000000000D+01
-.124299173213D-01 0.000000000000D+00 -.519176040752D-02 0.903716571360D-05 0.000000000000D+00  6 -1 1 25 23 21 21 4 0.22284484D+00 0.19005841D-01 0.60699958D+05 0.60699958D+05 0.60699958D+05 0.11840301D+01  1  2  5  1  6  1       -1 -.797149214083D-01 0.100000000000D+01
0.135435027651D-01 0.000000000000D+00 0.499608750855D-02 0.903716571360D-05 0.000000000000D+00  6 -1 1 25 23 21 21 4 0.16859602D+00 0.19005841D-01 0.60699958D+05 0.60699958D+05 0.60699958D+05 0.11840301D+01  1  2  6  1  6  1       -1 0.202002421895D+00 0.100000000000D+01
-.351977106482D-03 0.000000000000D+00 -.190392454684D-03 0.903716571360D-05 0.000000000000D+00  6 21 1 25 23 1 21 4 0.22284484D+00 0.19005841D-01 0.60699958D+05 0.60699958D+05 0.60699958D+05 0.11840301D+01  3  4  5  4  5  1       -1 -.188408579683D-01 0.100000000000D+01
  </mgrwgt>
  </event>
  <event>
  5     66 0.44820762E-03 0.28401079E+02 0.75467711E-02 0.10866836E+00
       -1 -1    0    0    0  501 0.00000000E+00 0.00000000E+00 0.37979180E+03 0.37979194E+03 0.32000000E+00 0.0000E+00 0.9000E+01
        1 -1    0    0  502    0 0.00000000E+00 0.00000000E+00 -.28435338E+03 0.28435356E+03 0.32000000E+00 0.0000E+00 0.9000E+01
       25  1    1    2    0    0 -.22916430E+02 0.20930014E+03 -.15338298E+03 0.28893433E+03 0.12500000E+03 0.0000E+00 0.9000E+01
       23  1    1    2    0    0 0.66840853E+01 -.23259454E+03 0.23706987E+03 0.34447391E+03 0.91188000E+02 0.0000E+00 0.9000E+01
       21  1    1    2  502  501 0.16232345E+02 0.23294401E+02 0.11751528E+02 0.30737259E+02 0.75000000E+00 0.0000E+00 0.9000E+01
#aMCatNLO 1  0  0  2  2 0.67109078D+02 0.00000000D+00  -5  6  0 0.00000000D+00 0.00000000D+00 0.00000000D+00 0.00000000D+00 0.00000000D+00
  <mgrwgt>
 0.8932357948D+00    3    2    0
 0.328626214194413D+03 0.000000000000000D+00 0.000000000000000D+00 0.328626214194413D+03
 0.328626214194413D+03 0.000000000000000D+00 0.000000000000000D+00 -.328626214194413D+03
 0.314235543092522D+03 -.229189650612094D+02 0.209296500997635D+03 -.196948399976548D+03
 0.313664108718413D+03 0.668155532785024D+01 -.232598170253690D+03 0.189534613638651D+03
 0.293527765778906D+02 0.162374097333591D+02 0.233016692560551D+02 0.741378633789725D+01
 0.000000000000000D+00 0.000000000000000D+00 0.000000000000000D+00 0.000000000000000D+00
 0.762079208405296D+03 0.000000000000000D+00 0.000000000000000D+00 0.762079208405296D+03
 0.332942633185516D+03 0.000000000000000D+00 0.000000000000000D+00 -.332942633185516D+03
 0.302039171245974D+03 -.446037875759888D+02 0.186613211878228D+03 -.196948399976548D+03
 0.331990540618568D+03 -.160370572502157D+02 -.256362849773148D+03 0.189534613638651D+03
 0.266399355511557D+02 0.142671974296744D+02 0.212407395306384D+02 0.741378633789725D+01
 0.434352194175115D+03 0.463736473965301D+02 0.485088983642814D+02 0.429136575219781D+03
0.145461020526D-01 0.000000000000D+00 0.000000000000D+00 0.753749734899D-05 0.000000000000D+00  6 -1 1 25 23 21 21 2 0.58429533D-01 0.43746698D-01 0.68429955D+05 0.68429955D+05 0.68429955D+05 0.11790168D+01  1  2  2  2  6  2        1 0.584520173742D+00 0.100000000000D+01
0.510059237480D-02 0.767618894456D-03 -.558608619587D-04 0.753749734899D-05 0.000000000000D+00  6 -1 1 25 23 21 21 4 0.58429533D-01 0.43746698D-01 0.68429955D+05 0.68429955D+05 0.68429955D+05 0.11790168D+01  1  2  3  2  6  2        1 0.284913779987D+00 0.100000000000D+01
0.426106063236D-03 0.000000000000D+00 0.000000000000D+00 0.753749734899D-05 0.000000000000D+00  6 -1 1 25 23 21 21 4 0.58429533D-01 0.43746698D-01 0.68429955D+05 0.68429955D+05 0.68429955D+05 0.11790168D+01  1  2 15  2  6  2        1 0.238018410865D-01 0.100000000000D+01
  </mgrwgt>
  </event>
  <event>
  6     66 0.44820762E-03 0.37519079E+02 0.75467711E-02 0.11399499E+00
       -1 -1    0    0    0  503 0.00000000E+00 0.00000000E+00 0.16958903E+03 0.16958933E+03 0.32000000E+00 0.0000E+00 0.9000E+01
        1 -1    0    0  502    0 0.00000000E+00 0.00000000E+00 -.30702613E+03 0.30702630E+03 0.32000000E+00 0.0000E+00 0.9000E+01
       25  1    1    2    0    0 0.84859920E+02 0.78800237E+02 -.14210719E+03 0.22187865E+03 0.12500000E+03 0.0000E+00 0.9000E+01
       23  1    1    2    0    0 -.76303530E+02 -.11941728E+03 -.49280156E+01 0.16858900E+03 0.91188000E+02 0.0000E+00 0.9000E+01
       21  1    1    2  502  501 0.22214932E+02 0.48566727E+02 0.10077355E+02 0.54353894E+02 0.75000000E+00 0.0000E+00 0.9000E+01
       21  1    1    2  501  503 -.30771322E+02 -.79496881E+01 -.47925054E+00 0.31794087E+02 0.75000000E+00 0.0000E+00 0.9000E+01
#aMCatNLO 2  0  0  1  5 0.31781627D+02 0.00000000D+00  -5  6  0 0.00000000D+00 0.00000000D+00 0.00000000D+00 0.00000000D+00 0.00000000D+00
  <mgrwgt>
 0.2122870329D-01    1    2    0
 0.211008699497032D+03 0.000000000000000D+00 0.000000000000000D+00 0.211008699497032D+03
 0.211008699497032D+03 0.000000000000000D+00 0.000000000000000D+00 -.211008699497032D+03
 0.180077406336739D+03 0.714874935009992D+02 0.753439801399963D+02 -.775609128529014D+02
 0.183913945177471D+03 -.893926388944098D+02 -.122800371447619D+03 0.493772495240707D+02
 0.580260474798537D+02 0.179051453934106D+02 0.474563913076225D+02 0.281836633288307D+02
 0.000000000000000D+00 -.000000000000000D+00 -.000000000000000D+00 0.000000000000000D+00
 0.233125722735487D+03 0.000000000000000D+00 0.000000000000000D+00 0.233125722735487D+03
 0.223340585367489D+03 0.000000000000000D+00 0.000000000000000D+00 -.223340585367489D+03
 0.187219109673417D+03 0.848592405974975D+02 0.787985349454396D+02 -.775609128529014D+02
 0.175603452837599D+03 -.763040973115222D+02 -.119418982022953D+03 0.493772495240707D+02
 0.603898627162182D+02 0.222161789434804D+02 0.485701352005742D+02 0.281836633288307D+02
 0.332538828757414D+02 -.307713222294557D+02 -.794968812306095D+01 0.978513736799805D+01
0.940052160218D-04 0.000000000000D+00 0.000000000000D+00 0.425912373946D-05 0.797837573830D-08  6 -1 1 25 23 21 21 4 0.26090170D-01 0.47233945D-01 0.44966776D+05 0.44966776D+05 0.44966776D+05 0.11968723D+01  1  2  1  1  6  1       -1 0.212287032942D-01 0.100000000000D+01
  </mgrwgt>
  </event>
  <event>
  5     66 0.44820762E-03 0.35925837E+02 0.75467711E-02 0.11516508E+00
       -1 -1    0    0    0  501 0.00000000E+00 0.00000000E+00 0.27752270E+02 0.27754115E+02 0.32000000E+00 0.0000E+00 0.9000E+01
        1 -1    0    0  502    0 -.00000000E+00 -.00000000E+00 -.17539060E+04 0.17539060E+04 0.32000000E+00 0.0000E+00 0.9000E+01
       25  1    1    2    0    0 -.12620743E+03 0.10352005E+02 -.44051610E+03 0.47509464E+03 0.12500000E+03 0.0000E+00 0.9000E+01
       23  1    1    2    0    0 0.15408701E+03 -.33001048E+02 -.11994550E+04 0.12131939E+04 0.91188000E+02 0.0000E+00 0.9000E+01
       21  1    1    2  502  501 -.27879583E+02 0.22649043E+02 -.86182637E+02 0.93371621E+02 0.75000000E+00 0.0000E+00 0.9000E+01
#aMCatNLO 1  0  0  5  2 0.40910131D+01 0.00000000D+00  -5  6  0 0.00000000D+00 0.00000000D+00 0.00000000D+00 0.00000000D+00 0.00000000D+00
  <mgrwgt>
 0.1282707440D+00   25    2    0
 0.220627609707449D+03 0.000000000000000D+00 0.000000000000000D+00 0.220627609707449D+03
 0.220627609707449D+03 -.000000000000000D+00 -.000000000000000D+00 -.220627609707449D+03
 0.195029441373896D+03 -.126205245281662D+03 0.103502335268128D+02 0.798535643033545D+02
 0.206358294628910D+03 0.154089317188470D+03 -.330029228571084D+02 -.971379628643237D+02
 0.398674834120915D+02 -.278840719068086D+02 0.226526893302956D+02 0.172843985609691D+02
 0.000000000000000D+00 -.000000000000000D+00 0.000000000000000D+00 0.000000000000000D+00
 0.220627609707449D+03 0.000000000000000D+00 0.000000000000000D+00 0.220627609707449D+03
 0.220627609707449D+03 -.000000000000000D+00 -.000000000000000D+00 -.220627609707449D+03
 0.195361350779824D+03 -.126556450250625D+03 0.106355482785377D+02 0.800712644541946D+02
 0.205925154482490D+03 0.153718417057475D+03 -.327016079893202D+02 -.969080543447983D+02
 0.102631407469802D+02 -.385737257162192D+01 0.657133599463743D+01 0.687533839760686D+01
 0.297055734056029D+02 -.233045942352288D+02 0.154947237161451D+02 0.996145149299686D+01
0.412787646522D-03 0.000000000000D+00 0.000000000000D+00 0.724242093116D-05 0.000000000000D+00  6 -1 1 25 23 21 21 2 0.42697242D-02 0.26983183D+00 0.39188938D+05 0.39188938D+05 0.39188938D+05 0.12029047D+01  1  2  2  3  6  5       21 0.653270179250D-01 0.100000000000D+01
0.683612791925D-04 0.217834025722D-04 -.158521325213D-05 0.724242093116D-05 0.000000000000D+00  6 -1 1 25 23 21 21 4 0.42697242D-02 0.26983183D+00 0.39188938D+05 0.39188938D+05 0.39188938D+05 0.12029047D+01  1  2  3  3  6  5       21 0.156544855225D-01 0.100000000000D+01
0.103790126206D-04 0.000000000000D+00 0.000000000000D+00 0.724242093116D-05 0.000000000000D+00  6 -1 1 25 23 21 21 4 0.42697242D-02 0.26983183D+00 0.39188938D+05 0.39188938D+05 0.39188938D+05 0.12029047D+01  1  2 15  3  6  5       21 0.237675632647D-02 0.100000000000D+01
0.196892712290D-04 0.000000000000D+00 0.000000000000D+00 0.724355820416D-05 0.000000000000D+00  6 -1 1 25 23 21 21 4 0.42697242D-02 0.26983183D+00 0.39105312D+05 0.39105312D+05 0.39105312D+05 0.12029992D+01  1  2 12  3  6  5       21 0.451026838384D-02 0.100000000000D+01
0.199026274012D-04 0.000000000000D+00 0.000000000000D+00 0.724355820416D-05 0.000000000000D+00  6 -1 1 25 23 21 21 4 0.42697242D-02 0.26983183D+00 0.39105312D+05 0.39105312D+05 0.39105312D+05 0.12029992D+01  1  2 12  3  6  5       21 0.455914239176D-02 0.100000000000D+01
-.205441364784D-02 0.000000000000D+00 0.000000000000D+00 0.724242093116D-05 0.000000000000D+00  6 -1 1 25 23 21 21 4 0.42697242D-02 0.26983183D+00 0.39188938D+05 0.39188938D+05 0.39188938D+05 0.12029047D+01  1  2  4  3  6  5       21 -.470453290039D+00 0.100000000000D+01
-.311955809657D-03 0.000000000000D+00 0.000000000000D+00 0.724242093116D-05 0.000000000000D+00  6 -1 1 25 23 21 21 4 0.42697242D-02 0.26983183D+00 0.39188938D+05 0.39188938D+05 0.39188938D+05 0.12029047D+01  1  2  5  3  6  5       21 -.714367513836D-01 0.100000000000D+01
0.211911687669D-02 0.000000000000D+00 -.000000000000D+00 0.724242093116D-05 0.000000000000D+00  6 -1 1 25 23 21 21 4 0.42697242D-02 0.26983183D+00 0.39188938D+05 0.39188938D+05 0.39188938D+05 0.12029047D+01  1  2  6  3  6  5       21 0.485270095271D+00 0.100000000000D+01
0.379721968030D-03 0.000000000000D+00 0.000000000000D+00 0.724242093116D-05 0.334909526579D-05  6 -1 1 25 23 21 21 4 0.42697242D-02 0.26983183D+00 0.39105312D+05 0.39105312D+05 0.39105312D+05 0.12029992D+01  1  2 11  3  6  5       21 0.869838180975D-01 0.100000000000D+01
0.287510180567D-05 0.000000000000D+00 0.000000000000D+00 0.724355820416D-05 0.000000000000D+00  6 -1 1 25 23 1 -1 4 0.42697242D-02 0.26983183D+00 0.39105312D+05 0.39105312D+05 0.39105312D+05 0.12029992D+01  1  2 12  6  6  5       21 0.658606437161D-03 0.100000000000D+01
0.289723974535D-05 0.000000000000D+00 0.000000000000D+00 0.724355820416D-05 0.000000000000D+00  6 -1 1 25 23 1 -1 4 0.42697242D-02 0.26983183D+00 0.39105312D+05 0.39105312D+05 0.39105312D+05 0.12029992D+01  1  2 12  6  6  5       21 0.663677627875D-03 0.100000000000D+01
-.430573653254D-04 0.000000000000D+00 0.000000000000D+00 0.724242093116D-05 0.000000000000D+00  6 -1 1 25 23 1 -1 4 0.42697242D-02 0.26983183D+00 0.39188938D+05 0.39188938D+05 0.39188938D+05 0.12029047D+01  1  2  5  6  6  5       21 -.985998082666D-02 0.100000000000D+01
0.433462900012D-04 0.000000000000D+00 0.000000000000D+00 0.724242093116D-05 0.766563162445D-07  6 -1 1 25 23 1 -1 4 0.42697242D-02 0.26983183D+00 0.39105312D+05 0.39105312D+05 0.39105312D+05 0.12029992D+01  1  2 11  6  6  5       21 0.992943817347D-02 0.100000000000D+01
0.287510180567D-05 0.000000000000D+00 0.000000000000D+00 0.724355820416D-05 0.000000000000D+00  6 -1 1 25 23 2 -2 4 0.42697242D-02 0.26983183D+00 0.39105312D+05 0.39105312D+05 0.39105312D+05 0.12029992D+01  1  2 12  7  6  5       21 0.658606437161D-03 0.100000000000D+01
0.287510180567D-05 0.000000000000D+00 0.000000000000D+00 0.724355820416D-05 0.000000000000D+00  6 -1 1 25 23 4 -4 4 0.42697242D-02 0.26983183D+00 0.39105312D+05 0.39105312D+05 0.39105312D+05 0.12029992D+01  1  2 12  7  6  5       21 0.658606437161D-03 0.100000000000D+01
0.289723974535D-05 0.000000000000D+00 0.000000000000D+00 0.724355820416D-05 0.000000000000D+00  6 -1 1 25 23 2 -2 4 0.42697242D-02 0.26983183D+00 0.39105312D+05 0.39105312D+05 0.39105312D+05 0.12029992D+01  1  2 12  7  6  5       21 0.663677627875D-03 0.100000000000D+01
0.289723974535D-05 0.000000000000D+00 0.000000000000D+00 0.724355820416D-05 0.000000000000D+00  6 -1 1 25 23 4 -4 4 0.42697242D-02 0.26983183D+00 0.39105312D+05 0.39105312D+05 0.39105312D+05 0.12029992D+01  1  2 12  7  6  5       21 0.663677627875D-03 0.100000000000D+01
-.430573653254D-04 0.000000000000D+00 0.000000000000D+00 0.724242093116D-05 0.000000000000D+00  6 -1 1 25 23 2 -2 4 0.42697242D-02 0.26983183D+00 0.39188938D+05 0.39188938D+05 0.39188938D+05 0.12029047D+01  1  2  5  7  6  5       21 -.985998082666D-02 0.100000000000D+01
-.430573653254D-04 0.000000000000D+00 0.000000000000D+00 0.724242093116D-05 0.000000000000D+00  6 -1 1 25 23 4 -4 4 0.42697242D-02 0.26983183D+00 0.39188938D+05 0.39188938D+05 0.39188938D+05 0.12029047D+01  1  2  5  7  6  5       21 -.985998082666D-02 0.100000000000D+01
0.432157074903D-04 0.000000000000D+00 0.000000000000D+00 0.724242093116D-05 0.762483104491D-07  6 -1 1 25 23 2 -2 4 0.42697242D-02 0.26983183D+00 0.39105312D+05 0.39105312D+05 0.39105312D+05 0.12029992D+01  1  2 11  7  6  5       21 0.989952532584D-02 0.100000000000D+01
0.432157074903D-04 0.000000000000D+00 0.000000000000D+00 0.724242093116D-05 0.762483104491D-07  6 -1 1 25 23 4 -4 4 0.42697242D-02 0.26983183D+00 0.39105312D+05 0.39105312D+05 0.39105312D+05 0.12029992D+01  1  2 11  7  6  5       21 0.989952532584D-02 0.100000000000D+01
0.287510180567D-05 0.000000000000D+00 0.000000000000D+00 0.724355820416D-05 0.000000000000D+00  6 -1 1 25 23 3 -3 4 0.42697242D-02 0.26983183D+00 0.39105312D+05 0.39105312D+05 0.39105312D+05 0.12029992D+01  1  2 12  8  6  5       21 0.658606437161D-03 0.100000000000D+01
0.289723974535D-05 0.000000000000D+00 0.000000000000D+00 0.724355820416D-05 0.000000000000D+00  6 -1 1 25 23 3 -3 4 0.42697242D-02 0.26983183D+00 0.39105312D+05 0.39105312D+05 0.39105312D+05 0.12029992D+01  1  2 12  8  6  5       21 0.663677627875D-03 0.100000000000D+01
-.430573653254D-04 0.000000000000D+00 0.000000000000D+00 0.724242093116D-05 0.000000000000D+00  6 -1 1 25 23 3 -3 4 0.42697242D-02 0.26983183D+00 0.39188938D+05 0.39188938D+05 0.39188938D+05 0.12029047D+01  1  2  5  8  6  5       21 -.985998082666D-02 0.100000000000D+01
0.432243264434D-04 0.000000000000D+00 0.000000000000D+00 0.724242093116D-05 0.762635174340D-07  6 -1 1 25 23 3 -3 4 0.42697242D-02 0.26983183D+00 0.39105312D+05 0.39105312D+05 0.39105312D+05 0.12029992D+01  1  2 11  8  6  5       21 0.990149969001D-02 0.100000000000D+01
  </mgrwgt>
  </event>
  <event>
  5     66 0.44820762E-03 0.47994053E+02 0.75467711E-02 0.11889389E+00
       -1 -1    0    0    0  501 0.00000000E+00 0.00000000E+00 0.42440980E+02 0.42442186E+02 0.32000000E+00 0.0000E+00 0.9000E+01
        1 -1    0    0  502    0 -.00000000E+00 -.00000000E+00 -.64120916E+03 0.64120924E+03 0.32000000E+00 0.0000E+00 0.9000E+01
       25  1    1    2    0    0 0.82093260E+02 -.19033434E+02 -.24327374E+03 0.28619694E+03 0.12500000E+03 0.0000E+00 0.9000E+01
       23  1    1    2    0    0 -.83663749E+02 -.31083954E+02 -.25448295E+03 0.28467992E+03 0.91188000E+02 0.0000E+00 0.9000E+01
       21  1    1    2  502  501 0.15704890E+01 0.50117388E+02 -.10101149E+03 0.11277457E+03 0.75000000E+00 0.0000E+00 0.9000E+01
#aMCatNLO 1  0  0  5  1 0.13216907D+02 0.00000000D+00  -5  6  0 0.00000000D+00 0.00000000D+00 0.00000000D+00 0.00000000D+00 0.00000000D+00
  <mgrwgt>
 0.4426641896D-01   20    2    0
 0.164966617343654D+03 0.000000000000000D+00 0.000000000000000D+00 0.164966617343654D+03
 0.164966617343654D+03 -.000000000000000D+00 -.000000000000000D+00 -.164966617343654D+03
 0.151529050858695D+03 0.820931799715056D+02 -.190359871449748D+02 0.153099395726876D+02
 0.128043251246086D+03 -.836638165384562D+02 -.310861111692799D+02 -.106696926037716D+02
 0.503609325825266D+02 0.157063656695061D+01 0.501220983142547D+02 -.464024696891607D+01
 0.000000000000000D+00 0.000000000000000D+00 0.000000000000000D+00 0.000000000000000D+00
 0.164966617343654D+03 0.000000000000000D+00 0.000000000000000D+00 0.164966617343654D+03
 0.164966617343654D+03 -.000000000000000D+00 -.000000000000000D+00 -.164966617343654D+03
 0.151048359750409D+03 0.822400632401472D+02 -.143486534953660D+02 0.148759915439454D+02
 0.127091308746079D+03 -.835399639413980D+02 -.271337314928791D+02 -.110355994279120D+02
 0.152529136867791D+02 -.342680708726856D+01 0.652061215083090D+01 -.133562714221228D+02
 0.365406525040407D+02 0.472670778851935D+01 0.349617728374141D+02 0.951587930608942D+01
0.550286274309D-04 0.000000000000D+00 0.000000000000D+00 0.602025943987D-05 0.000000000000D+00  6 -1 1 25 23 21 21 2 0.65294805D-02 0.98647662D-01 0.26977778D+05 0.26977778D+05 0.26977778D+05 0.12197683D+01  1  2  2  3  6  5       21 0.302037446959D-01 0.100000000000D+01
0.248212300053D-05 0.290394045079D-05 -.211324418705D-06 0.602025943987D-05 0.000000000000D+00  6 -1 1 25 23 21 21 4 0.65294805D-02 0.98647662D-01 0.26977778D+05 0.26977778D+05 0.26977778D+05 0.12197683D+01  1  2  3  3  6  5       21 0.202698307426D-02 0.100000000000D+01
0.262114562369D-05 0.000000000000D+00 0.000000000000D+00 0.602025943987D-05 0.000000000000D+00  6 -1 1 25 23 21 21 4 0.65294805D-02 0.98647662D-01 0.26977778D+05 0.26977778D+05 0.26977778D+05 0.12197683D+01  1  2 15  3  6  5       21 0.214051350930D-02 0.100000000000D+01
0.638178442759D-05 0.000000000000D+00 0.000000000000D+00 0.604546749407D-05 0.000000000000D+00  6 -1 1 25 23 21 21 4 0.65294805D-02 0.98647662D-01 0.25531470D+05 0.25531470D+05 0.25531470D+05 0.12223194D+01  1  2 12  3  6  5       21 0.525007244566D-02 0.100000000000D+01
0.623958584941D-05 0.000000000000D+00 0.000000000000D+00 0.604546749407D-05 0.000000000000D+00  6 -1 1 25 23 21 21 4 0.65294805D-02 0.98647662D-01 0.25531470D+05 0.25531470D+05 0.25531470D+05 0.12223194D+01  1  2 12  3  6  5       21 0.513309061313D-02 0.100000000000D+01
-.343999921842D-04 0.000000000000D+00 0.000000000000D+00 0.602025943987D-05 0.000000000000D+00  6 -1 1 25 23 21 21 4 0.65294805D-02 0.98647662D-01 0.26977778D+05 0.26977778D+05 0.26977778D+05 0.12197683D+01  1  2  4  3  6  5       21 -.280921621922D-01 0.100000000000D+01
-.841863588084D-05 0.000000000000D+00 0.000000000000D+00 0.602025943987D-05 0.000000000000D+00  6 -1 1 25 23 21 21 4 0.65294805D-02 0.98647662D-01 0.26977778D+05 0.26977778D+05 0.26977778D+05 0.12197683D+01  1  2  5  3  6  5       21 -.687493425392D-02 0.100000000000D+01
0.387075514696D-04 0.000000000000D+00 -.000000000000D+00 0.602025943987D-05 0.000000000000D+00  6 -1 1 25 23 21 21 4 0.65294805D-02 0.98647662D-01 0.26977778D+05 0.26977778D+05 0.26977778D+05 0.12197683D+01  1  2  6  3  6  5       21 0.316098564246D-01 0.100000000000D+01
0.670893831834D-06 0.000000000000D+00 0.000000000000D+00 0.604546749407D-05 0.000000000000D+00  6 -1 1 25 23 1 -1 4 0.65294805D-02 0.98647662D-01 0.25531470D+05 0.25531470D+05 0.25531470D+05 0.12223194D+01  1  2 12  6  6  5       21 0.551921059138D-03 0.100000000000D+01
0.659962714641D-06 0.000000000000D+00 0.000000000000D+00 0.604546749407D-05 0.000000000000D+00  6 -1 1 25 23 1 -1 4 0.65294805D-02 0.98647662D-01 0.25531470D+05 0.25531470D+05 0.25531470D+05 0.12223194D+01  1  2 12  6  6  5       21 0.542928408599D-03 0.100000000000D+01
-.462307910665D-06 0.000000000000D+00 0.000000000000D+00 0.602025943987D-05 0.000000000000D+00  6 -1 1 25 23 1 -1 4 0.65294805D-02 0.98647662D-01 0.26977778D+05 0.26977778D+05 0.26977778D+05 0.12197683D+01  1  2  5  6  6  5       21 -.377535806974D-03 0.100000000000D+01
0.670893831834D-06 0.000000000000D+00 0.000000000000D+00 0.604546749407D-05 0.000000000000D+00  6 -1 1 25 23 2 -2 4 0.65294805D-02 0.98647662D-01 0.25531470D+05 0.25531470D+05 0.25531470D+05 0.12223194D+01  1  2 12  7  6  5       21 0.551921059138D-03 0.100000000000D+01
0.670893831834D-06 0.000000000000D+00 0.000000000000D+00 0.604546749407D-05 0.000000000000D+00  6 -1 1 25 23 4 -4 4 0.65294805D-02 0.98647662D-01 0.25531470D+05 0.25531470D+05 0.25531470D+05 0.12223194D+01  1  2 12  7  6  5       21 0.551921059138D-03 0.100000000000D+01
0.659962714641D-06 0.000000000000D+00 0.000000000000D+00 0.604546749407D-05 0.000000000000D+00  6 -1 1 25 23 2 -2 4 0.65294805D-02 0.98647662D-01 0.25531470D+05 0.25531470D+05 0.25531470D+05 0.12223194D+01  1  2 12  7  6  5       21 0.542928408599D-03 0.100000000000D+01
0.659962714641D-06 0.000000000000D+00 0.000000000000D+00 0.604546749407D-05 0.000000000000D+00  6 -1 1 25 23 4 -4 4 0.65294805D-02 0.98647662D-01 0.25531470D+05 0.25531470D+05 0.25531470D+05 0.12223194D+01  1  2 12  7  6  5       21 0.542928408599D-03 0.100000000000D+01
-.462307910665D-06 0.000000000000D+00 0.000000000000D+00 0.602025943987D-05 0.000000000000D+00  6 -1 1 25 23 2 -2 4 0.65294805D-02 0.98647662D-01 0.26977778D+05 0.26977778D+05 0.26977778D+05 0.12197683D+01  1  2  5  7  6  5       21 -.377535806974D-03 0.100000000000D+01
-.462307910665D-06 0.000000000000D+00 0.000000000000D+00 0.602025943987D-05 0.000000000000D+00  6 -1 1 25 23 4 -4 4 0.65294805D-02 0.98647662D-01 0.26977778D+05 0.26977778D+05 0.26977778D+05 0.12197683D+01  1  2  5  7  6  5       21 -.377535806974D-03 0.100000000000D+01
0.670893831834D-06 0.000000000000D+00 0.000000000000D+00 0.604546749407D-05 0.000000000000D+00  6 -1 1 25 23 3 -3 4 0.65294805D-02 0.98647662D-01 0.25531470D+05 0.25531470D+05 0.25531470D+05 0.12223194D+01  1  2 12  8  6  5       21 0.551921059138D-03 0.100000000000D+01
0.659962714641D-06 0.000000000000D+00 0.000000000000D+00 0.604546749407D-05 0.000000000000D+00  6 -1 1 25 23 3 -3 4 0.65294805D-02 0.98647662D-01 0.25531470D+05 0.25531470D+05 0.25531470D+05 0.12223194D+01  1  2 12  8  6  5       21 0.542928408599D-03 0.100000000000D+01
-.462307910665D-06 0.000000000000D+00 0.000000000000D+00 0.602025943987D-05 0.000000000000D+00  6 -1 1 25 23 3 -3 4 0.65294805D-02 0.98647662D-01 0.26977778D+05 0.26977778D+05 0.26977778D+05 0.12197683D+01  1  2  5  8  6  5       21 -.377535806974D-03 0.100000000000D+01
  </mgrwgt>
  </event>
  <event>
  5     66 0.44820762E-03 0.52643528E+02 0.75467711E-02 0.11410202E+00
       -1 -1    0    0    0  501 0.00000000E+00 0.00000000E+00 0.60234874E+02 0.60235724E+02 0.32000000E+00 0.0000E+00 0.9000E+01
        1 -1    0    0  502    0 -.00000000E+00 -.00000000E+00 -.76440181E+03 0.76440188E+03 0.32000000E+00 0.0000E+00 0.9000E+01
       25  1    1    2    0    0 0.53499120E+02 -.16009915E+03 -.39197684E+03 0.44470747E+03 0.12500000E+03 0.0000E+00 0.9000E+01
       23  1    1    2    0    0 -.10218512E+02 0.13013802E+03 -.19720574E+03 0.25346731E+03 0.91188000E+02 0.0000E+00 0.9000E+01
       21  1    1    2  502  501 -.43280608E+02 0.29961122E+02 -.11498436E+03 0.12646282E+03 0.75000000E+00 0.0000E+00 0.9000E+01
#aMCatNLO 1  0  0  5  2 0.13306539D+02 0.00000000D+00  -5  6  0 0.00000000D+00 0.00000000D+00 0.00000000D+00 0.00000000D+00 0.00000000D+00
  <mgrwgt>
 0.5077755702D-01   20    2    0
 0.214578715860391D+03 0.000000000000000D+00 0.000000000000000D+00 0.214578715860391D+03
 0.214578715860391D+03 -.000000000000000D+00 -.000000000000000D+00 -.214578715860391D+03
 0.211358381183410D+03 0.535011510367373D+02 -.160100551075079D+03 -.235118199991354D+02
 0.163465766204538D+03 -.102169414209879D+02 0.130136935563942D+03 0.369566974561162D+02
 0.543332843328339D+02 -.432842096157494D+02 0.299636155111363D+02 -.134448774569808D+02
 0.000000000000000D+00 0.000000000000000D+00 0.000000000000000D+00 0.000000000000000D+00
 0.214578715860391D+03 0.000000000000000D+00 0.000000000000000D+00 0.214578715860391D+03
 0.214578715860391D+03 -.000000000000000D+00 -.000000000000000D+00 -.214578715860391D+03
 0.209306509583783D+03 0.507137733460694D+02 -.158170981050607D+03 -.243776311531346D+02
 0.164665600033464D+03 -.123911805123277D+02 0.131642058673283D+03 0.362813385110241D+02
 0.233215098719356D+02 -.210731695078565D+02 -.193599905321889D+00 -.998883720342827D+01
 0.318638122315986D+02 -.172494233258851D+02 0.267225222826465D+02 -.191487015446122D+01
0.152925646168D-03 0.000000000000D+00 0.000000000000D+00 0.414426919568D-05 0.000000000000D+00  6 -1 1 25 23 21 21 2 0.92669743D-02 0.11760035D+00 0.44504848D+05 0.44504848D+05 0.44504848D+05 0.11973220D+01  1  2  2  3  6  5       21 0.370667712695D-01 0.100000000000D+01
0.139837779459D-04 0.807010806197D-05 -.587274747531D-06 0.414426919568D-05 0.000000000000D+00  6 -1 1 25 23 21 21 4 0.92669743D-02 0.11760035D+00 0.44504848D+05 0.44504848D+05 0.44504848D+05 0.11973220D+01  1  2  3  3  6  5       21 0.485904431087D-02 0.100000000000D+01
0.303669488622D-05 0.000000000000D+00 0.000000000000D+00 0.414426919568D-05 0.000000000000D+00  6 -1 1 25 23 21 21 4 0.92669743D-02 0.11760035D+00 0.44504848D+05 0.44504848D+05 0.44504848D+05 0.11973220D+01  1  2 15  3  6  5       21 0.105518230251D-02 0.100000000000D+01
0.463071235581D-04 0.000000000000D+00 0.000000000000D+00 0.414504516410D-05 0.000000000000D+00  6 -1 1 25 23 21 21 4 0.92669743D-02 0.11760035D+00 0.44390531D+05 0.44390531D+05 0.44390531D+05 0.11974341D+01  1  2 12  3  6  5       21 0.160964733127D-01 0.100000000000D+01
0.454136612164D-04 0.000000000000D+00 0.000000000000D+00 0.414504516410D-05 0.000000000000D+00  6 -1 1 25 23 21 21 4 0.92669743D-02 0.11760035D+00 0.44390531D+05 0.44390531D+05 0.44390531D+05 0.11974341D+01  1  2 12  3  6  5       21 0.157859035422D-01 0.100000000000D+01
-.225588504384D-03 0.000000000000D+00 0.000000000000D+00 0.414426919568D-05 0.000000000000D+00  6 -1 1 25 23 21 21 4 0.92669743D-02 0.11760035D+00 0.44504848D+05 0.44504848D+05 0.44504848D+05 0.11973220D+01  1  2  4  3  6  5       21 -.783868667727D-01 0.100000000000D+01
-.720045207062D-04 0.000000000000D+00 0.000000000000D+00 0.414426919568D-05 0.000000000000D+00  6 -1 1 25 23 21 21 4 0.92669743D-02 0.11760035D+00 0.44504848D+05 0.44504848D+05 0.44504848D+05 0.11973220D+01  1  2  5  3  6  5       21 -.250199308119D-01 0.100000000000D+01
0.236307350655D-03 0.000000000000D+00 -.000000000000D+00 0.414426919568D-05 0.000000000000D+00  6 -1 1 25 23 21 21 4 0.92669743D-02 0.11760035D+00 0.44504848D+05 0.44504848D+05 0.44504848D+05 0.11973220D+01  1  2  6  3  6  5       21 0.821114216960D-01 0.100000000000D+01
0.242826016151D-05 0.000000000000D+00 0.000000000000D+00 0.414504516410D-05 0.000000000000D+00  6 -1 1 25 23 1 -1 4 0.92669743D-02 0.11760035D+00 0.44390531D+05 0.44390531D+05 0.44390531D+05 0.11974341D+01  1  2 12  6  6  5       21 0.844069376002D-03 0.100000000000D+01
0.238319498979D-05 0.000000000000D+00 0.000000000000D+00 0.414504516410D-05 0.000000000000D+00  6 -1 1 25 23 1 -1 4 0.92669743D-02 0.11760035D+00 0.44390531D+05 0.44390531D+05 0.44390531D+05 0.11974341D+01  1  2 12  6  6  5       21 0.828404608290D-03 0.100000000000D+01
-.682083398255D-05 0.000000000000D+00 0.000000000000D+00 0.414426919568D-05 0.000000000000D+00  6 -1 1 25 23 1 -1 4 0.92669743D-02 0.11760035D+00 0.44504848D+05 0.44504848D+05 0.44504848D+05 0.11973220D+01  1  2  5  6  6  5       21 -.237008444260D-02 0.100000000000D+01
0.242826016151D-05 0.000000000000D+00 0.000000000000D+00 0.414504516410D-05 0.000000000000D+00  6 -1 1 25 23 2 -2 4 0.92669743D-02 0.11760035D+00 0.44390531D+05 0.44390531D+05 0.44390531D+05 0.11974341D+01  1  2 12  7  6  5       21 0.844069376002D-03 0.100000000000D+01
0.242826016151D-05 0.000000000000D+00 0.000000000000D+00 0.414504516410D-05 0.000000000000D+00  6 -1 1 25 23 4 -4 4 0.92669743D-02 0.11760035D+00 0.44390531D+05 0.44390531D+05 0.44390531D+05 0.11974341D+01  1  2 12  7  6  5       21 0.844069376002D-03 0.100000000000D+01
0.238319498979D-05 0.000000000000D+00 0.000000000000D+00 0.414504516410D-05 0.000000000000D+00  6 -1 1 25 23 2 -2 4 0.92669743D-02 0.11760035D+00 0.44390531D+05 0.44390531D+05 0.44390531D+05 0.11974341D+01  1  2 12  7  6  5       21 0.828404608290D-03 0.100000000000D+01
0.238319498979D-05 0.000000000000D+00 0.000000000000D+00 0.414504516410D-05 0.000000000000D+00  6 -1 1 25 23 4 -4 4 0.92669743D-02 0.11760035D+00 0.44390531D+05 0.44390531D+05 0.44390531D+05 0.11974341D+01  1  2 12  7  6  5       21 0.828404608290D-03 0.100000000000D+01
-.682083398255D-05 0.000000000000D+00 0.000000000000D+00 0.414426919568D-05 0.000000000000D+00  6 -1 1 25 23 2 -2 4 0.92669743D-02 0.11760035D+00 0.44504848D+05 0.44504848D+05 0.44504848D+05 0.11973220D+01  1  2  5  7  6  5       21 -.237008444260D-02 0.100000000000D+01
-.682083398255D-05 0.000000000000D+00 0.000000000000D+00 0.414426919568D-05 0.000000000000D+00  6 -1 1 25 23 4 -4 4 0.92669743D-02 0.11760035D+00 0.44504848D+05 0.44504848D+05 0.44504848D+05 0.11973220D+01  1  2  5  7  6  5       21 -.237008444260D-02 0.100000000000D+01
0.242826016151D-05 0.000000000000D+00 0.000000000000D+00 0.414504516410D-05 0.000000000000D+00  6 -1 1 25 23 3 -3 4 0.92669743D-02 0.11760035D+00 0.44390531D+05 0.44390531D+05 0.44390531D+05 0.11974341D+01  1  2 12  8  6  5       21 0.844069376002D-03 0.100000000000D+01
0.238319498979D-05 0.000000000000D+00 0.000000000000D+00 0.414504516410D-05 0.000000000000D+00  6 -1 1 25 23 3 -3 4 0.92669743D-02 0.11760035D+00 0.44390531D+05 0.44390531D+05 0.44390531D+05 0.11974341D+01  1  2 12  8  6  5       21 0.828404608290D-03 0.100000000000D+01
-.682083398255D-05 0.000000000000D+00 0.000000000000D+00 0.414426919568D-05 0.000000000000D+00  6 -1 1 25 23 3 -3 4 0.92669743D-02 0.11760035D+00 0.44504848D+05 0.44504848D+05 0.44504848D+05 0.11973220D+01  1  2  5  8  6  5       21 -.237008444260D-02 0.100000000000D+01
  </mgrwgt>
  </event>
  <event>
  5     66 0.44820762E-03 0.33015681E+02 0.75467711E-02 0.11892163E+00
       -1 -1    0    0    0  501 0.00000000E+00 0.00000000E+00 0.44437601E+02 0.44438753E+02 0.32000000E+00 0.0000E+00 0.9000E+01
        1 -1    0    0  502    0 0.00000000E+00 0.00000000E+00 -.42517213E+03 0.42517225E+03 0.32000000E+00 0.0000E+00 0.9000E+01
       25  1    1    2    0    0 0.13578225E+02 0.19362724E+02 -.12360773E+03 0.17737856E+03 0.12500000E+03 0.0000E+00 0.9000E+01
       23  1    1    2    0    0 -.46546506E+02 -.21018818E+02 -.17676836E+03 0.20535499E+03 0.91188000E+02 0.0000E+00 0.9000E+01
       21  1    1    2  502  501 0.32968280E+02 0.16560946E+01 -.80358432E+02 0.86877444E+02 0.75000000E+00 0.0000E+00 0.9000E+01
#aMCatNLO 1  0  0  1  5 0.34449568D+02 0.00000000D+00  -5  6  0 0.00000000D+00 0.00000000D+00 0.00000000D+00 0.00000000D+00 0.00000000D+00
  <mgrwgt>
 0.7506606079D-01    4    2    0
 0.137455185643794D+03 0.000000000000000D+00 0.000000000000000D+00 0.137455185643794D+03
 0.137455185643794D+03 0.000000000000000D+00 0.000000000000000D+00 -.137455185643794D+03
 0.131814651747611D+03 0.135749969294592D+02 0.193625614167779D+02 0.345096086487608D+02
 0.105981468471735D+03 -.465491014697796D+02 -.210189485732417D+02 -.175557759343436D+02
 0.371142510682422D+02 0.329741045403203D+02 0.165638715646380D+01 -.169538327144172D+02
 0.000000000000000D+00 -.000000000000000D+00 0.000000000000000D+00 -.000000000000000D+00
 0.147866094594763D+03 0.000000000000000D+00 0.000000000000000D+00 0.147866094594763D+03
 0.214285645854315D+03 0.000000000000000D+00 0.000000000000000D+00 -.214285645854315D+03
 0.132431376364593D+03 0.268726848215430D+02 -.123155234335044D+00 0.345096086487608D+02
 0.106086592891586D+03 -.358771723133221D+02 -.366570195936388D+02 -.175557759343436D+02
 0.408097488867406D+02 0.368954843169886D+02 -.408979186575935D+01 -.169538327144172D+02
 0.828240223061586D+02 -.278909968252096D+02 0.408699666937332D+02 -.664195512595526D+02
0.743038735117D-04 0.000000000000D+00 0.000000000000D+00 0.165180605098D-04 0.000000000000D+00  6 -1 1 25 23 21 21 2 0.68366519D-02 0.65411194D-01 0.17523151D+05 0.17523151D+05 0.17523151D+05 0.12401978D+01  1  2  2  1  6  1       -1 0.671092630761D-01 0.100000000000D+01
0.609538680390D-05 0.392112313199D-05 -.285346438944D-06 0.165180605098D-04 0.000000000000D+00  6 -1 1 25 23 21 21 4 0.68366519D-02 0.65411194D-01 0.17523151D+05 0.17523151D+05 0.17523151D+05 0.12401978D+01  1  2  3  1  6  1       -1 0.846747999469D-02 0.100000000000D+01
0.331010822858D-05 0.000000000000D+00 0.000000000000D+00 0.165180605098D-04 0.000000000000D+00  6 -1 1 25 23 21 21 4 0.68366519D-02 0.65411194D-01 0.17523151D+05 0.17523151D+05 0.17523151D+05 0.12401978D+01  1  2 15  1  6  1       -1 0.459827671443D-02 0.100000000000D+01
-.367772717315D-05 0.000000000000D+00 0.000000000000D+00 0.165180605098D-04 0.000000000000D+00  6 -1 1 25 23 21 21 4 0.68366519D-02 0.65411194D-01 0.17523151D+05 0.17523151D+05 0.17523151D+05 0.12401978D+01  1  2  4  1  6  1       -1 -.510895899907D-02 0.100000000000D+01
  </mgrwgt>
  </event>
  <event>
  5     66 0.44820762E-03 0.36627636E+02 0.75467711E-02 0.12197977E+00
       -1 -1    0    0    0  501 0.00000000E+00 0.00000000E+00 0.42179763E+02 0.42180976E+02 0.32000000E+00 0.0000E+00 0.9000E+01
        1 -1    0    0  502    0 0.00000000E+00 0.00000000E+00 -.44321228E+03 0.44321240E+03 0.32000000E+00 0.0000E+00 0.9000E+01
       25  1    1    2    0    0 0.20091922E+02 -.14036972E+02 -.16686002E+03 0.20992376E+03 0.12500000E+03 0.0000E+00 0.9000E+01
       23  1    1    2    0    0 -.53781915E+02 -.32119726E+00 -.14925600E+03 0.18298962E+03 0.91188000E+02 0.0000E+00 0.9000E+01
       21  1    1    2  502  501 0.33689993E+02 0.14358169E+02 -.84916504E+02 0.92479986E+02 0.75000000E+00 0.0000E+00 0.9000E+01
#aMCatNLO 1  0  0  2  2 0.71913695D+00 0.00000000D+00  -5  6  0 0.00000000D+00 0.00000000D+00 0.00000000D+00 0.00000000D+00 0.00000000D+00
  <mgrwgt>
 0.7973019426D-01   10    4    0
 0.136729336315120D+03 0.000000000000000D+00 0.000000000000000D+00 0.136729336315120D+03
 0.136729336315120D+03 0.000000000000000D+00 0.000000000000000D+00 -.136729336315120D+03
 0.127914239012417D+03 0.200890977117791D+02 -.140381751270727D+02 0.116794834797581D+02
 0.105923778918400D+03 -.537842536188536D+02 -.322193919200960D+00 0.342722192094749D+01
 0.396206546994234D+02 0.336951559070745D+02 0.143603690462736D+02 -.151067054007056D+02
 0.000000000000000D+00 -.000000000000000D+00 0.000000000000000D+00 -.000000000000000D+00
 0.136877087860902D+03 0.000000000000000D+00 0.000000000000000D+00 0.136877087860902D+03
 0.137607664779132D+03 0.000000000000000D+00 0.000000000000000D+00 -.137607664779132D+03
 0.127977321540466D+03 0.203117916714809D+02 -.142904028428951D+02 0.116794834797581D+02
 0.105831166876911D+03 -.535999702948405D+02 -.530916966481843D+00 0.342722192094749D+01
 0.396511297982710D+02 0.337641435186404D+02 0.142822322718922D+02 -.151067054007056D+02
 0.102513442438635D+01 -.475964895280784D+00 0.539087537484732D+00 -.730576918230339D+00
 0.136729336315120D+03 0.000000000000000D+00 0.000000000000000D+00 0.136729336315120D+03
 0.136729336315120D+03 0.000000000000000D+00 0.000000000000000D+00 -.136729336315120D+03
 0.127914239012417D+03 0.200890977117791D+02 -.140381751270727D+02 0.116794834797581D+02
 0.105923778918400D+03 -.537842536188536D+02 -.322193919200960D+00 0.342722192094749D+01
 0.000000000000000D+00 -.000000000000000D+00 0.000000000000000D+00 -.000000000000000D+00
 0.396206546994234D+02 0.336951559070745D+02 0.143603690462736D+02 -.151067054007056D+02
 0.136877087860902D+03 0.000000000000000D+00 0.000000000000000D+00 0.136877087860902D+03
 0.137607664779132D+03 0.000000000000000D+00 0.000000000000000D+00 -.137607664779132D+03
 0.127977321540466D+03 0.203117916714809D+02 -.142904028428951D+02 0.116794834797581D+02
 0.105831166876911D+03 -.535999702948405D+02 -.530916966481843D+00 0.342722192094749D+01
 0.102513442438635D+01 -.475964895280784D+00 0.539087537484732D+00 -.730576918230339D+00
 0.396511297982710D+02 0.337641435186404D+02 0.142822322718922D+02 -.151067054007056D+02
0.255340211146D-04 0.000000000000D+00 0.000000000000D+00 0.141980530747D-04 0.000000000000D+00  6 -1 1 25 23 21 21 2 0.64892965D-02 0.68186607D-01 0.18208246D+05 0.18208246D+05 0.18208246D+05 0.12383390D+01  1  2  2  2  6  2        1 0.236025827806D-01 0.100000000000D+01
0.169321033913D-05 0.134746731379D-05 -.980573643423D-07 0.141980530747D-04 0.000000000000D+00  6 -1 1 25 23 21 21 4 0.64892965D-02 0.68186607D-01 0.18208246D+05 0.18208246D+05 0.18208246D+05 0.12383390D+01  1  2  3  2  6  2        1 0.240010537175D-02 0.100000000000D+01
0.118716457975D-05 0.000000000000D+00 0.000000000000D+00 0.141980530747D-04 0.000000000000D+00  6 -1 1 25 23 21 21 4 0.64892965D-02 0.68186607D-01 0.18208246D+05 0.18208246D+05 0.18208246D+05 0.12383390D+01  1  2 15  2  6  2        1 0.168279157005D-02 0.100000000000D+01
-.123836305560D-02 0.000000000000D+00 0.000000000000D+00 0.141980530747D-04 0.000000000000D+00  6 -1 1 25 23 21 21 4 0.64892965D-02 0.68186607D-01 0.18208246D+05 0.18208246D+05 0.18208246D+05 0.12383390D+01  1  2  4  2  6  2        1 -.175536479624D+01 0.100000000000D+01
-.111341798609D-01 0.000000000000D+00 -.881733054986D-03 0.141980530747D-04 0.000000000000D+00  6 -1 1 25 23 21 21 4 0.64892965D-02 0.68675533D-01 0.18208246D+05 0.18208246D+05 0.18208246D+05 0.12383390D+01  1  2  5  2  6  2        1 -.156391256098D+02 0.100000000000D+01
0.111402178512D-01 0.000000000000D+00 0.881710549849D-03 0.141980530747D-04 0.000000000000D+00  6 -1 1 25 23 21 21 4 0.64892965D-02 0.68186607D-01 0.18208246D+05 0.18208246D+05 0.18208246D+05 0.12383390D+01  1  2  6  2  6  2        1 0.157911253489D+02 0.100000000000D+01
0.122255840248D-02 0.000000000000D+00 0.000000000000D+00 0.141980530747D-04 0.834933909467D-04  6 -1 1 25 23 21 21 4 0.64963089D-02 0.68624627D-01 0.18305908D+05 0.18305908D+05 0.18305908D+05 0.12380804D+01  1  2 11  2  6  2        1 0.171489710583D+01 0.100000000000D+01
0.129563878914D-11 0.000000000000D+00 0.000000000000D+00 0.141921242304D-04 0.000000000000D+00  6 -1 21 25 23 -1 21 4 0.64892965D-02 0.69034236D-01 0.18305908D+05 0.18305908D+05 0.18305908D+05 0.12380804D+01  3  4 12  5  5  2        1 0.612241907663D-08 0.100000000000D+01
-.147406462483D-04 0.000000000000D+00 -.116865953290D-05 0.141980530747D-04 0.000000000000D+00  6 -1 21 25 23 -1 21 4 0.64892965D-02 0.68675533D-01 0.18208246D+05 0.18208246D+05 0.18208246D+05 0.12383390D+01  3  4  5  5  5  2        1 -.705079119543D-01 0.100000000000D+01
0.230589654656D-05 0.000000000000D+00 0.000000000000D+00 0.141980530747D-04 0.304919559130D-06  6 -1 21 25 23 -1 21 4 0.64963089D-02 0.68624627D-01 0.18305908D+05 0.18305908D+05 0.18305908D+05 0.12380804D+01  3  4 11  5  5  2        1 0.110205717260D-01 0.100000000000D+01
  </mgrwgt>
  </event>
  <event>
  5     66 -.44820762E-03 0.21620154E+02 0.75467711E-02 0.11884757E+00
       -1 -1    0    0    0  501 0.00000000E+00 0.00000000E+00 0.66020907E+03 0.66020915E+03 0.32000000E+00 0.0000E+00 0.9000E+01
        1 -1    0    0  502    0 0.00000000E+00 0.00000000E+00 -.40583354E+02 0.40584616E+02 0.32000000E+00 0.0000E+00 0.9000E+01
       25  1    1    2    0    0 0.92513993E+02 0.99825260E+01 0.36990211E+03 0.40138643E+03 0.12500000E+03 0.0000E+00 0.9000E+01
       23  1    1    2    0    0 -.10694308E+03 -.26069499E+02 0.22497262E+03 0.26654150E+03 0.91188000E+02 0.0000E+00 0.9000E+01
       21  1    1    2  502  501 0.14429092E+02 0.16086973E+02 0.24750988E+02 0.32865838E+02 0.75000000E+00 0.0000E+00 0.9000E+01
#aMCatNLO 1  0  0  5  1 0.16581167D+02 0.00000000D+00  -5  6  0 0.00000000D+00 0.00000000D+00 0.00000000D+00 0.00000000D+00 0.00000000D+00
  <mgrwgt>
 -.1520775036D-01    1    2    0
 0.163688630283450D+03 0.000000000000000D+00 0.000000000000000D+00 0.163688630283450D+03
 0.163688630283450D+03 -.000000000000000D+00 -.000000000000000D+00 -.163688630283450D+03
 0.159105832334560D+03 0.925104209918773D+02 0.997854371976273D+01 0.321234580332127D+02
 0.144764773244290D+03 -.106946334340559D+03 -.260731224786052D+02 -.228967701609583D+02
 0.235066549880501D+02 0.144359133486812D+02 0.160945787588425D+02 -.922668787225441D+01
 0.000000000000000D+00 0.000000000000000D+00 0.000000000000000D+00 0.000000000000000D+00
 0.163688630283450D+03 0.000000000000000D+00 0.000000000000000D+00 0.163688630283450D+03
 0.163688630283450D+03 -.000000000000000D+00 -.000000000000000D+00 -.163688630283450D+03
 0.159809478569326D+03 0.938326693383502D+02 0.114527164746858D+02 0.312783453972585D+02
 0.143771415637690D+03 -.105750040259959D+03 -.247393759511851D+02 -.236613793559922D+02
 0.207311603701030D+02 0.106478062444721D+02 0.146924396713134D+02 -.100268364390733D+02
 0.306520598978139D+01 0.126956467713700D+01 -.140578019481412D+01 0.240987039780693D+01
-.580954448180D-04 0.000000000000D+00 0.000000000000D+00 0.286093170066D-04 0.000000000000D+00  6 -1 1 25 23 21 21 4 0.10157073D+00 0.62436959D-02 0.25662751D+05 0.25662751D+05 0.25662751D+05 0.12220812D+01  1  2 14  3  6  5       21 -.152077503598D-01 0.100000000000D+01
  </mgrwgt>
  </event>
  <event>
  5     66 0.44820762E-03 0.21270193E+02 0.75467711E-02 0.12319156E+00
       -1 -1    0    0    0  501 0.00000000E+00 0.00000000E+00 0.10958260E+03 0.10958307E+03 0.32000000E+00 0.0000E+00 0.9000E+01
        1 -1    0    0  502    0 -.00000000E+00 -.00000000E+00 -.19039258E+03 0.19039285E+03 0.32000000E+00 0.0000E+00 0.9000E+01
       25  1    1    2    0    0 0.17837430E+02 -.27851200E+02 0.17798365E+02 0.13052067E+03 0.12500000E+03 0.0000E+00 0.9000E+01
       23  1    1    2    0    0 -.39034732E+02 0.29577778E+02 -.47092091E+02 0.11371663E+03 0.91188000E+02 0.0000E+00 0.9000E+01
       21  1    1    2  502  501 0.21197302E+02 -.17265773E+01 -.51516253E+02 0.55738618E+02 0.75000000E+00 0.0000E+00 0.9000E+01
#aMCatNLO 1  0  0  5  2 0.77143949D+01 0.00000000D+00  -5  6  0 0.00000000D+00 0.00000000D+00 0.00000000D+00 0.00000000D+00 0.00000000D+00
  <mgrwgt>
 0.3000789260D+00   20    2    0
 0.144443152506269D+03 0.000000000000000D+00 0.000000000000000D+00 0.144443152506269D+03
 0.144443152506269D+03 -.000000000000000D+00 -.000000000000000D+00 -.144443152506269D+03
 0.140510605408314D+03 0.178358951402830D+02 -.278510752255111D+02 0.549948059869162D+02
 0.104908999690101D+03 -.390358784828424D+02 0.295778709406219D+02 -.170879084053694D+02
 0.434666999141227D+02 0.211999833425593D+02 -.172679571511080D+01 -.379068975815468D+02
 0.000000000000000D+00 0.000000000000000D+00 0.000000000000000D+00 0.000000000000000D+00
 0.144443152506269D+03 0.000000000000000D+00 0.000000000000000D+00 0.144443152506269D+03
 0.144443152506269D+03 -.000000000000000D+00 -.000000000000000D+00 -.144443152506269D+03
 0.140077045734235D+03 0.186303820461722D+02 -.279157883228109D+02 0.535742136550835D+02
 0.104854394534626D+03 -.384419312105095D+02 0.295294923363422D+02 -.181499233162945D+02
 0.139555235838868D+02 0.267198259775118D+01 -.743780540214452D+01 -.115020084462482D+02
 0.299993411597899D+02 0.171395665665860D+02 0.582410138861322D+01 -.239222818925408D+02
0.225444171184D-03 0.000000000000D+00 0.000000000000D+00 0.387834984274D-04 0.000000000000D+00  6 -1 1 25 23 21 21 2 0.16858918D-01 0.29291223D-01 0.16139082D+05 0.16139082D+05 0.16139082D+05 0.12442149D+01  1  2  2  3  6  5       21 0.138975380394D+00 0.100000000000D+01
0.309560552816D-04 0.118970157654D-04 -.865764978161D-06 0.387834984274D-04 0.000000000000D+00  6 -1 1 25 23 21 21 4 0.16858918D-01 0.29291223D-01 0.16139082D+05 0.16139082D+05 0.16139082D+05 0.12442149D+01  1  2  3  3  6  5       21 0.295416864492D-01 0.100000000000D+01
0.897546749103D-05 0.000000000000D+00 0.000000000000D+00 0.387834984274D-04 0.000000000000D+00  6 -1 1 25 23 21 21 4 0.16858918D-01 0.29291223D-01 0.16139082D+05 0.16139082D+05 0.16139082D+05 0.12442149D+01  1  2 15  3  6  5       21 0.856538224729D-02 0.100000000000D+01
0.586159738863D-04 0.000000000000D+00 0.000000000000D+00 0.386734625553D-04 0.000000000000D+00  6 -1 1 25 23 21 21 4 0.16858918D-01 0.29291223D-01 0.16731940D+05 0.16731940D+05 0.16731940D+05 0.12424486D+01  1  2 12  3  6  5       21 0.556783009838D-01 0.100000000000D+01
0.436282143085D-04 0.000000000000D+00 0.000000000000D+00 0.386734625553D-04 0.000000000000D+00  6 -1 1 25 23 21 21 4 0.16858918D-01 0.29291223D-01 0.16731940D+05 0.16731940D+05 0.16731940D+05 0.12424486D+01  1  2 12  3  6  5       21 0.414416870796D-01 0.100000000000D+01
-.272434013820D-03 0.000000000000D+00 0.000000000000D+00 0.387834984274D-04 0.000000000000D+00  6 -1 1 25 23 21 21 4 0.16858918D-01 0.29291223D-01 0.16139082D+05 0.16139082D+05 0.16139082D+05 0.12442149D+01  1  2  4  3  6  5       21 -.259986621071D+00 0.100000000000D+01
-.950957235618D-04 0.000000000000D+00 0.000000000000D+00 0.387834984274D-04 0.000000000000D+00  6 -1 1 25 23 21 21 4 0.16858918D-01 0.29291223D-01 0.16139082D+05 0.16139082D+05 0.16139082D+05 0.12442149D+01  1  2  5  3  6  5       21 -.907508409120D-01 0.100000000000D+01
0.417394607168D-03 0.000000000000D+00 -.000000000000D+00 0.387834984274D-04 0.000000000000D+00  6 -1 1 25 23 21 21 4 0.16858918D-01 0.29291223D-01 0.16139082D+05 0.16139082D+05 0.16139082D+05 0.12442149D+01  1  2  6  3  6  5       21 0.398324027347D+00 0.100000000000D+01
0.555383605465D-05 0.000000000000D+00 0.000000000000D+00 0.386734625553D-04 0.000000000000D+00  6 -1 1 25 23 1 -1 4 0.16858918D-01 0.29291223D-01 0.16731940D+05 0.16731940D+05 0.16731940D+05 0.12424486D+01  1  2 12  6  6  5       21 0.527549292392D-02 0.100000000000D+01
0.432753178109D-05 0.000000000000D+00 0.000000000000D+00 0.386734625553D-04 0.000000000000D+00  6 -1 1 25 23 1 -1 4 0.16858918D-01 0.29291223D-01 0.16731940D+05 0.16731940D+05 0.16731940D+05 0.12424486D+01  1  2 12  6  6  5       21 0.411064767929D-02 0.100000000000D+01
-.155228940701D-04 0.000000000000D+00 0.000000000000D+00 0.387834984274D-04 0.000000000000D+00  6 -1 1 25 23 1 -1 4 0.16858918D-01 0.29291223D-01 0.16139082D+05 0.16139082D+05 0.16139082D+05 0.12442149D+01  1  2  5  6  6  5       21 -.148136597261D-01 0.100000000000D+01
0.555383605465D-05 0.000000000000D+00 0.000000000000D+00 0.386734625553D-04 0.000000000000D+00  6 -1 1 25 23 2 -2 4 0.16858918D-01 0.29291223D-01 0.16731940D+05 0.16731940D+05 0.16731940D+05 0.12424486D+01  1  2 12  7  6  5       21 0.527549292392D-02 0.100000000000D+01
0.555383605465D-05 0.000000000000D+00 0.000000000000D+00 0.386734625553D-04 0.000000000000D+00  6 -1 1 25 23 4 -4 4 0.16858918D-01 0.29291223D-01 0.16731940D+05 0.16731940D+05 0.16731940D+05 0.12424486D+01  1  2 12  7  6  5       21 0.527549292392D-02 0.100000000000D+01
0.432753178109D-05 0.000000000000D+00 0.000000000000D+00 0.386734625553D-04 0.000000000000D+00  6 -1 1 25 23 2 -2 4 0.16858918D-01 0.29291223D-01 0.16731940D+05 0.16731940D+05 0.16731940D+05 0.12424486D+01  1  2 12  7  6  5       21 0.411064767929D-02 0.100000000000D+01
0.432753178109D-05 0.000000000000D+00 0.000000000000D+00 0.386734625553D-04 0.000000000000D+00  6 -1 1 25 23 4 -4 4 0.16858918D-01 0.29291223D-01 0.16731940D+05 0.16731940D+05 0.16731940D+05 0.12424486D+01  1  2 12  7  6  5       21 0.411064767929D-02 0.100000000000D+01
-.155228940701D-04 0.000000000000D+00 0.000000000000D+00 0.387834984274D-04 0.000000000000D+00  6 -1 1 25 23 2 -2 4 0.16858918D-01 0.29291223D-01 0.16139082D+05 0.16139082D+05 0.16139082D+05 0.12442149D+01  1  2  5  7  6  5       21 -.148136597261D-01 0.100000000000D+01
-.155228940701D-04 0.000000000000D+00 0.000000000000D+00 0.387834984274D-04 0.000000000000D+00  6 -1 1 25 23 4 -4 4 0.16858918D-01 0.29291223D-01 0.16139082D+05 0.16139082D+05 0.16139082D+05 0.12442149D+01  1  2  5  7  6  5       21 -.148136597261D-01 0.100000000000D+01
0.555383605465D-05 0.000000000000D+00 0.000000000000D+00 0.386734625553D-04 0.000000000000D+00  6 -1 1 25 23 3 -3 4 0.16858918D-01 0.29291223D-01 0.16731940D+05 0.16731940D+05 0.16731940D+05 0.12424486D+01  1  2 12  8  6  5       21 0.527549292392D-02 0.100000000000D+01
0.432753178109D-05 0.000000000000D+00 0.000000000000D+00 0.386734625553D-04 0.000000000000D+00  6 -1 1 25 23 3 -3 4 0.16858918D-01 0.29291223D-01 0.16731940D+05 0.16731940D+05 0.16731940D+05 0.12424486D+01  1  2 12  8  6  5       21 0.411064767929D-02 0.100000000000D+01
-.155228940701D-04 0.000000000000D+00 0.000000000000D+00 0.387834984274D-04 0.000000000000D+00  6 -1 1 25 23 3 -3 4 0.16858918D-01 0.29291223D-01 0.16139082D+05 0.16139082D+05 0.16139082D+05 0.12442149D+01  1  2  5  8  6  5       21 -.148136597261D-01 0.100000000000D+01
  </mgrwgt>
  </event>
  <event>
  5     66 0.44820762E-03 0.28548736E+02 0.75467711E-02 0.10202412E+00
       -1 -1    0    0    0  501 0.00000000E+00 0.00000000E+00 0.33409197E+03 0.33409212E+03 0.32000000E+00 0.0000E+00 0.9000E+01
        1 -1    0    0  502    0 0.00000000E+00 0.00000000E+00 -.22806755E+03 0.22806777E+03 0.32000000E+00 0.0000E+00 0.9000E+01
       25  1    1    2    0    0 -.52290599E+02 -.33569562E+02 -.10395923E+03 0.17405098E+03 0.12500000E+03 0.0000E+00 0.9000E+01
       23  1    1    2    0    0 0.24102649E+02 0.29045795E+02 -.60739160E+02 0.11588396E+03 0.91188000E+02 0.0000E+00 0.9000E+01
       21  1    1    2  502  501 0.28187949E+02 0.45237677E+01 0.27072281E+03 0.27222495E+03 0.75000000E+00 0.0000E+00 0.9000E+01
#aMCatNLO 1  0  0  2  5 0.87818566D+01 0.00000000D+00  -5  6  0 0.00000000D+00 0.00000000D+00 0.00000000D+00 0.00000000D+00 0.00000000D+00
  <mgrwgt>
 0.9322282684D-01    3    2    0
 0.276035582269821D+03 0.000000000000000D+00 0.000000000000000D+00 0.276035582269821D+03
 0.276035582269821D+03 0.000000000000000D+00 0.000000000000000D+00 -.276035582269821D+03
 0.197197182706613D+03 -.522906545598468D+02 -.335695714042674D+02 -.139285678333638D+03
 0.129666707635553D+03 0.241026126741823D+02 0.290457888272728D+02 -.841047557437975D+02
 0.225207274197476D+03 0.281880418856645D+02 0.452378257699465D+01 0.223390434077436D+03
 0.000000000000000D+00 -.000000000000000D+00 -.000000000000000D+00 0.000000000000000D+00
 0.117989982696734D+04 0.000000000000000D+00 0.000000000000000D+00 0.117989982696734D+04
 0.403955378387056D+03 0.000000000000000D+00 0.000000000000000D+00 -.403955378387056D+03
 0.202394440527367D+03 0.439948674318724D+02 0.632650061817449D+02 -.139285678333638D+03
 0.193048875705159D+03 0.101864098626624D+03 0.107250699481576D+03 -.841047557437975D+02
 0.302628732110752D+03 0.155375306178372D+03 0.132436315607288D+03 0.223390434077436D+03
 0.885783157011123D+03 -.301234272236868D+03 -.302952021270609D+03 0.775944448580289D+03
0.896403035800D-03 0.000000000000D+00 0.000000000000D+00 0.608026347749D-04 0.000000000000D+00  6 -1 1 25 23 21 21 2 0.51398793D-01 0.35087344D-01 0.17799892D+05 0.17799892D+05 0.17799892D+05 0.12394373D+01  1  2  2  2  6  2        1 0.671296425978D-01 0.100000000000D+01
0.192628582748D-03 0.473044878166D-04 -.344242368581D-05 0.608026347749D-04 0.000000000000D+00  6 -1 1 25 23 21 21 4 0.51398793D-01 0.35087344D-01 0.17799892D+05 0.17799892D+05 0.17799892D+05 0.12394373D+01  1  2  3  2  6  2        1 0.221605660745D-01 0.100000000000D+01
0.341839040511D-04 0.000000000000D+00 0.000000000000D+00 0.608026347749D-04 0.000000000000D+00  6 -1 1 25 23 21 21 4 0.51398793D-01 0.35087344D-01 0.17799892D+05 0.17799892D+05 0.17799892D+05 0.12394373D+01  1  2 15  2  6  2        1 0.393261816914D-02 0.100000000000D+01
  </mgrwgt>
  </event>
  <event>
  5     66 0.44820762E-03 0.55094745E+02 0.75467711E-02 0.10307874E+00
       -1 -1    0    0    0  501 0.00000000E+00 0.00000000E+00 0.37461715E+03 0.37461728E+03 0.32000000E+00 0.0000E+00 0.9000E+01
        1 -1    0    0  502    0 0.00000000E+00 0.00000000E+00 -.19912530E+03 0.19912556E+03 0.32000000E+00 0.0000E+00 0.9000E+01
       25  1    1    2    0    0 0.36104358E+02 0.13095114E+03 0.21390351E+03 0.28254458E+03 0.12500000E+03 0.0000E+00 0.9000E+01
       23  1    1    2    0    0 -.70431169E+02 -.87857516E+02 0.76433469E+02 0.16381947E+03 0.91188000E+02 0.0000E+00 0.9000E+01
       21  1    1    2  502  501 0.34326811E+02 -.43093627E+02 -.11484513E+03 0.12737879E+03 0.75000000E+00 0.0000E+00 0.9000E+01
#aMCatNLO 1  0  0  2  5 0.87818566D+01 0.00000000D+00  -5  6  0 0.00000000D+00 0.00000000D+00 0.00000000D+00 0.00000000D+00 0.00000000D+00
  <mgrwgt>
 0.5284872221D-01    3    2    0
 0.273122435651308D+03 0.000000000000000D+00 0.000000000000000D+00 0.273122435651308D+03
 0.273122435651308D+03 0.000000000000000D+00 0.000000000000000D+00 -.273122435651308D+03
 0.228047646453193D+03 0.361042197989489D+02 0.130951315981755D+03 0.133899093380785D+03
 0.147510452412785D+03 -.704312585493735D+02 -.878574031981956D+02 0.276513426336870D+02
 0.170686772436637D+03 0.343270387504247D+02 -.430939127835593D+02 -.161550436014472D+03
 0.000000000000000D+00 -.000000000000000D+00 0.000000000000000D+00 0.000000000000000D+00
 0.938027753179601D+03 0.000000000000000D+00 0.000000000000000D+00 0.938027753179601D+03
 0.374867033693000D+03 0.000000000000000D+00 0.000000000000000D+00 -.374867033693000D+03
 0.192537173115008D+03 0.585313730350290D+02 0.952229980395792D+01 0.133899093380785D+03
 0.222637156342058D+03 -.506936057495501D+02 -.194724455646284D+03 0.276513426336870D+02
 0.234126056947179D+03 0.559131705700250D+02 -.159969323690434D+03 -.161550436014472D+03
 0.663594400468357D+03 -.637509378555039D+02 0.345171479532760D+03 0.563160719486601D+03
0.693543551741D-03 0.000000000000D+00 0.000000000000D+00 0.572322165093D-05 0.000000000000D+00  6 -1 1 25 23 21 21 2 0.57633437D-01 0.30634692D-01 0.36977227D+05 0.36977227D+05 0.36977227D+05 0.12054812D+01  1  2  2  2  6  2        1 0.469673407307D-01 0.100000000000D+01
0.403887032100D-04 0.365992987343D-04 -.266338985290D-05 0.572322165093D-05 0.000000000000D+00  6 -1 1 25 23 21 21 4 0.57633437D-01 0.30634692D-01 0.36977227D+05 0.36977227D+05 0.36977227D+05 0.12054812D+01  1  2  3  2  6  2        1 0.397468789787D-02 0.100000000000D+01
0.193748246304D-04 0.000000000000D+00 0.000000000000D+00 0.572322165093D-05 0.000000000000D+00  6 -1 1 25 23 21 21 4 0.57633437D-01 0.30634692D-01 0.36977227D+05 0.36977227D+05 0.36977227D+05 0.12054812D+01  1  2 15  2  6  2        1 0.190669357670D-02 0.100000000000D+01
  </mgrwgt>
  </event>
  <event>
  5     66 0.44820762E-03 0.25868059E+02 0.75467711E-02 0.12364504E+00
       -1 -1    0    0    0  501 0.00000000E+00 0.00000000E+00 0.95400036E+01 0.95453690E+01 0.32000000E+00 0.0000E+00 0.9000E+01
        1 -1    0    0  502    0 -.00000000E+00 -.00000000E+00 -.17324149E+04 0.17324150E+04 0.32000000E+00 0.0000E+00 0.9000E+01
       25  1    1    2    0    0 -.10761941E+01 0.34746594E+02 -.93112997E+03 0.94012579E+03 0.12500000E+03 0.0000E+00 0.9000E+01
       23  1    1    2    0    0 -.11075285E+02 -.11917833E+02 -.46933839E+03 0.47839155E+03 0.91188000E+02 0.0000E+00 0.9000E+01
       21  1    1    2  502  501 0.12151479E+02 -.22828761E+02 -.32240656E+03 0.32344298E+03 0.75000000E+00 0.0000E+00 0.9000E+01
#aMCatNLO 1  0  0  5  2 0.10411087D+02 0.00000000D+00  -5  6  0 0.00000000D+00 0.00000000D+00 0.00000000D+00 0.00000000D+00 0.00000000D+00
  <mgrwgt>
 0.9980329468D+00   14    2    0
 0.128576605487906D+03 0.000000000000000D+00 0.000000000000000D+00 0.128576605487906D+03
 0.128576605487906D+03 -.000000000000000D+00 -.000000000000000D+00 -.128576605487906D+03
 0.130045227753113D+03 -.107799927628191D+01 0.347499849982168D+02 -.883389617003638D+01
 0.961599536209230D+02 -.110766197242908D+02 -.119153250410765D+02 0.258228360376436D+02
 0.309480296017772D+02 0.121546190005727D+02 -.228346599571402D+02 -.169889398676072D+02
 0.000000000000000D+00 -.000000000000000D+00 0.000000000000000D+00 0.000000000000000D+00
 0.128576605487906D+03 0.000000000000000D+00 0.000000000000000D+00 0.128576605487906D+03
 0.128576605487906D+03 -.000000000000000D+00 -.000000000000000D+00 -.128576605487906D+03
 0.129228881767683D+03 0.118993230204910D+01 0.304892635066744D+02 -.120038641637923D+02
 0.958215853945432D+02 -.939731207728164D+01 -.150702095406295D+02 0.234756084830072D+02
 0.106225736694482D+02 0.982271730397862D+01 -.604808545880229D+00 0.399843753881493D+01
 0.214801701441389D+02 -.161533752874610D+01 -.148142454201646D+02 -.154701818580298D+02
0.929251999676D-03 0.000000000000D+00 0.000000000000D+00 0.291765321542D-04 0.000000000000D+00  6 -1 1 25 23 21 21 2 0.14681079D-02 0.26652579D+00 0.15405867D+05 0.15405867D+05 0.15405867D+05 0.12465029D+01  1  2  2  3  6  5       21 0.769267244099D+00 0.100000000000D+01
0.113556948153D-03 0.490379752652D-04 -.356857235643D-05 0.291765321542D-04 0.000000000000D+00  6 -1 1 25 23 21 21 4 0.14681079D-02 0.26652579D+00 0.15405867D+05 0.15405867D+05 0.15405867D+05 0.12465029D+01  1  2  3  3  6  5       21 0.146064276842D+00 0.100000000000D+01
0.484388361272D-04 0.000000000000D+00 0.000000000000D+00 0.291765321542D-04 0.000000000000D+00  6 -1 1 25 23 21 21 4 0.14681079D-02 0.26652579D+00 0.15405867D+05 0.15405867D+05 0.15405867D+05 0.12465029D+01  1  2 15  3  6  5       21 0.623051577648D-01 0.100000000000D+01
0.119838980490D-03 0.000000000000D+00 0.000000000000D+00 0.292125607539D-04 0.000000000000D+00  6 -1 1 25 23 21 21 4 0.14681079D-02 0.26652579D+00 0.15167763D+05 0.15167763D+05 0.15167763D+05 0.12472723D+01  1  2 12  3  6  5       21 0.154489920360D+00 0.100000000000D+01
0.914756132136D-04 0.000000000000D+00 0.000000000000D+00 0.292125607539D-04 0.000000000000D+00  6 -1 1 25 23 21 21 4 0.14681079D-02 0.26652579D+00 0.15167763D+05 0.15167763D+05 0.15167763D+05 0.12472723D+01  1  2 12  3  6  5       21 0.117925404092D+00 0.100000000000D+01
-.263780670066D-03 0.000000000000D+00 0.000000000000D+00 0.291765321542D-04 0.000000000000D+00  6 -1 1 25 23 21 21 4 0.14681079D-02 0.26652579D+00 0.15405867D+05 0.15405867D+05 0.15405867D+05 0.12465029D+01  1  2  4  3  6  5       21 -.339291724941D+00 0.100000000000D+01
0.931605394996D-05 0.000000000000D+00 0.000000000000D+00 0.292125607539D-04 0.000000000000D+00  6 -1 1 25 23 1 -1 4 0.14681079D-02 0.26652579D+00 0.15167763D+05 0.15167763D+05 0.15167763D+05 0.12472723D+01  1  2 12  6  6  5       21 0.120097519765D-01 0.100000000000D+01
0.760846061051D-05 0.000000000000D+00 0.000000000000D+00 0.292125607539D-04 0.000000000000D+00  6 -1 1 25 23 1 -1 4 0.14681079D-02 0.26652579D+00 0.15167763D+05 0.15167763D+05 0.15167763D+05 0.12472723D+01  1  2 12  6  6  5       21 0.980841516654D-02 0.100000000000D+01
0.931605394996D-05 0.000000000000D+00 0.000000000000D+00 0.292125607539D-04 0.000000000000D+00  6 -1 1 25 23 2 -2 4 0.14681079D-02 0.26652579D+00 0.15167763D+05 0.15167763D+05 0.15167763D+05 0.12472723D+01  1  2 12  7  6  5       21 0.120097519765D-01 0.100000000000D+01
0.931605394996D-05 0.000000000000D+00 0.000000000000D+00 0.292125607539D-04 0.000000000000D+00  6 -1 1 25 23 4 -4 4 0.14681079D-02 0.26652579D+00 0.15167763D+05 0.15167763D+05 0.15167763D+05 0.12472723D+01  1  2 12  7  6  5       21 0.120097519765D-01 0.100000000000D+01
0.760846061051D-05 0.000000000000D+00 0.000000000000D+00 0.292125607539D-04 0.000000000000D+00  6 -1 1 25 23 2 -2 4 0.14681079D-02 0.26652579D+00 0.15167763D+05 0.15167763D+05 0.15167763D+05 0.12472723D+01  1  2 12  7  6  5       21 0.980841516654D-02 0.100000000000D+01
0.760846061051D-05 0.000000000000D+00 0.000000000000D+00 0.292125607539D-04 0.000000000000D+00  6 -1 1 25 23 4 -4 4 0.14681079D-02 0.26652579D+00 0.15167763D+05 0.15167763D+05 0.15167763D+05 0.12472723D+01  1  2 12  7  6  5       21 0.980841516654D-02 0.100000000000D+01
0.931605394996D-05 0.000000000000D+00 0.000000000000D+00 0.292125607539D-04 0.000000000000D+00  6 -1 1 25 23 3 -3 4 0.14681079D-02 0.26652579D+00 0.15167763D+05 0.15167763D+05 0.15167763D+05 0.12472723D+01  1  2 12  8  6  5       21 0.120097519765D-01 0.100000000000D+01
0.760846061051D-05 0.000000000000D+00 0.000000000000D+00 0.292125607539D-04 0.000000000000D+00  6 -1 1 25 23 3 -3 4 0.14681079D-02 0.26652579D+00 0.15167763D+05 0.15167763D+05 0.15167763D+05 0.12472723D+01  1  2 12  8  6  5       21 0.980841516654D-02 0.100000000000D+01
  </mgrwgt>
  </event>
  <event>
  6     66 0.44820762E-03 0.21020339E+02 0.75467711E-02 0.12346022E+00
       -1 -1    0    0    0  501 0.00000000E+00 0.00000000E+00 0.15575093E+02 0.15578380E+02 0.32000000E+00 0.0000E+00 0.9000E+01
        1 -1    0    0  503    0 0.00000000E+00 0.00000000E+00 -.10342469E+04 0.10342470E+04 0.32000000E+00 0.0000E+00 0.9000E+01
       25  1    1    2    0    0 0.15602323E+02 0.12607267E+02 -.47564356E+03 0.49220339E+03 0.12500000E+03 0.0000E+00 0.9000E+01
       23  1    1    2    0    0 0.94653546E+01 -.12322023E+02 -.34946984E+03 0.36150498E+03 0.91188000E+02 0.0000E+00 0.9000E+01
       21  1    1    2  502  501 -.15911905E+01 0.67646184E+01 -.38025345E+02 0.38662402E+02 0.75000000E+00 0.0000E+00 0.9000E+01
       21  1    1    2  503  502 -.23476487E+02 -.70498622E+01 -.15553306E+03 0.15745457E+03 0.75000000E+00 0.0000E+00 0.9000E+01
#aMCatNLO 2  0  0  2  5 0.95002556D+01 0.00000000D+00  -5  6  0 0.00000000D+00 0.00000000D+00 0.00000000D+00 0.00000000D+00 0.00000000D+00
  <mgrwgt>
 0.6297945991D-02    1    2    0
 0.112601324807829D+03 0.000000000000000D+00 0.000000000000000D+00 0.112601324807829D+03
 0.140714758198880D+03 0.000000000000000D+00 0.000000000000000D+00 -.140714758198880D+03
 0.125336519151786D+03 0.251544834069682D+01 0.865656536652869D+01 0.172610219466745D+01
 0.924531050320046D+02 -.141738406501678D+00 -.152223124784139D+02 0.765766996237719D+00
 0.741302543186708D+01 -.237370993419515D+01 0.656574711188522D+01 -.249186919090518D+01
 0.281134333910512D+02 -.000000000000000D+00 -.000000000000000D+00 -.281134333910512D+02
 0.120706760136490D+03 0.000000000000000D+00 0.000000000000000D+00 0.120706760136490D+03
 0.133455016940423D+03 0.000000000000000D+00 0.000000000000000D+00 -.133455016940423D+03
 0.126609992525735D+03 0.156089964503515D+02 0.125884871367944D+02 0.172610219466745D+01
 0.925078453650484D+02 0.947059988826716D+01 -.123357792112018D+02 0.765766996237719D+00
 0.741489569649692D+01 -.160310947075670D+01 0.679715426852417D+01 -.249186919090518D+01
 0.276290434896316D+02 -.234764868678620D+02 -.704986219411683D+01 -.127482568039329D+02
0.341918282250D-05 0.000000000000D+00 0.000000000000D+00 0.392915257755D-03 0.227030156545D-05  6 -1 1 25 23 21 21 4 0.23963266D-02 0.15910864D+00 0.15699928D+05 0.15699928D+05 0.15699928D+05 0.12455709D+01  1  2  1  2  6  2        1 0.629794599062D-02 0.100000000000D+01
  </mgrwgt>
  </event>
  <event>
  5     66 0.44820762E-03 0.61463502E+02 0.75467711E-02 0.10887561E+00
       -3 -1    0    0    0  501 0.00000000E+00 0.00000000E+00 0.31494010E+03 0.31494049E+03 0.50000000E+00 0.0000E+00 0.9000E+01
        3 -1    0    0  502    0 0.00000000E+00 0.00000000E+00 -.27223945E+03 0.27223991E+03 0.50000000E+00 0.0000E+00 0.9000E+01
       25  1    1    2    0    0 -.63872764E+02 0.91171526E+02 0.10268106E+03 0.19636796E+03 0.12500000E+03 0.0000E+00 0.9000E+01
       23  1    1    2    0    0 0.78739176E+02 -.15080968E+03 0.10146005E+03 0.21806607E+03 0.91188000E+02 0.0000E+00 0.9000E+01
       21  1    1    2  502  501 -.14866413E+02 0.59638154E+02 -.16144047E+03 0.17274637E+03 0.75000000E+00 0.0000E+00 0.9000E+01
#aMCatNLO 1  0  0  2  5 0.66172876D+02 0.00000000D+00  -5  6  0 0.00000000D+00 0.00000000D+00 0.00000000D+00 0.00000000D+00 0.00000000D+00
  <mgrwgt>
 0.2298536516D-02    4    2    0
 0.292812857657145D+03 0.000000000000000D+00 0.000000000000000D+00 0.292812857657145D+03
 0.292812857657145D+03 0.000000000000000D+00 0.000000000000000D+00 -.292812857657145D+03
 0.189402452552016D+03 -.638727240302322D+02 0.911713676708220D+02 0.886360303415502D+02
 0.211247417640510D+03 0.787392203360841D+02 -.150809856838901D+03 0.858297289805818D+02
 0.184975845121765D+03 -.148664963058519D+02 0.596384891680786D+02 -.174465759322132D+03
 0.000000000000000D+00 0.000000000000000D+00 -.000000000000000D+00 0.000000000000000D+00
 0.439147955626369D+03 0.000000000000000D+00 0.000000000000000D+00 0.439147955626369D+03
 0.332478980459288D+03 0.000000000000000D+00 0.000000000000000D+00 -.332478980459288D+03
 0.210650322840197D+03 -.108742440102366D+03 0.952223416985448D+02 0.886360303415502D+02
 0.195691400548974D+03 0.330971692017297D+02 -.146689154059770D+03 0.858297289805818D+02
 0.194328946150685D+03 -.574091290185208D+02 0.634793670535753D+02 -.174465759322132D+03
 0.170956266545801D+03 0.133054399919157D+03 -.120125546923505D+02 0.106668975167081D+03
0.314268016745D-03 0.000000000000D+00 0.000000000000D+00 0.468522821898D-05 0.000000000000D+00  6 -3 3 25 23 21 21 2 0.48452388D-01 0.41883058D-01 0.44493855D+05 0.44493855D+05 0.44493855D+05 0.11973327D+01  1  2  2  2  6  2        3 0.267063195307D-02 0.100000000000D+01
0.177052214176D-04 0.165843788737D-04 -.120687193297D-05 0.468522821898D-05 0.000000000000D+00  6 -3 3 25 23 21 21 4 0.48452388D-01 0.41883058D-01 0.44493855D+05 0.44493855D+05 0.44493855D+05 0.11973327D+01  1  2  3  2  6  2        3 0.215697411823D-03 0.100000000000D+01
0.108671225118D-04 0.000000000000D+00 0.000000000000D+00 0.468522821898D-05 0.000000000000D+00  6 -3 3 25 23 21 21 4 0.48452388D-01 0.41883058D-01 0.44493855D+05 0.44493855D+05 0.44493855D+05 0.11973327D+01  1  2 15  2  6  2        3 0.132390900090D-03 0.100000000000D+01
-.591152792837D-04 0.000000000000D+00 0.000000000000D+00 0.468522821898D-05 0.000000000000D+00  6 -3 3 25 23 21 21 4 0.48452388D-01 0.41883058D-01 0.44493855D+05 0.44493855D+05 0.44493855D+05 0.11973327D+01  1  2  4  2  6  2        3 -.720183749187D-03 0.100000000000D+01
  </mgrwgt>
  </event>
  <event>
  5     66 0.44820762E-03 0.19689827E+03 0.75467711E-02 0.10461571E+00
       -1 -1    0    0    0  501 0.00000000E+00 0.00000000E+00 0.15990294E+03 0.15990326E+03 0.32000000E+00 0.0000E+00 0.9000E+01
        1 -1    0    0  502    0 0.00000000E+00 0.00000000E+00 -.47019358E+03 0.47019369E+03 0.32000000E+00 0.0000E+00 0.9000E+01
       25  1    1    2    0    0 0.44863045E+02 0.11378265E+03 -.81924817E+02 0.19312136E+03 0.12500000E+03 0.0000E+00 0.9000E+01
       23  1    1    2    0    0 0.43638479E+02 0.62104098E+02 0.19695541E+02 0.12026804E+03 0.91188000E+02 0.0000E+00 0.9000E+01
       21  1    1    2  502  501 -.88501524E+02 -.17588675E+03 -.24806136E+03 0.31670755E+03 0.75000000E+00 0.0000E+00 0.9000E+01
#aMCatNLO 1  0  0  2  5 0.66172876D+02 0.00000000D+00  -5  6  0 0.00000000D+00 0.00000000D+00 0.00000000D+00 0.00000000D+00 0.00000000D+00
  <mgrwgt>
 0.4760242458D-02    5    4    0
 0.274199693521742D+03 0.000000000000000D+00 0.000000000000000D+00 0.274199693521742D+03
 0.274199693521742D+03 0.000000000000000D+00 0.000000000000000D+00 -.274199693521742D+03
 0.175537800132943D+03 0.448632046461563D+02 0.113782970126466D+03 0.151409330488575D+02
 0.149329132699168D+03 0.436386142263161D+02 0.621043672374576D+02 0.906788699043353D+02
 0.223532454211372D+03 -.885018188724724D+02 -.175887337363924D+03 -.105819802953193D+03
 0.000000000000000D+00 0.000000000000000D+00 0.000000000000000D+00 -.000000000000000D+00
 0.371889743108933D+03 0.000000000000000D+00 0.000000000000000D+00 0.371889743108933D+03
 0.499875198276766D+03 0.000000000000000D+00 0.000000000000000D+00 -.499875198276766D+03
 0.169482793491230D+03 -.274808321518958D+02 0.110068039413085D+03 0.151409330488575D+02
 0.142558343906303D+03 -.175644523113249D+02 0.589615352682033D+02 0.906788699043353D+02
 0.286936680146010D+03 -.195537162624872D+03 -.181383697582709D+03 -.105819802953193D+03
 0.272787123842155D+03 0.240582447088092D+03 0.123541229014214D+02 -.127985455167833D+03
 0.274199693521742D+03 0.000000000000000D+00 0.000000000000000D+00 0.274199693521742D+03
 0.274199693521742D+03 0.000000000000000D+00 0.000000000000000D+00 -.274199693521742D+03
 0.175537800132943D+03 0.448632046461563D+02 0.113782970126466D+03 0.151409330488575D+02
 0.149329132699168D+03 0.436386142263161D+02 0.621043672374576D+02 0.906788699043353D+02
 0.000000000000000D+00 0.000000000000000D+00 0.000000000000000D+00 -.000000000000000D+00
 0.223532454211372D+03 -.885018188724724D+02 -.175887337363924D+03 -.105819802953193D+03
 0.371889743108933D+03 0.000000000000000D+00 0.000000000000000D+00 0.371889743108933D+03
 0.499875198276766D+03 0.000000000000000D+00 0.000000000000000D+00 -.499875198276766D+03
 0.169482793491230D+03 -.274808321518958D+02 0.110068039413085D+03 0.151409330488575D+02
 0.142558343906303D+03 -.175644523113249D+02 0.589615352682033D+02 0.906788699043353D+02
 0.272787123842155D+03 0.240582447088092D+03 0.123541229014214D+02 -.127985455167833D+03
 0.286936680146010D+03 -.195537162624872D+03 -.181383697582709D+03 -.105819802953193D+03
0.640632554068D-04 0.000000000000D+00 0.000000000000D+00 0.842253487132D-06 0.000000000000D+00  6 -1 1 25 23 21 21 2 0.24600486D-01 0.72337507D-01 0.60129519D+05 0.60129519D+05 0.60129519D+05 0.11844278D+01  1  2  2  2  6  2        1 0.632730003580D-02 0.100000000000D+01
-.676198808084D-05 0.338071086760D-05 -.246019769005D-06 0.842253487132D-06 0.000000000000D+00  6 -1 1 25 23 21 21 4 0.24600486D-01 0.72337507D-01 0.60129519D+05 0.60129519D+05 0.60129519D+05 0.11844278D+01  1  2  3  2  6  2        1 -.936916763756D-03 0.100000000000D+01
0.327760666935D-05 0.000000000000D+00 0.000000000000D+00 0.842253487132D-06 0.000000000000D+00  6 -1 1 25 23 21 21 4 0.24600486D-01 0.72337507D-01 0.60129519D+05 0.60129519D+05 0.60129519D+05 0.11844278D+01  1  2 15  2  6  2        1 0.454133399349D-03 0.100000000000D+01
-.265967615676D-04 0.000000000000D+00 -.379914813459D-04 0.842253487132D-06 0.000000000000D+00  6 -1 1 25 23 21 21 4 0.24600486D-01 0.16380535D+00 0.60129519D+05 0.60129519D+05 0.60129519D+05 0.11844278D+01  1  2  5  2  6  2        1 -.108666842732D-02 0.100000000000D+01
0.408153001401D-07 0.000000000000D+00 -.337394053670D-05 0.842253487132D-06 0.000000000000D+00  6 -1 21 25 23 -1 21 4 0.24600486D-01 0.16380535D+00 0.60129519D+05 0.60129519D+05 0.60129519D+05 0.11844278D+01  3  4  5  5  5  2        1 0.239421399736D-05 0.100000000000D+01
  </mgrwgt>
  </event>
  <event>
  5     66 -.44820762E-03 0.38458670E+02 0.75467711E-02 0.12196267E+00
       -1 -1    0    0    0  501 0.00000000E+00 0.00000000E+00 0.23669799E+03 0.23669820E+03 0.32000000E+00 0.0000E+00 0.9000E+01
        1 -1    0    0  502    0 0.00000000E+00 0.00000000E+00 -.86461075E+02 0.86461667E+02 0.32000000E+00 0.0000E+00 0.9000E+01
       25  1    1    2    0    0 0.17908951E+02 0.49702268E+01 0.11120708E+03 0.16833731E+03 0.12500000E+03 0.0000E+00 0.9000E+01
       23  1    1    2    0    0 -.53851402E+02 0.87011084E+01 0.45905491E+02 0.11575080E+03 0.91188000E+02 0.0000E+00 0.9000E+01
       21  1    1    2  502  501 0.35942450E+02 -.13671335E+02 -.68756631E+01 0.39071759E+02 0.75000000E+00 0.0000E+00 0.9000E+01
#aMCatNLO 1  0  0  5  1 0.31298038D+01 0.00000000D+00  -5  6  0 0.00000000D+00 0.00000000D+00 0.00000000D+00 0.00000000D+00 0.00000000D+00
  <mgrwgt>
 -.1021991687D+00   25    2    0
 0.143056956701779D+03 0.000000000000000D+00 0.000000000000000D+00 0.143056956701779D+03
 0.143056956701779D+03 -.000000000000000D+00 -.000000000000000D+00 -.143056956701779D+03
 0.131739529707145D+03 0.179069088819783D+02 0.497100371407445D+01 0.372147205259806D+02
 0.106634231548140D+03 -.538530549599524D+02 0.870173724536610D+01 -.892951478274181D+01
 0.477401521482741D+02 0.359461460779741D+02 -.136727409594405D+02 -.282852057432388D+02
 0.000000000000000D+00 0.000000000000000D+00 0.000000000000000D+00 -.000000000000000D+00
 0.143056956701779D+03 0.000000000000000D+00 0.000000000000000D+00 0.143056956701779D+03
 0.143056956701779D+03 -.000000000000000D+00 -.000000000000000D+00 -.143056956701779D+03
 0.131725281923814D+03 0.180497323966072D+02 0.491667830978209D+01 0.371023359469081D+02
 0.106579984384266D+03 -.537374721483435D+02 0.865777331557334D+01 -.902046427144773D+01
 0.234891884304279D+02 0.195498533299053D+02 -.620212055251446D+01 -.114489697593896D+02
 0.243194586650510D+02 0.161378864218310D+02 -.737233107284096D+01 -.166329019160707D+02
0.283305766315D-04 0.000000000000D+00 0.000000000000D+00 0.126465328808D-04 0.000000000000D+00  6 -1 1 25 23 21 21 2 0.36415137D-01 0.13301766D-01 0.18372757D+05 0.18372757D+05 0.18372757D+05 0.12379043D+01  1  2  2  3  6  5       21 0.133483695671D-01 0.100000000000D+01
0.126885634434D-05 0.149504560290D-05 -.108796873877D-06 0.126465328808D-04 0.000000000000D+00  6 -1 1 25 23 21 21 4 0.36415137D-01 0.13301766D-01 0.18372757D+05 0.18372757D+05 0.18372757D+05 0.12379043D+01  1  2  3  3  6  5       21 0.916134829129D-03 0.100000000000D+01
0.105468245962D-05 0.000000000000D+00 0.000000000000D+00 0.126465328808D-04 0.000000000000D+00  6 -1 1 25 23 21 21 4 0.36415137D-01 0.13301766D-01 0.18372757D+05 0.18372757D+05 0.18372757D+05 0.12379043D+01  1  2 15  3  6  5       21 0.761497815921D-03 0.100000000000D+01
0.320724645130D-05 0.000000000000D+00 0.000000000000D+00 0.126483572883D-04 0.000000000000D+00  6 -1 1 25 23 21 21 4 0.36415137D-01 0.13301766D-01 0.18338830D+05 0.18338830D+05 0.18338830D+05 0.12379936D+01  1  2 12  3  6  5       21 0.231624343429D-02 0.100000000000D+01
0.319032117379D-05 0.000000000000D+00 0.000000000000D+00 0.126483572883D-04 0.000000000000D+00  6 -1 1 25 23 21 21 4 0.36415137D-01 0.13301766D-01 0.18338830D+05 0.18338830D+05 0.18338830D+05 0.12379936D+01  1  2 12  3  6  5       21 0.230402015694D-02 0.100000000000D+01
-.809920990123D-03 0.000000000000D+00 0.000000000000D+00 0.126465328808D-04 0.000000000000D+00  6 -1 1 25 23 21 21 4 0.36415137D-01 0.13301766D-01 0.18372757D+05 0.18372757D+05 0.18372757D+05 0.12379043D+01  1  2  4  3  6  5       21 -.584776071147D+00 0.100000000000D+01
-.306749836001D-03 0.000000000000D+00 0.000000000000D+00 0.126465328808D-04 0.000000000000D+00  6 -1 1 25 23 21 21 4 0.36415137D-01 0.13301766D-01 0.18372757D+05 0.18372757D+05 0.18372757D+05 0.12379043D+01  1  2  5  3  6  5       21 -.221478349258D+00 0.100000000000D+01
0.623120561353D-03 0.000000000000D+00 -.000000000000D+00 0.126465328808D-04 0.000000000000D+00  6 -1 1 25 23 21 21 4 0.36415137D-01 0.13301766D-01 0.18372757D+05 0.18372757D+05 0.18372757D+05 0.12379043D+01  1  2  6  3  6  5       21 0.449903136433D+00 0.100000000000D+01
0.324368688828D-03 0.000000000000D+00 0.000000000000D+00 0.126465328808D-04 0.775404010620D-05  6 -1 1 25 23 21 21 4 0.36415137D-01 0.13301766D-01 0.18338830D+05 0.18338830D+05 0.18338830D+05 0.12379936D+01  1  2 11  3  6  5       21 0.234256037756D+00 0.100000000000D+01
0.543998360067D-07 0.000000000000D+00 0.000000000000D+00 0.126483572883D-04 0.000000000000D+00  6 -1 1 25 23 1 -1 4 0.36415137D-01 0.13301766D-01 0.18338830D+05 0.18338830D+05 0.18338830D+05 0.12379936D+01  1  2 12  6  6  5       21 0.392870535178D-04 0.100000000000D+01
0.541124517529D-07 0.000000000000D+00 0.000000000000D+00 0.126483572883D-04 0.000000000000D+00  6 -1 1 25 23 1 -1 4 0.36415137D-01 0.13301766D-01 0.18338830D+05 0.18338830D+05 0.18338830D+05 0.12379936D+01  1  2 12  6  6  5       21 0.390795072937D-04 0.100000000000D+01
-.340025080565D-05 0.000000000000D+00 0.000000000000D+00 0.126465328808D-04 0.000000000000D+00  6 -1 1 25 23 1 -1 4 0.36415137D-01 0.13301766D-01 0.18372757D+05 0.18372757D+05 0.18372757D+05 0.12379043D+01  1  2  5  6  6  5       21 -.245503614709D-02 0.100000000000D+01
0.337677057258D-05 0.000000000000D+00 0.000000000000D+00 0.126465328808D-04 0.776581887619D-07  6 -1 1 25 23 1 -1 4 0.36415137D-01 0.13301766D-01 0.18338830D+05 0.18338830D+05 0.18338830D+05 0.12379936D+01  1  2 11  6  6  5       21 0.243867217148D-02 0.100000000000D+01
0.543998360067D-07 0.000000000000D+00 0.000000000000D+00 0.126483572883D-04 0.000000000000D+00  6 -1 1 25 23 2 -2 4 0.36415137D-01 0.13301766D-01 0.18338830D+05 0.18338830D+05 0.18338830D+05 0.12379936D+01  1  2 12  7  6  5       21 0.392870535178D-04 0.100000000000D+01
0.543998360067D-07 0.000000000000D+00 0.000000000000D+00 0.126483572883D-04 0.000000000000D+00  6 -1 1 25 23 4 -4 4 0.36415137D-01 0.13301766D-01 0.18338830D+05 0.18338830D+05 0.18338830D+05 0.12379936D+01  1  2 12  7  6  5       21 0.392870535178D-04 0.100000000000D+01
0.541124517529D-07 0.000000000000D+00 0.000000000000D+00 0.126483572883D-04 0.000000000000D+00  6 -1 1 25 23 2 -2 4 0.36415137D-01 0.13301766D-01 0.18338830D+05 0.18338830D+05 0.18338830D+05 0.12379936D+01  1  2 12  7  6  5       21 0.390795072937D-04 0.100000000000D+01
0.541124517529D-07 0.000000000000D+00 0.000000000000D+00 0.126483572883D-04 0.000000000000D+00  6 -1 1 25 23 4 -4 4 0.36415137D-01 0.13301766D-01 0.18338830D+05 0.18338830D+05 0.18338830D+05 0.12379936D+01  1  2 12  7  6  5       21 0.390795072937D-04 0.100000000000D+01
-.340025080565D-05 0.000000000000D+00 0.000000000000D+00 0.126465328808D-04 0.000000000000D+00  6 -1 1 25 23 2 -2 4 0.36415137D-01 0.13301766D-01 0.18372757D+05 0.18372757D+05 0.18372757D+05 0.12379043D+01  1  2  5  7  6  5       21 -.245503614709D-02 0.100000000000D+01
-.340025080565D-05 0.000000000000D+00 0.000000000000D+00 0.126465328808D-04 0.000000000000D+00  6 -1 1 25 23 4 -4 4 0.36415137D-01 0.13301766D-01 0.18372757D+05 0.18372757D+05 0.18372757D+05 0.12379043D+01  1  2  5  7  6  5       21 -.245503614709D-02 0.100000000000D+01
0.337653506950D-05 0.000000000000D+00 0.000000000000D+00 0.126465328808D-04 0.775436621019D-07  6 -1 1 25 23 2 -2 4 0.36415137D-01 0.13301766D-01 0.18338830D+05 0.18338830D+05 0.18338830D+05 0.12379936D+01  1  2 11  7  6  5       21 0.243850209335D-02 0.100000000000D+01
0.337653506950D-05 0.000000000000D+00 0.000000000000D+00 0.126465328808D-04 0.775436621019D-07  6 -1 1 25 23 4 -4 4 0.36415137D-01 0.13301766D-01 0.18338830D+05 0.18338830D+05 0.18338830D+05 0.12379936D+01  1  2 11  7  6  5       21 0.243850209335D-02 0.100000000000D+01
0.543998360067D-07 0.000000000000D+00 0.000000000000D+00 0.126483572883D-04 0.000000000000D+00  6 -1 1 25 23 3 -3 4 0.36415137D-01 0.13301766D-01 0.18338830D+05 0.18338830D+05 0.18338830D+05 0.12379936D+01  1  2 12  8  6  5       21 0.392870535178D-04 0.100000000000D+01
0.541124517529D-07 0.000000000000D+00 0.000000000000D+00 0.126483572883D-04 0.000000000000D+00  6 -1 1 25 23 3 -3 4 0.36415137D-01 0.13301766D-01 0.18338830D+05 0.18338830D+05 0.18338830D+05 0.12379936D+01  1  2 12  8  6  5       21 0.390795072937D-04 0.100000000000D+01
-.340025080565D-05 0.000000000000D+00 0.000000000000D+00 0.126465328808D-04 0.000000000000D+00  6 -1 1 25 23 3 -3 4 0.36415137D-01 0.13301766D-01 0.18372757D+05 0.18372757D+05 0.18372757D+05 0.12379043D+01  1  2  5  8  6  5       21 -.245503614709D-02 0.100000000000D+01
0.337973584890D-05 0.000000000000D+00 0.000000000000D+00 0.126465328808D-04 0.776171694551D-07  6 -1 1 25 23 3 -3 4 0.36415137D-01 0.13301766D-01 0.18338830D+05 0.18338830D+05 0.18338830D+05 0.12379936D+01  1  2 11  8  6  5       21 0.244081366634D-02 0.100000000000D+01
  </mgrwgt>
  </event>
  <event>
  5     66 -.44820762E-03 0.70087026E+02 0.75467711E-02 0.11167316E+00
       -1 -1    0    0    0  501 0.00000000E+00 0.00000000E+00 0.13586032E+03 0.13586070E+03 0.32000000E+00 0.0000E+00 0.9000E+01
        1 -1    0    0  502    0 0.00000000E+00 0.00000000E+00 -.64229559E+03 0.64229567E+03 0.32000000E+00 0.0000E+00 0.9000E+01
       25  1    1    2    0    0 0.11752556E+03 0.16364854E+03 -.11756331E+03 0.26464926E+03 0.12500000E+03 0.0000E+00 0.9000E+01
       23  1    1    2    0    0 -.12312850E+03 -.93787243E+02 -.40370008E+03 0.44186613E+03 0.91188000E+02 0.0000E+00 0.9000E+01
       21  1    1    2  502  501 0.56029477E+01 -.69861297E+02 0.14828119E+02 0.71640976E+02 0.75000000E+00 0.0000E+00 0.9000E+01
#aMCatNLO 1  0  0  1  5 0.27289658D+01 0.00000000D+00  -5  6  0 0.00000000D+00 0.00000000D+00 0.00000000D+00 0.00000000D+00 0.00000000D+00
  <mgrwgt>
 -.2544237378D+00   11    4    0
 0.295402546512013D+03 0.000000000000000D+00 0.000000000000000D+00 0.295402546512013D+03
 0.295402546512013D+03 0.000000000000000D+00 0.000000000000000D+00 -.295402546512013D+03
 0.247798177972792D+03 0.117525498749489D+03 0.163649258772940D+03 0.720112092204170D+02
 0.235937622824797D+03 -.123128559026352D+03 -.937865583803767D+02 -.152953424085486D+03
 0.107069292226437D+03 0.560306027686269D+01 -.698627003925636D+02 0.809422148650686D+02
 0.000000000000000D+00 0.000000000000000D+00 -.000000000000000D+00 0.000000000000000D+00
 0.303402546878253D+03 0.000000000000000D+00 0.000000000000000D+00 0.303402546878253D+03
 0.295638516203512D+03 0.000000000000000D+00 0.000000000000000D+00 -.295638516203512D+03
 0.248528881686236D+03 0.117468663562240D+03 0.164794125683308D+03 0.720112092204170D+02
 0.235535666035505D+03 -.123182548169466D+03 -.926990211263951D+02 -.152953424085486D+03
 0.106746847900670D+03 0.557857585651024D+01 -.693694953194769D+02 0.809422148650686D+02
 0.822966745935366D+01 0.135308750715529D+00 -.272560923743578D+01 0.776403067474164D+01
 0.295402546512013D+03 0.000000000000000D+00 0.000000000000000D+00 0.295402546512013D+03
 0.295402546512013D+03 0.000000000000000D+00 0.000000000000000D+00 -.295402546512013D+03
 0.247798177972792D+03 0.117525498749489D+03 0.163649258772940D+03 0.720112092204170D+02
 0.235937622824797D+03 -.123128559026352D+03 -.937865583803767D+02 -.152953424085486D+03
 0.000000000000000D+00 0.000000000000000D+00 -.000000000000000D+00 0.000000000000000D+00
 0.107069292226437D+03 0.560306027686269D+01 -.698627003925636D+02 0.809422148650686D+02
 0.303402546878253D+03 0.000000000000000D+00 0.000000000000000D+00 0.303402546878253D+03
 0.295638516203512D+03 0.000000000000000D+00 0.000000000000000D+00 -.295638516203512D+03
 0.248528881686236D+03 0.117468663562240D+03 0.164794125683308D+03 0.720112092204170D+02
 0.235535666035505D+03 -.123182548169466D+03 -.926990211263951D+02 -.152953424085486D+03
 0.822966745935366D+01 0.135308750715529D+00 -.272560923743578D+01 0.776403067474164D+01
 0.106746847900670D+03 0.557857585651024D+01 -.693694953194769D+02 0.809422148650686D+02
0.128289244723D-03 0.000000000000D+00 0.000000000000D+00 0.181233058385D-05 0.000000000000D+00  6 -1 1 25 23 21 21 2 0.20901623D-01 0.98814742D-01 0.59251989D+05 0.59251989D+05 0.59251989D+05 0.11850479D+01  1  2  2  1  6  1       -1 0.108538026705D-01 0.100000000000D+01
0.314711835814D-05 0.677000943953D-05 -.492664479069D-06 0.181233058385D-05 0.000000000000D+00  6 -1 1 25 23 21 21 4 0.20901623D-01 0.98814742D-01 0.59251989D+05 0.59251989D+05 0.59251989D+05 0.11850479D+01  1  2  3  1  6  1       -1 0.373918133447D-03 0.100000000000D+01
0.451950541945D-05 0.000000000000D+00 0.000000000000D+00 0.181233058385D-05 0.000000000000D+00  6 -1 1 25 23 21 21 4 0.20901623D-01 0.98814742D-01 0.59251989D+05 0.59251989D+05 0.59251989D+05 0.11850479D+01  1  2 15  1  6  1       -1 0.536975365473D-03 0.100000000000D+01
0.166354294955D-04 0.000000000000D+00 0.000000000000D+00 0.181102441459D-05 0.000000000000D+00  6 -1 1 25 23 21 21 4 0.21657069D-01 0.98814742D-01 0.59854926D+05 0.59854926D+05 0.59854926D+05 0.11846207D+01  1  2 12  1  6  1       -1 0.186201097016D-02 0.100000000000D+01
-.209254236502D-01 0.000000000000D+00 0.000000000000D+00 0.181233058385D-05 0.000000000000D+00  6 -1 1 25 23 21 21 4 0.20901623D-01 0.98814742D-01 0.59251989D+05 0.59251989D+05 0.59251989D+05 0.11850479D+01  1  2  4  1  6  1       -1 -.248620943431D+01 0.100000000000D+01
-.275723685598D-01 0.000000000000D+00 -.118260727836D-02 0.181233058385D-05 0.000000000000D+00  6 -1 1 25 23 21 21 4 0.21478676D-01 0.98814742D-01 0.59251989D+05 0.59251989D+05 0.59251989D+05 0.11850479D+01  1  2  5  1  6  1       -1 -.313307203278D+01 0.100000000000D+01
0.275947799997D-01 0.000000000000D+00 0.118216885542D-02 0.181233058385D-05 0.000000000000D+00  6 -1 1 25 23 21 21 4 0.20901623D-01 0.98814742D-01 0.59251989D+05 0.59251989D+05 0.59251989D+05 0.11850479D+01  1  2  6  1  6  1       -1 0.327861473773D+01 0.100000000000D+01
0.195923118680D-01 0.000000000000D+00 0.000000000000D+00 0.181233058385D-05 0.394374774407D-05  6 -1 1 25 23 21 21 4 0.21467675D-01 0.98893675D-01 0.59854926D+05 0.59854926D+05 0.59854926D+05 0.11846207D+01  1  2 11  1  6  1       -1 0.222228562899D+01 0.100000000000D+01
0.862021195164D-06 0.000000000000D+00 0.000000000000D+00 0.181102441459D-05 0.000000000000D+00  6 21 1 25 23 1 21 4 0.21657069D-01 0.98814742D-01 0.59854926D+05 0.59854926D+05 0.59854926D+05 0.11846207D+01  3  4 12  4  5  1       -1 0.118130307754D-02 0.100000000000D+01
-.135161440659D-03 0.000000000000D+00 -.579952351634D-05 0.181233058385D-05 0.000000000000D+00  6 21 1 25 23 1 21 4 0.21478676D-01 0.98814742D-01 0.59251989D+05 0.59251989D+05 0.59251989D+05 0.11850479D+01  3  4  5  4  5  1       -1 -.188473855566D+00 0.100000000000D+01
0.270325729989D-04 0.000000000000D+00 0.000000000000D+00 0.181233058385D-05 0.108705874712D-07  6 21 1 25 23 1 21 4 0.21467675D-01 0.98893675D-01 0.59854926D+05 0.59854926D+05 0.59854926D+05 0.11846207D+01  3  4 11  4  5  1       -1 0.376232079485D-01 0.100000000000D+01
  </mgrwgt>
  </event>
  <event>
  5     66 0.44820762E-03 0.30629486E+02 0.75467711E-02 0.12302285E+00
       -1 -1    0    0    0  501 0.00000000E+00 0.00000000E+00 0.45545168E+03 0.45545179E+03 0.32000000E+00 0.0000E+00 0.9000E+01
        1 -1    0    0  502    0 0.00000000E+00 0.00000000E+00 -.41619025E+02 0.41620256E+02 0.32000000E+00 0.0000E+00 0.9000E+01
       25  1    1    2    0    0 -.25926833E+02 -.19405132E+02 0.11974584E+03 0.17610459E+03 0.12500000E+03 0.0000E+00 0.9000E+01
       23  1    1    2    0    0 0.30009211E+02 -.10942956E+02 0.24148523E+03 0.26009742E+03 0.91188000E+02 0.0000E+00 0.9000E+01
       21  1    1    2  502  501 -.40823779E+01 0.30348087E+02 0.52601588E+02 0.60870040E+02 0.75000000E+00 0.0000E+00 0.9000E+01
#aMCatNLO 1  0  0  5  2 0.10767213D+01 0.00000000D+00  -5  6  0 0.00000000D+00 0.00000000D+00 0.00000000D+00 0.00000000D+00 0.00000000D+00
  <mgrwgt>
 0.1047159130D+00   14    2    0
 0.137680022352610D+03 0.000000000000000D+00 0.000000000000000D+00 0.137680022352610D+03
 0.137680022352610D+03 -.000000000000000D+00 -.000000000000000D+00 -.137680022352610D+03
 0.137936215708894D+03 -.259262275784519D+02 -.194096328060478D+02 -.485025409847288D+02
 0.106597790244871D+03 0.300096789374123D+02 -.109464345420086D+02 0.450270172449891D+02
 0.308260387514553D+02 -.408345135896037D+01 0.303560673480564D+02 0.347552373973966D+01
 0.000000000000000D+00 0.000000000000000D+00 0.000000000000000D+00 0.000000000000000D+00
 0.137680022352610D+03 0.000000000000000D+00 0.000000000000000D+00 0.137680022352610D+03
 0.137680022352610D+03 -.000000000000000D+00 -.000000000000000D+00 -.137680022352610D+03
 0.137761088581272D+03 -.260817620604506D+02 -.182534012765265D+02 -.483701618434055D+02
 0.106519220861856D+03 0.298894490932615D+02 -.100526550095849D+02 0.451293477592621D+02
 0.296714863029486D+02 -.472841868517937D+01 0.291745848794905D+02 0.262350019499082D+01
 0.140824895914425D+01 0.920731652368413D+00 -.868528593379111D+00 0.617313889152594D+00
0.189561390171D-03 0.000000000000D+00 0.000000000000D+00 0.168557015101D-04 0.000000000000D+00  6 -1 1 25 23 21 21 2 0.70069592D-01 0.64030303D-02 0.16432440D+05 0.16432440D+05 0.16432440D+05 0.12433320D+01  1  2  2  3  6  5       21 0.714598092706D-01 0.100000000000D+01
0.195558251288D-04 0.100034293880D-04 -.727965650918D-06 0.168557015101D-04 0.000000000000D+00  6 -1 1 25 23 21 21 4 0.70069592D-01 0.64030303D-02 0.16432440D+05 0.16432440D+05 0.16432440D+05 0.12433320D+01  1  2  3  3  6  5       21 0.113962595175D-01 0.100000000000D+01
0.664217088188D-05 0.000000000000D+00 0.000000000000D+00 0.168557015101D-04 0.000000000000D+00  6 -1 1 25 23 21 21 4 0.70069592D-01 0.64030303D-02 0.16432440D+05 0.16432440D+05 0.16432440D+05 0.12433320D+01  1  2 15  3  6  5       21 0.387075986981D-02 0.100000000000D+01
0.269779689113D-09 0.000000000000D+00 0.000000000000D+00 0.168565335785D-04 0.000000000000D+00  6 -1 1 25 23 21 21 4 0.70069592D-01 0.64030303D-02 0.16422144D+05 0.16422144D+05 0.16422144D+05 0.12433627D+01  1  2 12  3  6  5       21 0.157228473896D-06 0.100000000000D+01
-.461688666669D-03 0.000000000000D+00 0.000000000000D+00 0.168557015101D-04 0.000000000000D+00  6 -1 1 25 23 21 21 4 0.70069592D-01 0.64030303D-02 0.16432440D+05 0.16432440D+05 0.16432440D+05 0.12433320D+01  1  2  4  3  6  5       21 -.269051488598D+00 0.100000000000D+01
0.481059385451D-03 0.000000000000D+00 0.000000000000D+00 0.168557015101D-04 0.243109441231D-04  6 -1 1 25 23 21 21 4 0.70069592D-01 0.64030303D-02 0.16422144D+05 0.16422144D+05 0.16422144D+05 0.12433627D+01  1  2 11  3  6  5       21 0.280362963115D+00 0.100000000000D+01
0.271313767129D-10 0.000000000000D+00 0.000000000000D+00 0.168565335785D-04 0.000000000000D+00  6 -1 1 25 23 1 -1 4 0.70069592D-01 0.64030303D-02 0.16422144D+05 0.16422144D+05 0.16422144D+05 0.12433627D+01  1  2 12  6  6  5       21 0.158122539517D-07 0.100000000000D+01
0.228613301187D-05 0.000000000000D+00 0.000000000000D+00 0.168565335785D-04 0.212782797717D-06  6 -1 1 25 23 1 -1 4 0.70069592D-01 0.64030303D-02 0.16422144D+05 0.16422144D+05 0.16422144D+05 0.12433627D+01  1  2 11  6  6  5       21 0.133236570092D-02 0.100000000000D+01
0.271313767129D-10 0.000000000000D+00 0.000000000000D+00 0.168565335785D-04 0.000000000000D+00  6 -1 1 25 23 2 -2 4 0.70069592D-01 0.64030303D-02 0.16422144D+05 0.16422144D+05 0.16422144D+05 0.12433627D+01  1  2 12  7  6  5       21 0.158122539517D-07 0.100000000000D+01
0.271313767129D-10 0.000000000000D+00 0.000000000000D+00 0.168565335785D-04 0.000000000000D+00  6 -1 1 25 23 4 -4 4 0.70069592D-01 0.64030303D-02 0.16422144D+05 0.16422144D+05 0.16422144D+05 0.12433627D+01  1  2 12  7  6  5       21 0.158122539517D-07 0.100000000000D+01
0.305645085701D-05 0.000000000000D+00 0.000000000000D+00 0.168565335785D-04 0.187678908172D-06  6 -1 1 25 23 2 -2 4 0.70069592D-01 0.64030303D-02 0.16422144D+05 0.16422144D+05 0.16422144D+05 0.12433627D+01  1  2 11  7  6  5       21 0.178130942832D-02 0.100000000000D+01
0.305645085701D-05 0.000000000000D+00 0.000000000000D+00 0.168565335785D-04 0.187678908172D-06  6 -1 1 25 23 4 -4 4 0.70069592D-01 0.64030303D-02 0.16422144D+05 0.16422144D+05 0.16422144D+05 0.12433627D+01  1  2 11  7  6  5       21 0.178130942832D-02 0.100000000000D+01
0.271313767129D-10 0.000000000000D+00 0.000000000000D+00 0.168565335785D-04 0.000000000000D+00  6 -1 1 25 23 3 -3 4 0.70069592D-01 0.64030303D-02 0.16422144D+05 0.16422144D+05 0.16422144D+05 0.12433627D+01  1  2 12  8  6  5       21 0.158122539517D-07 0.100000000000D+01
0.305833032043D-05 0.000000000000D+00 0.000000000000D+00 0.168565335785D-04 0.187794315113D-06  6 -1 1 25 23 3 -3 4 0.70069592D-01 0.64030303D-02 0.16422144D+05 0.16422144D+05 0.16422144D+05 0.12433627D+01  1  2 11  8  6  5       21 0.178240478567D-02 0.100000000000D+01
  </mgrwgt>
  </event>
  <event>
  5     66 0.44820762E-03 0.21291853E+02 0.75467711E-02 0.11041090E+00
       -1 -1    0    0    0  501 0.00000000E+00 0.00000000E+00 0.13166592E+04 0.13166592E+04 0.32000000E+00 0.0000E+00 0.9000E+01
        1 -1    0    0  502    0 0.00000000E+00 0.00000000E+00 -.20970172E+02 0.20972614E+02 0.32000000E+00 0.0000E+00 0.9000E+01
       25  1    1    2    0    0 0.98165799E+01 -.39294852E+02 0.65133756E+03 0.66445923E+03 0.12500000E+03 0.0000E+00 0.9000E+01
       23  1    1    2    0    0 -.29746672E+02 0.46785169E+02 0.64303191E+03 0.65182743E+03 0.91188000E+02 0.0000E+00 0.9000E+01
       21  1    1    2  502  501 0.19930092E+02 -.74903175E+01 0.13195603E+01 0.21345190E+02 0.75000000E+00 0.0000E+00 0.9000E+01
#aMCatNLO 1  0  0  1  5 0.72853690D+02 0.00000000D+00  -5  6  0 0.00000000D+00 0.00000000D+00 0.00000000D+00 0.00000000D+00 0.00000000D+00
  <mgrwgt>
 0.1840129153D+00    5    4    0
 0.166169278137722D+03 0.000000000000000D+00 0.000000000000000D+00 0.166169278137722D+03
 0.166169278137722D+03 0.000000000000000D+00 0.000000000000000D+00 -.166169278137722D+03
 0.135015882121950D+03 0.981623082129269D+01 -.392947207813417D+02 0.310460135339118D+02
 0.116555682591886D+03 -.297469730077651D+02 0.467852827529322D+02 0.468639596605325D+02
 0.807669915616082D+02 0.199307421864724D+02 -.749056197159053D+01 -.779099731944443D+02
 0.000000000000000D+00 -.000000000000000D+00 0.000000000000000D+00 0.000000000000000D+00
 0.295548915620722D+03 0.000000000000000D+00 0.000000000000000D+00 0.295548915620722D+03
 0.284010976613839D+03 0.000000000000000D+00 0.000000000000000D+00 -.284010976613839D+03
 0.177836422734064D+03 0.632426903592425D+02 -.105058557055701D+03 0.310460135339118D+02
 0.102817642762428D+03 0.771588057786490D+01 0.671409760362685D+00 0.468639596605325D+02
 0.104297918428119D+03 0.515346740482209D+02 -.463925558255109D+02 -.779099731944443D+02
 0.194607908309949D+03 -.122493244985328D+03 0.150779703120849D+03 0.115379390068826D+02
 0.166169278137722D+03 0.000000000000000D+00 0.000000000000000D+00 0.166169278137722D+03
 0.166169278137722D+03 0.000000000000000D+00 0.000000000000000D+00 -.166169278137722D+03
 0.135015882121950D+03 0.981623082129269D+01 -.392947207813417D+02 0.310460135339118D+02
 0.116555682591886D+03 -.297469730077651D+02 0.467852827529322D+02 0.468639596605325D+02
 0.000000000000000D+00 -.000000000000000D+00 0.000000000000000D+00 0.000000000000000D+00
 0.807669915616082D+02 0.199307421864724D+02 -.749056197159053D+01 -.779099731944443D+02
 0.295548915620722D+03 0.000000000000000D+00 0.000000000000000D+00 0.295548915620722D+03
 0.284010976613839D+03 0.000000000000000D+00 0.000000000000000D+00 -.284010976613839D+03
 0.177836422734064D+03 0.632426903592425D+02 -.105058557055701D+03 0.310460135339118D+02
 0.102817642762428D+03 0.771588057786490D+01 0.671409760362685D+00 0.468639596605325D+02
 0.194607908309949D+03 -.122493244985328D+03 0.150779703120849D+03 0.115379390068826D+02
 0.104297918428119D+03 0.515346740482209D+02 -.463925558255109D+02 -.779099731944443D+02
0.182964010904D-02 0.000000000000D+00 0.000000000000D+00 0.475504609927D-04 0.000000000000D+00  6 -1 1 25 23 21 21 2 0.20256314D+00 0.32263711D-02 0.16823269D+05 0.16823269D+05 0.16823269D+05 0.12421828D+01  1  2  2  1  6  1       -1 0.138409845426D+00 0.100000000000D+01
0.302888644734D-03 0.965527611916D-04 -.702629977403D-05 0.475504609927D-04 0.000000000000D+00  6 -1 1 25 23 21 21 4 0.20256314D+00 0.32263711D-02 0.16823269D+05 0.16823269D+05 0.16823269D+05 0.12421828D+01  1  2  3  1  6  1       -1 0.353553644060D-01 0.100000000000D+01
0.702750547937D-04 0.000000000000D+00 0.000000000000D+00 0.475504609927D-04 0.000000000000D+00  6 -1 1 25 23 21 21 4 0.20256314D+00 0.32263711D-02 0.16823269D+05 0.16823269D+05 0.16823269D+05 0.12421828D+01  1  2 15  1  6  1       -1 0.820301524694D-02 0.100000000000D+01
0.628398526742D-04 0.000000000000D+00 -.893598276488D-03 0.475504609927D-04 0.000000000000D+00  6 -1 1 25 23 21 21 4 0.46016779D+00 0.32263711D-02 0.16823269D+05 0.16823269D+05 0.16823269D+05 0.12421828D+01  1  2  5  1  6  1       -1 0.166015400271D-03 0.100000000000D+01
0.621297589775D-04 0.000000000000D+00 -.796947146724D-04 0.475504609927D-04 0.000000000000D+00  6 21 1 25 23 1 21 4 0.46016779D+00 0.32263711D-02 0.16823269D+05 0.16823269D+05 0.16823269D+05 0.12421828D+01  3  4  5  4  5  1       -1 0.187867486322D-02 0.100000000000D+01
  </mgrwgt>
  </event>
  <event>
  5     66 0.44820762E-03 0.28068935E+02 0.75467711E-02 0.12292043E+00
       -1 -1    0    0    0  501 0.00000000E+00 0.00000000E+00 0.15640924E+03 0.15640957E+03 0.32000000E+00 0.0000E+00 0.9000E+01
        1 -1    0    0  502    0 0.00000000E+00 0.00000000E+00 -.13276742E+03 0.13276781E+03 0.32000000E+00 0.0000E+00 0.9000E+01
       25  1    1    2    0    0 -.30269015E+02 0.29203541E+01 0.54047761E+02 0.13953817E+03 0.12500000E+03 0.0000E+00 0.9000E+01
       23  1    1    2    0    0 0.57195595E+01 0.10684502E+02 0.17948303E+02 0.93724409E+02 0.91188000E+02 0.0000E+00 0.9000E+01
       21  1    1    2  502  501 0.24549455E+02 -.13604857E+02 -.48354247E+02 0.55914789E+02 0.75000000E+00 0.0000E+00 0.9000E+01
#aMCatNLO 1  0  0  5  1 0.13261519D+02 0.00000000D+00  -5  6  0 0.00000000D+00 0.00000000D+00 0.00000000D+00 0.00000000D+00 0.00000000D+00
  <mgrwgt>
 0.1230580913D+00   15    2    0
 0.144104664409640D+03 0.000000000000000D+00 0.000000000000000D+00 0.144104664409640D+03
 0.144104664409640D+03 -.000000000000000D+00 -.000000000000000D+00 -.144104664409640D+03
 0.135574145905070D+03 -.302699150357159D+02 0.292085303317623D+01 0.427849260742431D+02
 0.925670626274531D+02 0.571894488706688D+01 0.106848430617333D+02 0.103217022626911D+02
 0.600681202867558D+02 0.245509701486491D+02 -.136056960949096D+02 -.531066283369343D+02
 0.000000000000000D+00 0.000000000000000D+00 0.000000000000000D+00 -.000000000000000D+00
 0.144104664409640D+03 0.000000000000000D+00 0.000000000000000D+00 0.144104664409640D+03
 0.144104664409640D+03 -.000000000000000D+00 -.000000000000000D+00 -.144104664409640D+03
 0.134482377550192D+03 -.290493954034148D+02 0.224446350174772D+01 0.401447989388144D+02
 0.923860338446372D+02 0.655483984124474D+01 0.102216054525899D+02 0.851356342371798D+01
 0.362528932066081D+02 0.211366732254665D+02 0.338364398479235D+01 -.292585759085052D+02
 0.250880242178417D+02 0.135788233670362D+01 -.158497129391300D+02 -.193997864540272D+02
0.127380454412D-03 0.000000000000D+00 0.000000000000D+00 0.283873892596D-04 0.000000000000D+00  6 -1 1 25 23 21 21 2 0.24063015D-01 0.20425812D-01 0.15463514D+05 0.15463514D+05 0.15463514D+05 0.12463186D+01  1  2  2  3  6  5       21 0.698835764204D-01 0.100000000000D+01
0.100725554060D-04 0.672205125724D-05 -.489174484985D-06 0.283873892596D-04 0.000000000000D+00  6 -1 1 25 23 21 21 4 0.24063015D-01 0.20425812D-01 0.15463514D+05 0.15463514D+05 0.15463514D+05 0.12463186D+01  1  2  3  3  6  5       21 0.858361333916D-02 0.100000000000D+01
0.440285370649D-05 0.000000000000D+00 0.000000000000D+00 0.283873892596D-04 0.000000000000D+00  6 -1 1 25 23 21 21 4 0.24063015D-01 0.20425812D-01 0.15463514D+05 0.15463514D+05 0.15463514D+05 0.12463186D+01  1  2 15  3  6  5       21 0.375201647270D-02 0.100000000000D+01
0.908757246828D-04 0.000000000000D+00 0.000000000000D+00 0.282293726420D-04 0.000000000000D+00  6 -1 1 25 23 21 21 4 0.24063015D-01 0.20425812D-01 0.16596809D+05 0.16596809D+05 0.16596809D+05 0.12428450D+01  1  2 12  3  6  5       21 0.767346892977D-01 0.100000000000D+01
-.136444667833D-03 0.000000000000D+00 0.000000000000D+00 0.283873892596D-04 0.000000000000D+00  6 -1 1 25 23 21 21 4 0.24063015D-01 0.20425812D-01 0.15463514D+05 0.15463514D+05 0.15463514D+05 0.12463186D+01  1  2  4  3  6  5       21 -.116275187741D+00 0.100000000000D+01
-.143140713190D-03 0.000000000000D+00 0.000000000000D+00 0.283873892596D-04 0.000000000000D+00  6 -1 1 25 23 21 21 4 0.24063015D-01 0.20425812D-01 0.15463514D+05 0.15463514D+05 0.15463514D+05 0.12463186D+01  1  2  5  3  6  5       21 -.121981412422D+00 0.100000000000D+01
0.259329811604D-03 0.000000000000D+00 -.000000000000D+00 0.283873892596D-04 0.000000000000D+00  6 -1 1 25 23 21 21 4 0.24063015D-01 0.20425812D-01 0.15463514D+05 0.15463514D+05 0.15463514D+05 0.12463186D+01  1  2  6  3  6  5       21 0.220995243055D+00 0.100000000000D+01
0.240916128636D-05 0.000000000000D+00 0.000000000000D+00 0.282293726420D-04 0.000000000000D+00  6 -1 1 25 23 1 -1 4 0.24063015D-01 0.20425812D-01 0.16596809D+05 0.16596809D+05 0.16596809D+05 0.12428450D+01  1  2 12  6  6  5       21 0.203427530753D-02 0.100000000000D+01
-.785385750804D-05 0.000000000000D+00 0.000000000000D+00 0.283873892596D-04 0.000000000000D+00  6 -1 1 25 23 1 -1 4 0.24063015D-01 0.20425812D-01 0.15463514D+05 0.15463514D+05 0.15463514D+05 0.12463186D+01  1  2  5  6  6  5       21 -.669288709297D-02 0.100000000000D+01
0.240916128636D-05 0.000000000000D+00 0.000000000000D+00 0.282293726420D-04 0.000000000000D+00  6 -1 1 25 23 2 -2 4 0.24063015D-01 0.20425812D-01 0.16596809D+05 0.16596809D+05 0.16596809D+05 0.12428450D+01  1  2 12  7  6  5       21 0.203427530753D-02 0.100000000000D+01
0.240916128636D-05 0.000000000000D+00 0.000000000000D+00 0.282293726420D-04 0.000000000000D+00  6 -1 1 25 23 4 -4 4 0.24063015D-01 0.20425812D-01 0.16596809D+05 0.16596809D+05 0.16596809D+05 0.12428450D+01  1  2 12  7  6  5       21 0.203427530753D-02 0.100000000000D+01
-.785385750804D-05 0.000000000000D+00 0.000000000000D+00 0.283873892596D-04 0.000000000000D+00  6 -1 1 25 23 2 -2 4 0.24063015D-01 0.20425812D-01 0.15463514D+05 0.15463514D+05 0.15463514D+05 0.12463186D+01  1  2  5  7  6  5       21 -.669288709297D-02 0.100000000000D+01
-.785385750804D-05 0.000000000000D+00 0.000000000000D+00 0.283873892596D-04 0.000000000000D+00  6 -1 1 25 23 4 -4 4 0.24063015D-01 0.20425812D-01 0.15463514D+05 0.15463514D+05 0.15463514D+05 0.12463186D+01  1  2  5  7  6  5       21 -.669288709297D-02 0.100000000000D+01
0.240916128636D-05 0.000000000000D+00 0.000000000000D+00 0.282293726420D-04 0.000000000000D+00  6 -1 1 25 23 3 -3 4 0.24063015D-01 0.20425812D-01 0.16596809D+05 0.16596809D+05 0.16596809D+05 0.12428450D+01  1  2 12  8  6  5       21 0.203427530753D-02 0.100000000000D+01
-.785385750804D-05 0.000000000000D+00 0.000000000000D+00 0.283873892596D-04 0.000000000000D+00  6 -1 1 25 23 3 -3 4 0.24063015D-01 0.20425812D-01 0.15463514D+05 0.15463514D+05 0.15463514D+05 0.12463186D+01  1  2  5  8  6  5       21 -.669288709297D-02 0.100000000000D+01
  </mgrwgt>
  </event>
  <event>
  5     66 -.44820762E-03 0.20519985E+02 0.75467711E-02 0.11708629E+00
       -3 -1    0    0    0  501 0.00000000E+00 0.00000000E+00 0.53482353E+03 0.53482376E+03 0.50000000E+00 0.0000E+00 0.9000E+01
        3 -1    0    0  502    0 0.00000000E+00 0.00000000E+00 -.44844434E+02 0.44847221E+02 0.50000000E+00 0.0000E+00 0.9000E+01
       25  1    1    2    0    0 0.17972946E+02 -.95929766E+02 0.32276751E+03 0.35962398E+03 0.12500000E+03 0.0000E+00 0.9000E+01
       23  1    1    2    0    0 -.26673957E+02 0.77359135E+02 0.14326967E+03 0.18851362E+03 0.91188000E+02 0.0000E+00 0.9000E+01
       21  1    1    2  502  501 0.87010115E+01 0.18570631E+02 0.23941913E+02 0.31533373E+02 0.75000000E+00 0.0000E+00 0.9000E+01
#aMCatNLO 1  0  0  2  2 0.48012951D+02 0.00000000D+00  -5  6  0 0.00000000D+00 0.00000000D+00 0.00000000D+00 0.00000000D+00 0.00000000D+00
  <mgrwgt>
 -.5030168935D-01    5    4    0
 0.154870054704789D+03 0.000000000000000D+00 0.000000000000000D+00 0.154870054704789D+03
 0.154870054704789D+03 0.000000000000000D+00 0.000000000000000D+00 -.154870054704789D+03
 0.162443908779526D+03 0.179700711320936D+02 -.959359012444651D+02 0.351625211765394D+02
 0.126156983814003D+03 -.266761895902446D+02 0.773543706280550D+02 -.300834751105910D+02
 0.211392168160500D+02 0.870611845815104D+01 0.185815306164100D+02 -.507904606594849D+01
 0.000000000000000D+00 0.000000000000000D+00 -.000000000000000D+00 -.000000000000000D+00
 0.159768347530319D+03 0.000000000000000D+00 0.000000000000000D+00 0.159768347530319D+03
 0.348972224329254D+03 0.000000000000000D+00 0.000000000000000D+00 -.348972224329254D+03
 0.156144591199239D+03 -.485984008475653D+01 -.865800925134493D+02 0.351625211765394D+02
 0.136096294819765D+03 -.454691437236671D+02 0.850558146982046D+02 -.300834751105910D+02
 0.212369605300210D+02 0.566946030324344D+01 0.198259679078624D+02 -.507904606594849D+01
 0.195262725310548D+03 0.446595235051802D+02 -.183016900926177D+02 -.189203876798935D+03
 0.154870054704789D+03 0.000000000000000D+00 0.000000000000000D+00 0.154870054704789D+03
 0.154870054704789D+03 0.000000000000000D+00 0.000000000000000D+00 -.154870054704789D+03
 0.162443908779526D+03 0.179700711320936D+02 -.959359012444651D+02 0.351625211765394D+02
 0.126156983814003D+03 -.266761895902446D+02 0.773543706280550D+02 -.300834751105910D+02
 0.000000000000000D+00 0.000000000000000D+00 -.000000000000000D+00 -.000000000000000D+00
 0.211392168160500D+02 0.870611845815104D+01 0.185815306164100D+02 -.507904606594849D+01
 0.159768347530319D+03 0.000000000000000D+00 0.000000000000000D+00 0.159768347530319D+03
 0.348972224329254D+03 0.000000000000000D+00 0.000000000000000D+00 -.348972224329254D+03
 0.156144591199239D+03 -.485984008475653D+01 -.865800925134493D+02 0.351625211765394D+02
 0.136096294819765D+03 -.454691437236671D+02 0.850558146982046D+02 -.300834751105910D+02
 0.195262725310548D+03 0.446595235051802D+02 -.183016900926177D+02 -.189203876798935D+03
 0.212369605300210D+02 0.566946030324344D+01 0.198259679078624D+02 -.507904606594849D+01
0.890546470114D-04 0.000000000000D+00 0.000000000000D+00 0.328384065478D-04 0.000000000000D+00  6 -3 3 25 23 21 21 2 0.82280775D-01 0.68993760D-02 0.22745200D+05 0.22745200D+05 0.22745200D+05 0.12277234D+01  1  2  2  2  6  2        3 0.602026117667D-02 0.100000000000D+01
0.246113893655D-04 0.469954283544D-05 -.341993293151D-06 0.328384065478D-04 0.000000000000D+00  6 -3 3 25 23 21 21 4 0.82280775D-01 0.68993760D-02 0.22745200D+05 0.22745200D+05 0.22745200D+05 0.12277234D+01  1  2  3  2  6  2        3 0.250781744960D-02 0.100000000000D+01
0.197758688901D-05 0.000000000000D+00 0.000000000000D+00 0.328384065478D-04 0.000000000000D+00  6 -3 3 25 23 21 21 4 0.82280775D-01 0.68993760D-02 0.22745200D+05 0.22745200D+05 0.22745200D+05 0.12277234D+01  1  2 15  2  6  2        3 0.201509424548D-03 0.100000000000D+01
-.807493049037D-03 0.000000000000D+00 -.564321560036D-04 0.328384065478D-04 0.000000000000D+00  6 -3 3 25 23 21 21 4 0.82280775D-01 0.15920658D-01 0.22745200D+05 0.22745200D+05 0.22745200D+05 0.12277234D+01  1  2  5  2  6  2        3 -.204529853837D-01 0.100000000000D+01
-.699413926546D-04 0.000000000000D+00 -.513734130228D-05 0.328384065478D-04 0.000000000000D+00  6 -3 21 25 23 -3 21 4 0.82280775D-01 0.15920658D-01 0.22745200D+05 0.22745200D+05 0.22745200D+05 0.12277234D+01  3  4  5  5  5  2        3 -.385782920176D-01 0.100000000000D+01
  </mgrwgt>
  </event>
  <event>
  5     66 0.44820762E-03 0.44590117E+02 0.75467711E-02 0.11537632E+00
       -1 -1    0    0    0  501 0.00000000E+00 0.00000000E+00 0.18174270E+03 0.18174298E+03 0.32000000E+00 0.0000E+00 0.9000E+01
        1 -1    0    0  502    0 0.00000000E+00 0.00000000E+00 -.23910750E+03 0.23910771E+03 0.32000000E+00 0.0000E+00 0.9000E+01
       25  1    1    2    0    0 0.11812750E+03 -.31495403E+02 0.11673595E+01 0.17484973E+03 0.12500000E+03 0.0000E+00 0.9000E+01
       23  1    1    2    0    0 -.98629239E+02 -.16243926E+02 -.10907261E+03 0.17379205E+03 0.91188000E+02 0.0000E+00 0.9000E+01
       21  1    1    2  502  501 -.19498259E+02 0.47739329E+02 0.50540460E+02 0.72208907E+02 0.75000000E+00 0.0000E+00 0.9000E+01
#aMCatNLO 1  0  0  2  5 0.28580543D+02 0.00000000D+00  -5  6  0 0.00000000D+00 0.00000000D+00 0.00000000D+00 0.00000000D+00 0.00000000D+00
  <mgrwgt>
 0.3491937257D-01    9    4    0
 0.208461379339575D+03 0.000000000000000D+00 0.000000000000000D+00 0.208461379339575D+03
 0.208461379339575D+03 0.000000000000000D+00 0.000000000000000D+00 -.208461379339575D+03
 0.176657893752572D+03 0.118127861993884D+03 -.314962951942542D+02 0.252349566055798D+02
 0.160422424758578D+03 -.986289078890806D+02 -.162447368581878D+02 -.861890368575786D+02
 0.798424401679997D+02 -.194989541048029D+02 0.477410320524419D+02 0.609540802519989D+02
 0.000000000000000D+00 -.000000000000000D+00 -.000000000000000D+00 -.000000000000000D+00
 0.212930206757162D+03 0.000000000000000D+00 0.000000000000000D+00 0.212930206757162D+03
 0.260265357630985D+03 0.000000000000000D+00 0.000000000000000D+00 -.260265357630985D+03
 0.182784671302405D+03 0.128551943633754D+03 -.249565786162044D+02 0.252349566055798D+02
 0.154479782605298D+03 -.894965272606638D+02 -.105153898465254D+02 -.861890368575786D+02
 0.806367714180141D+02 -.148449465784021D+02 0.506607991097488D+02 0.609540802519989D+02
 0.552943390624292D+02 -.242104697946882D+02 -.151888306470190D+02 -.473351508738226D+02
 0.208461379339575D+03 0.000000000000000D+00 0.000000000000000D+00 0.208461379339575D+03
 0.208461379339575D+03 0.000000000000000D+00 0.000000000000000D+00 -.208461379339575D+03
 0.176657893752572D+03 0.118127861993884D+03 -.314962951942542D+02 0.252349566055798D+02
 0.160422424758578D+03 -.986289078890806D+02 -.162447368581878D+02 -.861890368575786D+02
 0.000000000000000D+00 -.000000000000000D+00 -.000000000000000D+00 -.000000000000000D+00
 0.798424401679997D+02 -.194989541048029D+02 0.477410320524419D+02 0.609540802519989D+02
 0.212930206757162D+03 0.000000000000000D+00 0.000000000000000D+00 0.212930206757162D+03
 0.260265357630985D+03 0.000000000000000D+00 0.000000000000000D+00 -.260265357630985D+03
 0.182784671302405D+03 0.128551943633754D+03 -.249565786162044D+02 0.252349566055798D+02
 0.154479782605298D+03 -.894965272606638D+02 -.105153898465254D+02 -.861890368575786D+02
 0.552943390624292D+02 -.242104697946882D+02 -.151888306470190D+02 -.473351508738226D+02
 0.806367714180141D+02 -.148449465784021D+02 0.506607991097488D+02 0.609540802519989D+02
0.810242756601D-04 0.000000000000D+00 0.000000000000D+00 0.471637055498D-05 0.000000000000D+00  6 -1 1 25 23 21 21 2 0.27960454D-01 0.36785807D-01 0.32710050D+05 0.32710050D+05 0.32710050D+05 0.12109760D+01  1  2  2  2  6  2        1 0.158781017052D-01 0.100000000000D+01
0.252208139103D-05 0.427576849669D-05 -.311154552717D-06 0.471637055498D-05 0.000000000000D+00  6 -1 1 25 23 21 21 4 0.27960454D-01 0.36785807D-01 0.32710050D+05 0.32710050D+05 0.32710050D+05 0.12109760D+01  1  2  3  2  6  2        1 0.724792332960D-03 0.100000000000D+01
0.195279457897D-05 0.000000000000D+00 0.000000000000D+00 0.471637055498D-05 0.000000000000D+00  6 -1 1 25 23 21 21 4 0.27960454D-01 0.36785807D-01 0.32710050D+05 0.32710050D+05 0.32710050D+05 0.12109760D+01  1  2 15  2  6  2        1 0.561191460244D-03 0.100000000000D+01
0.541771405760D-03 0.000000000000D+00 0.000000000000D+00 0.466297811881D-05 0.000000000000D+00  6 -1 1 25 23 21 21 4 0.27960454D-01 0.47083079D-01 0.38143400D+05 0.38143400D+05 0.38143400D+05 0.12041020D+01  1  2 12  2  6  2        1 0.111960376801D+00 0.100000000000D+01
-.507724750285D-03 0.000000000000D+00 0.000000000000D+00 0.471637055498D-05 0.000000000000D+00  6 -1 1 25 23 21 21 4 0.27960454D-01 0.36785807D-01 0.32710050D+05 0.32710050D+05 0.32710050D+05 0.12109760D+01  1  2  4  2  6  2        1 -.145909250815D+00 0.100000000000D+01
-.769004386428D-03 0.000000000000D+00 -.100529095794D-03 0.471637055498D-05 0.000000000000D+00  6 -1 1 25 23 21 21 4 0.27960454D-01 0.46597851D-01 0.32710050D+05 0.32710050D+05 0.32710050D+05 0.12109760D+01  1  2  5  2  6  2        1 -.164550900259D+00 0.100000000000D+01
0.773789462274D-03 0.000000000000D+00 0.977830582979D-04 0.471637055498D-05 0.000000000000D+00  6 -1 1 25 23 21 21 4 0.27960454D-01 0.36785807D-01 0.32710050D+05 0.32710050D+05 0.32710050D+05 0.12109760D+01  1  2  6  2  6  2        1 0.222370567253D+00 0.100000000000D+01
0.181617874646D-04 0.000000000000D+00 0.000000000000D+00 0.466297811881D-05 0.000000000000D+00  6 -1 21 25 23 -1 21 4 0.27960454D-01 0.47083079D-01 0.38143400D+05 0.38143400D+05 0.38143400D+05 0.12041020D+01  3  4 12  5  5  2        1 0.173293833250D-01 0.100000000000D+01
-.234356518812D-04 0.000000000000D+00 -.326454079517D-05 0.471637055498D-05 0.000000000000D+00  6 -1 21 25 23 -1 21 4 0.27960454D-01 0.46597851D-01 0.32710050D+05 0.32710050D+05 0.32710050D+05 0.12109760D+01  3  4  5  5  5  2        1 -.234448892356D-01 0.100000000000D+01
  </mgrwgt>
  </event>
  <event>
  6     66 0.44820762E-03 0.29251155E+02 0.75467711E-02 0.11382501E+00
       -1 -1    0    0    0  501 0.00000000E+00 0.00000000E+00 0.64223611E+03 0.64223619E+03 0.32000000E+00 0.0000E+00 0.9000E+01
        1 -1    0    0  503    0 0.00000000E+00 0.00000000E+00 -.90880121E+02 0.90880685E+02 0.32000000E+00 0.0000E+00 0.9000E+01
       25  1    1    2    0    0 0.11962268E+03 0.46690974E+02 0.22283153E+03 0.28595196E+03 0.12500000E+03 0.0000E+00 0.9000E+01
       23  1    1    2    0    0 -.10494056E+03 -.20091073E+01 0.29631218E+03 0.32731135E+03 0.91188000E+02 0.0000E+00 0.9000E+01
       21  1    1    2  502  501 -.53818743E+02 -.42828496E+01 0.33580447E+02 0.63584659E+02 0.75000000E+00 0.0000E+00 0.9000E+01
       21  1    1    2  503  502 0.39136619E+02 -.40399017E+02 -.13681711E+01 0.56268907E+02 0.75000000E+00 0.0000E+00 0.9000E+01
#aMCatNLO 2  0  0  2  5 0.28580543D+02 0.00000000D+00  -5  6  0 0.00000000D+00 0.00000000D+00 0.00000000D+00 0.00000000D+00 0.00000000D+00
  <mgrwgt>
 0.1055274090D-01    1    2    0
 0.193297322223503D+03 0.000000000000000D+00 0.000000000000000D+00 0.193297322223503D+03
 0.193297322223503D+03 0.000000000000000D+00 0.000000000000000D+00 -.193297322223503D+03
 0.189287446116153D+03 0.138226911124393D+03 0.274890691609216D+02 -.185043069270569D+02
 0.138995784318140D+03 -.904956697657723D+02 -.169181553777781D+02 0.502880352218351D+02
 0.583114140127118D+02 -.477312413586212D+02 -.105709137831435D+02 -.317837282947781D+02
 0.000000000000000D+00 0.000000000000000D+00 -.000000000000000D+00 -.000000000000000D+00
 0.204052805559519D+03 0.000000000000000D+00 0.000000000000000D+00 0.204052805559519D+03
 0.286033556999617D+03 0.000000000000000D+00 0.000000000000000D+00 -.286033556999617D+03
 0.180159726594043D+03 0.119624488582329D+03 0.466915350251615D+02 -.185043069270569D+02
 0.147852569431539D+03 -.104939072439022D+03 -.200886352778365D+01 0.502880352218351D+02
 0.626527454125612D+02 -.538220347718372D+02 -.428365456521367D+01 -.317837282947781D+02
 0.994213211209922D+02 0.391366186285300D+02 -.403990169321642D+02 -.819807514400982D+02
0.121431677671D-03 0.000000000000D+00 0.000000000000D+00 0.532330539817D-05 0.373767577716D-08  6 -1 1 25 23 21 21 4 0.98804943D-01 0.13981513D-01 0.45899670D+05 0.45899670D+05 0.45899670D+05 0.11959796D+01  1  2  1  2  6  2        1 0.105527409024D-01 0.100000000000D+01
  </mgrwgt>
  </event>
  <event>
  5     66 0.44820762E-03 0.10996210E+03 0.75467711E-02 0.87971273E-01
       -1 -1    0    0    0  501 0.00000000E+00 0.00000000E+00 0.28997292E+03 0.28997310E+03 0.32000000E+00 0.0000E+00 0.9000E+01
        1 -1    0    0  502    0 0.00000000E+00 0.00000000E+00 -.41083218E+03 0.41083230E+03 0.32000000E+00 0.0000E+00 0.9000E+01
       25  1    1    2    0    0 0.66628882E+02 0.17571184E+03 -.15910922E+03 0.27614272E+03 0.12500000E+03 0.0000E+00 0.9000E+01
       23  1    1    2    0    0 -.12521299E+03 -.26876659E+03 0.67678170E+01 0.31028185E+03 0.91188000E+02 0.0000E+00 0.9000E+01
       21  1    1    2  502  501 0.58584110E+02 0.93054749E+02 0.31482148E+02 0.11438082E+03 0.75000000E+00 0.0000E+00 0.9000E+01
#aMCatNLO 1  0  0  2  1 0.15850013D+04 0.00000000D+00  -5  6  0 0.00000000D+00 0.00000000D+00 0.00000000D+00 0.00000000D+00 0.00000000D+00
  <mgrwgt>
 0.6834037973D-01    5    4    0
 0.345152591474876D+03 0.000000000000000D+00 0.000000000000000D+00 0.345152591474876D+03
 0.345152591474876D+03 0.000000000000000D+00 0.000000000000000D+00 -.345152591474876D+03
 0.252485741077676D+03 0.666284741495415D+02 0.175711194949796D+03 -.113182471475763D+03
 0.316187261079275D+03 -.125213501155042D+03 -.268767401225205D+03 0.611947374531492D+02
 0.121632180792801D+03 0.585850270055008D+02 0.930562062754082D+02 0.519877340226142D+02
 0.000000000000000D+00 0.000000000000000D+00 0.000000000000000D+00 -.000000000000000D+00
 0.102208216550556D+04 0.000000000000000D+00 0.000000000000000D+00 0.102208216550556D+04
 0.484746127380789D+04 0.000000000000000D+00 0.000000000000000D+00 -.484746127380789D+04
 0.332758593674317D+03 -.285808028313402D+03 0.246329203780792D+02 -.113182471475763D+03
 0.129924461891169D+04 -.109803310476969D+04 -.685784101131583D+03 0.611947374531492D+02
 0.967970185724142D+02 -.729539191898177D+02 0.366696603549550D+02 0.519877340226142D+02
 0.414074320815503D+04 0.145679505227291D+04 0.624481520398549D+03 -.382537910830233D+04
 0.345152591474876D+03 0.000000000000000D+00 0.000000000000000D+00 0.345152591474876D+03
 0.345152591474876D+03 0.000000000000000D+00 0.000000000000000D+00 -.345152591474876D+03
 0.252485741077676D+03 0.666284741495415D+02 0.175711194949796D+03 -.113182471475763D+03
 0.316187261079275D+03 -.125213501155042D+03 -.268767401225205D+03 0.611947374531492D+02
 0.000000000000000D+00 0.000000000000000D+00 0.000000000000000D+00 -.000000000000000D+00
 0.121632180792801D+03 0.585850270055008D+02 0.930562062754082D+02 0.519877340226142D+02
 0.102208216550556D+04 0.000000000000000D+00 0.000000000000000D+00 0.102208216550556D+04
 0.484746127380789D+04 0.000000000000000D+00 0.000000000000000D+00 -.484746127380789D+04
 0.332758593674317D+03 -.285808028313402D+03 0.246329203780792D+02 -.113182471475763D+03
 0.129924461891169D+04 -.109803310476969D+04 -.685784101131583D+03 0.611947374531492D+02
 0.414074320815503D+04 0.145679505227291D+04 0.624481520398549D+03 -.382537910830233D+04
 0.967970185724142D+02 -.729539191898177D+02 0.366696603549550D+02 0.519877340226142D+02
0.161466626382D-02 0.000000000000D+00 0.000000000000D+00 0.740535992261D-06 0.000000000000D+00  6 -1 1 25 23 21 21 2 0.44611242D-01 0.63204973D-01 0.10428613D+06 0.10428613D+06 0.10428613D+06 0.11619010D+01  1  2  2  2  6  2        1 0.649024477575D-01 0.100000000000D+01
0.188789184226D-04 0.852082797069D-04 -.620074360444D-05 0.740535992261D-06 0.000000000000D+00  6 -1 1 25 23 21 21 4 0.44611242D-01 0.63204973D-01 0.10428613D+06 0.10428613D+06 0.10428613D+06 0.11619010D+01  1  2  3  2  6  2        1 0.102445689242D-02 0.100000000000D+01
0.444707939864D-04 0.000000000000D+00 0.000000000000D+00 0.740535992261D-06 0.000000000000D+00  6 -1 1 25 23 21 21 4 0.44611242D-01 0.63204973D-01 0.10428613D+06 0.10428613D+06 0.10428613D+06 0.11619010D+01  1  2 15  2  6  2        1 0.241318969609D-02 0.100000000000D+01
0.343462760477D-02 0.000000000000D+00 -.317661449618D-02 0.740535992261D-06 0.000000000000D+00  6 -1 1 25 23 21 21 4 0.44611242D-01 0.93385277D+00 0.10428613D+06 0.10428613D+06 0.10428613D+06 0.11619010D+01  1  2  5  2  6  2        1 0.285132519787D-06 0.100000000000D+01
0.348152330273D-03 0.000000000000D+00 -.966019577106D-03 0.740535992261D-06 0.000000000000D+00  6 -1 21 25 23 -1 21 4 0.44611242D-01 0.93385277D+00 0.10428613D+06 0.10428613D+06 0.10428613D+06 0.11619010D+01  3  4  5  5  5  2        1 0.248699882666D-09 0.100000000000D+01
  </mgrwgt>
  </event>
  <event>
  5     66 0.44820762E-03 0.89214727E+02 0.75467711E-02 0.94126986E-01
       -1 -1    0    0    0  501 0.00000000E+00 0.00000000E+00 0.25109789E+03 0.25109810E+03 0.32000000E+00 0.0000E+00 0.9000E+01
        1 -1    0    0  502    0 0.00000000E+00 0.00000000E+00 -.72589823E+03 0.72589830E+03 0.32000000E+00 0.0000E+00 0.9000E+01
       25  1    1    2    0    0 -.37289931E+02 -.15749647E+03 0.98015695E+02 0.22677688E+03 0.12500000E+03 0.0000E+00 0.9000E+01
       23  1    1    2    0    0 0.23150908E+02 0.24558224E+03 -.60152190E+03 0.65649863E+03 0.91188000E+02 0.0000E+00 0.9000E+01
       21  1    1    2  502  501 0.14139023E+02 -.88085771E+02 0.28705867E+02 0.93720885E+02 0.75000000E+00 0.0000E+00 0.9000E+01
#aMCatNLO 1  0  0  1  2 0.58899676D+02 0.00000000D+00  -5  6  0 0.00000000D+00 0.00000000D+00 0.00000000D+00 0.00000000D+00 0.00000000D+00
  <mgrwgt>
 0.1817849890D+00    5    4    0
 0.426932840946794D+03 0.000000000000000D+00 0.000000000000000D+00 0.426932840946794D+03
 0.426932840946794D+03 0.000000000000000D+00 0.000000000000000D+00 -.426932840946794D+03
 0.313980836297760D+03 -.372900274381118D+02 -.157495873666870D+03 0.238250853500706D+03
 0.416687199636989D+03 0.231507800383074D+02 0.245583041524509D+03 -.323211977031336D+03
 0.123197645958840D+03 0.141392473998044D+02 -.880871678576389D+02 0.849611235306300D+02
 0.000000000000000D+00 -.000000000000000D+00 0.000000000000000D+00 0.000000000000000D+00
 0.158842792686002D+04 0.000000000000000D+00 0.000000000000000D+00 0.158842792686002D+04
 0.795541094988998D+03 0.000000000000000D+00 0.000000000000000D+00 -.795541094988998D+03
 0.578986252314106D+03 0.103355349598191D+03 -.502149661838335D+03 0.238250853500706D+03
 0.371348911725442D+03 0.147269168514510D+03 -.585710918816605D+02 -.323211977031336D+03
 0.262710248608267D+03 0.749210634654447D+02 -.237033998534888D+03 0.849611235306300D+02
 0.117092360920120D+04 -.325545581578146D+03 0.797754752254884D+03 0.792886831871020D+03
 0.426932840946794D+03 0.000000000000000D+00 0.000000000000000D+00 0.426932840946794D+03
 0.426932840946794D+03 0.000000000000000D+00 0.000000000000000D+00 -.426932840946794D+03
 0.313980836297760D+03 -.372900274381118D+02 -.157495873666870D+03 0.238250853500706D+03
 0.416687199636989D+03 0.231507800383074D+02 0.245583041524509D+03 -.323211977031336D+03
 0.000000000000000D+00 -.000000000000000D+00 0.000000000000000D+00 0.000000000000000D+00
 0.123197645958840D+03 0.141392473998044D+02 -.880871678576389D+02 0.849611235306300D+02
 0.158842792686002D+04 0.000000000000000D+00 0.000000000000000D+00 0.158842792686002D+04
 0.795541094988998D+03 0.000000000000000D+00 0.000000000000000D+00 -.795541094988998D+03
 0.578986252314106D+03 0.103355349598191D+03 -.502149661838335D+03 0.238250853500706D+03
 0.371348911725442D+03 0.147269168514510D+03 -.585710918816605D+02 -.323211977031336D+03
 0.117092360920120D+04 -.325545581578146D+03 0.797754752254884D+03 0.792886831871020D+03
 0.262710248608267D+03 0.749210634654447D+02 -.237033998534888D+03 0.849611235306300D+02
0.675300955264D-02 0.000000000000D+00 0.000000000000D+00 0.498432654014D-06 0.000000000000D+00  6 -1 1 25 23 21 21 2 0.38630466D-01 0.11167667D+00 0.77479412D+05 0.77479412D+05 0.77479412D+05 0.11738906D+01  1  2  2  1  6  1       -1 0.164903469013D+00 0.100000000000D+01
-.475064466159D-04 0.356366104699D-03 -.259333347904D-04 0.498432654014D-06 0.000000000000D+00  6 -1 1 25 23 21 21 4 0.38630466D-01 0.11167667D+00 0.77479412D+05 0.77479412D+05 0.77479412D+05 0.11738906D+01  1  2  3  1  6  1       -1 -.159860163644D-02 0.100000000000D+01
0.717494747680D-04 0.000000000000D+00 0.000000000000D+00 0.498432654014D-06 0.000000000000D+00  6 -1 1 25 23 21 21 4 0.38630466D-01 0.11167667D+00 0.77479412D+05 0.77479412D+05 0.77479412D+05 0.11738906D+01  1  2 15  1  6  1       -1 0.241438448775D-02 0.100000000000D+01
0.105245489918D-01 0.000000000000D+00 -.590125408343D-02 0.498432654014D-06 0.000000000000D+00  6 -1 1 25 23 21 21 4 0.22291861D+00 0.11167667D+00 0.77479412D+05 0.77479412D+05 0.77479412D+05 0.11738906D+01  1  2  5  1  6  1       -1 0.639869930542D-02 0.100000000000D+01
0.192811028808D-02 0.000000000000D+00 -.126722671200D-02 0.498432654014D-06 0.000000000000D+00  6 21 1 25 23 1 21 4 0.22291861D+00 0.11167667D+00 0.77479412D+05 0.77479412D+05 0.77479412D+05 0.11738906D+01  3  4  5  4  5  1       -1 0.966703781815D-02 0.100000000000D+01
  </mgrwgt>
  </event>
  <event>
  6     66 -.44820762E-03 0.13659140E+02 0.75467711E-02 0.12141221E+00
       -1 -1    0    0    0  501 0.00000000E+00 0.00000000E+00 0.21933840E+02 0.21936174E+02 0.32000000E+00 0.0000E+00 0.9000E+01
        1 -1    0    0  502    0 -.00000000E+00 -.00000000E+00 -.12415818E+04 0.12415818E+04 0.32000000E+00 0.0000E+00 0.9000E+01
       25  1    1    2    0    0 -.61436703E+02 -.15560030E+02 -.36216791E+03 0.38833900E+03 0.12500000E+03 0.0000E+00 0.9000E+01
       23  1    1    2    0    0 0.32997045E+02 0.28166546E+02 -.30240726E+03 0.31882215E+03 0.91188000E+02 0.0000E+00 0.9000E+01
       21  1    1    2  502  503 0.13321005E+02 -.17301286E+02 -.33949401E+03 0.34019631E+03 0.75000000E+00 0.0000E+00 0.9000E+01
       21  1    1    2  503  501 0.15118653E+02 0.46947698E+01 -.21557876E+03 0.21616054E+03 0.75000000E+00 0.0000E+00 0.9000E+01
#aMCatNLO 2  0  0  5  2 0.10463966D+02 0.00000000D+00  -5  6  0 0.00000000D+00 0.00000000D+00 0.00000000D+00 0.00000000D+00 0.00000000D+00
  <mgrwgt>
 -.5437650968D-01    3    2    0
 0.165027744416513D+03 0.000000000000000D+00 0.000000000000000D+00 0.165027744416513D+03
 0.165027744416513D+03 -.000000000000000D+00 -.000000000000000D+00 -.165027744416513D+03
 0.148919060025578D+03 -.619421880322488D+02 -.153359621561734D+02 0.497981931943676D+02
 0.103137977325307D+03 0.326464358795625D+02 0.283219612652694D+02 0.213135580606738D+02
 0.779984514821413D+02 0.292957521526863D+02 -.129859991090960D+02 -.711117512550414D+02
 0.000000000000000D+00 0.000000000000000D+00 0.000000000000000D+00 -.000000000000000D+00
 0.165027744416513D+03 0.000000000000000D+00 0.000000000000000D+00 0.165027744416513D+03
 0.165027744416513D+03 -.000000000000000D+00 -.000000000000000D+00 -.165027744416513D+03
 0.148327983916981D+03 -.614379994458953D+02 -.155594550536787D+02 0.485743388570039D+02
 0.103034833788921D+03 0.329961449188904D+02 0.281669448912406D+02 0.204646833812762D+02
 0.473120638933325D+02 0.131083033320763D+02 -.172564493380972D+02 -.420573267082292D+02
 0.313806072337914D+02 0.153335511949287D+02 0.464895950053532D+01 -.269816955300508D+02
-.100716528744D-03 0.000000000000D+00 0.000000000000D+00 0.201981629872D-04 0.000000000000D+00  6 -1 1 25 23 21 21 4 0.33746196D-02 0.19101276D+00 0.19435754D+05 0.19435754D+05 0.19435754D+05 0.12351967D+01  1  2 13  3  6  5       21 -.785440769689D-01 0.100000000000D+01
-.763054974176D-04 0.000000000000D+00 0.000000000000D+00 0.201981629872D-04 0.000000000000D+00  6 -1 1 25 23 21 21 4 0.33746196D-02 0.19101276D+00 0.19435754D+05 0.19435754D+05 0.19435754D+05 0.12351967D+01  1  2 13  3  6  5       21 -.595070634091D-01 0.100000000000D+01
0.107295402440D-03 0.000000000000D+00 0.000000000000D+00 0.202611307559D-04 0.700092354294D-06  6 -1 1 25 23 21 21 4 0.33746196D-02 0.19101276D+00 0.19435754D+05 0.19435754D+05 0.19435754D+05 0.12351967D+01  1  2  1  3  6  5       21 0.836746306961D-01 0.100000000000D+01
  </mgrwgt>
  </event>
  <event>
  5     66 0.44820762E-03 0.87686405E+02 0.75467711E-02 0.11074847E+00
       -1 -1    0    0    0  501 0.00000000E+00 0.00000000E+00 0.11616807E+03 0.11616851E+03 0.32000000E+00 0.0000E+00 0.9000E+01
        1 -1    0    0  502    0 -.00000000E+00 -.00000000E+00 -.66355004E+03 0.66355012E+03 0.32000000E+00 0.0000E+00 0.9000E+01
       25  1    1    2    0    0 0.18166219E+03 -.21864867E+02 -.36279986E+03 0.42512112E+03 0.12500000E+03 0.0000E+00 0.9000E+01
       23  1    1    2    0    0 -.44049115E+02 0.97423554E+02 -.54528754E+02 0.15073258E+03 0.91188000E+02 0.0000E+00 0.9000E+01
       21  1    1    2  502  501 -.13761307E+03 -.75558687E+02 -.13005336E+03 0.20386493E+03 0.75000000E+00 0.0000E+00 0.9000E+01
#aMCatNLO 1  0  0  5  1 0.26975717D+02 0.00000000D+00  -5  6  0 0.00000000D+00 0.00000000D+00 0.00000000D+00 0.00000000D+00 0.00000000D+00
  <mgrwgt>
 0.2867271276D-01   20    2    0
 0.277639202488816D+03 0.000000000000000D+00 0.000000000000000D+00 0.277639202488816D+03
 0.277639202488816D+03 -.000000000000000D+00 -.000000000000000D+00 -.277639202488816D+03
 0.239312435025715D+03 0.181662852893985D+03 -.218645006954139D+02 -.903658843020717D+02
 0.157904466821008D+03 -.440486747843389D+02 0.974237959568586D+02 0.720200494940582D+02
 0.158061503130910D+03 -.137614178109646D+03 -.755592952614448D+02 0.183458348080135D+02
 0.000000000000000D+00 0.000000000000000D+00 -.000000000000000D+00 0.000000000000000D+00
 0.277639202488816D+03 0.000000000000000D+00 0.000000000000000D+00 0.277639202488816D+03
 0.277639202488816D+03 -.000000000000000D+00 -.000000000000000D+00 -.277639202488816D+03
 0.234114293160545D+03 0.174715850533735D+03 -.256788649544646D+02 -.894397547457808D+02
 0.157998834705323D+03 -.486841988277781D+02 0.948785863374641D+02 0.726380276669304D+02
 0.132064619710423D+03 -.125447197253020D+03 -.381193606209441D+02 0.158423112730092D+02
 0.311006574013407D+02 -.584454452936901D+00 -.310803607620554D+02 0.959415805841174D+00
0.100159393176D-03 0.000000000000D+00 0.000000000000D+00 0.457337607248D-06 0.000000000000D+00  6 -1 1 25 23 21 21 2 0.17872050D-01 0.10208466D+00 0.67369377D+05 0.67369377D+05 0.67369377D+05 0.11796664D+01  1  2  2  3  6  5       21 0.103310209885D-01 0.100000000000D+01
-.815020845552D-05 0.528555639034D-05 -.384638442368D-06 0.457337607248D-06 0.000000000000D+00  6 -1 1 25 23 21 21 4 0.17872050D-01 0.10208466D+00 0.67369377D+05 0.67369377D+05 0.67369377D+05 0.11796664D+01  1  2  3  3  6  5       21 -.116987284184D-02 0.100000000000D+01
0.335810055812D-05 0.000000000000D+00 0.000000000000D+00 0.457337607248D-06 0.000000000000D+00  6 -1 1 25 23 21 21 4 0.17872050D-01 0.10208466D+00 0.67369377D+05 0.67369377D+05 0.67369377D+05 0.11796664D+01  1  2 15  3  6  5       21 0.482018424995D-03 0.100000000000D+01
0.115227301576D-03 0.000000000000D+00 0.000000000000D+00 0.457368394211D-06 0.000000000000D+00  6 -1 1 25 23 21 21 4 0.17872050D-01 0.10208466D+00 0.67305143D+05 0.67305143D+05 0.67305143D+05 0.11797061D+01  1  2 12  3  6  5       21 0.165419030071D-01 0.100000000000D+01
0.121346090696D-03 0.000000000000D+00 0.000000000000D+00 0.457368394211D-06 0.000000000000D+00  6 -1 1 25 23 21 21 4 0.17872050D-01 0.10208466D+00 0.67305143D+05 0.67305143D+05 0.67305143D+05 0.11797061D+01  1  2 12  3  6  5       21 0.174203095545D-01 0.100000000000D+01
-.145363609296D-03 0.000000000000D+00 0.000000000000D+00 0.457337607248D-06 0.000000000000D+00  6 -1 1 25 23 21 21 4 0.17872050D-01 0.10208466D+00 0.67369377D+05 0.67369377D+05 0.67369377D+05 0.11796664D+01  1  2  4  3  6  5       21 -.208653483694D-01 0.100000000000D+01
-.190749177825D-03 0.000000000000D+00 0.000000000000D+00 0.457337607248D-06 0.000000000000D+00  6 -1 1 25 23 21 21 4 0.17872050D-01 0.10208466D+00 0.67369377D+05 0.67369377D+05 0.67369377D+05 0.11796664D+01  1  2  5  3  6  5       21 -.273799478822D-01 0.100000000000D+01
0.235141279261D-03 0.000000000000D+00 -.000000000000D+00 0.457337607248D-06 0.000000000000D+00  6 -1 1 25 23 21 21 4 0.17872050D-01 0.10208466D+00 0.67369377D+05 0.67369377D+05 0.67369377D+05 0.11796664D+01  1  2  6  3  6  5       21 0.337519461134D-01 0.100000000000D+01
0.143184033083D-05 0.000000000000D+00 0.000000000000D+00 0.457368394211D-06 0.000000000000D+00  6 -1 1 25 23 1 -1 4 0.17872050D-01 0.10208466D+00 0.67305143D+05 0.67305143D+05 0.67305143D+05 0.11797061D+01  1  2 12  6  6  5       21 0.205553402278D-03 0.100000000000D+01
0.147231922217D-05 0.000000000000D+00 0.000000000000D+00 0.457368394211D-06 0.000000000000D+00  6 -1 1 25 23 1 -1 4 0.17872050D-01 0.10208466D+00 0.67305143D+05 0.67305143D+05 0.67305143D+05 0.11797061D+01  1  2 12  6  6  5       21 0.211364506810D-03 0.100000000000D+01
-.366971301126D-05 0.000000000000D+00 0.000000000000D+00 0.457337607248D-06 0.000000000000D+00  6 -1 1 25 23 1 -1 4 0.17872050D-01 0.10208466D+00 0.67369377D+05 0.67369377D+05 0.67369377D+05 0.11796664D+01  1  2  5  6  6  5       21 -.526746967597D-03 0.100000000000D+01
0.143184033083D-05 0.000000000000D+00 0.000000000000D+00 0.457368394211D-06 0.000000000000D+00  6 -1 1 25 23 2 -2 4 0.17872050D-01 0.10208466D+00 0.67305143D+05 0.67305143D+05 0.67305143D+05 0.11797061D+01  1  2 12  7  6  5       21 0.205553402278D-03 0.100000000000D+01
0.143184033083D-05 0.000000000000D+00 0.000000000000D+00 0.457368394211D-06 0.000000000000D+00  6 -1 1 25 23 4 -4 4 0.17872050D-01 0.10208466D+00 0.67305143D+05 0.67305143D+05 0.67305143D+05 0.11797061D+01  1  2 12  7  6  5       21 0.205553402278D-03 0.100000000000D+01
0.147231922217D-05 0.000000000000D+00 0.000000000000D+00 0.457368394211D-06 0.000000000000D+00  6 -1 1 25 23 2 -2 4 0.17872050D-01 0.10208466D+00 0.67305143D+05 0.67305143D+05 0.67305143D+05 0.11797061D+01  1  2 12  7  6  5       21 0.211364506810D-03 0.100000000000D+01
0.147231922217D-05 0.000000000000D+00 0.000000000000D+00 0.457368394211D-06 0.000000000000D+00  6 -1 1 25 23 4 -4 4 0.17872050D-01 0.10208466D+00 0.67305143D+05 0.67305143D+05 0.67305143D+05 0.11797061D+01  1  2 12  7  6  5       21 0.211364506810D-03 0.100000000000D+01
-.366971301126D-05 0.000000000000D+00 0.000000000000D+00 0.457337607248D-06 0.000000000000D+00  6 -1 1 25 23 2 -2 4 0.17872050D-01 0.10208466D+00 0.67369377D+05 0.67369377D+05 0.67369377D+05 0.11796664D+01  1  2  5  7  6  5       21 -.526746967597D-03 0.100000000000D+01
-.366971301126D-05 0.000000000000D+00 0.000000000000D+00 0.457337607248D-06 0.000000000000D+00  6 -1 1 25 23 4 -4 4 0.17872050D-01 0.10208466D+00 0.67369377D+05 0.67369377D+05 0.67369377D+05 0.11796664D+01  1  2  5  7  6  5       21 -.526746967597D-03 0.100000000000D+01
0.143184033083D-05 0.000000000000D+00 0.000000000000D+00 0.457368394211D-06 0.000000000000D+00  6 -1 1 25 23 3 -3 4 0.17872050D-01 0.10208466D+00 0.67305143D+05 0.67305143D+05 0.67305143D+05 0.11797061D+01  1  2 12  8  6  5       21 0.205553402278D-03 0.100000000000D+01
0.147231922217D-05 0.000000000000D+00 0.000000000000D+00 0.457368394211D-06 0.000000000000D+00  6 -1 1 25 23 3 -3 4 0.17872050D-01 0.10208466D+00 0.67305143D+05 0.67305143D+05 0.67305143D+05 0.11797061D+01  1  2 12  8  6  5       21 0.211364506810D-03 0.100000000000D+01
-.366971301126D-05 0.000000000000D+00 0.000000000000D+00 0.457337607248D-06 0.000000000000D+00  6 -1 1 25 23 3 -3 4 0.17872050D-01 0.10208466D+00 0.67369377D+05 0.67369377D+05 0.67369377D+05 0.11796664D+01  1  2  5  8  6  5       21 -.526746967597D-03 0.100000000000D+01
  </mgrwgt>
  </event>
  <event>
  5     66 0.44820762E-03 0.30770893E+02 0.75467711E-02 0.11835325E+00
       -1 -1    0    0    0  501 0.00000000E+00 0.00000000E+00 0.83151653E+02 0.83152269E+02 0.32000000E+00 0.0000E+00 0.9000E+01
        1 -1    0    0  502    0 0.00000000E+00 0.00000000E+00 -.28790039E+03 0.28790057E+03 0.32000000E+00 0.0000E+00 0.9000E+01
       25  1    1    2    0    0 0.91431021E+02 0.17442446E+02 -.10118503E+03 0.18581518E+03 0.12500000E+03 0.0000E+00 0.9000E+01
       23  1    1    2    0    0 -.60772743E+02 -.20016131E+02 -.47126890E+02 0.12095523E+03 0.91188000E+02 0.0000E+00 0.9000E+01
       21  1    1    2  502  501 -.30658279E+02 0.25736856E+01 -.56436819E+02 0.64282431E+02 0.75000000E+00 0.0000E+00 0.9000E+01
#aMCatNLO 1  0  0  1  1 0.30565314D+02 0.00000000D+00  -5  6  0 0.00000000D+00 0.00000000D+00 0.00000000D+00 0.00000000D+00 0.00000000D+00
  <mgrwgt>
 0.5196326580D-01    4    2    0
 0.154724078274217D+03 0.000000000000000D+00 0.000000000000000D+00 0.154724078274217D+03
 0.154724078274217D+03 0.000000000000000D+00 0.000000000000000D+00 -.154724078274217D+03
 0.155858872311700D+03 0.914337720485633D+02 0.174422146232849D+02 0.161943085105627D+01
 0.113852321980928D+03 -.607707329169297D+02 -.200162998493495D+02 0.235237249926350D+02
 0.397369622558052D+02 -.306630391316336D+02 0.257408522606460D+01 -.251431558436912D+02
 0.000000000000000D+00 -.000000000000000D+00 0.000000000000000D+00 -.000000000000000D+00
 0.162709843424724D+03 0.000000000000000D+00 0.000000000000000D+00 0.162709843424724D+03
 0.187768577551442D+03 0.000000000000000D+00 0.000000000000000D+00 -.187768577551442D+03
 0.162167325496363D+03 0.103065006436887D+03 0.694430345870261D+01 0.161943085105627D+01
 0.111275057610532D+03 -.525371051928463D+02 -.274476600578965D+02 0.235237249926350D+02
 0.375116328323053D+02 -.278378111415145D+02 0.241415597469015D-01 -.251431558436912D+02
 0.395244050369662D+02 -.226900901025258D+02 0.204792150394470D+02 -.250587341267172D+02
0.825712484060D-04 0.000000000000D+00 0.000000000000D+00 0.166255257867D-04 0.000000000000D+00  6 -1 1 25 23 21 21 2 0.12792623D-01 0.44292428D-01 0.22203530D+05 0.22203530D+05 0.22203530D+05 0.12288599D+01  1  2  2  1  6  1       -1 0.462027635202D-01 0.100000000000D+01
0.970681516051D-05 0.435740449131D-05 -.317095335388D-06 0.166255257867D-04 0.000000000000D+00  6 -1 1 25 23 21 21 4 0.12792623D-01 0.44292428D-01 0.22203530D+05 0.22203530D+05 0.22203530D+05 0.12288599D+01  1  2  3  1  6  1       -1 0.820201537886D-02 0.100000000000D+01
0.171496087874D-05 0.000000000000D+00 0.000000000000D+00 0.166255257867D-04 0.000000000000D+00  6 -1 1 25 23 21 21 4 0.12792623D-01 0.44292428D-01 0.22203530D+05 0.22203530D+05 0.22203530D+05 0.12288599D+01  1  2 15  1  6  1       -1 0.144909893400D-02 0.100000000000D+01
-.460441124858D-05 0.000000000000D+00 0.000000000000D+00 0.166255257867D-04 0.000000000000D+00  6 -1 1 25 23 21 21 4 0.12792623D-01 0.44292428D-01 0.22203530D+05 0.22203530D+05 0.22203530D+05 0.12288599D+01  1  2  4  1  6  1       -1 -.389061203360D-02 0.100000000000D+01
  </mgrwgt>
  </event>
  <event>
  6     66 -.44820762E-03 0.11425126E+03 0.75467711E-02 0.10854788E+00
       -1 -1    0    0    0  503 0.00000000E+00 0.00000000E+00 0.23774908E+03 0.23774929E+03 0.32000000E+00 0.0000E+00 0.9000E+01
        1 -1    0    0  502    0 0.00000000E+00 0.00000000E+00 -.52898507E+03 0.52898517E+03 0.32000000E+00 0.0000E+00 0.9000E+01
       25  1    1    2    0    0 0.44347590E+02 0.22289516E+03 0.46207904E+02 0.26345613E+03 0.12500000E+03 0.0000E+00 0.9000E+01
       23  1    1    2    0    0 -.12594189E+03 -.13601878E+03 -.12555662E+03 0.24174819E+03 0.91188000E+02 0.0000E+00 0.9000E+01
       21  1    1    2  502  501 0.72926447E+02 -.95964559E+02 -.21677636E+03 0.24803229E+03 0.75000000E+00 0.0000E+00 0.9000E+01
       21  1    1    2  501  503 0.86678511E+01 0.90881848E+01 0.48890808E+01 0.13497865E+02 0.75000000E+00 0.0000E+00 0.9000E+01
#aMCatNLO 2  0  0  1  5 0.12558931D+02 0.00000000D+00  -5  6  0 0.00000000D+00 0.00000000D+00 0.00000000D+00 0.00000000D+00 0.00000000D+00
  <mgrwgt>
 -.2764772933D-01    3    2    0
 0.346236042537878D+03 0.000000000000000D+00 0.000000000000000D+00 0.346236042537878D+03
 0.346236042537878D+03 0.000000000000000D+00 0.000000000000000D+00 -.346236042537878D+03
 0.309815487597538D+03 0.482029061581059D+02 0.226938127197569D+03 0.162899363464910D+03
 0.205907565093318D+03 -.123344079947760D+03 -.133294538794056D+03 -.331885204276951D+02
 0.176749032384900D+03 0.751411737896543D+02 -.936435884035131D+02 -.129710843037215D+03
 0.000000000000000D+00 0.000000000000000D+00 0.000000000000000D+00 0.000000000000000D+00
 0.360213729808460D+03 0.000000000000000D+00 0.000000000000000D+00 0.360213729808460D+03
 0.349125564950298D+03 0.000000000000000D+00 0.000000000000000D+00 -.349125564950298D+03
 0.306284673393216D+03 0.443472811623398D+02 0.222895529770843D+03 0.162899363464910D+03
 0.209234748626626D+03 -.125942087841484D+03 -.136018532968105D+03 -.331885204276951D+02
 0.177066540408940D+03 0.729269556272024D+02 -.959651815707862D+02 -.129710843037215D+03
 0.167533323299763D+02 0.866785105194228D+01 0.908818476804814D+01 0.110881648581625D+02
-.148102150127D-02 0.000000000000D+00 0.000000000000D+00 0.706688914707D-06 0.000000000000D+00  6 -1 1 25 23 21 21 4 0.36904917D-01 0.80706857D-01 0.89714624D+05 0.89714624D+05 0.89714624D+05 0.11679267D+01  1  2 13  1  6  1       -1 -.835480760269D-01 0.100000000000D+01
-.164000282810D-02 0.000000000000D+00 0.000000000000D+00 0.708710653788D-06 0.000000000000D+00  6 -1 1 25 23 21 21 4 0.35156643D-01 0.80706857D-01 0.86086988D+05 0.86086988D+05 0.86086988D+05 0.11695962D+01  1  2  8  1  6  1       -1 -.101372716094D+00 0.100000000000D+01
0.277534887248D-02 0.000000000000D+00 0.000000000000D+00 0.708710653788D-06 0.152882655489D-07  6 -1 1 25 23 21 21 4 0.36575931D-01 0.81380398D-01 0.89714624D+05 0.89714624D+05 0.89714624D+05 0.11679267D+01  1  2  1  1  6  1       -1 0.157273062790D+00 0.100000000000D+01
  </mgrwgt>
  </event>
  <event>
  5     66 0.44820762E-03 0.77218703E+02 0.75467711E-02 0.11349421E+00
       -1 -1    0    0    0  501 0.00000000E+00 0.00000000E+00 0.91498443E+02 0.91499002E+02 0.32000000E+00 0.0000E+00 0.9000E+01
        1 -1    0    0  502    0 0.00000000E+00 0.00000000E+00 -.58880322E+03 0.58880330E+03 0.32000000E+00 0.0000E+00 0.9000E+01
       25  1    1    2    0    0 -.11556886E+03 0.12370845E+03 -.12843418E+03 0.24653657E+03 0.12500000E+03 0.0000E+00 0.9000E+01
       23  1    1    2    0    0 0.39279470E+02 -.11178356E+03 -.26598335E+03 0.30512429E+03 0.91188000E+02 0.0000E+00 0.9000E+01
       21  1    1    2  502  501 0.76289385E+02 -.11924893E+02 -.10288724E+03 0.12864144E+03 0.75000000E+00 0.0000E+00 0.9000E+01
#aMCatNLO 1  0  0  2  1 0.45617311D+02 0.00000000D+00  -5  6  0 0.00000000D+00 0.00000000D+00 0.00000000D+00 0.00000000D+00 0.00000000D+00
  <mgrwgt>
 0.3915405827D-02    1    2    0
 0.232109450893767D+03 0.000000000000000D+00 0.000000000000000D+00 0.232109450893767D+03
 0.232109450893767D+03 0.000000000000000D+00 0.000000000000000D+00 -.232109450893767D+03
 0.223706924365094D+03 -.115570541846856D+03 0.123708714761703D+03 0.758906565930338D+02
 0.162211694540587D+03 0.392782470331375D+02 -.111783367033765D+03 -.629212258806768D+02
 0.783002828818528D+02 0.762922948137182D+02 -.119253477279383D+02 -.129694307123570D+02
 0.000000000000000D+00 -.000000000000000D+00 -.000000000000000D+00 -.000000000000000D+00
 0.404227828499632D+03 0.000000000000000D+00 0.000000000000000D+00 0.404227828499632D+03
 0.612897652493584D+03 0.000000000000000D+00 0.000000000000000D+00 -.612897652493584D+03
 0.383574397791021D+03 -.114175353411885D+03 0.335721485097237D+03 0.758906565930338D+02
 0.118564429399318D+03 0.399233114977353D+02 -.137594006960196D+02 -.629212258806768D+02
 0.909543358276088D+02 0.766811460396219D+02 0.471644666554070D+02 -.129694307123570D+02
 0.424032317975267D+03 -.242910412547227D+01 -.369126551056624D+03 -.208669823993952D+03
0.149999123714D-04 0.000000000000D+00 0.000000000000D+00 0.174860853672D-05 0.000000000000D+00  6 -1 1 25 23 21 21 4 0.14076733D-01 0.90585160D-01 0.47779557D+05 0.47779557D+05 0.47779557D+05 0.11942405D+01  1  2 14  2  6  2        1 0.391540582677D-02 0.100000000000D+01
  </mgrwgt>
  </event>
  <event>
  6     66 0.44820762E-03 0.21547699E+02 0.75467711E-02 0.12202440E+00
       -1 -1    0    0    0  501 0.00000000E+00 0.00000000E+00 0.53752758E+02 0.53753711E+02 0.32000000E+00 0.0000E+00 0.9000E+01
       21 -1    0    0  502  503 0.00000000E+00 0.00000000E+00 -.39596401E+03 0.39596472E+03 0.75000000E+00 0.0000E+00 0.9000E+01
       25  1    1    2    0    0 -.25177025E+02 0.25265600E+02 -.20378926E+03 0.24171739E+03 0.12500000E+03 0.0000E+00 0.9000E+01
       23  1    1    2    0    0 0.28191808E+02 -.42953206E+02 -.63515196E+02 0.12243034E+03 0.91188000E+02 0.0000E+00 0.9000E+01
       -1  1    1    2    0  503 -.91867919E+01 0.24467422E+02 -.30256382E+02 0.39982533E+02 0.32000000E+00 0.0000E+00 0.9000E+01
       21  1    1    2  502  501 0.61720084E+01 -.67798153E+01 -.44650411E+02 0.45588170E+02 0.75000000E+00 0.0000E+00 0.9000E+01
#aMCatNLO 2  0  0  2  1 0.45617311D+02 0.00000000D+00  -5  6  0 0.00000000D+00 0.00000000D+00 0.00000000D+00 0.00000000D+00 0.00000000D+00
  <mgrwgt>
 0.1183254006D-02    1    2    0
 0.132178490163577D+03 0.000000000000000D+00 0.000000000000000D+00 0.132178490163577D+03
 0.132178490163577D+03 0.000000000000000D+00 0.000000000000000D+00 -.132178490163577D+03
 0.137377183269601D+03 -.298752831247761D+02 0.377737740543598D+02 -.304647326427499D+02
 0.109853977382471D+03 0.243050976082652D+02 -.326054826406046D+02 0.458125499702251D+02
 0.000000000000000D+00 -.000000000000000D+00 0.000000000000000D+00 0.000000000000000D+00
 0.171258196750809D+02 0.557018551651088D+01 -.516829141375515D+01 -.153478173274752D+02
 0.146033612219502D+03 0.000000000000000D+00 0.000000000000000D+00 0.146033612219502D+03
 0.145748949894061D+03 0.000000000000000D+00 0.000000000000000D+00 -.145748949894061D+03
 0.133512571069339D+03 -.251798209251985D+02 0.252682274155884D+02 -.304647326427499D+02
 0.114251949132887D+03 0.281896332534840D+02 -.429512674891386D+02 0.458125499702251D+02
 0.261368113091140D+02 -.918679185846050D+01 0.244674217709596D+02 0.284662325441810D+00
 0.178812306022234D+02 0.617697953017493D+01 -.678438169740939D+01 -.153478173274752D+02
0.275077890985D-06 0.000000000000D+00 0.000000000000D+00 0.274410125944D-03 0.852476757811D-07  6 -1 21 25 23 -1 21 4 0.82697275D-02 0.60917259D-01 0.18220354D+05 0.18220354D+05 0.18220354D+05 0.12383068D+01  1  2  1  5  5  2        1 0.118325400594D-02 0.100000000000D+01
  </mgrwgt>
  </event>
  <event>
  5     66 0.44820762E-03 0.28139269E+02 0.75467711E-02 0.11997689E+00
       -1 -1    0    0    0  501 0.00000000E+00 0.00000000E+00 0.30054437E+02 0.30056140E+02 0.32000000E+00 0.0000E+00 0.9000E+01
        1 -1    0    0  502    0 -.00000000E+00 -.00000000E+00 -.87965170E+03 0.87965176E+03 0.32000000E+00 0.0000E+00 0.9000E+01
       25  1    1    2    0    0 -.41814908E+02 -.70513337E+02 -.25188561E+03 0.29290267E+03 0.12500000E+03 0.0000E+00 0.9000E+01
       23  1    1    2    0    0 0.15997230E+02 0.81689228E+02 -.46256944E+03 0.47876380E+03 0.91188000E+02 0.0000E+00 0.9000E+01
       21  1    1    2  502  501 0.25817678E+02 -.11175891E+02 -.13514222E+03 0.13804143E+03 0.75000000E+00 0.0000E+00 0.9000E+01
#aMCatNLO 1  0  0  5  2 0.57688407D+00 0.00000000D+00  -5  6  0 0.00000000D+00 0.00000000D+00 0.00000000D+00 0.00000000D+00 0.00000000D+00
  <mgrwgt>
 0.5173286079D-01   23    2    0
 0.162598394860249D+03 0.000000000000000D+00 0.000000000000000D+00 0.162598394860249D+03
 0.162598394860249D+03 -.000000000000000D+00 -.000000000000000D+00 -.162598394860249D+03
 0.161302021679208D+03 -.418181987639157D+02 -.705119127143743D+02 0.606023977685842D+02
 0.130805161831935D+03 0.159945614631213D+02 0.816903827808977D+02 -.431925269299178D+02
 0.330896062093549D+02 0.258236373007943D+02 -.111784700665235D+02 -.174098708386664D+02
 0.000000000000000D+00 0.000000000000000D+00 -.000000000000000D+00 0.000000000000000D+00
 0.162598394860249D+03 0.000000000000000D+00 0.000000000000000D+00 0.162598394860249D+03
 0.162598394860249D+03 -.000000000000000D+00 -.000000000000000D+00 -.162598394860249D+03
 0.161270429596962D+03 -.417203463893223D+02 -.705542708000145D+02 0.605364273096948D+02
 0.130811118098062D+03 0.160739227790742D+02 0.816560290574278D+02 -.432460310217013D+02
 0.323193179572675D+02 0.254208809916754D+02 -.103782101593270D+02 -.170472835583524D+02
 0.795924068206445D+00 0.225542618572601D+00 -.723548098086227D+00 -.243112729641034D+00
0.438751267466D-04 0.000000000000D+00 0.000000000000D+00 0.164799394330D-04 0.000000000000D+00  6 -1 1 25 23 21 21 2 0.46238951D-02 0.13533117D+00 0.22664131D+05 0.22664131D+05 0.22664131D+05 0.12278915D+01  1  2  2  3  6  5       21 0.254793079431D-01 0.100000000000D+01
0.662302856395D-05 0.231535404918D-05 -.168492039293D-06 0.164799394330D-04 0.000000000000D+00  6 -1 1 25 23 21 21 4 0.46238951D-02 0.13533117D+00 0.22664131D+05 0.22664131D+05 0.22664131D+05 0.12278915D+01  1  2  3  3  6  5       21 0.579890337068D-02 0.100000000000D+01
0.107835325545D-05 0.000000000000D+00 0.000000000000D+00 0.164799394330D-04 0.000000000000D+00  6 -1 1 25 23 21 21 4 0.46238951D-02 0.13533117D+00 0.22664131D+05 0.22664131D+05 0.22664131D+05 0.12278915D+01  1  2 15  3  6  5       21 0.944170218718D-03 0.100000000000D+01
-.156075414085D-02 0.000000000000D+00 0.000000000000D+00 0.164799394330D-04 0.000000000000D+00  6 -1 1 25 23 21 21 4 0.46238951D-02 0.13533117D+00 0.22664131D+05 0.22664131D+05 0.22664131D+05 0.12278915D+01  1  2  4  3  6  5       21 -.136654437781D+01 0.100000000000D+01
-.175151233040D-02 0.000000000000D+00 0.000000000000D+00 0.164799394330D-04 0.000000000000D+00  6 -1 1 25 23 21 21 4 0.46238951D-02 0.13533117D+00 0.22664131D+05 0.22664131D+05 0.22664131D+05 0.12278915D+01  1  2  5  3  6  5       21 -.153356589942D+01 0.100000000000D+01
0.183271909483D-02 0.000000000000D+00 -.000000000000D+00 0.164799394330D-04 0.000000000000D+00  6 -1 1 25 23 21 21 4 0.46238951D-02 0.13533117D+00 0.22664131D+05 0.22664131D+05 0.22664131D+05 0.12278915D+01  1  2  6  3  6  5       21 0.160466783948D+01 0.100000000000D+01
0.150207820208D-02 0.000000000000D+00 0.000000000000D+00 0.164799394330D-04 0.323317893565D-03  6 -1 1 25 23 21 21 4 0.46238951D-02 0.13533117D+00 0.22672653D+05 0.22672653D+05 0.22672653D+05 0.12278738D+01  1  2 11  3  6  5       21 0.131510219346D+01 0.100000000000D+01
0.769343775765D-14 0.000000000000D+00 0.000000000000D+00 0.164794641205D-04 0.000000000000D+00  6 -1 1 25 23 1 -1 4 0.46238951D-02 0.13533117D+00 0.22672653D+05 0.22672653D+05 0.22672653D+05 0.12278738D+01  1  2 12  6  6  5       21 0.673577238278D-11 0.100000000000D+01
0.765943360523D-14 0.000000000000D+00 0.000000000000D+00 0.164794641205D-04 0.000000000000D+00  6 -1 1 25 23 1 -1 4 0.46238951D-02 0.13533117D+00 0.22672653D+05 0.22672653D+05 0.22672653D+05 0.12278738D+01  1  2 12  6  6  5       21 0.670600100645D-11 0.100000000000D+01
-.358926377841D-05 0.000000000000D+00 0.000000000000D+00 0.164799394330D-04 0.000000000000D+00  6 -1 1 25 23 1 -1 4 0.46238951D-02 0.13533117D+00 0.22664131D+05 0.22664131D+05 0.22664131D+05 0.12278915D+01  1  2  5  6  6  5       21 -.314263989984D-02 0.100000000000D+01
0.353219146151D-05 0.000000000000D+00 0.000000000000D+00 0.164799394330D-04 0.147890598833D-05  6 -1 1 25 23 1 -1 4 0.46238951D-02 0.13533117D+00 0.22672653D+05 0.22672653D+05 0.22672653D+05 0.12278738D+01  1  2 11  6  6  5       21 0.309251058455D-02 0.100000000000D+01
0.769343775765D-14 0.000000000000D+00 0.000000000000D+00 0.164794641205D-04 0.000000000000D+00  6 -1 1 25 23 2 -2 4 0.46238951D-02 0.13533117D+00 0.22672653D+05 0.22672653D+05 0.22672653D+05 0.12278738D+01  1  2 12  7  6  5       21 0.673577238278D-11 0.100000000000D+01
0.769343775765D-14 0.000000000000D+00 0.000000000000D+00 0.164794641205D-04 0.000000000000D+00  6 -1 1 25 23 4 -4 4 0.46238951D-02 0.13533117D+00 0.22672653D+05 0.22672653D+05 0.22672653D+05 0.12278738D+01  1  2 12  7  6  5       21 0.673577238278D-11 0.100000000000D+01
0.765943360523D-14 0.000000000000D+00 0.000000000000D+00 0.164794641205D-04 0.000000000000D+00  6 -1 1 25 23 2 -2 4 0.46238951D-02 0.13533117D+00 0.22672653D+05 0.22672653D+05 0.22672653D+05 0.12278738D+01  1  2 12  7  6  5       21 0.670600100645D-11 0.100000000000D+01
0.765943360523D-14 0.000000000000D+00 0.000000000000D+00 0.164794641205D-04 0.000000000000D+00  6 -1 1 25 23 4 -4 4 0.46238951D-02 0.13533117D+00 0.22672653D+05 0.22672653D+05 0.22672653D+05 0.12278738D+01  1  2 12  7  6  5       21 0.670600100645D-11 0.100000000000D+01
-.358926377841D-05 0.000000000000D+00 0.000000000000D+00 0.164799394330D-04 0.000000000000D+00  6 -1 1 25 23 2 -2 4 0.46238951D-02 0.13533117D+00 0.22664131D+05 0.22664131D+05 0.22664131D+05 0.12278915D+01  1  2  5  7  6  5       21 -.314263989984D-02 0.100000000000D+01
-.358926377841D-05 0.000000000000D+00 0.000000000000D+00 0.164799394330D-04 0.000000000000D+00  6 -1 1 25 23 4 -4 4 0.46238951D-02 0.13533117D+00 0.22664131D+05 0.22664131D+05 0.22664131D+05 0.12278915D+01  1  2  5  7  6  5       21 -.314263989984D-02 0.100000000000D+01
0.355165632015D-05 0.000000000000D+00 0.000000000000D+00 0.164799394330D-04 0.147064922870D-05  6 -1 1 25 23 2 -2 4 0.46238951D-02 0.13533117D+00 0.22672653D+05 0.22672653D+05 0.22672653D+05 0.12278738D+01  1  2 11  7  6  5       21 0.310955249239D-02 0.100000000000D+01
0.355165632015D-05 0.000000000000D+00 0.000000000000D+00 0.164799394330D-04 0.147064922870D-05  6 -1 1 25 23 4 -4 4 0.46238951D-02 0.13533117D+00 0.22672653D+05 0.22672653D+05 0.22672653D+05 0.12278738D+01  1  2 11  7  6  5       21 0.310955249239D-02 0.100000000000D+01
0.769343775765D-14 0.000000000000D+00 0.000000000000D+00 0.164794641205D-04 0.000000000000D+00  6 -1 1 25 23 3 -3 4 0.46238951D-02 0.13533117D+00 0.22672653D+05 0.22672653D+05 0.22672653D+05 0.12278738D+01  1  2 12  8  6  5       21 0.673577238278D-11 0.100000000000D+01
0.765943360523D-14 0.000000000000D+00 0.000000000000D+00 0.164794641205D-04 0.000000000000D+00  6 -1 1 25 23 3 -3 4 0.46238951D-02 0.13533117D+00 0.22672653D+05 0.22672653D+05 0.22672653D+05 0.12278738D+01  1  2 12  8  6  5       21 0.670600100645D-11 0.100000000000D+01
-.358926377841D-05 0.000000000000D+00 0.000000000000D+00 0.164799394330D-04 0.000000000000D+00  6 -1 1 25 23 3 -3 4 0.46238951D-02 0.13533117D+00 0.22664131D+05 0.22664131D+05 0.22664131D+05 0.12278915D+01  1  2  5  8  6  5       21 -.314263989984D-02 0.100000000000D+01
0.355178771728D-05 0.000000000000D+00 0.000000000000D+00 0.164799394330D-04 0.147070363686D-05  6 -1 1 25 23 3 -3 4 0.46238951D-02 0.13533117D+00 0.22672653D+05 0.22672653D+05 0.22672653D+05 0.12278738D+01  1  2 11  8  6  5       21 0.310966753344D-02 0.100000000000D+01
  </mgrwgt>
  </event>
  <event>
  5     66 0.44820762E-03 0.27090971E+02 0.75467711E-02 0.10807216E+00
       -1 -1    0    0    0  501 0.00000000E+00 0.00000000E+00 0.65480010E+02 0.65480792E+02 0.32000000E+00 0.0000E+00 0.9000E+01
        1 -1    0    0  502    0 -.00000000E+00 -.00000000E+00 -.15806360E+04 0.15806361E+04 0.32000000E+00 0.0000E+00 0.9000E+01
       25  1    1    2    0    0 0.41928209E+02 -.27133245E+03 -.54480869E+03 0.62275259E+03 0.12500000E+03 0.0000E+00 0.9000E+01
       23  1    1    2    0    0 -.15243507E+02 0.27597863E+03 -.80912746E+03 0.85988317E+03 0.91188000E+02 0.0000E+00 0.9000E+01
       21  1    1    2  502  501 -.26684701E+02 -.46461747E+01 -.16121985E+03 0.16348108E+03 0.75000000E+00 0.0000E+00 0.9000E+01
#aMCatNLO 1  0  0  5  1 0.51691156D+01 0.00000000D+00  -5  6  0 0.00000000D+00 0.00000000D+00 0.00000000D+00 0.00000000D+00 0.00000000D+00
  <mgrwgt>
 0.5386875841D+00   25    2    0
 0.321715296794496D+03 0.000000000000000D+00 0.000000000000000D+00 0.321715296794496D+03
 0.321715296794496D+03 -.000000000000000D+00 -.000000000000000D+00 -.321715296794496D+03
 0.310295645948716D+03 0.419306385454722D+02 -.271332031341214D+03 0.726576782876430D+02
 0.294536456513294D+03 -.152412008345008D+02 0.275979030759561D+03 -.451636275064693D+02
 0.385984911269820D+02 -.266894377109714D+02 -.464699941834764D+01 -.274940507811737D+02
 0.000000000000000D+00 0.000000000000000D+00 0.000000000000000D+00 -.000000000000000D+00
 0.321715296794496D+03 0.000000000000000D+00 0.000000000000000D+00 0.321715296794496D+03
 0.321715296794496D+03 -.000000000000000D+00 -.000000000000000D+00 -.321715296794496D+03
 0.310127198620431D+03 0.411704783613281D+02 -.271464385719444D+03 0.718746013666897D+02
 0.294571913301617D+03 -.159629936098625D+02 0.275853356676668D+03 -.459071803468920D+02
 0.305351214383388D+02 -.243150269265739D+02 -.481903949405378D+01 -.178311515379360D+02
 0.819636022860491D+01 -.892457824891888D+00 0.430068536830693D+00 -.813626948186169D+01
0.187831283202D-02 0.000000000000D+00 0.000000000000D+00 0.123552388321D-04 0.000000000000D+00  6 -1 1 25 23 21 21 2 0.10073910D-01 0.24317483D+00 0.96042128D+05 0.96042128D+05 0.96042128D+05 0.11651862D+01  1  2  2  3  6  5       21 0.969829707720D-01 0.100000000000D+01
0.699502580628D-03 0.991212913495D-04 -.721321584609D-05 0.123552388321D-04 0.000000000000D+00  6 -1 1 25 23 21 21 4 0.10073910D-01 0.24317483D+00 0.96042128D+05 0.96042128D+05 0.96042128D+05 0.11651862D+01  1  2  3  3  6  5       21 0.490351540833D-01 0.100000000000D+01
0.367576216054D-04 0.000000000000D+00 0.000000000000D+00 0.123552388321D-04 0.000000000000D+00  6 -1 1 25 23 21 21 4 0.10073910D-01 0.24317483D+00 0.96042128D+05 0.96042128D+05 0.96042128D+05 0.11651862D+01  1  2 15  3  6  5       21 0.257671049267D-02 0.100000000000D+01
0.192000890018D-03 0.000000000000D+00 0.000000000000D+00 0.123590235052D-04 0.000000000000D+00  6 -1 1 25 23 21 21 4 0.10073910D-01 0.24317483D+00 0.95615426D+05 0.95615426D+05 0.95615426D+05 0.11653646D+01  1  2 12  3  6  5       21 0.134687763113D-01 0.100000000000D+01
0.182095576610D-03 0.000000000000D+00 0.000000000000D+00 0.123590235052D-04 0.000000000000D+00  6 -1 1 25 23 21 21 4 0.10073910D-01 0.24317483D+00 0.95615426D+05 0.95615426D+05 0.95615426D+05 0.11653646D+01  1  2 12  3  6  5       21 0.127739230188D-01 0.100000000000D+01
-.825776612080D-02 0.000000000000D+00 0.000000000000D+00 0.123552388321D-04 0.000000000000D+00  6 -1 1 25 23 21 21 4 0.10073910D-01 0.24317483D+00 0.96042128D+05 0.96042128D+05 0.96042128D+05 0.11651862D+01  1  2  4  3  6  5       21 -.578869678727D+00 0.100000000000D+01
-.706667233371D-02 0.000000000000D+00 0.000000000000D+00 0.123552388321D-04 0.000000000000D+00  6 -1 1 25 23 21 21 4 0.10073910D-01 0.24317483D+00 0.96042128D+05 0.96042128D+05 0.96042128D+05 0.11651862D+01  1  2  5  3  6  5       21 -.495373964780D+00 0.100000000000D+01
0.107452329591D-01 0.000000000000D+00 -.000000000000D+00 0.123552388321D-04 0.000000000000D+00  6 -1 1 25 23 21 21 4 0.10073910D-01 0.24317483D+00 0.96042128D+05 0.96042128D+05 0.96042128D+05 0.11651862D+01  1  2  6  3  6  5       21 0.753241186528D+00 0.100000000000D+01
0.957034538455D-02 0.000000000000D+00 0.000000000000D+00 0.123552388321D-04 0.660231016659D-04  6 -1 1 25 23 21 21 4 0.10073910D-01 0.24317483D+00 0.95615426D+05 0.95615426D+05 0.95615426D+05 0.11653646D+01  1  2 11  3  6  5       21 0.671355435876D+00 0.100000000000D+01
0.247106069422D-04 0.000000000000D+00 0.000000000000D+00 0.123590235052D-04 0.000000000000D+00  6 -1 1 25 23 1 -1 4 0.10073910D-01 0.24317483D+00 0.95615426D+05 0.95615426D+05 0.95615426D+05 0.11653646D+01  1  2 12  6  6  5       21 0.173343799287D-02 0.100000000000D+01
0.239450994162D-04 0.000000000000D+00 0.000000000000D+00 0.123590235052D-04 0.000000000000D+00  6 -1 1 25 23 1 -1 4 0.10073910D-01 0.24317483D+00 0.95615426D+05 0.95615426D+05 0.95615426D+05 0.11653646D+01  1  2 12  6  6  5       21 0.167973798329D-02 0.100000000000D+01
-.495673287788D-04 0.000000000000D+00 0.000000000000D+00 0.123552388321D-04 0.000000000000D+00  6 -1 1 25 23 1 -1 4 0.10073910D-01 0.24317483D+00 0.96042128D+05 0.96042128D+05 0.96042128D+05 0.11651862D+01  1  2  5  6  6  5       21 -.347467139004D-02 0.100000000000D+01
0.490445530728D-04 0.000000000000D+00 0.000000000000D+00 0.123552388321D-04 0.617737832815D-07  6 -1 1 25 23 1 -1 4 0.10073910D-01 0.24317483D+00 0.95615426D+05 0.95615426D+05 0.95615426D+05 0.11653646D+01  1  2 11  6  6  5       21 0.344045339875D-02 0.100000000000D+01
0.247106069422D-04 0.000000000000D+00 0.000000000000D+00 0.123590235052D-04 0.000000000000D+00  6 -1 1 25 23 2 -2 4 0.10073910D-01 0.24317483D+00 0.95615426D+05 0.95615426D+05 0.95615426D+05 0.11653646D+01  1  2 12  7  6  5       21 0.173343799287D-02 0.100000000000D+01
0.247106069422D-04 0.000000000000D+00 0.000000000000D+00 0.123590235052D-04 0.000000000000D+00  6 -1 1 25 23 4 -4 4 0.10073910D-01 0.24317483D+00 0.95615426D+05 0.95615426D+05 0.95615426D+05 0.11653646D+01  1  2 12  7  6  5       21 0.173343799287D-02 0.100000000000D+01
0.239450994162D-04 0.000000000000D+00 0.000000000000D+00 0.123590235052D-04 0.000000000000D+00  6 -1 1 25 23 2 -2 4 0.10073910D-01 0.24317483D+00 0.95615426D+05 0.95615426D+05 0.95615426D+05 0.11653646D+01  1  2 12  7  6  5       21 0.167973798329D-02 0.100000000000D+01
0.239450994162D-04 0.000000000000D+00 0.000000000000D+00 0.123590235052D-04 0.000000000000D+00  6 -1 1 25 23 4 -4 4 0.10073910D-01 0.24317483D+00 0.95615426D+05 0.95615426D+05 0.95615426D+05 0.11653646D+01  1  2 12  7  6  5       21 0.167973798329D-02 0.100000000000D+01
-.495673287788D-04 0.000000000000D+00 0.000000000000D+00 0.123552388321D-04 0.000000000000D+00  6 -1 1 25 23 2 -2 4 0.10073910D-01 0.24317483D+00 0.96042128D+05 0.96042128D+05 0.96042128D+05 0.11651862D+01  1  2  5  7  6  5       21 -.347467139004D-02 0.100000000000D+01
-.495673287788D-04 0.000000000000D+00 0.000000000000D+00 0.123552388321D-04 0.000000000000D+00  6 -1 1 25 23 4 -4 4 0.10073910D-01 0.24317483D+00 0.96042128D+05 0.96042128D+05 0.96042128D+05 0.11651862D+01  1  2  5  7  6  5       21 -.347467139004D-02 0.100000000000D+01
0.489530972599D-04 0.000000000000D+00 0.000000000000D+00 0.123552388321D-04 0.613452578381D-07  6 -1 1 25 23 2 -2 4 0.10073910D-01 0.24317483D+00 0.95615426D+05 0.95615426D+05 0.95615426D+05 0.11653646D+01  1  2 11  7  6  5       21 0.343403781450D-02 0.100000000000D+01
0.489530972599D-04 0.000000000000D+00 0.000000000000D+00 0.123552388321D-04 0.613452578381D-07  6 -1 1 25 23 4 -4 4 0.10073910D-01 0.24317483D+00 0.95615426D+05 0.95615426D+05 0.95615426D+05 0.11653646D+01  1  2 11  7  6  5       21 0.343403781450D-02 0.100000000000D+01
0.247106069422D-04 0.000000000000D+00 0.000000000000D+00 0.123590235052D-04 0.000000000000D+00  6 -1 1 25 23 3 -3 4 0.10073910D-01 0.24317483D+00 0.95615426D+05 0.95615426D+05 0.95615426D+05 0.11653646D+01  1  2 12  8  6  5       21 0.173343799287D-02 0.100000000000D+01
0.239450994162D-04 0.000000000000D+00 0.000000000000D+00 0.123590235052D-04 0.000000000000D+00  6 -1 1 25 23 3 -3 4 0.10073910D-01 0.24317483D+00 0.95615426D+05 0.95615426D+05 0.95615426D+05 0.11653646D+01  1  2 12  8  6  5       21 0.167973798329D-02 0.100000000000D+01
-.495673287788D-04 0.000000000000D+00 0.000000000000D+00 0.123552388321D-04 0.000000000000D+00  6 -1 1 25 23 3 -3 4 0.10073910D-01 0.24317483D+00 0.96042128D+05 0.96042128D+05 0.96042128D+05 0.11651862D+01  1  2  5  8  6  5       21 -.347467139004D-02 0.100000000000D+01
0.489600162983D-04 0.000000000000D+00 0.000000000000D+00 0.123552388321D-04 0.613539283864D-07  6 -1 1 25 23 3 -3 4 0.10073910D-01 0.24317483D+00 0.95615426D+05 0.95615426D+05 0.95615426D+05 0.11653646D+01  1  2 11  8  6  5       21 0.343452318194D-02 0.100000000000D+01
  </mgrwgt>
  </event>
  <event>
  6     66 0.44820762E-03 0.28899366E+02 0.75467711E-02 0.11866803E+00
       -1 -1    0    0    0  501 0.00000000E+00 0.00000000E+00 0.91442316E+02 0.91442876E+02 0.32000000E+00 0.0000E+00 0.9000E+01
        1 -1    0    0  503    0 0.00000000E+00 0.00000000E+00 -.13270143E+04 0.13270143E+04 0.32000000E+00 0.0000E+00 0.9000E+01
       25  1    1    2    0    0 0.66055603E+02 -.11322636E+02 -.29067442E+02 0.14478073E+03 0.12500000E+03 0.0000E+00 0.9000E+01
       23  1    1    2    0    0 -.91277996E+02 0.43884736E+02 -.10712480E+03 0.17334508E+03 0.91188000E+02 0.0000E+00 0.9000E+01
       21  1    1    2  502  501 -.15711056E+01 -.10943692E+02 -.31860029E+03 0.31879294E+03 0.75000000E+00 0.0000E+00 0.9000E+01
       21  1    1    2  503  502 0.26793499E+02 -.21618408E+02 -.78077941E+03 0.78153842E+03 0.75000000E+00 0.0000E+00 0.9000E+01
#aMCatNLO 2  0  0  2  5 0.25748449D+02 0.00000000D+00  -5  6  0 0.00000000D+00 0.00000000D+00 0.00000000D+00 0.00000000D+00 0.00000000D+00
  <mgrwgt>
 0.2398254861D+00    1    2    0
 0.222285855519036D+03 0.000000000000000D+00 0.000000000000000D+00 0.222285855519036D+03
 0.222285855519036D+03 0.000000000000000D+00 0.000000000000000D+00 -.222285855519036D+03
 0.182217528937867D+03 0.768687121668888D+02 -.200471416026417D+02 0.106148674299730D+03
 0.131121406451053D+03 -.831701360562510D+02 0.373429459941498D+02 0.237866504276040D+02
 0.131232775649151D+03 0.630142388936222D+01 -.172958043915081D+02 -.129935324727334D+03
 0.000000000000000D+00 0.000000000000000D+00 -.000000000000000D+00 -.000000000000000D+00
 0.223880076694458D+03 0.000000000000000D+00 0.000000000000000D+00 0.223880076694458D+03
 0.542009853912259D+03 0.000000000000000D+00 0.000000000000000D+00 -.542009853912259D+03
 0.177155505920035D+03 0.660555317610115D+02 -.113224973377597D+02 0.106148674299730D+03
 0.138342379442012D+03 -.912780357790684D+02 0.438848271208595D+02 0.237866504276040D+02
 0.130404854452248D+03 -.157099451946827D+01 -.109439220087799D+02 -.129935324727334D+03
 0.319987190792420D+03 0.267934985375251D+02 -.216184077743199D+02 -.318129777217801D+03
0.315836977595D-02 0.000000000000D+00 0.000000000000D+00 0.508523009307D-04 0.169122653220D-05  6 -1 1 25 23 21 21 4 0.14068067D-01 0.20415569D+00 0.26178978D+05 0.26178978D+05 0.26178978D+05 0.12211578D+01  1  2  1  2  6  2        1 0.239825486129D+00 0.100000000000D+01
  </mgrwgt>
  </event>
  <event>
  6     66 0.44820762E-03 0.34773064E+02 0.75467711E-02 0.11683196E+00
       -1 -1    0    0    0  501 0.00000000E+00 0.00000000E+00 0.10085659E+03 0.10085710E+03 0.32000000E+00 0.0000E+00 0.9000E+01
       21 -1    0    0  502  503 0.00000000E+00 0.00000000E+00 -.84078265E+03 0.84078299E+03 0.75000000E+00 0.0000E+00 0.9000E+01
       25  1    1    2    0    0 0.43019190E+02 0.47426324E+02 -.55824127E+02 0.15113319E+03 0.12500000E+03 0.0000E+00 0.9000E+01
       23  1    1    2    0    0 -.10412560E+03 -.60222348E+02 -.62906253E+02 0.16352773E+03 0.91188000E+02 0.0000E+00 0.9000E+01
       -1  1    1    2    0  503 0.40741292E+02 0.20696583E+02 -.56237997E+03 0.56423358E+03 0.32000000E+00 0.0000E+00 0.9000E+01
       21  1    1    2  502  501 0.20365119E+02 -.79005583E+01 -.58815718E+02 0.62745582E+02 0.75000000E+00 0.0000E+00 0.9000E+01
#aMCatNLO 2  0  0  2  1 0.45696842D+02 0.00000000D+00  -5  6  0 0.00000000D+00 0.00000000D+00 0.00000000D+00 0.00000000D+00 0.00000000D+00
  <mgrwgt>
 0.1780117883D-01    1    2    0
 0.164943058939839D+03 0.000000000000000D+00 0.000000000000000D+00 0.164943058939839D+03
 0.164943058939839D+03 0.000000000000000D+00 0.000000000000000D+00 -.164943058939839D+03
 0.151147328221991D+03 0.610031241142204D+02 0.565634893458245D+02 0.173120001725958D+02
 0.136590926085000D+03 -.864049932970742D+02 -.512190804621700D+02 0.158937935905927D+02
 0.000000000000000D+00 0.000000000000000D+00 0.000000000000000D+00 -.000000000000000D+00
 0.421478635726879D+02 0.254018691828538D+02 -.534440888365448D+01 -.332057937631885D+02
 0.168062358281574D+03 0.000000000000000D+00 0.000000000000000D+00 0.168062358281574D+03
 0.504567418961910D+03 0.000000000000000D+00 0.000000000000000D+00 -.504567418961910D+03
 0.141507929748647D+03 0.430173745863617D+02 0.474267257510862D+02 0.173120001725958D+02
 0.151779718037880D+03 -.104127422794315D+03 -.602220774398547D+02 0.158937935905927D+02
 0.339593664883943D+03 0.407412915531091D+02 0.206965825298793D+02 -.336505060680335D+03
 0.397484645730144D+02 0.203687566548441D+02 -.790123084111089D+01 -.332057937631885D+02
0.683466626596D-04 0.000000000000D+00 0.000000000000D+00 0.221245820230D-04 0.288584769227D-07  6 -1 21 25 23 -1 21 4 0.15516456D-01 0.12935118D+00 0.32208515D+05 0.32208515D+05 0.32208515D+05 0.12116739D+01  1  2  1  5  5  2        1 0.178011788298D-01 0.100000000000D+01
  </mgrwgt>
  </event>
  <event>
  6     66 0.44820762E-03 0.29180585E+02 0.75467711E-02 0.11598743E+00
       -1 -1    0    0    0  501 0.00000000E+00 0.00000000E+00 0.14405889E+03 0.14405925E+03 0.32000000E+00 0.0000E+00 0.9000E+01
        1 -1    0    0  503    0 0.00000000E+00 0.00000000E+00 -.30934372E+03 0.30934388E+03 0.32000000E+00 0.0000E+00 0.9000E+01
       25  1    1    2    0    0 -.96159387E+02 -.10310440E+03 -.38930003E+02 0.19239982E+03 0.12500000E+03 0.0000E+00 0.9000E+01
       23  1    1    2    0    0 0.69356352E+02 0.99533618E+02 -.26385441E+02 0.15404119E+03 0.91188000E+02 0.0000E+00 0.9000E+01
       21  1    1    2  502  501 -.48047261E+01 0.13266060E+01 -.62582591E+01 0.80357690E+01 0.75000000E+00 0.0000E+00 0.9000E+01
       21  1    1    2  503  502 0.31607762E+02 0.22441734E+01 -.93711121E+02 0.98926354E+02 0.75000000E+00 0.0000E+00 0.9000E+01
#aMCatNLO 2  0  0  2  2 0.15132830D+02 0.00000000D+00  -5  6  0 0.00000000D+00 0.00000000D+00 0.00000000D+00 0.00000000D+00 0.00000000D+00
  <mgrwgt>
 0.2433490051D-01    1    2    0
 0.172863313934096D+03 0.000000000000000D+00 0.000000000000000D+00 0.172863313934096D+03
 0.172863313934096D+03 0.000000000000000D+00 0.000000000000000D+00 -.172863313934096D+03
 0.179745597944038D+03 -.793501955679473D+02 -.101916740245871D+03 -.670913098036960D-01
 0.159468960069518D+03 0.835699580541187D+02 0.100537641985213D+03 0.483141144382130D+01
 0.651206985463557D+01 -.421976248617143D+01 0.137909826065721D+01 -.476432013401759D+01
 0.000000000000000D+00 0.000000000000000D+00 0.000000000000000D+00 -.000000000000000D+00
 0.176786212506735D+03 0.000000000000000D+00 0.000000000000000D+00 0.176786212506735D+03
 0.252072695986694D+03 0.000000000000000D+00 0.000000000000000D+00 -.252072695986694D+03
 0.188415079973831D+03 -.961443871167783D+02 -.103109139683348D+03 -.670913098036960D-01
 0.151844449712414D+03 0.693689383657428D+02 0.995293595776446D+02 0.483141144382130D+01
 0.691620121159063D+01 -.483231284796248D+01 0.133560675320938D+01 -.476432013401759D+01
 0.816831775955937D+02 0.316077615989979D+02 0.224417335249404D+01 -.752864834799591D+02
0.804090988229D-04 0.000000000000D+00 0.000000000000D+00 0.624836777610D-03 0.114144447949D-05  6 -1 1 25 23 21 21 4 0.22162734D-01 0.47590925D-01 0.35510285D+05 0.35510285D+05 0.35510285D+05 0.12072867D+01  1  2  1  2  6  2        1 0.243349005071D-01 0.100000000000D+01
  </mgrwgt>
  </event>
  <event>
  5     66 -.44820762E-03 0.44950971E+02 0.75467711E-02 0.12119810E+00
       -1 -1    0    0    0  501 0.00000000E+00 0.00000000E+00 0.26911773E+02 0.26913675E+02 0.32000000E+00 0.0000E+00 0.9000E+01
        1 -1    0    0  502    0 0.00000000E+00 0.00000000E+00 -.13620459E+04 0.13620459E+04 0.32000000E+00 0.0000E+00 0.9000E+01
       25  1    1    2    0    0 0.52142123E+02 -.15397549E+01 -.59235294E+03 0.60764149E+03 0.12500000E+03 0.0000E+00 0.9000E+01
       23  1    1    2    0    0 -.21404121E+02 0.34337128E+02 -.11629881E+03 0.15322480E+03 0.91188000E+02 0.0000E+00 0.9000E+01
       21  1    1    2  502  501 -.30738002E+02 -.32797374E+02 -.62648239E+03 0.62809333E+03 0.75000000E+00 0.0000E+00 0.9000E+01
#aMCatNLO 1  0  0  2  5 0.19782330D+01 0.00000000D+00  -5  6  0 0.00000000D+00 0.00000000D+00 0.00000000D+00 0.00000000D+00 0.00000000D+00
  <mgrwgt>
 -.1755692746D+00   11    4    0
 0.191458656319446D+03 0.000000000000000D+00 0.000000000000000D+00 0.191458656319446D+03
 0.191458656319446D+03 0.000000000000000D+00 0.000000000000000D+00 -.191458656319446D+03
 0.138721412167366D+03 0.521424783201944D+02 -.153937593433703D+01 -.299570103660096D+02
 0.150290567638651D+03 -.214037358757677D+02 0.343375390073802D+02 0.112404701336843D+03
 0.939053328328739D+02 -.307387424444267D+02 -.327981630730432D+02 -.824476909708337D+02
 0.000000000000000D+00 -.000000000000000D+00 -.000000000000000D+00 -.000000000000000D+00
 0.191535648628700D+03 0.000000000000000D+00 0.000000000000000D+00 0.191535648628700D+03
 0.204604501378009D+03 0.000000000000000D+00 0.000000000000000D+00 -.204604501378009D+03
 0.138762520510277D+03 0.522677688813997D+02 -.833645282138146D+00 -.299570103660096D+02
 0.150447908438924D+03 -.212679453379871D+02 0.351024134230463D+02 0.112404701336843D+03
 0.937119936436702D+02 -.306540287822725D+02 -.323209920278573D+02 -.824476909708337D+02
 0.132177274138372D+02 -.345794761140125D+00 -.194777611305087D+01 -.130688527493082D+02
 0.191458656319446D+03 0.000000000000000D+00 0.000000000000000D+00 0.191458656319446D+03
 0.191458656319446D+03 0.000000000000000D+00 0.000000000000000D+00 -.191458656319446D+03
 0.138721412167366D+03 0.521424783201944D+02 -.153937593433703D+01 -.299570103660096D+02
 0.150290567638651D+03 -.214037358757677D+02 0.343375390073802D+02 0.112404701336843D+03
 0.000000000000000D+00 -.000000000000000D+00 -.000000000000000D+00 -.000000000000000D+00
 0.939053328328739D+02 -.307387424444267D+02 -.327981630730432D+02 -.824476909708337D+02
 0.191535648628700D+03 0.000000000000000D+00 0.000000000000000D+00 0.191535648628700D+03
 0.204604501378009D+03 0.000000000000000D+00 0.000000000000000D+00 -.204604501378009D+03
 0.138762520510277D+03 0.522677688813997D+02 -.833645282138146D+00 -.299570103660096D+02
 0.150447908438924D+03 -.212679453379871D+02 0.351024134230463D+02 0.112404701336843D+03
 0.132177274138372D+02 -.345794761140125D+00 -.194777611305087D+01 -.130688527493082D+02
 0.937119936436702D+02 -.306540287822725D+02 -.323209920278573D+02 -.824476909708337D+02
0.833631441234D-05 0.000000000000D+00 0.000000000000D+00 0.715486239864D-05 0.000000000000D+00  6 -1 1 25 23 21 21 2 0.41404220D-02 0.20954567D+00 0.19622554D+05 0.19622554D+05 0.19622554D+05 0.12347380D+01  1  2  2  2  6  2        1 0.262052741112D-02 0.100000000000D+01
0.535560610225D-07 0.439919397642D-06 -.320136423454D-07 0.715486239864D-05 0.000000000000D+00  6 -1 1 25 23 21 21 4 0.41404220D-02 0.20954567D+00 0.19622554D+05 0.19622554D+05 0.19622554D+05 0.12347380D+01  1  2  3  2  6  2        1 0.256668693726D-04 0.100000000000D+01
0.460260983791D-06 0.000000000000D+00 0.000000000000D+00 0.715486239864D-05 0.000000000000D+00  6 -1 1 25 23 21 21 4 0.41404220D-02 0.20954567D+00 0.19622554D+05 0.19622554D+05 0.19622554D+05 0.12347380D+01  1  2 15  2  6  2        1 0.220581169017D-03 0.100000000000D+01
0.181201617933D-05 0.000000000000D+00 0.000000000000D+00 0.714755201441D-05 0.000000000000D+00  6 -1 1 25 23 21 21 4 0.41404220D-02 0.22537592D+00 0.19882826D+05 0.19882826D+05 0.19882826D+05 0.12341071D+01  1  2 12  2  6  2        1 0.741852557278D-03 0.100000000000D+01
-.372555879237D-02 0.000000000000D+00 0.000000000000D+00 0.715486239864D-05 0.000000000000D+00  6 -1 1 25 23 21 21 4 0.41404220D-02 0.20954567D+00 0.19622554D+05 0.19622554D+05 0.19622554D+05 0.12347380D+01  1  2  4  2  6  2        1 -.178548289471D+01 0.100000000000D+01
-.236007246696D-02 0.000000000000D+00 -.270581487590D-04 0.715486239864D-05 0.000000000000D+00  6 -1 1 25 23 21 21 4 0.41404220D-02 0.22396743D+00 0.19622554D+05 0.19622554D+05 0.19622554D+05 0.12347380D+01  1  2  5  2  6  2        1 -.981587700437D+00 0.100000000000D+01
0.235671110591D-02 0.000000000000D+00 0.269983242002D-04 0.715486239864D-05 0.000000000000D+00  6 -1 1 25 23 21 21 4 0.41404220D-02 0.20954567D+00 0.19622554D+05 0.19622554D+05 0.19622554D+05 0.12347380D+01  1  2  6  2  6  2        1 0.112945939170D+01 0.100000000000D+01
0.352018028847D-02 0.000000000000D+00 0.000000000000D+00 0.715486239864D-05 0.139722689309D-04  6 -1 1 25 23 21 21 4 0.41420870D-02 0.22393340D+00 0.19882826D+05 0.19882826D+05 0.19882826D+05 0.12341071D+01  1  2 11  2  6  2        1 0.146075917092D+01 0.100000000000D+01
0.289232046791D-07 0.000000000000D+00 0.000000000000D+00 0.714755201441D-05 0.000000000000D+00  6 -1 21 25 23 -1 21 4 0.41404220D-02 0.22537592D+00 0.19882826D+05 0.19882826D+05 0.19882826D+05 0.12341071D+01  3  4 12  5  5  2        1 0.133039357446D-04 0.100000000000D+01
-.266920009611D-04 0.000000000000D+00 -.306420246127D-06 0.715486239864D-05 0.000000000000D+00  6 -1 21 25 23 -1 21 4 0.41404220D-02 0.22396743D+00 0.19622554D+05 0.19622554D+05 0.19622554D+05 0.12347380D+01  3  4  5  5  5  2        1 -.125513060888D-01 0.100000000000D+01
0.217780928769D-04 0.000000000000D+00 0.000000000000D+00 0.715486239864D-05 0.172815432676D-06  6 -1 21 25 23 -1 21 4 0.41420870D-02 0.22393340D+00 0.19882826D+05 0.19882826D+05 0.19882826D+05 0.12341071D+01  3  4 11  5  5  2        1 0.102121320837D-01 0.100000000000D+01
  </mgrwgt>
  </event>
  <event>
  6     66 -.44820762E-03 0.13163244E+02 0.75467711E-02 0.12035392E+00
       -1 -1    0    0    0  501 0.00000000E+00 0.00000000E+00 0.50769924E+02 0.50770933E+02 0.32000000E+00 0.0000E+00 0.9000E+01
        1 -1    0    0  502    0 -.00000000E+00 -.00000000E+00 -.67074259E+03 0.67074266E+03 0.32000000E+00 0.0000E+00 0.9000E+01
       25  1    1    2    0    0 -.57107769E+02 0.44890334E+02 -.11865995E+03 0.18703375E+03 0.12500000E+03 0.0000E+00 0.9000E+01
       23  1    1    2    0    0 0.63853955E+02 -.25987463E+02 -.20406649E+03 0.23390395E+03 0.91188000E+02 0.0000E+00 0.9000E+01
       21  1    1    2  502  503 0.11746454E+02 -.97804342E+01 -.22274423E+03 0.22326933E+03 0.75000000E+00 0.0000E+00 0.9000E+01
       21  1    1    2  503  501 -.18492640E+02 -.91224371E+01 -.74501985E+02 0.77306564E+02 0.75000000E+00 0.0000E+00 0.9000E+01
#aMCatNLO 2  0  0  5  1 0.17819397D+02 0.00000000D+00  -5  6  0 0.00000000D+00 0.00000000D+00 0.00000000D+00 0.00000000D+00 0.00000000D+00
  <mgrwgt>
 -.6417784230D-01    2    2    0
 0.184537100861674D+03 0.000000000000000D+00 0.000000000000000D+00 0.184537100861674D+03
 0.184537100861674D+03 -.000000000000000D+00 -.000000000000000D+00 -.184537100861674D+03
 0.168595952055978D+03 -.567337569992825D+02 0.459383203671580D+02 0.864323237466885D+02
 0.114340554589389D+03 0.641094855759178D+02 -.252714631784692D+02 -.313657262303733D+01
 0.861376950779801D+02 -.737572857663530D+01 -.206668571886888D+02 -.832957511236511D+02
 0.000000000000000D+00 -.000000000000000D+00 0.000000000000000D+00 0.000000000000000D+00
 0.184537100861674D+03 0.000000000000000D+00 0.000000000000000D+00 0.184537100861674D+03
 0.184537100861674D+03 -.000000000000000D+00 -.000000000000000D+00 -.184537100861674D+03
 0.166297274723507D+03 -.571102251503691D+02 0.448834532535221D+02 0.821807847843914D+02
 0.114474697233256D+03 0.638522643247672D+02 -.259921994160072D+02 -.604142969538525D+01
 0.619783267893410D+02 0.119291235091109D+02 -.964726975611941D+01 -.600494728550001D+02
 0.263239029772436D+02 -.186711626835090D+02 -.924398408139544D+01 -.160898822340061D+02
-.160825623532D-03 0.000000000000D+00 0.000000000000D+00 0.354860830373D-04 0.000000000000D+00  6 -1 1 25 23 21 21 4 0.78108410D-02 0.10319125D+00 0.21765601D+05 0.21765601D+05 0.21765601D+05 0.12298016D+01  1  2 13  3  6  5       21 -.969126993237D-01 0.100000000000D+01
0.543231571105D-04 0.000000000000D+00 0.000000000000D+00 0.357550147584D-04 0.536872677165D-06  6 -1 1 25 23 21 21 4 0.78108410D-02 0.10319125D+00 0.21765601D+05 0.21765601D+05 0.21765601D+05 0.12298016D+01  1  2  1  3  6  5       21 0.327348570194D-01 0.100000000000D+01
  </mgrwgt>
  </event>
  <event>
  5     66 0.44820762E-03 0.20039022E+02 0.75467711E-02 0.12419506E+00
       -1 -1    0    0    0  501 0.00000000E+00 0.00000000E+00 0.53793609E+02 0.53794561E+02 0.32000000E+00 0.0000E+00 0.9000E+01
        1 -1    0    0  502    0 -.00000000E+00 -.00000000E+00 -.31319475E+03 0.31319491E+03 0.32000000E+00 0.0000E+00 0.9000E+01
       25  1    1    2    0    0 0.84513830E+01 0.79709646E+01 -.70206094E+02 0.14383622E+03 0.12500000E+03 0.0000E+00 0.9000E+01
       23  1    1    2    0    0 -.95017277E+01 -.27975497E+02 -.13667664E+03 0.16693911E+03 0.91188000E+02 0.0000E+00 0.9000E+01
       21  1    1    2  502  501 0.10503447E+01 0.20004533E+02 -.52518406E+02 0.56214144E+02 0.75000000E+00 0.0000E+00 0.9000E+01
#aMCatNLO 1  0  0  5  2 0.62169753D+00 0.00000000D+00  -5  6  0 0.00000000D+00 0.00000000D+00 0.00000000D+00 0.00000000D+00 0.00000000D+00
  <mgrwgt>
 0.2992462340D+00   25    2    0
 0.129800156150974D+03 0.000000000000000D+00 0.000000000000000D+00 0.129800156150974D+03
 0.129800156150974D+03 -.000000000000000D+00 -.000000000000000D+00 -.129800156150974D+03
 0.133185829384393D+03 0.845117484912439D+01 0.796699981616111D+01 0.444811162900337D+02
 0.994253645618641D+02 -.950188314020688D+01 -.279784569033863D+02 -.264021199973561D+02
 0.269891183556903D+02 0.105070829108249D+01 0.200114570872252D+02 -.180789962926776D+02
 0.000000000000000D+00 0.000000000000000D+00 0.000000000000000D+00 0.000000000000000D+00
 0.129800156150974D+03 0.000000000000000D+00 0.000000000000000D+00 0.129800156150974D+03
 0.129800156150974D+03 -.000000000000000D+00 -.000000000000000D+00 -.129800156150974D+03
 0.133181054296345D+03 0.845222632489163D+01 0.798702589035600D+01 0.444630240881741D+02
 0.994246711957761D+02 -.950109818529422D+01 -.279635069009133D+02 -.264156263121690D+02
 0.225886952042111D+02 0.826042442279105D+00 0.163286432406981D+02 -.155866036977370D+02
 0.440589160561550D+01 0.222829418123491D+00 0.364783776985931D+01 -.246079407826818D+01
0.269996592030D-04 0.000000000000D+00 0.000000000000D+00 0.445591385368D-04 0.000000000000D+00  6 -1 1 25 23 21 21 2 0.82760256D-02 0.48183894D-01 0.14572501D+05 0.14572501D+05 0.14572501D+05 0.12492566D+01  1  2  2  3  6  5       21 0.270481804684D-01 0.100000000000D+01
0.455980986048D-05 0.142481116062D-05 -.103685800513D-06 0.445591385368D-04 0.000000000000D+00  6 -1 1 25 23 21 21 4 0.82760256D-02 0.48183894D-01 0.14572501D+05 0.14572501D+05 0.14572501D+05 0.12492566D+01  1  2  3  3  6  5       21 0.712901975180D-02 0.100000000000D+01
0.116449330595D-05 0.000000000000D+00 0.000000000000D+00 0.445591385368D-04 0.000000000000D+00  6 -1 1 25 23 21 21 4 0.82760256D-02 0.48183894D-01 0.14572501D+05 0.14572501D+05 0.14572501D+05 0.12492566D+01  1  2 15  3  6  5       21 0.182062323495D-02 0.100000000000D+01
0.970482468756D-11 0.000000000000D+00 0.000000000000D+00 0.445602531675D-04 0.000000000000D+00  6 -1 1 25 23 21 21 4 0.82760256D-02 0.48183894D-01 0.14567919D+05 0.14567919D+05 0.14567919D+05 0.12492722D+01  1  2 12  3  6  5       21 0.151735769052D-07 0.100000000000D+01
0.967514344053D-11 0.000000000000D+00 0.000000000000D+00 0.445602531675D-04 0.000000000000D+00  6 -1 1 25 23 21 21 4 0.82760256D-02 0.48183894D-01 0.14567919D+05 0.14567919D+05 0.14567919D+05 0.12492722D+01  1  2 12  3  6  5       21 0.151271700201D-07 0.100000000000D+01
-.378718795212D-02 0.000000000000D+00 0.000000000000D+00 0.445591385368D-04 0.000000000000D+00  6 -1 1 25 23 21 21 4 0.82760256D-02 0.48183894D-01 0.14572501D+05 0.14572501D+05 0.14572501D+05 0.12492566D+01  1  2  4  3  6  5       21 -.592106656649D+01 0.100000000000D+01
-.326073342812D-02 0.000000000000D+00 0.000000000000D+00 0.445591385368D-04 0.000000000000D+00  6 -1 1 25 23 21 21 4 0.82760256D-02 0.48183894D-01 0.14572501D+05 0.14572501D+05 0.14572501D+05 0.12492566D+01  1  2  5  3  6  5       21 -.509798296983D+01 0.100000000000D+01
0.422503968082D-02 0.000000000000D+00 -.000000000000D+00 0.445591385368D-04 0.000000000000D+00  6 -1 1 25 23 21 21 4 0.82760256D-02 0.48183894D-01 0.14572501D+05 0.14572501D+05 0.14572501D+05 0.12492566D+01  1  2  6  3  6  5       21 0.660562441381D+01 0.100000000000D+01
0.300066905787D-02 0.000000000000D+00 0.000000000000D+00 0.445591385368D-04 0.756291458894D-03  6 -1 1 25 23 21 21 4 0.82760256D-02 0.48183894D-01 0.14567919D+05 0.14567919D+05 0.14567919D+05 0.12492722D+01  1  2 11  3  6  5       21 0.469157189155D+01 0.100000000000D+01
0.335024062098D-12 0.000000000000D+00 0.000000000000D+00 0.445602531675D-04 0.000000000000D+00  6 -1 1 25 23 1 -1 4 0.82760256D-02 0.48183894D-01 0.14567919D+05 0.14567919D+05 0.14567919D+05 0.12492722D+01  1  2 12  6  6  5       21 0.523813003840D-09 0.100000000000D+01
0.334070266122D-12 0.000000000000D+00 0.000000000000D+00 0.445602531675D-04 0.000000000000D+00  6 -1 1 25 23 1 -1 4 0.82760256D-02 0.48183894D-01 0.14567919D+05 0.14567919D+05 0.14567919D+05 0.12492722D+01  1  2 12  6  6  5       21 0.522321735624D-09 0.100000000000D+01
-.231613719139D-04 0.000000000000D+00 0.000000000000D+00 0.445591385368D-04 0.000000000000D+00  6 -1 1 25 23 1 -1 4 0.82760256D-02 0.48183894D-01 0.14572501D+05 0.14572501D+05 0.14572501D+05 0.12492566D+01  1  2  5  6  6  5       21 -.362115708561D-01 0.100000000000D+01
0.207711493818D-04 0.000000000000D+00 0.000000000000D+00 0.445591385368D-04 0.101184228693D-04  6 -1 1 25 23 1 -1 4 0.82760256D-02 0.48183894D-01 0.14567919D+05 0.14567919D+05 0.14567919D+05 0.12492722D+01  1  2 11  6  6  5       21 0.324758707860D-01 0.100000000000D+01
0.335024062098D-12 0.000000000000D+00 0.000000000000D+00 0.445602531675D-04 0.000000000000D+00  6 -1 1 25 23 2 -2 4 0.82760256D-02 0.48183894D-01 0.14567919D+05 0.14567919D+05 0.14567919D+05 0.12492722D+01  1  2 12  7  6  5       21 0.523813003840D-09 0.100000000000D+01
0.335024062098D-12 0.000000000000D+00 0.000000000000D+00 0.445602531675D-04 0.000000000000D+00  6 -1 1 25 23 4 -4 4 0.82760256D-02 0.48183894D-01 0.14567919D+05 0.14567919D+05 0.14567919D+05 0.12492722D+01  1  2 12  7  6  5       21 0.523813003840D-09 0.100000000000D+01
0.334070266122D-12 0.000000000000D+00 0.000000000000D+00 0.445602531675D-04 0.000000000000D+00  6 -1 1 25 23 2 -2 4 0.82760256D-02 0.48183894D-01 0.14567919D+05 0.14567919D+05 0.14567919D+05 0.12492722D+01  1  2 12  7  6  5       21 0.522321735624D-09 0.100000000000D+01
0.334070266122D-12 0.000000000000D+00 0.000000000000D+00 0.445602531675D-04 0.000000000000D+00  6 -1 1 25 23 4 -4 4 0.82760256D-02 0.48183894D-01 0.14567919D+05 0.14567919D+05 0.14567919D+05 0.12492722D+01  1  2 12  7  6  5       21 0.522321735624D-09 0.100000000000D+01
-.231613719139D-04 0.000000000000D+00 0.000000000000D+00 0.445591385368D-04 0.000000000000D+00  6 -1 1 25 23 2 -2 4 0.82760256D-02 0.48183894D-01 0.14572501D+05 0.14572501D+05 0.14572501D+05 0.12492566D+01  1  2  5  7  6  5       21 -.362115708561D-01 0.100000000000D+01
-.231613719139D-04 0.000000000000D+00 0.000000000000D+00 0.445591385368D-04 0.000000000000D+00  6 -1 1 25 23 4 -4 4 0.82760256D-02 0.48183894D-01 0.14572501D+05 0.14572501D+05 0.14572501D+05 0.12492566D+01  1  2  5  7  6  5       21 -.362115708561D-01 0.100000000000D+01
0.207816544494D-04 0.000000000000D+00 0.000000000000D+00 0.445591385368D-04 0.101222720101D-04  6 -1 1 25 23 2 -2 4 0.82760256D-02 0.48183894D-01 0.14567919D+05 0.14567919D+05 0.14567919D+05 0.12492722D+01  1  2 11  7  6  5       21 0.324922955496D-01 0.100000000000D+01
0.207816544494D-04 0.000000000000D+00 0.000000000000D+00 0.445591385368D-04 0.101222720101D-04  6 -1 1 25 23 4 -4 4 0.82760256D-02 0.48183894D-01 0.14567919D+05 0.14567919D+05 0.14567919D+05 0.12492722D+01  1  2 11  7  6  5       21 0.324922955496D-01 0.100000000000D+01
0.335024062098D-12 0.000000000000D+00 0.000000000000D+00 0.445602531675D-04 0.000000000000D+00  6 -1 1 25 23 3 -3 4 0.82760256D-02 0.48183894D-01 0.14567919D+05 0.14567919D+05 0.14567919D+05 0.12492722D+01  1  2 12  8  6  5       21 0.523813003840D-09 0.100000000000D+01
0.334070266122D-12 0.000000000000D+00 0.000000000000D+00 0.445602531675D-04 0.000000000000D+00  6 -1 1 25 23 3 -3 4 0.82760256D-02 0.48183894D-01 0.14567919D+05 0.14567919D+05 0.14567919D+05 0.12492722D+01  1  2 12  8  6  5       21 0.522321735624D-09 0.100000000000D+01
-.231613719139D-04 0.000000000000D+00 0.000000000000D+00 0.445591385368D-04 0.000000000000D+00  6 -1 1 25 23 3 -3 4 0.82760256D-02 0.48183894D-01 0.14572501D+05 0.14572501D+05 0.14572501D+05 0.12492566D+01  1  2  5  8  6  5       21 -.362115708561D-01 0.100000000000D+01
0.207785415868D-04 0.000000000000D+00 0.000000000000D+00 0.445591385368D-04 0.101207558055D-04  6 -1 1 25 23 3 -3 4 0.82760256D-02 0.48183894D-01 0.14567919D+05 0.14567919D+05 0.14567919D+05 0.12492722D+01  1  2 11  8  6  5       21 0.324874285622D-01 0.100000000000D+01
  </mgrwgt>
  </event>
  <event>
  5     66 0.44820762E-03 0.39738792E+02 0.75467711E-02 0.10940510E+00
       -1 -1    0    0    0  501 0.00000000E+00 0.00000000E+00 0.44035375E+02 0.44036538E+02 0.32000000E+00 0.0000E+00 0.9000E+01
        1 -1    0    0  502    0 -.00000000E+00 -.00000000E+00 -.18698696E+04 0.18698697E+04 0.32000000E+00 0.0000E+00 0.9000E+01
       25  1    1    2    0    0 -.21835871E+03 0.72768183E+02 -.79663402E+03 0.83858601E+03 0.12500000E+03 0.0000E+00 0.9000E+01
       23  1    1    2    0    0 0.22187743E+03 -.11234576E+03 -.95610062E+03 0.99211633E+03 0.91188000E+02 0.0000E+00 0.9000E+01
       21  1    1    2  502  501 -.35187230E+01 0.39577574E+02 -.73099634E+02 0.83203874E+02 0.75000000E+00 0.0000E+00 0.9000E+01
#aMCatNLO 1  0  0  5  1 0.18795747D+01 0.00000000D+00  -5  6  0 0.00000000D+00 0.00000000D+00 0.00000000D+00 0.00000000D+00 0.00000000D+00
  <mgrwgt>
 0.4627341734D+00   23    2    0
 0.286952173788592D+03 0.000000000000000D+00 0.000000000000000D+00 0.286952173788592D+03
 0.286952173788592D+03 -.000000000000000D+00 -.000000000000000D+00 -.286952173788592D+03
 0.262156468224794D+03 -.218358485773686D+03 0.727656616392594D+02 0.112135636138309D+02
 0.266833924433993D+03 0.221877661070150D+03 -.112348322282878D+03 -.321442045026504D+02
 0.449139549183973D+02 -.351917529646375D+01 0.395826606436185D+02 0.209306408888194D+02
 0.000000000000000D+00 0.000000000000000D+00 0.000000000000000D+00 0.000000000000000D+00
 0.286952173788592D+03 0.000000000000000D+00 0.000000000000000D+00 0.286952173788592D+03
 0.286952173788592D+03 -.000000000000000D+00 -.000000000000000D+00 -.286952173788592D+03
 0.262305287565624D+03 -.218393758744286D+03 0.731624017580498D+02 0.114233530725880D+02
 0.266608780003073D+03 0.221841784080793D+03 -.111944788336714D+03 -.319308225829847D+02
 0.426455276256152D+02 -.276671088822381D+01 0.384234350336273D+02 0.182927848493528D+02
 0.234475238287249D+01 -.681314448282846D+00 0.358951545036598D+00 0.221468466104389D+01
0.149372406842D-02 0.000000000000D+00 0.000000000000D+00 0.618153516736D-05 0.000000000000D+00  6 -1 1 25 23 21 21 2 0.67747646D-02 0.28767234D+00 0.80243605D+05 0.80243605D+05 0.80243605D+05 0.11724562D+01  1  2  2  3  6  5       21 0.933447269843D-01 0.100000000000D+01
0.372781843851D-03 0.788259847123D-04 -.573629372932D-05 0.618153516736D-05 0.000000000000D+00  6 -1 1 25 23 21 21 4 0.67747646D-02 0.28767234D+00 0.80243605D+05 0.80243605D+05 0.80243605D+05 0.11724562D+01  1  2  3  3  6  5       21 0.320233998197D-01 0.100000000000D+01
0.292151175612D-04 0.000000000000D+00 0.000000000000D+00 0.618153516736D-05 0.000000000000D+00  6 -1 1 25 23 21 21 4 0.67747646D-02 0.28767234D+00 0.80243605D+05 0.80243605D+05 0.80243605D+05 0.11724562D+01  1  2 15  3  6  5       21 0.250969140765D-02 0.100000000000D+01
-.440463746941D-01 0.000000000000D+00 0.000000000000D+00 0.618153516736D-05 0.000000000000D+00  6 -1 1 25 23 21 21 4 0.67747646D-02 0.28767234D+00 0.80243605D+05 0.80243605D+05 0.80243605D+05 0.11724562D+01  1  2  4  3  6  5       21 -.378375366372D+01 0.100000000000D+01
-.198461021383D-01 0.000000000000D+00 0.000000000000D+00 0.618153516736D-05 0.000000000000D+00  6 -1 1 25 23 21 21 4 0.67747646D-02 0.28767234D+00 0.80243605D+05 0.80243605D+05 0.80243605D+05 0.11724562D+01  1  2  5  3  6  5       21 -.170485680599D+01 0.100000000000D+01
0.220805580407D-01 0.000000000000D+00 -.000000000000D+00 0.618153516736D-05 0.000000000000D+00  6 -1 1 25 23 21 21 4 0.67747646D-02 0.28767234D+00 0.80243605D+05 0.80243605D+05 0.80243605D+05 0.11724562D+01  1  2  6  3  6  5       21 0.189680519597D+01 0.100000000000D+01
0.457092892304D-01 0.000000000000D+00 0.000000000000D+00 0.618153516736D-05 0.558343836129D-04  6 -1 1 25 23 21 21 4 0.67747646D-02 0.28767234D+00 0.80100089D+05 0.80100089D+05 0.80100089D+05 0.11725293D+01  1  2 11  3  6  5       21 0.392772769328D+01 0.100000000000D+01
0.350002673950D-07 0.000000000000D+00 0.000000000000D+00 0.618230619808D-05 0.000000000000D+00  6 -1 1 25 23 1 -1 4 0.67747646D-02 0.28767234D+00 0.80100089D+05 0.80100089D+05 0.80100089D+05 0.11725293D+01  1  2 12  6  6  5       21 0.300751820546D-05 0.100000000000D+01
0.352739200706D-07 0.000000000000D+00 0.000000000000D+00 0.618230619808D-05 0.000000000000D+00  6 -1 1 25 23 1 -1 4 0.67747646D-02 0.28767234D+00 0.80100089D+05 0.80100089D+05 0.80100089D+05 0.11725293D+01  1  2 12  6  6  5       21 0.303103275164D-05 0.100000000000D+01
-.747407522103D-04 0.000000000000D+00 0.000000000000D+00 0.618153516736D-05 0.000000000000D+00  6 -1 1 25 23 1 -1 4 0.67747646D-02 0.28767234D+00 0.80243605D+05 0.80243605D+05 0.80243605D+05 0.11724562D+01  1  2  5  6  6  5       21 -.642051921342D-02 0.100000000000D+01
0.378474889576D-04 0.000000000000D+00 0.000000000000D+00 0.618153516736D-05 0.920079072101D-07  6 -1 1 25 23 1 -1 4 0.67747646D-02 0.28767234D+00 0.80100089D+05 0.80100089D+05 0.80100089D+05 0.11725293D+01  1  2 11  6  6  5       21 0.325217549873D-02 0.100000000000D+01
0.350002673950D-07 0.000000000000D+00 0.000000000000D+00 0.618230619808D-05 0.000000000000D+00  6 -1 1 25 23 2 -2 4 0.67747646D-02 0.28767234D+00 0.80100089D+05 0.80100089D+05 0.80100089D+05 0.11725293D+01  1  2 12  7  6  5       21 0.300751820546D-05 0.100000000000D+01
0.350002673950D-07 0.000000000000D+00 0.000000000000D+00 0.618230619808D-05 0.000000000000D+00  6 -1 1 25 23 4 -4 4 0.67747646D-02 0.28767234D+00 0.80100089D+05 0.80100089D+05 0.80100089D+05 0.11725293D+01  1  2 12  7  6  5       21 0.300751820546D-05 0.100000000000D+01
0.352739200706D-07 0.000000000000D+00 0.000000000000D+00 0.618230619808D-05 0.000000000000D+00  6 -1 1 25 23 2 -2 4 0.67747646D-02 0.28767234D+00 0.80100089D+05 0.80100089D+05 0.80100089D+05 0.11725293D+01  1  2 12  7  6  5       21 0.303103275164D-05 0.100000000000D+01
0.352739200706D-07 0.000000000000D+00 0.000000000000D+00 0.618230619808D-05 0.000000000000D+00  6 -1 1 25 23 4 -4 4 0.67747646D-02 0.28767234D+00 0.80100089D+05 0.80100089D+05 0.80100089D+05 0.11725293D+01  1  2 12  7  6  5       21 0.303103275164D-05 0.100000000000D+01
-.747407522103D-04 0.000000000000D+00 0.000000000000D+00 0.618153516736D-05 0.000000000000D+00  6 -1 1 25 23 2 -2 4 0.67747646D-02 0.28767234D+00 0.80243605D+05 0.80243605D+05 0.80243605D+05 0.11724562D+01  1  2  5  7  6  5       21 -.642051921342D-02 0.100000000000D+01
-.747407522103D-04 0.000000000000D+00 0.000000000000D+00 0.618153516736D-05 0.000000000000D+00  6 -1 1 25 23 4 -4 4 0.67747646D-02 0.28767234D+00 0.80243605D+05 0.80243605D+05 0.80243605D+05 0.11724562D+01  1  2  5  7  6  5       21 -.642051921342D-02 0.100000000000D+01
0.827783359423D-04 0.000000000000D+00 0.000000000000D+00 0.618153516736D-05 0.885894239289D-07  6 -1 1 25 23 2 -2 4 0.67747646D-02 0.28767234D+00 0.80100089D+05 0.80100089D+05 0.80100089D+05 0.11725293D+01  1  2 11  7  6  5       21 0.711301286802D-02 0.100000000000D+01
0.827783359423D-04 0.000000000000D+00 0.000000000000D+00 0.618153516736D-05 0.885894239289D-07  6 -1 1 25 23 4 -4 4 0.67747646D-02 0.28767234D+00 0.80100089D+05 0.80100089D+05 0.80100089D+05 0.11725293D+01  1  2 11  7  6  5       21 0.711301286802D-02 0.100000000000D+01
0.350002673950D-07 0.000000000000D+00 0.000000000000D+00 0.618230619808D-05 0.000000000000D+00  6 -1 1 25 23 3 -3 4 0.67747646D-02 0.28767234D+00 0.80100089D+05 0.80100089D+05 0.80100089D+05 0.11725293D+01  1  2 12  8  6  5       21 0.300751820546D-05 0.100000000000D+01
0.352739200706D-07 0.000000000000D+00 0.000000000000D+00 0.618230619808D-05 0.000000000000D+00  6 -1 1 25 23 3 -3 4 0.67747646D-02 0.28767234D+00 0.80100089D+05 0.80100089D+05 0.80100089D+05 0.11725293D+01  1  2 12  8  6  5       21 0.303103275164D-05 0.100000000000D+01
-.747407522103D-04 0.000000000000D+00 0.000000000000D+00 0.618153516736D-05 0.000000000000D+00  6 -1 1 25 23 3 -3 4 0.67747646D-02 0.28767234D+00 0.80243605D+05 0.80243605D+05 0.80243605D+05 0.11724562D+01  1  2  5  8  6  5       21 -.642051921342D-02 0.100000000000D+01
0.827858328936D-04 0.000000000000D+00 0.000000000000D+00 0.618153516736D-05 0.885974471707D-07  6 -1 1 25 23 3 -3 4 0.67747646D-02 0.28767234D+00 0.80100089D+05 0.80100089D+05 0.80100089D+05 0.11725293D+01  1  2 11  8  6  5       21 0.711365706932D-02 0.100000000000D+01
  </mgrwgt>
  </event>
  <event>
  6     66 -.44820762E-03 0.67465749E+02 0.75467711E-02 0.11004980E+00
       -3 -1    0    0    0  501 0.00000000E+00 0.00000000E+00 0.16492484E+04 0.16492484E+04 0.50000000E+00 0.0000E+00 0.9000E+01
        3 -1    0    0  502    0 0.00000000E+00 0.00000000E+00 -.74123829E+02 0.74125515E+02 0.50000000E+00 0.0000E+00 0.9000E+01
       25  1    1    2    0    0 0.11351275E+03 0.17986875E+03 0.26792976E+03 0.36421047E+03 0.12500000E+03 0.0000E+00 0.9000E+01
       23  1    1    2    0    0 -.15782297E+03 -.12643446E+03 0.75569794E+03 0.78758389E+03 0.91188000E+02 0.0000E+00 0.9000E+01
       21  1    1    2  502  503 -.30936571E+01 -.32886837E+01 0.44282036E+03 0.44284401E+03 0.75000000E+00 0.0000E+00 0.9000E+01
       21  1    1    2  503  501 0.47403876E+02 -.50145609E+02 0.10867648E+03 0.12873558E+03 0.75000000E+00 0.0000E+00 0.9000E+01
#aMCatNLO 2  0  0  5  2 0.65238821D+02 0.00000000D+00  -5  6  0 0.00000000D+00 0.00000000D+00 0.00000000D+00 0.00000000D+00 0.00000000D+00
  <mgrwgt>
 -.2442254111D-02    2    2    0
 0.349642849059636D+03 0.000000000000000D+00 0.000000000000000D+00 0.349642849059636D+03
 0.349642849059636D+03 -.000000000000000D+00 -.000000000000000D+00 -.349642849059636D+03
 0.311696221361402D+03 0.100056633712324D+03 0.196095666363121D+03 -.181836998695913D+03
 0.233859383961492D+03 -.168321910062194D+03 -.113773644352517D+03 0.714020487563900D+02
 0.153730092796379D+03 0.682652763498699D+02 -.823220220106036D+02 0.110434949939523D+03
 0.000000000000000D+00 0.000000000000000D+00 0.000000000000000D+00 -.000000000000000D+00
 0.349642849059636D+03 0.000000000000000D+00 0.000000000000000D+00 0.349642849059636D+03
 0.349642849059636D+03 -.000000000000000D+00 -.000000000000000D+00 -.349642849059636D+03
 0.294045364073642D+03 0.113543383009227D+03 0.179831812588020D+03 -.160019047270404D+03
 0.238805446633670D+03 -.157798095575986D+03 -.126464454880098D+03 0.884267645137948D+02
 0.934149011203804D+02 -.361503893912232D+01 -.268299964815245D+01 0.933063596851098D+02
 0.730199862915803D+02 0.478697515058812D+02 -.506843580597696D+02 -.217140769285001D+02
-.131024200596D-02 0.000000000000D+00 0.000000000000D+00 0.775946204542D-06 0.000000000000D+00  6 -3 3 25 23 21 21 4 0.25373065D+00 0.11403801D-01 0.73641757D+05 0.73641757D+05 0.73641757D+05 0.11759790D+01  1  2 13  3  6  5       21 -.287364630172D-02 0.100000000000D+01
0.196693715963D-03 0.000000000000D+00 0.000000000000D+00 0.768277249289D-06 0.313769479355D-06  6 -3 3 25 23 21 21 4 0.25373065D+00 0.11403801D-01 0.73641757D+05 0.73641757D+05 0.73641757D+05 0.11759790D+01  1  2  1  3  6  5       21 0.431392190814D-03 0.100000000000D+01
  </mgrwgt>
  </event>
  <event>
  5     66 0.44820762E-03 0.26431821E+02 0.75467711E-02 0.11788700E+00
       -1 -1    0    0    0  501 0.00000000E+00 0.00000000E+00 0.13964305E+02 0.13967971E+02 0.32000000E+00 0.0000E+00 0.9000E+01
        1 -1    0    0  502    0 0.00000000E+00 0.00000000E+00 -.14342296E+04 0.14342296E+04 0.32000000E+00 0.0000E+00 0.9000E+01
       25  1    1    2    0    0 0.43797598E+02 0.12873175E+00 -.70300899E+03 0.71537744E+03 0.12500000E+03 0.0000E+00 0.9000E+01
       23  1    1    2    0    0 -.68057796E+02 -.10605594E+02 -.45094593E+03 0.46520084E+03 0.91188000E+02 0.0000E+00 0.9000E+01
       21  1    1    2  502  501 0.24260199E+02 0.10476863E+02 -.26631035E+03 0.26761929E+03 0.75000000E+00 0.0000E+00 0.9000E+01
#aMCatNLO 1  0  0  1  5 0.84113988D+02 0.00000000D+00  -5  6  0 0.00000000D+00 0.00000000D+00 0.00000000D+00 0.00000000D+00 0.00000000D+00
  <mgrwgt>
 0.2216228193D+00    4    2    0
 0.141529854900364D+03 0.000000000000000D+00 0.000000000000000D+00 0.141529854900364D+03
 0.141529854900364D+03 0.000000000000000D+00 0.000000000000000D+00 -.141529854900364D+03
 0.132651580318781D+03 0.437946560070183D+02 0.127461384363698D+00 -.731119825284239D+01
 0.117432779289249D+03 -.680604003336039D+02 -.106067189736196D+02 0.270274994522545D+02
 0.329753501926990D+02 0.242657443265856D+02 0.104792575892559D+02 -.197163011994121D+02
 0.000000000000000D+00 -.000000000000000D+00 -.000000000000000D+00 -.000000000000000D+00
 0.158143088606467D+03 0.000000000000000D+00 0.000000000000000D+00 0.158143088606467D+03
 0.206332537030523D+03 0.000000000000000D+00 0.000000000000000D+00 -.206332537030523D+03
 0.139652193269349D+03 0.567447190635139D+02 0.245828868005814D+02 -.731119825284239D+01
 0.111417495583230D+03 -.571768732673300D+02 0.994617588669889D+01 0.270274994522545D+02
 0.378975880241593D+02 0.276362779288692D+02 0.168443102352474D+02 -.197163011994121D+02
 0.755083487602516D+02 -.272041237250531D+02 -.513733729225276D+02 -.481894484240555D+02
0.245953733844D-03 0.000000000000D+00 0.000000000000D+00 0.242457894351D-04 0.000000000000D+00  6 -1 1 25 23 21 21 2 0.21486394D-02 0.22065099D+00 0.18654370D+05 0.18654370D+05 0.18654370D+05 0.12371702D+01  1  2  2  1  6  1       -1 0.180883441694D+00 0.100000000000D+01
0.338886028313D-04 0.129793351221D-04 -.944527099068D-06 0.242457894351D-04 0.000000000000D+00  6 -1 1 25 23 21 21 4 0.21486394D-02 0.22065099D+00 0.18654370D+05 0.18654370D+05 0.18654370D+05 0.12371702D+01  1  2  3  1  6  1       -1 0.381467867592D-01 0.100000000000D+01
0.122782996116D-04 0.000000000000D+00 0.000000000000D+00 0.242457894351D-04 0.000000000000D+00  6 -1 1 25 23 21 21 4 0.21486394D-02 0.22065099D+00 0.18654370D+05 0.18654370D+05 0.18654370D+05 0.12371702D+01  1  2 15  1  6  1       -1 0.138210972987D-01 0.100000000000D+01
-.997511004524D-05 0.000000000000D+00 0.000000000000D+00 0.242457894351D-04 0.000000000000D+00  6 -1 1 25 23 21 21 4 0.21486394D-02 0.22065099D+00 0.18654370D+05 0.18654370D+05 0.18654370D+05 0.12371702D+01  1  2  4  1  6  1       -1 -.112285064595D-01 0.100000000000D+01
  </mgrwgt>
  </event>
  <event>
  5     66 0.44820762E-03 0.11451284E+03 0.75467711E-02 0.10636378E+00
       -1 -1    0    0    0  501 0.00000000E+00 0.00000000E+00 0.39491605E+02 0.39492902E+02 0.32000000E+00 0.0000E+00 0.9000E+01
        1 -1    0    0  502    0 0.00000000E+00 0.00000000E+00 -.10700842E+04 0.10700842E+04 0.32000000E+00 0.0000E+00 0.9000E+01
       25  1    1    2    0    0 -.32961905E+02 0.67912657E+02 -.22304577E+03 0.26659526E+03 0.12500000E+03 0.0000E+00 0.9000E+01
       23  1    1    2    0    0 0.59246543E+02 0.43541498E+02 -.28692687E+03 0.30991659E+03 0.91188000E+02 0.0000E+00 0.9000E+01
       21  1    1    2  502  501 -.26284637E+02 -.11145416E+03 -.52061992E+03 0.53306526E+03 0.75000000E+00 0.0000E+00 0.9000E+01
#aMCatNLO 1  0  0  2  5 0.58323887D+02 0.00000000D+00  -5  6  0 0.00000000D+00 0.00000000D+00 0.00000000D+00 0.00000000D+00 0.00000000D+00
  <mgrwgt>
 0.1328833907D-01    5    4    0
 0.205572583469473D+03 0.000000000000000D+00 0.000000000000000D+00 0.205572583469473D+03
 0.205572583469473D+03 0.000000000000000D+00 0.000000000000000D+00 -.205572583469473D+03
 0.160378545253428D+03 -.329617438527613D+02 0.679133420660076D+02 0.663142457486790D+02
 0.117164859707738D+03 0.592466605711189D+02 0.435419986205727D+02 0.250610726636216D+01
 0.133601761977781D+03 -.262849167183576D+02 -.111455340686580D+03 -.688203530150411D+02
 0.000000000000000D+00 0.000000000000000D+00 0.000000000000000D+00 -.000000000000000D+00
 0.348637638754024D+03 0.000000000000000D+00 0.000000000000000D+00 0.348637638754024D+03
 0.372520800248795D+03 0.000000000000000D+00 0.000000000000000D+00 -.372520800248795D+03
 0.168281824914840D+03 -.910822909795979D+02 -.457905405601110D+00 0.663142457486790D+02
 0.938233130328081D+02 0.219353533675952D+02 -.349890640797021D+00 0.250610726636216D+01
 0.215279164724680D+03 -.879812822755537D+02 -.184033072420667D+03 -.688203530150411D+02
 0.243774136330490D+03 0.157128219887556D+03 0.184840868467065D+03 -.238831614947707D+02
 0.205572583469473D+03 0.000000000000000D+00 0.000000000000000D+00 0.205572583469473D+03
 0.205572583469473D+03 0.000000000000000D+00 0.000000000000000D+00 -.205572583469473D+03
 0.160378545253428D+03 -.329617438527613D+02 0.679133420660076D+02 0.663142457486790D+02
 0.117164859707738D+03 0.592466605711189D+02 0.435419986205727D+02 0.250610726636216D+01
 0.000000000000000D+00 0.000000000000000D+00 0.000000000000000D+00 -.000000000000000D+00
 0.133601761977781D+03 -.262849167183576D+02 -.111455340686580D+03 -.688203530150411D+02
 0.348637638754024D+03 0.000000000000000D+00 0.000000000000000D+00 0.348637638754024D+03
 0.372520800248795D+03 0.000000000000000D+00 0.000000000000000D+00 -.372520800248795D+03
 0.168281824914840D+03 -.910822909795979D+02 -.457905405601110D+00 0.663142457486790D+02
 0.938233130328081D+02 0.219353533675952D+02 -.349890640797021D+00 0.250610726636216D+01
 0.243774136330490D+03 0.157128219887556D+03 0.184840868467065D+03 -.238831614947707D+02
 0.215279164724680D+03 -.879812822755537D+02 -.184033072420667D+03 -.688203530150411D+02
0.516373751982D-04 0.000000000000D+00 0.000000000000D+00 0.167816398193D-05 0.000000000000D+00  6 -1 1 25 23 21 21 2 0.60757350D-02 0.16462844D+00 0.35660027D+05 0.35660027D+05 0.35660027D+05 0.12070986D+01  1  2  2  2  6  2        1 0.139620235273D-01 0.100000000000D+01
-.402423565489D-05 0.272497915378D-05 -.198301117194D-06 0.167816398193D-05 0.000000000000D+00  6 -1 1 25 23 21 21 4 0.60757350D-02 0.16462844D+00 0.35660027D+05 0.35660027D+05 0.35660027D+05 0.12070986D+01  1  2  3  2  6  2        1 -.158545197467D-02 0.100000000000D+01
0.261599088022D-05 0.000000000000D+00 0.000000000000D+00 0.167816398193D-05 0.000000000000D+00  6 -1 1 25 23 21 21 4 0.60757350D-02 0.16462844D+00 0.35660027D+05 0.35660027D+05 0.35660027D+05 0.12070986D+01  1  2 15  2  6  2        1 0.103063743340D-02 0.100000000000D+01
-.365685176904D-05 0.000000000000D+00 -.274777358303D-04 0.167816398193D-05 0.000000000000D+00  6 -1 1 25 23 21 21 4 0.60757350D-02 0.39324552D+00 0.35660027D+05 0.35660027D+05 0.35660027D+05 0.12070986D+01  1  2  5  2  6  2        1 -.151705286800D-03 0.100000000000D+01
0.138060575915D-05 0.000000000000D+00 -.261603005158D-05 0.167816398193D-05 0.000000000000D+00  6 -1 21 25 23 -1 21 4 0.60757350D-02 0.39324552D+00 0.35660027D+05 0.35660027D+05 0.35660027D+05 0.12070986D+01  3  4  5  5  5  2        1 0.328353730696D-04 0.100000000000D+01
  </mgrwgt>
  </event>
  <event>
  5     66 0.44820762E-03 0.31956572E+02 0.75467711E-02 0.12038769E+00
       -1 -1    0    0    0  501 0.00000000E+00 0.00000000E+00 0.38067535E+02 0.38068880E+02 0.32000000E+00 0.0000E+00 0.9000E+01
        1 -1    0    0  502    0 -.00000000E+00 -.00000000E+00 -.74559536E+03 0.74559543E+03 0.32000000E+00 0.0000E+00 0.9000E+01
       25  1    1    2    0    0 0.19014296E+02 -.60655723E+02 -.22284024E+03 0.26329344E+03 0.12500000E+03 0.0000E+00 0.9000E+01
       23  1    1    2    0    0 0.53104709E+01 0.81378365E+02 -.20400220E+03 0.23787137E+03 0.91188000E+02 0.0000E+00 0.9000E+01
       21  1    1    2  502  501 -.24324767E+02 -.20722642E+02 -.28068539E+03 0.28249951E+03 0.75000000E+00 0.0000E+00 0.9000E+01
#aMCatNLO 1  0  0  5  1 0.22736281D+02 0.00000000D+00  -5  6  0 0.00000000D+00 0.00000000D+00 0.00000000D+00 0.00000000D+00 0.00000000D+00
  <mgrwgt>
 0.2679303208D+00    9    2    0
 0.168474126557113D+03 0.000000000000000D+00 0.000000000000000D+00 0.168474126557113D+03
 0.168474126557113D+03 -.000000000000000D+00 -.000000000000000D+00 -.168474126557113D+03
 0.144437831484846D+03 0.190149373200558D+02 -.606551770331928D+02 0.345929013213876D+02
 0.124868647365028D+03 0.531102505941068D+01 0.813788367658519D+02 0.250241021862299D+02
 0.676417742643519D+02 -.243259623794665D+02 -.207236597326592D+02 -.596170035076175D+02
 0.000000000000000D+00 0.000000000000000D+00 0.000000000000000D+00 0.000000000000000D+00
 0.168474126557113D+03 0.000000000000000D+00 0.000000000000000D+00 0.168474126557113D+03
 0.168474126557113D+03 -.000000000000000D+00 -.000000000000000D+00 -.168474126557113D+03
 0.143412241493339D+03 0.957977974285510D+01 -.686931322065090D+02 0.114696302416912D+02
 0.117972529723963D+03 -.264882969539838D+01 0.745977146508522D+02 0.551643866874716D+01
 0.453243091106238D+02 -.138018832156113D+02 0.942317044929251D+01 -.421308067183811D+02
 0.302391727863013D+02 0.687093316815453D+01 -.153277528936357D+02 0.251447378079427D+02
0.177374454793D-03 0.000000000000D+00 0.000000000000D+00 0.172917468656D-04 0.000000000000D+00  6 -1 1 25 23 21 21 2 0.58566526D-02 0.11470709D+00 0.21686424D+05 0.21686424D+05 0.21686424D+05 0.12299741D+01  1  2  2  3  6  5       21 0.935033006387D-01 0.100000000000D+01
0.154352455866D-04 0.936030713937D-05 -.681164610173D-06 0.172917468656D-04 0.000000000000D+00  6 -1 1 25 23 21 21 4 0.58566526D-02 0.11470709D+00 0.21686424D+05 0.21686424D+05 0.21686424D+05 0.12299741D+01  1  2  3  3  6  5       21 0.123095271876D-01 0.100000000000D+01
0.508669688691D-05 0.000000000000D+00 0.000000000000D+00 0.172917468656D-04 0.000000000000D+00  6 -1 1 25 23 21 21 4 0.58566526D-02 0.11470709D+00 0.21686424D+05 0.21686424D+05 0.21686424D+05 0.12299741D+01  1  2 15  3  6  5       21 0.405661401844D-02 0.100000000000D+01
0.203660904103D-03 0.000000000000D+00 0.000000000000D+00 0.172937428002D-04 0.000000000000D+00  6 -1 1 25 23 21 21 4 0.58566526D-02 0.11470709D+00 0.21653942D+05 0.21653942D+05 0.21653942D+05 0.12300451D+01  1  2 12  3  6  5       21 0.162451756444D+00 0.100000000000D+01
-.201931266327D-04 0.000000000000D+00 0.000000000000D+00 0.172917468656D-04 0.000000000000D+00  6 -1 1 25 23 21 21 4 0.58566526D-02 0.11470709D+00 0.21686424D+05 0.21686424D+05 0.21686424D+05 0.12299741D+01  1  2  4  3  6  5       21 -.161039123021D-01 0.100000000000D+01
0.367107026455D-05 0.000000000000D+00 0.000000000000D+00 0.172937428002D-04 0.000000000000D+00  6 -1 1 25 23 1 -1 4 0.58566526D-02 0.11470709D+00 0.21653942D+05 0.21653942D+05 0.21653942D+05 0.12300451D+01  1  2 12  6  6  5       21 0.292825869123D-02 0.100000000000D+01
0.367107026455D-05 0.000000000000D+00 0.000000000000D+00 0.172937428002D-04 0.000000000000D+00  6 -1 1 25 23 2 -2 4 0.58566526D-02 0.11470709D+00 0.21653942D+05 0.21653942D+05 0.21653942D+05 0.12300451D+01  1  2 12  7  6  5       21 0.292825869123D-02 0.100000000000D+01
0.367107026455D-05 0.000000000000D+00 0.000000000000D+00 0.172937428002D-04 0.000000000000D+00  6 -1 1 25 23 4 -4 4 0.58566526D-02 0.11470709D+00 0.21653942D+05 0.21653942D+05 0.21653942D+05 0.12300451D+01  1  2 12  7  6  5       21 0.292825869123D-02 0.100000000000D+01
0.367107026455D-05 0.000000000000D+00 0.000000000000D+00 0.172937428002D-04 0.000000000000D+00  6 -1 1 25 23 3 -3 4 0.58566526D-02 0.11470709D+00 0.21653942D+05 0.21653942D+05 0.21653942D+05 0.12300451D+01  1  2 12  8  6  5       21 0.292825869123D-02 0.100000000000D+01
  </mgrwgt>
  </event>
  <event>
  5     66 0.44820762E-03 0.27548757E+02 0.75467711E-02 0.11677267E+00
       -1 -1    0    0    0  501 0.00000000E+00 0.00000000E+00 0.10585514E+03 0.10585562E+03 0.32000000E+00 0.0000E+00 0.9000E+01
        1 -1    0    0  502    0 0.00000000E+00 0.00000000E+00 -.31176999E+03 0.31177015E+03 0.32000000E+00 0.0000E+00 0.9000E+01
       25  1    1    2    0    0 -.97268735E+02 0.17821814E+01 -.20399341E+03 0.25826865E+03 0.12500000E+03 0.0000E+00 0.9000E+01
       23  1    1    2    0    0 0.83776026E+02 -.25789707E+02 0.14452011E+02 0.12730924E+03 0.91188000E+02 0.0000E+00 0.9000E+01
       21  1    1    2  502  501 0.13492708E+02 0.24007525E+02 -.16373448E+02 0.32047882E+02 0.75000000E+00 0.0000E+00 0.9000E+01
#aMCatNLO 1  0  0  2  1 0.29145699D+02 0.00000000D+00  -5  6  0 0.00000000D+00 0.00000000D+00 0.00000000D+00 0.00000000D+00 0.00000000D+00
  <mgrwgt>
 0.8672288842D-01    4    2    0
 0.181666152077055D+03 0.000000000000000D+00 0.000000000000000D+00 0.181666152077055D+03
 0.181666152077055D+03 0.000000000000000D+00 0.000000000000000D+00 -.181666152077055D+03
 0.181252315208377D+03 -.972712290675960D+02 0.177774336800679D+01 -.881053312382043D+02
 0.154523385390929D+03 0.837738999398316D+02 -.257934901025747D+02 0.887629136851246D+02
 0.275566035548034D+02 0.134973291277644D+02 0.240157467345679D+02 -.657582446920344D+00
 0.000000000000000D+00 -.000000000000000D+00 -.000000000000000D+00 0.000000000000000D+00
 0.250886430565157D+03 0.000000000000000D+00 0.000000000000000D+00 0.250886430565157D+03
 0.190490190965039D+03 0.000000000000000D+00 0.000000000000000D+00 -.190490190965039D+03
 0.178364916019137D+03 -.890356237526149D+02 0.223417004031235D+02 -.881053312382043D+02
 0.156590983649304D+03 0.908987397104091D+02 -.800306750209811D+01 0.887629136851246D+02
 0.311441198535481D+02 0.148416362068354D+02 0.273724244721147D+02 -.657582446920344D+00
 0.752766020082068D+02 -.167047521646297D+02 -.417110573731401D+02 0.603962396001181D+02
0.204638840645D-03 0.000000000000D+00 0.000000000000D+00 0.129528472211D-04 0.000000000000D+00  6 -1 1 25 23 21 21 2 0.16285456D-01 0.47964664D-01 0.24403467D+05 0.24403467D+05 0.24403467D+05 0.12244237D+01  1  2  2  2  6  2        1 0.706703464686D-01 0.100000000000D+01
0.389002384709D-04 0.107990883090D-04 -.785867030720D-06 0.129528472211D-04 0.000000000000D+00  6 -1 1 25 23 21 21 4 0.16285456D-01 0.47964664D-01 0.24403467D+05 0.24403467D+05 0.24403467D+05 0.12244237D+01  1  2  3  2  6  2        1 0.201402519322D-01 0.100000000000D+01
0.394028669644D-05 0.000000000000D+00 0.000000000000D+00 0.129528472211D-04 0.000000000000D+00  6 -1 1 25 23 21 21 4 0.16285456D-01 0.47964664D-01 0.24403467D+05 0.24403467D+05 0.24403467D+05 0.12244237D+01  1  2 15  2  6  2        1 0.204004833571D-02 0.100000000000D+01
-.118355649553D-04 0.000000000000D+00 0.000000000000D+00 0.129528472211D-04 0.000000000000D+00  6 -1 1 25 23 21 21 4 0.16285456D-01 0.47964664D-01 0.24403467D+05 0.24403467D+05 0.24403467D+05 0.12244237D+01  1  2  4  2  6  2        1 -.612775832049D-02 0.100000000000D+01
  </mgrwgt>
  </event>
  <event>
  5     66 0.44820762E-03 0.13354409E+03 0.75467711E-02 0.11361616E+00
       -1 -1    0    0    0  501 0.00000000E+00 0.00000000E+00 0.44241583E+03 0.44241594E+03 0.32000000E+00 0.0000E+00 0.9000E+01
        1 -1    0    0  502    0 0.00000000E+00 0.00000000E+00 -.12518250E+03 0.12518291E+03 0.32000000E+00 0.0000E+00 0.9000E+01
       25  1    1    2    0    0 -.14298727E+03 0.64317269E+02 0.19166752E+03 0.27738693E+03 0.12500000E+03 0.0000E+00 0.9000E+01
       23  1    1    2    0    0 0.11868944E+02 -.38986749E+02 -.94271697E+01 0.10032428E+03 0.91188000E+02 0.0000E+00 0.9000E+01
       21  1    1    2  502  501 0.13111833E+03 -.25330520E+02 0.13499298E+03 0.18988764E+03 0.75000000E+00 0.0000E+00 0.9000E+01
#aMCatNLO 1  0  0  5  2 0.80495437D+00 0.00000000D+00  -5  6  0 0.00000000D+00 0.00000000D+00 0.00000000D+00 0.00000000D+00 0.00000000D+00
  <mgrwgt>
 0.1058462635D-02    1    2    0
 0.235335651660417D+03 0.000000000000000D+00 0.000000000000000D+00 0.235335651660417D+03
 0.235335651660417D+03 -.000000000000000D+00 -.000000000000000D+00 -.235335651660417D+03
 0.205326851563605D+03 -.142988115879088D+03 0.643174318363434D+02 0.441789842838061D+02
 0.127338466596657D+03 0.118684197276941D+02 -.389866474503708D+02 -.789874399188610D+02
 0.138005985160572D+03 0.131119696151393D+03 -.253307843859726D+02 0.348084556350549D+02
 0.000000000000000D+00 0.000000000000000D+00 -.000000000000000D+00 0.000000000000000D+00
 0.235335651660417D+03 0.000000000000000D+00 0.000000000000000D+00 0.235335651660417D+03
 0.235335651660417D+03 -.000000000000000D+00 -.000000000000000D+00 -.235335651660417D+03
 0.197114231945610D+03 -.130926086047770D+03 0.619871894251538D+02 0.473811014528952D+02
 0.127498038117305D+03 0.195064210350285D+02 -.404622195416337D+02 -.769597733100255D+02
 0.877852675205218D+02 0.673122061325692D+02 0.585979278780446D+01 0.560444727667242D+02
 0.582737657373980D+02 0.441074588801724D+02 -.273847626713246D+02 -.264658009095939D+02
0.852302611278D-05 0.000000000000D+00 0.000000000000D+00 0.771960333800D-06 0.000000000000D+00  6 -1 1 25 23 21 21 4 0.68064014D-01 0.19258887D-01 0.47076421D+05 0.47076421D+05 0.47076421D+05 0.11948819D+01  1  2 14  3  6  5       21 0.105846263457D-02 0.100000000000D+01
  </mgrwgt>
  </event>
  <event>
  5     66 0.44820762E-03 0.33112035E+02 0.75467711E-02 0.11815462E+00
       -3 -1    0    0    0  501 0.00000000E+00 0.00000000E+00 0.57687618E+03 0.57687640E+03 0.50000000E+00 0.0000E+00 0.9000E+01
        3 -1    0    0  502    0 0.00000000E+00 0.00000000E+00 -.44701310E+02 0.44704107E+02 0.50000000E+00 0.0000E+00 0.9000E+01
       25  1    1    2    0    0 -.44587508E+01 -.56548024E+02 0.15154557E+03 0.20447156E+03 0.12500000E+03 0.0000E+00 0.9000E+01
       23  1    1    2    0    0 0.41141970E+01 0.89651775E+02 0.34733812E+03 0.37015319E+03 0.91188000E+02 0.0000E+00 0.9000E+01
       21  1    1    2  502  501 0.34455374E+00 -.33103751E+02 0.33291180E+02 0.46955747E+02 0.75000000E+00 0.0000E+00 0.9000E+01
#aMCatNLO 1  0  0  1  2 0.32808810D+02 0.00000000D+00  -5  6  0 0.00000000D+00 0.00000000D+00 0.00000000D+00 0.00000000D+00 0.00000000D+00
  <mgrwgt>
 0.6295715157D-02    4    2    0
 0.160586604578329D+03 0.000000000000000D+00 0.000000000000000D+00 0.160586604578329D+03
 0.160586604578329D+03 0.000000000000000D+00 0.000000000000000D+00 -.160586604578329D+03
 0.144614318486163D+03 -.445878500453489D+01 -.565447359365419D+02 -.455094845649513D+02
 0.140846800621554D+03 0.411416371266289D+01 0.896549775170326D+02 0.588865737218038D+02
 0.357120900489407D+02 0.344621291871996D+00 -.331102415804907D+02 -.133770891568525D+02
 0.000000000000000D+00 -.000000000000000D+00 -.000000000000000D+00 -.000000000000000D+00
 0.177457608975648D+03 0.000000000000000D+00 0.000000000000000D+00 0.177457608975648D+03
 0.178204316264362D+03 0.000000000000000D+00 0.000000000000000D+00 -.178204316264362D+03
 0.144020208906974D+03 0.100671196485401D+02 -.542619617247939D+02 -.455094845649513D+02
 0.143416786923979D+03 0.184200951835823D+02 0.919031825147114D+02 0.588865737218038D+02
 0.354076235624066D+02 0.392381255565769D+01 -.325477647013550D+02 -.133770891568525D+02
 0.328173058466499D+02 -.324110273877801D+02 -.509345608856245D+01 -.746707288713572D+00
0.124693949802D-03 0.000000000000D+00 0.000000000000D+00 0.119781622900D-04 0.000000000000D+00  6 -3 3 25 23 21 21 2 0.88750413D-01 0.68773564D-02 0.22249442D+05 0.22249442D+05 0.22249442D+05 0.12287623D+01  1  2  2  1  6  1       -3 0.717367578535D-02 0.100000000000D+01
0.142497145583D-04 0.658028051406D-05 -.478857599911D-06 0.119781622900D-04 0.000000000000D+00  6 -3 3 25 23 21 21 4 0.88750413D-01 0.68773564D-02 0.22249442D+05 0.22249442D+05 0.22249442D+05 0.12287623D+01  1  2  3  1  6  1       -3 0.123776531355D-02 0.100000000000D+01
0.328271207305D-05 0.000000000000D+00 0.000000000000D+00 0.119781622900D-04 0.000000000000D+00  6 -3 3 25 23 21 21 4 0.88750413D-01 0.68773564D-02 0.22249442D+05 0.22249442D+05 0.22249442D+05 0.12287623D+01  1  2 15  1  6  1       -3 0.285144458282D-03 0.100000000000D+01
-.276399067896D-04 0.000000000000D+00 0.000000000000D+00 0.119781622900D-04 0.000000000000D+00  6 -3 3 25 23 21 21 4 0.88750413D-01 0.68773564D-02 0.22249442D+05 0.22249442D+05 0.22249442D+05 0.12287623D+01  1  2  4  1  6  1       -3 -.240087040017D-02 0.100000000000D+01
  </mgrwgt>
  </event>
  <event>
  5     66 0.44820762E-03 0.22118429E+02 0.75467711E-02 0.12269295E+00
       -1 -1    0    0    0  501 0.00000000E+00 0.00000000E+00 0.17027878E+02 0.17030884E+02 0.32000000E+00 0.0000E+00 0.9000E+01
        1 -1    0    0  502    0 0.00000000E+00 0.00000000E+00 -.11916523E+04 0.11916524E+04 0.32000000E+00 0.0000E+00 0.9000E+01
       25  1    1    2    0    0 0.20102049E+02 -.34261087E+02 -.37765701E+03 0.39978460E+03 0.12500000E+03 0.0000E+00 0.9000E+01
       23  1    1    2    0    0 -.23381520E+01 0.47434547E+02 -.46670459E+03 0.47789531E+03 0.91188000E+02 0.0000E+00 0.9000E+01
       21  1    1    2  502  501 -.17763897E+02 -.13173460E+02 -.33026286E+03 0.33100335E+03 0.75000000E+00 0.0000E+00 0.9000E+01
#aMCatNLO 1  0  0  2  1 0.49047020D+01 0.00000000D+00  -5  6  0 0.00000000D+00 0.00000000D+00 0.00000000D+00 0.00000000D+00 0.00000000D+00
  <mgrwgt>
 0.3321599019D+00    9    4    0
 0.142454038472740D+03 0.000000000000000D+00 0.000000000000000D+00 0.142454038472740D+03
 0.142454038472740D+03 0.000000000000000D+00 0.000000000000000D+00 -.142454038472740D+03
 0.139020444497961D+03 0.201033912831641D+02 -.342600918139601D+02 0.460845283823726D+02
 0.103266550587346D+03 -.233715494314545D+01 0.474352865855963D+02 -.965196454215412D+01
 0.426210818601728D+02 -.177662363400187D+02 -.131751947716362D+02 -.364325638402185D+02
 0.000000000000000D+00 -.000000000000000D+00 -.000000000000000D+00 -.000000000000000D+00
 0.144487003313971D+03 0.000000000000000D+00 0.000000000000000D+00 0.144487003313971D+03
 0.145464435116927D+03 0.000000000000000D+00 0.000000000000000D+00 -.145464435116927D+03
 0.139172708853398D+03 0.223631673250532D+02 -.334686103768701D+02 0.460845283823726D+02
 0.103513813154452D+03 -.657468343070644D+00 0.480235930104120D+02 -.965196454215412D+01
 0.422637691136923D+02 -.170767127114203D+02 -.129336906834636D+02 -.364325638402185D+02
 0.500114730935548D+01 -.462898627056234D+01 -.162129195007831D+01 -.977431802956178D+00
 0.142454038472740D+03 0.000000000000000D+00 0.000000000000000D+00 0.142454038472740D+03
 0.142454038472740D+03 0.000000000000000D+00 0.000000000000000D+00 -.142454038472740D+03
 0.139020444497961D+03 0.201033912831641D+02 -.342600918139601D+02 0.460845283823726D+02
 0.103266550587346D+03 -.233715494314545D+01 0.474352865855963D+02 -.965196454215412D+01
 0.000000000000000D+00 -.000000000000000D+00 -.000000000000000D+00 -.000000000000000D+00
 0.426210818601728D+02 -.177662363400187D+02 -.131751947716362D+02 -.364325638402185D+02
 0.144487003313971D+03 0.000000000000000D+00 0.000000000000000D+00 0.144487003313971D+03
 0.145464435116927D+03 0.000000000000000D+00 0.000000000000000D+00 -.145464435116927D+03
 0.139172708853398D+03 0.223631673250532D+02 -.334686103768701D+02 0.460845283823726D+02
 0.103513813154452D+03 -.657468343070644D+00 0.480235930104120D+02 -.965196454215412D+01
 0.500114730935548D+01 -.462898627056234D+01 -.162129195007831D+01 -.977431802956178D+00
 0.422637691136923D+02 -.170767127114203D+02 -.129336906834636D+02 -.364325638402185D+02
0.819477747737D-04 0.000000000000D+00 0.000000000000D+00 0.371863628183D-04 0.000000000000D+00  6 -1 1 25 23 21 21 2 0.26199081D-02 0.18333136D+00 0.16395874D+05 0.16395874D+05 0.16395874D+05 0.12434411D+01  1  2  2  2  6  2        1 0.661750764225D-01 0.100000000000D+01
0.109735826123D-04 0.432450288382D-05 -.314701032476D-06 0.371863628183D-04 0.000000000000D+00  6 -1 1 25 23 21 21 4 0.26199081D-02 0.18333136D+00 0.16395874D+05 0.16395874D+05 0.16395874D+05 0.12434411D+01  1  2  3  2  6  2        1 0.137011223343D-01 0.100000000000D+01
0.303712368804D-05 0.000000000000D+00 0.000000000000D+00 0.371863628183D-04 0.000000000000D+00  6 -1 1 25 23 21 21 4 0.26199081D-02 0.18333136D+00 0.16395874D+05 0.16395874D+05 0.16395874D+05 0.12434411D+01  1  2 15  2  6  2        1 0.379201621426D-02 0.100000000000D+01
-.993444420511D-04 0.000000000000D+00 0.000000000000D+00 0.371863628183D-04 0.000000000000D+00  6 -1 1 25 23 21 21 4 0.26199081D-02 0.18333136D+00 0.16395874D+05 0.16395874D+05 0.16395874D+05 0.12434411D+01  1  2  4  2  6  2        1 -.124037007955D+00 0.100000000000D+01
-.438686675061D-02 0.000000000000D+00 -.597408256171D-03 0.371863628183D-04 0.000000000000D+00  6 -1 1 25 23 21 21 4 0.26199081D-02 0.18891733D+00 0.16395874D+05 0.16395874D+05 0.16395874D+05 0.12434411D+01  1  2  5  2  6  2        1 -.517424202696D+01 0.100000000000D+01
0.440308309171D-02 0.000000000000D+00 0.597139267555D-03 0.371863628183D-04 0.000000000000D+00  6 -1 1 25 23 21 21 4 0.26199081D-02 0.18333136D+00 0.16395874D+05 0.16395874D+05 0.16395874D+05 0.12434411D+01  1  2  6  2  6  2        1 0.549749176902D+01 0.100000000000D+01
0.730406590775D-04 0.000000000000D+00 0.000000000000D+00 0.371863628183D-04 0.137442406328D-04  6 -1 1 25 23 21 21 4 0.26572968D-02 0.18720560D+00 0.16992500D+05 0.16992500D+05 0.16992500D+05 0.12416944D+01  1  2 11  2  6  2        1 0.854524085579D-01 0.100000000000D+01
-.234188641824D-04 0.000000000000D+00 -.321567009388D-05 0.371863628183D-04 0.000000000000D+00  6 -1 21 25 23 -1 21 4 0.26199081D-02 0.18891733D+00 0.16395874D+05 0.16395874D+05 0.16395874D+05 0.12434411D+01  3  4  5  5  5  2        1 -.366967064388D-01 0.100000000000D+01
0.334418388842D-06 0.000000000000D+00 0.000000000000D+00 0.371863628183D-04 0.122885450002D-06  6 -1 21 25 23 -1 21 4 0.26572968D-02 0.18720560D+00 0.16992500D+05 0.16992500D+05 0.16992500D+05 0.12416944D+01  3  4 11  5  5  2        1 0.523250689131D-03 0.100000000000D+01
  </mgrwgt>
  </event>
  <event>
  5     66 0.44820762E-03 0.31582657E+02 0.75467711E-02 0.12002127E+00
       -1 -1    0    0    0  501 0.00000000E+00 0.00000000E+00 0.41808125E+02 0.41809350E+02 0.32000000E+00 0.0000E+00 0.9000E+01
        1 -1    0    0  502    0 -.00000000E+00 -.00000000E+00 -.85811488E+03 0.85811494E+03 0.32000000E+00 0.0000E+00 0.9000E+01
       25  1    1    2    0    0 0.76343377E+01 -.56897530E+02 -.16557693E+03 0.21525876E+03 0.12500000E+03 0.0000E+00 0.9000E+01
       23  1    1    2    0    0 0.12862212E+02 0.32869887E+02 -.12845767E+03 0.16143881E+03 0.91188000E+02 0.0000E+00 0.9000E+01
       21  1    1    2  502  501 -.20496550E+02 0.24027643E+02 -.52227215E+03 0.52322672E+03 0.75000000E+00 0.0000E+00 0.9000E+01
#aMCatNLO 1  0  0  5  1 0.29694866D+02 0.00000000D+00  -5  6  0 0.00000000D+00 0.00000000D+00 0.00000000D+00 0.00000000D+00 0.00000000D+00
  <mgrwgt>
 0.7768131794D-01   15    2    0
 0.189411594510294D+03 0.000000000000000D+00 0.000000000000000D+00 0.189411594510294D+03
 0.189411594510294D+03 -.000000000000000D+00 -.000000000000000D+00 -.189411594510294D+03
 0.154571343298310D+03 0.763450789251218D+01 -.568977300531969D+02 0.705100189552993D+02
 0.106703956235225D+03 0.128623294850223D+02 0.328697493833185D+02 0.427156059063344D+02
 0.117547889487054D+03 -.204968373775345D+02 0.240279806698785D+02 -.113225624861634D+03
 0.000000000000000D+00 -.000000000000000D+00 0.000000000000000D+00 0.000000000000000D+00
 0.189411594510294D+03 0.000000000000000D+00 0.000000000000000D+00 0.189411594510294D+03
 0.189411594510294D+03 -.000000000000000D+00 -.000000000000000D+00 -.189411594510294D+03
 0.150723544141300D+03 0.630559223090124D+01 -.553398721631751D+02 0.631690178338663D+02
 0.105005121816849D+03 0.119407827408625D+02 0.339500578693160D+02 0.376249324514596D+02
 0.825201247956520D+02 0.112766578319820D+02 0.321892840188872D+02 -.751415862141716D+02
 0.405743982667876D+02 -.295230328037457D+02 -.107994697250281D+02 -.256523640711543D+02
0.116128562321D-03 0.000000000000D+00 0.000000000000D+00 0.270875300738D-04 0.000000000000D+00  6 -1 1 25 23 21 21 2 0.64321181D-02 0.13201777D+00 0.17811024D+05 0.17811024D+05 0.17811024D+05 0.12394070D+01  1  2  2  3  6  5       21 0.435894794405D-01 0.100000000000D+01
0.121242145742D-04 0.612827259846D-05 -.445964256665D-06 0.270875300738D-04 0.000000000000D+00  6 -1 1 25 23 21 21 4 0.64321181D-02 0.13201777D+00 0.17811024D+05 0.17811024D+05 0.17811024D+05 0.12394070D+01  1  2  3  3  6  5       21 0.699075539992D-02 0.100000000000D+01
0.168248122264D-05 0.000000000000D+00 0.000000000000D+00 0.270875300738D-04 0.000000000000D+00  6 -1 1 25 23 21 21 4 0.64321181D-02 0.13201777D+00 0.17811024D+05 0.17811024D+05 0.17811024D+05 0.12394070D+01  1  2 15  3  6  5       21 0.970109413723D-03 0.100000000000D+01
0.772336867223D-04 0.000000000000D+00 0.000000000000D+00 0.265955895789D-04 0.000000000000D+00  6 -1 1 25 23 21 21 4 0.64321181D-02 0.13201777D+00 0.22563655D+05 0.22563655D+05 0.22563655D+05 0.12281009D+01  1  2 12  3  6  5       21 0.430488630146D-01 0.100000000000D+01
-.735062846117D-04 0.000000000000D+00 0.000000000000D+00 0.270875300738D-04 0.000000000000D+00  6 -1 1 25 23 21 21 4 0.64321181D-02 0.13201777D+00 0.17811024D+05 0.17811024D+05 0.17811024D+05 0.12394070D+01  1  2  4  3  6  5       21 -.423833191776D-01 0.100000000000D+01
-.116211933032D-03 0.000000000000D+00 0.000000000000D+00 0.270875300738D-04 0.000000000000D+00  6 -1 1 25 23 21 21 4 0.64321181D-02 0.13201777D+00 0.17811024D+05 0.17811024D+05 0.17811024D+05 0.12394070D+01  1  2  5  3  6  5       21 -.670071610335D-01 0.100000000000D+01
0.170873433500D-03 0.000000000000D+00 -.000000000000D+00 0.270875300738D-04 0.000000000000D+00  6 -1 1 25 23 21 21 4 0.64321181D-02 0.13201777D+00 0.17811024D+05 0.17811024D+05 0.17811024D+05 0.12394070D+01  1  2  6  3  6  5       21 0.985246813828D-01 0.100000000000D+01
0.157215108625D-05 0.000000000000D+00 0.000000000000D+00 0.265955895789D-04 0.000000000000D+00  6 -1 1 25 23 1 -1 4 0.64321181D-02 0.13201777D+00 0.22563655D+05 0.22563655D+05 0.22563655D+05 0.12281009D+01  1  2 12  6  6  5       21 0.876292711410D-03 0.100000000000D+01
-.414383999670D-05 0.000000000000D+00 0.000000000000D+00 0.270875300738D-04 0.000000000000D+00  6 -1 1 25 23 1 -1 4 0.64321181D-02 0.13201777D+00 0.17811024D+05 0.17811024D+05 0.17811024D+05 0.12394070D+01  1  2  5  6  6  5       21 -.238931533717D-02 0.100000000000D+01
0.157215108625D-05 0.000000000000D+00 0.000000000000D+00 0.265955895789D-04 0.000000000000D+00  6 -1 1 25 23 2 -2 4 0.64321181D-02 0.13201777D+00 0.22563655D+05 0.22563655D+05 0.22563655D+05 0.12281009D+01  1  2 12  7  6  5       21 0.876292711410D-03 0.100000000000D+01
0.157215108625D-05 0.000000000000D+00 0.000000000000D+00 0.265955895789D-04 0.000000000000D+00  6 -1 1 25 23 4 -4 4 0.64321181D-02 0.13201777D+00 0.22563655D+05 0.22563655D+05 0.22563655D+05 0.12281009D+01  1  2 12  7  6  5       21 0.876292711410D-03 0.100000000000D+01
-.414383999670D-05 0.000000000000D+00 0.000000000000D+00 0.270875300738D-04 0.000000000000D+00  6 -1 1 25 23 2 -2 4 0.64321181D-02 0.13201777D+00 0.17811024D+05 0.17811024D+05 0.17811024D+05 0.12394070D+01  1  2  5  7  6  5       21 -.238931533717D-02 0.100000000000D+01
-.414383999670D-05 0.000000000000D+00 0.000000000000D+00 0.270875300738D-04 0.000000000000D+00  6 -1 1 25 23 4 -4 4 0.64321181D-02 0.13201777D+00 0.17811024D+05 0.17811024D+05 0.17811024D+05 0.12394070D+01  1  2  5  7  6  5       21 -.238931533717D-02 0.100000000000D+01
0.157215108625D-05 0.000000000000D+00 0.000000000000D+00 0.265955895789D-04 0.000000000000D+00  6 -1 1 25 23 3 -3 4 0.64321181D-02 0.13201777D+00 0.22563655D+05 0.22563655D+05 0.22563655D+05 0.12281009D+01  1  2 12  8  6  5       21 0.876292711410D-03 0.100000000000D+01
-.414383999670D-05 0.000000000000D+00 0.000000000000D+00 0.270875300738D-04 0.000000000000D+00  6 -1 1 25 23 3 -3 4 0.64321181D-02 0.13201777D+00 0.17811024D+05 0.17811024D+05 0.17811024D+05 0.12394070D+01  1  2  5  8  6  5       21 -.238931533717D-02 0.100000000000D+01
  </mgrwgt>
  </event>
  <event>
  6     66 -.44820762E-03 0.92973581E+01 0.75467711E-02 0.12172399E+00
       -1 -1    0    0    0  501 0.00000000E+00 0.00000000E+00 0.23002543E+02 0.23004769E+02 0.32000000E+00 0.0000E+00 0.9000E+01
        1 -1    0    0  502    0 -.00000000E+00 -.00000000E+00 -.86378786E+03 0.86378792E+03 0.32000000E+00 0.0000E+00 0.9000E+01
       25  1    1    2    0    0 -.20295619E+02 -.29292474E+02 -.30611922E+03 0.33257170E+03 0.12500000E+03 0.0000E+00 0.9000E+01
       23  1    1    2    0    0 0.27854242E+02 0.41207954E+02 -.41869012E+03 0.43138222E+03 0.91188000E+02 0.0000E+00 0.9000E+01
       21  1    1    2  502  503 -.14515103E+02 -.54755863E+01 -.15600416E+02 0.22013763E+02 0.75000000E+00 0.0000E+00 0.9000E+01
       21  1    1    2  503  501 0.69564802E+01 -.64398945E+01 -.10037556E+03 0.10082500E+03 0.75000000E+00 0.0000E+00 0.9000E+01
#aMCatNLO 2  0  0  5  1 0.18327511D+02 0.00000000D+00  -5  6  0 0.00000000D+00 0.00000000D+00 0.00000000D+00 0.00000000D+00 0.00000000D+00
  <mgrwgt>
 -.1298984628D+00    2    2    0
 0.140962161394998D+03 0.000000000000000D+00 0.000000000000000D+00 0.140962161394998D+03
 0.140962161394998D+03 -.000000000000000D+00 -.000000000000000D+00 -.140962161394998D+03
 0.130019199894208D+03 -.134338801886822D+02 -.184755671195635D+02 0.275350072419927D+02
 0.113945622283293D+03 0.336473726561285D+02 0.503402975586985D+02 -.316553668209397D+02
 0.379595006124957D+02 -.202134924674463D+02 -.318647304391349D+02 0.412035957894693D+01
 0.000000000000000D+00 0.000000000000000D+00 0.000000000000000D+00 -.000000000000000D+00
 0.140962161394998D+03 0.000000000000000D+00 0.000000000000000D+00 0.140962161394998D+03
 0.140962161394998D+03 -.000000000000000D+00 -.000000000000000D+00 -.140962161394998D+03
 0.133210008176445D+03 -.203837604908701D+02 -.294314206302879D+02 0.289516850339069D+02
 0.108183796729944D+03 0.277826250278099D+02 0.410950569071438D+02 -.304598846890238D+02
 0.221445107507896D+02 -.138278575312735D+02 -.385429160470449D+01 0.168616176185010D+02
 0.183860071328175D+02 0.642899299433373D+01 -.780934467215135D+01 -.153534179633841D+02
-.455580980262D-04 0.000000000000D+00 0.000000000000D+00 0.120511176591D-04 0.000000000000D+00  6 -1 1 25 23 21 21 4 0.35390286D-02 0.13289062D+00 0.16680131D+05 0.16680131D+05 0.16680131D+05 0.12426002D+01  1  2 13  3  6  5       21 -.633754050505D-01 0.100000000000D+01
-.478208223547D-04 0.000000000000D+00 0.000000000000D+00 0.120511176591D-04 0.000000000000D+00  6 -1 1 25 23 21 21 4 0.35390286D-02 0.13289062D+00 0.16680131D+05 0.16680131D+05 0.16680131D+05 0.12426002D+01  1  2 13  3  6  5       21 -.665230577631D-01 0.100000000000D+01
  </mgrwgt>
  </event>
  <event>
  6     66 0.44820762E-03 0.11014456E+03 0.75467711E-02 0.11172372E+00
       -1 -1    0    0    0  503 0.00000000E+00 0.00000000E+00 0.28856962E+03 0.28856980E+03 0.32000000E+00 0.0000E+00 0.9000E+01
        1 -1    0    0  502    0 0.00000000E+00 0.00000000E+00 -.31363260E+03 0.31363277E+03 0.32000000E+00 0.0000E+00 0.9000E+01
       25  1    1    2    0    0 0.15884115E+03 -.64686193E+02 0.88269623E+00 0.21222769E+03 0.12500000E+03 0.0000E+00 0.9000E+01
       23  1    1    2    0    0 -.15016308E+02 0.66755692E+02 0.11762668E+03 0.16380812E+03 0.91188000E+02 0.0000E+00 0.9000E+01
       21  1    1    2  502  501 -.12372993E+03 -.29806607E+02 -.14363243E+03 0.19190718E+03 0.75000000E+00 0.0000E+00 0.9000E+01
       21  1    1    2  501  503 -.20094912E+02 0.27737107E+02 0.60074002E-01 0.34259579E+02 0.75000000E+00 0.0000E+00 0.9000E+01
#aMCatNLO 2  0  0  1  5 0.34251316D+02 0.00000000D+00  -5  6  0 0.00000000D+00 0.00000000D+00 0.00000000D+00 0.00000000D+00 0.00000000D+00
  <mgrwgt>
 0.1196510526D-01    1    2    0
 0.283176146227654D+03 0.000000000000000D+00 0.000000000000000D+00 0.283176146227654D+03
 0.283176146227654D+03 0.000000000000000D+00 0.000000000000000D+00 -.283176146227654D+03
 0.204059308187523D+03 0.151458685792992D+03 -.544955717907243D+02 0.102810705197621D+02
 0.173288426175864D+03 -.210860027709086D+02 0.751342042112045D+02 0.124995436505507D+03
 0.189004558091920D+03 -.130372683022083D+03 -.206386324204802D+02 -.135276507025269D+03
 0.000000000000000D+00 -.000000000000000D+00 0.000000000000000D+00 0.000000000000000D+00
 0.301625867478753D+03 0.000000000000000D+00 0.000000000000000D+00 0.301625867478753D+03
 0.300048793067300D+03 0.000000000000000D+00 0.000000000000000D+00 -.300048793067300D+03
 0.212475009589901D+03 0.158841529716454D+03 -.646861478721139D+02 0.102810705197621D+02
 0.169177179025114D+03 -.150159864374549D+02 0.667557305630271D+02 0.124995436505507D+03
 0.185734867812826D+03 -.123730630794106D+03 -.298066900507741D+02 -.135276507025269D+03
 0.342876041182123D+02 -.200949124848938D+02 0.277371073598609D+02 0.157707441145253D+01
0.142373668001D-03 0.000000000000D+00 0.000000000000D+00 0.976604340002D-06 0.401284091862D-08  6 -1 1 25 23 21 21 4 0.44394748D-01 0.48250538D-01 0.59475577D+05 0.59475577D+05 0.59475577D+05 0.11848889D+01  1  2  1  1  6  1       -1 0.119651052615D-01 0.100000000000D+01
  </mgrwgt>
  </event>
  <event>
  5     66 0.44820762E-03 0.32381834E+02 0.75467711E-02 0.11307075E+00
       -1 -1    0    0    0  501 0.00000000E+00 0.00000000E+00 0.50194073E+03 0.50194083E+03 0.32000000E+00 0.0000E+00 0.9000E+01
        1 -1    0    0  502    0 0.00000000E+00 0.00000000E+00 -.10295448E+03 0.10295498E+03 0.32000000E+00 0.0000E+00 0.9000E+01
       25  1    1    2    0    0 0.51866884E+02 0.18611119E+03 0.18962304E+03 0.29817688E+03 0.12500000E+03 0.0000E+00 0.9000E+01
       23  1    1    2    0    0 -.47337936E+02 -.15405376E+03 0.20095435E+03 0.27326058E+03 0.91188000E+02 0.0000E+00 0.9000E+01
       21  1    1    2  502  501 -.45289482E+01 -.32057433E+02 0.84088462E+01 0.33458356E+02 0.75000000E+00 0.0000E+00 0.9000E+01
#aMCatNLO 1  0  0  5  1 0.15485626D+02 0.00000000D+00  -5  6  0 0.00000000D+00 0.00000000D+00 0.00000000D+00 0.00000000D+00 0.00000000D+00
  <mgrwgt>
 0.1819674645D+00   14    2    0
 0.227326263867391D+03 0.000000000000000D+00 0.000000000000000D+00 0.227326263867391D+03
 0.227326263867391D+03 -.000000000000000D+00 -.000000000000000D+00 -.227326263867391D+03
 0.230308160952531D+03 0.518673517280883D+02 0.186114507156532D+03 -.938174034669771D+01
 0.187209360719193D+03 -.473375550775038D+02 -.154051067902222D+03 0.275593496722635D+02
 0.371350060630582D+02 -.452979665058457D+01 -.320634392543099D+02 -.181776093255659D+02
 0.000000000000000D+00 0.000000000000000D+00 0.000000000000000D+00 0.000000000000000D+00
 0.227326263867391D+03 0.000000000000000D+00 0.000000000000000D+00 0.227326263867391D+03
 0.227326263867391D+03 -.000000000000000D+00 -.000000000000000D+00 -.227326263867391D+03
 0.223685179285939D+03 0.507041975450078D+02 0.177881306779251D+03 -.140493587755972D+02
 0.192640257757626D+03 -.483107492491204D+02 -.160939666797771D+03 0.236540212846675D+02
 0.224917577617730D+02 -.141133999468918D+02 -.174822489252287D+02 0.103057346642137D+01
 0.158353329294441D+02 0.117199516510044D+02 0.540608943748887D+00 -.106352359754918D+02
0.121014939110D-02 0.000000000000D+00 0.000000000000D+00 0.103656811607D-04 0.000000000000D+00  6 -1 1 25 23 21 21 2 0.77221696D-01 0.15839198D-01 0.50101784D+05 0.50101784D+05 0.50101784D+05 0.11921943D+01  1  2  2  3  6  5       21 0.104775423103D+00 0.100000000000D+01
0.286605268755D-03 0.638613378593D-04 -.464729230146D-05 0.103656811607D-04 0.000000000000D+00  6 -1 1 25 23 21 21 4 0.77221696D-01 0.15839198D-01 0.50101784D+05 0.50101784D+05 0.50101784D+05 0.11921943D+01  1  2  3  3  6  5       21 0.352694502012D-01 0.100000000000D+01
0.303059238386D-04 0.000000000000D+00 0.000000000000D+00 0.103656811607D-04 0.000000000000D+00  6 -1 1 25 23 21 21 4 0.77221696D-01 0.15839198D-01 0.50101784D+05 0.50101784D+05 0.50101784D+05 0.11921943D+01  1  2 15  3  6  5       21 0.372942645566D-02 0.100000000000D+01
0.368304058112D-03 0.000000000000D+00 0.000000000000D+00 0.103624850791D-04 0.000000000000D+00  6 -1 1 25 23 21 21 4 0.77221696D-01 0.15839198D-01 0.50316457D+05 0.50316457D+05 0.50316457D+05 0.11920105D+01  1  2 12  3  6  5       21 0.452957553510D-01 0.100000000000D+01
0.322399382527D-03 0.000000000000D+00 0.000000000000D+00 0.103624850791D-04 0.000000000000D+00  6 -1 1 25 23 21 21 4 0.77221696D-01 0.15839198D-01 0.50316457D+05 0.50316457D+05 0.50316457D+05 0.11920105D+01  1  2 12  3  6  5       21 0.396501836854D-01 0.100000000000D+01
-.464133136379D-03 0.000000000000D+00 0.000000000000D+00 0.103656811607D-04 0.000000000000D+00  6 -1 1 25 23 21 21 4 0.77221696D-01 0.15839198D-01 0.50101784D+05 0.50101784D+05 0.50101784D+05 0.11921943D+01  1  2  4  3  6  5       21 -.571159093180D-01 0.100000000000D+01
0.111492252151D-04 0.000000000000D+00 0.000000000000D+00 0.103624850791D-04 0.000000000000D+00  6 -1 1 25 23 1 -1 4 0.77221696D-01 0.15839198D-01 0.50316457D+05 0.50316457D+05 0.50316457D+05 0.11920105D+01  1  2 12  6  6  5       21 0.137118385359D-02 0.100000000000D+01
0.991668178471D-05 0.000000000000D+00 0.000000000000D+00 0.103624850791D-04 0.000000000000D+00  6 -1 1 25 23 1 -1 4 0.77221696D-01 0.15839198D-01 0.50316457D+05 0.50316457D+05 0.50316457D+05 0.11920105D+01  1  2 12  6  6  5       21 0.121959989883D-02 0.100000000000D+01
0.111492252151D-04 0.000000000000D+00 0.000000000000D+00 0.103624850791D-04 0.000000000000D+00  6 -1 1 25 23 2 -2 4 0.77221696D-01 0.15839198D-01 0.50316457D+05 0.50316457D+05 0.50316457D+05 0.11920105D+01  1  2 12  7  6  5       21 0.137118385359D-02 0.100000000000D+01
0.111492252151D-04 0.000000000000D+00 0.000000000000D+00 0.103624850791D-04 0.000000000000D+00  6 -1 1 25 23 4 -4 4 0.77221696D-01 0.15839198D-01 0.50316457D+05 0.50316457D+05 0.50316457D+05 0.11920105D+01  1  2 12  7  6  5       21 0.137118385359D-02 0.100000000000D+01
0.991668178471D-05 0.000000000000D+00 0.000000000000D+00 0.103624850791D-04 0.000000000000D+00  6 -1 1 25 23 2 -2 4 0.77221696D-01 0.15839198D-01 0.50316457D+05 0.50316457D+05 0.50316457D+05 0.11920105D+01  1  2 12  7  6  5       21 0.121959989883D-02 0.100000000000D+01
0.991668178471D-05 0.000000000000D+00 0.000000000000D+00 0.103624850791D-04 0.000000000000D+00  6 -1 1 25 23 4 -4 4 0.77221696D-01 0.15839198D-01 0.50316457D+05 0.50316457D+05 0.50316457D+05 0.11920105D+01  1  2 12  7  6  5       21 0.121959989883D-02 0.100000000000D+01
0.111492252151D-04 0.000000000000D+00 0.000000000000D+00 0.103624850791D-04 0.000000000000D+00  6 -1 1 25 23 3 -3 4 0.77221696D-01 0.15839198D-01 0.50316457D+05 0.50316457D+05 0.50316457D+05 0.11920105D+01  1  2 12  8  6  5       21 0.137118385359D-02 0.100000000000D+01
0.991668178471D-05 0.000000000000D+00 0.000000000000D+00 0.103624850791D-04 0.000000000000D+00  6 -1 1 25 23 3 -3 4 0.77221696D-01 0.15839198D-01 0.50316457D+05 0.50316457D+05 0.50316457D+05 0.11920105D+01  1  2 12  8  6  5       21 0.121959989883D-02 0.100000000000D+01
  </mgrwgt>
  </event>
  <event>
  5     66 -.44820762E-03 0.21644212E+02 0.75467711E-02 0.11877266E+00
       -1 -1    0    0    0  501 0.00000000E+00 0.00000000E+00 0.27535206E+02 0.27537066E+02 0.32000000E+00 0.0000E+00 0.9000E+01
        1 -1    0    0  502    0 0.00000000E+00 0.00000000E+00 -.86478775E+03 0.86478781E+03 0.32000000E+00 0.0000E+00 0.9000E+01
       25  1    1    2    0    0 0.60967359E+02 -.14768916E+01 -.39296283E+03 0.41685007E+03 0.12500000E+03 0.0000E+00 0.9000E+01
       23  1    1    2    0    0 -.80878494E+02 0.99551735E+01 -.23360026E+03 0.26367550E+03 0.91188000E+02 0.0000E+00 0.9000E+01
       21  1    1    2  502  501 0.19911135E+02 -.84782819E+01 -.21068946E+03 0.21179931E+03 0.75000000E+00 0.0000E+00 0.9000E+01
#aMCatNLO 1  0  0  1  2 0.37073397D+02 0.00000000D+00  -5  6  0 0.00000000D+00 0.00000000D+00 0.00000000D+00 0.00000000D+00 0.00000000D+00
  <mgrwgt>
 -.7042712861D+00    5    4    0
 0.154314500825679D+03 0.000000000000000D+00 0.000000000000000D+00 0.154314500825679D+03
 0.154314500825679D+03 0.000000000000000D+00 0.000000000000000D+00 -.154314500825679D+03
 0.139184342348779D+03 0.609658417898403D+02 -.147624554724739D+01 -.531676490006989D+01
 0.128640908267288D+03 -.808798966056427D+02 0.995577055529334D+01 0.399068527140838D+02
 0.408037510352916D+02 0.199140548158024D+02 -.847952500804594D+01 -.345900878140139D+02
 0.000000000000000D+00 0.000000000000000D+00 -.000000000000000D+00 0.000000000000000D+00
 0.134355953398230D+04 0.000000000000000D+00 0.000000000000000D+00 0.134355953398230D+04
 0.155713054181461D+03 0.000000000000000D+00 0.000000000000000D+00 -.155713054181461D+03
 0.139919564215375D+03 0.607650296253896D+02 0.152258870297721D+02 -.531676490006989D+01
 0.130878328054773D+03 -.810666178171226D+02 0.254859175342343D+02 0.399068527140838D+02
 0.400498154992283D+02 0.198558815716539D+02 -.364108686431465D+01 -.345900878140139D+02
 0.118842488039439D+04 0.445706620079120D+00 -.370707176996918D+02 0.118784647980084D+04
 0.154314500825679D+03 0.000000000000000D+00 0.000000000000000D+00 0.154314500825679D+03
 0.154314500825679D+03 0.000000000000000D+00 0.000000000000000D+00 -.154314500825679D+03
 0.139184342348779D+03 0.609658417898403D+02 -.147624554724739D+01 -.531676490006989D+01
 0.128640908267288D+03 -.808798966056427D+02 0.995577055529334D+01 0.399068527140838D+02
 0.000000000000000D+00 0.000000000000000D+00 -.000000000000000D+00 0.000000000000000D+00
 0.408037510352916D+02 0.199140548158024D+02 -.847952500804594D+01 -.345900878140139D+02
 0.134355953398230D+04 0.000000000000000D+00 0.000000000000000D+00 0.134355953398230D+04
 0.155713054181461D+03 0.000000000000000D+00 0.000000000000000D+00 -.155713054181461D+03
 0.139919564215375D+03 0.607650296253896D+02 0.152258870297721D+02 -.531676490006989D+01
 0.130878328054773D+03 -.810666178171226D+02 0.254859175342343D+02 0.399068527140838D+02
 0.118842488039439D+04 0.445706620079120D+00 -.370707176996918D+02 0.118784647980084D+04
 0.400498154992283D+02 0.198558815716539D+02 -.364108686431465D+01 -.345900878140139D+02
0.179894484653D-04 0.000000000000D+00 0.000000000000D+00 0.337510316380D-04 0.000000000000D+00  6 -1 1 25 23 21 21 2 0.42363332D-02 0.13304442D+00 0.20025277D+05 0.20025277D+05 0.20025277D+05 0.12337657D+01  1  2  2  1  6  1       -1 0.122998563789D-01 0.100000000000D+01
0.297207395137D-05 0.949329276865D-06 -.690842188375D-07 0.337510316380D-04 0.000000000000D+00  6 -1 1 25 23 21 21 4 0.42363332D-02 0.13304442D+00 0.20025277D+05 0.20025277D+05 0.20025277D+05 0.12337657D+01  1  2  3  1  6  1       -1 0.309319400360D-02 0.100000000000D+01
0.717559579234D-06 0.000000000000D+00 0.000000000000D+00 0.337510316380D-04 0.000000000000D+00  6 -1 1 25 23 21 21 4 0.42363332D-02 0.13304442D+00 0.20025277D+05 0.20025277D+05 0.20025277D+05 0.12337657D+01  1  2 15  1  6  1       -1 0.746802072907D-03 0.100000000000D+01
-.531254104997D-02 0.000000000000D+00 -.226057943836D-04 0.337510316380D-04 0.000000000000D+00  6 -1 1 25 23 21 21 4 0.36952372D-01 0.13304442D+00 0.20025277D+05 0.20025277D+05 0.20025277D+05 0.12337657D+01  1  2  5  1  6  1       -1 -.186116025596D+00 0.100000000000D+01
-.139058489405D-02 0.000000000000D+00 -.590414423733D-05 0.337510316380D-04 0.000000000000D+00  6 21 1 25 23 1 21 4 0.36952372D-01 0.13304442D+00 0.20025277D+05 0.20025277D+05 0.20025277D+05 0.12337657D+01  3  4  5  4  5  1       -1 -.534295112914D+00 0.100000000000D+01
  </mgrwgt>
  </event>
  <event>
  6     66 0.44820762E-03 0.16152026E+02 0.75467711E-02 0.12105415E+00
       -1 -1    0    0    0  501 0.00000000E+00 0.00000000E+00 0.85302348E+02 0.85302948E+02 0.32000000E+00 0.0000E+00 0.9000E+01
        1 -1    0    0  503    0 0.00000000E+00 0.00000000E+00 -.47009433E+03 0.47009444E+03 0.32000000E+00 0.0000E+00 0.9000E+01
       25  1    1    2    0    0 0.16713181E+02 -.70870191E+02 -.86124705E+02 0.16835789E+03 0.12500000E+03 0.0000E+00 0.9000E+01
       23  1    1    2    0    0 0.10411570E+02 0.57094333E+02 -.25684826E+02 0.11109962E+03 0.91188000E+02 0.0000E+00 0.9000E+01
       21  1    1    2  502  501 -.68075232E+01 0.75653256E+01 -.24372399E+02 0.26422583E+02 0.75000000E+00 0.0000E+00 0.9000E+01
       21  1    1    2  503  502 -.20317228E+02 0.62105330E+01 -.24861006E+03 0.24951730E+03 0.75000000E+00 0.0000E+00 0.9000E+01
#aMCatNLO 2  0  0  2  2 0.12833201D+03 0.00000000D+00  -5  6  0 0.00000000D+00 0.00000000D+00 0.00000000D+00 0.00000000D+00 0.00000000D+00
  <mgrwgt>
 0.2617723786D+00    1    2    0
 0.136533651286148D+03 0.000000000000000D+00 0.000000000000000D+00 0.136533651286148D+03
 0.136533651286148D+03 0.000000000000000D+00 0.000000000000000D+00 -.136533651286148D+03
 0.142782911393636D+03 0.601960146842777D+01 -.676038569030537D+02 -.124676668240547D+02
 0.112164041355338D+03 0.211353466419157D+01 0.596289290713385D+02 0.265602074199443D+02
 0.181203498233224D+02 -.813313613261935D+01 0.797492783171522D+01 -.140925405958896D+02
 0.000000000000000D+00 -.000000000000000D+00 0.000000000000000D+00 -.000000000000000D+00
 0.137677502427038D+03 0.000000000000000D+00 0.000000000000000D+00 0.137677502427038D+03
 0.291259073596078D+03 0.000000000000000D+00 0.000000000000000D+00 -.291259073596078D+03
 0.145199841076448D+03 0.167169342933043D+02 -.708737979822124D+02 -.124676668240547D+02
 0.111304082640103D+03 0.104144237890649D+02 0.570915285073546D+02 0.265602074199443D+02
 0.173885957326778D+02 -.681413002681995D+01 0.757173646433207D+01 -.140925405958896D+02
 0.155044056573887D+03 -.203172280555493D+02 0.621053301052571D+01 -.153581571169040D+03
0.589687674954D-03 0.000000000000D+00 0.000000000000D+00 0.120739447815D-03 0.247319264983D-05  6 -1 1 25 23 21 21 4 0.13123407D-01 0.72321786D-01 0.20190123D+05 0.20190123D+05 0.20190123D+05 0.12333739D+01  1  2  1  2  6  2        1 0.261772378623D+00 0.100000000000D+01
  </mgrwgt>
  </event>
  <event>
  5     66 -.44820762E-03 0.20874059E+02 0.75467711E-02 0.12325891E+00
       -1 -1    0    0    0  501 0.00000000E+00 0.00000000E+00 0.62021653E+02 0.62022479E+02 0.32000000E+00 0.0000E+00 0.9000E+01
        1 -1    0    0  502    0 0.00000000E+00 0.00000000E+00 -.32169070E+03 0.32169086E+03 0.32000000E+00 0.0000E+00 0.9000E+01
       25  1    1    2    0    0 -.37409827E+02 -.19942414E+02 -.95927229E+02 0.16316932E+03 0.12500000E+03 0.0000E+00 0.9000E+01
       23  1    1    2    0    0 0.21837244E+02 0.60447658E+01 -.53057137E+02 0.10790605E+03 0.91188000E+02 0.0000E+00 0.9000E+01
       21  1    1    2  502  501 0.15572583E+02 0.13897648E+02 -.11068468E+03 0.11263797E+03 0.75000000E+00 0.0000E+00 0.9000E+01
#aMCatNLO 1  0  0  2  5 0.66713770D+01 0.00000000D+00  -5  6  0 0.00000000D+00 0.00000000D+00 0.00000000D+00 0.00000000D+00 0.00000000D+00
  <mgrwgt>
 -.6997253563D-01   11    4    0
 0.141251471406362D+03 0.000000000000000D+00 0.000000000000000D+00 0.141251471406362D+03
 0.141251471406362D+03 0.000000000000000D+00 0.000000000000000D+00 -.141251471406362D+03
 0.133453848042731D+03 -.374106149029762D+02 -.199431167053528D+02 0.196887670022828D+02
 0.977964503265126D+02 0.218366667230557D+02 0.604425065368093D+01 0.271204972839312D+02
 0.512526444434801D+02 0.155739481799206D+02 0.138988660516719D+02 -.468092642862139D+02
 0.000000000000000D+00 -.000000000000000D+00 0.000000000000000D+00 -.000000000000000D+00
 0.141680334850381D+03 0.000000000000000D+00 0.000000000000000D+00 0.141680334850381D+03
 0.169859071600402D+03 0.000000000000000D+00 0.000000000000000D+00 -.169859071600402D+03
 0.133825542854894D+03 -.369418317023593D+02 -.230635956609405D+02 0.196887670022828D+02
 0.977591731609424D+02 0.221796531043446D+02 0.376114455376779D+01 0.271204972839312D+02
 0.509969889289986D+02 0.157532845299223D+02 0.127051046169282D+02 -.468092642862139D+02
 0.289577015059485D+02 -.991105931907569D+00 0.659734649024455D+01 -.281787367500214D+02
 0.141251471406362D+03 0.000000000000000D+00 0.000000000000000D+00 0.141251471406362D+03
 0.141251471406362D+03 0.000000000000000D+00 0.000000000000000D+00 -.141251471406362D+03
 0.133453848042731D+03 -.374106149029762D+02 -.199431167053528D+02 0.196887670022828D+02
 0.977964503265126D+02 0.218366667230557D+02 0.604425065368093D+01 0.271204972839312D+02
 0.000000000000000D+00 -.000000000000000D+00 0.000000000000000D+00 -.000000000000000D+00
 0.512526444434801D+02 0.155739481799206D+02 0.138988660516719D+02 -.468092642862139D+02
 0.141680334850381D+03 0.000000000000000D+00 0.000000000000000D+00 0.141680334850381D+03
 0.169859071600402D+03 0.000000000000000D+00 0.000000000000000D+00 -.169859071600402D+03
 0.133825542854894D+03 -.369418317023593D+02 -.230635956609405D+02 0.196887670022828D+02
 0.977591731609424D+02 0.221796531043446D+02 0.376114455376779D+01 0.271204972839312D+02
 0.289577015059485D+02 -.991105931907569D+00 0.659734649024455D+01 -.281787367500214D+02
 0.509969889289986D+02 0.157532845299223D+02 0.127051046169282D+02 -.468092642862139D+02
0.166066789797D-04 0.000000000000D+00 0.000000000000D+00 0.482948547242D-04 0.000000000000D+00  6 -1 1 25 23 21 21 2 0.95418685D-02 0.49490953D-01 0.15231054D+05 0.15231054D+05 0.15231054D+05 0.12470664D+01  1  2  2  2  6  2        1 0.129507504485D-01 0.100000000000D+01
0.230347406920D-05 0.876358526348D-06 -.637740199209D-07 0.482948547242D-04 0.000000000000D+00  6 -1 1 25 23 21 21 4 0.95418685D-02 0.49490953D-01 0.15231054D+05 0.15231054D+05 0.15231054D+05 0.12470664D+01  1  2  3  2  6  2        1 0.279366705403D-02 0.100000000000D+01
0.598946646461D-06 0.000000000000D+00 0.000000000000D+00 0.482948547242D-04 0.000000000000D+00  6 -1 1 25 23 21 21 4 0.95418685D-02 0.49490953D-01 0.15231054D+05 0.15231054D+05 0.15231054D+05 0.12470664D+01  1  2 15  2  6  2        1 0.726406055841D-03 0.100000000000D+01
0.464455268647D-03 0.000000000000D+00 0.000000000000D+00 0.481005302139D-04 0.000000000000D+00  6 -1 1 25 23 21 21 4 0.95418685D-02 0.64323104D-01 0.16027667D+05 0.16027667D+05 0.16027667D+05 0.12445550D+01  1  2 12  2  6  2        1 0.403345906884D+00 0.100000000000D+01
-.568904554072D-03 0.000000000000D+00 0.000000000000D+00 0.482948547242D-04 0.000000000000D+00  6 -1 1 25 23 21 21 4 0.95418685D-02 0.49490953D-01 0.15231054D+05 0.15231054D+05 0.15231054D+05 0.12470664D+01  1  2  4  2  6  2        1 -.689970827477D+00 0.100000000000D+01
-.836146724565D-03 0.000000000000D+00 -.249796834942D-04 0.482948547242D-04 0.000000000000D+00  6 -1 1 25 23 21 21 4 0.95418685D-02 0.59599014D-01 0.15231054D+05 0.15231054D+05 0.15231054D+05 0.12470664D+01  1  2  5  2  6  2        1 -.804715558248D+00 0.100000000000D+01
0.826892900754D-03 0.000000000000D+00 0.245544080644D-04 0.482948547242D-04 0.000000000000D+00  6 -1 1 25 23 21 21 4 0.95418685D-02 0.49490953D-01 0.15231054D+05 0.15231054D+05 0.15231054D+05 0.12470664D+01  1  2  6  2  6  2        1 0.100286062905D+01 0.100000000000D+01
0.331196643110D-04 0.000000000000D+00 0.000000000000D+00 0.482948547242D-04 0.703333381173D-05  6 -1 1 25 23 21 21 4 0.95708393D-02 0.59514335D-01 0.16027667D+05 0.16027667D+05 0.16027667D+05 0.12445550D+01  1  2 11  2  6  2        1 0.315709685570D-01 0.100000000000D+01
0.162757800213D-04 0.000000000000D+00 0.000000000000D+00 0.481005302139D-04 0.000000000000D+00  6 -1 21 25 23 -1 21 4 0.95418685D-02 0.64323104D-01 0.16027667D+05 0.16027667D+05 0.16027667D+05 0.12445550D+01  3  4 12  5  5  2        1 0.511925091697D-01 0.100000000000D+01
-.223561100271D-04 0.000000000000D+00 -.675452562240D-06 0.482948547242D-04 0.000000000000D+00  6 -1 21 25 23 -1 21 4 0.95418685D-02 0.59599014D-01 0.15231054D+05 0.15231054D+05 0.15231054D+05 0.12470664D+01  3  4  5  5  5  2        1 -.834144815471D-01 0.100000000000D+01
0.727250635640D-06 0.000000000000D+00 0.000000000000D+00 0.482948547242D-04 0.308655620824D-06  6 -1 21 25 23 -1 21 4 0.95708393D-02 0.59514335D-01 0.16027667D+05 0.16027667D+05 0.16027667D+05 0.12445550D+01  3  4 11  5  5  2        1 0.268749441891D-02 0.100000000000D+01
  </mgrwgt>
  </event>
  <event>
  6     66 -.44820762E-03 0.10898123E+02 0.75467711E-02 0.12325785E+00
       -1 -1    0    0    0  501 0.00000000E+00 0.00000000E+00 0.23768780E+02 0.23770934E+02 0.32000000E+00 0.0000E+00 0.9000E+01
        1 -1    0    0  502    0 -.00000000E+00 -.00000000E+00 -.13011041E+04 0.13011042E+04 0.32000000E+00 0.0000E+00 0.9000E+01
       25  1    1    2    0    0 -.40552121E+02 -.15845131E+02 -.63580026E+03 0.64943245E+03 0.12500000E+03 0.0000E+00 0.9000E+01
       23  1    1    2    0    0 0.42202644E+02 -.40587185E+01 -.13498966E+03 0.16833002E+03 0.91188000E+02 0.0000E+00 0.9000E+01
       21  1    1    2  503  501 0.53205961E+01 0.65940885E+01 -.23135817E+03 0.23151448E+03 0.75000000E+00 0.0000E+00 0.9000E+01
       21  1    1    2  502  503 -.69711195E+01 0.13309761E+02 -.27518728E+03 0.27559817E+03 0.75000000E+00 0.0000E+00 0.9000E+01
#aMCatNLO 2  0  0  5  1 0.64908182D+01 0.00000000D+00  -5  6  0 0.00000000D+00 0.00000000D+00 0.00000000D+00 0.00000000D+00 0.00000000D+00
  <mgrwgt>
 -.1584896297D+00    2    2    0
 0.175861057778629D+03 0.000000000000000D+00 0.000000000000000D+00 0.175861057778629D+03
 0.175861057778629D+03 -.000000000000000D+00 -.000000000000000D+00 -.175861057778629D+03
 0.137175347818443D+03 -.405404169843397D+02 -.159862680314447D+02 -.359581683943106D+02
 0.144194400556750D+03 0.422149264656134D+02 -.420683150380163D+01 0.103329455433202D+03
 0.703523671820635D+02 -.167450948127363D+01 0.201930995352463D+02 -.673712870388910D+02
 0.000000000000000D+00 -.000000000000000D+00 0.000000000000000D+00 0.000000000000000D+00
 0.175861057778629D+03 0.000000000000000D+00 0.000000000000000D+00 0.175861057778629D+03
 0.175861057778629D+03 -.000000000000000D+00 -.000000000000000D+00 -.175861057778629D+03
 0.137283134839435D+03 -.405517559333943D+02 -.158495303602370D+02 -.364143733904719D+02
 0.143844079957508D+03 0.422030264739473D+02 -.406332815618306D+01 0.102850677759344D+03
 0.314618633089539D+02 0.526687294463668D+01 0.650843891388021D+01 -.303273657801109D+02
 0.391330374513604D+02 -.691814348518963D+01 0.134044196025398D+02 -.361089385887615D+02
-.134460292223D-03 0.000000000000D+00 0.000000000000D+00 0.333987513931D-04 0.000000000000D+00  6 -1 1 25 23 21 21 4 0.36569042D-02 0.20017004D+00 0.16433351D+05 0.16433351D+05 0.16433351D+05 0.12433293D+01  1  2 13  3  6  5       21 -.871425545827D-01 0.100000000000D+01
-.110087988804D-03 0.000000000000D+00 0.000000000000D+00 0.333987513931D-04 0.000000000000D+00  6 -1 1 25 23 21 21 4 0.36569042D-02 0.20017004D+00 0.16433351D+05 0.16433351D+05 0.16433351D+05 0.12433293D+01  1  2 13  3  6  5       21 -.713470751448D-01 0.100000000000D+01
  </mgrwgt>
  </event>
  <event>
  5     66 0.44820762E-03 0.36450584E+02 0.75467711E-02 0.11314111E+00
       -1 -1    0    0    0  501 0.00000000E+00 0.00000000E+00 0.50303331E+02 0.50304348E+02 0.32000000E+00 0.0000E+00 0.9000E+01
        1 -1    0    0  502    0 0.00000000E+00 0.00000000E+00 -.80872148E+03 0.80872155E+03 0.32000000E+00 0.0000E+00 0.9000E+01
       25  1    1    2    0    0 0.39957197E+02 0.20722310E+02 -.98366235E+02 0.16530852E+03 0.12500000E+03 0.0000E+00 0.9000E+01
       23  1    1    2    0    0 -.39480926E+02 -.57169291E+02 -.18755700E+03 0.21981799E+03 0.91188000E+02 0.0000E+00 0.9000E+01
       21  1    1    2  502  501 -.47627055E+00 0.36446981E+02 -.47249492E+03 0.47389938E+03 0.75000000E+00 0.0000E+00 0.9000E+01
#aMCatNLO 1  0  0  1  5 0.58228517D+03 0.00000000D+00  -5  6  0 0.00000000D+00 0.00000000D+00 0.00000000D+00 0.00000000D+00 0.00000000D+00
  <mgrwgt>
 0.6453077738D-01    7    4    0
 0.201697418130142D+03 0.000000000000000D+00 0.000000000000000D+00 0.201697418130142D+03
 0.201697418130142D+03 0.000000000000000D+00 0.000000000000000D+00 -.201697418130142D+03
 0.167086359471356D+03 0.399572005756783D+02 0.207220194248928D+02 0.101325572065993D+03
 0.115476904725180D+03 -.394809236031538D+02 -.571694918095130D+02 0.138769614322534D+02
 0.120831572063748D+03 -.476276972524520D+00 0.364474723846202D+02 -.115202533498246D+03
 0.000000000000000D+00 -.000000000000000D+00 -.000000000000000D+00 0.000000000000000D+00
 0.298582161648308D+03 0.000000000000000D+00 0.000000000000000D+00 0.298582161648308D+03
 0.251872833521265D+03 0.000000000000000D+00 0.000000000000000D+00 -.251872833521265D+03
 0.185342469303104D+03 0.633202472347088D+02 0.667121103174438D+02 0.101325572065993D+03
 0.999366706459993D+02 -.252008278746452D+02 -.290591639874100D+02 0.138769614322534D+02
 0.135778292867649D+03 0.165347838660779D+02 0.699336972577638D+02 -.115202533498246D+03
 0.129397562352820D+03 -.546542032261414D+02 -.107586643587798D+03 0.467093281270435D+02
 0.201697418130142D+03 0.000000000000000D+00 0.000000000000000D+00 0.201697418130142D+03
 0.201697418130142D+03 0.000000000000000D+00 0.000000000000000D+00 -.201697418130142D+03
 0.167086359471356D+03 0.399572005756783D+02 0.207220194248928D+02 0.101325572065993D+03
 0.115476904725180D+03 -.394809236031538D+02 -.571694918095130D+02 0.138769614322534D+02
 0.000000000000000D+00 -.000000000000000D+00 -.000000000000000D+00 0.000000000000000D+00
 0.120831572063748D+03 -.476276972524520D+00 0.364474723846202D+02 -.115202533498246D+03
 0.298582161648308D+03 0.000000000000000D+00 0.000000000000000D+00 0.298582161648308D+03
 0.251872833521265D+03 0.000000000000000D+00 0.000000000000000D+00 -.251872833521265D+03
 0.185342469303104D+03 0.633202472347088D+02 0.667121103174438D+02 0.101325572065993D+03
 0.999366706459993D+02 -.252008278746452D+02 -.290591639874100D+02 0.138769614322534D+02
 0.129397562352820D+03 -.546542032261414D+02 -.107586643587798D+03 0.467093281270435D+02
 0.135778292867649D+03 0.165347838660779D+02 0.699336972577638D+02 -.115202533498246D+03
0.140161563175D-03 0.000000000000D+00 0.000000000000D+00 0.165620672538D-04 0.000000000000D+00  6 -1 1 25 23 21 21 2 0.77390571D-02 0.12441877D+00 0.20156566D+05 0.20156566D+05 0.20156566D+05 0.12334534D+01  1  2  2  1  6  1       -1 0.432977469745D-01 0.100000000000D+01
0.108677413103D-04 0.739652889689D-05 -.538257307979D-06 0.165620672538D-04 0.000000000000D+00  6 -1 1 25 23 21 21 4 0.77390571D-02 0.12441877D+00 0.20156566D+05 0.20156566D+05 0.20156566D+05 0.12334534D+01  1  2  3  1  6  1       -1 0.510765016543D-02 0.100000000000D+01
0.553973274272D-05 0.000000000000D+00 0.000000000000D+00 0.165620672538D-04 0.000000000000D+00  6 -1 1 25 23 21 21 4 0.77390571D-02 0.12441877D+00 0.20156566D+05 0.20156566D+05 0.20156566D+05 0.12334534D+01  1  2 15  1  6  1       -1 0.260357843013D-02 0.100000000000D+01
-.641792332692D-04 0.000000000000D+00 0.000000000000D+00 0.165620672538D-04 0.000000000000D+00  6 -1 1 25 23 21 21 4 0.77390571D-02 0.12441877D+00 0.20156566D+05 0.20156566D+05 0.20156566D+05 0.12334534D+01  1  2  4  1  6  1       -1 -.301631279274D-01 0.100000000000D+01
-.713044748600D-04 0.000000000000D+00 -.914794934448D-04 0.165620672538D-04 0.000000000000D+00  6 -1 1 25 23 21 21 4 0.14318360D-01 0.12441877D+00 0.20156566D+05 0.20156566D+05 0.20156566D+05 0.12334534D+01  1  2  5  1  6  1       -1 -.130450574091D-01 0.100000000000D+01
0.119245448621D-03 0.000000000000D+00 0.765313332047D-04 0.165620672538D-04 0.000000000000D+00  6 -1 1 25 23 21 21 4 0.77390571D-02 0.12441877D+00 0.20156566D+05 0.20156566D+05 0.20156566D+05 0.12334534D+01  1  2  6  1  6  1       -1 0.560432952888D-01 0.100000000000D+01
0.270765231553D-06 0.000000000000D+00 -.613963199238D-05 0.165620672538D-04 0.000000000000D+00  6 21 1 25 23 1 21 4 0.14318360D-01 0.12441877D+00 0.20156566D+05 0.20156566D+05 0.20156566D+05 0.12334534D+01  3  4  5  4  5  1       -1 0.686691858545D-03 0.100000000000D+01
  </mgrwgt>
  </event>
  <event>
  5     66 0.44820762E-03 0.27196637E+02 0.75467711E-02 0.12174169E+00
       -1 -1    0    0    0  501 0.00000000E+00 0.00000000E+00 0.28369128E+03 0.28369146E+03 0.32000000E+00 0.0000E+00 0.9000E+01
        1 -1    0    0  502    0 0.00000000E+00 0.00000000E+00 -.14648827E+03 0.14648862E+03 0.32000000E+00 0.0000E+00 0.9000E+01
       25  1    1    2    0    0 0.23356192E+02 0.50721059E+02 0.29405873E+02 0.14002801E+03 0.12500000E+03 0.0000E+00 0.9000E+01
       23  1    1    2    0    0 0.35558160E+01 -.46799865E+02 0.18322086E+03 0.20997145E+03 0.91188000E+02 0.0000E+00 0.9000E+01
       21  1    1    2  502  501 -.26912008E+02 -.39211939E+01 -.75423730E+02 0.80180631E+02 0.75000000E+00 0.0000E+00 0.9000E+01
#aMCatNLO 1  0  0  5  1 0.19975687D+02 0.00000000D+00  -5  6  0 0.00000000D+00 0.00000000D+00 0.00000000D+00 0.00000000D+00 0.00000000D+00
  <mgrwgt>
 0.6975082873D-01   15    2    0
 0.203856713830570D+03 0.000000000000000D+00 0.000000000000000D+00 0.203856713830570D+03
 0.203856713830570D+03 -.000000000000000D+00 -.000000000000000D+00 -.203856713830570D+03
 0.137848452736676D+03 0.233564033487917D+02 0.507210900501423D+02 -.160948864124412D+02
 0.159885296208875D+03 0.355606137924005D+01 -.467998295270644D+02 0.122658823504485D+03
 0.109979678715590D+03 -.269124647280318D+02 -.392126052307793D+01 -.106563937092044D+03
 0.000000000000000D+00 -.000000000000000D+00 0.000000000000000D+00 0.000000000000000D+00
 0.203856713830570D+03 0.000000000000000D+00 0.000000000000000D+00 0.203856713830570D+03
 0.203856713830570D+03 -.000000000000000D+00 -.000000000000000D+00 -.203856713830570D+03
 0.138024551637539D+03 0.227218841136395D+02 0.506286379000668D+02 -.186073604107079D+02
 0.157694167266983D+03 0.282561557602765D+01 -.469062585859161D+02 0.119766513884787D+03
 0.648257264039402D+02 0.427617052552317D+01 -.217522987928709D+01 -.646479508136755D+02
 0.471689823526784D+02 -.298236702151904D+02 -.154714943486368D+01 -.365112026604034D+02
0.211364030832D-03 0.000000000000D+00 0.000000000000D+00 0.214618547646D-04 0.000000000000D+00  6 -1 1 25 23 21 21 2 0.43644853D-01 0.22536698D-01 0.17776909D+05 0.17776909D+05 0.17776909D+05 0.12394999D+01  1  2  2  3  6  5       21 0.369513137121D-01 0.100000000000D+01
0.244609347099D-04 0.111539863455D-04 -.811693531823D-06 0.214618547646D-04 0.000000000000D+00  6 -1 1 25 23 21 21 4 0.43644853D-01 0.22536698D-01 0.17776909D+05 0.17776909D+05 0.17776909D+05 0.12394999D+01  1  2  3  3  6  5       21 0.656999225686D-02 0.100000000000D+01
0.736616045614D-05 0.000000000000D+00 0.000000000000D+00 0.214618547646D-04 0.000000000000D+00  6 -1 1 25 23 21 21 4 0.43644853D-01 0.22536698D-01 0.17776909D+05 0.17776909D+05 0.17776909D+05 0.12394999D+01  1  2 15  3  6  5       21 0.197848601182D-02 0.100000000000D+01
0.206290250077D-03 0.000000000000D+00 0.000000000000D+00 0.213709301356D-04 0.000000000000D+00  6 -1 1 25 23 21 21 4 0.43644853D-01 0.22536698D-01 0.18770334D+05 0.18770334D+05 0.18770334D+05 0.12368715D+01  1  2 12  3  6  5       21 0.549738772518D-01 0.100000000000D+01
-.305361809881D-03 0.000000000000D+00 0.000000000000D+00 0.214618547646D-04 0.000000000000D+00  6 -1 1 25 23 21 21 4 0.43644853D-01 0.22536698D-01 0.17776909D+05 0.17776909D+05 0.17776909D+05 0.12394999D+01  1  2  4  3  6  5       21 -.820175005680D-01 0.100000000000D+01
-.403193114223D-03 0.000000000000D+00 0.000000000000D+00 0.214618547646D-04 0.000000000000D+00  6 -1 1 25 23 21 21 4 0.43644853D-01 0.22536698D-01 0.17776909D+05 0.17776909D+05 0.17776909D+05 0.12394999D+01  1  2  5  3  6  5       21 -.108294129798D+00 0.100000000000D+01
0.584630135418D-03 0.000000000000D+00 -.000000000000D+00 0.214618547646D-04 0.000000000000D+00  6 -1 1 25 23 21 21 4 0.43644853D-01 0.22536698D-01 0.17776909D+05 0.17776909D+05 0.17776909D+05 0.12394999D+01  1  2  6  3  6  5       21 0.157026520383D+00 0.100000000000D+01
0.570656909579D-05 0.000000000000D+00 0.000000000000D+00 0.213709301356D-04 0.000000000000D+00  6 -1 1 25 23 1 -1 4 0.43644853D-01 0.22536698D-01 0.18770334D+05 0.18770334D+05 0.18770334D+05 0.12368715D+01  1  2 12  6  6  5       21 0.152073221533D-02 0.100000000000D+01
-.327696806166D-05 0.000000000000D+00 0.000000000000D+00 0.214618547646D-04 0.000000000000D+00  6 -1 1 25 23 1 -1 4 0.43644853D-01 0.22536698D-01 0.17776909D+05 0.17776909D+05 0.17776909D+05 0.12394999D+01  1  2  5  6  6  5       21 -.880164844329D-03 0.100000000000D+01
0.570656909579D-05 0.000000000000D+00 0.000000000000D+00 0.213709301356D-04 0.000000000000D+00  6 -1 1 25 23 2 -2 4 0.43644853D-01 0.22536698D-01 0.18770334D+05 0.18770334D+05 0.18770334D+05 0.12368715D+01  1  2 12  7  6  5       21 0.152073221533D-02 0.100000000000D+01
0.570656909579D-05 0.000000000000D+00 0.000000000000D+00 0.213709301356D-04 0.000000000000D+00  6 -1 1 25 23 4 -4 4 0.43644853D-01 0.22536698D-01 0.18770334D+05 0.18770334D+05 0.18770334D+05 0.12368715D+01  1  2 12  7  6  5       21 0.152073221533D-02 0.100000000000D+01
-.327696806166D-05 0.000000000000D+00 0.000000000000D+00 0.214618547646D-04 0.000000000000D+00  6 -1 1 25 23 2 -2 4 0.43644853D-01 0.22536698D-01 0.17776909D+05 0.17776909D+05 0.17776909D+05 0.12394999D+01  1  2  5  7  6  5       21 -.880164844329D-03 0.100000000000D+01
-.327696806166D-05 0.000000000000D+00 0.000000000000D+00 0.214618547646D-04 0.000000000000D+00  6 -1 1 25 23 4 -4 4 0.43644853D-01 0.22536698D-01 0.17776909D+05 0.17776909D+05 0.17776909D+05 0.12394999D+01  1  2  5  7  6  5       21 -.880164844329D-03 0.100000000000D+01
0.570656909579D-05 0.000000000000D+00 0.000000000000D+00 0.213709301356D-04 0.000000000000D+00  6 -1 1 25 23 3 -3 4 0.43644853D-01 0.22536698D-01 0.18770334D+05 0.18770334D+05 0.18770334D+05 0.12368715D+01  1  2 12  8  6  5       21 0.152073221533D-02 0.100000000000D+01
-.327696806166D-05 0.000000000000D+00 0.000000000000D+00 0.214618547646D-04 0.000000000000D+00  6 -1 1 25 23 3 -3 4 0.43644853D-01 0.22536698D-01 0.17776909D+05 0.17776909D+05 0.17776909D+05 0.12394999D+01  1  2  5  8  6  5       21 -.880164844329D-03 0.100000000000D+01
  </mgrwgt>
  </event>
  <event>
  6     66 -.44820762E-03 0.17914736E+03 0.75467711E-02 0.10691397E+00
       -1 -1    0    0    0  503 0.00000000E+00 0.00000000E+00 0.10137272E+03 0.10137323E+03 0.32000000E+00 0.0000E+00 0.9000E+01
        1 -1    0    0  502    0 0.00000000E+00 0.00000000E+00 -.33374043E+04 0.33374043E+04 0.32000000E+00 0.0000E+00 0.9000E+01
       25  1    1    2    0    0 -.11217145E+03 -.72939817E+02 -.16997017E+03 0.24983496E+03 0.12500000E+03 0.0000E+00 0.9000E+01
       23  1    1    2    0    0 0.85262207E+02 0.24185136E+03 -.45547787E+03 0.53060066E+03 0.91188000E+02 0.0000E+00 0.9000E+01
       21  1    1    2  502  501 0.42607748E+02 -.18588763E+03 -.26244501E+04 0.26313701E+04 0.75000000E+00 0.0000E+00 0.9000E+01
       21  1    1    2  501  503 -.15698501E+02 0.16976078E+02 0.13866622E+02 0.26971761E+02 0.75000000E+00 0.0000E+00 0.9000E+01
#aMCatNLO 2  0  0  1  5 0.23122071D+02 0.00000000D+00  -5  6  0 0.00000000D+00 0.00000000D+00 0.00000000D+00 0.00000000D+00 0.00000000D+00
  <mgrwgt>
 -.5088209903D-02    2    2    0
 0.519144903709493D+03 0.000000000000000D+00 0.000000000000000D+00 0.519144903709493D+03
 0.519144903709493D+03 0.000000000000000D+00 0.000000000000000D+00 -.519144903709493D+03
 0.289442740244360D+03 -.116542830086746D+03 -.682126292403483D+02 0.223420916316388D+03
 0.320543520267039D+03 0.804370520546200D+02 0.247069266599777D+03 0.164071798916805D+03
 0.428303546907587D+03 0.361057780321256D+02 -.178856637359428D+03 -.387492715233193D+03
 0.000000000000000D+00 -.000000000000000D+00 0.000000000000000D+00 0.000000000000000D+00
 0.650250062525197D+03 0.000000000000000D+00 0.000000000000000D+00 0.650250062525197D+03
 0.520294086380668D+03 0.000000000000000D+00 0.000000000000000D+00 -.520294086380668D+03
 0.288867703341844D+03 -.112171467781202D+03 -.729397422681729D+02 0.223420916316388D+03
 0.317799575282574D+03 0.852621922139184D+02 0.241851446315428D+03 0.164071798916805D+03
 0.431879953987379D+03 0.426077766962776D+02 -.185887782445077D+03 -.387492715233193D+03
 0.131996916294068D+03 -.156985011289938D+02 0.169760783978215D+02 0.129955976144528D+03
-.286881075570D-01 0.000000000000D+00 0.000000000000D+00 0.833626710770D-06 0.000000000000D+00  6 -1 1 25 23 21 21 4 0.15611430D-01 0.51231174D+00 0.11192603D+06 0.11192603D+06 0.11192603D+06 0.11591033D+01  1  2 13  1  6  1       -1 -.641059432930D-01 0.100000000000D+01
0.267012509825D-01 0.000000000000D+00 0.000000000000D+00 0.838371788230D-06 0.537912934304D-08  6 -1 1 25 23 21 21 4 0.15595811D-01 0.51344580D+00 0.11192603D+06 0.11192603D+06 0.11192603D+06 0.11591033D+01  1  2  1  1  6  1       -1 0.590177333901D-01 0.100000000000D+01
  </mgrwgt>
  </event>
  <event>
  5     66 0.44820762E-03 0.51919084E+02 0.75467711E-02 0.12069228E+00
       -1 -1    0    0    0  501 0.00000000E+00 0.00000000E+00 0.10200324E+03 0.10200374E+03 0.32000000E+00 0.0000E+00 0.9000E+01
        1 -1    0    0  502    0 -.00000000E+00 -.00000000E+00 -.59148308E+03 0.59148317E+03 0.32000000E+00 0.0000E+00 0.9000E+01
       25  1    1    2    0    0 0.17500330E+02 0.66346065E+02 -.71734451E+02 0.15962109E+03 0.12500000E+03 0.0000E+00 0.9000E+01
       23  1    1    2    0    0 0.12837923E+02 -.24213490E+02 0.16405947E+02 0.96620452E+02 0.91188000E+02 0.0000E+00 0.9000E+01
       21  1    1    2  502  501 -.30338253E+02 -.42132575E+02 -.43415133E+03 0.43724536E+03 0.75000000E+00 0.0000E+00 0.9000E+01
#aMCatNLO 1  0  0  5  2 0.22695010D+01 0.00000000D+00  -5  6  0 0.00000000D+00 0.00000000D+00 0.00000000D+00 0.00000000D+00 0.00000000D+00
  <mgrwgt>
 0.2497776801D+00   25    2    0
 0.245628570672914D+03 0.000000000000000D+00 0.000000000000000D+00 0.245628570672914D+03
 0.245628570672914D+03 -.000000000000000D+00 -.000000000000000D+00 -.245628570672914D+03
 0.153855641338360D+03 0.175004087643723D+02 0.663461737236387D+02 0.577795750845453D+02
 0.152741938938171D+03 0.128380005104144D+02 -.242133816470129D+02 0.119430927563603D+03
 0.184659561069298D+03 -.303384092747868D+02 -.421327920766259D+02 -.177210502648148D+03
 0.000000000000000D+00 0.000000000000000D+00 -.000000000000000D+00 0.000000000000000D+00
 0.245628570672914D+03 0.000000000000000D+00 0.000000000000000D+00 0.245628570672914D+03
 0.245628570672914D+03 -.000000000000000D+00 -.000000000000000D+00 -.245628570672914D+03
 0.153847264291139D+03 0.174975260366695D+02 0.663421703045466D+02 0.577627367058226D+02
 0.152729258248574D+03 0.128351386905667D+02 -.242173560300965D+02 0.119414211310317D+03
 0.863546183443271D+02 -.135520137258293D+02 -.176020206833165D+02 -.834483786615021D+02
 0.983260004617881D+02 -.167806510014069D+02 -.245227935911336D+02 -.937285693546381D+02
0.136547584142D-04 0.000000000000D+00 0.000000000000D+00 0.125115417229D-04 0.000000000000D+00  6 -1 1 25 23 21 21 2 0.15692851D-01 0.90997442D-01 0.20985954D+05 0.20985954D+05 0.20985954D+05 0.12315319D+01  1  2  2  3  6  5       21 0.221738239258D-02 0.100000000000D+01
0.591272790010D-06 0.720581398371D-06 -.524378676908D-07 0.125115417229D-04 0.000000000000D+00  6 -1 1 25 23 21 21 4 0.15692851D-01 0.90997442D-01 0.20985954D+05 0.20985954D+05 0.20985954D+05 0.12315319D+01  1  2  3  3  6  5       21 0.145624951633D-03 0.100000000000D+01
0.699783267734D-06 0.000000000000D+00 0.000000000000D+00 0.125115417229D-04 0.000000000000D+00  6 -1 1 25 23 21 21 4 0.15692851D-01 0.90997442D-01 0.20985954D+05 0.20985954D+05 0.20985954D+05 0.12315319D+01  1  2 15  3  6  5       21 0.172350066228D-03 0.100000000000D+01
0.500994158415D-05 0.000000000000D+00 0.000000000000D+00 0.125114848980D-04 0.000000000000D+00  6 -1 1 25 23 21 21 4 0.15692851D-01 0.90997442D-01 0.20987188D+05 0.20987188D+05 0.20987188D+05 0.12315291D+01  1  2 12  3  6  5       21 0.123389081619D-02 0.100000000000D+01
0.498175288897D-05 0.000000000000D+00 0.000000000000D+00 0.125114848980D-04 0.000000000000D+00  6 -1 1 25 23 21 21 4 0.15692851D-01 0.90997442D-01 0.20987188D+05 0.20987188D+05 0.20987188D+05 0.12315291D+01  1  2 12  3  6  5       21 0.122694826577D-02 0.100000000000D+01
-.583246857561D-02 0.000000000000D+00 0.000000000000D+00 0.125115417229D-04 0.000000000000D+00  6 -1 1 25 23 21 21 4 0.15692851D-01 0.90997442D-01 0.20985954D+05 0.20985954D+05 0.20985954D+05 0.12315319D+01  1  2  4  3  6  5       21 -.143648239623D+01 0.100000000000D+01
-.365956540737D-02 0.000000000000D+00 0.000000000000D+00 0.125115417229D-04 0.000000000000D+00  6 -1 1 25 23 21 21 4 0.15692851D-01 0.90997442D-01 0.20985954D+05 0.20985954D+05 0.20985954D+05 0.12315319D+01  1  2  5  3  6  5       21 -.901316692479D+00 0.100000000000D+01
0.670884310098D-02 0.000000000000D+00 -.000000000000D+00 0.125115417229D-04 0.000000000000D+00  6 -1 1 25 23 21 21 4 0.15692851D-01 0.90997442D-01 0.20985954D+05 0.20985954D+05 0.20985954D+05 0.12315319D+01  1  2  6  3  6  5       21 0.165232523566D+01 0.100000000000D+01
0.377246903363D-02 0.000000000000D+00 0.000000000000D+00 0.125115417229D-04 0.134546402780D-04  6 -1 1 25 23 21 21 4 0.15692851D-01 0.90997442D-01 0.20987188D+05 0.20987188D+05 0.20987188D+05 0.12315291D+01  1  2 11  3  6  5       21 0.929115602805D+00 0.100000000000D+01
0.128547722297D-06 0.000000000000D+00 0.000000000000D+00 0.125114848980D-04 0.000000000000D+00  6 -1 1 25 23 1 -1 4 0.15692851D-01 0.90997442D-01 0.20987188D+05 0.20987188D+05 0.20987188D+05 0.12315291D+01  1  2 12  6  6  5       21 0.316598210420D-04 0.100000000000D+01
0.127820774808D-06 0.000000000000D+00 0.000000000000D+00 0.125114848980D-04 0.000000000000D+00  6 -1 1 25 23 1 -1 4 0.15692851D-01 0.90997442D-01 0.20987188D+05 0.20987188D+05 0.20987188D+05 0.12315291D+01  1  2 12  6  6  5       21 0.314807822617D-04 0.100000000000D+01
-.932370620518D-04 0.000000000000D+00 0.000000000000D+00 0.125115417229D-04 0.000000000000D+00  6 -1 1 25 23 1 -1 4 0.15692851D-01 0.90997442D-01 0.20985954D+05 0.20985954D+05 0.20985954D+05 0.12315319D+01  1  2  5  6  6  5       21 -.229634153323D-01 0.100000000000D+01
0.952149358128D-04 0.000000000000D+00 0.000000000000D+00 0.125115417229D-04 0.294600036908D-06  6 -1 1 25 23 1 -1 4 0.15692851D-01 0.90997442D-01 0.20987188D+05 0.20987188D+05 0.20987188D+05 0.12315291D+01  1  2 11  6  6  5       21 0.234503402666D-01 0.100000000000D+01
0.128547722297D-06 0.000000000000D+00 0.000000000000D+00 0.125114848980D-04 0.000000000000D+00  6 -1 1 25 23 2 -2 4 0.15692851D-01 0.90997442D-01 0.20987188D+05 0.20987188D+05 0.20987188D+05 0.12315291D+01  1  2 12  7  6  5       21 0.316598210420D-04 0.100000000000D+01
0.128547722297D-06 0.000000000000D+00 0.000000000000D+00 0.125114848980D-04 0.000000000000D+00  6 -1 1 25 23 4 -4 4 0.15692851D-01 0.90997442D-01 0.20987188D+05 0.20987188D+05 0.20987188D+05 0.12315291D+01  1  2 12  7  6  5       21 0.316598210420D-04 0.100000000000D+01
0.127820774808D-06 0.000000000000D+00 0.000000000000D+00 0.125114848980D-04 0.000000000000D+00  6 -1 1 25 23 2 -2 4 0.15692851D-01 0.90997442D-01 0.20987188D+05 0.20987188D+05 0.20987188D+05 0.12315291D+01  1  2 12  7  6  5       21 0.314807822617D-04 0.100000000000D+01
0.127820774808D-06 0.000000000000D+00 0.000000000000D+00 0.125114848980D-04 0.000000000000D+00  6 -1 1 25 23 4 -4 4 0.15692851D-01 0.90997442D-01 0.20987188D+05 0.20987188D+05 0.20987188D+05 0.12315291D+01  1  2 12  7  6  5       21 0.314807822617D-04 0.100000000000D+01
-.932370620518D-04 0.000000000000D+00 0.000000000000D+00 0.125115417229D-04 0.000000000000D+00  6 -1 1 25 23 2 -2 4 0.15692851D-01 0.90997442D-01 0.20985954D+05 0.20985954D+05 0.20985954D+05 0.12315319D+01  1  2  5  7  6  5       21 -.229634153323D-01 0.100000000000D+01
-.932370620518D-04 0.000000000000D+00 0.000000000000D+00 0.125115417229D-04 0.000000000000D+00  6 -1 1 25 23 4 -4 4 0.15692851D-01 0.90997442D-01 0.20985954D+05 0.20985954D+05 0.20985954D+05 0.12315319D+01  1  2  5  7  6  5       21 -.229634153323D-01 0.100000000000D+01
0.938003614208D-04 0.000000000000D+00 0.000000000000D+00 0.125115417229D-04 0.289716923596D-06  6 -1 1 25 23 2 -2 4 0.15692851D-01 0.90997442D-01 0.20987188D+05 0.20987188D+05 0.20987188D+05 0.12315291D+01  1  2 11  7  6  5       21 0.231019469127D-01 0.100000000000D+01
0.938003614208D-04 0.000000000000D+00 0.000000000000D+00 0.125115417229D-04 0.289716923596D-06  6 -1 1 25 23 4 -4 4 0.15692851D-01 0.90997442D-01 0.20987188D+05 0.20987188D+05 0.20987188D+05 0.12315291D+01  1  2 11  7  6  5       21 0.231019469127D-01 0.100000000000D+01
0.128547722297D-06 0.000000000000D+00 0.000000000000D+00 0.125114848980D-04 0.000000000000D+00  6 -1 1 25 23 3 -3 4 0.15692851D-01 0.90997442D-01 0.20987188D+05 0.20987188D+05 0.20987188D+05 0.12315291D+01  1  2 12  8  6  5       21 0.316598210420D-04 0.100000000000D+01
0.127820774808D-06 0.000000000000D+00 0.000000000000D+00 0.125114848980D-04 0.000000000000D+00  6 -1 1 25 23 3 -3 4 0.15692851D-01 0.90997442D-01 0.20987188D+05 0.20987188D+05 0.20987188D+05 0.12315291D+01  1  2 12  8  6  5       21 0.314807822617D-04 0.100000000000D+01
-.932370620518D-04 0.000000000000D+00 0.000000000000D+00 0.125115417229D-04 0.000000000000D+00  6 -1 1 25 23 3 -3 4 0.15692851D-01 0.90997442D-01 0.20985954D+05 0.20985954D+05 0.20985954D+05 0.12315319D+01  1  2  5  8  6  5       21 -.229634153323D-01 0.100000000000D+01
0.937380434552D-04 0.000000000000D+00 0.000000000000D+00 0.125115417229D-04 0.289524444921D-06  6 -1 1 25 23 3 -3 4 0.15692851D-01 0.90997442D-01 0.20987188D+05 0.20987188D+05 0.20987188D+05 0.12315291D+01  1  2 11  8  6  5       21 0.230865987167D-01 0.100000000000D+01
  </mgrwgt>
  </event>
  <event>
  6     66 -.44820762E-03 0.15084986E+02 0.75467711E-02 0.12152879E+00
       -1 -1    0    0    0  503 0.00000000E+00 0.00000000E+00 0.21979525E+03 0.21979548E+03 0.32000000E+00 0.0000E+00 0.9000E+01
        1 -1    0    0  502    0 0.00000000E+00 0.00000000E+00 -.28364875E+03 0.28364893E+03 0.32000000E+00 0.0000E+00 0.9000E+01
       25  1    1    2    0    0 0.51462231E+02 0.19852206E+02 0.21686813E+02 0.13833940E+03 0.12500000E+03 0.0000E+00 0.9000E+01
       23  1    1    2    0    0 -.26955873E+02 -.42468164E+02 0.99866948E+02 0.14428729E+03 0.91188000E+02 0.0000E+00 0.9000E+01
       21  1    1    2  502  501 -.10704487E+02 0.19413461E+02 -.19955324E+03 0.20078228E+03 0.75000000E+00 0.0000E+00 0.9000E+01
       21  1    1    2  501  503 -.13801870E+02 0.32024964E+01 0.14145977E+02 0.20035438E+02 0.75000000E+00 0.0000E+00 0.9000E+01
#aMCatNLO 2  0  0  1  5 0.14168543D+02 0.00000000D+00  -5  6  0 0.00000000D+00 0.00000000D+00 0.00000000D+00 0.00000000D+00 0.00000000D+00
  <mgrwgt>
 -.8112434095D+00    3    2    0
 0.238432155049613D+03 0.000000000000000D+00 0.000000000000000D+00 0.238432155049613D+03
 0.238432155049613D+03 0.000000000000000D+00 0.000000000000000D+00 -.238432155049613D+03
 0.142429286895782D+03 0.473221590981801D+02 0.208127933453761D+02 0.445930785782961D+02
 0.163097935762691D+03 -.316671076282355D+02 -.413750547877189D+02 0.124783750712286D+03
 0.171337087440754D+03 -.156550514699446D+02 0.205622614423429D+02 -.169376829290582D+03
 0.000000000000000D+00 -.000000000000000D+00 0.000000000000000D+00 0.000000000000000D+00
 0.258642628906260D+03 0.000000000000000D+00 0.000000000000000D+00 0.258642628906260D+03
 0.241033583732910D+03 0.000000000000000D+00 0.000000000000000D+00 -.241033583732910D+03
 0.143722011702158D+03 0.514622800500358D+02 0.198521465508611D+02 0.445930785782961D+02
 0.162531234927613D+03 -.269558092391811D+02 -.424682338875759D+02 0.124783750712286D+03
 0.170821504171110D+03 -.107046005688635D+02 0.194135909457972D+02 -.169376829290582D+03
 0.226014618382897D+02 -.138018702419911D+02 0.320249639091755D+01 0.176090451733496D+02
-.526624221463D-02 0.000000000000D+00 0.000000000000D+00 0.431328503877D-04 0.000000000000D+00  6 -1 1 25 23 21 21 4 0.34044849D-01 0.43166216D-01 0.19197225D+05 0.19197225D+05 0.19197225D+05 0.12357896D+01  1  2 13  1  6  1       -1 -.960218015104D+00 0.100000000000D+01
-.977716560131D-04 0.000000000000D+00 0.000000000000D+00 0.434056221982D-04 0.000000000000D+00  6 -1 1 25 23 21 21 4 0.31171590D-01 0.43166216D-01 0.17707035D+05 0.17707035D+05 0.17707035D+05 0.12396910D+01  1  2  8  1  6  1       -1 -.209603908374D-01 0.100000000000D+01
0.933659156513D-03 0.000000000000D+00 0.000000000000D+00 0.434056221982D-04 0.114917522617D-05  6 -1 1 25 23 21 21 4 0.33813820D-01 0.43637184D-01 0.19197225D+05 0.19197225D+05 0.19197225D+05 0.12357896D+01  1  2  1  1  6  1       -1 0.169934996432D+00 0.100000000000D+01
  </mgrwgt>
  </event>
  <event>
  5     66 -.44820762E-03 0.21478095E+02 0.75467711E-02 0.12253582E+00
       -1 -1    0    0    0  501 0.00000000E+00 0.00000000E+00 0.13581623E+03 0.13581660E+03 0.32000000E+00 0.0000E+00 0.9000E+01
        1 -1    0    0  502    0 -.00000000E+00 -.00000000E+00 -.17865512E+03 0.17865541E+03 0.32000000E+00 0.0000E+00 0.9000E+01
       25  1    1    2    0    0 -.49111922E+02 -.17923381E+02 -.49664463E+02 0.14430796E+03 0.12500000E+03 0.0000E+00 0.9000E+01
       23  1    1    2    0    0 0.39121896E+02 0.36933933E+02 0.53613591E+02 0.11867732E+03 0.91188000E+02 0.0000E+00 0.9000E+01
       21  1    1    2  502  501 0.99900252E+01 -.19010552E+02 -.46788024E+02 0.51486730E+02 0.75000000E+00 0.0000E+00 0.9000E+01
#aMCatNLO 1  0  0  5  2 0.35749842D+01 0.00000000D+00  -5  6  0 0.00000000D+00 0.00000000D+00 0.00000000D+00 0.00000000D+00 0.00000000D+00
  <mgrwgt>
 -.3354132539D+00   20    2    0
 0.155770243608889D+03 0.000000000000000D+00 0.000000000000000D+00 0.155770243608889D+03
 0.155770243608889D+03 -.000000000000000D+00 -.000000000000000D+00 -.155770243608889D+03
 0.138836205418650D+03 -.491125255182057D+02 -.179222316918116D+02 -.302860592262859D+02
 0.127167641471576D+03 0.391213431511570D+02 0.369349858653987D+02 0.704392292874891D+02
 0.455366403275515D+02 0.999118236704872D+01 -.190127541735872D+02 -.401531700612033D+02
 0.000000000000000D+00 0.000000000000000D+00 -.000000000000000D+00 0.000000000000000D+00
 0.155770243608889D+03 0.000000000000000D+00 0.000000000000000D+00 0.155770243608889D+03
 0.155770243608889D+03 -.000000000000000D+00 -.000000000000000D+00 -.155770243608889D+03
 0.138905718636467D+03 -.490228431803864D+02 -.180928929989552D+02 -.306464800483319D+02
 0.126965250639779D+03 0.392034021775674D+02 0.367788313644049D+02 0.701094454919915D+02
 0.366747812135227D+02 0.109333242129331D+02 -.131980308929508D+02 -.324239722930946D+02
 0.899473672800851D+01 -.111388321011405D+01 -.548790747249889D+01 -.703899315056508D+01
0.829817418799D-04 0.000000000000D+00 0.000000000000D+00 0.320599958589D-04 0.000000000000D+00  6 -1 1 25 23 21 21 2 0.20894855D-01 0.27485454D-01 0.17272219D+05 0.17272219D+05 0.17272219D+05 0.12408991D+01  1  2  2  3  6  5       21 0.391873363545D-01 0.100000000000D+01
0.113250836232D-04 0.437906682707D-05 -.318671738413D-06 0.320599958589D-04 0.000000000000D+00  6 -1 1 25 23 21 21 4 0.20894855D-01 0.27485454D-01 0.17272219D+05 0.17272219D+05 0.17272219D+05 0.12408991D+01  1  2  3  3  6  5       21 0.823526424673D-02 0.100000000000D+01
0.403533333367D-05 0.000000000000D+00 0.000000000000D+00 0.320599958589D-04 0.000000000000D+00  6 -1 1 25 23 21 21 4 0.20894855D-01 0.27485454D-01 0.17272219D+05 0.17272219D+05 0.17272219D+05 0.12408991D+01  1  2 15  3  6  5       21 0.293437447636D-02 0.100000000000D+01
0.152049386581D-04 0.000000000000D+00 0.000000000000D+00 0.320366036122D-04 0.000000000000D+00  6 -1 1 25 23 21 21 4 0.20894855D-01 0.27485454D-01 0.17433765D+05 0.17433765D+05 0.17433765D+05 0.12404463D+01  1  2 12  3  6  5       21 0.110430564883D-01 0.100000000000D+01
0.134122710390D-04 0.000000000000D+00 0.000000000000D+00 0.320366036122D-04 0.000000000000D+00  6 -1 1 25 23 21 21 4 0.20894855D-01 0.27485454D-01 0.17433765D+05 0.17433765D+05 0.17433765D+05 0.12404463D+01  1  2 12  3  6  5       21 0.974107624181D-02 0.100000000000D+01
-.810587940130D-03 0.000000000000D+00 0.000000000000D+00 0.320599958589D-04 0.000000000000D+00  6 -1 1 25 23 21 21 4 0.20894855D-01 0.27485454D-01 0.17272219D+05 0.17272219D+05 0.17272219D+05 0.12408991D+01  1  2  4  3  6  5       21 -.589435460638D+00 0.100000000000D+01
-.862609814288D-03 0.000000000000D+00 0.000000000000D+00 0.320599958589D-04 0.000000000000D+00  6 -1 1 25 23 21 21 4 0.20894855D-01 0.27485454D-01 0.17272219D+05 0.17272219D+05 0.17272219D+05 0.12408991D+01  1  2  5  3  6  5       21 -.627264221516D+00 0.100000000000D+01
0.118013899418D-02 0.000000000000D+00 -.000000000000D+00 0.320599958589D-04 0.000000000000D+00  6 -1 1 25 23 21 21 4 0.20894855D-01 0.27485454D-01 0.17272219D+05 0.17272219D+05 0.17272219D+05 0.12408991D+01  1  2  6  3  6  5       21 0.858162004652D+00 0.100000000000D+01
0.307546191788D-06 0.000000000000D+00 0.000000000000D+00 0.320366036122D-04 0.000000000000D+00  6 -1 1 25 23 1 -1 4 0.20894855D-01 0.27485454D-01 0.17433765D+05 0.17433765D+05 0.17433765D+05 0.12404463D+01  1  2 12  6  6  5       21 0.223364924058D-03 0.100000000000D+01
0.285368395685D-06 0.000000000000D+00 0.000000000000D+00 0.320366036122D-04 0.000000000000D+00  6 -1 1 25 23 1 -1 4 0.20894855D-01 0.27485454D-01 0.17433765D+05 0.17433765D+05 0.17433765D+05 0.12404463D+01  1  2 12  6  6  5       21 0.207257614410D-03 0.100000000000D+01
-.171002499700D-04 0.000000000000D+00 0.000000000000D+00 0.320599958589D-04 0.000000000000D+00  6 -1 1 25 23 1 -1 4 0.20894855D-01 0.27485454D-01 0.17272219D+05 0.17272219D+05 0.17272219D+05 0.12408991D+01  1  2  5  6  6  5       21 -.124347935851D-01 0.100000000000D+01
0.307546191788D-06 0.000000000000D+00 0.000000000000D+00 0.320366036122D-04 0.000000000000D+00  6 -1 1 25 23 2 -2 4 0.20894855D-01 0.27485454D-01 0.17433765D+05 0.17433765D+05 0.17433765D+05 0.12404463D+01  1  2 12  7  6  5       21 0.223364924058D-03 0.100000000000D+01
0.307546191788D-06 0.000000000000D+00 0.000000000000D+00 0.320366036122D-04 0.000000000000D+00  6 -1 1 25 23 4 -4 4 0.20894855D-01 0.27485454D-01 0.17433765D+05 0.17433765D+05 0.17433765D+05 0.12404463D+01  1  2 12  7  6  5       21 0.223364924058D-03 0.100000000000D+01
0.285368395685D-06 0.000000000000D+00 0.000000000000D+00 0.320366036122D-04 0.000000000000D+00  6 -1 1 25 23 2 -2 4 0.20894855D-01 0.27485454D-01 0.17433765D+05 0.17433765D+05 0.17433765D+05 0.12404463D+01  1  2 12  7  6  5       21 0.207257614410D-03 0.100000000000D+01
0.285368395685D-06 0.000000000000D+00 0.000000000000D+00 0.320366036122D-04 0.000000000000D+00  6 -1 1 25 23 4 -4 4 0.20894855D-01 0.27485454D-01 0.17433765D+05 0.17433765D+05 0.17433765D+05 0.12404463D+01  1  2 12  7  6  5       21 0.207257614410D-03 0.100000000000D+01
-.171002499700D-04 0.000000000000D+00 0.000000000000D+00 0.320599958589D-04 0.000000000000D+00  6 -1 1 25 23 2 -2 4 0.20894855D-01 0.27485454D-01 0.17272219D+05 0.17272219D+05 0.17272219D+05 0.12408991D+01  1  2  5  7  6  5       21 -.124347935851D-01 0.100000000000D+01
-.171002499700D-04 0.000000000000D+00 0.000000000000D+00 0.320599958589D-04 0.000000000000D+00  6 -1 1 25 23 4 -4 4 0.20894855D-01 0.27485454D-01 0.17272219D+05 0.17272219D+05 0.17272219D+05 0.12408991D+01  1  2  5  7  6  5       21 -.124347935851D-01 0.100000000000D+01
0.307546191788D-06 0.000000000000D+00 0.000000000000D+00 0.320366036122D-04 0.000000000000D+00  6 -1 1 25 23 3 -3 4 0.20894855D-01 0.27485454D-01 0.17433765D+05 0.17433765D+05 0.17433765D+05 0.12404463D+01  1  2 12  8  6  5       21 0.223364924058D-03 0.100000000000D+01
0.285368395685D-06 0.000000000000D+00 0.000000000000D+00 0.320366036122D-04 0.000000000000D+00  6 -1 1 25 23 3 -3 4 0.20894855D-01 0.27485454D-01 0.17433765D+05 0.17433765D+05 0.17433765D+05 0.12404463D+01  1  2 12  8  6  5       21 0.207257614410D-03 0.100000000000D+01
-.171002499700D-04 0.000000000000D+00 0.000000000000D+00 0.320599958589D-04 0.000000000000D+00  6 -1 1 25 23 3 -3 4 0.20894855D-01 0.27485454D-01 0.17272219D+05 0.17272219D+05 0.17272219D+05 0.12408991D+01  1  2  5  8  6  5       21 -.124347935851D-01 0.100000000000D+01
  </mgrwgt>
  </event>
  <event>
  5     66 0.44820762E-03 0.22765715E+02 0.75467711E-02 0.12049972E+00
       -1 -1    0    0    0  501 0.00000000E+00 0.00000000E+00 0.54637979E+02 0.54638916E+02 0.32000000E+00 0.0000E+00 0.9000E+01
        1 -1    0    0  502    0 -.00000000E+00 -.00000000E+00 -.82495833E+03 0.82495839E+03 0.32000000E+00 0.0000E+00 0.9000E+01
       25  1    1    2    0    0 0.79969488E+02 0.30032632E+02 -.73020194E+02 0.16808934E+03 0.12500000E+03 0.0000E+00 0.9000E+01
       23  1    1    2    0    0 -.61863720E+02 -.43823427E+02 -.59531265E+03 0.60700907E+03 0.91188000E+02 0.0000E+00 0.9000E+01
       21  1    1    2  502  501 -.18105768E+02 0.13790795E+02 -.10198750E+03 0.10449889E+03 0.75000000E+00 0.0000E+00 0.9000E+01
#aMCatNLO 1  0  0  5  1 0.13081842D+02 0.00000000D+00  -5  6  0 0.00000000D+00 0.00000000D+00 0.00000000D+00 0.00000000D+00 0.00000000D+00
  <mgrwgt>
 0.1695386260D+00   14    2    0
 0.212307549478156D+03 0.000000000000000D+00 0.000000000000000D+00 0.212307549478156D+03
 0.212307549478156D+03 -.000000000000000D+00 -.000000000000000D+00 -.212307549478156D+03
 0.215732396260669D+03 0.799721045537754D+02 0.300306383839788D+02 0.153681781769542D+03
 0.177433956315881D+03 -.618615675206858D+02 -.438250664524489D+02 -.131985103417878D+03
 0.314487463797627D+02 -.181105370330896D+02 0.137944280684700D+02 -.216966783516634D+02
 0.000000000000000D+00 0.000000000000000D+00 0.000000000000000D+00 0.000000000000000D+00
 0.212307549478156D+03 0.000000000000000D+00 0.000000000000000D+00 0.212307549478156D+03
 0.212307549478156D+03 -.000000000000000D+00 -.000000000000000D+00 -.212307549478156D+03
 0.209906428307495D+03 0.746551852166241D+02 0.340804278081237D+02 0.147312037544446D+03
 0.182265099589672D+03 -.663547921879600D+02 -.404026685216231D+02 -.137368049831311D+03
 0.130825990058251D+02 -.101728702595153D+02 -.975380690862712D-01 0.822542362163575D+01
 0.193609720533211D+02 0.187247723085116D+01 0.641977878258567D+01 -.181694113347705D+02
0.458969663250D-03 0.000000000000D+00 0.000000000000D+00 0.123366173750D-04 0.000000000000D+00  6 -1 1 25 23 21 21 2 0.84059198D-02 0.12691674D+00 0.21426156D+05 0.21426156D+05 0.21426156D+05 0.12305463D+01  1  2  2  3  6  5       21 0.120889624524D+00 0.100000000000D+01
0.748644135625D-04 0.242204945502D-04 -.176256435637D-05 0.123366173750D-04 0.000000000000D+00  6 -1 1 25 23 21 21 4 0.84059198D-02 0.12691674D+00 0.21426156D+05 0.21426156D+05 0.21426156D+05 0.12305463D+01  1  2  3  3  6  5       21 0.298590768787D-01 0.100000000000D+01
0.116007669809D-04 0.000000000000D+00 0.000000000000D+00 0.123366173750D-04 0.000000000000D+00  6 -1 1 25 23 21 21 4 0.84059198D-02 0.12691674D+00 0.21426156D+05 0.21426156D+05 0.21426156D+05 0.12305463D+01  1  2 15  3  6  5       21 0.462687379293D-02 0.100000000000D+01
0.935386476150D-04 0.000000000000D+00 0.000000000000D+00 0.123799131181D-04 0.000000000000D+00  6 -1 1 25 23 21 21 4 0.84059198D-02 0.12691674D+00 0.20475711D+05 0.20475711D+05 0.20475711D+05 0.12327037D+01  1  2 12  3  6  5       21 0.375564049863D-01 0.100000000000D+01
0.667552437564D-04 0.000000000000D+00 0.000000000000D+00 0.123799131181D-04 0.000000000000D+00  6 -1 1 25 23 21 21 4 0.84059198D-02 0.12691674D+00 0.20475711D+05 0.20475711D+05 0.20475711D+05 0.12327037D+01  1  2 12  3  6  5       21 0.268026856642D-01 0.100000000000D+01
-.160373718280D-03 0.000000000000D+00 0.000000000000D+00 0.123366173750D-04 0.000000000000D+00  6 -1 1 25 23 21 21 4 0.84059198D-02 0.12691674D+00 0.21426156D+05 0.21426156D+05 0.21426156D+05 0.12305463D+01  1  2  4  3  6  5       21 -.639637840675D-01 0.100000000000D+01
0.487936313563D-05 0.000000000000D+00 0.000000000000D+00 0.123799131181D-04 0.000000000000D+00  6 -1 1 25 23 1 -1 4 0.84059198D-02 0.12691674D+00 0.20475711D+05 0.20475711D+05 0.20475711D+05 0.12327037D+01  1  2 12  6  6  5       21 0.195909757805D-02 0.100000000000D+01
0.369318379562D-05 0.000000000000D+00 0.000000000000D+00 0.123799131181D-04 0.000000000000D+00  6 -1 1 25 23 1 -1 4 0.84059198D-02 0.12691674D+00 0.20475711D+05 0.20475711D+05 0.20475711D+05 0.12327037D+01  1  2 12  6  6  5       21 0.148283848285D-02 0.100000000000D+01
0.487936313563D-05 0.000000000000D+00 0.000000000000D+00 0.123799131181D-04 0.000000000000D+00  6 -1 1 25 23 2 -2 4 0.84059198D-02 0.12691674D+00 0.20475711D+05 0.20475711D+05 0.20475711D+05 0.12327037D+01  1  2 12  7  6  5       21 0.195909757805D-02 0.100000000000D+01
0.487936313563D-05 0.000000000000D+00 0.000000000000D+00 0.123799131181D-04 0.000000000000D+00  6 -1 1 25 23 4 -4 4 0.84059198D-02 0.12691674D+00 0.20475711D+05 0.20475711D+05 0.20475711D+05 0.12327037D+01  1  2 12  7  6  5       21 0.195909757805D-02 0.100000000000D+01
0.369318379562D-05 0.000000000000D+00 0.000000000000D+00 0.123799131181D-04 0.000000000000D+00  6 -1 1 25 23 2 -2 4 0.84059198D-02 0.12691674D+00 0.20475711D+05 0.20475711D+05 0.20475711D+05 0.12327037D+01  1  2 12  7  6  5       21 0.148283848285D-02 0.100000000000D+01
0.369318379562D-05 0.000000000000D+00 0.000000000000D+00 0.123799131181D-04 0.000000000000D+00  6 -1 1 25 23 4 -4 4 0.84059198D-02 0.12691674D+00 0.20475711D+05 0.20475711D+05 0.20475711D+05 0.12327037D+01  1  2 12  7  6  5       21 0.148283848285D-02 0.100000000000D+01
0.487936313563D-05 0.000000000000D+00 0.000000000000D+00 0.123799131181D-04 0.000000000000D+00  6 -1 1 25 23 3 -3 4 0.84059198D-02 0.12691674D+00 0.20475711D+05 0.20475711D+05 0.20475711D+05 0.12327037D+01  1  2 12  8  6  5       21 0.195909757805D-02 0.100000000000D+01
0.369318379562D-05 0.000000000000D+00 0.000000000000D+00 0.123799131181D-04 0.000000000000D+00  6 -1 1 25 23 3 -3 4 0.84059198D-02 0.12691674D+00 0.20475711D+05 0.20475711D+05 0.20475711D+05 0.12327037D+01  1  2 12  8  6  5       21 0.148283848285D-02 0.100000000000D+01
  </mgrwgt>
  </event>
  <event>
  6     66 -.44820762E-03 0.89169564E+02 0.75467711E-02 0.10276552E+00
       -3 -1    0    0    0  501 0.00000000E+00 0.00000000E+00 0.58822847E+02 0.58824972E+02 0.50000000E+00 0.0000E+00 0.9000E+01
        3 -1    0    0  502    0 -.00000000E+00 -.00000000E+00 -.39053131E+04 0.39053131E+04 0.50000000E+00 0.0000E+00 0.9000E+01
       25  1    1    2    0    0 -.32432320E+03 0.25227367E+03 -.19940360E+04 0.20397627E+04 0.12500000E+03 0.0000E+00 0.9000E+01
       23  1    1    2    0    0 0.29829029E+03 -.15073294E+03 -.91650923E+03 0.97979689E+03 0.91188000E+02 0.0000E+00 0.9000E+01
       21  1    1    2  502  503 0.46332295E+02 -.89894099E+02 -.66802408E+03 0.67563627E+03 0.75000000E+00 0.0000E+00 0.9000E+01
       21  1    1    2  503  501 -.20299387E+02 -.11646623E+02 -.26792094E+03 0.26894219E+03 0.75000000E+00 0.0000E+00 0.9000E+01
#aMCatNLO 2  0  0  5  1 0.29732423D+02 0.00000000D+00  -5  6  0 0.00000000D+00 0.00000000D+00 0.00000000D+00 0.00000000D+00 0.00000000D+00
  <mgrwgt>
 -.2379769037D-03    4    2    0
 0.479297307175208D+03 0.000000000000000D+00 0.000000000000000D+00 0.479297307175208D+03
 0.479297307175208D+03 -.000000000000000D+00 -.000000000000000D+00 -.479297307175208D+03
 0.438226331672273D+03 -.326005264424492D+03 0.258834522668324D+03 -.560586765230370D+02
 0.372534696321493D+03 0.296849941066463D+03 -.145114896125058D+03 0.145906230267243D+03
 0.147833586356650D+03 0.291553233580293D+02 -.113719626543266D+03 -.898475537442063D+02
 0.000000000000000D+00 0.000000000000000D+00 0.000000000000000D+00 -.000000000000000D+00
 0.479297307175208D+03 0.000000000000000D+00 0.000000000000000D+00 0.479297307175208D+03
 0.479297307175208D+03 -.000000000000000D+00 -.000000000000000D+00 -.479297307175208D+03
 0.433798904713097D+03 -.324313521462766D+03 0.252235920572504D+03 -.612720972355583D+02
 0.374210300671301D+03 0.298298638351994D+03 -.150765504498074D+03 0.141441800028468D+03
 0.113166706271055D+03 0.464274389264217D+02 -.896544093385601D+02 -.511202817786303D+02
 0.374187026949622D+02 -.204125558156490D+02 -.118160067358699D+02 -.290494210142795D+02
-.131754611724D-01 0.000000000000D+00 0.000000000000D+00 0.606214298967D-06 0.000000000000D+00  6 -3 3 25 23 21 21 4 0.90498347D-02 0.60081756D+00 0.20270171D+06 0.20270171D+06 0.20270171D+06 0.11363933D+01  1  2 13  3  6  5       21 -.661238558631D-03 0.100000000000D+01
-.110374427427D-01 0.000000000000D+00 0.000000000000D+00 0.606214298967D-06 0.000000000000D+00  6 -3 3 25 23 21 21 4 0.90498347D-02 0.60081756D+00 0.20270171D+06 0.20270171D+06 0.20270171D+06 0.11363933D+01  1  2 13  3  6  5       21 -.553937553657D-03 0.100000000000D+01
-.128848715016D-02 0.000000000000D+00 0.000000000000D+00 0.606713045751D-06 0.000000000000D+00  6 -3 3 25 23 21 21 4 0.90498347D-02 0.60081756D+00 0.20016530D+06 0.20016530D+06 0.20016530D+06 0.11368606D+01  1  2  8  3  6  5       21 -.648060233555D-04 0.100000000000D+01
0.207624000386D-01 0.000000000000D+00 0.000000000000D+00 0.606713045751D-06 0.453207939294D-08  6 -3 3 25 23 21 21 4 0.90498347D-02 0.60081756D+00 0.20270171D+06 0.20270171D+06 0.20270171D+06 0.11363933D+01  1  2  1  3  6  5       21 0.104200523197D-02 0.100000000000D+01
  </mgrwgt>
  </event>
  <event>
  5     66 0.44820762E-03 0.23290660E+02 0.75467711E-02 0.12296681E+00
       -3 -1    0    0    0  501 0.00000000E+00 0.00000000E+00 0.17109273E+02 0.17116577E+02 0.50000000E+00 0.0000E+00 0.9000E+01
        3 -1    0    0  502    0 -.00000000E+00 -.00000000E+00 -.10777674E+04 0.10777675E+04 0.50000000E+00 0.0000E+00 0.9000E+01
       25  1    1    2    0    0 0.16535551E+02 0.25017783E+02 -.50491882E+03 0.52102527E+03 0.12500000E+03 0.0000E+00 0.9000E+01
       23  1    1    2    0    0 -.21878082E+02 -.47682514E+02 -.31733319E+03 0.33431703E+03 0.91188000E+02 0.0000E+00 0.9000E+01
       21  1    1    2  502  501 0.53425316E+01 0.22664731E+02 -.23840614E+03 0.23954181E+03 0.75000000E+00 0.0000E+00 0.9000E+01
#aMCatNLO 1  0  0  5  1 0.10231987D+02 0.00000000D+00  -5  6  0 0.00000000D+00 0.00000000D+00 0.00000000D+00 0.00000000D+00 0.00000000D+00
  <mgrwgt>
 0.2952426336D-01    9    2    0
 0.135808244565859D+03 0.000000000000000D+00 0.000000000000000D+00 0.135808244565859D+03
 0.135808244565859D+03 -.000000000000000D+00 -.000000000000000D+00 -.135808244565859D+03
 0.128548414924166D+03 0.165349570345922D+02 0.250152643472056D+02 -.725758237411712D+00
 0.108450016015708D+03 -.218785829663576D+02 -.476846381759001D+02 0.263373787462792D+02
 0.346180581918451D+02 0.534362593176546D+01 0.226693738286945D+02 -.256116205088675D+02
 0.000000000000000D+00 0.000000000000000D+00 0.000000000000000D+00 0.000000000000000D+00
 0.135808244565859D+03 0.000000000000000D+00 0.000000000000000D+00 0.135808244565859D+03
 0.135808244565859D+03 -.000000000000000D+00 -.000000000000000D+00 -.135808244565859D+03
 0.129736527455062D+03 0.175723471504241D+02 0.294162057009385D+02 -.569789556618584D+01
 0.105780285279234D+03 -.210181363796234D+02 -.440343479828030D+02 0.222133192164784D+02
 0.257803496289147D+02 0.180912514656377D+01 0.815302227597609D+01 -.243901972308669D+02
 0.103193267685077D+02 0.163666408263554D+01 0.646512000588841D+01 0.787477358057440D+01
0.313106259154D-03 0.000000000000D+00 0.000000000000D+00 0.341938198473D-04 0.000000000000D+00  6 -3 3 25 23 21 21 2 0.26327666D-02 0.16581094D+00 0.16517441D+05 0.16517441D+05 0.16517441D+05 0.12430795D+01  1  2  2  3  6  5       21 0.186189694480D-01 0.100000000000D+01
0.434162124542D-04 0.165230712413D-04 -.120241047792D-05 0.341938198473D-04 0.000000000000D+00  6 -3 3 25 23 21 21 4 0.26327666D-02 0.16581094D+00 0.16517441D+05 0.16517441D+05 0.16517441D+05 0.12430795D+01  1  2  3  3  6  5       21 0.398945532553D-02 0.100000000000D+01
0.117563963640D-04 0.000000000000D+00 0.000000000000D+00 0.341938198473D-04 0.000000000000D+00  6 -3 3 25 23 21 21 4 0.26327666D-02 0.16581094D+00 0.16517441D+05 0.16517441D+05 0.16517441D+05 0.12430795D+01  1  2 15  3  6  5       21 0.108027889657D-02 0.100000000000D+01
0.210827298253D-03 0.000000000000D+00 0.000000000000D+00 0.343865282200D-04 0.000000000000D+00  6 -3 3 25 23 21 21 4 0.26327666D-02 0.16581094D+00 0.15382621D+05 0.15382621D+05 0.15382621D+05 0.12465774D+01  1  2 12  3  6  5       21 0.194957912608D-01 0.100000000000D+01
-.161042762033D-03 0.000000000000D+00 0.000000000000D+00 0.341938198473D-04 0.000000000000D+00  6 -3 3 25 23 21 21 4 0.26327666D-02 0.16581094D+00 0.16517441D+05 0.16517441D+05 0.16517441D+05 0.12430795D+01  1  2  4  3  6  5       21 -.147979952261D-01 0.100000000000D+01
0.307594128520D-05 0.000000000000D+00 0.000000000000D+00 0.343865282200D-04 0.000000000000D+00  6 -3 3 25 23 3 -3 4 0.26327666D-02 0.16581094D+00 0.15382621D+05 0.15382621D+05 0.15382621D+05 0.12465774D+01  1  2 12  6  6  5       21 0.284440913125D-03 0.100000000000D+01
0.307594128520D-05 0.000000000000D+00 0.000000000000D+00 0.343865282200D-04 0.000000000000D+00  6 -3 3 25 23 2 -2 4 0.26327666D-02 0.16581094D+00 0.15382621D+05 0.15382621D+05 0.15382621D+05 0.12465774D+01  1  2 12  7  6  5       21 0.284440913125D-03 0.100000000000D+01
0.307594128520D-05 0.000000000000D+00 0.000000000000D+00 0.343865282200D-04 0.000000000000D+00  6 -3 3 25 23 4 -4 4 0.26327666D-02 0.16581094D+00 0.15382621D+05 0.15382621D+05 0.15382621D+05 0.12465774D+01  1  2 12  7  6  5       21 0.284440913125D-03 0.100000000000D+01
0.307594128520D-05 0.000000000000D+00 0.000000000000D+00 0.343865282200D-04 0.000000000000D+00  6 -3 3 25 23 1 -1 4 0.26327666D-02 0.16581094D+00 0.15382621D+05 0.15382621D+05 0.15382621D+05 0.12465774D+01  1  2 12  8  6  5       21 0.284440913125D-03 0.100000000000D+01
  </mgrwgt>
  </event>
  <event>
  5     66 0.44820762E-03 0.30606721E+02 0.75467711E-02 0.11343483E+00
       -3 -1    0    0    0  501 0.00000000E+00 0.00000000E+00 0.53379083E+03 0.53379107E+03 0.50000000E+00 0.0000E+00 0.9000E+01
        3 -1    0    0  502    0 0.00000000E+00 0.00000000E+00 -.28777111E+03 0.28777155E+03 0.50000000E+00 0.0000E+00 0.9000E+01
       25  1    1    2    0    0 0.12533515E+03 -.13226490E+03 0.24365305E+03 0.32892965E+03 0.12500000E+03 0.0000E+00 0.9000E+01
       23  1    1    2    0    0 -.10628713E+03 0.10830811E+03 -.21193760E+03 0.27615286E+03 0.91188000E+02 0.0000E+00 0.9000E+01
       21  1    1    2  502  501 -.19048017E+02 0.23956793E+02 0.21430427E+03 0.21648011E+03 0.75000000E+00 0.0000E+00 0.9000E+01
#aMCatNLO 1  0  0  5  2 0.16969610D+02 0.00000000D+00  -5  6  0 0.00000000D+00 0.00000000D+00 0.00000000D+00 0.00000000D+00 0.00000000D+00
  <mgrwgt>
 0.6670669349D-01   15    2    0
 0.391930933289847D+03 0.000000000000000D+00 0.000000000000000D+00 0.391930933289847D+03
 0.391930933289847D+03 -.000000000000000D+00 -.000000000000000D+00 -.391930933289847D+03
 0.268277683132217D+03 0.125335222237707D+03 -.132264994657520D+03 0.152134705184783D+03
 0.355953244248197D+03 -.106287037688565D+03 0.108307991180875D+03 -.308803991898695D+03
 0.159630939199280D+03 -.190481845491417D+02 0.239570034766447D+02 0.156669286713912D+03
 0.000000000000000D+00 0.000000000000000D+00 0.000000000000000D+00 0.000000000000000D+00
 0.391930933289847D+03 0.000000000000000D+00 0.000000000000000D+00 0.391930933289847D+03
 0.391930933289847D+03 -.000000000000000D+00 -.000000000000000D+00 -.391930933289847D+03
 0.270218969754215D+03 0.124800976372010D+03 -.131593070777905D+03 0.156528820460845D+03
 0.351443667352325D+03 -.106988850547389D+03 0.109190664963011D+03 -.303031655972665D+03
 0.180367794574433D+02 -.175381534498857D+02 -.536703700915870D+00 0.417738385860459D+01
 0.144162450015710D+03 -.273972374734473D+00 0.229391095158094D+02 0.142325451653215D+03
0.167523532472D-01 0.000000000000D+00 0.000000000000D+00 0.576817288679D-05 0.000000000000D+00  6 -3 3 25 23 21 21 2 0.82121718D-01 0.44272530D-01 0.45927958D+05 0.45927958D+05 0.45927958D+05 0.11959528D+01  1  2  2  3  6  5       21 0.421165405320D-01 0.100000000000D+01
0.257862154358D-02 0.884045968649D-03 -.643334474653D-04 0.576817288679D-05 0.000000000000D+00  6 -3 3 25 23 21 21 4 0.82121718D-01 0.44272530D-01 0.45927958D+05 0.45927958D+05 0.45927958D+05 0.11959528D+01  1  2  3  3  6  5       21 0.927240921207D-02 0.100000000000D+01
0.240159803882D-03 0.000000000000D+00 0.000000000000D+00 0.576817288679D-05 0.000000000000D+00  6 -3 3 25 23 21 21 4 0.82121718D-01 0.44272530D-01 0.45927958D+05 0.45927958D+05 0.45927958D+05 0.11959528D+01  1  2 15  3  6  5       21 0.863585423550D-03 0.100000000000D+01
0.609508879287D-03 0.000000000000D+00 0.000000000000D+00 0.574865749045D-05 0.000000000000D+00  6 -3 3 25 23 21 21 4 0.82121718D-01 0.44272530D-01 0.48126315D+05 0.48126315D+05 0.48126315D+05 0.11939280D+01  1  2 12  3  6  5       21 0.217953975507D-02 0.100000000000D+01
-.418848225279D-02 0.000000000000D+00 0.000000000000D+00 0.576817288679D-05 0.000000000000D+00  6 -3 3 25 23 21 21 4 0.82121718D-01 0.44272530D-01 0.45927958D+05 0.45927958D+05 0.45927958D+05 0.11959528D+01  1  2  4  3  6  5       21 -.150612723771D-01 0.100000000000D+01
-.613694497611D-03 0.000000000000D+00 0.000000000000D+00 0.576817288679D-05 0.000000000000D+00  6 -3 3 25 23 21 21 4 0.82121718D-01 0.44272530D-01 0.45927958D+05 0.45927958D+05 0.45927958D+05 0.11959528D+01  1  2  5  3  6  5       21 -.220677071717D-02 0.100000000000D+01
0.905080928856D-02 0.000000000000D+00 -.000000000000D+00 0.576817288679D-05 0.000000000000D+00  6 -3 3 25 23 21 21 4 0.82121718D-01 0.44272530D-01 0.45927958D+05 0.45927958D+05 0.45927958D+05 0.11959528D+01  1  2  6  3  6  5       21 0.325456085764D-01 0.100000000000D+01
0.297949376106D-03 0.000000000000D+00 0.000000000000D+00 0.574865749045D-05 0.000000000000D+00  6 -3 3 25 23 3 -3 4 0.82121718D-01 0.44272530D-01 0.48126315D+05 0.48126315D+05 0.48126315D+05 0.11939280D+01  1  2 12  6  6  5       21 0.106543568484D-02 0.100000000000D+01
-.505070602842D-03 0.000000000000D+00 0.000000000000D+00 0.576817288679D-05 0.000000000000D+00  6 -3 3 25 23 3 -3 4 0.82121718D-01 0.44272530D-01 0.45927958D+05 0.45927958D+05 0.45927958D+05 0.11959528D+01  1  2  5  6  6  5       21 -.181617241282D-02 0.100000000000D+01
0.297949376106D-03 0.000000000000D+00 0.000000000000D+00 0.574865749045D-05 0.000000000000D+00  6 -3 3 25 23 2 -2 4 0.82121718D-01 0.44272530D-01 0.48126315D+05 0.48126315D+05 0.48126315D+05 0.11939280D+01  1  2 12  7  6  5       21 0.106543568484D-02 0.100000000000D+01
0.297949376106D-03 0.000000000000D+00 0.000000000000D+00 0.574865749045D-05 0.000000000000D+00  6 -3 3 25 23 4 -4 4 0.82121718D-01 0.44272530D-01 0.48126315D+05 0.48126315D+05 0.48126315D+05 0.11939280D+01  1  2 12  7  6  5       21 0.106543568484D-02 0.100000000000D+01
-.505070602842D-03 0.000000000000D+00 0.000000000000D+00 0.576817288679D-05 0.000000000000D+00  6 -3 3 25 23 2 -2 4 0.82121718D-01 0.44272530D-01 0.45927958D+05 0.45927958D+05 0.45927958D+05 0.11959528D+01  1  2  5  7  6  5       21 -.181617241282D-02 0.100000000000D+01
-.505070602842D-03 0.000000000000D+00 0.000000000000D+00 0.576817288679D-05 0.000000000000D+00  6 -3 3 25 23 4 -4 4 0.82121718D-01 0.44272530D-01 0.45927958D+05 0.45927958D+05 0.45927958D+05 0.11959528D+01  1  2  5  7  6  5       21 -.181617241282D-02 0.100000000000D+01
0.297949376106D-03 0.000000000000D+00 0.000000000000D+00 0.574865749045D-05 0.000000000000D+00  6 -3 3 25 23 1 -1 4 0.82121718D-01 0.44272530D-01 0.48126315D+05 0.48126315D+05 0.48126315D+05 0.11939280D+01  1  2 12  8  6  5       21 0.106543568484D-02 0.100000000000D+01
-.505070602842D-03 0.000000000000D+00 0.000000000000D+00 0.576817288679D-05 0.000000000000D+00  6 -3 3 25 23 1 -1 4 0.82121718D-01 0.44272530D-01 0.45927958D+05 0.45927958D+05 0.45927958D+05 0.11959528D+01  1  2  5  8  6  5       21 -.181617241282D-02 0.100000000000D+01
  </mgrwgt>
  </event>
  <event>
  5     66 0.44820762E-03 0.41127651E+02 0.75467711E-02 0.11315550E+00
       -1 -1    0    0    0  501 0.00000000E+00 0.00000000E+00 0.30409320E+03 0.30409336E+03 0.32000000E+00 0.0000E+00 0.9000E+01
        1 -1    0    0  502    0 0.00000000E+00 0.00000000E+00 -.13930466E+03 0.13930503E+03 0.32000000E+00 0.0000E+00 0.9000E+01
       25  1    1    2    0    0 0.11571160E+03 0.46611727E+01 0.20829771E+01 0.17041197E+03 0.12500000E+03 0.0000E+00 0.9000E+01
       23  1    1    2    0    0 -.15155309E+03 0.15499578E+02 0.12450314E+03 0.21685216E+03 0.91188000E+02 0.0000E+00 0.9000E+01
       21  1    1    2  502  501 0.35841493E+02 -.20160751E+02 0.38202416E+02 0.56134264E+02 0.75000000E+00 0.0000E+00 0.9000E+01
#aMCatNLO 1  0  0  1  2 0.54528992D+02 0.00000000D+00  -5  6  0 0.00000000D+00 0.00000000D+00 0.00000000D+00 0.00000000D+00 0.00000000D+00
  <mgrwgt>
 0.1271778269D+00    7    4    0
 0.205819627281961D+03 0.000000000000000D+00 0.000000000000000D+00 0.205819627281961D+03
 0.205819627281961D+03 0.000000000000000D+00 0.000000000000000D+00 -.205819627281961D+03
 0.182724930345487D+03 0.115709405138797D+03 0.466240650990701D+01 -.659772362085995D+02
 0.183743118892681D+03 -.151555297371187D+03 0.155008190873835D+02 0.472969221277815D+02
 0.451712053257531D+02 0.358458922323898D+02 -.201632255972906D+02 0.186803140808180D+02
 0.000000000000000D+00 0.000000000000000D+00 -.000000000000000D+00 0.000000000000000D+00
 0.242881096025014D+03 0.000000000000000D+00 0.000000000000000D+00 0.242881096025014D+03
 0.228697565509342D+03 0.000000000000000D+00 0.000000000000000D+00 -.228697565509342D+03
 0.169904898041049D+03 0.935532456255522D+02 0.117247137934748D+02 -.659772362085995D+02
 0.205099836352180D+03 -.175986771536109D+03 0.232883861447558D+02 0.472969221277815D+02
 0.402304843721297D+02 0.304800005597977D+02 -.184528400126620D+02 0.186803140808180D+02
 0.563434427689977D+02 0.519535253507586D+02 -.165602599255685D+02 0.141835305156723D+02
 0.205819627281961D+03 0.000000000000000D+00 0.000000000000000D+00 0.205819627281961D+03
 0.205819627281961D+03 0.000000000000000D+00 0.000000000000000D+00 -.205819627281961D+03
 0.182724930345487D+03 0.115709405138797D+03 0.466240650990701D+01 -.659772362085995D+02
 0.183743118892681D+03 -.151555297371187D+03 0.155008190873835D+02 0.472969221277815D+02
 0.000000000000000D+00 0.000000000000000D+00 -.000000000000000D+00 0.000000000000000D+00
 0.451712053257531D+02 0.358458922323898D+02 -.201632255972906D+02 0.186803140808180D+02
 0.242881096025014D+03 0.000000000000000D+00 0.000000000000000D+00 0.242881096025014D+03
 0.228697565509342D+03 0.000000000000000D+00 0.000000000000000D+00 -.228697565509342D+03
 0.169904898041049D+03 0.935532456255522D+02 0.117247137934748D+02 -.659772362085995D+02
 0.205099836352180D+03 -.175986771536109D+03 0.232883861447558D+02 0.472969221277815D+02
 0.563434427689977D+02 0.519535253507586D+02 -.165602599255685D+02 0.141835305156723D+02
 0.402304843721297D+02 0.304800005597977D+02 -.184528400126620D+02 0.186803140808180D+02
0.329626659122D-03 0.000000000000D+00 0.000000000000D+00 0.650738093282D-05 0.000000000000D+00  6 -1 1 25 23 21 21 2 0.46783610D-01 0.21431528D-01 0.37845215D+05 0.37845215D+05 0.37845215D+05 0.12044501D+01  1  2  2  1  6  1       -1 0.516006683712D-01 0.100000000000D+01
0.416493266148D-04 0.173948766991D-04 -.126585316372D-05 0.650738093282D-05 0.000000000000D+00  6 -1 1 25 23 21 21 4 0.46783610D-01 0.21431528D-01 0.37845215D+05 0.37845215D+05 0.37845215D+05 0.12044501D+01  1  2  3  1  6  1       -1 0.945842049292D-02 0.100000000000D+01
0.920698124706D-05 0.000000000000D+00 0.000000000000D+00 0.650738093282D-05 0.000000000000D+00  6 -1 1 25 23 21 21 4 0.46783610D-01 0.21431528D-01 0.37845215D+05 0.37845215D+05 0.37845215D+05 0.12044501D+01  1  2 15  1  6  1       -1 0.209087414331D-02 0.100000000000D+01
-.220335909774D-04 0.000000000000D+00 0.000000000000D+00 0.650738093282D-05 0.000000000000D+00  6 -1 1 25 23 21 21 4 0.46783610D-01 0.21431528D-01 0.37845215D+05 0.37845215D+05 0.37845215D+05 0.12044501D+01  1  2  4  1  6  1       -1 -.500375361073D-02 0.100000000000D+01
-.114164243563D-02 0.000000000000D+00 -.361602482118D-03 0.650738093282D-05 0.000000000000D+00  6 -1 1 25 23 21 21 4 0.60525091D-01 0.21431528D-01 0.37845215D+05 0.37845215D+05 0.37845215D+05 0.12044501D+01  1  2  5  1  6  1       -1 -.160329467840D+00 0.100000000000D+01
0.120621303684D-02 0.000000000000D+00 0.349934527915D-03 0.650738093282D-05 0.000000000000D+00  6 -1 1 25 23 21 21 4 0.46783610D-01 0.21431528D-01 0.37845215D+05 0.37845215D+05 0.37845215D+05 0.12044501D+01  1  2  6  1  6  1       -1 0.273926880306D+00 0.100000000000D+01
-.331290093055D-04 0.000000000000D+00 -.125078828185D-04 0.650738093282D-05 0.000000000000D+00  6 21 1 25 23 1 21 4 0.60525091D-01 0.21431528D-01 0.37845215D+05 0.37845215D+05 0.37845215D+05 0.12044501D+01  3  4  5  4  5  1       -1 -.445657950103D-01 0.100000000000D+01
  </mgrwgt>
  </event>
  <event>
  5     66 0.44820762E-03 0.26018032E+02 0.75467711E-02 0.10662110E+00
       -1 -1    0    0    0  501 0.00000000E+00 0.00000000E+00 0.87053833E+02 0.87054422E+02 0.32000000E+00 0.0000E+00 0.9000E+01
        1 -1    0    0  502    0 0.00000000E+00 0.00000000E+00 -.91016446E+03 0.91016452E+03 0.32000000E+00 0.0000E+00 0.9000E+01
       25  1    1    2    0    0 -.14505962E+03 0.20577892E+03 -.39564289E+03 0.48533036E+03 0.12500000E+03 0.0000E+00 0.9000E+01
       23  1    1    2    0    0 0.12209667E+03 -.19355807E+03 -.33499252E+03 0.41582156E+03 0.91188000E+02 0.0000E+00 0.9000E+01
       21  1    1    2  502  501 0.22962941E+02 -.12220850E+02 -.92475210E+02 0.96067023E+02 0.75000000E+00 0.0000E+00 0.9000E+01
#aMCatNLO 1  0  0  1  5 0.38416050D+02 0.00000000D+00  -5  6  0 0.00000000D+00 0.00000000D+00 0.00000000D+00 0.00000000D+00 0.00000000D+00
  <mgrwgt>
 0.2839708427D+00    6    4    0
 0.281484682668035D+03 0.000000000000000D+00 0.000000000000000D+00 0.281484682668035D+03
 0.281484682668035D+03 0.000000000000000D+00 0.000000000000000D+00 -.281484682668035D+03
 0.281230483546844D+03 -.145062256023344D+03 0.205780328151095D+03 0.877401273288918D+01
 0.246777397251197D+03 0.122094357956332D+03 -.193556840088851D+03 0.145790898249820D+02
 0.349614845380300D+02 0.229678980670119D+02 -.122234880622437D+02 -.233531025578712D+02
 0.000000000000000D+00 -.000000000000000D+00 0.000000000000000D+00 0.000000000000000D+00
 0.527814428742390D+03 0.000000000000000D+00 0.000000000000000D+00 0.527814428742390D+03
 0.301341583186805D+03 0.000000000000000D+00 0.000000000000000D+00 -.301341583186805D+03
 0.250096554953307D+03 -.918495571917408D+02 0.195984597210487D+03 0.877401273288918D+01
 0.283872856894590D+03 0.175239276457907D+03 -.203340093596617D+03 0.145790898249820D+02
 0.407983248253879D+02 0.305552851696430D+02 -.136202223800203D+02 -.233531025578712D+02
 0.254388275255910D+03 -.113945004435809D+03 0.209757187661503D+02 0.226472845555584D+03
 0.281484682668035D+03 0.000000000000000D+00 0.000000000000000D+00 0.281484682668035D+03
 0.281484682668035D+03 0.000000000000000D+00 0.000000000000000D+00 -.281484682668035D+03
 0.281230483546844D+03 -.145062256023344D+03 0.205780328151095D+03 0.877401273288918D+01
 0.246777397251197D+03 0.122094357956332D+03 -.193556840088851D+03 0.145790898249820D+02
 0.000000000000000D+00 -.000000000000000D+00 0.000000000000000D+00 0.000000000000000D+00
 0.349614845380300D+02 0.229678980670119D+02 -.122234880622437D+02 -.233531025578712D+02
 0.527814428742390D+03 0.000000000000000D+00 0.000000000000000D+00 0.527814428742390D+03
 0.301341583186805D+03 0.000000000000000D+00 0.000000000000000D+00 -.301341583186805D+03
 0.250096554953307D+03 -.918495571917408D+02 0.195984597210487D+03 0.877401273288918D+01
 0.283872856894590D+03 0.175239276457907D+03 -.203340093596617D+03 0.145790898249820D+02
 0.254388275255910D+03 -.113945004435809D+03 0.209757187661503D+02 0.226472845555584D+03
 0.407983248253879D+02 0.305552851696430D+02 -.136202223800203D+02 -.233531025578712D+02
0.890989007110D-03 0.000000000000D+00 0.000000000000D+00 0.145215837093D-04 0.000000000000D+00  6 -1 1 25 23 21 21 2 0.13392947D-01 0.14002535D+00 0.76578935D+05 0.76578935D+05 0.76578935D+05 0.11743702D+01  1  2  2  1  6  1       -1 0.889559016117D-01 0.100000000000D+01
0.319376839264D-03 0.470187816733D-04 -.342163239009D-05 0.145215837093D-04 0.000000000000D+00  6 -1 1 25 23 21 21 4 0.13392947D-01 0.14002535D+00 0.76578935D+05 0.76578935D+05 0.76578935D+05 0.11743702D+01  1  2  3  1  6  1       -1 0.439760158261D-01 0.100000000000D+01
0.105109468744D-04 0.000000000000D+00 0.000000000000D+00 0.145215837093D-04 0.000000000000D+00  6 -1 1 25 23 21 21 4 0.13392947D-01 0.14002535D+00 0.76578935D+05 0.76578935D+05 0.76578935D+05 0.11743702D+01  1  2 15  1  6  1       -1 0.144728580558D-02 0.100000000000D+01
-.290437170059D-02 0.000000000000D+00 -.557445431468D-03 0.145215837093D-04 0.000000000000D+00  6 -1 1 25 23 21 21 4 0.26580015D-01 0.14002535D+00 0.76578935D+05 0.76578935D+05 0.76578935D+05 0.11743702D+01  1  2  5  1  6  1       -1 -.131130060774D+00 0.100000000000D+01
0.272926645589D-02 0.000000000000D+00 0.448017116409D-03 0.145215837093D-04 0.000000000000D+00  6 -1 1 25 23 21 21 4 0.13392947D-01 0.14002535D+00 0.76578935D+05 0.76578935D+05 0.76578935D+05 0.11743702D+01  1  2  6  1  6  1       -1 0.375801404806D+00 0.100000000000D+01
-.182248744318D-03 0.000000000000D+00 -.413584277907D-04 0.145215837093D-04 0.000000000000D+00  6 21 1 25 23 1 21 4 0.26580015D-01 0.14002535D+00 0.76578935D+05 0.76578935D+05 0.76578935D+05 0.11743702D+01  3  4  5  4  5  1       -1 -.950797046234D-01 0.100000000000D+01
  </mgrwgt>
  </event>
  <event>
  5     66 0.44820762E-03 0.13275945E+03 0.75467711E-02 0.10872170E+00
       -1 -1    0    0    0  501 0.00000000E+00 0.00000000E+00 0.68661083E+03 0.68661091E+03 0.32000000E+00 0.0000E+00 0.9000E+01
        1 -1    0    0  502    0 0.00000000E+00 0.00000000E+00 -.14064738E+03 0.14064775E+03 0.32000000E+00 0.0000E+00 0.9000E+01
       25  1    1    2    0    0 0.21035744E+03 -.10872582E+03 0.34975648E+03 0.44048400E+03 0.12500000E+03 0.0000E+00 0.9000E+01
       23  1    1    2    0    0 -.79294258E+02 0.15136851E+03 0.13422374E+03 0.23565074E+03 0.91188000E+02 0.0000E+00 0.9000E+01
       21  1    1    2  502  501 -.13106318E+03 -.42642694E+02 0.61983231E+02 0.15112392E+03 0.75000000E+00 0.0000E+00 0.9000E+01
#aMCatNLO 1  0  0  5  1 0.28811036D+02 0.00000000D+00  -5  6  0 0.00000000D+00 0.00000000D+00 0.00000000D+00 0.00000000D+00 0.00000000D+00
  <mgrwgt>
 0.1418151436D-01   20    2    0
 0.310757459635155D+03 0.000000000000000D+00 0.000000000000000D+00 0.310757459635155D+03
 0.310757459635155D+03 -.000000000000000D+00 -.000000000000000D+00 -.310757459635155D+03
 0.279060550453375D+03 0.210358206800560D+03 -.108725570045587D+03 0.786000386084880D+02
 0.195751997079626D+03 -.792937188631135D+02 0.151368690150278D+03 -.283481711528038D+02
 0.146702371737309D+03 -.131064487937446D+03 -.426431201046911D+02 -.502518674556841D+02
 0.000000000000000D+00 -.000000000000000D+00 0.000000000000000D+00 0.000000000000000D+00
 0.310757459635155D+03 0.000000000000000D+00 0.000000000000000D+00 0.310757459635155D+03
 0.310757459635155D+03 -.000000000000000D+00 -.000000000000000D+00 -.310757459635155D+03
 0.273056812690866D+03 0.202068239302031D+03 -.111422792498952D+03 0.754215548368440D+02
 0.197091578256256D+03 -.851922119896364D+02 0.149449557402809D+03 -.306097318504946D+02
 0.118441202758810D+03 -.898077869440405D+02 -.528084731938691D+02 -.563395515965453D+02
 0.329253255643791D+02 -.270682403683542D+02 0.147817082900126D+02 0.115277286101959D+02
0.264274973314D-03 0.000000000000D+00 0.000000000000D+00 0.558910855212D-06 0.000000000000D+00  6 -1 1 25 23 21 21 2 0.10563247D+00 0.21638093D-01 0.89783620D+05 0.89783620D+05 0.89783620D+05 0.11678957D+01  1  2  2  3  6  5       21 0.741894820499D-02 0.100000000000D+01
-.105674446924D-04 0.139461734913D-04 -.101488548272D-05 0.558910855212D-06 0.000000000000D+00  6 -1 1 25 23 21 21 4 0.10563247D+00 0.21638093D-01 0.89783620D+05 0.89783620D+05 0.89783620D+05 0.11678957D+01  1  2  3  3  6  5       21 -.404635903682D-03 0.100000000000D+01
0.103686876988D-05 0.000000000000D+00 0.000000000000D+00 0.558910855212D-06 0.000000000000D+00  6 -1 1 25 23 21 21 4 0.10563247D+00 0.21638093D-01 0.89783620D+05 0.89783620D+05 0.89783620D+05 0.11678957D+01  1  2 15  3  6  5       21 0.397025339532D-04 0.100000000000D+01
0.274498787250D-03 0.000000000000D+00 0.000000000000D+00 0.559835617905D-06 0.000000000000D+00  6 -1 1 25 23 21 21 4 0.10563247D+00 0.21638093D-01 0.87663022D+05 0.87663022D+05 0.87663022D+05 0.11688615D+01  1  2 12  3  6  5       21 0.105486138662D-01 0.100000000000D+01
0.236425890747D-03 0.000000000000D+00 0.000000000000D+00 0.559835617905D-06 0.000000000000D+00  6 -1 1 25 23 21 21 4 0.10563247D+00 0.21638093D-01 0.87663022D+05 0.87663022D+05 0.87663022D+05 0.11688615D+01  1  2 12  3  6  5       21 0.908552440043D-02 0.100000000000D+01
-.431073033271D-03 0.000000000000D+00 0.000000000000D+00 0.558910855212D-06 0.000000000000D+00  6 -1 1 25 23 21 21 4 0.10563247D+00 0.21638093D-01 0.89783620D+05 0.89783620D+05 0.89783620D+05 0.11678957D+01  1  2  4  3  6  5       21 -.165061309945D-01 0.100000000000D+01
-.406458877140D-03 0.000000000000D+00 0.000000000000D+00 0.558910855212D-06 0.000000000000D+00  6 -1 1 25 23 21 21 4 0.10563247D+00 0.21638093D-01 0.89783620D+05 0.89783620D+05 0.89783620D+05 0.11678957D+01  1  2  5  3  6  5       21 -.155636352825D-01 0.100000000000D+01
0.511402669187D-03 0.000000000000D+00 -.000000000000D+00 0.558910855212D-06 0.000000000000D+00  6 -1 1 25 23 21 21 4 0.10563247D+00 0.21638093D-01 0.89783620D+05 0.89783620D+05 0.89783620D+05 0.11678957D+01  1  2  6  3  6  5       21 0.195820169601D-01 0.100000000000D+01
0.363639014280D-05 0.000000000000D+00 0.000000000000D+00 0.559835617905D-06 0.000000000000D+00  6 -1 1 25 23 1 -1 4 0.10563247D+00 0.21638093D-01 0.87663022D+05 0.87663022D+05 0.87663022D+05 0.11688615D+01  1  2 12  6  6  5       21 0.139741511674D-03 0.100000000000D+01
0.332803250474D-05 0.000000000000D+00 0.000000000000D+00 0.559835617905D-06 0.000000000000D+00  6 -1 1 25 23 1 -1 4 0.10563247D+00 0.21638093D-01 0.87663022D+05 0.87663022D+05 0.87663022D+05 0.11688615D+01  1  2 12  6  6  5       21 0.127891748369D-03 0.100000000000D+01
-.711282140672D-05 0.000000000000D+00 0.000000000000D+00 0.558910855212D-06 0.000000000000D+00  6 -1 1 25 23 1 -1 4 0.10563247D+00 0.21638093D-01 0.89783620D+05 0.89783620D+05 0.89783620D+05 0.11678957D+01  1  2  5  6  6  5       21 -.272355616841D-03 0.100000000000D+01
0.363639014280D-05 0.000000000000D+00 0.000000000000D+00 0.559835617905D-06 0.000000000000D+00  6 -1 1 25 23 2 -2 4 0.10563247D+00 0.21638093D-01 0.87663022D+05 0.87663022D+05 0.87663022D+05 0.11688615D+01  1  2 12  7  6  5       21 0.139741511674D-03 0.100000000000D+01
0.363639014280D-05 0.000000000000D+00 0.000000000000D+00 0.559835617905D-06 0.000000000000D+00  6 -1 1 25 23 4 -4 4 0.10563247D+00 0.21638093D-01 0.87663022D+05 0.87663022D+05 0.87663022D+05 0.11688615D+01  1  2 12  7  6  5       21 0.139741511674D-03 0.100000000000D+01
0.332803250474D-05 0.000000000000D+00 0.000000000000D+00 0.559835617905D-06 0.000000000000D+00  6 -1 1 25 23 2 -2 4 0.10563247D+00 0.21638093D-01 0.87663022D+05 0.87663022D+05 0.87663022D+05 0.11688615D+01  1  2 12  7  6  5       21 0.127891748369D-03 0.100000000000D+01
0.332803250474D-05 0.000000000000D+00 0.000000000000D+00 0.559835617905D-06 0.000000000000D+00  6 -1 1 25 23 4 -4 4 0.10563247D+00 0.21638093D-01 0.87663022D+05 0.87663022D+05 0.87663022D+05 0.11688615D+01  1  2 12  7  6  5       21 0.127891748369D-03 0.100000000000D+01
-.711282140672D-05 0.000000000000D+00 0.000000000000D+00 0.558910855212D-06 0.000000000000D+00  6 -1 1 25 23 2 -2 4 0.10563247D+00 0.21638093D-01 0.89783620D+05 0.89783620D+05 0.89783620D+05 0.11678957D+01  1  2  5  7  6  5       21 -.272355616841D-03 0.100000000000D+01
-.711282140672D-05 0.000000000000D+00 0.000000000000D+00 0.558910855212D-06 0.000000000000D+00  6 -1 1 25 23 4 -4 4 0.10563247D+00 0.21638093D-01 0.89783620D+05 0.89783620D+05 0.89783620D+05 0.11678957D+01  1  2  5  7  6  5       21 -.272355616841D-03 0.100000000000D+01
0.363639014280D-05 0.000000000000D+00 0.000000000000D+00 0.559835617905D-06 0.000000000000D+00  6 -1 1 25 23 3 -3 4 0.10563247D+00 0.21638093D-01 0.87663022D+05 0.87663022D+05 0.87663022D+05 0.11688615D+01  1  2 12  8  6  5       21 0.139741511674D-03 0.100000000000D+01
0.332803250474D-05 0.000000000000D+00 0.000000000000D+00 0.559835617905D-06 0.000000000000D+00  6 -1 1 25 23 3 -3 4 0.10563247D+00 0.21638093D-01 0.87663022D+05 0.87663022D+05 0.87663022D+05 0.11688615D+01  1  2 12  8  6  5       21 0.127891748369D-03 0.100000000000D+01
-.711282140672D-05 0.000000000000D+00 0.000000000000D+00 0.558910855212D-06 0.000000000000D+00  6 -1 1 25 23 3 -3 4 0.10563247D+00 0.21638093D-01 0.89783620D+05 0.89783620D+05 0.89783620D+05 0.11678957D+01  1  2  5  8  6  5       21 -.272355616841D-03 0.100000000000D+01
  </mgrwgt>
  </event>
  <event>
  5     66 -.44820762E-03 0.46092428E+02 0.75467711E-02 0.11426172E+00
       -3 -1    0    0    0  501 0.00000000E+00 0.00000000E+00 0.13932889E+03 0.13932979E+03 0.50000000E+00 0.0000E+00 0.9000E+01
        3 -1    0    0  502    0 0.00000000E+00 0.00000000E+00 -.44727530E+03 0.44727558E+03 0.50000000E+00 0.0000E+00 0.9000E+01
       25  1    1    2    0    0 -.10915071E+03 0.11917776E+03 -.26070625E+03 0.33122495E+03 0.12500000E+03 0.0000E+00 0.9000E+01
       23  1    1    2    0    0 0.11307357E+03 -.73255980E+02 0.30000781E+02 0.16543086E+03 0.91188000E+02 0.0000E+00 0.9000E+01
       21  1    1    2  502  501 -.39228559E+01 -.45921777E+02 -.77240934E+02 0.89949557E+02 0.75000000E+00 0.0000E+00 0.9000E+01
#aMCatNLO 1  0  0  2  2 0.40185762D+01 0.00000000D+00  -5  6  0 0.00000000D+00 0.00000000D+00 0.00000000D+00 0.00000000D+00 0.00000000D+00
  <mgrwgt>
 -.7203512590D-02    9    4    0
 0.249637168961342D+03 0.000000000000000D+00 0.000000000000000D+00 0.249637168961342D+03
 0.249637168961342D+03 0.000000000000000D+00 0.000000000000000D+00 -.249637168961342D+03
 0.228361223723880D+03 -.109150563968026D+03 0.119179511348894D+03 -.102011013918932D+03
 0.212871790564185D+03 0.113073709360152D+03 -.732543455303167D+02 0.137285414325277D+03
 0.580413236346202D+02 -.392314539212582D+01 -.459251658185773D+02 -.352744004063448D+02
 0.000000000000000D+00 -.000000000000000D+00 0.000000000000000D+00 -.000000000000000D+00
 0.250399621084359D+03 0.000000000000000D+00 0.000000000000000D+00 0.250399621084359D+03
 0.254997084763844D+03 0.000000000000000D+00 0.000000000000000D+00 -.254997084763844D+03
 0.227107692538985D+03 -.107618521354605D+03 0.118173224171392D+03 -.102011013918932D+03
 0.213963074362271D+03 0.114509436758032D+03 -.741973702596674D+02 0.137285414325277D+03
 0.582197431853367D+02 -.353208268226753D+01 -.461820264222461D+02 -.352744004063448D+02
 0.610619576160948D+01 -.335883272115912D+01 0.220617251052177D+01 -.459746367948530D+01
 0.249637168961342D+03 0.000000000000000D+00 0.000000000000000D+00 0.249637168961342D+03
 0.249637168961342D+03 0.000000000000000D+00 0.000000000000000D+00 -.249637168961342D+03
 0.228361223723880D+03 -.109150563968026D+03 0.119179511348894D+03 -.102011013918932D+03
 0.212871790564185D+03 0.113073709360152D+03 -.732543455303167D+02 0.137285414325277D+03
 0.000000000000000D+00 -.000000000000000D+00 0.000000000000000D+00 -.000000000000000D+00
 0.580413236346202D+02 -.392314539212582D+01 -.459251658185773D+02 -.352744004063448D+02
 0.250399621084359D+03 0.000000000000000D+00 0.000000000000000D+00 0.250399621084359D+03
 0.254997084763844D+03 0.000000000000000D+00 0.000000000000000D+00 -.254997084763844D+03
 0.227107692538985D+03 -.107618521354605D+03 0.118173224171392D+03 -.102011013918932D+03
 0.213963074362271D+03 0.114509436758032D+03 -.741973702596674D+02 0.137285414325277D+03
 0.610619576160948D+01 -.335883272115912D+01 0.220617251052177D+01 -.459746367948530D+01
 0.582197431853367D+02 -.353208268226753D+01 -.461820264222461D+02 -.352744004063448D+02
0.206558117900D-03 0.000000000000D+00 0.000000000000D+00 0.380434092662D-05 0.000000000000D+00  6 -3 3 25 23 21 21 2 0.21435305D-01 0.68811674D-01 0.42660766D+05 0.42660766D+05 0.42660766D+05 0.11991704D+01  1  2  2  2  6  2        3 0.298050670710D-02 0.100000000000D+01
0.184154188612D-04 0.109003713524D-04 -.793237560739D-06 0.380434092662D-05 0.000000000000D+00  6 -3 3 25 23 21 21 4 0.21435305D-01 0.68811674D-01 0.42660766D+05 0.42660766D+05 0.42660766D+05 0.11991704D+01  1  2  3  2  6  2        3 0.382112478095D-03 0.100000000000D+01
0.574366561822D-05 0.000000000000D+00 0.000000000000D+00 0.380434092662D-05 0.000000000000D+00  6 -3 3 25 23 21 21 4 0.21435305D-01 0.68811674D-01 0.42660766D+05 0.42660766D+05 0.42660766D+05 0.11991704D+01  1  2 15  2  6  2        3 0.119178733825D-03 0.100000000000D+01
-.222339271029D-02 0.000000000000D+00 0.000000000000D+00 0.380434092662D-05 0.000000000000D+00  6 -3 3 25 23 21 21 4 0.21435305D-01 0.68811674D-01 0.42660766D+05 0.42660766D+05 0.42660766D+05 0.11991704D+01  1  2  4  2  6  2        3 -.461344976572D-01 0.100000000000D+01
-.230386698417D-01 0.000000000000D+00 -.220818855739D-02 0.380434092662D-05 0.000000000000D+00  6 -3 3 25 23 21 21 4 0.21435305D-01 0.70430656D-01 0.42660766D+05 0.42660766D+05 0.42660766D+05 0.11991704D+01  1  2  5  2  6  2        3 -.454922156507D+00 0.100000000000D+01
0.230843763448D-01 0.000000000000D+00 0.220759159239D-02 0.380434092662D-05 0.000000000000D+00  6 -3 3 25 23 21 21 4 0.21435305D-01 0.68811674D-01 0.42660766D+05 0.42660766D+05 0.42660766D+05 0.11991704D+01  1  2  6  2  6  2        3 0.478991453677D+00 0.100000000000D+01
0.209685953242D-02 0.000000000000D+00 0.000000000000D+00 0.380434092662D-05 0.558441958105D-06  6 -3 3 25 23 21 21 4 0.21500773D-01 0.70289118D-01 0.43546503D+05 0.43546503D+05 0.43546503D+05 0.11982717D+01  1  2 11  2  6  2        3 0.412690274264D-01 0.100000000000D+01
-.966076417780D-04 0.000000000000D+00 -.930124309981D-05 0.380434092662D-05 0.000000000000D+00  6 -3 21 25 23 -3 21 4 0.21435305D-01 0.70430656D-01 0.42660766D+05 0.42660766D+05 0.42660766D+05 0.11991704D+01  3  4  5  5  5  2        3 -.356584371376D-01 0.100000000000D+01
0.156960752633D-04 0.000000000000D+00 0.000000000000D+00 0.380434092662D-05 0.818922912476D-08  6 -3 21 25 23 -3 21 4 0.21500773D-01 0.70289118D-01 0.43546503D+05 0.43546503D+05 0.43546503D+05 0.11982717D+01  3  4 11  5  5  2        3 0.576929968948D-02 0.100000000000D+01
  </mgrwgt>
  </event>
  <event>
  5     66 0.44820762E-03 0.77038582E+02 0.75467711E-02 0.11369158E+00
       -1 -1    0    0    0  501 0.00000000E+00 0.00000000E+00 0.52813648E+02 0.52814617E+02 0.32000000E+00 0.0000E+00 0.9000E+01
        1 -1    0    0  502    0 0.00000000E+00 0.00000000E+00 -.20095394E+04 0.20095394E+04 0.32000000E+00 0.0000E+00 0.9000E+01
       25  1    1    2    0    0 0.14390777E+03 -.56156733E+02 -.44535279E+03 0.48767523E+03 0.12500000E+03 0.0000E+00 0.9000E+01
       23  1    1    2    0    0 -.65480209E+02 -.76218887E+01 -.76074100E+02 0.13582441E+03 0.91188000E+02 0.0000E+00 0.9000E+01
       21  1    1    2  502  501 -.78427560E+02 0.63778621E+02 -.14352988E+04 0.14388544E+04 0.75000000E+00 0.0000E+00 0.9000E+01
#aMCatNLO 1  0  0  2  5 0.18737262D+02 0.00000000D+00  -5  6  0 0.00000000D+00 0.00000000D+00 0.00000000D+00 0.00000000D+00 0.00000000D+00
  <mgrwgt>
 0.2739559883D-01    9    4    0
 0.325779267306940D+03 0.000000000000000D+00 0.000000000000000D+00 0.325779267306940D+03
 0.325779267306940D+03 0.000000000000000D+00 0.000000000000000D+00 -.325779267306940D+03
 0.206160818090529D+03 0.143907885872217D+03 -.561568279785972D+02 0.549018576272919D+02
 0.201458532760292D+03 -.654800939456522D+02 -.762198193321897D+01 0.167106408513282D+03
 0.243939183763060D+03 -.784277919265647D+02 0.637788099118162D+02 -.222008266140574D+03
 0.000000000000000D+00 -.000000000000000D+00 -.000000000000000D+00 -.000000000000000D+00
 0.327301840869076D+03 0.000000000000000D+00 0.000000000000000D+00 0.327301840869076D+03
 0.389154651517680D+03 0.000000000000000D+00 0.000000000000000D+00 -.389154651517680D+03
 0.206340771996819D+03 0.146180938035110D+03 -.506797155920503D+02 0.549018576272919D+02
 0.200617577258515D+03 -.632644904340815D+02 -.228329695493256D+01 0.167106408513282D+03
 0.244869549054779D+03 -.757342562552537D+02 0.702691130512585D+02 -.222008266140574D+03
 0.646285940766431D+02 -.718219134577532D+01 -.173061005042756D+02 -.618528106486042D+02
 0.325779267306940D+03 0.000000000000000D+00 0.000000000000000D+00 0.325779267306940D+03
 0.325779267306940D+03 0.000000000000000D+00 0.000000000000000D+00 -.325779267306940D+03
 0.206160818090529D+03 0.143907885872217D+03 -.561568279785972D+02 0.549018576272919D+02
 0.201458532760292D+03 -.654800939456522D+02 -.762198193321897D+01 0.167106408513282D+03
 0.000000000000000D+00 -.000000000000000D+00 -.000000000000000D+00 -.000000000000000D+00
 0.243939183763060D+03 -.784277919265647D+02 0.637788099118162D+02 -.222008266140574D+03
 0.327301840869076D+03 0.000000000000000D+00 0.000000000000000D+00 0.327301840869076D+03
 0.389154651517680D+03 0.000000000000000D+00 0.000000000000000D+00 -.389154651517680D+03
 0.206340771996819D+03 0.146180938035110D+03 -.506797155920503D+02 0.549018576272919D+02
 0.200617577258515D+03 -.632644904340815D+02 -.228329695493256D+01 0.167106408513282D+03
 0.646285940766431D+02 -.718219134577532D+01 -.173061005042756D+02 -.618528106486042D+02
 0.244869549054779D+03 -.757342562552537D+02 0.702691130512585D+02 -.222008266140574D+03
0.994368754414D-04 0.000000000000D+00 0.000000000000D+00 0.230328543700D-05 0.000000000000D+00  6 -1 1 25 23 21 21 2 0.81252532D-02 0.30915998D+00 0.42502868D+05 0.42502868D+05 0.42502868D+05 0.11993328D+01  1  2  2  2  6  2        1 0.406254920180D-02 0.100000000000D+01
-.243950802712D-05 0.524742808199D-05 -.381863784026D-06 0.230328543700D-05 0.000000000000D+00  6 -1 1 25 23 21 21 4 0.81252532D-02 0.30915998D+00 0.42502868D+05 0.42502868D+05 0.42502868D+05 0.11993328D+01  1  2  3  2  6  2        1 -.143361590477D-03 0.100000000000D+01
0.445190447747D-05 0.000000000000D+00 0.000000000000D+00 0.230328543700D-05 0.000000000000D+00  6 -1 1 25 23 21 21 4 0.81252532D-02 0.30915998D+00 0.42502868D+05 0.42502868D+05 0.42502868D+05 0.11993328D+01  1  2 15  2  6  2        1 0.261623286108D-03 0.100000000000D+01
0.158615588661D-02 0.000000000000D+00 0.000000000000D+00 0.228773934522D-05 0.000000000000D+00  6 -1 1 25 23 21 21 4 0.81252532D-02 0.39120339D+00 0.46647502D+05 0.46647502D+05 0.46647502D+05 0.11952784D+01  1  2 12  2  6  2        1 0.411708409797D-01 0.100000000000D+01
-.135355923679D-02 0.000000000000D+00 0.000000000000D+00 0.230328543700D-05 0.000000000000D+00  6 -1 1 25 23 21 21 4 0.81252532D-02 0.30915998D+00 0.42502868D+05 0.42502868D+05 0.42502868D+05 0.11993328D+01  1  2  4  2  6  2        1 -.795440731630D-01 0.100000000000D+01
-.241129524664D-02 0.000000000000D+00 -.112286983833D-03 0.230328543700D-05 0.000000000000D+00  6 -1 1 25 23 21 21 4 0.81252532D-02 0.36980883D+00 0.42502868D+05 0.42502868D+05 0.42502868D+05 0.11993328D+01  1  2  5  2  6  2        1 -.786258981819D-01 0.100000000000D+01
0.239466542179D-02 0.000000000000D+00 0.110509304213D-03 0.230328543700D-05 0.000000000000D+00  6 -1 1 25 23 21 21 4 0.81252532D-02 0.30915998D+00 0.42502868D+05 0.42502868D+05 0.42502868D+05 0.11993328D+01  1  2  6  2  6  2        1 0.140726343063D+00 0.100000000000D+01
0.513339374734D-04 0.000000000000D+00 0.000000000000D+00 0.228773934522D-05 0.000000000000D+00  6 -1 21 25 23 -1 21 4 0.81252532D-02 0.39120339D+00 0.46647502D+05 0.46647502D+05 0.46647502D+05 0.11952784D+01  3  4 12  5  5  2        1 0.752690037302D-03 0.100000000000D+01
-.622858259722D-04 0.000000000000D+00 -.295019807347D-05 0.230328543700D-05 0.000000000000D+00  6 -1 21 25 23 -1 21 4 0.81252532D-02 0.36980883D+00 0.42502868D+05 0.42502868D+05 0.42502868D+05 0.11993328D+01  3  4  5  5  5  2        1 -.126511480427D-02 0.100000000000D+01
  </mgrwgt>
  </event>
  <event>
  5     66 0.44820762E-03 0.30576579E+02 0.75467711E-02 0.11468286E+00
       -1 -1    0    0    0  501 0.00000000E+00 0.00000000E+00 0.11144198E+03 0.11144243E+03 0.32000000E+00 0.0000E+00 0.9000E+01
        1 -1    0    0  502    0 -.00000000E+00 -.00000000E+00 -.76196089E+03 0.76196096E+03 0.32000000E+00 0.0000E+00 0.9000E+01
       25  1    1    2    0    0 0.15239723E+02 0.15748702E+03 -.62565209E+03 0.65734310E+03 0.12500000E+03 0.0000E+00 0.9000E+01
       23  1    1    2    0    0 0.13962215E+02 -.14842655E+03 -.43703454E+02 0.18014057E+03 0.91188000E+02 0.0000E+00 0.9000E+01
       21  1    1    2  502  501 -.29201938E+02 -.90604752E+01 0.18836626E+02 0.35919722E+02 0.75000000E+00 0.0000E+00 0.9000E+01
#aMCatNLO 1  0  0  5  1 0.61356213D+01 0.00000000D+00  -5  6  0 0.00000000D+00 0.00000000D+00 0.00000000D+00 0.00000000D+00 0.00000000D+00
  <mgrwgt>
 0.1763937221D+00   20    2    0
 0.291401195643042D+03 0.000000000000000D+00 0.000000000000000D+00 0.291401195643042D+03
 0.291401195643042D+03 -.000000000000000D+00 -.000000000000000D+00 -.291401195643042D+03
 0.286766095733803D+03 0.152404442609187D+02 0.157487246461608D+03 -.203900195495442D+03
 0.221181236783646D+03 0.139627716372436D+02 -.148426374908810D+03 0.135574851653169D+03
 0.748550587686354D+02 -.292032158981624D+02 -.906087155279803D+01 0.683253438422733D+02
 0.000000000000000D+00 -.000000000000000D+00 0.000000000000000D+00 0.000000000000000D+00
 0.291401195643042D+03 0.000000000000000D+00 0.000000000000000D+00 0.291401195643042D+03
 0.291401195643042D+03 -.000000000000000D+00 -.000000000000000D+00 -.291401195643042D+03
 0.286163123968900D+03 0.149206381496850D+02 0.157388020331657D+03 -.203151960691813D+03
 0.221572083896785D+03 0.137156290359357D+02 -.148503055757025D+03 0.136153079176854D+03
 0.604819577046446D+02 -.179026283625081D+02 -.860057770853888D+01 0.571278668302933D+02
 0.145852257157549D+02 -.107336388231126D+02 -.284386866093521D+00 0.987101468466543D+01
0.538301986539D-03 0.000000000000D+00 0.000000000000D+00 0.676815235468D-05 0.000000000000D+00  6 -1 1 25 23 21 21 2 0.17144960D-01 0.11722479D+00 0.41407628D+05 0.41407628D+05 0.41407628D+05 0.12004779D+01  1  2  2  3  6  5       21 0.503084863566D-01 0.100000000000D+01
0.683218611890D-04 0.284069762673D-04 -.206722136648D-05 0.676815235468D-05 0.000000000000D+00  6 -1 1 25 23 21 21 4 0.17144960D-01 0.11722479D+00 0.41407628D+05 0.41407628D+05 0.41407628D+05 0.12004779D+01  1  2  3  3  6  5       21 0.920202309502D-02 0.100000000000D+01
0.146476839234D-04 0.000000000000D+00 0.000000000000D+00 0.676815235468D-05 0.000000000000D+00  6 -1 1 25 23 21 21 4 0.17144960D-01 0.11722479D+00 0.41407628D+05 0.41407628D+05 0.41407628D+05 0.12004779D+01  1  2 15  3  6  5       21 0.197284329505D-02 0.100000000000D+01
0.961929469707D-03 0.000000000000D+00 0.000000000000D+00 0.676823428201D-05 0.000000000000D+00  6 -1 1 25 23 21 21 4 0.17144960D-01 0.11722479D+00 0.41400780D+05 0.41400780D+05 0.41400780D+05 0.12004852D+01  1  2 12  3  6  5       21 0.129562043852D+00 0.100000000000D+01
0.114220822060D-02 0.000000000000D+00 0.000000000000D+00 0.676823428201D-05 0.000000000000D+00  6 -1 1 25 23 21 21 4 0.17144960D-01 0.11722479D+00 0.41400780D+05 0.41400780D+05 0.41400780D+05 0.12004852D+01  1  2 12  3  6  5       21 0.153843744500D+00 0.100000000000D+01
-.299998896976D-02 0.000000000000D+00 0.000000000000D+00 0.676815235468D-05 0.000000000000D+00  6 -1 1 25 23 21 21 4 0.17144960D-01 0.11722479D+00 0.41407628D+05 0.41407628D+05 0.41407628D+05 0.12004779D+01  1  2  4  3  6  5       21 -.404057607684D+00 0.100000000000D+01
-.537050702543D-02 0.000000000000D+00 0.000000000000D+00 0.676815235468D-05 0.000000000000D+00  6 -1 1 25 23 21 21 4 0.17144960D-01 0.11722479D+00 0.41407628D+05 0.41407628D+05 0.41407628D+05 0.12004779D+01  1  2  5  3  6  5       21 -.723334066431D+00 0.100000000000D+01
0.709866117150D-02 0.000000000000D+00 -.000000000000D+00 0.676815235468D-05 0.000000000000D+00  6 -1 1 25 23 21 21 4 0.17144960D-01 0.11722479D+00 0.41407628D+05 0.41407628D+05 0.41407628D+05 0.12004779D+01  1  2  6  3  6  5       21 0.956092865550D+00 0.100000000000D+01
0.267219032986D-04 0.000000000000D+00 0.000000000000D+00 0.676823428201D-05 0.000000000000D+00  6 -1 1 25 23 1 -1 4 0.17144960D-01 0.11722479D+00 0.41400780D+05 0.41400780D+05 0.41400780D+05 0.12004852D+01  1  2 12  6  6  5       21 0.359916658758D-02 0.100000000000D+01
0.295963802949D-04 0.000000000000D+00 0.000000000000D+00 0.676823428201D-05 0.000000000000D+00  6 -1 1 25 23 1 -1 4 0.17144960D-01 0.11722479D+00 0.41400780D+05 0.41400780D+05 0.41400780D+05 0.12004852D+01  1  2 12  6  6  5       21 0.398632918771D-02 0.100000000000D+01
-.511161498597D-04 0.000000000000D+00 0.000000000000D+00 0.676815235468D-05 0.000000000000D+00  6 -1 1 25 23 1 -1 4 0.17144960D-01 0.11722479D+00 0.41407628D+05 0.41407628D+05 0.41407628D+05 0.12004779D+01  1  2  5  6  6  5       21 -.688464838855D-02 0.100000000000D+01
0.267219032986D-04 0.000000000000D+00 0.000000000000D+00 0.676823428201D-05 0.000000000000D+00  6 -1 1 25 23 2 -2 4 0.17144960D-01 0.11722479D+00 0.41400780D+05 0.41400780D+05 0.41400780D+05 0.12004852D+01  1  2 12  7  6  5       21 0.359916658758D-02 0.100000000000D+01
0.267219032986D-04 0.000000000000D+00 0.000000000000D+00 0.676823428201D-05 0.000000000000D+00  6 -1 1 25 23 4 -4 4 0.17144960D-01 0.11722479D+00 0.41400780D+05 0.41400780D+05 0.41400780D+05 0.12004852D+01  1  2 12  7  6  5       21 0.359916658758D-02 0.100000000000D+01
0.295963802949D-04 0.000000000000D+00 0.000000000000D+00 0.676823428201D-05 0.000000000000D+00  6 -1 1 25 23 2 -2 4 0.17144960D-01 0.11722479D+00 0.41400780D+05 0.41400780D+05 0.41400780D+05 0.12004852D+01  1  2 12  7  6  5       21 0.398632918771D-02 0.100000000000D+01
0.295963802949D-04 0.000000000000D+00 0.000000000000D+00 0.676823428201D-05 0.000000000000D+00  6 -1 1 25 23 4 -4 4 0.17144960D-01 0.11722479D+00 0.41400780D+05 0.41400780D+05 0.41400780D+05 0.12004852D+01  1  2 12  7  6  5       21 0.398632918771D-02 0.100000000000D+01
-.511161498597D-04 0.000000000000D+00 0.000000000000D+00 0.676815235468D-05 0.000000000000D+00  6 -1 1 25 23 2 -2 4 0.17144960D-01 0.11722479D+00 0.41407628D+05 0.41407628D+05 0.41407628D+05 0.12004779D+01  1  2  5  7  6  5       21 -.688464838855D-02 0.100000000000D+01
-.511161498597D-04 0.000000000000D+00 0.000000000000D+00 0.676815235468D-05 0.000000000000D+00  6 -1 1 25 23 4 -4 4 0.17144960D-01 0.11722479D+00 0.41407628D+05 0.41407628D+05 0.41407628D+05 0.12004779D+01  1  2  5  7  6  5       21 -.688464838855D-02 0.100000000000D+01
0.267219032986D-04 0.000000000000D+00 0.000000000000D+00 0.676823428201D-05 0.000000000000D+00  6 -1 1 25 23 3 -3 4 0.17144960D-01 0.11722479D+00 0.41400780D+05 0.41400780D+05 0.41400780D+05 0.12004852D+01  1  2 12  8  6  5       21 0.359916658758D-02 0.100000000000D+01
0.295963802949D-04 0.000000000000D+00 0.000000000000D+00 0.676823428201D-05 0.000000000000D+00  6 -1 1 25 23 3 -3 4 0.17144960D-01 0.11722479D+00 0.41400780D+05 0.41400780D+05 0.41400780D+05 0.12004852D+01  1  2 12  8  6  5       21 0.398632918771D-02 0.100000000000D+01
-.511161498597D-04 0.000000000000D+00 0.000000000000D+00 0.676815235468D-05 0.000000000000D+00  6 -1 1 25 23 3 -3 4 0.17144960D-01 0.11722479D+00 0.41407628D+05 0.41407628D+05 0.41407628D+05 0.12004779D+01  1  2  5  8  6  5       21 -.688464838855D-02 0.100000000000D+01
  </mgrwgt>
  </event>
  <event>
  5     66 -.44820762E-03 0.35003541E+02 0.75467711E-02 0.11510000E+00
       -1 -1    0    0    0  501 0.00000000E+00 0.00000000E+00 0.32362154E+04 0.32362154E+04 0.32000000E+00 0.0000E+00 0.9000E+01
        1 -1    0    0  502    0 0.00000000E+00 0.00000000E+00 -.15990822E+02 0.15994024E+02 0.32000000E+00 0.0000E+00 0.9000E+01
       25  1    1    2    0    0 0.10051557E+03 0.12547911E+03 0.24339447E+04 0.24424496E+04 0.12500000E+03 0.0000E+00 0.9000E+01
       23  1    1    2    0    0 -.69447376E+02 -.10936712E+03 0.63127775E+03 0.65085402E+03 0.91188000E+02 0.0000E+00 0.9000E+01
       21  1    1    2  502  501 -.31068196E+02 -.16111992E+02 0.15500218E+03 0.15890584E+03 0.75000000E+00 0.0000E+00 0.9000E+01
#aMCatNLO 1  0  0  5  2 0.58672873D+00 0.00000000D+00  -5  6  0 0.00000000D+00 0.00000000D+00 0.00000000D+00 0.00000000D+00 0.00000000D+00
  <mgrwgt>
 -.1206524126D-01   25    2    0
 0.227497202947552D+03 0.000000000000000D+00 0.000000000000000D+00 0.227497202947552D+03
 0.227497202947552D+03 -.000000000000000D+00 -.000000000000000D+00 -.227497202947552D+03
 0.231894066299210D+03 0.100518531235689D+03 0.125480643519638D+03 0.110907578482715D+03
 0.184302111850538D+03 -.694450242738626D+02 -.109365896849344D+03 -.941727471114089D+02
 0.387982277453560D+02 -.310735069618264D+02 -.161147466702945D+02 -.167348313713066D+02
 0.000000000000000D+00 0.000000000000000D+00 0.000000000000000D+00 -.000000000000000D+00
 0.227497202947552D+03 0.000000000000000D+00 0.000000000000000D+00 0.227497202947552D+03
 0.227497202947552D+03 -.000000000000000D+00 -.000000000000000D+00 -.227497202947552D+03
 0.231867028018113D+03 0.100490703367515D+03 0.125466211963955D+03 0.110892591610397D+03
 0.184323341150764D+03 -.694671435517354D+02 -.109377367925328D+03 -.941846595867439D+02
 0.274666193295866D+01 -.243553801552467D+01 -.109327798737382D+01 -.645793768336255D+00
 0.360573747932687D+02 -.285880218002547D+02 -.149955660512531D+02 -.160621382553169D+02
0.167887374309D-02 0.000000000000D+00 0.000000000000D+00 0.711810496971D-05 0.000000000000D+00  6 -1 1 25 23 21 21 2 0.49787954D+00 0.24603740D-02 0.39418528D+05 0.39418528D+05 0.39418528D+05 0.12026466D+01  1  2  2  3  6  5       21 0.211802758367D-02 0.100000000000D+01
0.290433219213D-03 0.885966014768D-04 -.644731723106D-05 0.711810496971D-05 0.000000000000D+00  6 -1 1 25 23 21 21 4 0.49787954D+00 0.24603740D-02 0.39418528D+05 0.39418528D+05 0.39418528D+05 0.12026466D+01  1  2  3  3  6  5       21 0.529951257139D-03 0.100000000000D+01
0.229262196107D-04 0.000000000000D+00 0.000000000000D+00 0.711810496971D-05 0.000000000000D+00  6 -1 1 25 23 21 21 4 0.49787954D+00 0.24603740D-02 0.39418528D+05 0.39418528D+05 0.39418528D+05 0.12026466D+01  1  2 15  3  6  5       21 0.418332962635D-04 0.100000000000D+01
0.424648636273D-11 0.000000000000D+00 0.000000000000D+00 0.711825422810D-05 0.000000000000D+00  6 -1 1 25 23 21 21 4 0.49787954D+00 0.24603740D-02 0.39407278D+05 0.39407278D+05 0.39407278D+05 0.12026592D+01  1  2 12  3  6  5       21 0.774892257558D-11 0.100000000000D+01
0.423651104833D-11 0.000000000000D+00 0.000000000000D+00 0.711825422810D-05 0.000000000000D+00  6 -1 1 25 23 21 21 4 0.49787954D+00 0.24603740D-02 0.39407278D+05 0.39407278D+05 0.39407278D+05 0.12026592D+01  1  2 12  3  6  5       21 0.773071977628D-11 0.100000000000D+01
-.510514824801D-01 0.000000000000D+00 0.000000000000D+00 0.711810496971D-05 0.000000000000D+00  6 -1 1 25 23 21 21 4 0.49787954D+00 0.24603740D-02 0.39418528D+05 0.39418528D+05 0.39418528D+05 0.12026466D+01  1  2  4  3  6  5       21 -.931532466996D-01 0.100000000000D+01
-.116010150001D-02 0.000000000000D+00 0.000000000000D+00 0.711810496971D-05 0.000000000000D+00  6 -1 1 25 23 21 21 4 0.49787954D+00 0.24603740D-02 0.39418528D+05 0.39418528D+05 0.39418528D+05 0.12026466D+01  1  2  5  3  6  5       21 -.211682826780D-02 0.100000000000D+01
0.431425413300D-01 0.000000000000D+00 -.000000000000D+00 0.711810496971D-05 0.000000000000D+00  6 -1 1 25 23 21 21 4 0.49787954D+00 0.24603740D-02 0.39418528D+05 0.39418528D+05 0.39418528D+05 0.12026466D+01  1  2  6  3  6  5       21 0.787218627260D-01 0.100000000000D+01
0.110911174427D-02 0.000000000000D+00 0.000000000000D+00 0.711810496971D-05 0.148263055946D-03  6 -1 1 25 23 21 21 4 0.49787954D+00 0.24603740D-02 0.39407278D+05 0.39407278D+05 0.39407278D+05 0.12026592D+01  1  2 11  3  6  5       21 0.202388994097D-02 0.100000000000D+01
0.462196264108D-11 0.000000000000D+00 0.000000000000D+00 0.711825422810D-05 0.000000000000D+00  6 -1 1 25 23 1 -1 4 0.49787954D+00 0.24603740D-02 0.39407278D+05 0.39407278D+05 0.39407278D+05 0.12026592D+01  1  2 12  6  6  5       21 0.843408587562D-11 0.100000000000D+01
0.461794096234D-11 0.000000000000D+00 0.000000000000D+00 0.711825422810D-05 0.000000000000D+00  6 -1 1 25 23 1 -1 4 0.49787954D+00 0.24603740D-02 0.39407278D+05 0.39407278D+05 0.39407278D+05 0.12026592D+01  1  2 12  6  6  5       21 0.842674717851D-11 0.100000000000D+01
-.125888556520D-02 0.000000000000D+00 0.000000000000D+00 0.711810496971D-05 0.000000000000D+00  6 -1 1 25 23 1 -1 4 0.49787954D+00 0.24603740D-02 0.39418528D+05 0.39418528D+05 0.39418528D+05 0.12026466D+01  1  2  5  6  6  5       21 -.229707879037D-02 0.100000000000D+01
0.123523657047D-02 0.000000000000D+00 0.000000000000D+00 0.711810496971D-05 0.143739598789D-05  6 -1 1 25 23 1 -1 4 0.49787954D+00 0.24603740D-02 0.39407278D+05 0.39407278D+05 0.39407278D+05 0.12026592D+01  1  2 11  6  6  5       21 0.225404057130D-02 0.100000000000D+01
0.462196264108D-11 0.000000000000D+00 0.000000000000D+00 0.711825422810D-05 0.000000000000D+00  6 -1 1 25 23 2 -2 4 0.49787954D+00 0.24603740D-02 0.39407278D+05 0.39407278D+05 0.39407278D+05 0.12026592D+01  1  2 12  7  6  5       21 0.843408587562D-11 0.100000000000D+01
0.462196264108D-11 0.000000000000D+00 0.000000000000D+00 0.711825422810D-05 0.000000000000D+00  6 -1 1 25 23 4 -4 4 0.49787954D+00 0.24603740D-02 0.39407278D+05 0.39407278D+05 0.39407278D+05 0.12026592D+01  1  2 12  7  6  5       21 0.843408587562D-11 0.100000000000D+01
0.461794096234D-11 0.000000000000D+00 0.000000000000D+00 0.711825422810D-05 0.000000000000D+00  6 -1 1 25 23 2 -2 4 0.49787954D+00 0.24603740D-02 0.39407278D+05 0.39407278D+05 0.39407278D+05 0.12026592D+01  1  2 12  7  6  5       21 0.842674717851D-11 0.100000000000D+01
0.461794096234D-11 0.000000000000D+00 0.000000000000D+00 0.711825422810D-05 0.000000000000D+00  6 -1 1 25 23 4 -4 4 0.49787954D+00 0.24603740D-02 0.39407278D+05 0.39407278D+05 0.39407278D+05 0.12026592D+01  1  2 12  7  6  5       21 0.842674717851D-11 0.100000000000D+01
-.125888556520D-02 0.000000000000D+00 0.000000000000D+00 0.711810496971D-05 0.000000000000D+00  6 -1 1 25 23 2 -2 4 0.49787954D+00 0.24603740D-02 0.39418528D+05 0.39418528D+05 0.39418528D+05 0.12026466D+01  1  2  5  7  6  5       21 -.229707879037D-02 0.100000000000D+01
-.125888556520D-02 0.000000000000D+00 0.000000000000D+00 0.711810496971D-05 0.000000000000D+00  6 -1 1 25 23 4 -4 4 0.49787954D+00 0.24603740D-02 0.39418528D+05 0.39418528D+05 0.39418528D+05 0.12026466D+01  1  2  5  7  6  5       21 -.229707879037D-02 0.100000000000D+01
0.122453655404D-02 0.000000000000D+00 0.000000000000D+00 0.711810496971D-05 0.142435430790D-05  6 -1 1 25 23 2 -2 4 0.49787954D+00 0.24603740D-02 0.39407278D+05 0.39407278D+05 0.39407278D+05 0.12026592D+01  1  2 11  7  6  5       21 0.223451534697D-02 0.100000000000D+01
0.122453655404D-02 0.000000000000D+00 0.000000000000D+00 0.711810496971D-05 0.142435430790D-05  6 -1 1 25 23 4 -4 4 0.49787954D+00 0.24603740D-02 0.39407278D+05 0.39407278D+05 0.39407278D+05 0.12026592D+01  1  2 11  7  6  5       21 0.223451534697D-02 0.100000000000D+01
0.462196264108D-11 0.000000000000D+00 0.000000000000D+00 0.711825422810D-05 0.000000000000D+00  6 -1 1 25 23 3 -3 4 0.49787954D+00 0.24603740D-02 0.39407278D+05 0.39407278D+05 0.39407278D+05 0.12026592D+01  1  2 12  8  6  5       21 0.843408587562D-11 0.100000000000D+01
0.461794096234D-11 0.000000000000D+00 0.000000000000D+00 0.711825422810D-05 0.000000000000D+00  6 -1 1 25 23 3 -3 4 0.49787954D+00 0.24603740D-02 0.39407278D+05 0.39407278D+05 0.39407278D+05 0.12026592D+01  1  2 12  8  6  5       21 0.842674717851D-11 0.100000000000D+01
-.125888556520D-02 0.000000000000D+00 0.000000000000D+00 0.711810496971D-05 0.000000000000D+00  6 -1 1 25 23 3 -3 4 0.49787954D+00 0.24603740D-02 0.39418528D+05 0.39418528D+05 0.39418528D+05 0.12026466D+01  1  2  5  8  6  5       21 -.229707879037D-02 0.100000000000D+01
0.122453511152D-02 0.000000000000D+00 0.000000000000D+00 0.711810496971D-05 0.142435262999D-05  6 -1 1 25 23 3 -3 4 0.49787954D+00 0.24603740D-02 0.39407278D+05 0.39407278D+05 0.39407278D+05 0.12026592D+01  1  2 11  8  6  5       21 0.223451271469D-02 0.100000000000D+01
  </mgrwgt>
  </event>
  <event>
  5     66 0.44820762E-03 0.65663089E+02 0.75467711E-02 0.11585721E+00
       -3 -1    0    0    0  501 0.00000000E+00 0.00000000E+00 0.60300827E+03 0.60300847E+03 0.50000000E+00 0.0000E+00 0.9000E+01
        3 -1    0    0  502    0 0.00000000E+00 0.00000000E+00 -.13667129E+03 0.13667221E+03 0.50000000E+00 0.0000E+00 0.9000E+01
       25  1    1    2    0    0 0.59891206E+01 -.81499538E+02 -.47243764E+02 0.15663658E+03 0.12500000E+03 0.0000E+00 0.9000E+01
       23  1    1    2    0    0 0.48105389E+02 0.11872010E+03 0.16342957E+03 0.22678859E+03 0.91188000E+02 0.0000E+00 0.9000E+01
       21  1    1    2  502  501 -.54094510E+02 -.37220558E+02 0.35015117E+03 0.35625551E+03 0.75000000E+00 0.0000E+00 0.9000E+01
#aMCatNLO 1  0  0  5  2 0.12432114D+02 0.00000000D+00  -5  6  0 0.00000000D+00 0.00000000D+00 0.00000000D+00 0.00000000D+00 0.00000000D+00
  <mgrwgt>
 0.7686738623D-02   15    2    0
 0.287078967602779D+03 0.000000000000000D+00 0.000000000000000D+00 0.287078967602779D+03
 0.287078967602779D+03 -.000000000000000D+00 -.000000000000000D+00 -.287078967602779D+03
 0.240165312904439D+03 0.598932946988011D+01 -.814993946852848D+02 -.188086028510680D+03
 0.159429851342286D+03 0.481055279479120D+02 0.118720191411475D+03 0.263438889896433D+02
 0.174562770958834D+03 -.540948574177920D+02 -.372207967261903D+02 0.161742139521037D+03
 0.000000000000000D+00 0.000000000000000D+00 0.000000000000000D+00 0.000000000000000D+00
 0.287078967602779D+03 0.000000000000000D+00 0.000000000000000D+00 0.287078967602779D+03
 0.287078967602779D+03 -.000000000000000D+00 -.000000000000000D+00 -.287078967602779D+03
 0.239106245595431D+03 0.549140041280636D+01 -.818420024136732D+02 -.186597234291319D+03
 0.159327410889724D+03 0.477743618267355D+02 0.118492327480090D+03 0.273340666060159D+02
 0.150811517028969D+03 -.547075656117147D+02 -.226600783325591D+02 0.138700096551449D+03
 0.249127616914338D+02 0.144180337217294D+01 -.139902467338581D+02 0.205630711338539D+02
0.348601626419D-03 0.000000000000D+00 0.000000000000D+00 0.313919924919D-05 0.000000000000D+00  6 -3 3 25 23 21 21 2 0.92770589D-01 0.21026439D-01 0.34641276D+05 0.34641276D+05 0.34641276D+05 0.12083958D+01  1  2  2  3  6  5       21 0.272340493855D-02 0.100000000000D+01
0.275960472102D-05 0.183962132335D-04 -.133872203436D-05 0.313919924919D-05 0.000000000000D+00  6 -3 3 25 23 21 21 4 0.92770589D-01 0.21026439D-01 0.34641276D+05 0.34641276D+05 0.34641276D+05 0.12083958D+01  1  2  3  3  6  5       21 0.314809718737D-04 0.100000000000D+01
0.970501758634D-05 0.000000000000D+00 0.000000000000D+00 0.313919924919D-05 0.000000000000D+00  6 -3 3 25 23 21 21 4 0.92770589D-01 0.21026439D-01 0.34641276D+05 0.34641276D+05 0.34641276D+05 0.12083958D+01  1  2 15  3  6  5       21 0.110712734814D-03 0.100000000000D+01
0.200705399207D-02 0.000000000000D+00 0.000000000000D+00 0.312992092647D-05 0.000000000000D+00  6 -3 3 25 23 21 21 4 0.92770589D-01 0.21026439D-01 0.36053365D+05 0.36053365D+05 0.36053365D+05 0.12066087D+01  1  2 12  3  6  5       21 0.227978348697D-01 0.100000000000D+01
-.205368891432D-02 0.000000000000D+00 0.000000000000D+00 0.313919924919D-05 0.000000000000D+00  6 -3 3 25 23 21 21 4 0.92770589D-01 0.21026439D-01 0.34641276D+05 0.34641276D+05 0.34641276D+05 0.12083958D+01  1  2  4  3  6  5       21 -.234280375217D-01 0.100000000000D+01
-.379874410022D-02 0.000000000000D+00 0.000000000000D+00 0.313919924919D-05 0.000000000000D+00  6 -3 3 25 23 21 21 4 0.92770589D-01 0.21026439D-01 0.34641276D+05 0.34641276D+05 0.34641276D+05 0.12083958D+01  1  2  5  3  6  5       21 -.433352484374D-01 0.100000000000D+01
0.438620447528D-02 0.000000000000D+00 -.000000000000D+00 0.313919924919D-05 0.000000000000D+00  6 -3 3 25 23 21 21 4 0.92770589D-01 0.21026439D-01 0.34641276D+05 0.34641276D+05 0.34641276D+05 0.12083958D+01  1  2  6  3  6  5       21 0.500368689280D-01 0.100000000000D+01
0.202670366637D-04 0.000000000000D+00 0.000000000000D+00 0.312992092647D-05 0.000000000000D+00  6 -3 3 25 23 3 -3 4 0.92770589D-01 0.21026439D-01 0.36053365D+05 0.36053365D+05 0.36053365D+05 0.12066087D+01  1  2 12  6  6  5       21 0.230210326668D-03 0.100000000000D+01
-.475797787436D-04 0.000000000000D+00 0.000000000000D+00 0.313919924919D-05 0.000000000000D+00  6 -3 3 25 23 3 -3 4 0.92770589D-01 0.21026439D-01 0.34641276D+05 0.34641276D+05 0.34641276D+05 0.12083958D+01  1  2  5  6  6  5       21 -.542779791967D-03 0.100000000000D+01
0.202670366637D-04 0.000000000000D+00 0.000000000000D+00 0.312992092647D-05 0.000000000000D+00  6 -3 3 25 23 2 -2 4 0.92770589D-01 0.21026439D-01 0.36053365D+05 0.36053365D+05 0.36053365D+05 0.12066087D+01  1  2 12  7  6  5       21 0.230210326668D-03 0.100000000000D+01
0.202670366637D-04 0.000000000000D+00 0.000000000000D+00 0.312992092647D-05 0.000000000000D+00  6 -3 3 25 23 4 -4 4 0.92770589D-01 0.21026439D-01 0.36053365D+05 0.36053365D+05 0.36053365D+05 0.12066087D+01  1  2 12  7  6  5       21 0.230210326668D-03 0.100000000000D+01
-.475797787436D-04 0.000000000000D+00 0.000000000000D+00 0.313919924919D-05 0.000000000000D+00  6 -3 3 25 23 2 -2 4 0.92770589D-01 0.21026439D-01 0.34641276D+05 0.34641276D+05 0.34641276D+05 0.12083958D+01  1  2  5  7  6  5       21 -.542779791967D-03 0.100000000000D+01
-.475797787436D-04 0.000000000000D+00 0.000000000000D+00 0.313919924919D-05 0.000000000000D+00  6 -3 3 25 23 4 -4 4 0.92770589D-01 0.21026439D-01 0.34641276D+05 0.34641276D+05 0.34641276D+05 0.12083958D+01  1  2  5  7  6  5       21 -.542779791967D-03 0.100000000000D+01
0.202670366637D-04 0.000000000000D+00 0.000000000000D+00 0.312992092647D-05 0.000000000000D+00  6 -3 3 25 23 1 -1 4 0.92770589D-01 0.21026439D-01 0.36053365D+05 0.36053365D+05 0.36053365D+05 0.12066087D+01  1  2 12  8  6  5       21 0.230210326668D-03 0.100000000000D+01
-.475797787436D-04 0.000000000000D+00 0.000000000000D+00 0.313919924919D-05 0.000000000000D+00  6 -3 3 25 23 1 -1 4 0.92770589D-01 0.21026439D-01 0.34641276D+05 0.34641276D+05 0.34641276D+05 0.12083958D+01  1  2  5  8  6  5       21 -.542779791967D-03 0.100000000000D+01
  </mgrwgt>
  </event>
  <event>
  5     66 -.44820762E-03 0.20254610E+02 0.75467711E-02 0.12268044E+00
       -1 -1    0    0    0  501 0.00000000E+00 0.00000000E+00 0.15587361E+03 0.15587394E+03 0.32000000E+00 0.0000E+00 0.9000E+01
        1 -1    0    0  502    0 -.00000000E+00 -.00000000E+00 -.34729240E+03 0.34729255E+03 0.32000000E+00 0.0000E+00 0.9000E+01
       25  1    1    2    0    0 0.37983222E+02 0.30920485E+02 0.24574331E+02 0.13648333E+03 0.12500000E+03 0.0000E+00 0.9000E+01
       23  1    1    2    0    0 -.26765975E+02 -.47785168E+02 0.37192870E+02 0.11268718E+03 0.91188000E+02 0.0000E+00 0.9000E+01
       21  1    1    2  502  501 -.11217247E+02 0.16864683E+02 -.25318599E+03 0.25399597E+03 0.75000000E+00 0.0000E+00 0.9000E+01
#aMCatNLO 1  0  0  5  1 0.35400398D+01 0.00000000D+00  -5  6  0 0.00000000D+00 0.00000000D+00 0.00000000D+00 0.00000000D+00 0.00000000D+00
  <mgrwgt>
 -.8705886220D-01   13    2    0
 0.232666797452581D+03 0.000000000000000D+00 0.000000000000000D+00 0.232666797452581D+03
 0.232666797452581D+03 -.000000000000000D+00 -.000000000000000D+00 -.232666797452581D+03
 0.157688937466506D+03 0.379832588285227D+02 0.309204294519804D+02 0.827163834472111D+02
 0.137148862052737D+03 -.267659428998511D+02 -.477852161764819D+02 0.865720303216308D+02
 0.170495795385919D+03 -.112173159286716D+02 0.168647867245015D+02 -.169288413768842D+03
 0.000000000000000D+00 0.000000000000000D+00 0.000000000000000D+00 -.000000000000000D+00
 0.232666797452581D+03 0.000000000000000D+00 0.000000000000000D+00 0.232666797452581D+03
 0.232666797452581D+03 -.000000000000000D+00 -.000000000000000D+00 -.232666797452581D+03
 0.157566733358524D+03 0.379676996129488D+02 0.309438221115009D+02 0.824815683683874D+02
 0.137015602178732D+03 -.267794740886493D+02 -.477648725742635D+02 0.863678216229874D+02
 0.984230884699974D+01 0.178515837730831D+01 0.351847590374643D+01 -.901690525193729D+01
 0.160908950520906D+03 -.129733839016078D+02 0.133025745590161D+02 -.159832484739438D+03
0.660251956506D-03 0.000000000000D+00 0.000000000000D+00 0.851298277379D-04 0.000000000000D+00  6 -1 1 25 23 21 21 2 0.23980592D-01 0.53429636D-01 0.17014566D+05 0.17014566D+05 0.17014566D+05 0.12416312D+01  1  2  2  3  6  5       21 0.109575238265D+00 0.100000000000D+01
0.182449526228D-03 0.348424529872D-04 -.253554136132D-05 0.851298277379D-04 0.000000000000D+00  6 -1 1 25 23 21 21 4 0.23980592D-01 0.53429636D-01 0.17014566D+05 0.17014566D+05 0.17014566D+05 0.12416312D+01  1  2  3  3  6  5       21 0.466799811558D-01 0.100000000000D+01
0.211743598271D-04 0.000000000000D+00 0.000000000000D+00 0.851298277379D-04 0.000000000000D+00  6 -1 1 25 23 21 21 4 0.23980592D-01 0.53429636D-01 0.17014566D+05 0.17014566D+05 0.17014566D+05 0.12416312D+01  1  2 15  3  6  5       21 0.541749128183D-02 0.100000000000D+01
0.294960588923D-05 0.000000000000D+00 0.000000000000D+00 0.850142775744D-04 0.000000000000D+00  6 -1 1 25 23 21 21 4 0.23980592D-01 0.53429636D-01 0.17311617D+05 0.17311617D+05 0.17311617D+05 0.12407882D+01  1  2 12  3  6  5       21 0.752733646915D-03 0.100000000000D+01
-.115667816798D-03 0.000000000000D+00 0.000000000000D+00 0.851298277379D-04 0.000000000000D+00  6 -1 1 25 23 21 21 4 0.23980592D-01 0.53429636D-01 0.17014566D+05 0.17014566D+05 0.17014566D+05 0.12416312D+01  1  2  5  3  6  5       21 -.295937820179D-01 0.100000000000D+01
0.499706939644D-05 0.000000000000D+00 0.000000000000D+00 0.850142775744D-04 0.000000000000D+00  6 -1 1 25 23 1 -1 4 0.23980592D-01 0.53429636D-01 0.17311617D+05 0.17311617D+05 0.17311617D+05 0.12407882D+01  1  2 12  6  6  5       21 0.127524232454D-02 0.100000000000D+01
-.219845801343D-03 0.000000000000D+00 0.000000000000D+00 0.851298277379D-04 0.000000000000D+00  6 -1 1 25 23 1 -1 4 0.23980592D-01 0.53429636D-01 0.17014566D+05 0.17014566D+05 0.17014566D+05 0.12416312D+01  1  2  5  6  6  5       21 -.562478734587D-01 0.100000000000D+01
0.499706939644D-05 0.000000000000D+00 0.000000000000D+00 0.850142775744D-04 0.000000000000D+00  6 -1 1 25 23 2 -2 4 0.23980592D-01 0.53429636D-01 0.17311617D+05 0.17311617D+05 0.17311617D+05 0.12407882D+01  1  2 12  7  6  5       21 0.127524232454D-02 0.100000000000D+01
0.499706939644D-05 0.000000000000D+00 0.000000000000D+00 0.850142775744D-04 0.000000000000D+00  6 -1 1 25 23 4 -4 4 0.23980592D-01 0.53429636D-01 0.17311617D+05 0.17311617D+05 0.17311617D+05 0.12407882D+01  1  2 12  7  6  5       21 0.127524232454D-02 0.100000000000D+01
-.219845801343D-03 0.000000000000D+00 0.000000000000D+00 0.851298277379D-04 0.000000000000D+00  6 -1 1 25 23 2 -2 4 0.23980592D-01 0.53429636D-01 0.17014566D+05 0.17014566D+05 0.17014566D+05 0.12416312D+01  1  2  5  7  6  5       21 -.562478734587D-01 0.100000000000D+01
-.219845801343D-03 0.000000000000D+00 0.000000000000D+00 0.851298277379D-04 0.000000000000D+00  6 -1 1 25 23 4 -4 4 0.23980592D-01 0.53429636D-01 0.17014566D+05 0.17014566D+05 0.17014566D+05 0.12416312D+01  1  2  5  7  6  5       21 -.562478734587D-01 0.100000000000D+01
0.499706939644D-05 0.000000000000D+00 0.000000000000D+00 0.850142775744D-04 0.000000000000D+00  6 -1 1 25 23 3 -3 4 0.23980592D-01 0.53429636D-01 0.17311617D+05 0.17311617D+05 0.17311617D+05 0.12407882D+01  1  2 12  8  6  5       21 0.127524232454D-02 0.100000000000D+01
-.219845801343D-03 0.000000000000D+00 0.000000000000D+00 0.851298277379D-04 0.000000000000D+00  6 -1 1 25 23 3 -3 4 0.23980592D-01 0.53429636D-01 0.17014566D+05 0.17014566D+05 0.17014566D+05 0.12416312D+01  1  2  5  8  6  5       21 -.562478734587D-01 0.100000000000D+01
  </mgrwgt>
  </event>
  <event>
  5     66 -.44820762E-03 0.30134769E+02 0.75467711E-02 0.11381668E+00
       -1 -1    0    0    0  501 0.00000000E+00 0.00000000E+00 0.70024209E+02 0.70024941E+02 0.32000000E+00 0.0000E+00 0.9000E+01
        1 -1    0    0  502    0 -.00000000E+00 -.00000000E+00 -.13349833E+04 0.13349833E+04 0.32000000E+00 0.0000E+00 0.9000E+01
       25  1    1    2    0    0 -.75709408E+02 0.13047344E+03 -.10331367E+04 0.10515473E+04 0.12500000E+03 0.0000E+00 0.9000E+01
       23  1    1    2    0    0 0.91017899E+02 -.15642955E+03 -.24717501E+03 0.31963292E+03 0.91188000E+02 0.0000E+00 0.9000E+01
       21  1    1    2  502  501 -.15308491E+02 0.25956106E+02 0.15352669E+02 0.33828040E+02 0.75000000E+00 0.0000E+00 0.9000E+01
#aMCatNLO 1  0  0  5  1 0.35400398D+01 0.00000000D+00  -5  6  0 0.00000000D+00 0.00000000D+00 0.00000000D+00 0.00000000D+00 0.00000000D+00
  <mgrwgt>
 -.6805203818D-01    1    2    0
 0.305747751724002D+03 0.000000000000000D+00 0.000000000000000D+00 0.305747751724002D+03
 0.305747751724002D+03 -.000000000000000D+00 -.000000000000000D+00 -.305747751724002D+03
 0.278918407481131D+03 -.757092442143286D+02 0.130473166203966D+03 -.198532972760239D+03
 0.223093229697320D+03 0.910180302577216D+02 -.156429772260727D+03 0.932779840650649D+02
 0.109483866269553D+03 -.153087860433930D+02 0.259566060567608D+02 0.105254988695174D+03
 0.000000000000000D+00 0.000000000000000D+00 0.000000000000000D+00 0.000000000000000D+00
 0.305747751724002D+03 0.000000000000000D+00 0.000000000000000D+00 0.305747751724002D+03
 0.305747751724002D+03 -.000000000000000D+00 -.000000000000000D+00 -.305747751724002D+03
 0.271789793505354D+03 -.776359094684624D+02 0.133739897534788D+03 -.185286257510027D+03
 0.225368685818218D+03 0.894490759750755D+02 -.153769552951353D+03 0.104065270843721D+03
 0.177578100134291D+02 -.121455403377310D+02 -.401833922902853D+01 -.123157872756087D+02
 0.965792141110031D+02 0.332373831117943D+00 0.240479946455931D+02 0.935367739419149D+02
-.656957476117D-03 0.000000000000D+00 0.000000000000D+00 0.875131988463D-05 0.000000000000D+00  6 -1 1 25 23 21 21 4 0.10773014D-01 0.20538210D+00 0.45945950D+05 0.45945950D+05 0.45945950D+05 0.11959358D+01  1  2 14  3  6  5       21 -.680520381833D-01 0.100000000000D+01
  </mgrwgt>
  </event>
  <event>
  5     66 0.44820762E-03 0.24165319E+02 0.75467711E-02 0.12328227E+00
       -1 -1    0    0    0  501 0.00000000E+00 0.00000000E+00 0.43224238E+02 0.43225422E+02 0.32000000E+00 0.0000E+00 0.9000E+01
        1 -1    0    0  502    0 -.00000000E+00 -.00000000E+00 -.53771212E+03 0.53771222E+03 0.32000000E+00 0.0000E+00 0.9000E+01
       25  1    1    2    0    0 0.42321893E+02 -.81295605E-01 -.35233617E+03 0.37624052E+03 0.12500000E+03 0.0000E+00 0.9000E+01
       23  1    1    2    0    0 -.26675039E+02 -.18326769E+02 -.48999970E+02 0.10846048E+03 0.91188000E+02 0.0000E+00 0.9000E+01
       21  1    1    2  502  501 -.15646854E+02 0.18408065E+02 -.93151738E+02 0.96236634E+02 0.75000000E+00 0.0000E+00 0.9000E+01
#aMCatNLO 1  0  0  5  2 0.98023314D+01 0.00000000D+00  -5  6  0 0.00000000D+00 0.00000000D+00 0.00000000D+00 0.00000000D+00 0.00000000D+00
  <mgrwgt>
 0.1730180071D+00   20    2    0
 0.152455135574237D+03 0.000000000000000D+00 0.000000000000000D+00 0.152455135574237D+03
 0.152455135574237D+03 -.000000000000000D+00 -.000000000000000D+00 -.152455135574237D+03
 0.145439955719011D+03 0.423239073822099D+02 -.836653465215254D-01 -.611265947322425D+02
 0.127182797600895D+03 -.266732775576076D+02 -.183288414749257D+02 0.825397025443645D+02
 0.322875178285685D+02 -.156506298246023D+02 0.184125068214472D+02 -.214131078121220D+02
 0.000000000000000D+00 0.000000000000000D+00 0.000000000000000D+00 -.000000000000000D+00
 0.152455135574237D+03 0.000000000000000D+00 0.000000000000000D+00 0.152455135574237D+03
 0.152455135574237D+03 -.000000000000000D+00 -.000000000000000D+00 -.152455135574237D+03
 0.145984410450694D+03 0.405595751155439D+02 0.199201980221427D+01 -.635405446796840D+02
 0.125916753910375D+03 -.282055849321736D+02 -.165261268044657D+02 0.804432078102477D+02
 0.210382234380647D+02 -.658789540051520D+01 0.186218204703749D+02 -.724115197954938D+01
 0.119708833493406D+02 -.576609478285507D+01 -.408771346812350D+01 -.966151115101427D+01
0.103110234588D-03 0.000000000000D+00 0.000000000000D+00 0.210796187732D-04 0.000000000000D+00  6 -1 1 25 23 21 21 2 0.66499812D-02 0.82725040D-01 0.15989232D+05 0.15989232D+05 0.15989232D+05 0.12446729D+01  1  2  2  3  6  5       21 0.719908238304D-01 0.100000000000D+01
0.126321663746D-04 0.544127656983D-05 -.395970450365D-06 0.210796187732D-04 0.000000000000D+00  6 -1 1 25 23 21 21 4 0.66499812D-02 0.82725040D-01 0.15989232D+05 0.15989232D+05 0.15989232D+05 0.12446729D+01  1  2  3  3  6  5       21 0.136635540000D-01 0.100000000000D+01
0.380827152022D-05 0.000000000000D+00 0.000000000000D+00 0.210796187732D-04 0.000000000000D+00  6 -1 1 25 23 21 21 4 0.66499812D-02 0.82725040D-01 0.15989232D+05 0.15989232D+05 0.15989232D+05 0.12446729D+01  1  2 15  3  6  5       21 0.411920821973D-02 0.100000000000D+01
0.469084343699D-04 0.000000000000D+00 0.000000000000D+00 0.210505073605D-04 0.000000000000D+00  6 -1 1 25 23 21 21 4 0.66499812D-02 0.82725040D-01 0.16271838D+05 0.16271838D+05 0.16271838D+05 0.12438131D+01  1  2 12  3  6  5       21 0.506207594097D-01 0.100000000000D+01
0.394231980295D-04 0.000000000000D+00 0.000000000000D+00 0.210505073605D-04 0.000000000000D+00  6 -1 1 25 23 21 21 4 0.66499812D-02 0.82725040D-01 0.16271838D+05 0.16271838D+05 0.16271838D+05 0.12438131D+01  1  2 12  3  6  5       21 0.425431428147D-01 0.100000000000D+01
-.738440847868D-04 0.000000000000D+00 0.000000000000D+00 0.210796187732D-04 0.000000000000D+00  6 -1 1 25 23 21 21 4 0.66499812D-02 0.82725040D-01 0.15989232D+05 0.15989232D+05 0.15989232D+05 0.12446729D+01  1  2  4  3  6  5       21 -.798732861921D-01 0.100000000000D+01
-.704143927633D-04 0.000000000000D+00 0.000000000000D+00 0.210796187732D-04 0.000000000000D+00  6 -1 1 25 23 21 21 4 0.66499812D-02 0.82725040D-01 0.15989232D+05 0.15989232D+05 0.15989232D+05 0.12446729D+01  1  2  5  3  6  5       21 -.761635676231D-01 0.100000000000D+01
0.133779548634D-03 0.000000000000D+00 -.000000000000D+00 0.210796187732D-04 0.000000000000D+00  6 -1 1 25 23 21 21 4 0.66499812D-02 0.82725040D-01 0.15989232D+05 0.15989232D+05 0.15989232D+05 0.12446729D+01  1  2  6  3  6  5       21 0.144702344210D+00 0.100000000000D+01
0.111988708269D-05 0.000000000000D+00 0.000000000000D+00 0.210505073605D-04 0.000000000000D+00  6 -1 1 25 23 1 -1 4 0.66499812D-02 0.82725040D-01 0.16271838D+05 0.16271838D+05 0.16271838D+05 0.12438131D+01  1  2 12  6  6  5       21 0.120851474453D-02 0.100000000000D+01
0.963099324766D-06 0.000000000000D+00 0.000000000000D+00 0.210505073605D-04 0.000000000000D+00  6 -1 1 25 23 1 -1 4 0.66499812D-02 0.82725040D-01 0.16271838D+05 0.16271838D+05 0.16271838D+05 0.12438131D+01  1  2 12  6  6  5       21 0.103931883171D-02 0.100000000000D+01
-.175110289608D-05 0.000000000000D+00 0.000000000000D+00 0.210796187732D-04 0.000000000000D+00  6 -1 1 25 23 1 -1 4 0.66499812D-02 0.82725040D-01 0.15989232D+05 0.15989232D+05 0.15989232D+05 0.12446729D+01  1  2  5  6  6  5       21 -.189407646089D-02 0.100000000000D+01
0.111988708269D-05 0.000000000000D+00 0.000000000000D+00 0.210505073605D-04 0.000000000000D+00  6 -1 1 25 23 2 -2 4 0.66499812D-02 0.82725040D-01 0.16271838D+05 0.16271838D+05 0.16271838D+05 0.12438131D+01  1  2 12  7  6  5       21 0.120851474453D-02 0.100000000000D+01
0.111988708269D-05 0.000000000000D+00 0.000000000000D+00 0.210505073605D-04 0.000000000000D+00  6 -1 1 25 23 4 -4 4 0.66499812D-02 0.82725040D-01 0.16271838D+05 0.16271838D+05 0.16271838D+05 0.12438131D+01  1  2 12  7  6  5       21 0.120851474453D-02 0.100000000000D+01
0.963099324766D-06 0.000000000000D+00 0.000000000000D+00 0.210505073605D-04 0.000000000000D+00  6 -1 1 25 23 2 -2 4 0.66499812D-02 0.82725040D-01 0.16271838D+05 0.16271838D+05 0.16271838D+05 0.12438131D+01  1  2 12  7  6  5       21 0.103931883171D-02 0.100000000000D+01
0.963099324766D-06 0.000000000000D+00 0.000000000000D+00 0.210505073605D-04 0.000000000000D+00  6 -1 1 25 23 4 -4 4 0.66499812D-02 0.82725040D-01 0.16271838D+05 0.16271838D+05 0.16271838D+05 0.12438131D+01  1  2 12  7  6  5       21 0.103931883171D-02 0.100000000000D+01
-.175110289608D-05 0.000000000000D+00 0.000000000000D+00 0.210796187732D-04 0.000000000000D+00  6 -1 1 25 23 2 -2 4 0.66499812D-02 0.82725040D-01 0.15989232D+05 0.15989232D+05 0.15989232D+05 0.12446729D+01  1  2  5  7  6  5       21 -.189407646089D-02 0.100000000000D+01
-.175110289608D-05 0.000000000000D+00 0.000000000000D+00 0.210796187732D-04 0.000000000000D+00  6 -1 1 25 23 4 -4 4 0.66499812D-02 0.82725040D-01 0.15989232D+05 0.15989232D+05 0.15989232D+05 0.12446729D+01  1  2  5  7  6  5       21 -.189407646089D-02 0.100000000000D+01
0.111988708269D-05 0.000000000000D+00 0.000000000000D+00 0.210505073605D-04 0.000000000000D+00  6 -1 1 25 23 3 -3 4 0.66499812D-02 0.82725040D-01 0.16271838D+05 0.16271838D+05 0.16271838D+05 0.12438131D+01  1  2 12  8  6  5       21 0.120851474453D-02 0.100000000000D+01
0.963099324766D-06 0.000000000000D+00 0.000000000000D+00 0.210505073605D-04 0.000000000000D+00  6 -1 1 25 23 3 -3 4 0.66499812D-02 0.82725040D-01 0.16271838D+05 0.16271838D+05 0.16271838D+05 0.12438131D+01  1  2 12  8  6  5       21 0.103931883171D-02 0.100000000000D+01
-.175110289608D-05 0.000000000000D+00 0.000000000000D+00 0.210796187732D-04 0.000000000000D+00  6 -1 1 25 23 3 -3 4 0.66499812D-02 0.82725040D-01 0.15989232D+05 0.15989232D+05 0.15989232D+05 0.12446729D+01  1  2  5  8  6  5       21 -.189407646089D-02 0.100000000000D+01
  </mgrwgt>
  </event>
  <event>
  6     66 0.44820762E-03 0.10352627E+03 0.75467711E-02 0.11013722E+00
       -1 -1    0    0    0  501 0.00000000E+00 0.00000000E+00 0.12641705E+03 0.12641745E+03 0.32000000E+00 0.0000E+00 0.9000E+01
        1 -1    0    0  502    0 -.00000000E+00 -.00000000E+00 -.89380072E+03 0.89380078E+03 0.32000000E+00 0.0000E+00 0.9000E+01
       25  1    1    2    0    0 -.77541148E+01 0.65007223E+02 -.11028315E+03 0.17909059E+03 0.12500000E+03 0.0000E+00 0.9000E+01
       23  1    1    2    0    0 -.72493711E+02 -.72109298E+02 -.52596726E+03 0.54351808E+03 0.91188000E+02 0.0000E+00 0.9000E+01
        2  1    1    2  502    0 0.13099250E+03 -.85232930E+02 -.10734656E+03 0.18959714E+03 0.32000000E+00 0.0000E+00 0.9000E+01
       -2  1    1    2    0  501 -.50744679E+02 0.92335005E+02 -.23786706E+02 0.10801243E+03 0.32000000E+00 0.0000E+00 0.9000E+01
#aMCatNLO 2  0  0  5  2 0.12546123D+03 0.00000000D+00  -5  6  0 0.00000000D+00 0.00000000D+00 0.00000000D+00 0.00000000D+00 0.00000000D+00
  <mgrwgt>
 0.3046543689D-03    2    2    0
 0.336142655827100D+03 0.000000000000000D+00 0.000000000000000D+00 0.336142655827100D+03
 0.336142655827100D+03 -.000000000000000D+00 -.000000000000000D+00 -.336142655827100D+03
 0.142542042681710D+03 -.243209533034074D+02 0.635410287084614D+02 0.801641022892571D+01
 0.276049642933210D+03 -.101240341134099D+03 -.746534251386325D+02 -.228178468444493D+03
 0.253693626039281D+03 0.125561294437507D+03 0.111123964301711D+02 0.220162058215567D+03
 0.000000000000000D+00 -.000000000000000D+00 0.000000000000000D+00 0.000000000000000D+00
 0.336142655827100D+03 0.000000000000000D+00 0.000000000000000D+00 0.336142655827100D+03
 0.336142655827100D+03 -.000000000000000D+00 -.000000000000000D+00 -.336142655827100D+03
 0.145896506342115D+03 -.774693563913287D+01 0.650078585587840D+02 0.370776735602304D+02
 0.224421744613089D+03 -.724826676340456D+02 -.721083202177759D+02 -.177754103072772D+03
 0.165013855797666D+03 0.130862078249707D+03 -.852997056455277D+02 0.531850476935652D+02
 0.136953204901331D+03 -.506324749765288D+02 0.924001673045196D+02 0.874913818189765D+02
-.130243554130D-05 0.000000000000D+00 0.000000000000D+00 0.995751307976D-06 0.000000000000D+00  6 -1 1 25 23 2 -2 4 0.19448812D-01 0.13750784D+00 0.72812632D+05 0.72812632D+05 0.72812632D+05 0.11764460D+01  1  2 13  7  6  5       21 -.102356337448D-03 0.100000000000D+01
0.517901698030D-05 0.000000000000D+00 0.000000000000D+00 0.995751307976D-06 0.105352898718D-10  6 -1 1 25 23 2 -2 4 0.19448812D-01 0.13750784D+00 0.72812632D+05 0.72812632D+05 0.72812632D+05 0.11764460D+01  1  2  1  7  6  5       21 0.407010706384D-03 0.100000000000D+01
  </mgrwgt>
  </event>
  <event>
  6     66 0.44820762E-03 0.35409617E+02 0.75467711E-02 0.11993705E+00
       21 -1    0    0  503  501 0.00000000E+00 0.00000000E+00 0.13296096E+03 0.13296308E+03 0.75000000E+00 0.0000E+00 0.9000E+01
        1 -1    0    0  502    0 0.00000000E+00 0.00000000E+00 -.12652849E+04 0.12652849E+04 0.32000000E+00 0.0000E+00 0.9000E+01
       25  1    1    2    0    0 0.78935434E+02 0.20772049E+02 -.27566740E+03 0.31349609E+03 0.12500000E+03 0.0000E+00 0.9000E+01
       23  1    1    2    0    0 -.27872652E+02 -.28157554E+02 -.52755874E+03 0.53684561E+03 0.91188000E+02 0.0000E+00 0.9000E+01
        1  1    1    2  503    0 -.39827118E+02 0.10941068E+02 0.10542278E+03 0.11322531E+03 0.32000000E+00 0.0000E+00 0.9000E+01
       21  1    1    2  502  501 -.11235664E+02 -.35555636E+01 -.43452057E+03 0.43468100E+03 0.75000000E+00 0.0000E+00 0.9000E+01
#aMCatNLO 2  0  0  1  5 0.46084436D+02 0.00000000D+00  -5  6  0 0.00000000D+00 0.00000000D+00 0.00000000D+00 0.00000000D+00 0.00000000D+00
  <mgrwgt>
 0.1225639447D+00    1    2    0
 0.171435483023218D+03 0.000000000000000D+00 0.000000000000000D+00 0.171435483023218D+03
 0.171435483023218D+03 0.000000000000000D+00 0.000000000000000D+00 -.171435483023218D+03
 0.171280684367664D+03 0.586947871263764D+02 0.263326839125580D+02 0.978446961240412D+02
 0.109885311121665D+03 -.404103203555515D+02 -.247131229188865D+02 -.389332482675524D+02
 0.000000000000000D+00 -.000000000000000D+00 0.000000000000000D+00 0.000000000000000D+00
 0.617049705571068D+02 -.182844667708249D+02 -.161956099367153D+01 -.589114478564888D+02
 0.971283654913454D+03 0.000000000000000D+00 0.000000000000000D+00 0.971283654913454D+03
 0.173208867431231D+03 0.000000000000000D+00 0.000000000000000D+00 -.173208867431231D+03
 0.178496499197864D+03 0.789362855669512D+02 0.207720602536127D+02 0.978446961240412D+02
 0.106774334031635D+03 -.278722930754375D+02 -.281574949516678D+02 -.389332482675524D+02
 0.799142836255759D+03 -.398271182670197D+02 0.109410682590213D+02 0.798074787482222D+03
 0.600788528594277D+02 -.112368742244940D+02 -.355563356096617D+01 -.589114478564888D+02
0.204525879442D-03 0.000000000000D+00 0.000000000000D+00 0.401127480970D-04 0.307127336850D-06  6 21 1 25 23 1 21 4 0.20455695D-01 0.19465934D+00 0.22771031D+05 0.22771031D+05 0.22771031D+05 0.12276699D+01  1  2  1  4  5  1       -1 0.122563944675D+00 0.100000000000D+01
  </mgrwgt>
  </event>
  <event>
  6     66 0.44820762E-03 0.29260890E+02 0.75467711E-02 0.12141455E+00
       -3 -1    0    0    0  503 0.00000000E+00 0.00000000E+00 0.10997100E+03 0.10997214E+03 0.50000000E+00 0.0000E+00 0.9000E+01
        3 -1    0    0  502    0 0.00000000E+00 0.00000000E+00 -.23016219E+03 0.23016274E+03 0.50000000E+00 0.0000E+00 0.9000E+01
       25  1    1    2    0    0 -.33378603E+02 0.23905365E+02 -.95422966E+02 0.16253043E+03 0.12500000E+03 0.0000E+00 0.9000E+01
       23  1    1    2    0    0 0.48463519E+02 -.47845759E+02 -.54301668E+02 0.12610254E+03 0.91188000E+02 0.0000E+00 0.9000E+01
       21  1    1    2  502  501 0.24176346E+01 -.12148199E+01 -.47466143E+01 0.55148519E+01 0.75000000E+00 0.0000E+00 0.9000E+01
       21  1    1    2  501  503 -.17502550E+02 0.25155214E+02 0.34280053E+02 0.45987048E+02 0.75000000E+00 0.0000E+00 0.9000E+01
#aMCatNLO 2  0  0  1  5 0.20650206D+02 0.00000000D+00  -5  6  0 0.00000000D+00 0.00000000D+00 0.00000000D+00 0.00000000D+00 0.00000000D+00
  <mgrwgt>
 0.4322255637D-02    1    2    0
 0.124220018582675D+03 0.000000000000000D+00 0.000000000000000D+00 0.124220018582675D+03
 0.124220018582675D+03 0.000000000000000D+00 0.000000000000000D+00 -.124220018582675D+03
 0.137884959158163D+03 -.428853333800291D+02 0.375347031771151D+02 -.118006864350325D+02
 0.107271343255704D+03 0.406492800567345D+02 -.366413691533518D+02 0.140333829606406D+02
 0.328373475148229D+01 0.223605332329466D+01 -.893334023763287D+00 -.223269652560806D+01
 0.000000000000000D+00 -.000000000000000D+00 0.000000000000000D+00 0.000000000000000D+00
 0.197084459149429D+03 0.000000000000000D+00 0.000000000000000D+00 0.197084459149429D+03
 0.128425810845574D+03 0.000000000000000D+00 0.000000000000000D+00 -.128425810845574D+03
 0.132108226372624D+03 -.334107542885854D+02 0.239175411121264D+02 -.118006864350325D+02
 0.114658113432240D+03 0.484372106520097D+02 -.478344271291429D+02 0.140333829606406D+02
 0.355660385299541D+01 0.247609393392329D+01 -.123832791378852D+01 -.223269652560806D+01
 0.751873263371442D+02 -.175025502973476D+02 0.251552139308051D+02 0.686586483038551D+02
0.337276009463D-04 0.000000000000D+00 0.000000000000D+00 0.222798894702D-02 0.927103397285D-05  6 -3 3 25 23 21 21 4 0.16918504D-01 0.35409193D-01 0.19430939D+05 0.19430939D+05 0.19430939D+05 0.12352086D+01  1  2  1  1  6  1       -3 0.432225563701D-02 0.100000000000D+01
  </mgrwgt>
  </event>
  <event>
  6     66 0.44820762E-03 0.15993431E+02 0.75467711E-02 0.12216356E+00
       -1 -1    0    0    0  503 0.00000000E+00 0.00000000E+00 0.15985134E+04 0.15985134E+04 0.32000000E+00 0.0000E+00 0.9000E+01
        1 -1    0    0  502    0 0.00000000E+00 0.00000000E+00 -.15438269E+02 0.15441585E+02 0.32000000E+00 0.0000E+00 0.9000E+01
       25  1    1    2    0    0 -.31639124E+01 -.54649569E+02 0.89734098E+03 0.90765765E+03 0.12500000E+03 0.0000E+00 0.9000E+01
       23  1    1    2    0    0 -.94984942E+01 0.46013732E+02 0.35150484E+03 0.36616716E+03 0.91188000E+02 0.0000E+00 0.9000E+01
       21  1    1    2  502  501 0.10945262E+02 0.17109439E+02 0.32871796E+02 0.38647757E+02 0.75000000E+00 0.0000E+00 0.9000E+01
       21  1    1    2  501  503 0.17171445E+01 -.84736020E+01 0.30135750E+03 0.30148243E+03 0.75000000E+00 0.0000E+00 0.9000E+01
#aMCatNLO 2  0  0  1  2 0.38513875D+02 0.00000000D+00  -5  6  0 0.00000000D+00 0.00000000D+00 0.00000000D+00 0.00000000D+00 0.00000000D+00
  <mgrwgt>
 0.4933952004D+00    1    2    0
 0.141164315452471D+03 0.000000000000000D+00 0.000000000000000D+00 0.141164315452471D+03
 0.141164315452471D+03 0.000000000000000D+00 0.000000000000000D+00 -.141164315452471D+03
 0.147333092798954D+03 -.227499900009769D+01 -.590477099064101D+02 0.508943274644941D+02
 0.105011700315227D+03 -.885701904180809D+01 0.428399620644026D+02 -.282576843196441D+02
 0.299838377907615D+02 0.111320180419058D+02 0.162077478420076D+02 -.226366431448500D+02
 0.000000000000000D+00 0.000000000000000D+00 -.000000000000000D+00 0.000000000000000D+00
 0.174044593109525D+03 0.000000000000000D+00 0.000000000000000D+00 0.174044593109525D+03
 0.141799990931612D+03 0.000000000000000D+00 0.000000000000000D+00 -.141799990931612D+03
 0.145643782733166D+03 -.316574418181213D+01 -.546521449216561D+02 0.508943274644941D+02
 0.106400564001112D+03 -.949978122381680D+01 0.460118040218563D+02 -.282576843196441D+02
 0.304166352528743D+02 0.109483809195589D+02 0.171139429261451D+02 -.226366431448500D+02
 0.333836020539844D+02 0.171714448607001D+01 -.847360202634533D+01 0.322446021779129D+02
0.526249385703D-02 0.000000000000D+00 0.000000000000D+00 0.395531462969D-04 0.208553934156D-05  6 -1 1 25 23 21 21 4 0.24591812D+00 0.23753056D-02 0.17956514D+05 0.17956514D+05 0.17956514D+05 0.12390127D+01  1  2  1  1  6  1       -1 0.493395200421D+00 0.100000000000D+01
  </mgrwgt>
  </event>
  <event>
  6     66 -.44820762E-03 0.88624625E+01 0.75467711E-02 0.11309421E+00
       -1 -1    0    0    0  501 0.00000000E+00 0.00000000E+00 0.23725871E+02 0.23728029E+02 0.32000000E+00 0.0000E+00 0.9000E+01
        1 -1    0    0  502    0 -.00000000E+00 -.00000000E+00 -.21642313E+04 0.21642314E+04 0.32000000E+00 0.0000E+00 0.9000E+01
       25  1    1    2    0    0 -.15533824E+03 -.98440944E+02 -.94801136E+03 0.97374079E+03 0.12500000E+03 0.0000E+00 0.9000E+01
       23  1    1    2    0    0 0.14457106E+03 0.11048857E+03 -.11125383E+04 0.11310019E+04 0.91188000E+02 0.0000E+00 0.9000E+01
        1  1    1    2  502    0 0.42210389E+01 -.11864226E+02 -.71048321E+02 0.72156381E+02 0.32000000E+00 0.0000E+00 0.9000E+01
       -1  1    1    2    0  501 0.65461370E+01 -.18339855E+00 -.89074877E+01 0.11060347E+02 0.32000000E+00 0.0000E+00 0.9000E+01
#aMCatNLO 2  0  0  5  2 0.82243762D+01 0.00000000D+00  -5  6  0 0.00000000D+00 0.00000000D+00 0.00000000D+00 0.00000000D+00 0.00000000D+00
  <mgrwgt>
 -.2617847364D-02    2    2    0
 0.226606839676540D+03 0.000000000000000D+00 0.000000000000000D+00 0.226606839676540D+03
 0.226606839676540D+03 -.000000000000000D+00 -.000000000000000D+00 -.226606839676540D+03
 0.223768395848021D+03 -.157310226126190D+03 -.962344460630145D+02 0.209694808583431D+02
 0.205629874020534D+03 0.142757758936323D+03 0.112517514865113D+03 -.304700649451024D+02
 0.238154094845250D+02 0.145524671898672D+02 -.162830688020981D+02 0.950058408675930D+01
 0.000000000000000D+00 0.000000000000000D+00 0.000000000000000D+00 0.000000000000000D+00
 0.226606839676540D+03 0.000000000000000D+00 0.000000000000000D+00 0.226606839676540D+03
 0.226606839676540D+03 -.000000000000000D+00 -.000000000000000D+00 -.226606839676540D+03
 0.223474476041706D+03 -.155336347232832D+03 -.984430616474524D+02 0.222581284916796D+02
 0.205624556909534D+03 0.144572805060106D+03 0.110486620685663D+03 -.292851113495807D+02
 0.124967119002739D+02 0.396925528838888D+01 -.116066799089446D+02 -.238700696801353D+01
 0.116179345015666D+02 0.679428688433735D+01 -.436879129265840D+00 0.941398982591469D+01
-.853778973219D-05 0.000000000000D+00 0.000000000000D+00 0.223427726980D-04 0.000000000000D+00  6 -1 1 25 23 1 -1 4 0.36503018D-02 0.33295884D+00 0.49498835D+05 0.49498835D+05 0.49498835D+05 0.11927153D+01  1  2 13  6  6  5       21 -.129224622209D-02 0.100000000000D+01
-.875816359694D-05 0.000000000000D+00 0.000000000000D+00 0.223427726980D-04 0.000000000000D+00  6 -1 1 25 23 1 -1 4 0.36503018D-02 0.33295884D+00 0.49498835D+05 0.49498835D+05 0.49498835D+05 0.11927153D+01  1  2 13  6  6  5       21 -.132560114217D-02 0.100000000000D+01
  </mgrwgt>
  </event>
</LesHouchesEvents>
