<event>
 5    0  0.4930573E+000  0.2468511E+03  0.7546771E-02  0.1115311E+00
         21   -1    0    0  501  502  0.00000000000E+00  0.00000000000E+00  0.18708308756E+03  0.18708308756E+03  0.00000000000E+00 0.  1.
         -2   -1    0    0    0  501 -0.00000000000E+00 -0.00000000000E+00 -0.44729539098E+03  0.44729539098E+03  0.00000000000E+00 0.  1.
         25    1    1    2    0    0  0.61004766606E+02  0.20037394409E+03  0.32088572028E+02  0.24602027452E+03  0.12500000000E+03 0.  0.
         21    1    1    2  503  502 -0.21171948941E+02  0.98434900996E+01  0.31624448654E+01  0.23561552938E+02  0.00000000000E+00 0.  1.
         -2    1    1    2    0  503 -0.39832817665E+02 -0.21021743419E+03 -0.29546332031E+03  0.36479665109E+03  0.00000000000E+00 0.  1.
<mgrwt>
<rscale>  4 0.24685107E+03</rscale>
<asrwt>0</asrwt>
<pdfrwt beam="1">  1       21 0.28782014E-01 0.24685107E+03</pdfrwt>
<pdfrwt beam="2">  1       -2 0.68814674E-01 0.24685107E+03</pdfrwt>
<totfact> 0.18402877E+03</totfact>
</mgrwt>
</event>
<event>
 5    0  0.4930573E+000  0.1971839E+03  0.7546771E-02  0.1152137E+00
          2   -1    0    0  502    0 -0.00000000000E+00  0.00000000000E+00  0.19273967948E+04  0.19273967948E+04  0.00000000000E+00 0.  1.
         21   -1    0    0  503  502  0.00000000000E+00 -0.00000000000E+00 -0.20759989000E+04  0.20759989000E+04  0.00000000000E+00 0. -1.
         25    1    1    2    0    0 -0.56540047382E+01  0.21314502014E+03  0.45305731820E+02  0.25127748947E+03  0.12500000000E+03 0.  0.
         21    1    1    2  503  501  0.44564883515E+02 -0.67374519710E+02 -0.19689846902E+04  0.19706410289E+04  0.00000000000E+00 0. -1.
          2    1    1    2  501    0 -0.38910878777E+02 -0.14577050043E+03  0.17750768532E+04  0.17814771764E+04  0.00000000000E+00 0.  1.
<mgrwt>
<rscale>  4 0.19718385E+03</rscale>
<asrwt>0</asrwt>
<pdfrwt beam="1">  1       21 0.31938445E+00 0.19718385E+03</pdfrwt>
<pdfrwt beam="2">  1        2 0.29652258E+00 0.19718385E+03</pdfrwt>
<totfact> 0.27501469E+00</totfact>
</mgrwt>
</event>
<event>
 5    0  0.4930573E+000  0.2299256E+03  0.7546771E-02  0.1126692E+00
         21   -1    0    0  501  502  0.00000000000E+00  0.00000000000E+00  0.28628418527E+03  0.28628418527E+03  0.00000000000E+00 0.  1.
         -1   -1    0    0    0  501 -0.00000000000E+00 -0.00000000000E+00 -0.25565635373E+03  0.25565635373E+03  0.00000000000E+00 0. -1.
         25    1    1    2    0    0  0.12577139133E+03  0.16169922702E+03  0.14860595700E+03  0.28226550153E+03  0.12500000000E+03 0.  0.
         21    1    1    2  503  502 -0.19860749810E+02 -0.35208208901E+01  0.16948327645E+02  0.26345613918E+02  0.00000000000E+00 0. -1.
         -1    1    1    2    0  503 -0.10591064152E+03 -0.15817840613E+03 -0.13492645309E+03  0.23332942356E+03  0.00000000000E+00 0. -1.
<mgrwt>
<rscale>  4 0.22992559E+03</rscale>
<asrwt>0</asrwt>
<pdfrwt beam="1">  1       21 0.44043721E-01 0.22992559E+03</pdfrwt>
<pdfrwt beam="2">  1       -1 0.39331747E-01 0.22992559E+03</pdfrwt>
<totfact> 0.28690436E+03</totfact>
</mgrwt>
</event>
<event>
 5    0  0.4930573E+000  0.3321511E+03  0.7546771E-02  0.1070189E+00
          2   -1    0    0  502    0 -0.00000000000E+00  0.00000000000E+00  0.48487394225E+03  0.48487394225E+03  0.00000000000E+00 0.  1.
         21   -1    0    0  503  502  0.00000000000E+00 -0.00000000000E+00 -0.36091277471E+03  0.36091277471E+03  0.00000000000E+00 0.  1.
         25    1    1    2    0    0 -0.26283672606E+03  0.16420809031E+03 -0.15466507494E+03  0.36823053499E+03  0.12500000000E+03 0.  0.
         21    1    1    2  503  501 -0.12004284082E+02 -0.26373294361E+02 -0.30141735550E+02  0.41811215167E+02  0.00000000000E+00 0. -1.
          2    1    1    2  501    0  0.27484101014E+03 -0.13783479595E+03  0.30876797804E+03  0.43574496680E+03  0.00000000000E+00 0.  1.
<mgrwt>
<rscale>  4 0.33215106E+03</rscale>
<asrwt>0</asrwt>
<pdfrwt beam="1">  1       21 0.55525043E-01 0.33215106E+03</pdfrwt>
<pdfrwt beam="2">  1        2 0.74595991E-01 0.33215106E+03</pdfrwt>
<totfact> 0.23549872E+03</totfact>
</mgrwt>
</event>
<event>
 5    0  0.1390459E+001  0.2612955E+03  0.7546771E-02  0.1106367E+00
         21   -1    0    0  503  502  0.00000000000E+00  0.00000000000E+00  0.13214001876E+04  0.13214001876E+04  0.00000000000E+00 0. -1.
          2   -1    0    0  502    0 -0.00000000000E+00 -0.00000000000E+00 -0.17124396770E+04  0.17124396770E+04  0.00000000000E+00 0.  1.
         25    1    1    2    0    0 -0.21072148846E+03  0.13786609580E+03  0.12533347368E+04  0.12844779362E+04  0.12500000000E+03 0.  0.
         21    1    1    2  503  501  0.36953398364E+02  0.11793906962E+02  0.36292609172E+02  0.53120649211E+02  0.00000000000E+00 0.  1.
          2    1    1    2  501    0  0.17376809009E+03 -0.14966000276E+03 -0.16806668354E+04  0.16962412792E+04  0.00000000000E+00 0.  1.
<mgrwt>
<rscale>  4 0.26129547E+03</rscale>
<asrwt>0</asrwt>
<pdfrwt beam="1">  1       21 0.20329234E+00 0.26129547E+03</pdfrwt>
<pdfrwt beam="2">  1        2 0.26345226E+00 0.26129547E+03</pdfrwt>
<totfact> 0.16047180E+01</totfact>
</mgrwt>
</event>
<event>
 5    0  0.4930573E+000  0.2256443E+03  0.7546771E-02  0.1129744E+00
          2   -1    0    0  502    0 -0.00000000000E+00  0.00000000000E+00  0.19184851767E+04  0.19184851767E+04  0.00000000000E+00 0. -1.
         21   -1    0    0  503  502  0.00000000000E+00 -0.00000000000E+00 -0.24570600678E+04  0.24570600678E+04  0.00000000000E+00 0.  1.
         25    1    1    2    0    0 -0.12450202985E+03 -0.22966383024E+03  0.97093980557E+03  0.10132104107E+04  0.12500000000E+03 0.  0.
         21    1    1    2  503  501  0.76040041803E+02  0.73194448796E+02 -0.24275284796E+04  0.24298218113E+04  0.00000000000E+00 0.  1.
          2    1    1    2  501    0  0.48461988050E+02  0.15646938145E+03  0.91801378293E+03  0.93251302257E+03  0.00000000000E+00 0. -1.
<mgrwt>
<rscale>  4 0.22564430E+03</rscale>
<asrwt>0</asrwt>
<pdfrwt beam="1">  1       21 0.37800924E+00 0.22564430E+03</pdfrwt>
<pdfrwt beam="2">  1        2 0.29515157E+00 0.22564430E+03</pdfrwt>
<totfact> 0.11855152E+00</totfact>
</mgrwt>
</event>
<event>
 5    0  0.4930573E+000  0.3791703E+03  0.7546771E-02  0.1051241E+00
          2   -1    0    0  502    0 -0.00000000000E+00  0.00000000000E+00  0.11146585007E+04  0.11146585007E+04  0.00000000000E+00 0. -1.
         21   -1    0    0  503  502  0.00000000000E+00 -0.00000000000E+00 -0.47600266768E+03  0.47600266768E+03  0.00000000000E+00 0.  1.
         25    1    1    2    0    0  0.82161239640E+02  0.43648689408E+03  0.19359526435E+03  0.50037526356E+03  0.12500000000E+03 0.  0.
         21    1    1    2  503  501  0.11752796583E+03 -0.15696350231E+03 -0.24835972247E+03  0.31643785417E+03  0.00000000000E+00 0.  1.
          2    1    1    2  501    0 -0.19968920547E+03 -0.27952339177E+03  0.69342029115E+03  0.77384805065E+03  0.00000000000E+00 0. -1.
<mgrwt>
<rscale>  4 0.37917032E+03</rscale>
<asrwt>0</asrwt>
<pdfrwt beam="1">  1       21 0.73231180E-01 0.37917032E+03</pdfrwt>
<pdfrwt beam="2">  1        2 0.17148592E+00 0.37917032E+03</pdfrwt>
<totfact> 0.43604964E+02</totfact>
</mgrwt>
</event>
<event>
 5    0  0.4930573E+000  0.2609177E+03  0.7546771E-02  0.1106593E+00
          1   -1    0    0  502    0 -0.00000000000E+00  0.00000000000E+00  0.76711752867E+03  0.76711752867E+03  0.00000000000E+00 0. -1.
         21   -1    0    0  503  502  0.00000000000E+00 -0.00000000000E+00 -0.17592754533E+03  0.17592754533E+03  0.00000000000E+00 0.  1.
         25    1    1    2    0    0  0.32079228542E+02  0.26080361577E+03  0.37280391678E+02  0.29336398979E+03  0.12500000000E+03 0.  0.
         21    1    1    2  503  501 -0.41529598571E+02 -0.37238966731E+02  0.39242553249E+01  0.55918225835E+02  0.00000000000E+00 0.  1.
          1    1    1    2  501    0  0.94503700286E+01 -0.22356464904E+03  0.54998533634E+03  0.59376285837E+03  0.00000000000E+00 0. -1.
<mgrwt>
<rscale>  4 0.26091771E+03</rscale>
<asrwt>0</asrwt>
<pdfrwt beam="1">  1       21 0.27065777E-01 0.26091771E+03</pdfrwt>
<pdfrwt beam="2">  1        1 0.11801808E+00 0.26091771E+03</pdfrwt>
<totfact> 0.34848580E+03</totfact>
</mgrwt>
</event>
<event>
 5    0  0.4930573E+000  0.1970689E+03  0.7546771E-02  0.1152236E+00
          1   -1    0    0  502    0 -0.00000000000E+00  0.00000000000E+00  0.95273925025E+03  0.95273925025E+03  0.00000000000E+00 0. -1.
         21   -1    0    0  503  502  0.00000000000E+00 -0.00000000000E+00 -0.73835280333E+02  0.73835280333E+02  0.00000000000E+00 0. -1.
         25    1    1    2    0    0 -0.18891384371E+03  0.65947856788E+02  0.48415513471E+03  0.53858031399E+03  0.12500000000E+03 0.  0.
         21    1    1    2  503  501  0.62640751641E+02 -0.23102973597E+02 -0.46471171347E+01  0.66926876910E+02  0.00000000000E+00 0. -1.
          1    1    1    2  501    0  0.12627309207E+03 -0.42844883191E+02  0.39939595235E+03  0.42106733968E+03  0.00000000000E+00 0. -1.
<mgrwt>
<rscale>  4 0.19706891E+03</rscale>
<asrwt>0</asrwt>
<pdfrwt beam="1">  1       21 0.11359275E-01 0.19706891E+03</pdfrwt>
<pdfrwt beam="2">  1        1 0.14657526E+00 0.19706891E+03</pdfrwt>
<totfact> 0.12606924E+04</totfact>
</mgrwt>
</event>
<event>
 5    0  0.4930573E+000  0.2785023E+03  0.7546771E-02  0.1096510E+00
         21   -1    0    0  503  502  0.00000000000E+00  0.00000000000E+00  0.25391918013E+03  0.25391918013E+03  0.00000000000E+00 0.  1.
          2   -1    0    0  502    0 -0.00000000000E+00 -0.00000000000E+00 -0.98133932619E+03  0.98133932619E+03  0.00000000000E+00 0.  1.
         25    1    1    2    0    0 -0.35894973157E+03  0.14129343824E+02 -0.20770834466E+03  0.43337317013E+03  0.12500000000E+03 0.  0.
         21    1    1    2  503  501  0.21164837729E+03 -0.56294529260E+02  0.39081730483E+02  0.22246683189E+03  0.00000000000E+00 0.  1.
          2    1    1    2  501    0  0.14730135428E+03  0.42165185436E+02 -0.55879353189E+03  0.57941850429E+03  0.00000000000E+00 0.  1.
<mgrwt>
<rscale>  4 0.27850230E+03</rscale>
<asrwt>0</asrwt>
<pdfrwt beam="1">  1       21 0.39064489E-01 0.27850230E+03</pdfrwt>
<pdfrwt beam="2">  1        2 0.15097528E+00 0.27850230E+03</pdfrwt>
<totfact> 0.20878981E+03</totfact>
</mgrwt>
</event>
<event>
 5    0  0.4930573E+000  0.2480796E+03  0.7546771E-02  0.1114525E+00
         21   -1    0    0  503  502  0.00000000000E+00  0.00000000000E+00  0.50459956659E+03  0.50459956659E+03  0.00000000000E+00 0. -1.
          4   -1    0    0  502    0 -0.00000000000E+00 -0.00000000000E+00 -0.18012094665E+03  0.18012094665E+03  0.00000000000E+00 0. -1.
         25    1    1    2    0    0  0.17173050060E+03  0.15442638913E+03  0.35147922044E+03  0.43874994803E+03  0.12500000000E+03 0.  0.
         21    1    1    2  503  501 -0.14723717014E+02 -0.13838096667E+02  0.21715185851E+02  0.29661929449E+02  0.00000000000E+00 0. -1.
          4    1    1    2  501    0 -0.15700678358E+03 -0.14058829247E+03 -0.48715786346E+02  0.21630863577E+03  0.00000000000E+00 0. -1.
<mgrwt>
<rscale>  4 0.24807960E+03</rscale>
<asrwt>0</asrwt>
<pdfrwt beam="1">  1       21 0.77630702E-01 0.24807960E+03</pdfrwt>
<pdfrwt beam="2">  1        4 0.27710915E-01 0.24807960E+03</pdfrwt>
<totfact> 0.76193293E+02</totfact>
</mgrwt>
</event>
<event>
 5    0  0.4930573E+000  0.5234190E+03  0.7546771E-02  0.1007841E+00
         21   -1    0    0  503  502  0.00000000000E+00  0.00000000000E+00  0.34422864190E+03  0.34422864190E+03  0.00000000000E+00 0.  1.
          1   -1    0    0  502    0 -0.00000000000E+00 -0.00000000000E+00 -0.20507394234E+04  0.20507394234E+04  0.00000000000E+00 0. -1.
         25    1    1    2    0    0 -0.23869141355E+03 -0.29892393188E+03 -0.14594460236E+03  0.42808169187E+03  0.12500000000E+03 0.  0.
         21    1    1    2  503  501 -0.15279944999E+03 -0.84530365590E+02  0.11158476019E+03  0.20722985627E+03  0.00000000000E+00 0.  1.
          1    1    1    2  501    0  0.39149086354E+03  0.38345429747E+03 -0.16721509393E+04  0.17596565171E+04  0.00000000000E+00 0. -1.
<mgrwt>
<rscale>  4 0.52341898E+03</rscale>
<asrwt>0</asrwt>
<pdfrwt beam="1">  1       21 0.52958254E-01 0.52341898E+03</pdfrwt>
<pdfrwt beam="2">  1        1 0.31549837E+00 0.52341898E+03</pdfrwt>
<totfact> 0.10141912E+02</totfact>
</mgrwt>
</event>
<event>
 5    0  0.4930573E+000  0.4724241E+03  0.7546771E-02  0.1021238E+00
         21   -1    0    0  503  502  0.00000000000E+00  0.00000000000E+00  0.15362573401E+03  0.15362573401E+03  0.00000000000E+00 0.  1.
          2   -1    0    0  502    0 -0.00000000000E+00 -0.00000000000E+00 -0.19474149008E+04  0.19474149008E+04  0.00000000000E+00 0.  1.
         25    1    1    2    0    0 -0.55096969499E+02  0.49692240663E+03 -0.77210779066E+03  0.92830113360E+03  0.12500000000E+03 0.  0.
         21    1    1    2  503  501  0.45633886857E+02 -0.66014009252E+02 -0.20657198652E+02  0.82867490027E+02  0.00000000000E+00 0.  1.
          2    1    1    2  501    0  0.94630826416E+01 -0.43090839738E+03 -0.10010241775E+04  0.10898720112E+04  0.00000000000E+00 0.  1.
<mgrwt>
<rscale>  4 0.47242409E+03</rscale>
<asrwt>0</asrwt>
<pdfrwt beam="1">  1       21 0.23634729E-01 0.47242409E+03</pdfrwt>
<pdfrwt beam="2">  1        2 0.29960228E+00 0.47242409E+03</pdfrwt>
<totfact> 0.15474463E+03</totfact>
</mgrwt>
</event>
<event>
 5    0  0.4930573E+000  0.2629240E+03  0.7546771E-02  0.1105399E+00
         21   -1    0    0  501  502  0.00000000000E+00  0.00000000000E+00  0.15732049786E+04  0.15732049786E+04  0.00000000000E+00 0.  1.
         -3   -1    0    0    0  501 -0.00000000000E+00 -0.00000000000E+00 -0.25817269782E+03  0.25817269782E+03  0.00000000000E+00 0. -1.
         25    1    1    2    0    0  0.89897800087E+02  0.25770053786E+03  0.13926647945E+04  0.14246513298E+04  0.12500000000E+03 0.  0.
         21    1    1    2  503  502 -0.35037690746E+02 -0.34639647785E+02  0.10321459022E+03  0.11437131024E+03  0.00000000000E+00 0. -1.
         -3    1    1    2    0  503 -0.54860109341E+02 -0.22306089007E+03 -0.18084710395E+03  0.29235503636E+03  0.00000000000E+00 0. -1.
<mgrwt>
<rscale>  4 0.26292400E+03</rscale>
<asrwt>0</asrwt>
<pdfrwt beam="1">  1       21 0.24203153E+00 0.26292400E+03</pdfrwt>
<pdfrwt beam="2">  1       -3 0.39718877E-01 0.26292400E+03</pdfrwt>
<totfact> 0.21885851E+01</totfact>
</mgrwt>
</event>
<event>
 5    0  0.4930573E+000  0.2830419E+03  0.7546771E-02  0.1094039E+00
         21   -1    0    0  503  502  0.00000000000E+00  0.00000000000E+00  0.10366821029E+04  0.10366821029E+04  0.00000000000E+00 0.  1.
          1   -1    0    0  502    0 -0.00000000000E+00 -0.00000000000E+00 -0.21238432525E+03  0.21238432525E+03  0.00000000000E+00 0.  1.
         25    1    1    2    0    0  0.22838133883E+03  0.14075355249E+03  0.87252725966E+03  0.92135683495E+03  0.12500000000E+03 0.  0.
         21    1    1    2  503  501 -0.54288748686E+01 -0.21977832579E+02  0.51393104024E+02  0.56158249157E+02  0.00000000000E+00 0.  1.
          1    1    1    2  501    0 -0.22295246396E+03 -0.11877571991E+03 -0.99622585996E+02  0.27155134407E+03  0.00000000000E+00 0.  1.
<mgrwt>
<rscale>  4 0.28304191E+03</rscale>
<asrwt>0</asrwt>
<pdfrwt beam="1">  1       21 0.15948955E+00 0.28304191E+03</pdfrwt>
<pdfrwt beam="2">  1        1 0.32674512E-01 0.28304191E+03</pdfrwt>
<totfact> 0.35529068E+02</totfact>
</mgrwt>
</event>
<event>
 5    0  0.4930573E+000  0.2636780E+03  0.7546771E-02  0.1104953E+00
          1   -1    0    0  502    0 -0.00000000000E+00  0.00000000000E+00  0.25535021100E+04  0.25535021100E+04  0.00000000000E+00 0. -1.
         21   -1    0    0  503  502  0.00000000000E+00 -0.00000000000E+00 -0.10659219810E+03  0.10659219810E+03  0.00000000000E+00 0. -1.
         25    1    1    2    0    0 -0.39712604432E+02 -0.22955116974E+03  0.77514523718E+02  0.27550740801E+03  0.12500000000E+03 0.  0.
         21    1    1    2  503  501  0.69042566283E+01  0.22602819138E+03  0.17859817826E+04  0.18002409116E+04  0.00000000000E+00 0. -1.
          1    1    1    2  501    0  0.32808347804E+02  0.35229783629E+01  0.58341360564E+03  0.58434598853E+03  0.00000000000E+00 0. -1.
<mgrwt>
<rscale>  4 0.26367803E+03</rscale>
<asrwt>0</asrwt>
<pdfrwt beam="1">  1       21 0.16398802E-01 0.26367803E+03</pdfrwt>
<pdfrwt beam="2">  1        1 0.39284643E+00 0.26367803E+03</pdfrwt>
<totfact> 0.53640419E+02</totfact>
</mgrwt>
</event>
<event>
 5    0  0.4930573E+000  0.2376743E+03  0.7546771E-02  0.1121352E+00
         21   -1    0    0  503  502  0.00000000000E+00  0.00000000000E+00  0.44390101944E+03  0.44390101944E+03  0.00000000000E+00 0.  1.
          2   -1    0    0  502    0 -0.00000000000E+00 -0.00000000000E+00 -0.83666694612E+03  0.83666694612E+03  0.00000000000E+00 0.  1.
         25    1    1    2    0    0  0.19314244526E+03 -0.13078682516E+03 -0.41265711233E+03  0.49022453035E+03  0.12500000000E+03 0.  0.
         21    1    1    2  503  501 -0.14760029129E+03  0.13579576895E+03  0.37874736165E+03  0.42857426522E+03  0.00000000000E+00 0.  1.
          2    1    1    2  501    0 -0.45542153975E+02 -0.50089437822E+01 -0.35885617600E+03  0.36176917000E+03  0.00000000000E+00 0.  1.
<mgrwt>
<rscale>  4 0.23767427E+03</rscale>
<asrwt>0</asrwt>
<pdfrwt beam="1">  1       21 0.68292464E-01 0.23767427E+03</pdfrwt>
<pdfrwt beam="2">  1        2 0.12871799E+00 0.23767427E+03</pdfrwt>
<totfact> 0.80857158E+02</totfact>
</mgrwt>
</event>
<event>
 5    0  0.4930573E+000  0.2585143E+03  0.7546771E-02  0.1108039E+00
         21   -1    0    0  503  502  0.00000000000E+00  0.00000000000E+00  0.27040622116E+03  0.27040622116E+03  0.00000000000E+00 0. -1.
          1   -1    0    0  502    0 -0.00000000000E+00 -0.00000000000E+00 -0.17464789888E+04  0.17464789888E+04  0.00000000000E+00 0. -1.
         25    1    1    2    0    0  0.27724322818E+03  0.17774626984E+03 -0.93197837323E+02  0.36437395749E+03  0.12500000000E+03 0.  0.
         21    1    1    2  503  501 -0.16343197844E+03 -0.10466116315E+03  0.60135723342E+02  0.20317548048E+03  0.00000000000E+00 0. -1.
          1    1    1    2  501    0 -0.11381124975E+03 -0.73085106687E+02 -0.14430106537E+04  0.14493357720E+04  0.00000000000E+00 0. -1.
<mgrwt>
<rscale>  4 0.25851429E+03</rscale>
<asrwt>0</asrwt>
<pdfrwt beam="1">  1       21 0.41600957E-01 0.25851429E+03</pdfrwt>
<pdfrwt beam="2">  1        1 0.26868908E+00 0.25851429E+03</pdfrwt>
<totfact> 0.29886534E+02</totfact>
</mgrwt>
</event>
<event>
 5    0  0.4930573E+000  0.3018448E+03  0.7546771E-02  0.1084322E+00
          1   -1    0    0  502    0 -0.00000000000E+00  0.00000000000E+00  0.34742973861E+04  0.34742973861E+04  0.00000000000E+00 0.  1.
         21   -1    0    0  503  502  0.00000000000E+00 -0.00000000000E+00 -0.70510044071E+02  0.70510044071E+02  0.00000000000E+00 0.  1.
         25    1    1    2    0    0  0.15388297844E+03 -0.27974214232E+03  0.15083400493E+04  0.15468194276E+04  0.12500000000E+03 0.  0.
         21    1    1    2  503  501  0.11525626079E+03  0.19820962076E+03  0.29811576893E+03  0.37609050919E+03  0.00000000000E+00 0.  1.
          1    1    1    2  501    0 -0.26913923923E+03  0.81532521554E+02  0.15973315238E+04  0.16218974934E+04  0.00000000000E+00 0.  1.
<mgrwt>
<rscale>  4 0.30184480E+03</rscale>
<asrwt>0</asrwt>
<pdfrwt beam="1">  1       21 0.10847702E-01 0.30184480E+03</pdfrwt>
<pdfrwt beam="2">  1        1 0.53450716E+00 0.30184480E+03</pdfrwt>
<totfact> 0.24982756E+02</totfact>
</mgrwt>
</event>
<event>
 5    0  0.4930573E+000  0.4175114E+03  0.7546771E-02  0.1037879E+00
          1   -1    0    0  502    0 -0.00000000000E+00  0.00000000000E+00  0.17269761885E+04  0.17269761885E+04  0.00000000000E+00 0. -1.
         21   -1    0    0  503  502  0.00000000000E+00 -0.00000000000E+00 -0.33538457367E+03  0.33538457367E+03  0.00000000000E+00 0.  1.
         25    1    1    2    0    0 -0.38607530487E+03 -0.13574804656E+03  0.56767821295E+03  0.71089044629E+03  0.12500000000E+03 0.  0.
         21    1    1    2  503  501  0.10631565375E+02  0.19413333158E+02 -0.22771525985E+03  0.22878843340E+03  0.00000000000E+00 0.  1.
          1    1    1    2  501    0  0.37544373949E+03  0.11633471340E+03  0.10516286618E+04  0.11226818825E+04  0.00000000000E+00 0. -1.
<mgrwt>
<rscale>  4 0.41751144E+03</rscale>
<asrwt>0</asrwt>
<pdfrwt beam="1">  1       21 0.51597628E-01 0.41751144E+03</pdfrwt>
<pdfrwt beam="2">  1        1 0.26568864E+00 0.41751144E+03</pdfrwt>
<totfact> 0.18212991E+02</totfact>
</mgrwt>
</event>
<event>
 5    0  0.4930573E+000  0.2883641E+03  0.7546771E-02  0.1091206E+00
         -1   -1    0    0    0  501 -0.00000000000E+00  0.00000000000E+00  0.91559126138E+03  0.91559126138E+03  0.00000000000E+00 0.  1.
         21   -1    0    0  501  502  0.00000000000E+00 -0.00000000000E+00 -0.38562591945E+03  0.38562591945E+03  0.00000000000E+00 0. -1.
         25    1    1    2    0    0  0.32148969599E+03  0.22623549738E+03 -0.15394229152E+03  0.44029689304E+03  0.12500000000E+03 0.  0.
         21    1    1    2  503  502 -0.10095150933E+03 -0.10870148248E+03  0.17720228014E+02  0.14940289827E+03  0.00000000000E+00 0. -1.
         -1    1    1    2    0  503 -0.22053818665E+03 -0.11753401490E+03  0.66618740544E+03  0.71151738952E+03  0.00000000000E+00 0.  1.
<mgrwt>
<rscale>  4 0.28836406E+03</rscale>
<asrwt>0</asrwt>
<pdfrwt beam="1">  1       21 0.59327065E-01 0.28836406E+03</pdfrwt>
<pdfrwt beam="2">  1       -1 0.14086019E+00 0.28836406E+03</pdfrwt>
<totfact> 0.10587264E+02</totfact>
</mgrwt>
</event>
<event>
 5    0  0.4930573E+000  0.2404108E+03  0.7546771E-02  0.1119519E+00
         21   -1    0    0  503  502  0.00000000000E+00  0.00000000000E+00  0.68851502228E+02  0.68851502228E+02  0.00000000000E+00 0.  1.
          1   -1    0    0  502    0 -0.00000000000E+00 -0.00000000000E+00 -0.11606647511E+04  0.11606647511E+04  0.00000000000E+00 0.  1.
         25    1    1    2    0    0  0.17492967816E+03  0.11083728091E+03 -0.79081227487E+03  0.82697905005E+03  0.12500000000E+03 0.  0.
         21    1    1    2  503  501 -0.15521335243E+02  0.15174442586E+02  0.15323409485E+02  0.26570329952E+02  0.00000000000E+00 0.  1.
          1    1    1    2  501    0 -0.15940834292E+03 -0.12601172350E+03 -0.31632438350E+03  0.37596687334E+03  0.00000000000E+00 0.  1.
<mgrwt>
<rscale>  4 0.24041082E+03</rscale>
<asrwt>0</asrwt>
<pdfrwt beam="1">  1       21 0.10592540E-01 0.24041082E+03</pdfrwt>
<pdfrwt beam="2">  1        1 0.17856379E+00 0.24041082E+03</pdfrwt>
<totfact> 0.99532062E+03</totfact>
</mgrwt>
</event>
<event>
 5    0  0.4930573E+000  0.2945505E+03  0.7546771E-02  0.1087997E+00
          2   -1    0    0  502    0 -0.00000000000E+00  0.00000000000E+00  0.20577942354E+04  0.20577942354E+04  0.00000000000E+00 0. -1.
         21   -1    0    0  503  502  0.00000000000E+00 -0.00000000000E+00 -0.71305281472E+02  0.71305281472E+02  0.00000000000E+00 0. -1.
         25    1    1    2    0    0 -0.73550820867E+02 -0.23157572076E+03  0.28086674230E+03  0.39185222295E+03  0.12500000000E+03 0.  0.
         21    1    1    2  503  501 -0.22030492202E+02 -0.22530999372E+02  0.47213361188E+02  0.56763456502E+02  0.00000000000E+00 0.  1.
          2    1    1    2  501    0  0.95581313069E+02  0.25410672014E+03  0.16584088504E+04  0.16804838374E+04  0.00000000000E+00 0. -1.
<mgrwt>
<rscale>  4 0.29455049E+03</rscale>
<asrwt>0</asrwt>
<pdfrwt beam="1">  1       21 0.10970045E-01 0.29455049E+03</pdfrwt>
<pdfrwt beam="2">  1        2 0.31658368E+00 0.29455049E+03</pdfrwt>
<totfact> 0.59399806E+03</totfact>
</mgrwt>
</event>
<event>
 5    0  0.4930573E+000  0.2136044E+03  0.7546771E-02  0.1138743E+00
         21   -1    0    0  501  502  0.00000000000E+00  0.00000000000E+00  0.24513377779E+03  0.24513377779E+03  0.00000000000E+00 0.  1.
         -1   -1    0    0    0  501 -0.00000000000E+00 -0.00000000000E+00 -0.16388386258E+04  0.16388386258E+04  0.00000000000E+00 0. -1.
         25    1    1    2    0    0  0.10403678304E+03 -0.20572347792E+03 -0.23621243067E+03  0.35294066639E+03  0.12500000000E+03 0.  0.
         21    1    1    2  503  502  0.47906960678E+01  0.77079481356E+02  0.17323973196E+03  0.18967393586E+03  0.00000000000E+00 0.  1.
         -1    1    1    2    0  503 -0.10882747910E+03  0.12864399656E+03 -0.13307321493E+04  0.13413578013E+04  0.00000000000E+00 0. -1.
<mgrwt>
<rscale>  4 0.21360443E+03</rscale>
<asrwt>0</asrwt>
<pdfrwt beam="1">  1       21 0.37712889E-01 0.21360443E+03</pdfrwt>
<pdfrwt beam="2">  1       -1 0.25212902E+00 0.21360443E+03</pdfrwt>
<totfact> 0.49262067E+01</totfact>
</mgrwt>
</event>
<event>
 5    0  0.4930573E+000  0.2439808E+03  0.7546771E-02  0.1117169E+00
         -1   -1    0    0    0  501 -0.00000000000E+00  0.00000000000E+00  0.46199595496E+03  0.46199595496E+03  0.00000000000E+00 0. -1.
         21   -1    0    0  501  502  0.00000000000E+00 -0.00000000000E+00 -0.12164725793E+03  0.12164725793E+03  0.00000000000E+00 0.  1.
         25    1    1    2    0    0 -0.18792938106E+03  0.92650922833E+02  0.11683679269E+03  0.27051336731E+03  0.12500000000E+03 0.  0.
         21    1    1    2  503  502  0.50947507590E+02 -0.12711374336E+02  0.22613187823E+02  0.57171529896E+02  0.00000000000E+00 0.  1.
         -1    1    1    2    0  503  0.13698187347E+03 -0.79939548497E+02  0.20089871651E+03  0.25595831568E+03  0.00000000000E+00 0. -1.
<mgrwt>
<rscale>  4 0.24398083E+03</rscale>
<asrwt>0</asrwt>
<pdfrwt beam="1">  1       21 0.18714963E-01 0.24398083E+03</pdfrwt>
<pdfrwt beam="2">  1       -1 0.71076300E-01 0.24398083E+03</pdfrwt>
<totfact> 0.50094140E+03</totfact>
</mgrwt>
</event>
<event>
 5    0  0.4930573E+000  0.2561580E+03  0.7546771E-02  0.1109474E+00
         -2   -1    0    0    0  501 -0.00000000000E+00  0.00000000000E+00  0.27005640520E+03  0.27005640520E+03  0.00000000000E+00 0.  1.
         21   -1    0    0  501  502  0.00000000000E+00 -0.00000000000E+00 -0.11834431420E+04  0.11834431420E+04  0.00000000000E+00 0.  1.
         25    1    1    2    0    0  0.18730119454E+03  0.15623816978E+03 -0.67899640707E+03  0.73222484524E+03  0.12500000000E+03 0.  0.
         21    1    1    2  503  502 -0.59067412465E+01 -0.27946011507E+02 -0.42656267730E+03  0.42751793742E+03  0.00000000000E+00 0. -1.
         -2    1    1    2    0  503 -0.18139445330E+03 -0.12829215827E+03  0.19217234755E+03  0.29375676456E+03  0.00000000000E+00 0.  1.
<mgrwt>
<rscale>  4 0.25615795E+03</rscale>
<asrwt>0</asrwt>
<pdfrwt beam="1">  1       21 0.18206818E+00 0.25615795E+03</pdfrwt>
<pdfrwt beam="2">  1       -2 0.41547139E-01 0.25615795E+03</pdfrwt>
<totfact> 0.75321969E+01</totfact>
</mgrwt>
</event>
<event>
 5    0  0.4930573E+000  0.2317758E+03  0.7546771E-02  0.1125396E+00
         -1   -1    0    0    0  501 -0.00000000000E+00  0.00000000000E+00  0.15082870719E+04  0.15082870719E+04  0.00000000000E+00 0. -1.
         21   -1    0    0  501  502  0.00000000000E+00 -0.00000000000E+00 -0.97653610829E+02  0.97653610829E+02  0.00000000000E+00 0.  1.
         25    1    1    2    0    0  0.20054755169E+02 -0.21659809780E+03  0.10036105642E+03  0.27021152978E+03  0.12500000000E+03 0.  0.
         21    1    1    2  503  502  0.25186857377E+01  0.24633495133E+02  0.22266287782E+02  0.33300757227E+02  0.00000000000E+00 0.  1.
         -1    1    1    2    0  503 -0.22573440907E+02  0.19196460267E+03  0.12880061169E+04  0.13024283957E+04  0.00000000000E+00 0. -1.
<mgrwt>
<rscale>  4 0.23177581E+03</rscale>
<asrwt>0</asrwt>
<pdfrwt beam="1">  1       21 0.15023634E-01 0.23177581E+03</pdfrwt>
<pdfrwt beam="2">  1       -1 0.23204415E+00 0.23177581E+03</pdfrwt>
<totfact> 0.37885296E+02</totfact>
</mgrwt>
</event>
<event>
 5    0  0.4930573E+000  0.2704395E+03  0.7546771E-02  0.1101028E+00
         21   -1    0    0  503  502  0.00000000000E+00  0.00000000000E+00  0.21856115010E+04  0.21856115010E+04  0.00000000000E+00 0. -1.
          3   -1    0    0  502    0 -0.00000000000E+00 -0.00000000000E+00 -0.30269910025E+03  0.30269910025E+03  0.00000000000E+00 0. -1.
         25    1    1    2    0    0 -0.26205114277E+03 -0.30486055416E+03  0.62427297214E+03  0.75296248423E+03  0.12500000000E+03 0.  0.
         21    1    1    2  503  501  0.77307286940E+02  0.17210816214E+03  0.14350933665E+04  0.14474427818E+04  0.00000000000E+00 0. -1.
          3    1    1    2  501    0  0.18474385583E+03  0.13275239202E+03 -0.17645393787E+03  0.28790533522E+03  0.00000000000E+00 0. -1.
<mgrwt>
<rscale>  4 0.27043946E+03</rscale>
<asrwt>0</asrwt>
<pdfrwt beam="1">  1       21 0.33624791E+00 0.27043946E+03</pdfrwt>
<pdfrwt beam="2">  1        3 0.46569094E-01 0.27043946E+03</pdfrwt>
<totfact> 0.44177298E+00</totfact>
</mgrwt>
</event>
<event>
 5    0  0.4930573E+000  0.2137561E+03  0.7546771E-02  0.1138626E+00
          2   -1    0    0  502    0 -0.00000000000E+00  0.00000000000E+00  0.36814172293E+03  0.36814172293E+03  0.00000000000E+00 0. -1.
         21   -1    0    0  503  502  0.00000000000E+00 -0.00000000000E+00 -0.36765596471E+03  0.36765596471E+03  0.00000000000E+00 0. -1.
         25    1    1    2    0    0  0.72106347768E+02  0.20096440748E+03  0.88065162905E+02  0.26261472041E+03  0.12500000000E+03 0.  0.
         21    1    1    2  503  501 -0.26753337677E+02 -0.16584173162E+03 -0.24985000238E+03  0.30107182650E+03  0.00000000000E+00 0. -1.
          2    1    1    2  501    0 -0.45353010091E+02 -0.35122675854E+02  0.16227059770E+03  0.17211114072E+03  0.00000000000E+00 0. -1.
<mgrwt>
<rscale>  4 0.21375611E+03</rscale>
<asrwt>0</asrwt>
<pdfrwt beam="1">  1       21 0.56562456E-01 0.21375611E+03</pdfrwt>
<pdfrwt beam="2">  1        2 0.56637188E-01 0.21375611E+03</pdfrwt>
<totfact> 0.31749930E+03</totfact>
</mgrwt>
</event>
<event>
 5    0  0.4930573E+000  0.2474950E+03  0.7546771E-02  0.1114898E+00
          2   -1    0    0  502    0 -0.00000000000E+00  0.00000000000E+00  0.14887098319E+03  0.14887098319E+03  0.00000000000E+00 0.  1.
         21   -1    0    0  503  502  0.00000000000E+00 -0.00000000000E+00 -0.49682295717E+03  0.49682295717E+03  0.00000000000E+00 0.  1.
         25    1    1    2    0    0  0.19274078504E+02  0.21273756654E+03 -0.19442455811E+02  0.24825746999E+03  0.12500000000E+03 0.  0.
         21    1    1    2  503  501 -0.20970596416E+02 -0.14071898984E+03 -0.26772322355E+03  0.30317870051E+03  0.00000000000E+00 0.  1.
          2    1    1    2  501    0  0.16965179118E+01 -0.72018576698E+02 -0.60786294619E+02  0.94257769845E+02  0.00000000000E+00 0.  1.
<mgrwt>
<rscale>  4 0.24749497E+03</rscale>
<asrwt>0</asrwt>
<pdfrwt beam="1">  1       21 0.76434302E-01 0.24749497E+03</pdfrwt>
<pdfrwt beam="2">  1        2 0.22903228E-01 0.24749497E+03</pdfrwt>
<totfact> 0.43687283E+03</totfact>
</mgrwt>
</event>
<event>
 5    0  0.4930573E+000  0.2785409E+03  0.7546771E-02  0.1096489E+00
         21   -1    0    0  503  502  0.00000000000E+00  0.00000000000E+00  0.14902852279E+03  0.14902852279E+03  0.00000000000E+00 0. -1.
          2   -1    0    0  502    0 -0.00000000000E+00 -0.00000000000E+00 -0.17575745951E+04  0.17575745951E+04  0.00000000000E+00 0. -1.
         25    1    1    2    0    0 -0.28445442768E+03 -0.19230589556E+03 -0.29814175588E+03  0.47160299564E+03  0.12500000000E+03 0.  0.
         21    1    1    2  503  501  0.15025128847E+03 -0.58054813418E+01 -0.59978369522E+02  0.16188439737E+03  0.00000000000E+00 0. -1.
          2    1    1    2  501    0  0.13420313921E+03  0.19811137690E+03 -0.12504259469E+04  0.12731157249E+04  0.00000000000E+00 0. -1.
<mgrwt>
<rscale>  4 0.27854090E+03</rscale>
<asrwt>0</asrwt>
<pdfrwt beam="1">  1       21 0.22927465E-01 0.27854090E+03</pdfrwt>
<pdfrwt beam="2">  1        2 0.27039610E+00 0.27854090E+03</pdfrwt>
<totfact> 0.22028499E+03</totfact>
</mgrwt>
</event>
<event>
 5    0  0.4930573E+000  0.2995744E+03  0.7546771E-02  0.1085454E+00
         21   -1    0    0  501  502  0.00000000000E+00  0.00000000000E+00  0.16330036331E+04  0.16330036331E+04  0.00000000000E+00 0. -1.
         -1   -1    0    0    0  501 -0.00000000000E+00 -0.00000000000E+00 -0.20742592567E+03  0.20742592567E+03  0.00000000000E+00 0.  1.
         25    1    1    2    0    0  0.24950515799E+02 -0.23434055119E+03  0.10555050277E+04  0.10886936601E+04  0.12500000000E+03 0.  0.
         21    1    1    2  503  502  0.51925720372E+02 -0.30745910908E+02  0.45807859246E+03  0.46203634959E+03  0.00000000000E+00 0. -1.
         -1    1    1    2    0  503 -0.76876236172E+02  0.26508646210E+03 -0.88005912666E+02  0.28969954909E+03  0.00000000000E+00 0.  1.
<mgrwt>
<rscale>  4 0.29957437E+03</rscale>
<asrwt>0</asrwt>
<pdfrwt beam="1">  1       21 0.25123132E+00 0.29957437E+03</pdfrwt>
<pdfrwt beam="2">  1       -1 0.31911682E-01 0.29957437E+03</pdfrwt>
<totfact> 0.50309847E+01</totfact>
</mgrwt>
</event>
<event>
 5    0  0.4930573E+000  0.2477165E+03  0.7546771E-02  0.1114756E+00
          1   -1    0    0  502    0 -0.00000000000E+00  0.00000000000E+00  0.12703818415E+04  0.12703818415E+04  0.00000000000E+00 0.  1.
         21   -1    0    0  503  502  0.00000000000E+00 -0.00000000000E+00 -0.13794257187E+03  0.13794257187E+03  0.00000000000E+00 0. -1.
         25    1    1    2    0    0 -0.24423128465E+03 -0.81259866358E+02  0.43807507303E+03  0.52324645808E+03  0.12500000000E+03 0.  0.
         21    1    1    2  503  501  0.50221964372E+02  0.29648872999E+02 -0.72113479450E+02  0.92745109272E+02  0.00000000000E+00 0. -1.
          1    1    1    2  501    0  0.19400932028E+03  0.51610993360E+02  0.76647767601E+03  0.79233284597E+03  0.00000000000E+00 0.  1.
<mgrwt>
<rscale>  4 0.24771653E+03</rscale>
<asrwt>0</asrwt>
<pdfrwt beam="1">  1       21 0.21221935E-01 0.24771653E+03</pdfrwt>
<pdfrwt beam="2">  1        1 0.19544335E+00 0.24771653E+03</pdfrwt>
<totfact> 0.23309602E+03</totfact>
</mgrwt>
</event>
<event>
 5    0  0.4930573E+000  0.3311901E+03  0.7546771E-02  0.1070612E+00
          1   -1    0    0  502    0 -0.00000000000E+00  0.00000000000E+00  0.79764949441E+03  0.79764949441E+03  0.00000000000E+00 0. -1.
         21   -1    0    0  503  502  0.00000000000E+00 -0.00000000000E+00 -0.34596044566E+03  0.34596044566E+03  0.00000000000E+00 0.  1.
         25    1    1    2    0    0  0.10501228125E+03  0.29956599420E+03 -0.11061307273E+03  0.35864692380E+03  0.12500000000E+03 0.  0.
         21    1    1    2  503  501 -0.74876999397E+02  0.51902953786E+01 -0.56888552235E+02  0.94179677108E+02  0.00000000000E+00 0. -1.
          1    1    1    2  501    0 -0.30135281848E+02 -0.30475628958E+03  0.61919067371E+03  0.69078333916E+03  0.00000000000E+00 0. -1.
<mgrwt>
<rscale>  4 0.33119005E+03</rscale>
<asrwt>0</asrwt>
<pdfrwt beam="1">  1       21 0.53224684E-01 0.33119005E+03</pdfrwt>
<pdfrwt beam="2">  1        1 0.12271531E+00 0.33119005E+03</pdfrwt>
<totfact> 0.81298204E+02</totfact>
</mgrwt>
</event>
<event>
 5    0  0.4930573E+000  0.1853338E+03  0.7546771E-02  0.1162739E+00
         21   -1    0    0  501  502  0.00000000000E+00  0.00000000000E+00  0.38509660830E+03  0.38509660830E+03  0.00000000000E+00 0. -1.
         -1   -1    0    0    0  501 -0.00000000000E+00 -0.00000000000E+00 -0.82535259837E+03  0.82535259837E+03  0.00000000000E+00 0. -1.
         25    1    1    2    0    0 -0.24630445094E+03  0.42861797049E+02  0.20535170795E+03  0.34683906954E+03  0.12500000000E+03 0.  0.
         21    1    1    2  503  502  0.11292366590E+03 -0.27323628541E+02  0.69914581688E+02  0.13559640014E+03  0.00000000000E+00 0. -1.
         -1    1    1    2    0  503  0.13338078504E+03 -0.15538168508E+02 -0.71552227971E+03  0.72801373700E+03  0.00000000000E+00 0. -1.
<mgrwt>
<rscale>  4 0.18533383E+03</rscale>
<asrwt>0</asrwt>
<pdfrwt beam="1">  1       21 0.59245633E-01 0.18533383E+03</pdfrwt>
<pdfrwt beam="2">  1       -1 0.12697732E+00 0.18533383E+03</pdfrwt>
<totfact> 0.14556181E+02</totfact>
</mgrwt>
</event>
<event>
 5    0  0.4930573E+000  0.2622104E+03  0.7546771E-02  0.1105822E+00
          2   -1    0    0  502    0 -0.00000000000E+00  0.00000000000E+00  0.10884716388E+04  0.10884716388E+04  0.00000000000E+00 0.  1.
         21   -1    0    0  503  502  0.00000000000E+00 -0.00000000000E+00 -0.76590205879E+02  0.76590205879E+02  0.00000000000E+00 0. -1.
         25    1    1    2    0    0 -0.20653771012E+03 -0.10233021245E+03  0.25704099404E+03  0.36718438242E+03  0.12500000000E+03 0.  0.
         21    1    1    2  503  501  0.10499776985E+03  0.93869002025E+02  0.29516587561E+03  0.32704558603E+03  0.00000000000E+00 0. -1.
          2    1    1    2  501    0  0.10153994026E+03  0.84612104228E+01  0.45967456325E+03  0.47083187620E+03  0.00000000000E+00 0.  1.
<mgrwt>
<rscale>  4 0.26221041E+03</rscale>
<asrwt>0</asrwt>
<pdfrwt beam="1">  1       21 0.11783109E-01 0.26221041E+03</pdfrwt>
<pdfrwt beam="2">  1        2 0.16745716E+00 0.26221041E+03</pdfrwt>
<totfact> 0.17649550E+04</totfact>
</mgrwt>
</event>
<event>
 5    0  0.4930573E+000  0.2475076E+03  0.7546771E-02  0.1114890E+00
         21   -1    0    0  501  502  0.00000000000E+00  0.00000000000E+00  0.62461340490E+03  0.62461340490E+03  0.00000000000E+00 0. -1.
         -4   -1    0    0    0  501 -0.00000000000E+00 -0.00000000000E+00 -0.49927347776E+03  0.49927347776E+03  0.00000000000E+00 0.  1.
         25    1    1    2    0    0 -0.20324480544E+03  0.26658907736E+03 -0.19542859358E+03  0.40767085044E+03  0.12500000000E+03 0.  0.
         21    1    1    2  503  502  0.17464030669E+03 -0.10952177478E+03  0.46019369863E+03  0.50425439625E+03  0.00000000000E+00 0. -1.
         -4    1    1    2    0  503  0.28604498747E+02 -0.15706730258E+03 -0.13942517791E+03  0.21196163597E+03  0.00000000000E+00 0.  1.
<mgrwt>
<rscale>  4 0.24750756E+03</rscale>
<asrwt>0</asrwt>
<pdfrwt beam="1">  1       21 0.96094370E-01 0.24750756E+03</pdfrwt>
<pdfrwt beam="2">  1       -4 0.76811304E-01 0.24750756E+03</pdfrwt>
<totfact> 0.57969110E+01</totfact>
</mgrwt>
</event>
<event>
 5    0  0.4930573E+000  0.2508255E+03  0.7546771E-02  0.1112784E+00
         21   -1    0    0  503  502  0.00000000000E+00  0.00000000000E+00  0.23128629117E+03  0.23128629117E+03  0.00000000000E+00 0. -1.
          2   -1    0    0  502    0 -0.00000000000E+00 -0.00000000000E+00 -0.59396476909E+03  0.59396476909E+03  0.00000000000E+00 0.  1.
         25    1    1    2    0    0  0.24261320107E+03 -0.34452028767E+02  0.42072515968E+02  0.27828619121E+03  0.12500000000E+03 0.  0.
         21    1    1    2  503  501 -0.33246578594E+02 -0.64793032811E+01  0.40768687525E+02  0.53003794597E+02  0.00000000000E+00 0. -1.
          2    1    1    2  501    0 -0.20936662247E+03  0.40931332048E+02 -0.44551968141E+03  0.49396107445E+03  0.00000000000E+00 0.  1.
<mgrwt>
<rscale>  4 0.25082553E+03</rscale>
<asrwt>0</asrwt>
<pdfrwt beam="1">  1       21 0.35582507E-01 0.25082553E+03</pdfrwt>
<pdfrwt beam="2">  1        2 0.91379194E-01 0.25082553E+03</pdfrwt>
<totfact> 0.47972559E+03</totfact>
</mgrwt>
</event>
<event>
 5    0  0.4930573E+000  0.2465666E+03  0.7546771E-02  0.1115494E+00
          2   -1    0    0  502    0 -0.00000000000E+00  0.00000000000E+00  0.14777579341E+04  0.14777579341E+04  0.00000000000E+00 0. -1.
         21   -1    0    0  503  502  0.00000000000E+00 -0.00000000000E+00 -0.10797725713E+03  0.10797725713E+03  0.00000000000E+00 0. -1.
         25    1    1    2    0    0  0.14456788022E+03 -0.22891819507E+03  0.57861144450E+03  0.65093748988E+03  0.12500000000E+03 0.  0.
         21    1    1    2  503  501 -0.30830895609E+02  0.71161021526E+02 -0.35692566742E+02  0.85372093973E+02  0.00000000000E+00 0. -1.
          2    1    1    2  501    0 -0.11373698461E+03  0.15775717355E+03  0.82686179921E+03  0.84942560737E+03  0.00000000000E+00 0. -1.
<mgrwt>
<rscale>  4 0.24656663E+03</rscale>
<asrwt>0</asrwt>
<pdfrwt beam="1">  1       21 0.16611887E-01 0.24656663E+03</pdfrwt>
<pdfrwt beam="2">  1        2 0.22734736E+00 0.24656663E+03</pdfrwt>
<totfact> 0.57454576E+03</totfact>
</mgrwt>
</event>
<event>
 5    0  0.4930573E+000  0.2299994E+03  0.7546771E-02  0.1126640E+00
         21   -1    0    0  503  502  0.00000000000E+00  0.00000000000E+00  0.44503808007E+03  0.44503808007E+03  0.00000000000E+00 0. -1.
          2   -1    0    0  502    0 -0.00000000000E+00 -0.00000000000E+00 -0.18519352279E+04  0.18519352279E+04  0.00000000000E+00 0. -1.
         25    1    1    2    0    0 -0.21056511177E+03  0.36903234430E+02  0.37188437651E+03  0.44679134335E+03  0.12500000000E+03 0.  0.
         21    1    1    2  503  501  0.21353925644E+02  0.16241979755E+00  0.26838161701E+02  0.34297280418E+02  0.00000000000E+00 0. -1.
          2    1    1    2  501    0  0.18921118612E+03 -0.37065654228E+02 -0.18056196861E+04  0.18158846842E+04  0.00000000000E+00 0. -1.
<mgrwt>
<rscale>  4 0.22999940E+03</rscale>
<asrwt>0</asrwt>
<pdfrwt beam="1">  1       21 0.68467397E-01 0.22999940E+03</pdfrwt>
<pdfrwt beam="2">  1        2 0.28491311E+00 0.22999940E+03</pdfrwt>
<totfact> 0.21690187E+02</totfact>
</mgrwt>
</event>
<event>
 5    0  0.4930573E+000  0.2348028E+03  0.7546771E-02  0.1123304E+00
         21   -1    0    0  503  502  0.00000000000E+00  0.00000000000E+00  0.11780715862E+03  0.11780715862E+03  0.00000000000E+00 0. -1.
          2   -1    0    0  502    0 -0.00000000000E+00 -0.00000000000E+00 -0.15937130782E+04  0.15937130782E+04  0.00000000000E+00 0. -1.
         25    1    1    2    0    0 -0.21724171939E+03 -0.47136843201E+02 -0.84121406242E+02  0.26854656509E+03  0.12500000000E+03 0.  0.
         21    1    1    2  503  501  0.21134431075E+02  0.73452031292E+02 -0.61632732588E+02  0.98185838103E+02  0.00000000000E+00 0. -1.
          2    1    1    2  501    0  0.19610728832E+03 -0.26315188092E+02 -0.13301517807E+04  0.13447878336E+04  0.00000000000E+00 0. -1.
<mgrwt>
<rscale>  4 0.23480284E+03</rscale>
<asrwt>0</asrwt>
<pdfrwt beam="1">  1       21 0.18124179E-01 0.23480284E+03</pdfrwt>
<pdfrwt beam="2">  1        2 0.24518662E+00 0.23480284E+03</pdfrwt>
<totfact> 0.42609511E+03</totfact>
</mgrwt>
</event>
<event>
 5    0  0.4930573E+000  0.3684643E+03  0.7546771E-02  0.1055282E+00
         21   -1    0    0  503  502  0.00000000000E+00  0.00000000000E+00  0.19264597865E+03  0.19264597865E+03  0.00000000000E+00 0.  1.
          2   -1    0    0  502    0 -0.00000000000E+00 -0.00000000000E+00 -0.13697358415E+04  0.13697358415E+04  0.00000000000E+00 0. -1.
         25    1    1    2    0    0 -0.22774279480E+03  0.27116636159E+03 -0.57863380894E+02  0.37996203375E+03  0.12500000000E+03 0.  0.
         21    1    1    2  503  501  0.21557183823E+02  0.60239170388E+01 -0.19426847343E+02  0.29637849931E+02  0.00000000000E+00 0. -1.
          2    1    1    2  501    0  0.20618561098E+03 -0.27719027863E+03 -0.10997996346E+04  0.11527819365E+04  0.00000000000E+00 0. -1.
<mgrwt>
<rscale>  4 0.36846428E+03</rscale>
<asrwt>0</asrwt>
<pdfrwt beam="1">  1       21 0.29637842E-01 0.36846428E+03</pdfrwt>
<pdfrwt beam="2">  1        2 0.21072860E+00 0.36846428E+03</pdfrwt>
<totfact> 0.20973971E+03</totfact>
</mgrwt>
</event>
<event>
 5    0  0.4930573E+000  0.2431630E+03  0.7546771E-02  0.1117703E+00
         21   -1    0    0  503  502  0.00000000000E+00  0.00000000000E+00  0.10268763215E+04  0.10268763215E+04  0.00000000000E+00 0. -1.
          3   -1    0    0  502    0 -0.00000000000E+00 -0.00000000000E+00 -0.17548740781E+03  0.17548740781E+03  0.00000000000E+00 0. -1.
         25    1    1    2    0    0 -0.67599741263E+02 -0.19883923698E+03 -0.18394092966E+02  0.24509204360E+03  0.12500000000E+03 0.  0.
         21    1    1    2  503  501 -0.16851258228E+02  0.10828481830E+02  0.66976944534E+03  0.67006890007E+03  0.00000000000E+00 0. -1.
          3    1    1    2  501    0  0.84450999492E+02  0.18801075515E+03  0.20001356127E+03  0.28720278561E+03  0.00000000000E+00 0. -1.
<mgrwt>
<rscale>  4 0.24316302E+03</rscale>
<asrwt>0</asrwt>
<pdfrwt beam="1">  1       21 0.15798097E+00 0.24316302E+03</pdfrwt>
<pdfrwt beam="2">  1        3 0.26998063E-01 0.24316302E+03</pdfrwt>
<totfact> 0.16420803E+02</totfact>
</mgrwt>
</event>
<event>
 5    0  0.4930573E+000  0.2442844E+03  0.7546771E-02  0.1116971E+00
         21   -1    0    0  501  502  0.00000000000E+00  0.00000000000E+00  0.11072118638E+04  0.11072118638E+04  0.00000000000E+00 0. -1.
         -1   -1    0    0    0  501 -0.00000000000E+00 -0.00000000000E+00 -0.90112417595E+02  0.90112417595E+02  0.00000000000E+00 0.  1.
         25    1    1    2    0    0 -0.17363234605E+03  0.10057799773E+03  0.21002455090E+03  0.31622687615E+03  0.12500000000E+03 0.  0.
         21    1    1    2  503  502 -0.22297759204E+02  0.31181558956E+01  0.50965739897E+03  0.51015446414E+03  0.00000000000E+00 0. -1.
         -1    1    1    2    0  503  0.19593010526E+03 -0.10369615362E+03  0.29741749634E+03  0.37094294110E+03  0.00000000000E+00 0.  1.
<mgrwt>
<rscale>  4 0.24428438E+03</rscale>
<asrwt>0</asrwt>
<pdfrwt beam="1">  1       21 0.17034028E+00 0.24428438E+03</pdfrwt>
<pdfrwt beam="2">  1       -1 0.13863450E-01 0.24428438E+03</pdfrwt>
<totfact> 0.67712599E+02</totfact>
</mgrwt>
</event>
<event>
 5    0  0.4930573E+000  0.3284709E+03  0.7546771E-02  0.1071815E+00
          1   -1    0    0  502    0 -0.00000000000E+00  0.00000000000E+00  0.11468234710E+04  0.11468234710E+04  0.00000000000E+00 0.  1.
         21   -1    0    0  503  502  0.00000000000E+00 -0.00000000000E+00 -0.20472436833E+03  0.20472436833E+03  0.00000000000E+00 0.  1.
         25    1    1    2    0    0 -0.13806794865E+03 -0.32695412523E+03  0.21347212076E+03  0.43261657943E+03  0.12500000000E+03 0.  0.
         21    1    1    2  503  501  0.11737152049E+02  0.64184490064E+02 -0.53404288644E+02  0.84317421382E+02  0.00000000000E+00 0.  1.
          1    1    1    2  501    0  0.12633079660E+03  0.26276963517E+03  0.78203127059E+03  0.83461383857E+03  0.00000000000E+00 0.  1.
<mgrwt>
<rscale>  4 0.32847086E+03</rscale>
<asrwt>0</asrwt>
<pdfrwt beam="1">  1       21 0.31496057E-01 0.32847086E+03</pdfrwt>
<pdfrwt beam="2">  1        1 0.17643438E+00 0.32847086E+03</pdfrwt>
<totfact> 0.12871572E+03</totfact>
</mgrwt>
</event>
<event>
 5    0  0.4930573E+000  0.3617970E+03  0.7546771E-02  0.1057875E+00
          1   -1    0    0  502    0 -0.00000000000E+00  0.00000000000E+00  0.11282617237E+04  0.11282617237E+04  0.00000000000E+00 0. -1.
         21   -1    0    0  503  502  0.00000000000E+00 -0.00000000000E+00 -0.58912822868E+03  0.58912822868E+03  0.00000000000E+00 0. -1.
         25    1    1    2    0    0  0.25913569920E+03  0.63727587043E+02 -0.39328189900E+03  0.49143480548E+03  0.12500000000E+03 0.  0.
         21    1    1    2  503  501  0.85013679602E+02 -0.87325490419E+02 -0.87010836169E+02  0.14974629414E+03  0.00000000000E+00 0. -1.
          1    1    1    2  501    0 -0.34414937880E+03  0.23597903376E+02  0.10194262302E+04  0.10762088528E+04  0.00000000000E+00 0. -1.
<mgrwt>
<rscale>  4 0.36179696E+03</rscale>
<asrwt>0</asrwt>
<pdfrwt beam="1">  1       21 0.90635112E-01 0.36179696E+03</pdfrwt>
<pdfrwt beam="2">  1        1 0.17357873E+00 0.36179696E+03</pdfrwt>
<totfact> 0.13530390E+02</totfact>
</mgrwt>
</event>
<event>
 5    0  0.4930573E+000  0.2116338E+03  0.7546771E-02  0.1140279E+00
         21   -1    0    0  503  502  0.00000000000E+00  0.00000000000E+00  0.12721095660E+04  0.12721095660E+04  0.00000000000E+00 0.  1.
          3   -1    0    0  502    0 -0.00000000000E+00 -0.00000000000E+00 -0.33148483367E+03  0.33148483367E+03  0.00000000000E+00 0.  1.
         25    1    1    2    0    0  0.21867453442E+03  0.89328693896E+02  0.29438708700E+03  0.39760146447E+03  0.12500000000E+03 0.  0.
         21    1    1    2  503  501 -0.56263805435E+02 -0.53578368373E+02  0.89958917135E+03  0.90293794613E+03  0.00000000000E+00 0.  1.
          3    1    1    2  501    0 -0.16241072898E+03 -0.35750325523E+02 -0.25335152601E+03  0.30305498906E+03  0.00000000000E+00 0.  1.
<mgrwt>
<rscale>  4 0.21163384E+03</rscale>
<asrwt>0</asrwt>
<pdfrwt beam="1">  1       21 0.19570916E+00 0.21163384E+03</pdfrwt>
<pdfrwt beam="2">  1        3 0.50997667E-01 0.21163384E+03</pdfrwt>
<totfact> 0.26788319E+01</totfact>
</mgrwt>
</event>
<event>
 5    0  0.9274785E+000  0.2226737E+03  0.7546771E-02  0.1131905E+00
         21   -1    0    0  503  502  0.00000000000E+00  0.00000000000E+00  0.12935283573E+04  0.12935283573E+04  0.00000000000E+00 0.  1.
          2   -1    0    0  502    0 -0.00000000000E+00 -0.00000000000E+00 -0.14101951564E+04  0.14101951564E+04  0.00000000000E+00 0.  1.
         25    1    1    2    0    0  0.15277501138E+03  0.17533460370E+03 -0.41755461850E+03  0.49402356906E+03  0.12500000000E+03 0.  0.
         21    1    1    2  503  501 -0.11438142880E+03 -0.14357937679E+03  0.12479243011E+04  0.12613537212E+04  0.00000000000E+00 0.  1.
          2    1    1    2  501    0 -0.38393582581E+02 -0.31755226911E+02 -0.94703648172E+03  0.94834622334E+03  0.00000000000E+00 0.  1.
<mgrwt>
<rscale>  4 0.22267369E+03</rscale>
<asrwt>0</asrwt>
<pdfrwt beam="1">  1       21 0.19900437E+00 0.22267369E+03</pdfrwt>
<pdfrwt beam="2">  1        2 0.21695310E+00 0.22267369E+03</pdfrwt>
<totfact> 0.25768151E+01</totfact>
</mgrwt>
</event>
<event>
 5    0  0.4930573E+000  0.2600856E+03  0.7546771E-02  0.1107092E+00
          1   -1    0    0  502    0 -0.00000000000E+00  0.00000000000E+00  0.13341218578E+04  0.13341218578E+04  0.00000000000E+00 0.  1.
         21   -1    0    0  503  502  0.00000000000E+00 -0.00000000000E+00 -0.66528962389E+03  0.66528962389E+03  0.00000000000E+00 0. -1.
         25    1    1    2    0    0 -0.33822974031E+02  0.21349014429E+03 -0.57029444273E+03  0.62256147222E+03  0.12500000000E+03 0.  0.
         21    1    1    2  503  501 -0.20122062577E+02  0.83338535778E+01 -0.56871339183E+02  0.60899094724E+02  0.00000000000E+00 0. -1.
          1    1    1    2  501    0  0.53945036608E+02 -0.22182399787E+03  0.12959980158E+04  0.13159509148E+04  0.00000000000E+00 0.  1.
<mgrwt>
<rscale>  4 0.26008564E+03</rscale>
<asrwt>0</asrwt>
<pdfrwt beam="1">  1       21 0.10235225E+00 0.26008564E+03</pdfrwt>
<pdfrwt beam="2">  1        1 0.20524952E+00 0.26008564E+03</pdfrwt>
<totfact> 0.76950053E+01</totfact>
</mgrwt>
</event>
<event>
 5    0  0.4930573E+000  0.3213812E+03  0.7546771E-02  0.1075015E+00
         21   -1    0    0  503  502  0.00000000000E+00  0.00000000000E+00  0.16671720997E+03  0.16671720997E+03  0.00000000000E+00 0.  1.
          1   -1    0    0  502    0 -0.00000000000E+00 -0.00000000000E+00 -0.69217741710E+03  0.69217741710E+03  0.00000000000E+00 0.  1.
         25    1    1    2    0    0  0.21448081410E+03 -0.21919819941E+03 -0.16178025360E+03  0.36857525785E+03  0.12500000000E+03 0.  0.
         21    1    1    2  503  501 -0.23550868662E+02 -0.44507056535E+00  0.12072053109E+01  0.23585988366E+02  0.00000000000E+00 0.  1.
          1    1    1    2  501    0 -0.19092994544E+03  0.21964326998E+03 -0.36488715885E+03  0.46673338086E+03  0.00000000000E+00 0.  1.
<mgrwt>
<rscale>  4 0.32138122E+03</rscale>
<asrwt>0</asrwt>
<pdfrwt beam="1">  1       21 0.25648802E-01 0.32138122E+03</pdfrwt>
<pdfrwt beam="2">  1        1 0.10648883E+00 0.32138122E+03</pdfrwt>
<totfact> 0.44373830E+03</totfact>
</mgrwt>
</event>
<event>
 5    0  0.4930573E+000  0.2098596E+03  0.7546771E-02  0.1141677E+00
         21   -1    0    0  503  502  0.00000000000E+00  0.00000000000E+00  0.15082798997E+03  0.15082798997E+03  0.00000000000E+00 0. -1.
          2   -1    0    0  502    0 -0.00000000000E+00 -0.00000000000E+00 -0.47915176070E+03  0.47915176070E+03  0.00000000000E+00 0. -1.
         25    1    1    2    0    0 -0.58782021555E+02  0.19832721145E+03 -0.15972564319E+02  0.24221711680E+03  0.12500000000E+03 0.  0.
         21    1    1    2  503  501  0.16070251776E+02 -0.42397141198E+02 -0.12385441875E+02  0.47001805756E+02  0.00000000000E+00 0. -1.
          2    1    1    2  501    0  0.42711769779E+02 -0.15593007025E+03 -0.29996576453E+03  0.34076082812E+03  0.00000000000E+00 0. -1.
<mgrwt>
<rscale>  4 0.20985964E+03</rscale>
<asrwt>0</asrwt>
<pdfrwt beam="1">  1       21 0.23204306E-01 0.20985964E+03</pdfrwt>
<pdfrwt beam="2">  1        2 0.73715656E-01 0.20985964E+03</pdfrwt>
<totfact> 0.14214031E+04</totfact>
</mgrwt>
</event>
<event>
 5    0  0.4930573E+000  0.2379077E+03  0.7546771E-02  0.1121195E+00
         21   -1    0    0  503  502  0.00000000000E+00  0.00000000000E+00  0.32022031518E+02  0.32022031518E+02  0.00000000000E+00 0.  1.
          2   -1    0    0  502    0 -0.00000000000E+00 -0.00000000000E+00 -0.19542988551E+04  0.19542988551E+04  0.00000000000E+00 0.  1.
         25    1    1    2    0    0 -0.18179628032E+03  0.89023488872E+02 -0.13892863889E+04  0.14095093967E+04  0.12500000000E+03 0.  0.
         21    1    1    2  503  501  0.13189943536E+03 -0.70939574712E+02 -0.27225380024E+03  0.31072820286E+03  0.00000000000E+00 0.  1.
          2    1    1    2  501    0  0.49896844960E+02 -0.18083914160E+02 -0.26073663445E+03  0.26608328703E+03  0.00000000000E+00 0.  1.
<mgrwt>
<rscale>  4 0.23790769E+03</rscale>
<asrwt>0</asrwt>
<pdfrwt beam="1">  1       21 0.49264643E-02 0.23790769E+03</pdfrwt>
<pdfrwt beam="2">  1        2 0.30066149E+00 0.23790769E+03</pdfrwt>
<totfact> 0.27707856E+04</totfact>
</mgrwt>
</event>
<event>
 5    0  0.4930573E+000  0.2830729E+03  0.7546771E-02  0.1094022E+00
         21   -1    0    0  501  502  0.00000000000E+00  0.00000000000E+00  0.22151327501E+03  0.22151327501E+03  0.00000000000E+00 0. -1.
         -3   -1    0    0    0  501 -0.00000000000E+00 -0.00000000000E+00 -0.39186296208E+03  0.39186296208E+03  0.00000000000E+00 0. -1.
         25    1    1    2    0    0 -0.26965739037E+03 -0.20572455669E+02 -0.88041234587E+02  0.31066797888E+03  0.12500000000E+03 0.  0.
         21    1    1    2  503  502  0.31533245544E+02 -0.25058774055E+02  0.12802883274E+02  0.42263477753E+02  0.00000000000E+00 0.  1.
         -3    1    1    2    0  503  0.23812414483E+03  0.45631229724E+02 -0.95111335762E+02  0.26044478046E+03  0.00000000000E+00 0. -1.
<mgrwt>
<rscale>  4 0.28307293E+03</rscale>
<asrwt>0</asrwt>
<pdfrwt beam="1">  1       21 0.34078966E-01 0.28307293E+03</pdfrwt>
<pdfrwt beam="2">  1       -3 0.60286609E-01 0.28307293E+03</pdfrwt>
<totfact> 0.11076428E+03</totfact>
</mgrwt>
</event>
<event>
 5    0  0.4930573E+000  0.3087904E+03  0.7546771E-02  0.1080927E+00
          2   -1    0    0  502    0 -0.00000000000E+00  0.00000000000E+00  0.11882173799E+04  0.11882173799E+04  0.00000000000E+00 0.  1.
         21   -1    0    0  503  502  0.00000000000E+00 -0.00000000000E+00 -0.15317867976E+03  0.15317867976E+03  0.00000000000E+00 0. -1.
         25    1    1    2    0    0  0.28225662216E+03 -0.30802173879E+02  0.17330155652E+03  0.35535335113E+03  0.12500000000E+03 0.  0.
         21    1    1    2  503  501 -0.16258449875E+00  0.23911183413E+02 -0.36996862272E+02  0.44051548712E+02  0.00000000000E+00 0. -1.
          2    1    1    2  501    0 -0.28209403766E+03  0.68909904667E+01  0.89873400590E+03  0.94199115983E+03  0.00000000000E+00 0.  1.
<mgrwt>
<rscale>  4 0.30879036E+03</rscale>
<asrwt>0</asrwt>
<pdfrwt beam="1">  1       21 0.23565952E-01 0.30879036E+03</pdfrwt>
<pdfrwt beam="2">  1        2 0.18280267E+00 0.30879036E+03</pdfrwt>
<totfact> 0.42182507E+03</totfact>
</mgrwt>
</event>
<event>
 5    0  0.4930573E+000  0.2188398E+03  0.7546771E-02  0.1134751E+00
          4   -1    0    0  502    0 -0.00000000000E+00  0.00000000000E+00  0.33117149819E+03  0.33117149819E+03  0.00000000000E+00 0. -1.
         21   -1    0    0  503  502  0.00000000000E+00 -0.00000000000E+00 -0.22710306649E+03  0.22710306649E+03  0.00000000000E+00 0. -1.
         25    1    1    2    0    0  0.14370348718E+03  0.18396878323E+03  0.23649020658E+02  0.26585612953E+03  0.12500000000E+03 0.  0.
         21    1    1    2  503  501 -0.11977700206E+03 -0.99852060819E+02 -0.22286665388E+02  0.15752352118E+03  0.00000000000E+00 0. -1.
          4    1    1    2  501    0 -0.23926485116E+02 -0.84116722414E+02  0.10270607642E+03  0.13489491397E+03  0.00000000000E+00 0. -1.
<mgrwt>
<rscale>  4 0.21883978E+03</rscale>
<asrwt>0</asrwt>
<pdfrwt beam="1">  1       21 0.34938934E-01 0.21883978E+03</pdfrwt>
<pdfrwt beam="2">  1        4 0.50949461E-01 0.21883978E+03</pdfrwt>
<totfact> 0.12400594E+03</totfact>
</mgrwt>
</event>
<event>
 5    0  0.4930573E+000  0.2265789E+03  0.7546771E-02  0.1129071E+00
         21   -1    0    0  501  502  0.00000000000E+00  0.00000000000E+00  0.10403751066E+04  0.10403751066E+04  0.00000000000E+00 0.  1.
         -1   -1    0    0    0  501 -0.00000000000E+00 -0.00000000000E+00 -0.22799897010E+03  0.22799897010E+03  0.00000000000E+00 0.  1.
         25    1    1    2    0    0 -0.50724323476E+02 -0.29103842151E+03  0.73223624679E+03  0.79941931482E+03  0.12500000000E+03 0.  0.
         21    1    1    2  503  502  0.15873267336E+02  0.11183235381E+03  0.21440262144E+03  0.24233637791E+03  0.00000000000E+00 0.  1.
         -1    1    1    2    0  503  0.34851056140E+02  0.17920606770E+03 -0.13426273175E+03  0.22661838396E+03  0.00000000000E+00 0.  1.
<mgrwt>
<rscale>  4 0.22657893E+03</rscale>
<asrwt>0</asrwt>
<pdfrwt beam="1">  1       21 0.16005771E+00 0.22657893E+03</pdfrwt>
<pdfrwt beam="2">  1       -1 0.35076765E-01 0.22657893E+03</pdfrwt>
<totfact> 0.17566430E+02</totfact>
</mgrwt>
</event>
<event>
 5    0  0.4930573E+000  0.3810091E+03  0.7546771E-02  0.1050561E+00
         21   -1    0    0  503  502  0.00000000000E+00  0.00000000000E+00  0.69767660309E+03  0.69767660309E+03  0.00000000000E+00 0.  1.
          2   -1    0    0  502    0 -0.00000000000E+00 -0.00000000000E+00 -0.89881152905E+03  0.89881152905E+03  0.00000000000E+00 0.  1.
         25    1    1    2    0    0 -0.35287537167E+03  0.11377940400E+03  0.44923486389E+03  0.59573798237E+03  0.12500000000E+03 0.  0.
         21    1    1    2  503  501  0.39482247791E+02  0.62608805937E+02  0.12543586499E+03  0.14564637550E+03  0.00000000000E+00 0.  1.
          2    1    1    2  501    0  0.31339312388E+03 -0.17638820994E+03 -0.77580565484E+03  0.85510377427E+03  0.00000000000E+00 0.  1.
<mgrwt>
<rscale>  4 0.38100909E+03</rscale>
<asrwt>0</asrwt>
<pdfrwt beam="1">  1       21 0.10733486E+00 0.38100909E+03</pdfrwt>
<pdfrwt beam="2">  1        2 0.13827870E+00 0.38100909E+03</pdfrwt>
<totfact> 0.24134086E+02</totfact>
</mgrwt>
</event>
<event>
 5    0  0.4930573E+000  0.2650424E+03  0.7546771E-02  0.1104151E+00
          2   -1    0    0  502    0 -0.00000000000E+00  0.00000000000E+00  0.12639989157E+04  0.12639989157E+04  0.00000000000E+00 0.  1.
         21   -1    0    0  503  502  0.00000000000E+00 -0.00000000000E+00 -0.10482827649E+03  0.10482827649E+03  0.00000000000E+00 0.  1.
         25    1    1    2    0    0 -0.17328033740E+02 -0.23085445360E+03  0.95548644687E+03  0.99104661326E+03  0.12500000000E+03 0.  0.
         21    1    1    2  503  501  0.22615988099E+02 -0.99210739442E+01 -0.32261505515E+02  0.40628996591E+02  0.00000000000E+00 0. -1.
          2    1    1    2  501    0 -0.52879543597E+01  0.24077552754E+03  0.23594569780E+03  0.33715158229E+03  0.00000000000E+00 0.  1.
<mgrwt>
<rscale>  4 0.26504242E+03</rscale>
<asrwt>0</asrwt>
<pdfrwt beam="1">  1       21 0.16127428E-01 0.26504242E+03</pdfrwt>
<pdfrwt beam="2">  1        2 0.19446136E+00 0.26504242E+03</pdfrwt>
<totfact> 0.78946605E+03</totfact>
</mgrwt>
</event>
<event>
 5    0  0.4930573E+000  0.3425368E+03  0.7546771E-02  0.1065721E+00
          2   -1    0    0  502    0 -0.00000000000E+00  0.00000000000E+00  0.19315758116E+04  0.19315758116E+04  0.00000000000E+00 0. -1.
         21   -1    0    0  503  502  0.00000000000E+00 -0.00000000000E+00 -0.14443328832E+04  0.14443328832E+04  0.00000000000E+00 0.  1.
         25    1    1    2    0    0 -0.20591384109E+03 -0.21233423430E+02  0.82158813904E+02  0.25539467286E+03  0.12500000000E+03 0.  0.
         21    1    1    2  503  501  0.33228682252E+03 -0.17255350286E+02 -0.13347875307E+04  0.13756344107E+04  0.00000000000E+00 0.  1.
          2    1    1    2  501    0 -0.12637298143E+03  0.38488773716E+02  0.17398716452E+04  0.17448796113E+04  0.00000000000E+00 0. -1.
<mgrwt>
<rscale>  4 0.34253683E+03</rscale>
<asrwt>0</asrwt>
<pdfrwt beam="1">  1       21 0.22220506E+00 0.34253683E+03</pdfrwt>
<pdfrwt beam="2">  1        2 0.29716551E+00 0.34253683E+03</pdfrwt>
<totfact> 0.86666697E+00</totfact>
</mgrwt>
</event>
<event>
 5    0  0.4930573E+000  0.2810226E+03  0.7546771E-02  0.1095132E+00
         -4   -1    0    0    0  501 -0.00000000000E+00  0.00000000000E+00  0.76064532227E+03  0.76064532227E+03  0.00000000000E+00 0.  1.
         21   -1    0    0  501  502  0.00000000000E+00 -0.00000000000E+00 -0.22803589434E+03  0.22803589434E+03  0.00000000000E+00 0.  1.
         25    1    1    2    0    0 -0.17408250733E+03  0.16986505302E+03 -0.69370604018E+02  0.28212787225E+03  0.12500000000E+03 0.  0.
         21    1    1    2  503  502 -0.51462194353E+02  0.27243149317E+02  0.43029860221E+02  0.72402455089E+02  0.00000000000E+00 0.  1.
         -4    1    1    2    0  503  0.22554470168E+03 -0.19710820234E+03  0.55895017173E+03  0.63415088927E+03  0.00000000000E+00 0.  1.
<mgrwt>
<rscale>  4 0.28102262E+03</rscale>
<asrwt>0</asrwt>
<pdfrwt beam="1">  1       21 0.35082446E-01 0.28102262E+03</pdfrwt>
<pdfrwt beam="2">  1       -4 0.11702236E+00 0.28102262E+03</pdfrwt>
<totfact> 0.19145286E+02</totfact>
</mgrwt>
</event>
<event>
 5    0  0.4930573E+000  0.2080704E+03  0.7546771E-02  0.1143103E+00
          4   -1    0    0  502    0 -0.00000000000E+00  0.00000000000E+00  0.22220850509E+03  0.22220850509E+03  0.00000000000E+00 0.  1.
         21   -1    0    0  503  502  0.00000000000E+00 -0.00000000000E+00 -0.30485618691E+03  0.30485618691E+03  0.00000000000E+00 0.  1.
         25    1    1    2    0    0  0.86043233273E+02  0.18972085102E+03  0.60816087127E+02  0.25044168135E+03  0.12500000000E+03 0.  0.
         21    1    1    2  503  501 -0.58440100081E+02 -0.34403732523E+02 -0.72497541227E+01  0.68201327288E+02  0.00000000000E+00 0.  1.
          4    1    1    2  501    0 -0.27603133192E+02 -0.15531711850E+03 -0.13621401483E+03  0.20842168336E+03  0.00000000000E+00 0.  1.
<mgrwt>
<rscale>  4 0.20807045E+03</rscale>
<asrwt>0</asrwt>
<pdfrwt beam="1">  1       21 0.46900952E-01 0.20807045E+03</pdfrwt>
<pdfrwt beam="2">  1        4 0.34185924E-01 0.20807045E+03</pdfrwt>
<totfact> 0.15148199E+03</totfact>
</mgrwt>
</event>
<event>
 5    0  0.4930573E+000  0.2790482E+03  0.7546771E-02  0.1096210E+00
         21   -1    0    0  501  502  0.00000000000E+00  0.00000000000E+00  0.11017682713E+03  0.11017682713E+03  0.00000000000E+00 0.  1.
         -1   -1    0    0    0  501 -0.00000000000E+00 -0.00000000000E+00 -0.14803992225E+04  0.14803992225E+04  0.00000000000E+00 0. -1.
         25    1    1    2    0    0 -0.18862333474E+03 -0.12633890066E+03 -0.11148746611E+03  0.28212538937E+03  0.12500000000E+03 0.  0.
         21    1    1    2  503  502 -0.87058005064E+01 -0.31889857973E+02 -0.10260566892E+02  0.34612616731E+02  0.00000000000E+00 0. -1.
         -1    1    1    2    0  503  0.19732913524E+03  0.15822875863E+03 -0.12484743624E+04  0.12738380435E+04  0.00000000000E+00 0. -1.
<mgrwt>
<rscale>  4 0.27904817E+03</rscale>
<asrwt>0</asrwt>
<pdfrwt beam="1">  1       21 0.16950280E-01 0.27904817E+03</pdfrwt>
<pdfrwt beam="2">  1       -1 0.22775374E+00 0.27904817E+03</pdfrwt>
<totfact> 0.31697464E+02</totfact>
</mgrwt>
</event>
<event>
 5    0  0.4930573E+000  0.1953641E+03  0.7546771E-02  0.1153710E+00
         21   -1    0    0  503  502  0.00000000000E+00  0.00000000000E+00  0.35281079582E+03  0.35281079582E+03  0.00000000000E+00 0.  1.
          2   -1    0    0  502    0 -0.00000000000E+00 -0.00000000000E+00 -0.88233078082E+03  0.88233078082E+03  0.00000000000E+00 0.  1.
         25    1    1    2    0    0 -0.10277775136E+03 -0.17564146249E+03 -0.56219070722E+03  0.61081632330E+03  0.12500000000E+03 0.  0.
         21    1    1    2  503  501  0.23428583135E+02  0.82200045455E+02  0.30975671656E+03  0.32133311289E+03  0.00000000000E+00 0.  1.
          2    1    1    2  501    0  0.79349168223E+02  0.93441417033E+02 -0.27708599435E+03  0.30299214046E+03  0.00000000000E+00 0.  1.
<mgrwt>
<rscale>  4 0.19536405E+03</rscale>
<asrwt>0</asrwt>
<pdfrwt beam="1">  1       21 0.54278584E-01 0.19536405E+03</pdfrwt>
<pdfrwt beam="2">  1        2 0.13574320E+00 0.19536405E+03</pdfrwt>
<totfact> 0.12668880E+03</totfact>
</mgrwt>
</event>
<event>
 5    0  0.4930573E+000  0.3240747E+03  0.7546771E-02  0.1073789E+00
          1   -1    0    0  502    0 -0.00000000000E+00  0.00000000000E+00  0.44796046746E+03  0.44796046746E+03  0.00000000000E+00 0. -1.
         21   -1    0    0  503  502  0.00000000000E+00 -0.00000000000E+00 -0.28723636429E+03  0.28723636429E+03  0.00000000000E+00 0. -1.
         25    1    1    2    0    0  0.25513141847E+03  0.11248405296E+03  0.73457174440E+02  0.31427004206E+03  0.12500000000E+03 0.  0.
         21    1    1    2  503  501  0.31693816510E+02  0.19647108680E+02 -0.61439023189E+02  0.71869746450E+02  0.00000000000E+00 0. -1.
          1    1    1    2  501    0 -0.28682523498E+03 -0.13213116164E+03  0.14870595192E+03  0.34905704324E+03  0.00000000000E+00 0. -1.
<mgrwt>
<rscale>  4 0.32407470E+03</rscale>
<asrwt>0</asrwt>
<pdfrwt beam="1">  1       21 0.44190210E-01 0.32407470E+03</pdfrwt>
<pdfrwt beam="2">  1        1 0.68916995E-01 0.32407470E+03</pdfrwt>
<totfact> 0.27216932E+03</totfact>
</mgrwt>
</event>
<event>
 5    0  0.4930573E+000  0.2340192E+03  0.7546771E-02  0.1123842E+00
          1   -1    0    0  502    0 -0.00000000000E+00  0.00000000000E+00  0.14008678690E+04  0.14008678690E+04  0.00000000000E+00 0.  1.
         21   -1    0    0  503  502  0.00000000000E+00 -0.00000000000E+00 -0.10127552787E+04  0.10127552787E+04  0.00000000000E+00 0. -1.
         25    1    1    2    0    0  0.20069640580E+03  0.93193777218E+02 -0.15679989262E+03  0.29862239323E+03  0.12500000000E+03 0.  0.
         21    1    1    2  503  501 -0.16502968534E+02 -0.23032468434E+02 -0.77748181119E+03  0.77799794942E+03  0.00000000000E+00 0. -1.
          1    1    1    2  501    0 -0.18419343727E+03 -0.70161308784E+02  0.13223942942E+04  0.13370028051E+04  0.00000000000E+00 0.  1.
<mgrwt>
<rscale>  4 0.23401924E+03</rscale>
<asrwt>0</asrwt>
<pdfrwt beam="1">  1       21 0.15580851E+00 0.23401924E+03</pdfrwt>
<pdfrwt beam="2">  1        1 0.21551813E+00 0.23401924E+03</pdfrwt>
<totfact> 0.24444494E+01</totfact>
</mgrwt>
</event>
