<event>
 5    0  0.1041609E-002  0.5688855E+03  0.7546771E-02  0.9972148E-01
          2   -1    0    0  502    0 -0.00000000000E+00  0.00000000000E+00  0.30514123997E+04  0.30514123997E+04  0.00000000000E+00 0.  1.
         21   -1    0    0  503  502  0.00000000000E+00 -0.00000000000E+00 -0.12739936872E+03  0.12739936872E+03  0.00000000000E+00 0.  1.
         25    1    1    2    0    0  0.26369587037E+03  0.90285717719E+02  0.22484577132E+04  0.22691130671E+04  0.12500000000E+03 0.  0.
         21    1    1    2  503  501  0.13231775268E+03  0.68478146228E+02  0.59725054642E+02  0.16051269837E+03  0.00000000000E+00 0.  1.
          2    1    1    2  501    0 -0.39601362305E+03 -0.15876386395E+03  0.61583026305E+03  0.74918600295E+03  0.00000000000E+00 0.  1.
<mgrwt>
<rscale>  4 0.56888552E+03</rscale>
<asrwt>0</asrwt>
<pdfrwt beam="1">  1       21 0.19599905E-01 0.56888552E+03</pdfrwt>
<pdfrwt beam="2">  1        2 0.46944801E+00 0.56888552E+03</pdfrwt>
<totfact> 0.51367473E+02</totfact>
</mgrwt>
</event>
<event>
 5    0  0.1041609E-002  0.2767730E+03  0.7546771E-02  0.1097465E+00
         21   -1    0    0  503  502  0.00000000000E+00  0.00000000000E+00  0.15938151872E+03  0.15938151872E+03  0.00000000000E+00 0.  1.
          2   -1    0    0  502    0 -0.00000000000E+00 -0.00000000000E+00 -0.13905607361E+04  0.13905607361E+04  0.00000000000E+00 0.  1.
         25    1    1    2    0    0 -0.13967747050E+03 -0.18124151896E+03 -0.53411388240E+03  0.59435757194E+03  0.12500000000E+03 0.  0.
         21    1    1    2  503  501  0.66340770388E+02  0.87793642662E+01 -0.75613360932E+03  0.75908906605E+03  0.00000000000E+00 0. -1.
          2    1    1    2  501    0  0.73336700113E+02  0.17246215469E+03  0.59068274367E+02  0.19649561680E+03  0.00000000000E+00 0.  1.
<mgrwt>
<rscale>  4 0.27677303E+03</rscale>
<asrwt>0</asrwt>
<pdfrwt beam="1">  1       21 0.24520234E-01 0.27677303E+03</pdfrwt>
<pdfrwt beam="2">  1        2 0.21393242E+00 0.27677303E+03</pdfrwt>
<totfact> 0.30432657E+03</totfact>
</mgrwt>
</event>
<event>
 5    0  0.1041609E-002  0.3051103E+03  0.7546771E-02  0.1082714E+00
         21   -1    0    0  503  502  0.00000000000E+00  0.00000000000E+00  0.14164766604E+04  0.14164766604E+04  0.00000000000E+00 0. -1.
          3   -1    0    0  502    0 -0.00000000000E+00 -0.00000000000E+00 -0.11834595599E+03  0.11834595599E+03  0.00000000000E+00 0. -1.
         25    1    1    2    0    0  0.20307752367E+03 -0.10719476167E+03  0.13941110239E+03  0.29629656262E+03  0.12500000000E+03 0.  0.
         21    1    1    2  503  501 -0.12076871769E+03 -0.94624496970E+02  0.18322093805E+03  0.23897445625E+03  0.00000000000E+00 0.  1.
          3    1    1    2  501    0 -0.82308805981E+02  0.20181925864E+03  0.97549866400E+03  0.99955159755E+03  0.00000000000E+00 0. -1.
<mgrwt>
<rscale>  4 0.30511027E+03</rscale>
<asrwt>0</asrwt>
<pdfrwt beam="1">  1       21 0.21791947E+00 0.30511027E+03</pdfrwt>
<pdfrwt beam="2">  1        3 0.18207071E-01 0.30511027E+03</pdfrwt>
<totfact> 0.12818937E+02</totfact>
</mgrwt>
</event>
<event>
 5    0  0.1041609E-002  0.3802378E+03  0.7546771E-02  0.1050846E+00
         21   -1    0    0  503  502  0.00000000000E+00  0.00000000000E+00  0.37989491288E+03  0.37989491288E+03  0.00000000000E+00 0. -1.
          1   -1    0    0  502    0 -0.00000000000E+00 -0.00000000000E+00 -0.46845998545E+03  0.46845998545E+03  0.00000000000E+00 0. -1.
         25    1    1    2    0    0 -0.15231446460E+03 -0.16917660469E+03  0.13086384068E+03  0.29081053024E+03  0.12500000000E+03 0.  0.
         21    1    1    2  503  501 -0.12211591409E+03 -0.59540067199E+02  0.44775138890E+01  0.13593146879E+03  0.00000000000E+00 0.  1.
          1    1    1    2  501    0  0.27443037869E+03  0.22871667188E+03 -0.22390642714E+03  0.42161289931E+03  0.00000000000E+00 0. -1.
<mgrwt>
<rscale>  4 0.38023785E+03</rscale>
<asrwt>0</asrwt>
<pdfrwt beam="1">  1       21 0.58445371E-01 0.38023785E+03</pdfrwt>
<pdfrwt beam="2">  1        1 0.72070767E-01 0.38023785E+03</pdfrwt>
<totfact> 0.13982356E+03</totfact>
</mgrwt>
</event>
<event>
 5    0  0.1041609E-002  0.3632800E+03  0.7546771E-02  0.1057293E+00
         21   -1    0    0  503  502  0.00000000000E+00  0.00000000000E+00  0.38268948375E+03  0.38268948375E+03  0.00000000000E+00 0.  1.
          3   -1    0    0  502    0 -0.00000000000E+00 -0.00000000000E+00 -0.38312364521E+03  0.38312364521E+03  0.00000000000E+00 0.  1.
         25    1    1    2    0    0 -0.16128149262E+03  0.20219988753E+03 -0.47792278658E+02  0.29121403860E+03  0.12500000000E+03 0.  0.
         21    1    1    2  503  501 -0.77892649967E+02 -0.26911151646E+02  0.14127209750E+03  0.16355207285E+03  0.00000000000E+00 0. -1.
          3    1    1    2  501    0  0.23917414258E+03 -0.17528873588E+03 -0.93913980302E+02  0.31104701751E+03  0.00000000000E+00 0.  1.
<mgrwt>
<rscale>  4 0.36328001E+03</rscale>
<asrwt>0</asrwt>
<pdfrwt beam="1">  1       21 0.58875306E-01 0.36328001E+03</pdfrwt>
<pdfrwt beam="2">  1        3 0.58942099E-01 0.36328001E+03</pdfrwt>
<totfact> 0.36914261E+02</totfact>
</mgrwt>
</event>
<event>
 5    0  0.1041609E-002  0.2421790E+03  0.7546771E-02  0.1118350E+00
         21   -1    0    0  503  502  0.00000000000E+00  0.00000000000E+00  0.12521843202E+03  0.12521843202E+03  0.00000000000E+00 0. -1.
          2   -1    0    0  502    0 -0.00000000000E+00 -0.00000000000E+00 -0.13459156620E+04  0.13459156620E+04  0.00000000000E+00 0. -1.
         25    1    1    2    0    0  0.10239212111E+02  0.20114692239E+03 -0.27272095755E+03  0.36134007049E+03  0.12500000000E+03 0.  0.
         21    1    1    2  503  501  0.14586089391E+02 -0.84066099261E+02 -0.98173859012E+03  0.98543925352E+03  0.00000000000E+00 0.  1.
          2    1    1    2  501    0 -0.24825301502E+02 -0.11708082313E+03  0.33762317663E+02  0.12435477005E+03  0.00000000000E+00 0. -1.
<mgrwt>
<rscale>  4 0.24217898E+03</rscale>
<asrwt>0</asrwt>
<pdfrwt beam="1">  1       21 0.19264372E-01 0.24217898E+03</pdfrwt>
<pdfrwt beam="2">  1        2 0.20706397E+00 0.24217898E+03</pdfrwt>
<totfact> 0.51497313E+03</totfact>
</mgrwt>
</event>
<event>
 5    0  0.1041609E-002  0.3128904E+03  0.7546771E-02  0.1078969E+00
         21   -1    0    0  503  502  0.00000000000E+00  0.00000000000E+00  0.12072295681E+03  0.12072295681E+03  0.00000000000E+00 0. -1.
          2   -1    0    0  502    0 -0.00000000000E+00 -0.00000000000E+00 -0.15520324053E+04  0.15520324053E+04  0.00000000000E+00 0. -1.
         25    1    1    2    0    0 -0.14337450084E+03  0.16709934548E+03 -0.10123159222E+04  0.10434974677E+04  0.12500000000E+03 0.  0.
         21    1    1    2  503  501  0.43371086358E+02  0.90098130807E+02 -0.32133242365E+03  0.33653120330E+03  0.00000000000E+00 0.  1.
          2    1    1    2  501    0  0.10000341449E+03 -0.25719747629E+03 -0.97661102646E+02  0.29272669111E+03  0.00000000000E+00 0. -1.
<mgrwt>
<rscale>  4 0.31289038E+03</rscale>
<asrwt>0</asrwt>
<pdfrwt beam="1">  1       21 0.18572763E-01 0.31289038E+03</pdfrwt>
<pdfrwt beam="2">  1        2 0.23877421E+00 0.31289038E+03</pdfrwt>
<totfact> 0.41678630E+03</totfact>
</mgrwt>
</event>
<event>
 5    0  0.1041609E-002  0.3635136E+03  0.7546771E-02  0.1057201E+00
         21   -1    0    0  503  502  0.00000000000E+00  0.00000000000E+00  0.16760145241E+03  0.16760145241E+03  0.00000000000E+00 0.  1.
          2   -1    0    0  502    0 -0.00000000000E+00 -0.00000000000E+00 -0.94635021667E+03  0.94635021667E+03  0.00000000000E+00 0.  1.
         25    1    1    2    0    0  0.33987277781E+03  0.97688594626E+02 -0.55449589739E+03  0.66943802315E+03  0.12500000000E+03 0.  0.
         21    1    1    2  503  501 -0.35201355337E+02 -0.53673883972E+01 -0.94049763609E+02  0.10056491590E+03  0.00000000000E+00 0. -1.
          2    1    1    2  501    0 -0.30467142247E+03 -0.92321206229E+02 -0.13020310326E+03  0.34394873003E+03  0.00000000000E+00 0.  1.
<mgrwt>
<rscale>  4 0.36351355E+03</rscale>
<asrwt>0</asrwt>
<pdfrwt beam="1">  1       21 0.25784839E-01 0.36351355E+03</pdfrwt>
<pdfrwt beam="2">  1        2 0.14559234E+00 0.36351355E+03</pdfrwt>
<totfact> 0.48956590E+03</totfact>
</mgrwt>
</event>
<event>
 5    0  0.1041609E-002  0.3148963E+03  0.7546771E-02  0.1078022E+00
         21   -1    0    0  503  502  0.00000000000E+00  0.00000000000E+00  0.10466989243E+03  0.10466989243E+03  0.00000000000E+00 0.  1.
          3   -1    0    0  502    0 -0.00000000000E+00 -0.00000000000E+00 -0.13104469594E+04  0.13104469594E+04  0.00000000000E+00 0.  1.
         25    1    1    2    0    0  0.26645374749E+03 -0.13738126392E+03 -0.82818014140E+03  0.88959460308E+03  0.12500000000E+03 0.  0.
         21    1    1    2  503  501 -0.12442141727E+03 -0.26933963651E+02 -0.23014100351E+03  0.26300381931E+03  0.00000000000E+00 0. -1.
          3    1    1    2  501    0 -0.14203233022E+03  0.16431522757E+03 -0.14745592204E+03  0.26251842941E+03  0.00000000000E+00 0.  1.
<mgrwt>
<rscale>  4 0.31489635E+03</rscale>
<asrwt>0</asrwt>
<pdfrwt beam="1">  1       21 0.16103060E-01 0.31489635E+03</pdfrwt>
<pdfrwt beam="2">  1        3 0.20160723E+00 0.31489635E+03</pdfrwt>
<totfact> 0.26160884E+02</totfact>
</mgrwt>
</event>
<event>
 5    0  0.1041609E-002  0.4254492E+03  0.7546771E-02  0.1035307E+00
          1   -1    0    0  502    0 -0.00000000000E+00  0.00000000000E+00  0.96634368660E+03  0.96634368660E+03  0.00000000000E+00 0.  1.
         21   -1    0    0  503  502  0.00000000000E+00 -0.00000000000E+00 -0.25575045385E+03  0.25575045385E+03  0.00000000000E+00 0.  1.
         25    1    1    2    0    0  0.16795708378E+02  0.32565448187E+03  0.73697805254E+03  0.81553331465E+03  0.12500000000E+03 0.  0.
         21    1    1    2  503  501  0.25933311165E+02  0.26621323117E+02 -0.35765547216E+02  0.51579122135E+02  0.00000000000E+00 0.  1.
          1    1    1    2  501    0 -0.42729019544E+02 -0.35227580499E+03  0.93807274265E+01  0.35498170367E+03  0.00000000000E+00 0.  1.
<mgrwt>
<rscale>  4 0.42544919E+03</rscale>
<asrwt>0</asrwt>
<pdfrwt beam="1">  1       21 0.39346224E-01 0.42544919E+03</pdfrwt>
<pdfrwt beam="2">  1        1 0.14866826E+00 0.42544919E+03</pdfrwt>
<totfact> 0.10878375E+03</totfact>
</mgrwt>
</event>
<event>
 5    0  0.1041609E-002  0.2915339E+03  0.7546771E-02  0.1089551E+00
          2   -1    0    0  502    0 -0.00000000000E+00  0.00000000000E+00  0.69647809987E+03  0.69647809987E+03  0.00000000000E+00 0. -1.
         21   -1    0    0  503  502  0.00000000000E+00 -0.00000000000E+00 -0.13891886633E+03  0.13891886633E+03  0.00000000000E+00 0. -1.
         25    1    1    2    0    0  0.15151300811E+03 -0.16359917962E+03  0.10446528426E+03  0.27615010197E+03  0.12500000000E+03 0.  0.
         21    1    1    2  503  501  0.51338171559E+02  0.10129964132E+03  0.18856170675E+03  0.22011983655E+03  0.00000000000E+00 0.  1.
          2    1    1    2  501    0 -0.20285117967E+03  0.62299538305E+02  0.26453224253E+03  0.33912702768E+03  0.00000000000E+00 0. -1.
<mgrwt>
<rscale>  4 0.29153390E+03</rscale>
<asrwt>0</asrwt>
<pdfrwt beam="1">  1       21 0.21372134E-01 0.29153390E+03</pdfrwt>
<pdfrwt beam="2">  1        2 0.10715048E+00 0.29153390E+03</pdfrwt>
<totfact> 0.10608636E+04</totfact>
</mgrwt>
</event>
<event>
 5    0  0.1041609E-002  0.7204675E+03  0.7546771E-02  0.9682856E-01
          3   -1    0    0  502    0 -0.00000000000E+00  0.00000000000E+00  0.37883277618E+03  0.37883277618E+03  0.00000000000E+00 0. -1.
         21   -1    0    0  503  502  0.00000000000E+00 -0.00000000000E+00 -0.73523533014E+03  0.73523533014E+03  0.00000000000E+00 0. -1.
         25    1    1    2    0    0  0.15321092100E+03  0.42124032874E+03  0.33273272771E+02  0.46652878963E+03  0.12500000000E+03 0.  0.
         21    1    1    2  503  501 -0.13114272492E+02 -0.24525342629E+03 -0.67686603143E+02  0.25476009007E+03  0.00000000000E+00 0. -1.
          3    1    1    2  501    0 -0.14009664851E+03 -0.17598690245E+03 -0.32198922358E+03  0.39277922662E+03  0.00000000000E+00 0. -1.
<mgrwt>
<rscale>  4 0.72046747E+03</rscale>
<asrwt>0</asrwt>
<pdfrwt beam="1">  1       21 0.11311313E+00 0.72046747E+03</pdfrwt>
<pdfrwt beam="2">  1        3 0.58281967E-01 0.72046747E+03</pdfrwt>
<totfact> 0.78214005E+01</totfact>
</mgrwt>
</event>
<event>
 5    0  0.1041609E-002  0.3433484E+03  0.7546771E-02  0.1065379E+00
         21   -1    0    0  501  502  0.00000000000E+00  0.00000000000E+00  0.14994586025E+04  0.14994586025E+04  0.00000000000E+00 0. -1.
         -3   -1    0    0    0  501 -0.00000000000E+00 -0.00000000000E+00 -0.94392256239E+02  0.94392256239E+02  0.00000000000E+00 0. -1.
         25    1    1    2    0    0  0.30743402808E+03 -0.12144234727E+03  0.81073375456E+03  0.88440835936E+03  0.12500000000E+03 0.  0.
         21    1    1    2  503  502 -0.10404993272E+03 -0.31182295868E+02  0.30752000576E+03  0.32613996691E+03  0.00000000000E+00 0.  1.
         -3    1    1    2    0  503 -0.20338409536E+03  0.15262464314E+03  0.28681258594E+03  0.38330253247E+03  0.00000000000E+00 0. -1.
<mgrwt>
<rscale>  4 0.34334842E+03</rscale>
<asrwt>0</asrwt>
<pdfrwt beam="1">  1       21 0.23068592E+00 0.34334842E+03</pdfrwt>
<pdfrwt beam="2">  1       -3 0.14521887E-01 0.34334842E+03</pdfrwt>
<totfact> 0.15641551E+02</totfact>
</mgrwt>
</event>
<event>
 5    0  0.1041609E-002  0.6693223E+03  0.7546771E-02  0.9771183E-01
         21   -1    0    0  503  502  0.00000000000E+00  0.00000000000E+00  0.50650760284E+03  0.50650760284E+03  0.00000000000E+00 0. -1.
          2   -1    0    0  502    0 -0.00000000000E+00 -0.00000000000E+00 -0.11576004946E+04  0.11576004946E+04  0.00000000000E+00 0. -1.
         25    1    1    2    0    0 -0.92204268602E+02 -0.41120758920E+03  0.16151061934E+02  0.43986266648E+03  0.12500000000E+03 0.  0.
         21    1    1    2  503  501  0.82946952212E+02 -0.23598831769E+03  0.53212314735E+02  0.25573860367E+03  0.00000000000E+00 0.  1.
          2    1    1    2  501    0  0.92573163896E+01  0.64719590689E+03 -0.72045626847E+03  0.96850682732E+03  0.00000000000E+00 0. -1.
<mgrwt>
<rscale>  4 0.66932226E+03</rscale>
<asrwt>0</asrwt>
<pdfrwt beam="1">  1       21 0.77924247E-01 0.66932226E+03</pdfrwt>
<pdfrwt beam="2">  1        2 0.17809238E+00 0.66932226E+03</pdfrwt>
<totfact> 0.33003324E+02</totfact>
</mgrwt>
</event>
<event>
 5    0  0.1041609E-002  0.4278651E+03  0.7546771E-02  0.1034536E+00
         21   -1    0    0  503  502  0.00000000000E+00  0.00000000000E+00  0.41937960085E+03  0.41937960085E+03  0.00000000000E+00 0.  1.
          2   -1    0    0  502    0 -0.00000000000E+00 -0.00000000000E+00 -0.59350053986E+03  0.59350053986E+03  0.00000000000E+00 0.  1.
         25    1    1    2    0    0 -0.32209667001E+03  0.48969084962E+02 -0.40565410669E+03  0.53509297359E+03  0.12500000000E+03 0.  0.
         21    1    1    2  503  501  0.75779919500E+02 -0.31302903423E+02  0.21520933756E+03  0.23029877754E+03  0.00000000000E+00 0.  1.
          2    1    1    2  501    0  0.24631675051E+03 -0.17666181538E+02  0.16323830112E+02  0.24748838959E+03  0.00000000000E+00 0.  1.
<mgrwt>
<rscale>  4 0.42786513E+03</rscale>
<asrwt>0</asrwt>
<pdfrwt beam="1">  1       21 0.64519939E-01 0.42786513E+03</pdfrwt>
<pdfrwt beam="2">  1        2 0.91307775E-01 0.42786513E+03</pdfrwt>
<totfact> 0.13134359E+03</totfact>
</mgrwt>
</event>
<event>
 5    0  0.1041609E-002  0.3284973E+03  0.7546771E-02  0.1071804E+00
          2   -1    0    0  502    0 -0.00000000000E+00  0.00000000000E+00  0.34983264044E+03  0.34983264044E+03  0.00000000000E+00 0. -1.
         21   -1    0    0  503  502  0.00000000000E+00 -0.00000000000E+00 -0.64103928684E+03  0.64103928684E+03  0.00000000000E+00 0. -1.
         25    1    1    2    0    0 -0.17797388075E+03 -0.22948744907E+03  0.93499794077E+02  0.32970654073E+03  0.12500000000E+03 0.  0.
         21    1    1    2  503  501  0.80907067334E+02 -0.13843121094E+02  0.88235794120E+02  0.12051199488E+03  0.00000000000E+00 0. -1.
          2    1    1    2  501    0  0.97066813412E+02  0.24333057017E+03 -0.47294223460E+03  0.54065339166E+03  0.00000000000E+00 0. -1.
<mgrwt>
<rscale>  4 0.32849730E+03</rscale>
<asrwt>0</asrwt>
<pdfrwt beam="1">  1       21 0.98621428E-01 0.32849730E+03</pdfrwt>
<pdfrwt beam="2">  1        2 0.53820407E-01 0.32849730E+03</pdfrwt>
<totfact> 0.92162382E+02</totfact>
</mgrwt>
</event>
<event>
 5    0  0.1041609E-002  0.6499002E+03  0.7546771E-02  0.9806967E-01
          4   -1    0    0  502    0 -0.00000000000E+00  0.00000000000E+00  0.88028730122E+03  0.88028730122E+03  0.00000000000E+00 0.  1.
         21   -1    0    0  503  502  0.00000000000E+00 -0.00000000000E+00 -0.49306311127E+03  0.49306311127E+03  0.00000000000E+00 0.  1.
         25    1    1    2    0    0  0.58942186679E+03  0.25286928452E+03  0.27508977973E+03  0.70898547165E+03  0.12500000000E+03 0.  0.
         21    1    1    2  503  501 -0.32810957425E+02 -0.48987521415E+02  0.29266763137E+02  0.65824612464E+02  0.00000000000E+00 0. -1.
          4    1    1    2  501    0 -0.55661090937E+03 -0.20388176310E+03  0.82867647084E+02  0.59854032837E+03  0.00000000000E+00 0.  1.
<mgrwt>
<rscale>  4 0.64990016E+03</rscale>
<asrwt>0</asrwt>
<pdfrwt beam="1">  1       21 0.75855863E-01 0.64990016E+03</pdfrwt>
<pdfrwt beam="2">  1        4 0.13542882E+00 0.64990016E+03</pdfrwt>
<totfact> 0.24077771E+01</totfact>
</mgrwt>
</event>
<event>
 5    0  0.1041609E-002  0.2054290E+03  0.7546771E-02  0.1145238E+00
          4   -1    0    0  502    0 -0.00000000000E+00  0.00000000000E+00  0.14808991906E+04  0.14808991906E+04  0.00000000000E+00 0. -1.
         21   -1    0    0  503  502  0.00000000000E+00 -0.00000000000E+00 -0.43659209549E+02  0.43659209549E+02  0.00000000000E+00 0. -1.
         25    1    1    2    0    0  0.10792480649E+03  0.19718265306E+03  0.95266420010E+03  0.98677395622E+03  0.12500000000E+03 0.  0.
         21    1    1    2  503  501 -0.70864340651E+02 -0.91658679104E+02  0.30457864200E+03  0.32586993939E+03  0.00000000000E+00 0.  1.
          4    1    1    2  501    0 -0.37060465839E+02 -0.10552397396E+03  0.17999713899E+03  0.21191450458E+03  0.00000000000E+00 0. -1.
<mgrwt>
<rscale>  4 0.20542902E+03</rscale>
<asrwt>0</asrwt>
<pdfrwt beam="1">  1       21 0.67168026E-02 0.20542902E+03</pdfrwt>
<pdfrwt beam="2">  1        4 0.22783061E+00 0.20542902E+03</pdfrwt>
<totfact> 0.66953345E+02</totfact>
</mgrwt>
</event>
<event>
 5    0  0.1041609E-002  0.3786330E+03  0.7546771E-02  0.1051440E+00
          4   -1    0    0  502    0 -0.00000000000E+00  0.00000000000E+00  0.35273789769E+03  0.35273789769E+03  0.00000000000E+00 0.  1.
         21   -1    0    0  503  502  0.00000000000E+00 -0.00000000000E+00 -0.46450630623E+03  0.46450630623E+03  0.00000000000E+00 0.  1.
         25    1    1    2    0    0  0.15328133351E+03 -0.26794412913E+03  0.10901582925E+03  0.35042641819E+03  0.12500000000E+03 0.  0.
         21    1    1    2  503  501 -0.12717426063E+03 -0.10527021653E+02 -0.10016241832E+03  0.16222398342E+03  0.00000000000E+00 0. -1.
          4    1    1    2  501    0 -0.26107072879E+02  0.27847115079E+03 -0.12062181947E+03  0.30459380231E+03  0.00000000000E+00 0.  1.
<mgrwt>
<rscale>  4 0.37863302E+03</rscale>
<asrwt>0</asrwt>
<pdfrwt beam="1">  1       21 0.71462509E-01 0.37863302E+03</pdfrwt>
<pdfrwt beam="2">  1        4 0.54267369E-01 0.37863302E+03</pdfrwt>
<totfact> 0.23743958E+02</totfact>
</mgrwt>
</event>
<event>
 5    0  0.1041609E-002  0.4604910E+03  0.7546771E-02  0.1024639E+00
         21   -1    0    0  503  502  0.00000000000E+00  0.00000000000E+00  0.19099430956E+03  0.19099430956E+03  0.00000000000E+00 0.  1.
          2   -1    0    0  502    0 -0.00000000000E+00 -0.00000000000E+00 -0.11389591483E+04  0.11389591483E+04  0.00000000000E+00 0.  1.
         25    1    1    2    0    0  0.35467629622E+03  0.21299451170E+03 -0.50809647904E+03  0.66704495285E+03  0.12500000000E+03 0.  0.
         21    1    1    2  503  501  0.37953865472E+02 -0.59269140589E+02 -0.94732949743E+02  0.11801550194E+03  0.00000000000E+00 0.  1.
          2    1    1    2  501    0 -0.39263016169E+03 -0.15372537111E+03 -0.34513540994E+03  0.54489300306E+03  0.00000000000E+00 0.  1.
<mgrwt>
<rscale>  4 0.46049098E+03</rscale>
<asrwt>0</asrwt>
<pdfrwt beam="1">  1       21 0.29383740E-01 0.46049098E+03</pdfrwt>
<pdfrwt beam="2">  1        2 0.17522449E+00 0.46049098E+03</pdfrwt>
<totfact> 0.28272504E+03</totfact>
</mgrwt>
</event>
<event>
 5    0  0.1041609E-002  0.3904544E+03  0.7546771E-02  0.1047136E+00
         21   -1    0    0  503  502  0.00000000000E+00  0.00000000000E+00  0.15317704385E+03  0.15317704385E+03  0.00000000000E+00 0.  1.
          1   -1    0    0  502    0 -0.00000000000E+00 -0.00000000000E+00 -0.11362285238E+04  0.11362285238E+04  0.00000000000E+00 0.  1.
         25    1    1    2    0    0  0.10412922493E+03  0.26073490389E+03 -0.40220525529E+03  0.50618144274E+03  0.12500000000E+03 0.  0.
         21    1    1    2  503  501 -0.35473281375E+02  0.84311756826E+02 -0.35162460489E+03  0.36332724752E+03  0.00000000000E+00 0.  1.
          1    1    1    2  501    0 -0.68655943557E+02 -0.34504666072E+03 -0.22922161975E+03  0.41989687736E+03  0.00000000000E+00 0.  1.
<mgrwt>
<rscale>  4 0.39045441E+03</rscale>
<asrwt>0</asrwt>
<pdfrwt beam="1">  1       21 0.23565698E-01 0.39045441E+03</pdfrwt>
<pdfrwt beam="2">  1        1 0.17480439E+00 0.39045441E+03</pdfrwt>
<totfact> 0.22696574E+03</totfact>
</mgrwt>
</event>
