<event>
 5    0  0.1141006E+000  0.2606878E+03  0.7546771E-02  0.1106731E+00
          1   -1    0    0  503    0 -0.00000000000E+00  0.00000000000E+00  0.73552315266E+03  0.73552315266E+03  0.00000000000E+00 0. -1.
         21   -1    0    0  501  502  0.00000000000E+00 -0.00000000000E+00 -0.11563802198E+03  0.11563802198E+03  0.00000000000E+00 0. -1.
         25    1    1    2    0    0 -0.14756537924E+03  0.17601818893E+03  0.19351845637E+03  0.32531882352E+03  0.12500000000E+03 0.  0.
         21    1    1    2  503  502 -0.16199106165E+02 -0.16786924338E+02  0.20976172343E+03  0.21105495134E+03  0.00000000000E+00 0.  1.
          1    1    1    2  501    0  0.16376448540E+03 -0.15923126459E+03  0.21660495088E+03  0.31478739976E+03  0.00000000000E+00 0. -1.
<mgrwt>
<rscale>  4 0.26068781E+03</rscale>
<asrwt>0</asrwt>
<pdfrwt beam="1">  1       21 0.17790465E-01 0.26068781E+03</pdfrwt>
<pdfrwt beam="2">  1        1 0.11315741E+00 0.26068781E+03</pdfrwt>
<totfact> 0.82340177E+03</totfact>
</mgrwt>
</event>
<event>
 5    0  0.1141006E+000  0.2809841E+03  0.7546771E-02  0.1095153E+00
          1   -1    0    0  503    0 -0.00000000000E+00  0.00000000000E+00  0.10027457930E+04  0.10027457930E+04  0.00000000000E+00 0. -1.
         21   -1    0    0  501  502  0.00000000000E+00 -0.00000000000E+00 -0.27920057026E+03  0.27920057026E+03  0.00000000000E+00 0.  1.
         25    1    1    2    0    0 -0.23907817283E+03 -0.85395276403E+02 -0.18284441536E+03  0.33690919576E+03  0.12500000000E+03 0.  0.
         21    1    1    2  503  502  0.25711067544E+02  0.10653295079E+02  0.34567335288E+02  0.44378512359E+02  0.00000000000E+00 0.  1.
          1    1    1    2  501    0  0.21336710529E+03  0.74741981323E+02  0.87182230277E+03  0.90065865510E+03  0.00000000000E+00 0. -1.
<mgrwt>
<rscale>  4 0.28098406E+03</rscale>
<asrwt>0</asrwt>
<pdfrwt beam="1">  1       21 0.42953934E-01 0.28098406E+03</pdfrwt>
<pdfrwt beam="2">  1        1 0.15426858E+00 0.28098406E+03</pdfrwt>
<totfact> 0.89237575E+02</totfact>
</mgrwt>
</event>
<event>
 5    0  0.1141006E+000  0.2577218E+03  0.7546771E-02  0.1108520E+00
          2   -1    0    0  503    0 -0.00000000000E+00  0.00000000000E+00  0.57042490739E+03  0.57042490739E+03  0.00000000000E+00 0.  1.
         21   -1    0    0  501  502  0.00000000000E+00 -0.00000000000E+00 -0.92497320022E+03  0.92497320022E+03  0.00000000000E+00 0.  1.
         25    1    1    2    0    0 -0.16559621554E+03 -0.15441205979E+03 -0.87733533390E+03  0.91466249454E+03  0.12500000000E+03 0.  0.
         21    1    1    2  503  502  0.26869810649E+02  0.34731739273E+01  0.17451595173E+03  0.17660653179E+03  0.00000000000E+00 0. -1.
          2    1    1    2  501    0  0.13872640489E+03  0.15093888586E+03  0.34827108933E+03  0.40412908128E+03  0.00000000000E+00 0.  1.
<mgrwt>
<rscale>  4 0.25772177E+03</rscale>
<asrwt>0</asrwt>
<pdfrwt beam="1">  1       21 0.14230357E+00 0.25772177E+03</pdfrwt>
<pdfrwt beam="2">  1        2 0.87757680E-01 0.25772177E+03</pdfrwt>
<totfact> 0.22038711E+02</totfact>
</mgrwt>
</event>
<event>
 5    0  0.1141006E+000  0.2936213E+03  0.7546771E-02  0.1088473E+00
          2   -1    0    0  503    0 -0.00000000000E+00  0.00000000000E+00  0.16094043208E+04  0.16094043208E+04  0.00000000000E+00 0.  1.
         21   -1    0    0  501  502  0.00000000000E+00 -0.00000000000E+00 -0.14023070971E+03  0.14023070971E+03  0.00000000000E+00 0.  1.
         25    1    1    2    0    0  0.18963088621E+03 -0.18657567811E+03  0.72382507148E+02  0.30271204801E+03  0.12500000000E+03 0.  0.
         21    1    1    2  503  502 -0.72415370197E+02 -0.66442551757E+02  0.39556186839E+03  0.40758777000E+03  0.00000000000E+00 0.  1.
          2    1    1    2  501    0 -0.11721551602E+03  0.25301822986E+03  0.10012292355E+04  0.10393352125E+04  0.00000000000E+00 0.  1.
<mgrwt>
<rscale>  4 0.29362127E+03</rscale>
<asrwt>0</asrwt>
<pdfrwt beam="1">  1       21 0.21573956E-01 0.29362127E+03</pdfrwt>
<pdfrwt beam="2">  1        2 0.24760065E+00 0.29362127E+03</pdfrwt>
<totfact> 0.29459016E+03</totfact>
</mgrwt>
</event>
<event>
 5    0  0.1141006E+000  0.4356971E+03  0.7546771E-02  0.1032075E+00
         21   -1    0    0  501  502  0.00000000000E+00  0.00000000000E+00  0.30700858870E+03  0.30700858870E+03  0.00000000000E+00 0. -1.
          1   -1    0    0  503    0 -0.00000000000E+00 -0.00000000000E+00 -0.92540150213E+03  0.92540150213E+03  0.00000000000E+00 0. -1.
         25    1    1    2    0    0  0.40631505432E+03 -0.71858761201E+02  0.17541578967E+02  0.43149543673E+03  0.12500000000E+03 0.  0.
         21    1    1    2  503  502  0.15401143205E+02 -0.14874623614E+02 -0.15067925623E+03  0.15219292985E+03  0.00000000000E+00 0.  1.
          1    1    1    2  501    0 -0.42171619752E+03  0.86733384815E+02 -0.48525523617E+03  0.64872172426E+03  0.00000000000E+00 0. -1.
<mgrwt>
<rscale>  4 0.43569715E+03</rscale>
<asrwt>0</asrwt>
<pdfrwt beam="1">  1       21 0.47232091E-01 0.43569715E+03</pdfrwt>
<pdfrwt beam="2">  1        1 0.14236946E+00 0.43569715E+03</pdfrwt>
<totfact> 0.79869953E+02</totfact>
</mgrwt>
</event>
<event>
 5    0  0.1141006E+000  0.2364951E+03  0.7546771E-02  0.1122150E+00
         21   -1    0    0  501  502  0.00000000000E+00  0.00000000000E+00  0.27109931275E+03  0.27109931275E+03  0.00000000000E+00 0.  1.
          3   -1    0    0  503    0 -0.00000000000E+00 -0.00000000000E+00 -0.26318091273E+03  0.26318091273E+03  0.00000000000E+00 0.  1.
         25    1    1    2    0    0  0.62666738422E+02  0.20587321561E+03  0.62441800582E+02  0.25658308492E+03  0.12500000000E+03 0.  0.
         21    1    1    2  503  502 -0.44883867861E+01 -0.26383674990E+02 -0.82699519717E+02  0.86922117343E+02  0.00000000000E+00 0. -1.
          3    1    1    2  501    0 -0.58178351636E+02 -0.17948954062E+03  0.28176119159E+02  0.19077502321E+03  0.00000000000E+00 0.  1.
<mgrwt>
<rscale>  4 0.23649510E+03</rscale>
<asrwt>0</asrwt>
<pdfrwt beam="1">  1       21 0.41707587E-01 0.23649510E+03</pdfrwt>
<pdfrwt beam="2">  1        3 0.40489371E-01 0.23649510E+03</pdfrwt>
<totfact> 0.16522749E+03</totfact>
</mgrwt>
</event>
<event>
 5    0  0.1141006E+000  0.2281962E+03  0.7546771E-02  0.1127916E+00
         -3   -1    0    0    0  501 -0.00000000000E+00  0.00000000000E+00  0.34906181950E+03  0.34906181950E+03  0.00000000000E+00 0. -1.
         21   -1    0    0  503  502  0.00000000000E+00 -0.00000000000E+00 -0.54185542982E+03  0.54185542982E+03  0.00000000000E+00 0. -1.
         25    1    1    2    0    0  0.10256244228E+01  0.20466954149E+03 -0.41220714089E+03  0.47689663463E+03  0.12500000000E+03 0.  0.
         21    1    1    2  503  501 -0.89644297138E+02 -0.56296543962E+02  0.21670396060E+03  0.24117629944E+03  0.00000000000E+00 0. -1.
         -3    1    1    2    0  502  0.88618672715E+02 -0.14837299753E+03  0.27095699693E+01  0.17284431526E+03  0.00000000000E+00 0. -1.
<mgrwt>
<rscale>  4 0.22819624E+03</rscale>
<asrwt>0</asrwt>
<pdfrwt beam="1">  1       21 0.83362374E-01 0.22819624E+03</pdfrwt>
<pdfrwt beam="2">  1       -3 0.53701818E-01 0.22819624E+03</pdfrwt>
<totfact> 0.21157834E+02</totfact>
</mgrwt>
</event>
<event>
 5    0  0.1141006E+000  0.2820055E+03  0.7546771E-02  0.1094599E+00
         -1   -1    0    0    0  501 -0.00000000000E+00  0.00000000000E+00  0.32595425413E+03  0.32595425413E+03  0.00000000000E+00 0. -1.
         21   -1    0    0  503  502  0.00000000000E+00 -0.00000000000E+00 -0.23928653603E+03  0.23928653603E+03  0.00000000000E+00 0. -1.
         25    1    1    2    0    0 -0.25202484123E+03 -0.19635571239E+02  0.83983615932E+02  0.29424534661E+03  0.12500000000E+03 0.  0.
         21    1    1    2  503  501  0.46952999237E+02  0.15673458112E+02  0.38591761322E+02  0.62765957879E+02  0.00000000000E+00 0.  1.
         -1    1    1    2    0  502  0.20507184200E+03  0.39621131274E+01 -0.35907659154E+02  0.20822948568E+03  0.00000000000E+00 0. -1.
<mgrwt>
<rscale>  4 0.28200545E+03</rscale>
<asrwt>0</asrwt>
<pdfrwt beam="1">  1       21 0.36813313E-01 0.28200545E+03</pdfrwt>
<pdfrwt beam="2">  1       -1 0.50146808E-01 0.28200545E+03</pdfrwt>
<totfact> 0.26288889E+03</totfact>
</mgrwt>
</event>
<event>
 5    0  0.1141006E+000  0.6134478E+03  0.7546771E-02  0.9877892E-01
         21   -1    0    0  501  502  0.00000000000E+00  0.00000000000E+00  0.87750596027E+03  0.87750596027E+03  0.00000000000E+00 0.  1.
          1   -1    0    0  503    0 -0.00000000000E+00 -0.00000000000E+00 -0.19361030489E+04  0.19361030489E+04  0.00000000000E+00 0.  1.
         25    1    1    2    0    0  0.40197568624E+03  0.59788633444E+03  0.55525633432E+03  0.91814329930E+03  0.12500000000E+03 0.  0.
         21    1    1    2  503  502 -0.11996125672E+03 -0.76940717836E+02  0.32161999290E+02  0.14609918334E+03  0.00000000000E+00 0. -1.
          1    1    1    2  501    0 -0.28201442952E+03 -0.52094561661E+03 -0.16460154223E+04  0.17493665265E+04  0.00000000000E+00 0.  1.
<mgrwt>
<rscale>  4 0.61344783E+03</rscale>
<asrwt>0</asrwt>
<pdfrwt beam="1">  1       21 0.13500092E+00 0.61344783E+03</pdfrwt>
<pdfrwt beam="2">  1        1 0.29786201E+00 0.61344783E+03</pdfrwt>
<totfact> 0.12788992E+01</totfact>
</mgrwt>
</event>
<event>
 5    0  0.1141006E+000  0.2547219E+03  0.7546771E-02  0.1110357E+00
         21   -1    0    0  501  502  0.00000000000E+00  0.00000000000E+00  0.11848787738E+04  0.11848787738E+04  0.00000000000E+00 0.  1.
          2   -1    0    0  503    0 -0.00000000000E+00 -0.00000000000E+00 -0.20577385405E+03  0.20577385405E+03  0.00000000000E+00 0.  1.
         25    1    1    2    0    0  0.14383943443E+03  0.16902201225E+03  0.11022678642E+04  0.11313167850E+04  0.12500000000E+03 0.  0.
         21    1    1    2  503  502 -0.56468124584E+02 -0.43363306577E+02 -0.17379864814E+02  0.73287687590E+02  0.00000000000E+00 0.  1.
          2    1    1    2  501    0 -0.87371309846E+02 -0.12565870567E+03 -0.10578307972E+03  0.18604815519E+03  0.00000000000E+00 0.  1.
<mgrwt>
<rscale>  4 0.25472186E+03</rscale>
<asrwt>0</asrwt>
<pdfrwt beam="1">  1       21 0.18228904E+00 0.25472186E+03</pdfrwt>
<pdfrwt beam="2">  1        2 0.31657517E-01 0.25472186E+03</pdfrwt>
<totfact> 0.34311737E+02</totfact>
</mgrwt>
</event>
<event>
 5    0  0.1141006E+000  0.2583516E+03  0.7546771E-02  0.1108138E+00
         21   -1    0    0  501  502  0.00000000000E+00  0.00000000000E+00  0.15151077287E+04  0.15151077287E+04  0.00000000000E+00 0. -1.
          2   -1    0    0  503    0 -0.00000000000E+00 -0.00000000000E+00 -0.25773195588E+03  0.25773195588E+03  0.00000000000E+00 0. -1.
         25    1    1    2    0    0 -0.22803786650E+03 -0.12118608742E+02  0.14397330298E+04  0.14630804238E+04  0.12500000000E+03 0.  0.
         21    1    1    2  503  502  0.44562357110E+02  0.19525421548E+02  0.31317018430E+01  0.48752982619E+02  0.00000000000E+00 0. -1.
          2    1    1    2  501    0  0.18347550939E+03 -0.74068128058E+01 -0.18548895883E+03  0.26100627822E+03  0.00000000000E+00 0. -1.
<mgrwt>
<rscale>  4 0.25835156E+03</rscale>
<asrwt>0</asrwt>
<pdfrwt beam="1">  1       21 0.23309349E+00 0.25835156E+03</pdfrwt>
<pdfrwt beam="2">  1        2 0.39651071E-01 0.25835156E+03</pdfrwt>
<totfact> 0.12644358E+02</totfact>
</mgrwt>
</event>
<event>
 5    0  0.1141006E+000  0.4659948E+03  0.7546771E-02  0.1023057E+00
          1   -1    0    0  503    0 -0.00000000000E+00  0.00000000000E+00  0.11834098190E+04  0.11834098190E+04  0.00000000000E+00 0.  1.
         21   -1    0    0  501  502  0.00000000000E+00 -0.00000000000E+00 -0.67119718787E+03  0.67119718787E+03  0.00000000000E+00 0. -1.
         25    1    1    2    0    0 -0.30161805030E+03 -0.29201827710E+03 -0.51297274646E+03  0.67454737494E+03  0.12500000000E+03 0.  0.
         21    1    1    2  503  502 -0.44092450675E+02  0.19362269866E+01 -0.14660738175E+02  0.46506240714E+02  0.00000000000E+00 0. -1.
          1    1    1    2  501    0  0.34571050098E+03  0.29008205011E+03  0.10398461158E+04  0.11335533912E+04  0.00000000000E+00 0.  1.
<mgrwt>
<rscale>  4 0.46599484E+03</rscale>
<asrwt>0</asrwt>
<pdfrwt beam="1">  1       21 0.10326111E+00 0.46599484E+03</pdfrwt>
<pdfrwt beam="2">  1        1 0.18206305E+00 0.46599484E+03</pdfrwt>
<totfact> 0.86567820E+01</totfact>
</mgrwt>
</event>
<event>
 5    0  0.1141006E+000  0.3666689E+03  0.7546771E-02  0.1055974E+00
         21   -1    0    0  503  502  0.00000000000E+00  0.00000000000E+00  0.27511655623E+03  0.27511655623E+03  0.00000000000E+00 0.  1.
         -3   -1    0    0    0  501 -0.00000000000E+00 -0.00000000000E+00 -0.62114808060E+03  0.62114808060E+03  0.00000000000E+00 0. -1.
         25    1    1    2    0    0 -0.60463385603E+01 -0.34403345237E+03  0.13359125974E+02  0.36633187249E+03  0.12500000000E+03 0.  0.
         21    1    1    2  503  501  0.32996924735E+02 -0.19762019025E+01 -0.72385957919E+02  0.79576562628E+02  0.00000000000E+00 0.  1.
         -3    1    1    2    0  502 -0.26950586175E+02  0.34600965427E+03 -0.28700469243E+03  0.45035620171E+03  0.00000000000E+00 0. -1.
<mgrwt>
<rscale>  4 0.36666894E+03</rscale>
<asrwt>0</asrwt>
<pdfrwt beam="1">  1       21 0.42325625E-01 0.36666894E+03</pdfrwt>
<pdfrwt beam="2">  1       -3 0.95561242E-01 0.36666894E+03</pdfrwt>
<totfact> 0.25746543E+02</totfact>
</mgrwt>
</event>
<event>
 5    0  0.1141006E+000  0.5034967E+03  0.7546771E-02  0.1012870E+00
         -4   -1    0    0    0  501 -0.00000000000E+00  0.00000000000E+00  0.26939046009E+03  0.26939046009E+03  0.00000000000E+00 0.  1.
         21   -1    0    0  503  502  0.00000000000E+00 -0.00000000000E+00 -0.94390304756E+03  0.94390304756E+03  0.00000000000E+00 0.  1.
         25    1    1    2    0    0  0.26326888731E+03  0.41057696065E+03 -0.37483663236E+03  0.62770331256E+03  0.12500000000E+03 0.  0.
         21    1    1    2  503  501  0.49123335303E+00 -0.47763320910E+02 -0.31257786598E+01  0.47868012563E+02  0.00000000000E+00 0. -1.
         -4    1    1    2    0  502 -0.26376012066E+03 -0.36281363974E+03 -0.29655017645E+03  0.53772218253E+03  0.00000000000E+00 0.  1.
<mgrwt>
<rscale>  4 0.50349672E+03</rscale>
<asrwt>0</asrwt>
<pdfrwt beam="1">  1       21 0.14521585E+00 0.50349672E+03</pdfrwt>
<pdfrwt beam="2">  1       -4 0.41444686E-01 0.50349672E+03</pdfrwt>
<totfact> 0.71750261E+01</totfact>
</mgrwt>
</event>
<event>
 5    0  0.1141006E+000  0.3546743E+03  0.7546771E-02  0.1060713E+00
         21   -1    0    0  503  502  0.00000000000E+00  0.00000000000E+00  0.60532103861E+03  0.60532103861E+03  0.00000000000E+00 0.  1.
         -4   -1    0    0    0  501 -0.00000000000E+00 -0.00000000000E+00 -0.26066168980E+03  0.26066168980E+03  0.00000000000E+00 0.  1.
         25    1    1    2    0    0 -0.13657771588E+03 -0.29884463783E+03  0.31309296142E+03  0.47075874132E+03  0.12500000000E+03 0.  0.
         21    1    1    2  503  501 -0.50073255327E+02  0.13083814848E+02  0.13206191939E+02  0.53412738326E+02  0.00000000000E+00 0. -1.
         -4    1    1    2    0  502  0.18665097121E+03  0.28576082298E+03  0.18360195452E+02  0.34181124876E+03  0.00000000000E+00 0.  1.
<mgrwt>
<rscale>  4 0.35467431E+03</rscale>
<asrwt>0</asrwt>
<pdfrwt beam="1">  1       21 0.93126314E-01 0.35467431E+03</pdfrwt>
<pdfrwt beam="2">  1       -4 0.40101798E-01 0.35467431E+03</pdfrwt>
<totfact> 0.24056147E+02</totfact>
</mgrwt>
</event>
<event>
 5    0  0.1141006E+000  0.2960353E+03  0.7546771E-02  0.1087239E+00
          2   -1    0    0  503    0 -0.00000000000E+00  0.00000000000E+00  0.31961473194E+03  0.31961473194E+03  0.00000000000E+00 0.  1.
         21   -1    0    0  501  502  0.00000000000E+00 -0.00000000000E+00 -0.85880507103E+03  0.85880507103E+03  0.00000000000E+00 0.  1.
         25    1    1    2    0    0 -0.70539486050E+02 -0.25026413896E+03 -0.66655144002E+03  0.72630832332E+03  0.12500000000E+03 0.  0.
         21    1    1    2  503  502  0.46376999754E+02 -0.73081555699E+02  0.91394292505E+02  0.12587555995E+03  0.00000000000E+00 0. -1.
          2    1    1    2  501    0  0.24162486296E+02  0.32334569466E+03  0.35966808420E+02  0.32623591970E+03  0.00000000000E+00 0.  1.
<mgrwt>
<rscale>  4 0.29603533E+03</rscale>
<asrwt>0</asrwt>
<pdfrwt beam="1">  1       21 0.13212385E+00 0.29603533E+03</pdfrwt>
<pdfrwt beam="2">  1        2 0.49171499E-01 0.29603533E+03</pdfrwt>
<totfact> 0.49792157E+02</totfact>
</mgrwt>
</event>
<event>
 5    0  0.1141006E+000  0.3622949E+03  0.7546771E-02  0.1057679E+00
          2   -1    0    0  503    0 -0.00000000000E+00  0.00000000000E+00  0.97923517405E+03  0.97923517405E+03  0.00000000000E+00 0. -1.
         21   -1    0    0  501  502  0.00000000000E+00 -0.00000000000E+00 -0.24803726304E+03  0.24803726304E+03  0.00000000000E+00 0. -1.
         25    1    1    2    0    0 -0.28524521441E+03 -0.13561711503E+03  0.73209147909E+03  0.80705623595E+03  0.12500000000E+03 0.  0.
         21    1    1    2  503  502 -0.22241094426E+02 -0.19880471387E+02  0.63062801425E+02  0.69762571250E+02  0.00000000000E+00 0. -1.
          2    1    1    2  501    0  0.30748630884E+03  0.15549758641E+03 -0.63956369504E+02  0.35045362989E+03  0.00000000000E+00 0. -1.
<mgrwt>
<rscale>  4 0.36229486E+03</rscale>
<asrwt>0</asrwt>
<pdfrwt beam="1">  1       21 0.38159579E-01 0.36229486E+03</pdfrwt>
<pdfrwt beam="2">  1        2 0.15065156E+00 0.36229486E+03</pdfrwt>
<totfact> 0.21406962E+03</totfact>
</mgrwt>
</event>
<event>
 5    0  0.1141006E+000  0.3268281E+03  0.7546771E-02  0.1072549E+00
          2   -1    0    0  503    0 -0.00000000000E+00  0.00000000000E+00  0.70175667807E+03  0.70175667807E+03  0.00000000000E+00 0. -1.
         21   -1    0    0  501  502  0.00000000000E+00 -0.00000000000E+00 -0.24385369861E+03  0.24385369861E+03  0.00000000000E+00 0. -1.
         25    1    1    2    0    0  0.32907279792E+02 -0.30616410074E+03 -0.50156462507E+02  0.33609524896E+03  0.12500000000E+03 0.  0.
         21    1    1    2  503  502  0.18480257995E+02  0.25535728162E+02  0.14175808791E+03  0.14522034581E+03  0.00000000000E+00 0. -1.
          2    1    1    2  501    0 -0.51387537787E+02  0.28062837257E+03  0.36630135405E+03  0.46429478191E+03  0.00000000000E+00 0. -1.
<mgrwt>
<rscale>  4 0.32682813E+03</rscale>
<asrwt>0</asrwt>
<pdfrwt beam="1">  1       21 0.37515954E-01 0.32682813E+03</pdfrwt>
<pdfrwt beam="2">  1        2 0.10796256E+00 0.32682813E+03</pdfrwt>
<totfact> 0.34639582E+03</totfact>
</mgrwt>
</event>
<event>
 5    0  0.1141006E+000  0.2610601E+03  0.7546771E-02  0.1106508E+00
         21   -1    0    0  503  502  0.00000000000E+00  0.00000000000E+00  0.10699242877E+04  0.10699242877E+04  0.00000000000E+00 0. -1.
         -3   -1    0    0    0  501 -0.00000000000E+00 -0.00000000000E+00 -0.52730765209E+03  0.52730765209E+03  0.00000000000E+00 0.  1.
         25    1    1    2    0    0  0.46971022559E+02  0.22428076271E+03  0.84540997805E+03  0.88478877054E+03  0.12500000000E+03 0.  0.
         21    1    1    2  503  501  0.26621533565E+02 -0.57751223305E+01 -0.44218066480E+03  0.44301895943E+03  0.00000000000E+00 0.  1.
         -3    1    1    2    0  502 -0.73592556124E+02 -0.21850564038E+03  0.13938732234E+03  0.26942420979E+03  0.00000000000E+00 0.  1.
<mgrwt>
<rscale>  4 0.26106014E+03</rscale>
<asrwt>0</asrwt>
<pdfrwt beam="1">  1       21 0.16460374E+00 0.26106014E+03</pdfrwt>
<pdfrwt beam="2">  1       -3 0.81124255E-01 0.26106014E+03</pdfrwt>
<totfact> 0.15974344E+01</totfact>
</mgrwt>
</event>
<event>
 5    0  0.1141006E+000  0.2750475E+03  0.7546771E-02  0.1098425E+00
          2   -1    0    0  503    0 -0.00000000000E+00  0.00000000000E+00  0.29433383297E+04  0.29433383297E+04  0.00000000000E+00 0. -1.
         21   -1    0    0  501  502  0.00000000000E+00 -0.00000000000E+00 -0.62626804048E+02  0.62626804048E+02  0.00000000000E+00 0.  1.
         25    1    1    2    0    0  0.24776061744E+03 -0.18338743108E+02  0.32390541963E+03  0.42692078179E+03  0.12500000000E+03 0.  0.
         21    1    1    2  503  502 -0.13793279249E+02  0.15221836044E+02  0.13279917006E+04  0.13281505621E+04  0.00000000000E+00 0. -1.
          2    1    1    2  501    0 -0.23396733819E+03  0.31169070642E+01  0.12288144055E+04  0.12508937899E+04  0.00000000000E+00 0. -1.
<mgrwt>
<rscale>  4 0.27504752E+03</rscale>
<asrwt>0</asrwt>
<pdfrwt beam="1">  1       21 0.96348952E-02 0.27504752E+03</pdfrwt>
<pdfrwt beam="2">  1        2 0.45282118E+00 0.27504752E+03</pdfrwt>
<totfact> 0.24486378E+03</totfact>
</mgrwt>
</event>
<event>
 5    0  0.1141006E+000  0.3778742E+03  0.7546771E-02  0.1051722E+00
         21   -1    0    0  501  502  0.00000000000E+00  0.00000000000E+00  0.15370901629E+04  0.15370901629E+04  0.00000000000E+00 0. -1.
          2   -1    0    0  503    0 -0.00000000000E+00 -0.00000000000E+00 -0.76562344027E+03  0.76562344027E+03  0.00000000000E+00 0. -1.
         25    1    1    2    0    0  0.32747859521E+03  0.12908803234E+03  0.13648220656E+04  0.14150159791E+04  0.12500000000E+03 0.  0.
         21    1    1    2  503  502  0.99102122353E+02  0.92558022218E+02 -0.16210017170E+02  0.13656860103E+03  0.00000000000E+00 0. -1.
          2    1    1    2  501    0 -0.42658071756E+03 -0.22164605456E+03 -0.57714532581E+03  0.75112902300E+03  0.00000000000E+00 0. -1.
<mgrwt>
<rscale>  4 0.37787423E+03</rscale>
<asrwt>0</asrwt>
<pdfrwt beam="1">  1       21 0.23647541E+00 0.37787423E+03</pdfrwt>
<pdfrwt beam="2">  1        2 0.11778822E+00 0.37787423E+03</pdfrwt>
<totfact> 0.32457464E+01</totfact>
</mgrwt>
</event>
<event>
 5    0  0.1141006E+000  0.2843880E+03  0.7546771E-02  0.1093316E+00
         21   -1    0    0  501  502  0.00000000000E+00  0.00000000000E+00  0.38086753084E+03  0.38086753084E+03  0.00000000000E+00 0.  1.
          2   -1    0    0  503    0 -0.00000000000E+00 -0.00000000000E+00 -0.20693596372E+04  0.20693596372E+04  0.00000000000E+00 0.  1.
         25    1    1    2    0    0 -0.22572213420E+03 -0.12168345510E+03  0.31449169977E+03  0.42460260755E+03  0.12500000000E+03 0.  0.
         21    1    1    2  503  502  0.32023020256E+02  0.16458057678E+02 -0.58543161830E+02  0.68728766073E+02  0.00000000000E+00 0.  1.
          2    1    1    2  501    0  0.19369911394E+03  0.10522539743E+03 -0.19444406443E+04  0.19568957944E+04  0.00000000000E+00 0.  1.
<mgrwt>
<rscale>  4 0.28438804E+03</rscale>
<asrwt>0</asrwt>
<pdfrwt beam="1">  1       21 0.58595003E-01 0.28438804E+03</pdfrwt>
<pdfrwt beam="2">  1        2 0.31836303E+00 0.28438804E+03</pdfrwt>
<totfact> 0.22581339E+02</totfact>
</mgrwt>
</event>
<event>
 5    0  0.1141006E+000  0.2778938E+03  0.7546771E-02  0.1096845E+00
         -1   -1    0    0    0  501 -0.00000000000E+00  0.00000000000E+00  0.97613754960E+03  0.97613754960E+03  0.00000000000E+00 0.  1.
         21   -1    0    0  503  502  0.00000000000E+00 -0.00000000000E+00 -0.32151039693E+03  0.32151039693E+03  0.00000000000E+00 0.  1.
         25    1    1    2    0    0  0.13044741213E+03  0.21114789610E+03 -0.23949752891E+03  0.36685695811E+03  0.12500000000E+03 0.  0.
         21    1    1    2  503  501 -0.52936814457E+02 -0.40812652696E+02  0.16481726873E+03  0.17785587147E+03  0.00000000000E+00 0.  1.
         -1    1    1    2    0  502 -0.77510597671E+02 -0.17033524340E+03  0.72930741285E+03  0.75293511695E+03  0.00000000000E+00 0.  1.
<mgrwt>
<rscale>  4 0.27789380E+03</rscale>
<asrwt>0</asrwt>
<pdfrwt beam="1">  1       21 0.49463138E-01 0.27789380E+03</pdfrwt>
<pdfrwt beam="2">  1       -1 0.15017501E+00 0.27789380E+03</pdfrwt>
<totfact> 0.13273876E+02</totfact>
</mgrwt>
</event>
<event>
 5    0  0.1141006E+000  0.2498371E+03  0.7546771E-02  0.1113408E+00
         21   -1    0    0  503  502  0.00000000000E+00  0.00000000000E+00  0.43678562497E+02  0.43678562497E+02  0.00000000000E+00 0.  1.
         -2   -1    0    0    0  501 -0.00000000000E+00 -0.00000000000E+00 -0.17123099546E+04  0.17123099546E+04  0.00000000000E+00 0.  1.
         25    1    1    2    0    0  0.20734705998E+03 -0.26670935676E+02 -0.50857238509E+03  0.56389273179E+03  0.12500000000E+03 0.  0.
         21    1    1    2  503  501  0.14288531513E+02 -0.40365915584E+02 -0.19513862645E+03  0.19978151267E+03  0.00000000000E+00 0.  1.
         -2    1    1    2    0  502 -0.22163559149E+03  0.67036851260E+02 -0.96492038057E+03  0.99231427264E+03  0.00000000000E+00 0.  1.
<mgrwt>
<rscale>  4 0.24983710E+03</rscale>
<asrwt>0</asrwt>
<pdfrwt beam="1">  1       21 0.67197802E-02 0.24983710E+03</pdfrwt>
<pdfrwt beam="2">  1       -2 0.26343225E+00 0.24983710E+03</pdfrwt>
<totfact> 0.79962497E+02</totfact>
</mgrwt>
</event>
<event>
 5    0  0.1141006E+000  0.3164646E+03  0.7546771E-02  0.1077288E+00
          3   -1    0    0  503    0 -0.00000000000E+00  0.00000000000E+00  0.28808518073E+03  0.28808518073E+03  0.00000000000E+00 0. -1.
         21   -1    0    0  501  502  0.00000000000E+00 -0.00000000000E+00 -0.74263468805E+03  0.74263468805E+03  0.00000000000E+00 0.  1.
         25    1    1    2    0    0 -0.10737232244E+03  0.27017775656E+03 -0.60484219998E+03  0.68263015070E+03  0.12500000000E+03 0.  0.
         21    1    1    2  503  502  0.25717326130E+01 -0.10207722808E+03  0.46447425983E+01  0.10221520403E+03  0.00000000000E+00 0. -1.
          3    1    1    2  501    0  0.10480058983E+03 -0.16810052849E+03  0.14564795006E+03  0.24587451406E+03  0.00000000000E+00 0. -1.
<mgrwt>
<rscale>  4 0.31646459E+03</rscale>
<asrwt>0</asrwt>
<pdfrwt beam="1">  1       21 0.11425149E+00 0.31646459E+03</pdfrwt>
<pdfrwt beam="2">  1        3 0.44320797E-01 0.31646459E+03</pdfrwt>
<totfact> 0.14368897E+02</totfact>
</mgrwt>
</event>
<event>
 5    0  0.1141006E+000  0.3061986E+03  0.7546771E-02  0.1082182E+00
          2   -1    0    0  503    0 -0.00000000000E+00  0.00000000000E+00  0.12031066314E+04  0.12031066314E+04  0.00000000000E+00 0. -1.
         21   -1    0    0  501  502  0.00000000000E+00 -0.00000000000E+00 -0.50032305513E+03  0.50032305513E+03  0.00000000000E+00 0. -1.
         25    1    1    2    0    0 -0.22809303161E+03  0.16151149903E+03 -0.42235430725E+03  0.52165175764E+03  0.12500000000E+03 0.  0.
         21    1    1    2  503  502  0.12833214359E+02  0.18963764616E+02  0.44934611471E+03  0.44992915728E+03  0.00000000000E+00 0. -1.
          2    1    1    2  501    0  0.21525981725E+03 -0.18047526365E+03  0.67579176885E+03  0.73184877164E+03  0.00000000000E+00 0. -1.
<mgrwt>
<rscale>  4 0.30619856E+03</rscale>
<asrwt>0</asrwt>
<pdfrwt beam="1">  1       21 0.76972778E-01 0.30619856E+03</pdfrwt>
<pdfrwt beam="2">  1        2 0.18509333E+00 0.30619856E+03</pdfrwt>
<totfact> 0.35644213E+02</totfact>
</mgrwt>
</event>
<event>
 5    0  0.1141006E+000  0.3699582E+03  0.7546771E-02  0.1054709E+00
         21   -1    0    0  501  502  0.00000000000E+00  0.00000000000E+00  0.58348869500E+03  0.58348869500E+03  0.00000000000E+00 0.  1.
          2   -1    0    0  503    0 -0.00000000000E+00 -0.00000000000E+00 -0.84455617806E+03  0.84455617806E+03  0.00000000000E+00 0. -1.
         25    1    1    2    0    0  0.14824480491E+03  0.31403847922E+03  0.46566460937E+03  0.59419291230E+03  0.12500000000E+03 0.  0.
         21    1    1    2  503  502  0.33195926132E+02 -0.26871693993E+01 -0.15925383064E+02  0.36916232431E+02  0.00000000000E+00 0.  1.
          2    1    1    2  501    0 -0.18144073104E+03 -0.31135130982E+03 -0.71080670937E+03  0.79693572833E+03  0.00000000000E+00 0. -1.
<mgrwt>
<rscale>  4 0.36995819E+03</rscale>
<asrwt>0</asrwt>
<pdfrwt beam="1">  1       21 0.89767492E-01 0.36995819E+03</pdfrwt>
<pdfrwt beam="2">  1        2 0.12993172E+00 0.36995819E+03</pdfrwt>
<totfact> 0.40509493E+02</totfact>
</mgrwt>
</event>
<event>
 5    0  0.1141006E+000  0.5553625E+03  0.7546771E-02  0.1000260E+00
         21   -1    0    0  501  502  0.00000000000E+00  0.00000000000E+00  0.16820894496E+04  0.16820894496E+04  0.00000000000E+00 0.  1.
          1   -1    0    0  503    0 -0.00000000000E+00 -0.00000000000E+00 -0.23541667520E+03  0.23541667520E+03  0.00000000000E+00 0. -1.
         25    1    1    2    0    0 -0.45078080161E+03  0.25587665564E+03  0.85524890199E+03  0.10078451659E+04  0.12500000000E+03 0.  0.
         21    1    1    2  503  502 -0.88361146282E+01  0.10228997281E+03  0.49769080842E+02  0.11409766373E+03  0.00000000000E+00 0. -1.
          1    1    1    2  501    0  0.45961691623E+03 -0.35816662845E+03  0.54165479153E+03  0.79556329517E+03  0.00000000000E+00 0. -1.
<mgrwt>
<rscale>  4 0.55536248E+03</rscale>
<asrwt>0</asrwt>
<pdfrwt beam="1">  1       21 0.25878299E+00 0.55536248E+03</pdfrwt>
<pdfrwt beam="2">  1        1 0.36217951E-01 0.55536248E+03</pdfrwt>
<totfact> 0.61648034E+01</totfact>
</mgrwt>
</event>
<event>
 5    0  0.1141006E+000  0.3324202E+03  0.7546771E-02  0.1070071E+00
         21   -1    0    0  501  502  0.00000000000E+00  0.00000000000E+00  0.11267339157E+04  0.11267339157E+04  0.00000000000E+00 0. -1.
          2   -1    0    0  503    0 -0.00000000000E+00 -0.00000000000E+00 -0.31747037955E+04  0.31747037955E+04  0.00000000000E+00 0.  1.
         25    1    1    2    0    0 -0.25302107326E+02 -0.30669887894E+03  0.10889134717E+04  0.11384471651E+04  0.12500000000E+03 0.  0.
         21    1    1    2  503  502 -0.45971256954E+01 -0.34889534851E+02 -0.86340614140E+02  0.93236874984E+02  0.00000000000E+00 0. -1.
          2    1    1    2  501    0  0.29899233021E+02  0.34158841379E+03 -0.30505427373E+04  0.30697536711E+04  0.00000000000E+00 0.  1.
<mgrwt>
<rscale>  4 0.33242016E+03</rscale>
<asrwt>0</asrwt>
<pdfrwt beam="1">  1       21 0.17334368E+00 0.33242016E+03</pdfrwt>
<pdfrwt beam="2">  1        2 0.48841597E+00 0.33242016E+03</pdfrwt>
<totfact> 0.36981335E+00</totfact>
</mgrwt>
</event>
<event>
 5    0  0.1141006E+000  0.2330876E+03  0.7546771E-02  0.1124485E+00
          1   -1    0    0  503    0 -0.00000000000E+00  0.00000000000E+00  0.34231219982E+03  0.34231219982E+03  0.00000000000E+00 0. -1.
         21   -1    0    0  501  502  0.00000000000E+00 -0.00000000000E+00 -0.17944685364E+03  0.17944685364E+03  0.00000000000E+00 0. -1.
         25    1    1    2    0    0 -0.19664158653E+03  0.57350797690E+02  0.14134289996E+03  0.27849567845E+03  0.12500000000E+03 0.  0.
         21    1    1    2  503  502  0.20459746847E+02  0.23720800195E+02  0.37269117132E+02  0.48685364277E+02  0.00000000000E+00 0. -1.
          1    1    1    2  501    0  0.17618183968E+03 -0.81071597885E+02 -0.15746670917E+02  0.19457801074E+03  0.00000000000E+00 0. -1.
<mgrwt>
<rscale>  4 0.23308756E+03</rscale>
<asrwt>0</asrwt>
<pdfrwt beam="1">  1       21 0.27607208E-01 0.23308756E+03</pdfrwt>
<pdfrwt beam="2">  1        1 0.52663415E-01 0.23308756E+03</pdfrwt>
<totfact> 0.10078728E+04</totfact>
</mgrwt>
</event>
<event>
 5    0  0.1141006E+000  0.3296175E+03  0.7546771E-02  0.1071306E+00
         -4   -1    0    0    0  501 -0.00000000000E+00  0.00000000000E+00  0.38129792995E+03  0.38129792995E+03  0.00000000000E+00 0. -1.
         21   -1    0    0  503  502  0.00000000000E+00 -0.00000000000E+00 -0.13074918795E+04  0.13074918795E+04  0.00000000000E+00 0.  1.
         25    1    1    2    0    0  0.23102432006E+03  0.20035906336E+03 -0.12140201963E+04  0.12581677264E+04  0.12500000000E+03 0.  0.
         21    1    1    2  503  501  0.39145512904E+01 -0.24790475882E+02  0.11297574906E+02  0.27523201213E+02  0.00000000000E+00 0.  1.
         -4    1    1    2    0  502 -0.23493887135E+03 -0.17556858748E+03  0.27652867184E+03  0.40309888183E+03  0.00000000000E+00 0. -1.
<mgrwt>
<rscale>  4 0.32961754E+03</rscale>
<asrwt>0</asrwt>
<pdfrwt beam="1">  1       21 0.20115260E+00 0.32961754E+03</pdfrwt>
<pdfrwt beam="2">  1       -4 0.58661220E-01 0.32961754E+03</pdfrwt>
<totfact> 0.14401527E+01</totfact>
</mgrwt>
</event>
<event>
 5    0  0.1141006E+000  0.3343827E+03  0.7546771E-02  0.1069214E+00
         21   -1    0    0  501  502  0.00000000000E+00  0.00000000000E+00  0.82081789349E+03  0.82081789349E+03  0.00000000000E+00 0. -1.
          2   -1    0    0  503    0 -0.00000000000E+00 -0.00000000000E+00 -0.61503916556E+03  0.61503916556E+03  0.00000000000E+00 0.  1.
         25    1    1    2    0    0 -0.16503151388E+03  0.26258602804E+03  0.73893030686E+03  0.81106708791E+03  0.12500000000E+03 0.  0.
         21    1    1    2  503  502  0.85518134569E+02 -0.70182990077E+02 -0.24960372548E+03  0.27302201964E+03  0.00000000000E+00 0.  1.
          2    1    1    2  501    0  0.79513379307E+02 -0.19240303797E+03 -0.28354785344E+03  0.35176795150E+03  0.00000000000E+00 0.  1.
<mgrwt>
<rscale>  4 0.33438275E+03</rscale>
<asrwt>0</asrwt>
<pdfrwt beam="1">  1       21 0.12627968E+00 0.33438275E+03</pdfrwt>
<pdfrwt beam="2">  1        2 0.94621410E-01 0.33438275E+03</pdfrwt>
<totfact> 0.26437639E+02</totfact>
</mgrwt>
</event>
<event>
 5    0  0.1141006E+000  0.2684488E+03  0.7546771E-02  0.1102171E+00
         -2   -1    0    0    0  501 -0.00000000000E+00  0.00000000000E+00  0.15966678811E+04  0.15966678811E+04  0.00000000000E+00 0. -1.
         21   -1    0    0  503  502  0.00000000000E+00 -0.00000000000E+00 -0.89080208863E+02  0.89080208863E+02  0.00000000000E+00 0. -1.
         25    1    1    2    0    0 -0.18889668013E+03 -0.13163920720E+03  0.19779959440E+03  0.32826896927E+03  0.12500000000E+03 0.  0.
         21    1    1    2  503  501 -0.42716657851E+02  0.13982971203E+02  0.59935858122E+03  0.60104155033E+03  0.00000000000E+00 0.  1.
         -2    1    1    2    0  502  0.23161333798E+03  0.11765623600E+03  0.71042949657E+03  0.75643757032E+03  0.00000000000E+00 0. -1.
<mgrwt>
<rscale>  4 0.26844878E+03</rscale>
<asrwt>0</asrwt>
<pdfrwt beam="1">  1       21 0.13704649E-01 0.26844878E+03</pdfrwt>
<pdfrwt beam="2">  1       -2 0.24564119E+00 0.26844878E+03</pdfrwt>
<totfact> 0.28544377E+02</totfact>
</mgrwt>
</event>
<event>
 5    0  0.1141006E+000  0.3676675E+03  0.7546771E-02  0.1055588E+00
         21   -1    0    0  503  502  0.00000000000E+00  0.00000000000E+00  0.70711698960E+03  0.70711698960E+03  0.00000000000E+00 0. -1.
         -4   -1    0    0    0  501 -0.00000000000E+00 -0.00000000000E+00 -0.89076315226E+03  0.89076315226E+03  0.00000000000E+00 0. -1.
         25    1    1    2    0    0  0.28786833003E+03  0.19227648368E+03  0.61706323435E+03  0.71849179313E+03  0.12500000000E+03 0.  0.
         21    1    1    2  503  501  0.67582223722E+01 -0.22307665203E+02 -0.57361476319E+02  0.61916431276E+02  0.00000000000E+00 0. -1.
         -4    1    1    2    0  502 -0.29462655241E+03 -0.16996881847E+03 -0.74334792069E+03  0.81747191746E+03  0.00000000000E+00 0. -1.
<mgrwt>
<rscale>  4 0.36766754E+03</rscale>
<asrwt>0</asrwt>
<pdfrwt beam="1">  1       21 0.10878723E+00 0.36766754E+03</pdfrwt>
<pdfrwt beam="2">  1       -4 0.13704048E+00 0.36766754E+03</pdfrwt>
<totfact> 0.10494613E+01</totfact>
</mgrwt>
</event>
<event>
 5    0  0.1141006E+000  0.3566508E+03  0.7546771E-02  0.1059918E+00
          1   -1    0    0  503    0 -0.00000000000E+00  0.00000000000E+00  0.29344251691E+04  0.29344251691E+04  0.00000000000E+00 0.  1.
         21   -1    0    0  501  502  0.00000000000E+00 -0.00000000000E+00 -0.48423108535E+03  0.48423108535E+03  0.00000000000E+00 0.  1.
         25    1    1    2    0    0  0.10524840529E+02  0.33395359808E+03 -0.40338661365E+03  0.53849933891E+03  0.12500000000E+03 0.  0.
         21    1    1    2  503  502 -0.54869860740E+02 -0.18711794660E+01  0.35706164406E+03  0.36125783118E+03  0.00000000000E+00 0. -1.
          1    1    1    2  501    0  0.44345020211E+02 -0.33208241861E+03  0.24965190533E+04  0.25188990844E+04  0.00000000000E+00 0.  1.
<mgrwt>
<rscale>  4 0.35665077E+03</rscale>
<asrwt>0</asrwt>
<pdfrwt beam="1">  1       21 0.74497092E-01 0.35665077E+03</pdfrwt>
<pdfrwt beam="2">  1        1 0.45145002E+00 0.35665077E+03</pdfrwt>
<totfact> 0.13031868E+01</totfact>
</mgrwt>
</event>
<event>
 5    0  0.1141006E+000  0.2558829E+03  0.7546771E-02  0.1109642E+00
         -3   -1    0    0    0  501 -0.00000000000E+00  0.00000000000E+00  0.15340023000E+04  0.15340023000E+04  0.00000000000E+00 0.  1.
         21   -1    0    0  503  502  0.00000000000E+00 -0.00000000000E+00 -0.16641133410E+03  0.16641133410E+03  0.00000000000E+00 0.  1.
         25    1    1    2    0    0 -0.22366481023E+03  0.31976314203E+02 -0.47986488869E+02  0.26263308078E+03  0.12500000000E+03 0.  0.
         21    1    1    2  503  501  0.28605595644E+02 -0.40175104912E+02  0.17049966858E+03  0.17748931276E+03  0.00000000000E+00 0.  1.
         -3    1    1    2    0  502  0.19505921459E+03  0.81987907089E+01  0.12450777862E+04  0.12602912406E+04  0.00000000000E+00 0.  1.
<mgrwt>
<rscale>  4 0.25588285E+03</rscale>
<asrwt>0</asrwt>
<pdfrwt beam="1">  1       21 0.25601745E-01 0.25588285E+03</pdfrwt>
<pdfrwt beam="2">  1       -3 0.23600034E+00 0.25588285E+03</pdfrwt>
<totfact> 0.69090763E+01</totfact>
</mgrwt>
</event>
<event>
 5    0  0.1141006E+000  0.3467220E+03  0.7546771E-02  0.1063969E+00
          1   -1    0    0  503    0 -0.00000000000E+00  0.00000000000E+00  0.15798139822E+04  0.15798139822E+04  0.00000000000E+00 0.  1.
         21   -1    0    0  501  502  0.00000000000E+00 -0.00000000000E+00 -0.76525639863E+03  0.76525639863E+03  0.00000000000E+00 0. -1.
         25    1    1    2    0    0 -0.26214616624E+03  0.18975089069E+03 -0.70314613556E+03  0.78406983167E+03  0.12500000000E+03 0.  0.
         21    1    1    2  503  502 -0.14277724568E+02 -0.33053122078E+02  0.68662309268E+02  0.77529833045E+02  0.00000000000E+00 0.  1.
          1    1    1    2  501    0  0.27642389081E+03 -0.15669776861E+03  0.14490414098E+04  0.14834707161E+04  0.00000000000E+00 0.  1.
<mgrwt>
<rscale>  4 0.34672196E+03</rscale>
<asrwt>0</asrwt>
<pdfrwt beam="1">  1       21 0.11773175E+00 0.34672196E+03</pdfrwt>
<pdfrwt beam="2">  1        1 0.24304830E+00 0.34672196E+03</pdfrwt>
<totfact> 0.35340404E+01</totfact>
</mgrwt>
</event>
<event>
 5    0  0.1141006E+000  0.3639684E+03  0.7546771E-02  0.1057024E+00
         21   -1    0    0  501  502  0.00000000000E+00  0.00000000000E+00  0.57697091041E+03  0.57697091041E+03  0.00000000000E+00 0. -1.
          1   -1    0    0  503    0 -0.00000000000E+00 -0.00000000000E+00 -0.10969442528E+04  0.10969442528E+04  0.00000000000E+00 0.  1.
         25    1    1    2    0    0 -0.22248215866E+03 -0.25957938132E+03  0.47309941891E+03  0.59693201145E+03  0.12500000000E+03 0.  0.
         21    1    1    2  503  502  0.36459772360E+02 -0.29956930284E+02 -0.34357201116E+02  0.58370796989E+02  0.00000000000E+00 0.  1.
          1    1    1    2  501    0  0.18602238630E+03  0.28953631160E+03 -0.95871556023E+03  0.10186123548E+04  0.00000000000E+00 0.  1.
<mgrwt>
<rscale>  4 0.36396835E+03</rscale>
<asrwt>0</asrwt>
<pdfrwt beam="1">  1       21 0.88764755E-01 0.36396835E+03</pdfrwt>
<pdfrwt beam="2">  1        1 0.16876066E+00 0.36396835E+03</pdfrwt>
<totfact> 0.14961331E+02</totfact>
</mgrwt>
</event>
<event>
 5    0  0.1141006E+000  0.2747260E+03  0.7546771E-02  0.1098605E+00
         21   -1    0    0  501  502  0.00000000000E+00  0.00000000000E+00  0.17835955326E+03  0.17835955326E+03  0.00000000000E+00 0. -1.
          2   -1    0    0  503    0 -0.00000000000E+00 -0.00000000000E+00 -0.38138012235E+04  0.38138012235E+04  0.00000000000E+00 0. -1.
         25    1    1    2    0    0  0.10305325077E+03  0.22112907205E+03  0.41885168534E+02  0.27730381596E+03  0.12500000000E+03 0.  0.
         21    1    1    2  503  502 -0.13675231680E+03  0.68374202241E+02 -0.23927815799E+04  0.23976613432E+04  0.00000000000E+00 0. -1.
          2    1    1    2  501    0  0.33699066025E+02 -0.28950327429E+03 -0.12845452589E+04  0.13171956176E+04  0.00000000000E+00 0. -1.
<mgrwt>
<rscale>  4 0.27472601E+03</rscale>
<asrwt>0</asrwt>
<pdfrwt beam="1">  1       21 0.27439932E-01 0.27472601E+03</pdfrwt>
<pdfrwt beam="2">  1        2 0.58673863E+00 0.27472601E+03</pdfrwt>
<totfact> 0.96368772E+01</totfact>
</mgrwt>
</event>
<event>
 5    0  0.1141006E+000  0.3051257E+03  0.7546771E-02  0.1082706E+00
          1   -1    0    0  503    0 -0.00000000000E+00  0.00000000000E+00  0.48019823409E+03  0.48019823409E+03  0.00000000000E+00 0.  1.
         21   -1    0    0  501  502  0.00000000000E+00 -0.00000000000E+00 -0.73240469150E+03  0.73240469150E+03  0.00000000000E+00 0.  1.
         25    1    1    2    0    0  0.28114911768E+03  0.35826649556E+02 -0.64172812707E+03  0.71257867234E+03  0.12500000000E+03 0.  0.
         21    1    1    2  503  502 -0.22800978379E+03 -0.72729905381E+02  0.24923225663E+03  0.34553555300E+03  0.00000000000E+00 0.  1.
          1    1    1    2  501    0 -0.53139333888E+02  0.36903255825E+02  0.14028941304E+03  0.15448870026E+03  0.00000000000E+00 0.  1.
<mgrwt>
<rscale>  4 0.30512575E+03</rscale>
<asrwt>0</asrwt>
<pdfrwt beam="1">  1       21 0.11267764E+00 0.30512575E+03</pdfrwt>
<pdfrwt beam="2">  1        1 0.73876652E-01 0.30512575E+03</pdfrwt>
<totfact> 0.30462862E+02</totfact>
</mgrwt>
</event>
<event>
 5    0  0.1141006E+000  0.4111971E+03  0.7546771E-02  0.1039970E+00
          2   -1    0    0  503    0 -0.00000000000E+00  0.00000000000E+00  0.23092107855E+04  0.23092107855E+04  0.00000000000E+00 0.  1.
         21   -1    0    0  501  502  0.00000000000E+00 -0.00000000000E+00 -0.38403201111E+03  0.38403201111E+03  0.00000000000E+00 0.  1.
         25    1    1    2    0    0  0.38016593693E+03  0.22396549523E+02 -0.20350646424E+03  0.44951932775E+03  0.12500000000E+03 0.  0.
         21    1    1    2  503  502  0.11473764268E+03  0.87614943717E+02  0.94602457280E+03  0.95697627836E+03  0.00000000000E+00 0. -1.
          2    1    1    2  501    0 -0.49490357961E+03 -0.11001149324E+03  0.11826606658E+04  0.12867471905E+04  0.00000000000E+00 0.  1.
<mgrwt>
<rscale>  4 0.41119710E+03</rscale>
<asrwt>0</asrwt>
<pdfrwt beam="1">  1       21 0.59081849E-01 0.41119710E+03</pdfrwt>
<pdfrwt beam="2">  1        2 0.35526319E+00 0.41119710E+03</pdfrwt>
<totfact> 0.15454468E+02</totfact>
</mgrwt>
</event>
<event>
 5    0  0.1141006E+000  0.3786330E+03  0.7546771E-02  0.1051440E+00
         21   -1    0    0  501  502  0.00000000000E+00  0.00000000000E+00  0.20417095564E+03  0.20417095564E+03  0.00000000000E+00 0.  1.
          2   -1    0    0  503    0 -0.00000000000E+00 -0.00000000000E+00 -0.98763000941E+03  0.98763000941E+03  0.00000000000E+00 0.  1.
         25    1    1    2    0    0  0.16962760501E+03 -0.28962985429E+03 -0.55480389578E+03  0.66037212210E+03  0.12500000000E+03 0.  0.
         21    1    1    2  503  502 -0.45742158004E+02 -0.56454081704E+02 -0.13307110596E+03  0.15161572346E+03  0.00000000000E+00 0.  1.
          2    1    1    2  501    0 -0.12388544700E+03  0.34608393600E+03 -0.95584052033E+02  0.37981311949E+03  0.00000000000E+00 0.  1.
<mgrwt>
<rscale>  4 0.37863301E+03</rscale>
<asrwt>0</asrwt>
<pdfrwt beam="1">  1       21 0.31410916E-01 0.37863301E+03</pdfrwt>
<pdfrwt beam="2">  1        2 0.15194308E+00 0.37863301E+03</pdfrwt>
<totfact> 0.31163169E+03</totfact>
</mgrwt>
</event>
<event>
 5    0  0.1141006E+000  0.5274270E+03  0.7546771E-02  0.1006858E+00
         21   -1    0    0  503  502  0.00000000000E+00  0.00000000000E+00  0.77275567642E+03  0.77275567642E+03  0.00000000000E+00 0.  1.
         -3   -1    0    0    0  501 -0.00000000000E+00 -0.00000000000E+00 -0.14412871667E+04  0.14412871667E+04  0.00000000000E+00 0.  1.
         25    1    1    2    0    0  0.47047719953E+03  0.16952098399E+03  0.55437938929E+03  0.75699911926E+03  0.12500000000E+03 0.  0.
         21    1    1    2  503  501  0.12602015592E+03  0.70561165704E+01 -0.43621609524E+03  0.45410940337E+03  0.00000000000E+00 0.  1.
         -3    1    1    2    0  502 -0.59649735545E+03 -0.17657710056E+03 -0.78669478431E+03  0.10029343205E+04  0.00000000000E+00 0.  1.
<mgrwt>
<rscale>  4 0.52742700E+03</rscale>
<asrwt>0</asrwt>
<pdfrwt beam="1">  1       21 0.11888549E+00 0.52742700E+03</pdfrwt>
<pdfrwt beam="2">  1       -3 0.22173648E+00 0.52742700E+03</pdfrwt>
<totfact> 0.26918593E+00</totfact>
</mgrwt>
</event>
<event>
 5    0  0.1141006E+000  0.3683136E+03  0.7546771E-02  0.1055340E+00
          2   -1    0    0  503    0 -0.00000000000E+00  0.00000000000E+00  0.14447586928E+04  0.14447586928E+04  0.00000000000E+00 0. -1.
         21   -1    0    0  501  502  0.00000000000E+00 -0.00000000000E+00 -0.28582213337E+03  0.28582213337E+03  0.00000000000E+00 0. -1.
         25    1    1    2    0    0  0.10287419319E+03  0.32989362183E+03 -0.12413837740E+03  0.38787657585E+03  0.12500000000E+03 0.  0.
         21    1    1    2  503  502 -0.24567955611E+02  0.17438915958E+02  0.42841560420E+02  0.52374607701E+02  0.00000000000E+00 0.  1.
          2    1    1    2  501    0 -0.78306237575E+02 -0.34733253779E+03  0.12402333764E+04  0.12903296426E+04  0.00000000000E+00 0. -1.
<mgrwt>
<rscale>  4 0.36831356E+03</rscale>
<asrwt>0</asrwt>
<pdfrwt beam="1">  1       21 0.43972637E-01 0.36831356E+03</pdfrwt>
<pdfrwt beam="2">  1        2 0.22227056E+00 0.36831356E+03</pdfrwt>
<totfact> 0.85810942E+02</totfact>
</mgrwt>
</event>
<event>
 5    0  0.1141006E+000  0.5050481E+03  0.7546771E-02  0.1012470E+00
          1   -1    0    0  503    0 -0.00000000000E+00  0.00000000000E+00  0.49724170344E+03  0.49724170344E+03  0.00000000000E+00 0. -1.
         21   -1    0    0  501  502  0.00000000000E+00 -0.00000000000E+00 -0.55087874974E+03  0.55087874974E+03  0.00000000000E+00 0.  1.
         25    1    1    2    0    0  0.30921822523E+03  0.38309888166E+03 -0.15257672079E+03  0.53036338454E+03  0.12500000000E+03 0.  0.
         21    1    1    2  503  502  0.10242999662E+02 -0.18159486636E+02  0.14635445654E+02  0.25473167578E+02  0.00000000000E+00 0.  1.
          1    1    1    2  501    0 -0.31946122489E+03 -0.36493939502E+03  0.84304228828E+02  0.49228390106E+03  0.00000000000E+00 0. -1.
<mgrwt>
<rscale>  4 0.50504812E+03</rscale>
<asrwt>0</asrwt>
<pdfrwt beam="1">  1       21 0.84750577E-01 0.50504812E+03</pdfrwt>
<pdfrwt beam="2">  1        1 0.76498724E-01 0.50504812E+03</pdfrwt>
<totfact> 0.54211469E+02</totfact>
</mgrwt>
</event>
<event>
 5    0  0.1141006E+000  0.2565608E+03  0.7546771E-02  0.1109227E+00
          2   -1    0    0  503    0 -0.00000000000E+00  0.00000000000E+00  0.15047913263E+04  0.15047913263E+04  0.00000000000E+00 0. -1.
         21   -1    0    0  501  502  0.00000000000E+00 -0.00000000000E+00 -0.12746889366E+03  0.12746889366E+03  0.00000000000E+00 0.  1.
         25    1    1    2    0    0 -0.22347428025E+03 -0.16052318591E+02  0.21826817379E+02  0.25748755469E+03  0.12500000000E+03 0.  0.
         21    1    1    2  503  502  0.43207433685E+02  0.23131302251E+02  0.28877667528E+03  0.29290597067E+03  0.00000000000E+00 0. -1.
          2    1    1    2  501    0  0.18026684656E+03 -0.70789836594E+01  0.10667189400E+04  0.10818666946E+04  0.00000000000E+00 0. -1.
<mgrwt>
<rscale>  4 0.25656077E+03</rscale>
<asrwt>0</asrwt>
<pdfrwt beam="1">  1       21 0.19610600E-01 0.25656077E+03</pdfrwt>
<pdfrwt beam="2">  1        2 0.23150635E+00 0.25656077E+03</pdfrwt>
<totfact> 0.40656415E+03</totfact>
</mgrwt>
</event>
<event>
 5    0  0.1141006E+000  0.2669135E+03  0.7546771E-02  0.1103059E+00
         21   -1    0    0  503  502  0.00000000000E+00  0.00000000000E+00  0.17835537762E+04  0.17835537762E+04  0.00000000000E+00 0. -1.
         -3   -1    0    0    0  501 -0.00000000000E+00 -0.00000000000E+00 -0.17226174666E+03  0.17226174666E+03  0.00000000000E+00 0. -1.
         25    1    1    2    0    0 -0.81811070381E+02  0.24405719448E+03  0.16047498326E+04  0.16300625726E+04  0.12500000000E+03 0.  0.
         21    1    1    2  503  501  0.13961557424E+02 -0.16045829851E+03  0.94485896046E+02  0.18673343353E+03  0.00000000000E+00 0. -1.
         -3    1    1    2    0  502  0.67849512957E+02 -0.83598895970E+02 -0.87943699110E+02  0.13901951672E+03  0.00000000000E+00 0. -1.
<mgrwt>
<rscale>  4 0.26691352E+03</rscale>
<asrwt>0</asrwt>
<pdfrwt beam="1">  1       21 0.27439288E+00 0.26691352E+03</pdfrwt>
<pdfrwt beam="2">  1       -3 0.26501808E-01 0.26691352E+03</pdfrwt>
<totfact> 0.30185481E+01</totfact>
</mgrwt>
</event>
<event>
 5    0  0.1141006E+000  0.3129829E+03  0.7546771E-02  0.1078925E+00
          2   -1    0    0  503    0 -0.00000000000E+00  0.00000000000E+00  0.71927665854E+03  0.71927665854E+03  0.00000000000E+00 0.  1.
         21   -1    0    0  501  502  0.00000000000E+00 -0.00000000000E+00 -0.21312603895E+03  0.21312603895E+03  0.00000000000E+00 0. -1.
         25    1    1    2    0    0  0.23705093910E+03  0.16857758587E+03 -0.22230105769E+02  0.31738104509E+03  0.12500000000E+03 0.  0.
         21    1    1    2  503  502  0.52794853818E+01 -0.37272290924E+02  0.84908309687E+02  0.92879048717E+02  0.00000000000E+00 0. -1.
          2    1    1    2  501    0 -0.24233042448E+03 -0.13130529494E+03  0.44347241567E+03  0.52214260367E+03  0.00000000000E+00 0.  1.
<mgrwt>
<rscale>  4 0.31298290E+03</rscale>
<asrwt>0</asrwt>
<pdfrwt beam="1">  1       21 0.32788622E-01 0.31298290E+03</pdfrwt>
<pdfrwt beam="2">  1        2 0.11065795E+00 0.31298290E+03</pdfrwt>
<totfact> 0.44194108E+03</totfact>
</mgrwt>
</event>
<event>
 5    0  0.1141006E+000  0.2447574E+03  0.7546771E-02  0.1116664E+00
          1   -1    0    0  503    0 -0.00000000000E+00  0.00000000000E+00  0.41490220670E+04  0.41490220670E+04  0.00000000000E+00 0. -1.
         21   -1    0    0  501  502  0.00000000000E+00 -0.00000000000E+00 -0.35123711416E+02  0.35123711416E+02  0.00000000000E+00 0. -1.
         25    1    1    2    0    0  0.20946229534E+03  0.16772488060E+02  0.47767147193E+03  0.53661047755E+03  0.12500000000E+03 0.  0.
         21    1    1    2  503  502 -0.48360037466E+01  0.63037203192E+02  0.11001634769E+04  0.11019785623E+04  0.00000000000E+00 0.  1.
          1    1    1    2  501    0 -0.20462629160E+03 -0.79809691252E+02  0.25360634067E+04  0.25455567385E+04  0.00000000000E+00 0. -1.
<mgrwt>
<rscale>  4 0.24475739E+03</rscale>
<asrwt>0</asrwt>
<pdfrwt beam="1">  1       21 0.54036512E-02 0.24475739E+03</pdfrwt>
<pdfrwt beam="2">  1        1 0.63831070E+00 0.24475739E+03</pdfrwt>
<totfact> 0.24966343E+02</totfact>
</mgrwt>
</event>
<event>
 5    0  0.1141006E+000  0.2455322E+03  0.7546771E-02  0.1116161E+00
          2   -1    0    0  503    0 -0.00000000000E+00  0.00000000000E+00  0.81314697578E+03  0.81314697578E+03  0.00000000000E+00 0.  1.
         21   -1    0    0  501  502  0.00000000000E+00 -0.00000000000E+00 -0.12964898060E+03  0.12964898060E+03  0.00000000000E+00 0. -1.
         25    1    1    2    0    0 -0.11017731181E+03 -0.18033860938E+03  0.23707306342E+02  0.24667405710E+03  0.12500000000E+03 0.  0.
         21    1    1    2  503  502  0.49406133144E+02  0.47825200531E+02  0.30284586172E+03  0.31055407220E+03  0.00000000000E+00 0.  1.
          2    1    1    2  501    0  0.60771178663E+02  0.13251340885E+03  0.35694482711E+03  0.38556782709E+03  0.00000000000E+00 0.  1.
<mgrwt>
<rscale>  4 0.24553219E+03</rscale>
<asrwt>0</asrwt>
<pdfrwt beam="1">  1       21 0.19945998E-01 0.24553219E+03</pdfrwt>
<pdfrwt beam="2">  1        2 0.12509953E+00 0.24553219E+03</pdfrwt>
<totfact> 0.10056076E+04</totfact>
</mgrwt>
</event>
<event>
 5    0  0.1141006E+000  0.4722486E+03  0.7546771E-02  0.1021287E+00
          1   -1    0    0  503    0 -0.00000000000E+00  0.00000000000E+00  0.12474673732E+04  0.12474673732E+04  0.00000000000E+00 0. -1.
         21   -1    0    0  501  502  0.00000000000E+00 -0.00000000000E+00 -0.39191410712E+03  0.39191410712E+03  0.00000000000E+00 0.  1.
         25    1    1    2    0    0  0.27925829600E+03 -0.35949694250E+03 -0.15543473346E+03  0.49699919911E+03  0.12500000000E+03 0.  0.
         21    1    1    2  503  502  0.56035675631E+02  0.43095835543E+02  0.14584570494E+03  0.16207472855E+03  0.00000000000E+00 0. -1.
          1    1    1    2  501    0 -0.33529397163E+03  0.31640110696E+03  0.86514229455E+03  0.98030755262E+03  0.00000000000E+00 0. -1.
<mgrwt>
<rscale>  4 0.47224860E+03</rscale>
<asrwt>0</asrwt>
<pdfrwt beam="1">  1       21 0.60294479E-01 0.47224860E+03</pdfrwt>
<pdfrwt beam="2">  1        1 0.19191805E+00 0.47224860E+03</pdfrwt>
<totfact> 0.26985032E+02</totfact>
</mgrwt>
</event>
<event>
 5    0  0.1141006E+000  0.2473587E+03  0.7546771E-02  0.1114985E+00
          1   -1    0    0  503    0 -0.00000000000E+00  0.00000000000E+00  0.14544608253E+04  0.14544608253E+04  0.00000000000E+00 0. -1.
         21   -1    0    0  501  502  0.00000000000E+00 -0.00000000000E+00 -0.43299607438E+02  0.43299607438E+02  0.00000000000E+00 0. -1.
         25    1    1    2    0    0  0.18399144054E+03  0.12204212114E+03  0.60626943437E+03  0.65721743477E+03  0.12500000000E+03 0.  0.
         21    1    1    2  503  502  0.16487252860E+01 -0.30913402677E+02  0.17072714043E+03  0.17351113290E+03  0.00000000000E+00 0. -1.
          1    1    1    2  501    0 -0.18564016583E+03 -0.91128718459E+02  0.63416464301E+03  0.66703186502E+03  0.00000000000E+00 0. -1.
<mgrwt>
<rscale>  4 0.24735875E+03</rscale>
<asrwt>0</asrwt>
<pdfrwt beam="1">  1       21 0.66614792E-02 0.24735875E+03</pdfrwt>
<pdfrwt beam="2">  1        1 0.22376317E+00 0.24735875E+03</pdfrwt>
<totfact> 0.14133187E+04</totfact>
</mgrwt>
</event>
<event>
 5    0  0.1141006E+000  0.3071097E+03  0.7546771E-02  0.1081740E+00
          1   -1    0    0  503    0 -0.00000000000E+00  0.00000000000E+00  0.16736459019E+03  0.16736459019E+03  0.00000000000E+00 0.  1.
         21   -1    0    0  501  502  0.00000000000E+00 -0.00000000000E+00 -0.14648550633E+04  0.14648550633E+04  0.00000000000E+00 0. -1.
         25    1    1    2    0    0  0.20264794484E+03  0.19130300354E+03 -0.11576681898E+04  0.11972817824E+04  0.12500000000E+03 0.  0.
         21    1    1    2  503  502 -0.63153714593E+02  0.78277461777E+02  0.40719884924E+00  0.10057792253E+03  0.00000000000E+00 0.  1.
          1    1    1    2  501    0 -0.13949423025E+03 -0.26958046531E+03 -0.14022948214E+03  0.33435994857E+03  0.00000000000E+00 0.  1.
<mgrwt>
<rscale>  4 0.30710971E+03</rscale>
<asrwt>0</asrwt>
<pdfrwt beam="1">  1       21 0.22536231E+00 0.30710971E+03</pdfrwt>
<pdfrwt beam="2">  1        1 0.25748399E-01 0.30710971E+03</pdfrwt>
<totfact> 0.17125178E+02</totfact>
</mgrwt>
</event>
<event>
 5    0  0.1141006E+000  0.1908875E+03  0.7546771E-02  0.1178197E+00
         21   -1    0    0  503  502  0.00000000000E+00  0.00000000000E+00  0.29959536369E+03  0.29959536369E+03  0.00000000000E+00 0. -1.
         -2   -1    0    0    0  501 -0.00000000000E+00 -0.00000000000E+00 -0.35457919582E+03  0.35457919582E+03  0.00000000000E+00 0.  1.
         25    1    1    2    0    0  0.18246811016E+03  0.97284279127E+02  0.86527913763E+02  0.25665331101E+03  0.12500000000E+03 0.  0.
         21    1    1    2  503  501 -0.25877361860E+03 -0.31126251943E+02 -0.14141019887E+03  0.29652904341E+03  0.00000000000E+00 0.  1.
         -2    1    1    2    0  502  0.76305508435E+02 -0.66158027183E+02 -0.10154703067E+00  0.10099220510E+03  0.00000000000E+00 0.  1.
<mgrwt>
<rscale>  4 0.16966526E+03</rscale>
<asrwt>0</asrwt>
<pdfrwt beam="1">  1       21 0.46091594E-01 0.19088746E+03</pdfrwt>
<pdfrwt beam="2">  1       -2 0.54550645E-01 0.19088746E+03</pdfrwt>
<totfact> 0.11802758E+03</totfact>
</mgrwt>
</event>
<event>
 5    0  0.1141006E+000  0.3459265E+03  0.7546771E-02  0.1064299E+00
          2   -1    0    0  503    0 -0.00000000000E+00  0.00000000000E+00  0.12732462099E+04  0.12732462099E+04  0.00000000000E+00 0. -1.
         21   -1    0    0  501  502  0.00000000000E+00 -0.00000000000E+00 -0.12428735370E+03  0.12428735370E+03  0.00000000000E+00 0.  1.
         25    1    1    2    0    0  0.18498316167E+03  0.24815094564E+03  0.29938189109E+03  0.44838842385E+03  0.12500000000E+03 0.  0.
         21    1    1    2  503  502 -0.24082814522E+02  0.65554025745E+02  0.11986942378E+03  0.13872992109E+03  0.00000000000E+00 0.  1.
          2    1    1    2  501    0 -0.16090034715E+03 -0.31370497139E+03  0.72970754136E+03  0.81041521870E+03  0.00000000000E+00 0. -1.
<mgrwt>
<rscale>  4 0.34592649E+03</rscale>
<asrwt>0</asrwt>
<pdfrwt beam="1">  1       21 0.19121132E-01 0.34592649E+03</pdfrwt>
<pdfrwt beam="2">  1        2 0.19588402E+00 0.34592649E+03</pdfrwt>
<totfact> 0.55607339E+03</totfact>
</mgrwt>
</event>
<event>
 5    0  0.1141006E+000  0.2787595E+03  0.7546771E-02  0.1096368E+00
         21   -1    0    0  503  502  0.00000000000E+00  0.00000000000E+00  0.40932547700E+02  0.40932547700E+02  0.00000000000E+00 0. -1.
         -4   -1    0    0    0  501 -0.00000000000E+00 -0.00000000000E+00 -0.29528511899E+04  0.29528511899E+04  0.00000000000E+00 0. -1.
         25    1    1    2    0    0  0.26902755888E+03  0.51518099553E+02 -0.11686160214E+04  0.12067801571E+04  0.12500000000E+03 0.  0.
         21    1    1    2  503  501 -0.35167417445E+02 -0.21089694091E+02 -0.11173018882E+04  0.11180541274E+04  0.00000000000E+00 0.  1.
         -4    1    1    2    0  502 -0.23386014143E+03 -0.30428405462E+02 -0.62600073253E+03  0.66894945305E+03  0.00000000000E+00 0. -1.
<mgrwt>
<rscale>  4 0.27875949E+03</rscale>
<asrwt>0</asrwt>
<pdfrwt beam="1">  1       21 0.62973137E-02 0.27875949E+03</pdfrwt>
<pdfrwt beam="2">  1       -4 0.45428489E+00 0.27875949E+03</pdfrwt>
<totfact> 0.27240995E+01</totfact>
</mgrwt>
</event>
<event>
 5    0  0.1141006E+000  0.2747949E+03  0.7546771E-02  0.1098566E+00
         21   -1    0    0  501  502  0.00000000000E+00  0.00000000000E+00  0.13346363471E+03  0.13346363471E+03  0.00000000000E+00 0. -1.
          2   -1    0    0  503    0 -0.00000000000E+00 -0.00000000000E+00 -0.82227546222E+03  0.82227546222E+03  0.00000000000E+00 0. -1.
         25    1    1    2    0    0  0.22838870287E+03  0.10210818970E+03 -0.86455085217E+02  0.29272335704E+03  0.12500000000E+03 0.  0.
         21    1    1    2  503  502 -0.37336734501E+01 -0.44927484474E+02 -0.90259861886E+02  0.10089232799E+03  0.00000000000E+00 0. -1.
          2    1    1    2  501    0 -0.22465502942E+03 -0.57180705224E+02 -0.51209688040E+03  0.56212341190E+03  0.00000000000E+00 0. -1.
<mgrwt>
<rscale>  4 0.27479488E+03</rscale>
<asrwt>0</asrwt>
<pdfrwt beam="1">  1       21 0.20532866E-01 0.27479488E+03</pdfrwt>
<pdfrwt beam="2">  1        2 0.12650392E+00 0.27479488E+03</pdfrwt>
<totfact> 0.93229134E+03</totfact>
</mgrwt>
</event>
<event>
 5    0  0.1141006E+000  0.3519415E+03  0.7546771E-02  0.1061821E+00
          2   -1    0    0  503    0 -0.00000000000E+00  0.00000000000E+00  0.10489936950E+04  0.10489936950E+04  0.00000000000E+00 0.  1.
         21   -1    0    0  501  502  0.00000000000E+00 -0.00000000000E+00 -0.20276235968E+03  0.20276235968E+03  0.00000000000E+00 0.  1.
         25    1    1    2    0    0  0.23819428003E+02 -0.32321801370E+03  0.17028289843E+03  0.38685722822E+03  0.12500000000E+03 0.  0.
         21    1    1    2  503  502 -0.24658390417E+02 -0.11505923316E+02  0.47231595255E+03  0.47309912441E+03  0.00000000000E+00 0.  1.
          2    1    1    2  501    0  0.83896241417E+00  0.33472393701E+03  0.20363248439E+03  0.39179970210E+03  0.00000000000E+00 0.  1.
<mgrwt>
<rscale>  4 0.35194146E+03</rscale>
<asrwt>0</asrwt>
<pdfrwt beam="1">  1       21 0.31194210E-01 0.35194146E+03</pdfrwt>
<pdfrwt beam="2">  1        2 0.16138364E+00 0.35194146E+03</pdfrwt>
<totfact> 0.29149200E+03</totfact>
</mgrwt>
</event>
<event>
 5    0  0.1141006E+000  0.2444397E+03  0.7546771E-02  0.1116870E+00
          2   -1    0    0  503    0 -0.00000000000E+00  0.00000000000E+00  0.13136092138E+04  0.13136092138E+04  0.00000000000E+00 0. -1.
         21   -1    0    0  501  502  0.00000000000E+00 -0.00000000000E+00 -0.18990198004E+03  0.18990198004E+03  0.00000000000E+00 0. -1.
         25    1    1    2    0    0 -0.18542828690E+03  0.82278560956E+02 -0.59401722479E+02  0.24557478659E+03  0.12500000000E+03 0.  0.
         21    1    1    2  503  502 -0.10221171649E+03 -0.11222104331E+02  0.14090039756E+03  0.17443076749E+03  0.00000000000E+00 0. -1.
          2    1    1    2  501    0  0.28764000340E+03 -0.71056456625E+02  0.10422085587E+04  0.10835056397E+04  0.00000000000E+00 0. -1.
<mgrwt>
<rscale>  4 0.24443972E+03</rscale>
<asrwt>0</asrwt>
<pdfrwt beam="1">  1       21 0.29215690E-01 0.24443972E+03</pdfrwt>
<pdfrwt beam="2">  1        2 0.20209372E+00 0.24443972E+03</pdfrwt>
<totfact> 0.24187487E+03</totfact>
</mgrwt>
</event>
<event>
 5    0  0.1141006E+000  0.5482653E+03  0.7546771E-02  0.1001896E+00
          2   -1    0    0  503    0 -0.00000000000E+00  0.00000000000E+00  0.12799745171E+04  0.12799745171E+04  0.00000000000E+00 0.  1.
         21   -1    0    0  501  502  0.00000000000E+00 -0.00000000000E+00 -0.74915227978E+03  0.74915227978E+03  0.00000000000E+00 0. -1.
         25    1    1    2    0    0  0.41455133993E+03 -0.33148697246E+03 -0.55911495383E+03  0.78100637510E+03  0.12500000000E+03 0.  0.
         21    1    1    2  503  502  0.12738200289E+02 -0.37850681178E+02  0.43899403222E+02  0.59347227530E+02  0.00000000000E+00 0.  1.
          2    1    1    2  501    0 -0.42728954021E+03  0.36933765364E+03  0.10460377879E+04  0.11887731942E+04  0.00000000000E+00 0.  1.
<mgrwt>
<rscale>  4 0.54826531E+03</rscale>
<asrwt>0</asrwt>
<pdfrwt beam="1">  1       21 0.11525420E+00 0.54826531E+03</pdfrwt>
<pdfrwt beam="2">  1        2 0.19691916E+00 0.54826531E+03</pdfrwt>
<totfact> 0.11198794E+02</totfact>
</mgrwt>
</event>
