<event>
 5    0  0.3696258E+000  0.2323987E+03  0.7546771E-02  0.1124963E+00
         21   -1    0    0  501  502  0.00000000000E+00  0.00000000000E+00  0.63536775366E+03  0.63536775366E+03  0.00000000000E+00 0. -1.
          2   -1    0    0  503    0 -0.00000000000E+00 -0.00000000000E+00 -0.85152505908E+03  0.85152505908E+03  0.00000000000E+00 0.  1.
         25    1    1    2    0    0 -0.25697074125E+01 -0.22501914326E+03 -0.11207960537E+03  0.28076156463E+03  0.12500000000E+03 0.  0.
         21    1    1    2  503  502 -0.21478426180E+02  0.19233444000E+03  0.53336896992E+03  0.56739432291E+03  0.00000000000E+00 0. -1.
          2    1    1    2  501    0  0.24048133592E+02  0.32684703266E+02 -0.63744666997E+03  0.63873692520E+03  0.00000000000E+00 0.  1.
<mgrwt>
<rscale>  4 0.23239869E+03</rscale>
<asrwt>0</asrwt>
<pdfrwt beam="1">  1       21 0.97748886E-01 0.23239869E+03</pdfrwt>
<pdfrwt beam="2">  1        2 0.13100385E+00 0.23239869E+03</pdfrwt>
<totfact> 0.34940602E+02</totfact>
</mgrwt>
</event>
<event>
 5    0  0.3696258E+000  0.3529354E+03  0.7546771E-02  0.1061417E+00
          2   -1    0    0  503    0 -0.00000000000E+00  0.00000000000E+00  0.19929073058E+04  0.19929073058E+04  0.00000000000E+00 0. -1.
         21   -1    0    0  501  502  0.00000000000E+00 -0.00000000000E+00 -0.17685819809E+03  0.17685819809E+03  0.00000000000E+00 0. -1.
         25    1    1    2    0    0  0.28920579318E+03 -0.22255175964E+03  0.94187663752E+02  0.39707126883E+03  0.12500000000E+03 0.  0.
         21    1    1    2  503  502 -0.11764073099E+03  0.20302595986E+03  0.75799050514E+03  0.79347872551E+03  0.00000000000E+00 0. -1.
          2    1    1    2  501    0 -0.17156506219E+03  0.19525799782E+02  0.96387093880E+03  0.97921550952E+03  0.00000000000E+00 0. -1.
<mgrwt>
<rscale>  4 0.35293535E+03</rscale>
<asrwt>0</asrwt>
<pdfrwt beam="1">  1       21 0.27208955E-01 0.35293535E+03</pdfrwt>
<pdfrwt beam="2">  1        2 0.30660111E+00 0.35293535E+03</pdfrwt>
<totfact> 0.11544885E+03</totfact>
</mgrwt>
</event>
<event>
 5    0  0.3696258E+000  0.2918396E+03  0.7546771E-02  0.1089393E+00
         21   -1    0    0  501  502  0.00000000000E+00  0.00000000000E+00  0.74901022903E+02  0.74901022903E+02  0.00000000000E+00 0.  1.
          2   -1    0    0  503    0 -0.00000000000E+00 -0.00000000000E+00 -0.13093371049E+04  0.13093371049E+04  0.00000000000E+00 0. -1.
         25    1    1    2    0    0  0.53991662087E+02  0.25812833596E+03 -0.33889686300E+03  0.44723754444E+03  0.12500000000E+03 0.  0.
         21    1    1    2  503  502 -0.35423108965E+02 -0.91876664255E+02 -0.21956096142E+03  0.24063070017E+03  0.00000000000E+00 0. -1.
          2    1    1    2  501    0 -0.18568553121E+02 -0.16625167171E+03 -0.67597825756E+03  0.69636988319E+03  0.00000000000E+00 0. -1.
<mgrwt>
<rscale>  4 0.29183957E+03</rscale>
<asrwt>0</asrwt>
<pdfrwt beam="1">  1       21 0.11523234E-01 0.29183957E+03</pdfrwt>
<pdfrwt beam="2">  1        2 0.20143648E+00 0.29183957E+03</pdfrwt>
<totfact> 0.13652111E+04</totfact>
</mgrwt>
</event>
<event>
 5    0  0.3696258E+000  0.4529376E+03  0.7546771E-02  0.1026850E+00
         21   -1    0    0  503  502  0.00000000000E+00  0.00000000000E+00  0.13545348845E+04  0.13545348845E+04  0.00000000000E+00 0.  1.
         -3   -1    0    0    0  501 -0.00000000000E+00 -0.00000000000E+00 -0.27323885170E+03  0.27323885170E+03  0.00000000000E+00 0.  1.
         25    1    1    2    0    0  0.17872673148E+03  0.36797115366E+03  0.36369272598E+03  0.56146541604E+03  0.12500000000E+03 0.  0.
         21    1    1    2  503  501 -0.19905859761E+03 -0.40416333175E+03  0.83115573524E+03  0.94540582833E+03  0.00000000000E+00 0.  1.
         -3    1    1    2    0  502  0.20331866129E+02  0.36192178089E+02 -0.11355242842E+03  0.12090249184E+03  0.00000000000E+00 0.  1.
<mgrwt>
<rscale>  4 0.45293760E+03</rscale>
<asrwt>0</asrwt>
<pdfrwt beam="1">  1       21 0.20838998E+00 0.45293760E+03</pdfrwt>
<pdfrwt beam="2">  1       -3 0.42036747E-01 0.45293760E+03</pdfrwt>
<totfact> 0.29309947E+01</totfact>
</mgrwt>
</event>
<event>
 5    0  0.3696258E+000  0.2739685E+03  0.7546771E-02  0.1099030E+00
          2   -1    0    0  503    0 -0.00000000000E+00  0.00000000000E+00  0.36112661381E+03  0.36112661381E+03  0.00000000000E+00 0. -1.
         21   -1    0    0  501  502  0.00000000000E+00 -0.00000000000E+00 -0.15144337806E+04  0.15144337806E+04  0.00000000000E+00 0.  1.
         25    1    1    2    0    0  0.22118742527E+03  0.11015215005E+03 -0.14017067592E+04  0.14287981705E+04  0.12500000000E+03 0.  0.
         21    1    1    2  503  502  0.19423280014E+01 -0.91094307718E+02  0.19692182963E+03  0.21697961315E+03  0.00000000000E+00 0. -1.
          2    1    1    2  501    0 -0.22312975327E+03 -0.19057842332E+02  0.51477762776E+02  0.22978261076E+03  0.00000000000E+00 0. -1.
<mgrwt>
<rscale>  4 0.27396853E+03</rscale>
<asrwt>0</asrwt>
<pdfrwt beam="1">  1       21 0.23298981E+00 0.27396853E+03</pdfrwt>
<pdfrwt beam="2">  1        2 0.55557941E-01 0.27396853E+03</pdfrwt>
<totfact> 0.86866501E+01</totfact>
</mgrwt>
</event>
<event>
 5    0  0.3696258E+000  0.3180943E+03  0.7546771E-02  0.1076530E+00
         21   -1    0    0  501  502  0.00000000000E+00  0.00000000000E+00  0.10891687589E+04  0.10891687589E+04  0.00000000000E+00 0.  1.
          1   -1    0    0  503    0 -0.00000000000E+00 -0.00000000000E+00 -0.26849471122E+03  0.26849471122E+03  0.00000000000E+00 0. -1.
         25    1    1    2    0    0 -0.29021543139E+03 -0.98850687052E+02  0.44349109351E+03  0.55344900847E+03  0.12500000000E+03 0.  0.
         21    1    1    2  503  502  0.27232171963E+03  0.80096911335E+02  0.55560663934E+03  0.62391776050E+03  0.00000000000E+00 0.  1.
          1    1    1    2  501    0  0.17893711751E+02  0.18753775717E+02 -0.17842368517E+03  0.18029670117E+03  0.00000000000E+00 0. -1.
<mgrwt>
<rscale>  4 0.31809425E+03</rscale>
<asrwt>0</asrwt>
<pdfrwt beam="1">  1       21 0.16756442E+00 0.31809425E+03</pdfrwt>
<pdfrwt beam="2">  1        1 0.41306879E-01 0.31809425E+03</pdfrwt>
<totfact> 0.22658121E+02</totfact>
</mgrwt>
</event>
<event>
 5    0  0.3696258E+000  0.4488804E+03  0.7546771E-02  0.1028056E+00
          2   -1    0    0  503    0 -0.00000000000E+00  0.00000000000E+00  0.29013963840E+04  0.29013963840E+04  0.00000000000E+00 0.  1.
         21   -1    0    0  501  502  0.00000000000E+00 -0.00000000000E+00 -0.17429021229E+03  0.17429021229E+03  0.00000000000E+00 0.  1.
         25    1    1    2    0    0 -0.28304576664E+03 -0.34476310366E+03  0.11650897040E+04  0.12538084073E+04  0.12500000000E+03 0.  0.
         21    1    1    2  503  502  0.26485219102E+03  0.33469100764E+03  0.22087057679E+03  0.48057108254E+03  0.00000000000E+00 0.  1.
          2    1    1    2  501    0  0.18193575614E+02  0.10072096029E+02  0.13411458909E+04  0.13413071065E+04  0.00000000000E+00 0.  1.
<mgrwt>
<rscale>  4 0.44888040E+03</rscale>
<asrwt>0</asrwt>
<pdfrwt beam="1">  1       21 0.26813881E-01 0.44888040E+03</pdfrwt>
<pdfrwt beam="2">  1        2 0.44636864E+00 0.44888040E+03</pdfrwt>
<totfact> 0.35866586E+02</totfact>
</mgrwt>
</event>
<event>
 5    0  0.3696258E+000  0.2898233E+03  0.7546771E-02  0.1090441E+00
         21   -1    0    0  501  502  0.00000000000E+00  0.00000000000E+00  0.66912319205E+02  0.66912319205E+02  0.00000000000E+00 0. -1.
          2   -1    0    0  503    0 -0.00000000000E+00 -0.00000000000E+00 -0.31838389462E+04  0.31838389462E+04  0.00000000000E+00 0. -1.
         25    1    1    2    0    0 -0.22527559742E+03 -0.14676697895E+03 -0.34231528643E+03  0.45287348811E+03  0.12500000000E+03 0.  0.
         21    1    1    2  503  502  0.19706062322E+03  0.13436368552E+03 -0.12273648305E+04  0.12503243244E+04  0.00000000000E+00 0. -1.
          2    1    1    2  501    0  0.28214974200E+02  0.12403293432E+02 -0.15472465101E+04  0.15475534529E+04  0.00000000000E+00 0. -1.
<mgrwt>
<rscale>  4 0.28982326E+03</rscale>
<asrwt>0</asrwt>
<pdfrwt beam="1">  1       21 0.10294204E-01 0.28982326E+03</pdfrwt>
<pdfrwt beam="2">  1        2 0.48982131E+00 0.28982326E+03</pdfrwt>
<totfact> 0.15486647E+03</totfact>
</mgrwt>
</event>
<event>
 5    0  0.3696258E+000  0.2386647E+03  0.7546771E-02  0.1120686E+00
         -2   -1    0    0    0  501 -0.00000000000E+00  0.00000000000E+00  0.77259825229E+02  0.77259825229E+02  0.00000000000E+00 0. -1.
         21   -1    0    0  503  502  0.00000000000E+00 -0.00000000000E+00 -0.12549131410E+04  0.12549131410E+04  0.00000000000E+00 0. -1.
         25    1    1    2    0    0 -0.23289212386E+03 -0.60573872461E+02 -0.80650772171E+03  0.85087463269E+03  0.12500000000E+03 0.  0.
         21    1    1    2  503  501  0.61096272662E+02  0.89955778700E+02 -0.58814248163E+02  0.12362812157E+03  0.00000000000E+00 0. -1.
         -2    1    1    2    0  502  0.17179585120E+03 -0.29381906239E+02 -0.31233134593E+03  0.35767021200E+03  0.00000000000E+00 0. -1.
<mgrwt>
<rscale>  4 0.23866466E+03</rscale>
<asrwt>0</asrwt>
<pdfrwt beam="1">  1       21 0.19306356E+00 0.23866466E+03</pdfrwt>
<pdfrwt beam="2">  1       -2 0.11886127E-01 0.23866466E+03</pdfrwt>
<totfact> 0.57349938E+02</totfact>
</mgrwt>
</event>
<event>
 5    0  0.3696258E+000  0.2778681E+03  0.7546771E-02  0.1096859E+00
          2   -1    0    0  503    0 -0.00000000000E+00  0.00000000000E+00  0.93785677206E+03  0.93785677206E+03  0.00000000000E+00 0. -1.
         21   -1    0    0  501  502  0.00000000000E+00 -0.00000000000E+00 -0.73292269297E+03  0.73292269297E+03  0.00000000000E+00 0. -1.
         25    1    1    2    0    0  0.66792811370E+02 -0.23415707543E+03 -0.60894567679E+03  0.66763062610E+03  0.12500000000E+03 0.  0.
         21    1    1    2  503  502 -0.15108527234E+03  0.25263247710E+03  0.14393501953E+03  0.32766937277E+03  0.00000000000E+00 0.  1.
          2    1    1    2  501    0  0.84292460973E+02 -0.18475401666E+02  0.66994473636E+03  0.67547946617E+03  0.00000000000E+00 0. -1.
<mgrwt>
<rscale>  4 0.27786805E+03</rscale>
<asrwt>0</asrwt>
<pdfrwt beam="1">  1       21 0.11275734E+00 0.27786805E+03</pdfrwt>
<pdfrwt beam="2">  1        2 0.14428566E+00 0.27786805E+03</pdfrwt>
<totfact> 0.21163557E+02</totfact>
</mgrwt>
</event>
<event>
 5    0  0.3696258E+000  0.2603636E+03  0.7546771E-02  0.1106925E+00
         21   -1    0    0  501  502  0.00000000000E+00  0.00000000000E+00  0.28881968256E+03  0.28881968256E+03  0.00000000000E+00 0. -1.
          1   -1    0    0  503    0 -0.00000000000E+00 -0.00000000000E+00 -0.98327258036E+03  0.98327258036E+03  0.00000000000E+00 0.  1.
         25    1    1    2    0    0 -0.28594711677E+02  0.24323094903E+03  0.12305649145E+03  0.30124218196E+03  0.12500000000E+03 0.  0.
         21    1    1    2  503  502  0.19264715289E+02 -0.20235365769E+03 -0.59661761949E+02  0.21184347494E+03  0.00000000000E+00 0. -1.
          1    1    1    2  501    0  0.93299963876E+01 -0.40877291345E+02 -0.75784762731E+03  0.75900660603E+03  0.00000000000E+00 0.  1.
<mgrwt>
<rscale>  4 0.26036361E+03</rscale>
<asrwt>0</asrwt>
<pdfrwt beam="1">  1       21 0.44433797E-01 0.26036361E+03</pdfrwt>
<pdfrwt beam="2">  1        1 0.15127271E+00 0.26036361E+03</pdfrwt>
<totfact> 0.86843176E+02</totfact>
</mgrwt>
</event>
<event>
 5    0  0.3696258E+000  0.3724173E+03  0.7546771E-02  0.1053772E+00
          2   -1    0    0  503    0 -0.00000000000E+00  0.00000000000E+00  0.19120710402E+04  0.19120710402E+04  0.00000000000E+00 0. -1.
         21   -1    0    0  501  502  0.00000000000E+00 -0.00000000000E+00 -0.10168038245E+03  0.10168038245E+03  0.00000000000E+00 0.  1.
         25    1    1    2    0    0 -0.20548412178E+03  0.28433419368E+03  0.35302059247E+03  0.51314539529E+03  0.12500000000E+03 0.  0.
         21    1    1    2  503  502  0.13953601770E+03 -0.22642319994E+03  0.99218996293E+03  0.10272189096E+04  0.00000000000E+00 0. -1.
          2    1    1    2  501    0  0.65948104083E+02 -0.57910993743E+02  0.46518010234E+03  0.47338711774E+03  0.00000000000E+00 0. -1.
<mgrwt>
<rscale>  4 0.37241732E+03</rscale>
<asrwt>0</asrwt>
<pdfrwt beam="1">  1       21 0.15643137E-01 0.37241732E+03</pdfrwt>
<pdfrwt beam="2">  1        2 0.29416475E+00 0.37241732E+03</pdfrwt>
<totfact> 0.36280867E+03</totfact>
</mgrwt>
</event>
<event>
 5    0  0.3696258E+000  0.2902773E+03  0.7546771E-02  0.1090204E+00
         21   -1    0    0  501  502  0.00000000000E+00  0.00000000000E+00  0.62243114239E+03  0.62243114239E+03  0.00000000000E+00 0.  1.
          2   -1    0    0  503    0 -0.00000000000E+00 -0.00000000000E+00 -0.36619569992E+04  0.36619569992E+04  0.00000000000E+00 0. -1.
         25    1    1    2    0    0  0.26041135481E+03 -0.88972106134E+02  0.52551823632E+03  0.60623801109E+03  0.12500000000E+03 0.  0.
         21    1    1    2  503  502 -0.16156166979E+03  0.13302671032E+03 -0.14088963393E+03  0.25228588497E+03  0.00000000000E+00 0.  1.
          2    1    1    2  501    0 -0.98849685014E+02 -0.44054604181E+02 -0.34241544592E+04  0.34258642455E+04  0.00000000000E+00 0. -1.
<mgrwt>
<rscale>  4 0.29027735E+03</rscale>
<asrwt>0</asrwt>
<pdfrwt beam="1">  1       21 0.95758639E-01 0.29027735E+03</pdfrwt>
<pdfrwt beam="2">  1        2 0.56337799E+00 0.29027735E+03</pdfrwt>
<totfact> 0.85190797E+00</totfact>
</mgrwt>
</event>
<event>
 5    0  0.3696258E+000  0.2236850E+03  0.7546771E-02  0.1131165E+00
          2   -1    0    0  503    0 -0.00000000000E+00  0.00000000000E+00  0.92504662761E+03  0.92504662761E+03  0.00000000000E+00 0. -1.
         21   -1    0    0  501  502  0.00000000000E+00 -0.00000000000E+00 -0.15050669300E+03  0.15050669300E+03  0.00000000000E+00 0.  1.
         25    1    1    2    0    0 -0.97965083707E+01  0.23099723146E+03  0.18140200154E+03  0.31935462840E+03  0.12500000000E+03 0.  0.
         21    1    1    2  503  502  0.21590910586E+00 -0.16918804786E+03  0.97516216692E+01  0.16946898324E+03  0.00000000000E+00 0.  1.
          2    1    1    2  501    0  0.95805992648E+01 -0.61809183601E+02  0.58338631140E+03  0.58672970897E+03  0.00000000000E+00 0. -1.
<mgrwt>
<rscale>  4 0.22368499E+03</rscale>
<asrwt>0</asrwt>
<pdfrwt beam="1">  1       21 0.23154876E-01 0.22368499E+03</pdfrwt>
<pdfrwt beam="2">  1        2 0.14231486E+00 0.22368499E+03</pdfrwt>
<totfact> 0.64414242E+03</totfact>
</mgrwt>
</event>
<event>
 5    0  0.3696258E+000  0.2204575E+03  0.7546771E-02  0.1133542E+00
         21   -1    0    0  501  502  0.00000000000E+00  0.00000000000E+00  0.23695862548E+03  0.23695862548E+03  0.00000000000E+00 0. -1.
          2   -1    0    0  503    0 -0.00000000000E+00 -0.00000000000E+00 -0.78958926472E+03  0.78958926472E+03  0.00000000000E+00 0.  1.
         25    1    1    2    0    0 -0.11553285351E+03 -0.17587337865E+03 -0.21438889552E+03  0.32537191655E+03  0.12500000000E+03 0.  0.
         21    1    1    2  503  502  0.79335478696E+02  0.15838962493E+03  0.13718297848E+03  0.22405481706E+03  0.00000000000E+00 0. -1.
          2    1    1    2  501    0  0.36197374817E+02  0.17483753723E+02 -0.47542472220E+03  0.47712115659E+03  0.00000000000E+00 0.  1.
<mgrwt>
<rscale>  4 0.22045747E+03</rscale>
<asrwt>0</asrwt>
<pdfrwt beam="1">  1       21 0.36455174E-01 0.22045747E+03</pdfrwt>
<pdfrwt beam="2">  1        2 0.12147527E+00 0.22045747E+03</pdfrwt>
<totfact> 0.32732479E+03</totfact>
</mgrwt>
</event>
<event>
 5    0  0.3696258E+000  0.3005395E+03  0.7546771E-02  0.1084971E+00
          4   -1    0    0  503    0 -0.00000000000E+00  0.00000000000E+00  0.17824340774E+03  0.17824340774E+03  0.00000000000E+00 0. -1.
         21   -1    0    0  501  502  0.00000000000E+00 -0.00000000000E+00 -0.49232133510E+03  0.49232133510E+03  0.00000000000E+00 0. -1.
         25    1    1    2    0    0 -0.25599540436E+03  0.95735680207E+02 -0.21269811908E+03  0.36819078937E+03  0.12500000000E+03 0.  0.
         21    1    1    2  503  502  0.22940334784E+03 -0.10579948984E+03 -0.10526140794E+03  0.27367753297E+03  0.00000000000E+00 0. -1.
          4    1    1    2  501    0  0.26592056516E+02  0.10063809629E+02  0.38815996539E+01  0.28696420506E+02  0.00000000000E+00 0. -1.
<mgrwt>
<rscale>  4 0.30053946E+03</rscale>
<asrwt>0</asrwt>
<pdfrwt beam="1">  1       21 0.75741743E-01 0.30053946E+03</pdfrwt>
<pdfrwt beam="2">  1        4 0.27422063E-01 0.30053946E+03</pdfrwt>
<totfact> 0.81885791E+02</totfact>
</mgrwt>
</event>
<event>
 5    0  0.3696258E+000  0.2259870E+03  0.7546771E-02  0.1129497E+00
          1   -1    0    0  503    0 -0.00000000000E+00  0.00000000000E+00  0.42555873191E+03  0.42555873191E+03  0.00000000000E+00 0.  1.
         21   -1    0    0  501  502  0.00000000000E+00 -0.00000000000E+00 -0.87240165885E+03  0.87240165885E+03  0.00000000000E+00 0. -1.
         25    1    1    2    0    0  0.18133893546E+03 -0.85854144675E+02 -0.38765232061E+03  0.45404192025E+03  0.12500000000E+03 0.  0.
         21    1    1    2  503  502 -0.15044613718E+03  0.10288632838E+03 -0.43229677397E+03  0.46914831082E+03  0.00000000000E+00 0. -1.
          1    1    1    2  501    0 -0.30892798273E+02 -0.17032183708E+02  0.37310616764E+03  0.37477015970E+03  0.00000000000E+00 0.  1.
<mgrwt>
<rscale>  4 0.22598704E+03</rscale>
<asrwt>0</asrwt>
<pdfrwt beam="1">  1       21 0.13421564E+00 0.22598704E+03</pdfrwt>
<pdfrwt beam="2">  1        1 0.65470575E-01 0.22598704E+03</pdfrwt>
<totfact> 0.23976456E+02</totfact>
</mgrwt>
</event>
<event>
 5    0  0.3696258E+000  0.2576958E+03  0.7546771E-02  0.1108536E+00
         21   -1    0    0  501  502  0.00000000000E+00  0.00000000000E+00  0.18216139511E+04  0.18216139511E+04  0.00000000000E+00 0.  1.
          1   -1    0    0  503    0 -0.00000000000E+00 -0.00000000000E+00 -0.62599483296E+02  0.62599483296E+02  0.00000000000E+00 0.  1.
         25    1    1    2    0    0  0.26162867392E+03  0.64546864072E+02  0.12008353872E+04  0.12370313205E+04  0.12500000000E+03 0.  0.
         21    1    1    2  503  502 -0.12476202287E+03 -0.12087706255E+03  0.24007774413E+03  0.29633452351E+03  0.00000000000E+00 0.  1.
          1    1    1    2  501    0 -0.13686665105E+03  0.56330198474E+02  0.31810133647E+03  0.35084759040E+03  0.00000000000E+00 0.  1.
<mgrwt>
<rscale>  4 0.25769577E+03</rscale>
<asrwt>0</asrwt>
<pdfrwt beam="1">  1       21 0.28024826E+00 0.25769577E+03</pdfrwt>
<pdfrwt beam="2">  1        1 0.96306911E-02 0.25769577E+03</pdfrwt>
<totfact> 0.30172699E+02</totfact>
</mgrwt>
</event>
<event>
 5    0  0.3696258E+000  0.3997011E+03  0.7546771E-02  0.1043883E+00
          2   -1    0    0  503    0 -0.00000000000E+00  0.00000000000E+00  0.13306517841E+04  0.13306517841E+04  0.00000000000E+00 0. -1.
         21   -1    0    0  501  502  0.00000000000E+00 -0.00000000000E+00 -0.70243858775E+03  0.70243858775E+03  0.00000000000E+00 0.  1.
         25    1    1    2    0    0  0.21312215304E+03 -0.31106277052E+03 -0.44560271281E+03  0.59696555762E+03  0.12500000000E+03 0.  0.
         21    1    1    2  503  502 -0.15111719967E+03  0.36288672309E+03  0.35527699148E+02  0.39469659137E+03  0.00000000000E+00 0.  1.
          2    1    1    2  501    0 -0.62004953371E+02 -0.51823952571E+02  0.10382882100E+04  0.10414282228E+04  0.00000000000E+00 0. -1.
<mgrwt>
<rscale>  4 0.39970112E+03</rscale>
<asrwt>0</asrwt>
<pdfrwt beam="1">  1       21 0.10806748E+00 0.39970112E+03</pdfrwt>
<pdfrwt beam="2">  1        2 0.20471566E+00 0.39970112E+03</pdfrwt>
<totfact> 0.12979534E+02</totfact>
</mgrwt>
</event>
<event>
 5    0  0.3696258E+000  0.3181428E+03  0.7546771E-02  0.1076507E+00
         21   -1    0    0  501  502  0.00000000000E+00  0.00000000000E+00  0.34048192694E+03  0.34048192694E+03  0.00000000000E+00 0.  1.
          2   -1    0    0  503    0 -0.00000000000E+00 -0.00000000000E+00 -0.22701368625E+04  0.22701368625E+04  0.00000000000E+00 0.  1.
         25    1    1    2    0    0  0.14873549019E+03 -0.31706246131E+03 -0.57763656767E+03  0.68697878768E+03  0.12500000000E+03 0.  0.
         21    1    1    2  503  502 -0.11513131890E+03  0.26183257868E+03  0.21341527705E+03  0.35687196630E+03  0.00000000000E+00 0.  1.
          2    1    1    2  501    0 -0.33604171291E+02  0.55229882627E+02 -0.15654336449E+04  0.15667680354E+04  0.00000000000E+00 0.  1.
<mgrwt>
<rscale>  4 0.31814283E+03</rscale>
<asrwt>0</asrwt>
<pdfrwt beam="1">  1       21 0.52381834E-01 0.31814283E+03</pdfrwt>
<pdfrwt beam="2">  1        2 0.34925183E+00 0.31814283E+03</pdfrwt>
<totfact> 0.22004780E+02</totfact>
</mgrwt>
</event>
<event>
 5    0  0.3696258E+000  0.3062088E+03  0.7546771E-02  0.1082177E+00
          2   -1    0    0  503    0 -0.00000000000E+00  0.00000000000E+00  0.28637555099E+04  0.28637555099E+04  0.00000000000E+00 0.  1.
         21   -1    0    0  501  502  0.00000000000E+00 -0.00000000000E+00 -0.35347227729E+03  0.35347227729E+03  0.00000000000E+00 0. -1.
         25    1    1    2    0    0  0.26874121972E+03  0.66091178265E+02 -0.22825044601E+03  0.37988571061E+03  0.12500000000E+03 0.  0.
         21    1    1    2  503  502 -0.27821756971E+03 -0.10713177820E+03  0.40229117070E+03  0.50071990176E+03  0.00000000000E+00 0. -1.
          2    1    1    2  501    0  0.94763499937E+01  0.41040599938E+02  0.23362425079E+04  0.23366221748E+04  0.00000000000E+00 0.  1.
<mgrwt>
<rscale>  4 0.30620884E+03</rscale>
<asrwt>0</asrwt>
<pdfrwt beam="1">  1       21 0.54380352E-01 0.30620884E+03</pdfrwt>
<pdfrwt beam="2">  1        2 0.44057776E+00 0.30620884E+03</pdfrwt>
<totfact> 0.95594570E+01</totfact>
</mgrwt>
</event>
<event>
 5    0  0.3696258E+000  0.2249262E+03  0.7546771E-02  0.1130263E+00
         21   -1    0    0  503  502  0.00000000000E+00  0.00000000000E+00  0.96630626969E+02  0.96630626969E+02  0.00000000000E+00 0. -1.
         -4   -1    0    0    0  501 -0.00000000000E+00 -0.00000000000E+00 -0.78392812410E+03  0.78392812410E+03  0.00000000000E+00 0. -1.
         25    1    1    2    0    0  0.13792000307E+03 -0.14549867153E+03 -0.17670404148E+03  0.29502730202E+03  0.12500000000E+03 0.  0.
         21    1    1    2  503  501 -0.60966111107E+02 -0.15360551628E+02 -0.31350403741E+03  0.31974614106E+03  0.00000000000E+00 0. -1.
         -4    1    1    2    0  502 -0.76953891959E+02  0.16085922315E+03 -0.19708941825E+03  0.26578530799E+03  0.00000000000E+00 0. -1.
<mgrwt>
<rscale>  4 0.22492622E+03</rscale>
<asrwt>0</asrwt>
<pdfrwt beam="1">  1       21 0.14866251E-01 0.22492622E+03</pdfrwt>
<pdfrwt beam="2">  1       -4 0.12060432E+00 0.22492622E+03</pdfrwt>
<totfact> 0.91877735E+02</totfact>
</mgrwt>
</event>
<event>
 5    0  0.3696258E+000  0.2065300E+03  0.7546771E-02  0.1144344E+00
          1   -1    0    0  503    0 -0.00000000000E+00  0.00000000000E+00  0.72513093243E+03  0.72513093243E+03  0.00000000000E+00 0.  1.
         21   -1    0    0  501  502  0.00000000000E+00 -0.00000000000E+00 -0.40324920332E+03  0.40324920332E+03  0.00000000000E+00 0.  1.
         25    1    1    2    0    0  0.16790497015E+03 -0.14286810849E+03  0.68186895829E+02  0.26244585763E+03  0.12500000000E+03 0.  0.
         21    1    1    2  503  502 -0.47093584193E+02  0.41134998016E+02 -0.29159907682E+03  0.29822795868E+03  0.00000000000E+00 0.  1.
          1    1    1    2  501    0 -0.12081138595E+03  0.10173311047E+03  0.54529391011E+03  0.56770631945E+03  0.00000000000E+00 0.  1.
<mgrwt>
<rscale>  4 0.20652996E+03</rscale>
<asrwt>0</asrwt>
<pdfrwt beam="1">  1       21 0.62038339E-01 0.20652996E+03</pdfrwt>
<pdfrwt beam="2">  1        1 0.11155860E+00 0.20652996E+03</pdfrwt>
<totfact> 0.71343065E+02</totfact>
</mgrwt>
</event>
<event>
 5    0  0.3696258E+000  0.3149126E+03  0.7546771E-02  0.1078015E+00
         21   -1    0    0  501  502  0.00000000000E+00  0.00000000000E+00  0.73536619331E+03  0.73536619331E+03  0.00000000000E+00 0.  1.
          1   -1    0    0  503    0 -0.00000000000E+00 -0.00000000000E+00 -0.82321407485E+03  0.82321407485E+03  0.00000000000E+00 0. -1.
         25    1    1    2    0    0 -0.14723660583E+03  0.25069950462E+03  0.62479604997E+03  0.70037415984E+03  0.12500000000E+03 0.  0.
         21    1    1    2  503  502  0.56325247941E+02 -0.26278455510E+03 -0.71768657477E+03  0.76635649378E+03  0.00000000000E+00 0. -1.
          1    1    1    2  501    0  0.90911357891E+02  0.12085050486E+02  0.50426432620E+01  0.91849614534E+02  0.00000000000E+00 0. -1.
<mgrwt>
<rscale>  4 0.31491260E+03</rscale>
<asrwt>0</asrwt>
<pdfrwt beam="1">  1       21 0.11313326E+00 0.31491260E+03</pdfrwt>
<pdfrwt beam="2">  1        1 0.12664832E+00 0.31491260E+03</pdfrwt>
<totfact> 0.13886821E+02</totfact>
</mgrwt>
</event>
<event>
 5    0  0.3696258E+000  0.2328705E+03  0.7546771E-02  0.1124636E+00
         21   -1    0    0  501  502  0.00000000000E+00  0.00000000000E+00  0.14990410200E+04  0.14990410200E+04  0.00000000000E+00 0.  1.
          2   -1    0    0  503    0 -0.00000000000E+00 -0.00000000000E+00 -0.10126854680E+04  0.10126854680E+04  0.00000000000E+00 0. -1.
         25    1    1    2    0    0 -0.14477970523E+03 -0.14481419283E+03  0.77101342437E+03  0.80747694335E+03  0.12500000000E+03 0.  0.
         21    1    1    2  503  502  0.11885195528E+03  0.14971862219E+03  0.69674486785E+03  0.72249212036E+03  0.00000000000E+00 0.  1.
          2    1    1    2  501    0  0.25927749946E+02 -0.49044293596E+01 -0.98140274019E+03  0.98175742426E+03  0.00000000000E+00 0. -1.
<mgrwt>
<rscale>  4 0.23287049E+03</rscale>
<asrwt>0</asrwt>
<pdfrwt beam="1">  1       21 0.23062170E+00 0.23287049E+03</pdfrwt>
<pdfrwt beam="2">  1        2 0.15579776E+00 0.23287049E+03</pdfrwt>
<totfact> 0.27142427E+01</totfact>
</mgrwt>
</event>
<event>
 5    0  0.3696258E+000  0.4044821E+03  0.7546771E-02  0.1042239E+00
         21   -1    0    0  501  502  0.00000000000E+00  0.00000000000E+00  0.61661727303E+03  0.61661727303E+03  0.00000000000E+00 0.  1.
          1   -1    0    0  503    0 -0.00000000000E+00 -0.00000000000E+00 -0.70015865926E+03  0.70015865926E+03  0.00000000000E+00 0.  1.
         25    1    1    2    0    0  0.10444692617E+03 -0.39107149540E+03  0.31884895711E+03  0.53022234237E+03  0.12500000000E+03 0.  0.
         21    1    1    2  503  502 -0.12685085513E+03  0.33097381772E+03  0.24099185655E+02  0.35526831862E+03  0.00000000000E+00 0.  1.
          1    1    1    2  501    0  0.22403928958E+02  0.60097677676E+02 -0.42648952899E+03  0.43128527130E+03  0.00000000000E+00 0.  1.
<mgrwt>
<rscale>  4 0.40448210E+03</rscale>
<asrwt>0</asrwt>
<pdfrwt beam="1">  1       21 0.94864195E-01 0.40448210E+03</pdfrwt>
<pdfrwt beam="2">  1        1 0.10771672E+00 0.40448210E+03</pdfrwt>
<totfact> 0.26303244E+02</totfact>
</mgrwt>
</event>
<event>
 5    0  0.3696258E+000  0.2511500E+03  0.7546771E-02  0.1112580E+00
         21   -1    0    0  501  502  0.00000000000E+00  0.00000000000E+00  0.39767915598E+02  0.39767915598E+02  0.00000000000E+00 0.  1.
          1   -1    0    0  503    0 -0.00000000000E+00 -0.00000000000E+00 -0.29597387741E+04  0.29597387741E+04  0.00000000000E+00 0. -1.
         25    1    1    2    0    0 -0.47156617679E+02  0.22480649911E+03 -0.52214096973E+03  0.58396738000E+03  0.12500000000E+03 0.  0.
         21    1    1    2  503  502  0.77321609074E+02 -0.17981650588E+03 -0.11503330138E+04  0.11668670232E+04  0.00000000000E+00 0.  1.
          1    1    1    2  501    0 -0.30164991396E+02 -0.44989993231E+02 -0.12474968749E+04  0.12486722865E+04  0.00000000000E+00 0. -1.
<mgrwt>
<rscale>  4 0.25115004E+03</rscale>
<asrwt>0</asrwt>
<pdfrwt beam="1">  1       21 0.61181418E-02 0.25115004E+03</pdfrwt>
<pdfrwt beam="2">  1        1 0.45534436E+00 0.25115004E+03</pdfrwt>
<totfact> 0.16536225E+03</totfact>
</mgrwt>
</event>
<event>
 5    0  0.3696258E+000  0.3388846E+03  0.7546771E-02  0.1067272E+00
          2   -1    0    0  503    0 -0.00000000000E+00  0.00000000000E+00  0.24190973797E+04  0.24190973797E+04  0.00000000000E+00 0. -1.
         21   -1    0    0  501  502  0.00000000000E+00 -0.00000000000E+00 -0.12620912489E+03  0.12620912489E+03  0.00000000000E+00 0. -1.
         25    1    1    2    0    0 -0.95153505635E+02  0.19731046295E+03  0.79873912998E+03  0.83761256329E+03  0.12500000000E+03 0.  0.
         21    1    1    2  503  502  0.65302157897E+02 -0.34689079261E+03  0.20224703629E+03  0.40681870349E+03  0.00000000000E+00 0. -1.
          2    1    1    2  501    0  0.29851347738E+02  0.14958032966E+03  0.12919020886E+04  0.13008752378E+04  0.00000000000E+00 0. -1.
<mgrwt>
<rscale>  4 0.33888463E+03</rscale>
<asrwt>0</asrwt>
<pdfrwt beam="1">  1       21 0.19416790E-01 0.33888463E+03</pdfrwt>
<pdfrwt beam="2">  1        2 0.37216879E+00 0.33888463E+03</pdfrwt>
<totfact> 0.13081672E+03</totfact>
</mgrwt>
</event>
<event>
 5    0  0.3696258E+000  0.2599128E+03  0.7546771E-02  0.1107196E+00
         21   -1    0    0  501  502  0.00000000000E+00  0.00000000000E+00  0.56043618762E+02  0.56043618762E+02  0.00000000000E+00 0. -1.
          2   -1    0    0  503    0 -0.00000000000E+00 -0.00000000000E+00 -0.14501709621E+04  0.14501709621E+04  0.00000000000E+00 0.  1.
         25    1    1    2    0    0 -0.77841369112E+02 -0.21404658402E+03 -0.51836836122E+03  0.57983271449E+03  0.12500000000E+03 0.  0.
         21    1    1    2  503  502  0.13550736259E+03  0.18958192499E+03 -0.75782179389E+03  0.79284136048E+03  0.00000000000E+00 0.  1.
          2    1    1    2  501    0 -0.57665993482E+02  0.24464659022E+02 -0.11793718819E+03  0.13354050586E+03  0.00000000000E+00 0.  1.
<mgrwt>
<rscale>  4 0.25991275E+03</rscale>
<asrwt>0</asrwt>
<pdfrwt beam="1">  1       21 0.86220964E-02 0.25991275E+03</pdfrwt>
<pdfrwt beam="2">  1        2 0.22310319E+00 0.25991275E+03</pdfrwt>
<totfact> 0.19300406E+04</totfact>
</mgrwt>
</event>
<event>
 5    0  0.3696258E+000  0.3295779E+03  0.7546771E-02  0.1071324E+00
         21   -1    0    0  501  502  0.00000000000E+00  0.00000000000E+00  0.27074125877E+03  0.27074125877E+03  0.00000000000E+00 0. -1.
          2   -1    0    0  503    0 -0.00000000000E+00 -0.00000000000E+00 -0.77581271633E+03  0.77581271633E+03  0.00000000000E+00 0. -1.
         25    1    1    2    0    0  0.17668226664E+03  0.23709805777E+03 -0.12114175697E+02  0.32125358457E+03  0.12500000000E+03 0.  0.
         21    1    1    2  503  502  0.47478633258E+02 -0.25515395654E+02  0.67071094660E+02  0.86045265822E+02  0.00000000000E+00 0. -1.
          2    1    1    2  501    0 -0.22416089990E+03 -0.21158266212E+03 -0.56002837653E+03  0.63925512471E+03  0.00000000000E+00 0. -1.
<mgrwt>
<rscale>  4 0.32957789E+03</rscale>
<asrwt>0</asrwt>
<pdfrwt beam="1">  1       21 0.41652502E-01 0.32957789E+03</pdfrwt>
<pdfrwt beam="2">  1        2 0.11935580E+00 0.32957789E+03</pdfrwt>
<totfact> 0.24660739E+03</totfact>
</mgrwt>
</event>
<event>
 5    0  0.3696258E+000  0.2969231E+03  0.7546771E-02  0.1094659E+00
          2   -1    0    0  503    0 -0.00000000000E+00  0.00000000000E+00  0.17666211746E+04  0.17666211746E+04  0.00000000000E+00 0.  1.
         21   -1    0    0  501  502  0.00000000000E+00 -0.00000000000E+00 -0.14804063523E+04  0.14804063523E+04  0.00000000000E+00 0.  1.
         25    1    1    2    0    0 -0.16183778569E+03 -0.12794239792E+03 -0.10996790637E+04  0.11258240401E+04  0.12500000000E+03 0.  0.
         21    1    1    2  503  502  0.12640107509E+03  0.41877256264E+03 -0.21941510706E+03  0.48937785014E+03  0.00000000000E+00 0.  1.
          2    1    1    2  501    0  0.35436710605E+02 -0.29083016472E+03  0.16053089930E+04  0.16318256366E+04  0.00000000000E+00 0.  1.
<mgrwt>
<rscale>  4 0.28189352E+03</rscale>
<asrwt>0</asrwt>
<pdfrwt beam="1">  1       21 0.22775482E+00 0.29692314E+03</pdfrwt>
<pdfrwt beam="2">  1        2 0.27178787E+00 0.29692314E+03</pdfrwt>
<totfact> 0.10176705E+01</totfact>
</mgrwt>
</event>
<event>
 5    0  0.3696258E+000  0.2329875E+03  0.7546771E-02  0.1124554E+00
         21   -1    0    0  501  502  0.00000000000E+00  0.00000000000E+00  0.13381297009E+04  0.13381297009E+04  0.00000000000E+00 0. -1.
          2   -1    0    0  503    0 -0.00000000000E+00 -0.00000000000E+00 -0.12025812266E+04  0.12025812266E+04  0.00000000000E+00 0.  1.
         25    1    1    2    0    0 -0.10343044975E+03  0.17167275349E+03  0.46284811300E+03  0.51963715027E+03  0.12500000000E+03 0.  0.
         21    1    1    2  503  502  0.15084390222E+02 -0.20091172380E+03  0.83301476158E+03  0.85703363563E+03  0.00000000000E+00 0. -1.
          2    1    1    2  501    0  0.88346059528E+02  0.29238970317E+02 -0.11603144003E+04  0.11640401415E+04  0.00000000000E+00 0.  1.
<mgrwt>
<rscale>  4 0.23298753E+03</rscale>
<asrwt>0</asrwt>
<pdfrwt beam="1">  1       21 0.20586611E+00 0.23298753E+03</pdfrwt>
<pdfrwt beam="2">  1        2 0.18501250E+00 0.23298753E+03</pdfrwt>
<totfact> 0.29963641E+01</totfact>
</mgrwt>
</event>
<event>
 5    0  0.3696258E+000  0.3999821E+03  0.7546771E-02  0.1043786E+00
         21   -1    0    0  501  502  0.00000000000E+00  0.00000000000E+00  0.14894284061E+03  0.14894284061E+03  0.00000000000E+00 0. -1.
          2   -1    0    0  503    0 -0.00000000000E+00 -0.00000000000E+00 -0.21516020828E+04  0.21516020828E+04  0.00000000000E+00 0. -1.
         25    1    1    2    0    0 -0.24495420615E+03  0.32720002892E+03 -0.31019848919E+03  0.52811980150E+03  0.12500000000E+03 0.  0.
         21    1    1    2  503  502 -0.56910526628E+02 -0.18330875922E+03 -0.62578331956E+03  0.65455761571E+03  0.00000000000E+00 0.  1.
          2    1    1    2  501    0  0.30186473278E+03 -0.14389126971E+03 -0.10666774335E+04  0.11178675062E+04  0.00000000000E+00 0. -1.
<mgrwt>
<rscale>  4 0.39998212E+03</rscale>
<asrwt>0</asrwt>
<pdfrwt beam="1">  1       21 0.22914284E-01 0.39998212E+03</pdfrwt>
<pdfrwt beam="2">  1        2 0.33101569E+00 0.39998212E+03</pdfrwt>
<totfact> 0.13032911E+03</totfact>
</mgrwt>
</event>
<event>
 5    0  0.3696258E+000  0.3100092E+03  0.7546771E-02  0.1080341E+00
         21   -1    0    0  501  502  0.00000000000E+00  0.00000000000E+00  0.51158648904E+03  0.51158648904E+03  0.00000000000E+00 0. -1.
          2   -1    0    0  503    0 -0.00000000000E+00 -0.00000000000E+00 -0.75928431047E+03  0.75928431047E+03  0.00000000000E+00 0.  1.
         25    1    1    2    0    0 -0.24546792526E+03  0.32482647115E+02 -0.25866219202E+03  0.37926343651E+03  0.12500000000E+03 0.  0.
         21    1    1    2  503  502  0.27535470376E+03 -0.89418598586E+02  0.40195614075E+03  0.49536313725E+03  0.00000000000E+00 0. -1.
          2    1    1    2  501    0 -0.29886778496E+02  0.56935951470E+02 -0.39099177016E+03  0.39624422574E+03  0.00000000000E+00 0.  1.
<mgrwt>
<rscale>  4 0.31000918E+03</rscale>
<asrwt>0</asrwt>
<pdfrwt beam="1">  1       21 0.78705614E-01 0.31000918E+03</pdfrwt>
<pdfrwt beam="2">  1        2 0.11681297E+00 0.31000918E+03</pdfrwt>
<totfact> 0.64471004E+02</totfact>
</mgrwt>
</event>
