<event>
 5    0  0.2159162E+000  0.3751564E+03  0.7546771E-02  0.1052739E+00
         21   -1    0    0  502  501  0.00000000000E+00  0.00000000000E+00  0.31235971375E+03  0.31235971375E+03  0.00000000000E+00 0. -1.
         21   -1    0    0  503  502 -0.00000000000E+00 -0.00000000000E+00 -0.92707565109E+03  0.92707565109E+03  0.00000000000E+00 0. -1.
         25    1    1    2    0    0 -0.28784254545E+03 -0.22572081590E+03  0.11731540710E+03  0.40396920977E+03  0.12500000000E+03 0.  0.
         21    1    1    2  503  504  0.42828440710E+02  0.62938939150E+02 -0.45797356151E+02  0.88842462963E+02  0.00000000000E+00 0. -1.
         21    1    1    2  504  501  0.24501410474E+03  0.16278187675E+03 -0.68623398829E+03  0.74662369210E+03  0.00000000000E+00 0. -1.
<mgrwt>
<rscale>  4 0.37515642E+03</rscale>
<asrwt>0</asrwt>
<pdfrwt beam="1">  1       21 0.48055341E-01 0.37515642E+03</pdfrwt>
<pdfrwt beam="2">  1       21 0.14262702E+00 0.37515642E+03</pdfrwt>
<totfact> 0.12397191E+03</totfact>
</mgrwt>
</event>
<event>
 5    0  0.2159162E+000  0.2624310E+03  0.7546771E-02  0.1105691E+00
         21   -1    0    0  502  501  0.00000000000E+00  0.00000000000E+00  0.45659227247E+03  0.45659227247E+03  0.00000000000E+00 0. -1.
         21   -1    0    0  503  502 -0.00000000000E+00 -0.00000000000E+00 -0.29782544671E+03  0.29782544671E+03  0.00000000000E+00 0. -1.
         25    1    1    2    0    0 -0.13002851972E+03 -0.19062426144E+03  0.35591100518E+03  0.44220206761E+03  0.12500000000E+03 0.  0.
         21    1    1    2  503  504  0.29862114803E+02  0.72352250903E+02 -0.10812056353E+03  0.13347902596E+03  0.00000000000E+00 0. -1.
         21    1    1    2  504  501  0.10016640491E+03  0.11827201054E+03 -0.89023615885E+02  0.17873662561E+03  0.00000000000E+00 0. -1.
<mgrwt>
<rscale>  4 0.26243099E+03</rscale>
<asrwt>0</asrwt>
<pdfrwt beam="1">  1       21 0.70244965E-01 0.26243099E+03</pdfrwt>
<pdfrwt beam="2">  1       21 0.45819300E-01 0.26243099E+03</pdfrwt>
<totfact> 0.80335279E+03</totfact>
</mgrwt>
</event>
<event>
 5    0  0.4291238E+000  0.2717501E+03  0.7546771E-02  0.1100282E+00
         21   -1    0    0  502  501  0.00000000000E+00  0.00000000000E+00  0.24593445302E+03  0.24593445302E+03  0.00000000000E+00 0.  1.
         21   -1    0    0  503  502 -0.00000000000E+00 -0.00000000000E+00 -0.31350955791E+03  0.31350955791E+03  0.00000000000E+00 0.  1.
         25    1    1    2    0    0  0.11163593757E+01 -0.24582724985E+03  0.46157638970E+02  0.27962083374E+03  0.12500000000E+03 0.  0.
         21    1    1    2  503  504  0.16640926347E+02  0.11726886340E+02 -0.14211421544E+02  0.24827500785E+02  0.00000000000E+00 0.  1.
         21    1    1    2  504  501 -0.17757285723E+02  0.23410036351E+03 -0.99521322315E+02  0.25499567640E+03  0.00000000000E+00 0.  1.
<mgrwt>
<rscale>  4 0.27175006E+03</rscale>
<asrwt>0</asrwt>
<pdfrwt beam="1">  1       21 0.37836070E-01 0.27175006E+03</pdfrwt>
<pdfrwt beam="2">  1       21 0.48232240E-01 0.27175006E+03</pdfrwt>
<totfact> 0.26611900E+04</totfact>
</mgrwt>
</event>
<event>
 5    0  0.2159162E+000  0.2547714E+03  0.7546771E-02  0.1110326E+00
         21   -1    0    0  502  501  0.00000000000E+00  0.00000000000E+00  0.13332279705E+03  0.13332279705E+03  0.00000000000E+00 0.  1.
         21   -1    0    0  503  502 -0.00000000000E+00 -0.00000000000E+00 -0.63833326646E+03  0.63833326646E+03  0.00000000000E+00 0.  1.
         25    1    1    2    0    0 -0.15242561985E+03  0.16139985812E+03 -0.49904450271E+02  0.25961305426E+03  0.12500000000E+03 0.  0.
         21    1    1    2  503  504  0.11603410674E+03 -0.90147990366E+02 -0.22790448535E+03  0.27116605344E+03  0.00000000000E+00 0.  1.
         21    1    1    2  504  501  0.36391513109E+02 -0.71251867750E+02 -0.22720153380E+03  0.24087695582E+03  0.00000000000E+00 0.  1.
<mgrwt>
<rscale>  4 0.25477143E+03</rscale>
<asrwt>0</asrwt>
<pdfrwt beam="1">  1       21 0.20511199E-01 0.25477143E+03</pdfrwt>
<pdfrwt beam="2">  1       21 0.98205122E-01 0.25477143E+03</pdfrwt>
<totfact> 0.18214736E+04</totfact>
</mgrwt>
</event>
<event>
 5    0  0.2159162E+000  0.2701339E+03  0.7546771E-02  0.1101203E+00
         21   -1    0    0  502  501  0.00000000000E+00  0.00000000000E+00  0.11597997629E+04  0.11597997629E+04  0.00000000000E+00 0. -1.
         21   -1    0    0  503  502 -0.00000000000E+00 -0.00000000000E+00 -0.36447693836E+03  0.36447693836E+03  0.00000000000E+00 0.  1.
         25    1    1    2    0    0  0.40996097549E+02  0.23723379899E+03  0.10583591108E+04  0.10925701638E+04  0.12500000000E+03 0.  0.
         21    1    1    2  503  504 -0.11374671421E+03 -0.19944381270E+03 -0.26379908257E+03  0.34972289800E+03  0.00000000000E+00 0.  1.
         21    1    1    2  504  501  0.72750616662E+02 -0.37789986292E+02  0.76279635054E+00  0.81983639508E+02  0.00000000000E+00 0. -1.
<mgrwt>
<rscale>  4 0.27013394E+03</rscale>
<asrwt>0</asrwt>
<pdfrwt beam="1">  1       21 0.17843073E+00 0.27013394E+03</pdfrwt>
<pdfrwt beam="2">  1       21 0.56073376E-01 0.27013394E+03</pdfrwt>
<totfact> 0.51686343E+02</totfact>
</mgrwt>
</event>
<event>
 5    0  0.2159162E+000  0.2652846E+03  0.7546771E-02  0.1104009E+00
         21   -1    0    0  502  501  0.00000000000E+00  0.00000000000E+00  0.19658940037E+04  0.19658940037E+04  0.00000000000E+00 0. -1.
         21   -1    0    0  503  502 -0.00000000000E+00 -0.00000000000E+00 -0.47499590658E+02  0.47499590658E+02  0.00000000000E+00 0. -1.
         25    1    1    2    0    0  0.18252284970E+03  0.16343142215E+03  0.11930729780E+04  0.12243661834E+04  0.12500000000E+03 0.  0.
         21    1    1    2  503  504  0.15887801872E+02 -0.44881570931E+02  0.31078228908E+03  0.31440802926E+03  0.00000000000E+00 0. -1.
         21    1    1    2  504  501 -0.19841065157E+03 -0.11854985122E+03  0.41453914603E+03  0.47461938168E+03  0.00000000000E+00 0. -1.
<mgrwt>
<rscale>  4 0.26528465E+03</rscale>
<asrwt>0</asrwt>
<pdfrwt beam="1">  1       21 0.30244517E+00 0.26528465E+03</pdfrwt>
<pdfrwt beam="2">  1       21 0.73076309E-02 0.26528465E+03</pdfrwt>
<totfact> 0.43131989E+03</totfact>
</mgrwt>
</event>
<event>
 5    0  0.3103461E+000  0.3910823E+03  0.7546771E-02  0.1046912E+00
         21   -1    0    0  502  501  0.00000000000E+00  0.00000000000E+00  0.26154485334E+03  0.26154485334E+03  0.00000000000E+00 0. -1.
         21   -1    0    0  503  502 -0.00000000000E+00 -0.00000000000E+00 -0.57448128808E+03  0.57448128808E+03  0.00000000000E+00 0. -1.
         25    1    1    2    0    0  0.22727653598E+03 -0.29268713701E+03 -0.17329365477E+03  0.42775702772E+03  0.12500000000E+03 0.  0.
         21    1    1    2  503  504 -0.81101620885E+01  0.56961393002E+02 -0.44177538151E+02  0.72539850420E+02  0.00000000000E+00 0. -1.
         21    1    1    2  504  501 -0.21916637389E+03  0.23572574401E+03 -0.95465241812E+02  0.33572926328E+03  0.00000000000E+00 0. -1.
<mgrwt>
<rscale>  4 0.39108232E+03</rscale>
<asrwt>0</asrwt>
<pdfrwt beam="1">  1       21 0.40237670E-01 0.39108232E+03</pdfrwt>
<pdfrwt beam="2">  1       21 0.88381737E-01 0.39108232E+03</pdfrwt>
<totfact> 0.58674018E+03</totfact>
</mgrwt>
</event>
<event>
 5    0  0.2159162E+000  0.3109981E+03  0.7546771E-02  0.1079868E+00
         21   -1    0    0  502  501  0.00000000000E+00  0.00000000000E+00  0.10684134467E+03  0.10684134467E+03  0.00000000000E+00 0.  1.
         21   -1    0    0  503  502 -0.00000000000E+00 -0.00000000000E+00 -0.85755249449E+03  0.85755249449E+03  0.00000000000E+00 0. -1.
         25    1    1    2    0    0  0.26809095095E+03  0.96031711222E+02 -0.32315161101E+03  0.44849393668E+03  0.12500000000E+03 0.  0.
         21    1    1    2  503  504 -0.24800607559E+03 -0.80159628186E+02 -0.40584929408E+03  0.48233414665E+03  0.00000000000E+00 0. -1.
         21    1    1    2  504  501 -0.20084875360E+02 -0.15872083036E+02 -0.21710244723E+02  0.33565755824E+02  0.00000000000E+00 0. -1.
<mgrwt>
<rscale>  4 0.31099815E+03</rscale>
<asrwt>0</asrwt>
<pdfrwt beam="1">  1       21 0.16437130E-01 0.31099815E+03</pdfrwt>
<pdfrwt beam="2">  1       21 0.13193115E+00 0.31099815E+03</pdfrwt>
<totfact> 0.12929546E+04</totfact>
</mgrwt>
</event>
