<event>
 5    0  0.2744554E+000  0.2382273E+03  0.7546771E-02  0.1120979E+00
         21   -1    0    0  502  501  0.00000000000E+00  0.00000000000E+00  0.16189255941E+03  0.16189255941E+03  0.00000000000E+00 0.  1.
         21   -1    0    0  503  502 -0.00000000000E+00 -0.00000000000E+00 -0.37519673736E+03  0.37519673736E+03  0.00000000000E+00 0.  1.
         25    1    1    2    0    0 -0.20127941982E+02 -0.20179720006E+03 -0.41938291183E+01  0.23826420672E+03  0.12500000000E+03 0.  0.
         21    1    1    2  503  504  0.15050778423E+02  0.35096203890E+02 -0.10754959828E+02  0.39672895275E+02  0.00000000000E+00 0.  1.
         21    1    1    2  504  501  0.50771635594E+01  0.16670099617E+03 -0.19835538901E+03  0.25915219478E+03  0.00000000000E+00 0.  1.
<mgrwt>
<rscale>  4 0.23822729E+03</rscale>
<asrwt>0</asrwt>
<pdfrwt beam="1">  1       21 0.24906548E-01 0.23822729E+03</pdfrwt>
<pdfrwt beam="2">  1       21 0.57722574E-01 0.23822729E+03</pdfrwt>
<totfact> 0.42019160E+04</totfact>
</mgrwt>
</event>
<event>
 5    0  0.1856407E+000  0.4560878E+03  0.7546771E-02  0.1025922E+00
         21   -1    0    0  502  501  0.00000000000E+00  0.00000000000E+00  0.86418210171E+03  0.86418210171E+03  0.00000000000E+00 0. -1.
         21   -1    0    0  503  502 -0.00000000000E+00 -0.00000000000E+00 -0.29345022734E+03  0.29345022734E+03  0.00000000000E+00 0.  1.
         25    1    1    2    0    0  0.78849148818E+01  0.46981695563E+03  0.19982500186E+03  0.52568543355E+03  0.12500000000E+03 0.  0.
         21    1    1    2  503  504  0.32257849742E+01 -0.60255702293E+02  0.16028587773E+03  0.17126797117E+03  0.00000000000E+00 0.  1.
         21    1    1    2  504  501 -0.11110699856E+02 -0.40956125334E+03  0.21062099478E+03  0.46067892434E+03  0.00000000000E+00 0.  1.
<mgrwt>
<rscale>  4 0.45608776E+03</rscale>
<asrwt>0</asrwt>
<pdfrwt beam="1">  1       21 0.13295109E+00 0.45608776E+03</pdfrwt>
<pdfrwt beam="2">  1       21 0.45146189E-01 0.45608776E+03</pdfrwt>
<totfact> 0.16408616E+03</totfact>
</mgrwt>
</event>
<event>
 5    0  0.1856407E+000  0.3616273E+03  0.7546771E-02  0.1057941E+00
         21   -1    0    0  502  501  0.00000000000E+00  0.00000000000E+00  0.46214154180E+03  0.46214154180E+03  0.00000000000E+00 0. -1.
         21   -1    0    0  503  502 -0.00000000000E+00 -0.00000000000E+00 -0.61679668667E+03  0.61679668667E+03  0.00000000000E+00 0. -1.
         25    1    1    2    0    0 -0.20737613606E+03  0.27831074570E+03  0.30160168211E+03  0.47649796183E+03  0.12500000000E+03 0.  0.
         21    1    1    2  503  504  0.21382324195E+02  0.42966783073E+01  0.11889791466E+02  0.24840136343E+02  0.00000000000E+00 0. -1.
         21    1    1    2  504  501  0.18599381187E+03 -0.28260742401E+03 -0.46814661844E+03  0.57760013029E+03  0.00000000000E+00 0. -1.
<mgrwt>
<rscale>  4 0.36162727E+03</rscale>
<asrwt>0</asrwt>
<pdfrwt beam="1">  1       21 0.71098699E-01 0.36162727E+03</pdfrwt>
<pdfrwt beam="2">  1       21 0.94891798E-01 0.36162727E+03</pdfrwt>
<totfact> 0.14814781E+03</totfact>
</mgrwt>
</event>
<event>
 5    0  0.1856407E+000  0.2428673E+03  0.7546771E-02  0.1117897E+00
         21   -1    0    0  502  501  0.00000000000E+00  0.00000000000E+00  0.28930059865E+04  0.28930059865E+04  0.00000000000E+00 0. -1.
         21   -1    0    0  503  502 -0.00000000000E+00 -0.00000000000E+00 -0.11061649309E+03  0.11061649309E+03  0.00000000000E+00 0. -1.
         25    1    1    2    0    0 -0.14366710369E+03  0.15505350634E+03  0.27627973661E+04  0.27736899814E+04  0.12500000000E+03 0.  0.
         21    1    1    2  503  504  0.11629668021E+03 -0.12581541026E+03  0.51303969004E+02  0.17884779150E+03  0.00000000000E+00 0. -1.
         21    1    1    2  504  501  0.27370423473E+02 -0.29238096077E+02 -0.31711841788E+02  0.51084706644E+02  0.00000000000E+00 0. -1.
<mgrwt>
<rscale>  4 0.24286733E+03</rscale>
<asrwt>0</asrwt>
<pdfrwt beam="1">  1       21 0.44507778E+00 0.24286733E+03</pdfrwt>
<pdfrwt beam="2">  1       21 0.17017924E-01 0.24286733E+03</pdfrwt>
<totfact> 0.12866513E+02</totfact>
</mgrwt>
</event>
<event>
 5    0  0.1856407E+000  0.2579394E+03  0.7546771E-02  0.1108388E+00
         21   -1    0    0  502  501  0.00000000000E+00  0.00000000000E+00  0.23323613359E+03  0.23323613359E+03  0.00000000000E+00 0. -1.
         21   -1    0    0  503  502 -0.00000000000E+00 -0.00000000000E+00 -0.97704086772E+03  0.97704086772E+03  0.00000000000E+00 0.  1.
         25    1    1    2    0    0  0.20548474157E+03  0.10015794887E+03  0.13316886125E+03  0.29259962294E+03  0.12500000000E+03 0.  0.
         21    1    1    2  503  504 -0.16107339777E+03 -0.11301183455E+03 -0.82489192907E+03  0.84803479225E+03  0.00000000000E+00 0.  1.
         21    1    1    2  504  501 -0.44411343804E+02  0.12853885673E+02 -0.52081666303E+02  0.69642586111E+02  0.00000000000E+00 0.  1.
<mgrwt>
<rscale>  4 0.25793944E+03</rscale>
<asrwt>0</asrwt>
<pdfrwt beam="1">  1       21 0.35882482E-01 0.25793944E+03</pdfrwt>
<pdfrwt beam="2">  1       21 0.15031398E+00 0.25793944E+03</pdfrwt>
<totfact> 0.21080612E+03</totfact>
</mgrwt>
</event>
<event>
 5    0  0.1856407E+000  0.3455890E+03  0.7546771E-02  0.1064440E+00
         21   -1    0    0  502  501  0.00000000000E+00  0.00000000000E+00  0.39617697217E+03  0.39617697217E+03  0.00000000000E+00 0.  1.
         21   -1    0    0  503  502 -0.00000000000E+00 -0.00000000000E+00 -0.13129258097E+04  0.13129258097E+04  0.00000000000E+00 0. -1.
         25    1    1    2    0    0  0.22230024817E+03  0.23321519757E+03  0.29441827281E+03  0.45399763004E+03  0.12500000000E+03 0.  0.
         21    1    1    2  503  504 -0.17721157556E+03 -0.14303812379E+03 -0.87437124162E+03  0.90354242598E+03  0.00000000000E+00 0. -1.
         21    1    1    2  504  501 -0.45088672609E+02 -0.90177073784E+02 -0.33679586875E+03  0.35156272590E+03  0.00000000000E+00 0. -1.
<mgrwt>
<rscale>  4 0.34558896E+03</rscale>
<asrwt>0</asrwt>
<pdfrwt beam="1">  1       21 0.60950303E-01 0.34558896E+03</pdfrwt>
<pdfrwt beam="2">  1       21 0.20198859E+00 0.34558896E+03</pdfrwt>
<totfact> 0.28266034E+02</totfact>
</mgrwt>
</event>
<event>
 5    0  0.1856407E+000  0.2597665E+03  0.7546771E-02  0.1107284E+00
         21   -1    0    0  502  501  0.00000000000E+00  0.00000000000E+00  0.91934703561E+03  0.91934703561E+03  0.00000000000E+00 0.  1.
         21   -1    0    0  503  502 -0.00000000000E+00 -0.00000000000E+00 -0.15072007817E+03  0.15072007817E+03  0.00000000000E+00 0. -1.
         25    1    1    2    0    0 -0.56209519040E+02  0.24212057224E+03  0.72799596796E+03  0.77934909437E+03  0.12500000000E+03 0.  0.
         21    1    1    2  503  504  0.97629819989E+02 -0.15362607921E+03  0.58901155784E+02  0.19131623067E+03  0.00000000000E+00 0.  1.
         21    1    1    2  504  501 -0.41420300949E+02 -0.88494493036E+02 -0.18270166301E+02  0.99401788742E+02  0.00000000000E+00 0. -1.
<mgrwt>
<rscale>  4 0.25976651E+03</rscale>
<asrwt>0</asrwt>
<pdfrwt beam="1">  1       21 0.14143800E+00 0.25976651E+03</pdfrwt>
<pdfrwt beam="2">  1       21 0.23187705E-01 0.25976651E+03</pdfrwt>
<totfact> 0.58049950E+03</totfact>
</mgrwt>
</event>
<event>
 5    0  0.1856407E+000  0.3042589E+03  0.7546771E-02  0.1083131E+00
         21   -1    0    0  502  501  0.00000000000E+00  0.00000000000E+00  0.67680915012E+02  0.67680915012E+02  0.00000000000E+00 0.  1.
         21   -1    0    0  503  502 -0.00000000000E+00 -0.00000000000E+00 -0.14439971226E+04  0.14439971226E+04  0.00000000000E+00 0.  1.
         25    1    1    2    0    0  0.19243312731E+03 -0.19979475044E+03 -0.95152238263E+03  0.99898363122E+03  0.12500000000E+03 0.  0.
         21    1    1    2  503  504 -0.31643636755E+02  0.49676260488E+02 -0.14694404841E+03  0.15830857200E+03  0.00000000000E+00 0.  1.
         21    1    1    2  504  501 -0.16078949056E+03  0.15011848995E+03 -0.27784977654E+03  0.35438583440E+03  0.00000000000E+00 0.  1.
<mgrwt>
<rscale>  4 0.30425885E+03</rscale>
<asrwt>0</asrwt>
<pdfrwt beam="1">  1       21 0.10412449E-01 0.30425885E+03</pdfrwt>
<pdfrwt beam="2">  1       21 0.22215340E+00 0.30425885E+03</pdfrwt>
<totfact> 0.67822425E+03</totfact>
</mgrwt>
</event>
