<event>
 5    0  0.1911311E+001  0.3872540E+03  0.7546771E-02  0.1048285E+00
         21   -1    0    0  502  501  0.00000000000E+00  0.00000000000E+00  0.18741782505E+04  0.18741782505E+04  0.00000000000E+00 0. -1.
         21   -1    0    0  504  502 -0.00000000000E+00 -0.00000000000E+00 -0.14849725249E+03  0.14849725249E+03  0.00000000000E+00 0. -1.
         25    1    1    2    0    0  0.32168652015E+03  0.16598922254E+03  0.29796945420E+03  0.48522719924E+03  0.12500000000E+03 0.  0.
         21    1    1    2  503  501  0.18387153000E+02 -0.99133586839E+01  0.84300793264E+03  0.84326670548E+03  0.00000000000E+00 0.  1.
         21    1    1    2  504  503 -0.34007367315E+03 -0.15607586386E+03  0.58470361113E+03  0.69418159823E+03  0.00000000000E+00 0. -1.
<mgrwt>
<rscale>  4 0.38725404E+03</rscale>
<asrwt>0</asrwt>
<pdfrwt beam="1">  1       21 0.28833510E+00 0.38725404E+03</pdfrwt>
<pdfrwt beam="2">  1       21 0.22845733E-01 0.38725404E+03</pdfrwt>
<totfact> 0.59675048E+02</totfact>
</mgrwt>
</event>
<event>
 5    0  0.1911311E+001  0.2275089E+03  0.7546771E-02  0.1128406E+00
         21   -1    0    0  504  501  0.00000000000E+00  0.00000000000E+00  0.70887074424E+03  0.70887074424E+03  0.00000000000E+00 0.  1.
         21   -1    0    0  503  502 -0.00000000000E+00 -0.00000000000E+00 -0.57548755706E+03  0.57548755706E+03  0.00000000000E+00 0.  1.
         25    1    1    2    0    0  0.21745186559E+03  0.95900427823E+02  0.54489085842E+03  0.60746461090E+03  0.12500000000E+03 0.  0.
         21    1    1    2  503  501 -0.17733462201E+03 -0.64622185945E+02 -0.52209700075E+03  0.55516562688E+03  0.00000000000E+00 0.  1.
         21    1    1    2  504  502 -0.40117243589E+02 -0.31278241877E+02  0.11058932951E+03  0.12172806352E+03  0.00000000000E+00 0.  1.
<mgrwt>
<rscale>  4 0.22750889E+03</rscale>
<asrwt>0</asrwt>
<pdfrwt beam="1">  1       21 0.10905704E+00 0.22750889E+03</pdfrwt>
<pdfrwt beam="2">  1       21 0.88536548E-01 0.22750889E+03</pdfrwt>
<totfact> 0.70273774E+02</totfact>
</mgrwt>
</event>
<event>
 5    0  0.2553409E+001  0.2608855E+03  0.7546771E-02  0.1106612E+00
         21   -1    0    0  504  501  0.00000000000E+00  0.00000000000E+00  0.35353048797E+03  0.35353048797E+03  0.00000000000E+00 0.  1.
         21   -1    0    0  503  502 -0.00000000000E+00 -0.00000000000E+00 -0.32903738527E+03  0.32903738527E+03  0.00000000000E+00 0. -1.
         25    1    1    2    0    0 -0.13864730263E+03 -0.16962660462E+03 -0.17313652684E+03  0.30593711192E+03  0.12500000000E+03 0.  0.
         21    1    1    2  503  501  0.29556971091E+02 -0.34815625092E+02 -0.27698023807E+02  0.53412758901E+02  0.00000000000E+00 0.  1.
         21    1    1    2  504  502  0.10909033154E+03  0.20444222971E+03  0.22532765335E+03  0.32321800242E+03  0.00000000000E+00 0.  1.
<mgrwt>
<rscale>  4 0.26088545E+03</rscale>
<asrwt>0</asrwt>
<pdfrwt beam="1">  1       21 0.54389306E-01 0.26088545E+03</pdfrwt>
<pdfrwt beam="2">  1       21 0.50621136E-01 0.26088545E+03</pdfrwt>
<totfact> 0.11388831E+04</totfact>
</mgrwt>
</event>
<event>
 5    0  0.1911311E+001  0.3055735E+03  0.7546771E-02  0.1082487E+00
         21   -1    0    0  503  501  0.00000000000E+00  0.00000000000E+00  0.12851449704E+03  0.12851449704E+03  0.00000000000E+00 0.  1.
         21   -1    0    0  501  502 -0.00000000000E+00 -0.00000000000E+00 -0.11287608618E+04  0.11287608618E+04  0.00000000000E+00 0. -1.
         25    1    1    2    0    0  0.18451739699E+02  0.20870107155E+03 -0.11825301612E+03  0.27111875587E+03  0.12500000000E+03 0.  0.
         21    1    1    2  503  504 -0.91356154975E+02 -0.29333836548E+03 -0.76503877368E+03  0.82442566005E+03  0.00000000000E+00 0. -1.
         21    1    1    2  504  502  0.72904415276E+02  0.84637293934E+02 -0.11695457494E+03  0.16173094290E+03  0.00000000000E+00 0.  1.
<mgrwt>
<rscale>  4 0.30557348E+03</rscale>
<asrwt>0</asrwt>
<pdfrwt beam="1">  1       21 0.19771462E-01 0.30557348E+03</pdfrwt>
<pdfrwt beam="2">  1       21 0.17365551E+00 0.30557348E+03</pdfrwt>
<totfact> 0.43769255E+03</totfact>
</mgrwt>
</event>
