<event>
 5    0  0.4115852E+000  0.2477481E+03  0.7546771E-02  0.1114736E+00
         21   -1    0    0  503  502  0.00000000000E+00  0.00000000000E+00  0.49212372240E+02  0.49212372240E+02  0.00000000000E+00 0. -1.
          2   -1    0    0  502    0 -0.00000000000E+00 -0.00000000000E+00 -0.31166568447E+04  0.31166568447E+04  0.00000000000E+00 0. -1.
         25    1    1    2    0    0  0.96025709172E+02 -0.25677965993E+03 -0.13719860171E+04  0.14046805194E+04  0.12500000000E+03 0.  0.
         21    1    1    2  503  501 -0.19910387224E+03  0.81406189087E+02 -0.44464748525E+03  0.49394403095E+03  0.00000000000E+00 0. -1.
          2    1    1    2  501    0  0.10307816307E+03  0.17537347084E+03 -0.12508109701E+04  0.12672446666E+04  0.00000000000E+00 0. -1.
<mgrwt>
<rscale>  4 0.24774806E+03</rscale>
<asrwt>0</asrwt>
<pdfrwt beam="1">  1       21 0.75711355E-02 0.24774806E+03</pdfrwt>
<pdfrwt beam="2">  1        2 0.47948559E+00 0.24774806E+03</pdfrwt>
<totfact> 0.29923673E+03</totfact>
</mgrwt>
</event>
<event>
 5    0  0.4115852E+000  0.2875728E+03  0.7546771E-02  0.1091623E+00
         -4   -1    0    0    0  501 -0.00000000000E+00  0.00000000000E+00  0.75220963883E+03  0.75220963883E+03  0.00000000000E+00 0.  1.
         21   -1    0    0  501  502  0.00000000000E+00 -0.00000000000E+00 -0.19350646874E+03  0.19350646874E+03  0.00000000000E+00 0.  1.
         25    1    1    2    0    0  0.20022863365E+03  0.16120571564E+03  0.14397407601E+03  0.32005050078E+03  0.12500000000E+03 0.  0.
         21    1    1    2  503  502 -0.16571535804E+03 -0.20393769900E+03  0.63731197440E+02  0.27039569245E+03  0.00000000000E+00 0.  1.
         -4    1    1    2    0  503 -0.34513275604E+02  0.42731983365E+02  0.35099789664E+03  0.35526991435E+03  0.00000000000E+00 0.  1.
<mgrwt>
<rscale>  4 0.28757280E+03</rscale>
<asrwt>0</asrwt>
<pdfrwt beam="1">  1       21 0.29770226E-01 0.28757280E+03</pdfrwt>
<pdfrwt beam="2">  1       -4 0.11572456E+00 0.28757280E+03</pdfrwt>
<totfact> 0.27221753E+02</totfact>
</mgrwt>
</event>
<event>
 5    0  0.4115852E+000  0.3829178E+03  0.7546771E-02  0.1049861E+00
         21   -1    0    0  503  502  0.00000000000E+00  0.00000000000E+00  0.43559275367E+03  0.43559275367E+03  0.00000000000E+00 0.  1.
          1   -1    0    0  502    0 -0.00000000000E+00 -0.00000000000E+00 -0.59599069767E+03  0.59599069767E+03  0.00000000000E+00 0. -1.
         25    1    1    2    0    0  0.35002383241E+03  0.11872829051E+03  0.22101278603E+03  0.44842473372E+03  0.12500000000E+03 0.  0.
         21    1    1    2  503  501 -0.16518157229E+02  0.18152730999E+02  0.28276651053E+02  0.37442491313E+02  0.00000000000E+00 0.  1.
          1    1    1    2  501    0 -0.33350567518E+03 -0.13688102151E+03 -0.40968738109E+03  0.54571622631E+03  0.00000000000E+00 0. -1.
<mgrwt>
<rscale>  4 0.38291784E+03</rscale>
<asrwt>0</asrwt>
<pdfrwt beam="1">  1       21 0.67014269E-01 0.38291784E+03</pdfrwt>
<pdfrwt beam="2">  1        1 0.91690877E-01 0.38291784E+03</pdfrwt>
<totfact> 0.74417315E+02</totfact>
</mgrwt>
</event>
<event>
 5    0  0.4115852E+000  0.2329363E+03  0.7546771E-02  0.1124590E+00
         21   -1    0    0  503  502  0.00000000000E+00  0.00000000000E+00  0.85977286172E+02  0.85977286172E+02  0.00000000000E+00 0. -1.
          2   -1    0    0  502    0 -0.00000000000E+00 -0.00000000000E+00 -0.82384962214E+03  0.82384962214E+03  0.00000000000E+00 0. -1.
         25    1    1    2    0    0 -0.72257519120E+02  0.20041676804E+03 -0.21384545138E+03  0.32671533031E+03  0.12500000000E+03 0.  0.
         21    1    1    2  503  501 -0.31115841430E+02 -0.38162623091E+02 -0.44258680869E+02  0.66207342654E+02  0.00000000000E+00 0. -1.
          2    1    1    2  501    0  0.10337336055E+03 -0.16225414495E+03 -0.47976820372E+03  0.51690423535E+03  0.00000000000E+00 0. -1.
<mgrwt>
<rscale>  4 0.23293627E+03</rscale>
<asrwt>0</asrwt>
<pdfrwt beam="1">  1       21 0.13227274E-01 0.23293627E+03</pdfrwt>
<pdfrwt beam="2">  1        2 0.12674610E+00 0.23293627E+03</pdfrwt>
<totfact> 0.21135957E+04</totfact>
</mgrwt>
</event>
<event>
 5    0  0.4115852E+000  0.2273636E+03  0.7546771E-02  0.1128509E+00
         21   -1    0    0  503  502  0.00000000000E+00  0.00000000000E+00  0.60474871186E+03  0.60474871186E+03  0.00000000000E+00 0.  1.
          1   -1    0    0  502    0 -0.00000000000E+00 -0.00000000000E+00 -0.11023486596E+04  0.11023486596E+04  0.00000000000E+00 0.  1.
         25    1    1    2    0    0 -0.20486732814E+03  0.88484034567E+02  0.27038640076E+03  0.37220135979E+03  0.12500000000E+03 0.  0.
         21    1    1    2  503  501  0.20991451615E+02 -0.44249987565E+02  0.27275170500E+03  0.27711404696E+03  0.00000000000E+00 0.  1.
          1    1    1    2  501    0  0.18387587653E+03 -0.44234047002E+02 -0.10407380535E+04  0.10577819647E+04  0.00000000000E+00 0.  1.
<mgrwt>
<rscale>  4 0.22736360E+03</rscale>
<asrwt>0</asrwt>
<pdfrwt beam="1">  1       21 0.93038264E-01 0.22736360E+03</pdfrwt>
<pdfrwt beam="2">  1        1 0.16959210E+00 0.22736360E+03</pdfrwt>
<totfact> 0.14328272E+02</totfact>
</mgrwt>
</event>
<event>
 5    0  0.4115852E+000  0.3030222E+03  0.7546771E-02  0.1083740E+00
         21   -1    0    0  503  502  0.00000000000E+00  0.00000000000E+00  0.19825709243E+03  0.19825709243E+03  0.00000000000E+00 0.  1.
          2   -1    0    0  502    0 -0.00000000000E+00 -0.00000000000E+00 -0.13710551703E+04  0.13710551703E+04  0.00000000000E+00 0. -1.
         25    1    1    2    0    0  0.74221970664E+02 -0.24412343327E+03 -0.46930421728E+03  0.54861334286E+03  0.12500000000E+03 0.  0.
         21    1    1    2  503  501 -0.28536222778E+02 -0.42156052426E+02  0.12926201780E+03  0.13892486463E+03  0.00000000000E+00 0.  1.
          2    1    1    2  501    0 -0.45685747886E+02  0.28627948570E+03 -0.83275587835E+03  0.88177405520E+03  0.00000000000E+00 0. -1.
<mgrwt>
<rscale>  4 0.30302224E+03</rscale>
<asrwt>0</asrwt>
<pdfrwt beam="1">  1       21 0.30501093E-01 0.30302224E+03</pdfrwt>
<pdfrwt beam="2">  1        2 0.21093155E+00 0.30302224E+03</pdfrwt>
<totfact> 0.20202034E+03</totfact>
</mgrwt>
</event>
<event>
 5    0  0.4115852E+000  0.2672043E+03  0.7546771E-02  0.1102890E+00
          2   -1    0    0  502    0 -0.00000000000E+00  0.00000000000E+00  0.17250970384E+04  0.17250970384E+04  0.00000000000E+00 0. -1.
         21   -1    0    0  503  502  0.00000000000E+00 -0.00000000000E+00 -0.21915613285E+03  0.21915613285E+03  0.00000000000E+00 0. -1.
         25    1    1    2    0    0 -0.16430934838E+03  0.15443575287E+03  0.80335536813E+03  0.84371370217E+03  0.12500000000E+03 0.  0.
         21    1    1    2  503  501  0.13565662788E+02  0.40505665179E+02 -0.17958574268E+03  0.18459624886E+03  0.00000000000E+00 0. -1.
          2    1    1    2  501    0  0.15074368559E+03 -0.19494141805E+03  0.88217128013E+03  0.91594322024E+03  0.00000000000E+00 0. -1.
<mgrwt>
<rscale>  4 0.26720428E+03</rscale>
<asrwt>0</asrwt>
<pdfrwt beam="1">  1       21 0.33716329E-01 0.26720428E+03</pdfrwt>
<pdfrwt beam="2">  1        2 0.26539953E+00 0.26720428E+03</pdfrwt>
<totfact> 0.10863075E+03</totfact>
</mgrwt>
</event>
<event>
 5    0  0.4115852E+000  0.3273005E+03  0.7546771E-02  0.1072338E+00
         21   -1    0    0  503  502  0.00000000000E+00  0.00000000000E+00  0.41659096475E+03  0.41659096475E+03  0.00000000000E+00 0. -1.
          1   -1    0    0  502    0 -0.00000000000E+00 -0.00000000000E+00 -0.14014270869E+04  0.14014270869E+04  0.00000000000E+00 0.  1.
         25    1    1    2    0    0  0.19084479777E+03  0.11199073043E+03  0.41295834338E+02  0.25747622506E+03  0.12500000000E+03 0.  0.
         21    1    1    2  503  501  0.13952241259E+02  0.12661344494E+03  0.23148131023E+03  0.26421435703E+03  0.00000000000E+00 0. -1.
          1    1    1    2  501    0 -0.20479703903E+03 -0.23860417537E+03 -0.12576132667E+04  0.12963274696E+04  0.00000000000E+00 0.  1.
<mgrwt>
<rscale>  4 0.32730053E+03</rscale>
<asrwt>0</asrwt>
<pdfrwt beam="1">  1       21 0.64090917E-01 0.32730053E+03</pdfrwt>
<pdfrwt beam="2">  1        1 0.21560417E+00 0.32730053E+03</pdfrwt>
<totfact> 0.19507726E+02</totfact>
</mgrwt>
</event>
<event>
 5    0  0.4115852E+000  0.2715349E+03  0.7546771E-02  0.1100404E+00
         21   -1    0    0  501  502  0.00000000000E+00  0.00000000000E+00  0.12598513731E+04  0.12598513731E+04  0.00000000000E+00 0. -1.
         -4   -1    0    0    0  501 -0.00000000000E+00 -0.00000000000E+00 -0.69817824526E+03  0.69817824526E+03  0.00000000000E+00 0.  1.
         25    1    1    2    0    0 -0.19266201063E+03  0.14415974398E+03  0.11878758996E+04  0.12184313009E+04  0.12500000000E+03 0.  0.
         21    1    1    2  503  502  0.17866917530E+02  0.54891786191E+02  0.20678787126E+01  0.57763405852E+02  0.00000000000E+00 0.  1.
         -4    1    1    2    0  503  0.17479509310E+03 -0.19905153017E+03 -0.62827065056E+03  0.68183491154E+03  0.00000000000E+00 0.  1.
<mgrwt>
<rscale>  4 0.27153491E+03</rscale>
<asrwt>0</asrwt>
<pdfrwt beam="1">  1       21 0.19382329E+00 0.27153491E+03</pdfrwt>
<pdfrwt beam="2">  1       -4 0.10741204E+00 0.27153491E+03</pdfrwt>
<totfact> 0.42450210E+00</totfact>
</mgrwt>
</event>
<event>
 5    0  0.4115852E+000  0.2882278E+03  0.7546771E-02  0.1091278E+00
         21   -1    0    0  503  502  0.00000000000E+00  0.00000000000E+00  0.19317992201E+03  0.19317992201E+03  0.00000000000E+00 0. -1.
          2   -1    0    0  502    0 -0.00000000000E+00 -0.00000000000E+00 -0.83703102662E+03  0.83703102662E+03  0.00000000000E+00 0.  1.
         25    1    1    2    0    0 -0.64109450153E+01  0.20343182112E+03  0.46571384510E+02  0.24335056999E+03  0.12500000000E+03 0.  0.
         21    1    1    2  503  501 -0.51182461714E+02  0.61440447442E+02 -0.57968210185E+02  0.98766828242E+02  0.00000000000E+00 0. -1.
          2    1    1    2  501    0  0.57593406729E+02 -0.26487226856E+03 -0.63245427893E+03  0.68809355039E+03  0.00000000000E+00 0.  1.
<mgrwt>
<rscale>  4 0.28822785E+03</rscale>
<asrwt>0</asrwt>
<pdfrwt beam="1">  1       21 0.29719988E-01 0.28822785E+03</pdfrwt>
<pdfrwt beam="2">  1        2 0.12877401E+00 0.28822785E+03</pdfrwt>
<totfact> 0.44559086E+03</totfact>
</mgrwt>
</event>
<event>
 5    0  0.4115852E+000  0.2635295E+03  0.7546771E-02  0.1105041E+00
         21   -1    0    0  503  502  0.00000000000E+00  0.00000000000E+00  0.11847701697E+03  0.11847701697E+03  0.00000000000E+00 0.  1.
          2   -1    0    0  502    0 -0.00000000000E+00 -0.00000000000E+00 -0.61739198796E+03  0.61739198796E+03  0.00000000000E+00 0.  1.
         25    1    1    2    0    0 -0.21912692819E+03  0.43920875507E+02 -0.24375605031E+03  0.35353594729E+03  0.12500000000E+03 0.  0.
         21    1    1    2  503  501 -0.68182523902E+01  0.41728235095E+02 -0.28181510038E+02  0.50812711774E+02  0.00000000000E+00 0. -1.
          2    1    1    2  501    0  0.22594518058E+03 -0.85649110602E+02 -0.22697741065E+03  0.33152034586E+03  0.00000000000E+00 0.  1.
<mgrwt>
<rscale>  4 0.26352948E+03</rscale>
<asrwt>0</asrwt>
<pdfrwt beam="1">  1       21 0.18227233E-01 0.26352948E+03</pdfrwt>
<pdfrwt beam="2">  1        2 0.94983384E-01 0.26352948E+03</pdfrwt>
<totfact> 0.16615824E+04</totfact>
</mgrwt>
</event>
<event>
 5    0  0.4115852E+000  0.2213204E+03  0.7546771E-02  0.1132902E+00
         21   -1    0    0  503  502  0.00000000000E+00  0.00000000000E+00  0.13402396260E+03  0.13402396260E+03  0.00000000000E+00 0.  1.
          1   -1    0    0  502    0 -0.00000000000E+00 -0.00000000000E+00 -0.19445562913E+04  0.19445562913E+04  0.00000000000E+00 0.  1.
         25    1    1    2    0    0  0.29241245642E+02 -0.22782692773E+03 -0.10879898335E+04  0.11189758877E+04  0.12500000000E+03 0.  0.
         21    1    1    2  503  501 -0.13181531858E+02  0.17925004392E+03  0.49058448756E+02  0.18630905083E+03  0.00000000000E+00 0.  1.
          1    1    1    2  501    0 -0.16059713783E+02  0.48576883811E+02 -0.77160094400E+03  0.77329531541E+03  0.00000000000E+00 0.  1.
<mgrwt>
<rscale>  4 0.22132037E+03</rscale>
<asrwt>0</asrwt>
<pdfrwt beam="1">  1       21 0.20619070E-01 0.22132037E+03</pdfrwt>
<pdfrwt beam="2">  1        1 0.29916252E+00 0.22132037E+03</pdfrwt>
<totfact> 0.89761774E+02</totfact>
</mgrwt>
</event>
<event>
 5    0  0.4115852E+000  0.3803304E+03  0.7546771E-02  0.1050812E+00
         21   -1    0    0  503  502  0.00000000000E+00  0.00000000000E+00  0.32470677006E+03  0.32470677006E+03  0.00000000000E+00 0.  1.
          2   -1    0    0  502    0 -0.00000000000E+00 -0.00000000000E+00 -0.22697960406E+04  0.22697960406E+04  0.00000000000E+00 0.  1.
         25    1    1    2    0    0  0.40396974387E+03  0.17616101488E+03 -0.82938397221E+03  0.94748458061E+03  0.12500000000E+03 0.  0.
         21    1    1    2  503  501 -0.15972785577E+03  0.55618771199E+02  0.21546733220E+03  0.27392080400E+03  0.00000000000E+00 0.  1.
          2    1    1    2  501    0 -0.24424188810E+03 -0.23177978608E+03 -0.13311726305E+04  0.13730974260E+04  0.00000000000E+00 0.  1.
<mgrwt>
<rscale>  4 0.38033040E+03</rscale>
<asrwt>0</asrwt>
<pdfrwt beam="1">  1       21 0.49954889E-01 0.38033040E+03</pdfrwt>
<pdfrwt beam="2">  1        2 0.34919938E+00 0.38033040E+03</pdfrwt>
<totfact> 0.23607712E+02</totfact>
</mgrwt>
</event>
<event>
 5    0  0.4115852E+000  0.2134293E+03  0.7546771E-02  0.1138879E+00
          2   -1    0    0  502    0 -0.00000000000E+00  0.00000000000E+00  0.81976286770E+03  0.81976286770E+03  0.00000000000E+00 0.  1.
         21   -1    0    0  503  502  0.00000000000E+00 -0.00000000000E+00 -0.15030716030E+03  0.15030716030E+03  0.00000000000E+00 0. -1.
         25    1    1    2    0    0  0.24150441995E+03  0.20135028291E+02  0.53703992631E+02  0.27791891451E+03  0.12500000000E+03 0.  0.
         21    1    1    2  503  501 -0.76768538126E+02 -0.51904914080E+00  0.28457758987E+02  0.81875038348E+02  0.00000000000E+00 0. -1.
          2    1    1    2  501    0 -0.16473588182E+03 -0.19615979151E+02  0.58729395578E+03  0.61027607515E+03  0.00000000000E+00 0.  1.
<mgrwt>
<rscale>  4 0.21342926E+03</rscale>
<asrwt>0</asrwt>
<pdfrwt beam="1">  1       21 0.23124179E-01 0.21342926E+03</pdfrwt>
<pdfrwt beam="2">  1        2 0.12611736E+00 0.21342926E+03</pdfrwt>
<totfact> 0.75932326E+03</totfact>
</mgrwt>
</event>
<event>
 5    0  0.4115852E+000  0.3487619E+03  0.7546771E-02  0.1063124E+00
         -2   -1    0    0    0  501 -0.00000000000E+00  0.00000000000E+00  0.25730157787E+03  0.25730157787E+03  0.00000000000E+00 0.  1.
         21   -1    0    0  501  502  0.00000000000E+00 -0.00000000000E+00 -0.98480941461E+03  0.98480941461E+03  0.00000000000E+00 0.  1.
         25    1    1    2    0    0  0.10748787261E+03 -0.28620236684E+03 -0.54899745866E+03  0.64069387944E+03  0.12500000000E+03 0.  0.
         21    1    1    2  503  502 -0.62008142717E+01 -0.27836927080E+02 -0.25997964326E+03  0.26153921219E+03  0.00000000000E+00 0.  1.
         -2    1    1    2    0  503 -0.10128705834E+03  0.31403929392E+03  0.81469265172E+02  0.33987790084E+03  0.00000000000E+00 0.  1.
<mgrwt>
<rscale>  4 0.34876192E+03</rscale>
<asrwt>0</asrwt>
<pdfrwt beam="1">  1       21 0.15150914E+00 0.34876192E+03</pdfrwt>
<pdfrwt beam="2">  1       -2 0.39584858E-01 0.34876192E+03</pdfrwt>
<totfact> 0.13177697E+02</totfact>
</mgrwt>
</event>
<event>
 5    0  0.4115852E+000  0.3311066E+03  0.7546771E-02  0.1070648E+00
          2   -1    0    0  502    0 -0.00000000000E+00  0.00000000000E+00  0.34358088744E+03  0.34358088744E+03  0.00000000000E+00 0.  1.
         21   -1    0    0  503  502  0.00000000000E+00 -0.00000000000E+00 -0.44001374571E+03  0.44001374571E+03  0.00000000000E+00 0.  1.
         25    1    1    2    0    0  0.29753617556E+03 -0.15751937701E+03 -0.16655359498E+03  0.39586011406E+03  0.12500000000E+03 0.  0.
         21    1    1    2  503  501 -0.51438185730E+02 -0.74399069163E+01 -0.46111561950E+02  0.69480323197E+02  0.00000000000E+00 0.  1.
          2    1    1    2  501    0 -0.24609798983E+03  0.16495928393E+03  0.11623229866E+03  0.31825419589E+03  0.00000000000E+00 0.  1.
<mgrwt>
<rscale>  4 0.33110665E+03</rscale>
<asrwt>0</asrwt>
<pdfrwt beam="1">  1       21 0.67694422E-01 0.33110665E+03</pdfrwt>
<pdfrwt beam="2">  1        2 0.52858598E-01 0.33110665E+03</pdfrwt>
<totfact> 0.22358452E+03</totfact>
</mgrwt>
</event>
<event>
 5    0  0.4115852E+000  0.2973402E+03  0.7546771E-02  0.1086578E+00
          2   -1    0    0  502    0 -0.00000000000E+00  0.00000000000E+00  0.16499319491E+04  0.16499319491E+04  0.00000000000E+00 0. -1.
         21   -1    0    0  503  502  0.00000000000E+00 -0.00000000000E+00 -0.26430561377E+03  0.26430561377E+03  0.00000000000E+00 0. -1.
         25    1    1    2    0    0 -0.28065177994E+02 -0.28728946896E+03 -0.39130080893E+02  0.31698431574E+03  0.12500000000E+03 0.  0.
         21    1    1    2  503  501  0.42923824574E+02  0.18972497999E+02 -0.66824956046E+02  0.81657731703E+02  0.00000000000E+00 0. -1.
          2    1    1    2  501    0 -0.14858646580E+02  0.26831697096E+03  0.14915813723E+04  0.15155955154E+04  0.00000000000E+00 0. -1.
<mgrwt>
<rscale>  4 0.29734016E+03</rscale>
<asrwt>0</asrwt>
<pdfrwt beam="1">  1       21 0.40662403E-01 0.29734016E+03</pdfrwt>
<pdfrwt beam="2">  1        2 0.25383568E+00 0.29734016E+03</pdfrwt>
<totfact> 0.80426134E+02</totfact>
</mgrwt>
</event>
<event>
 5    0  0.4115852E+000  0.8127968E+03  0.7546771E-02  0.9541677E-01
          1   -1    0    0  502    0 -0.00000000000E+00  0.00000000000E+00  0.14394986828E+04  0.14394986828E+04  0.00000000000E+00 0. -1.
         21   -1    0    0  503  502  0.00000000000E+00 -0.00000000000E+00 -0.14634810771E+04  0.14634810771E+04  0.00000000000E+00 0.  1.
         25    1    1    2    0    0  0.11674224636E+03 -0.74359820941E+03 -0.95838014464E+03  0.12250243062E+04  0.12500000000E+03 0.  0.
         21    1    1    2  503  501 -0.74743266547E+02 -0.64697879913E+02 -0.23547531998E+03  0.25538402041E+03  0.00000000000E+00 0.  1.
          1    1    1    2  501    0 -0.41998979811E+02  0.80829608932E+03  0.11698730702E+04  0.14225714333E+04  0.00000000000E+00 0. -1.
<mgrwt>
<rscale>  4 0.81279683E+03</rscale>
<asrwt>0</asrwt>
<pdfrwt beam="1">  1       21 0.22515093E+00 0.81279683E+03</pdfrwt>
<pdfrwt beam="2">  1        1 0.22146134E+00 0.81279683E+03</pdfrwt>
<totfact> 0.57202525E+00</totfact>
</mgrwt>
</event>
<event>
 5    0  0.4115852E+000  0.2336615E+03  0.7546771E-02  0.1124089E+00
         21   -1    0    0  501  502  0.00000000000E+00  0.00000000000E+00  0.40939062765E+03  0.40939062765E+03  0.00000000000E+00 0.  1.
         -2   -1    0    0    0  501 -0.00000000000E+00 -0.00000000000E+00 -0.39427182864E+03  0.39427182864E+03  0.00000000000E+00 0. -1.
         25    1    1    2    0    0  0.12552514346E+03  0.17084626870E+03  0.22780161278E+03  0.33535590640E+03  0.12500000000E+03 0.  0.
         21    1    1    2  503  502  0.81960341644E+01 -0.27444209176E+02  0.97349086024E+02  0.10147514052E+03  0.00000000000E+00 0. -1.
         -2    1    1    2    0  503 -0.13372117762E+03 -0.14340205953E+03 -0.31003189979E+03  0.36683140938E+03  0.00000000000E+00 0. -1.
<mgrwt>
<rscale>  4 0.23366152E+03</rscale>
<asrwt>0</asrwt>
<pdfrwt beam="1">  1       21 0.62983173E-01 0.23366152E+03</pdfrwt>
<pdfrwt beam="2">  1       -2 0.60657205E-01 0.23366152E+03</pdfrwt>
<totfact> 0.48280092E+02</totfact>
</mgrwt>
</event>
<event>
 5    0  0.4115852E+000  0.1931870E+03  0.7546771E-02  0.1155618E+00
         21   -1    0    0  503  502  0.00000000000E+00  0.00000000000E+00  0.98819794819E+03  0.98819794819E+03  0.00000000000E+00 0.  1.
          1   -1    0    0  502    0 -0.00000000000E+00 -0.00000000000E+00 -0.22248936280E+03  0.22248936280E+03  0.00000000000E+00 0. -1.
         25    1    1    2    0    0  0.17248719602E+03  0.10651189792E+03  0.26085863028E+03  0.35322633280E+03  0.12500000000E+03 0.  0.
         21    1    1    2  503  501 -0.55704689654E+02 -0.25539098925E+02  0.65084448538E+03  0.65372303170E+03  0.00000000000E+00 0.  1.
          1    1    1    2  501    0 -0.11678250637E+03 -0.80972798994E+02 -0.14599453027E+03  0.20373794649E+03  0.00000000000E+00 0. -1.
<mgrwt>
<rscale>  4 0.19318705E+03</rscale>
<asrwt>0</asrwt>
<pdfrwt beam="1">  1       21 0.15203045E+00 0.19318705E+03</pdfrwt>
<pdfrwt beam="2">  1        1 0.34229133E-01 0.19318705E+03</pdfrwt>
<totfact> 0.40137466E+02</totfact>
</mgrwt>
</event>
<event>
 5    0  0.4115852E+000  0.2657250E+03  0.7546771E-02  0.1103752E+00
         21   -1    0    0  503  502  0.00000000000E+00  0.00000000000E+00  0.69263872568E+03  0.69263872568E+03  0.00000000000E+00 0. -1.
          2   -1    0    0  502    0 -0.00000000000E+00 -0.00000000000E+00 -0.23266989138E+03  0.23266989138E+03  0.00000000000E+00 0. -1.
         25    1    1    2    0    0 -0.41561066811E+00  0.22431854055E+03 -0.75804452253E+02  0.26775043482E+03  0.12500000000E+03 0.  0.
         21    1    1    2  503  501 -0.52280813407E+02  0.43727991481E+02  0.26232775797E+03  0.27103740201E+03  0.00000000000E+00 0. -1.
          2    1    1    2  501    0  0.52696424076E+02 -0.26804653203E+03  0.27344552858E+03  0.38652078022E+03  0.00000000000E+00 0. -1.
<mgrwt>
<rscale>  4 0.26572498E+03</rscale>
<asrwt>0</asrwt>
<pdfrwt beam="1">  1       21 0.10655980E+00 0.26572498E+03</pdfrwt>
<pdfrwt beam="2">  1        2 0.35795368E-01 0.26572498E+03</pdfrwt>
<totfact> 0.12170815E+03</totfact>
</mgrwt>
</event>
<event>
 5    0  0.4115852E+000  0.2112869E+03  0.7546771E-02  0.1140551E+00
          2   -1    0    0  502    0 -0.00000000000E+00  0.00000000000E+00  0.18788638939E+04  0.18788638939E+04  0.00000000000E+00 0. -1.
         21   -1    0    0  503  502  0.00000000000E+00 -0.00000000000E+00 -0.35605498404E+02  0.35605498404E+02  0.00000000000E+00 0.  1.
         25    1    1    2    0    0  0.16016414355E+03 -0.12107709781E+03  0.52073078637E+03  0.57192461773E+03  0.12500000000E+03 0.  0.
         21    1    1    2  503  501 -0.44863523311E+02  0.42608690723E+01  0.10871930113E+03  0.11768932478E+03  0.00000000000E+00 0.  1.
          2    1    1    2  501    0 -0.11530062024E+03  0.11681622874E+03  0.12138083080E+04  0.12248554498E+04  0.00000000000E+00 0. -1.
<mgrwt>
<rscale>  4 0.21128693E+03</rscale>
<asrwt>0</asrwt>
<pdfrwt beam="1">  1       21 0.54777705E-02 0.21128693E+03</pdfrwt>
<pdfrwt beam="2">  1        2 0.28905591E+00 0.21128693E+03</pdfrwt>
<totfact> 0.25506591E+04</totfact>
</mgrwt>
</event>
<event>
 5    0  0.4115852E+000  0.2332697E+03  0.7546771E-02  0.1124359E+00
         21   -1    0    0  503  502  0.00000000000E+00  0.00000000000E+00  0.76343065357E+02  0.76343065357E+02  0.00000000000E+00 0. -1.
          2   -1    0    0  502    0 -0.00000000000E+00 -0.00000000000E+00 -0.15188904253E+04  0.15188904253E+04  0.00000000000E+00 0.  1.
         25    1    1    2    0    0 -0.35049614017E+02 -0.21567882542E+03 -0.31160830831E+03  0.40058777938E+03  0.12500000000E+03 0.  0.
         21    1    1    2  503  501 -0.26132546332E+01  0.26324320882E+02  0.16434123502E+02  0.31142886586E+02  0.00000000000E+00 0. -1.
          2    1    1    2  501    0  0.37662868650E+02  0.18935450453E+03 -0.11473731751E+04  0.11635028247E+04  0.00000000000E+00 0.  1.
<mgrwt>
<rscale>  4 0.23326967E+03</rscale>
<asrwt>0</asrwt>
<pdfrwt beam="1">  1       21 0.11745088E-01 0.23326967E+03</pdfrwt>
<pdfrwt beam="2">  1        2 0.23367542E+00 0.23326967E+03</pdfrwt>
<totfact> 0.10311510E+04</totfact>
</mgrwt>
</event>
<event>
 5    0  0.4115852E+000  0.2800530E+03  0.7546771E-02  0.1095660E+00
         21   -1    0    0  503  502  0.00000000000E+00  0.00000000000E+00  0.20200608916E+04  0.20200608916E+04  0.00000000000E+00 0. -1.
          4   -1    0    0  502    0 -0.00000000000E+00 -0.00000000000E+00 -0.14534905218E+03  0.14534905218E+03  0.00000000000E+00 0.  1.
         25    1    1    2    0    0 -0.20588559036E+03  0.17536054596E+03  0.17704681356E+04  0.17953614167E+04  0.12500000000E+03 0.  0.
         21    1    1    2  503  501  0.47392925812E+00 -0.33966829906E+02  0.11553104795E+03  0.12042173052E+03  0.00000000000E+00 0.  1.
          4    1    1    2  501    0  0.20541166111E+03 -0.14139371606E+03 -0.11287344044E+02  0.24962679663E+03  0.00000000000E+00 0.  1.
<mgrwt>
<rscale>  4 0.28005296E+03</rscale>
<asrwt>0</asrwt>
<pdfrwt beam="1">  1       21 0.31077858E+00 0.28005296E+03</pdfrwt>
<pdfrwt beam="2">  1        4 0.22361394E-01 0.28005296E+03</pdfrwt>
<totfact> 0.21455352E+01</totfact>
</mgrwt>
</event>
<event>
 5    0  0.4115852E+000  0.2872456E+03  0.7546771E-02  0.1091796E+00
          1   -1    0    0  502    0 -0.00000000000E+00  0.00000000000E+00  0.66537189236E+03  0.66537189236E+03  0.00000000000E+00 0. -1.
         21   -1    0    0  503  502  0.00000000000E+00 -0.00000000000E+00 -0.35637898226E+03  0.35637898226E+03  0.00000000000E+00 0. -1.
         25    1    1    2    0    0  0.10636752132E+03  0.21263021744E+03 -0.24503609107E+03  0.36358402727E+03  0.12500000000E+03 0.  0.
         21    1    1    2  503  501 -0.21150974513E+01  0.26201256583E+02 -0.16434026667E+02  0.31000914764E+02  0.00000000000E+00 0.  1.
          1    1    1    2  501    0 -0.10425242387E+03 -0.23883147402E+03  0.57046302784E+03  0.62716593259E+03  0.00000000000E+00 0. -1.
<mgrwt>
<rscale>  4 0.28724555E+03</rscale>
<asrwt>0</asrwt>
<pdfrwt beam="1">  1       21 0.54827536E-01 0.28724555E+03</pdfrwt>
<pdfrwt beam="2">  1        1 0.10236491E+00 0.28724555E+03</pdfrwt>
<totfact> 0.10163607E+03</totfact>
</mgrwt>
</event>
<event>
 5    0  0.4115852E+000  0.2375922E+03  0.7546771E-02  0.1121407E+00
         21   -1    0    0  503  502  0.00000000000E+00  0.00000000000E+00  0.56661543620E+02  0.56661543620E+02  0.00000000000E+00 0. -1.
          2   -1    0    0  502    0 -0.00000000000E+00 -0.00000000000E+00 -0.27009812071E+04  0.27009812071E+04  0.00000000000E+00 0. -1.
         25    1    1    2    0    0  0.20316722111E+03 -0.19165174800E+03 -0.52804829651E+03  0.61030100417E+03  0.12500000000E+03 0.  0.
         21    1    1    2  503  501 -0.10850136894E+03  0.22536331204E+02 -0.28409399605E+03  0.30494234189E+03  0.00000000000E+00 0. -1.
          2    1    1    2  501    0 -0.94665852174E+02  0.16911541680E+03 -0.18321773709E+04  0.18423994046E+04  0.00000000000E+00 0. -1.
<mgrwt>
<rscale>  4 0.23759219E+03</rscale>
<asrwt>0</asrwt>
<pdfrwt beam="1">  1       21 0.87171620E-02 0.23759219E+03</pdfrwt>
<pdfrwt beam="2">  1        2 0.41553550E+00 0.23759219E+03</pdfrwt>
<totfact> 0.40996216E+03</totfact>
</mgrwt>
</event>
<event>
 5    0  0.4115852E+000  0.1927125E+03  0.7546771E-02  0.1156037E+00
          3   -1    0    0  502    0 -0.00000000000E+00  0.00000000000E+00  0.46249012572E+03  0.46249012572E+03  0.00000000000E+00 0. -1.
         21   -1    0    0  503  502  0.00000000000E+00 -0.00000000000E+00 -0.39954504907E+03  0.39954504907E+03  0.00000000000E+00 0. -1.
         25    1    1    2    0    0  0.21941373604E+03  0.45989054749E+02 -0.17598623304E+03  0.31121300573E+03  0.12500000000E+03 0.  0.
         21    1    1    2  503  501 -0.11410293199E+03 -0.35026280832E+02 -0.12438689972E+03  0.17239031371E+03  0.00000000000E+00 0. -1.
          3    1    1    2  501    0 -0.10531080405E+03 -0.10962773917E+02  0.36331820941E+03  0.37843185536E+03  0.00000000000E+00 0. -1.
<mgrwt>
<rscale>  4 0.19271250E+03</rscale>
<asrwt>0</asrwt>
<pdfrwt beam="1">  1       21 0.61468469E-01 0.19271250E+03</pdfrwt>
<pdfrwt beam="2">  1        3 0.71152327E-01 0.19271250E+03</pdfrwt>
<totfact> 0.23370900E+02</totfact>
</mgrwt>
</event>
<event>
 5    0  0.4115852E+000  0.2150509E+03  0.7546771E-02  0.1137627E+00
         21   -1    0    0  503  502  0.00000000000E+00  0.00000000000E+00  0.27232273619E+03  0.27232273619E+03  0.00000000000E+00 0. -1.
          1   -1    0    0  502    0 -0.00000000000E+00 -0.00000000000E+00 -0.12169923315E+04  0.12169923315E+04  0.00000000000E+00 0. -1.
         25    1    1    2    0    0  0.10597736459E+03 -0.22838259511E+03 -0.33144255603E+03  0.43459058837E+03  0.12500000000E+03 0.  0.
         21    1    1    2  503  501 -0.13679941250E+03  0.62877705885E+02  0.18523696173E+03  0.23870571243E+03  0.00000000000E+00 0. -1.
          1    1    1    2  501    0  0.30822047908E+02  0.16550488922E+03 -0.79846400100E+03  0.81601876687E+03  0.00000000000E+00 0. -1.
<mgrwt>
<rscale>  4 0.21505092E+03</rscale>
<asrwt>0</asrwt>
<pdfrwt beam="1">  1       21 0.41895806E-01 0.21505092E+03</pdfrwt>
<pdfrwt beam="2">  1        1 0.18722959E+00 0.21505092E+03</pdfrwt>
<totfact> 0.68056191E+02</totfact>
</mgrwt>
</event>
<event>
 5    0  0.4115852E+000  0.2501281E+03  0.7546771E-02  0.1113224E+00
          1   -1    0    0  502    0 -0.00000000000E+00  0.00000000000E+00  0.27931707952E+04  0.27931707952E+04  0.00000000000E+00 0.  1.
         21   -1    0    0  503  502  0.00000000000E+00 -0.00000000000E+00 -0.11735714708E+03  0.11735714708E+03  0.00000000000E+00 0. -1.
         25    1    1    2    0    0 -0.21564461510E+03 -0.16979568145E+03  0.12688270585E+03  0.32719626297E+03  0.12500000000E+03 0.  0.
         21    1    1    2  503  501  0.36181479716E+02  0.53147281145E+02  0.69497001696E+02  0.94676112152E+02  0.00000000000E+00 0. -1.
          1    1    1    2  501    0  0.17946313538E+03  0.11664840030E+03  0.24794339406E+04  0.24886555672E+04  0.00000000000E+00 0.  1.
<mgrwt>
<rscale>  4 0.25012815E+03</rscale>
<asrwt>0</asrwt>
<pdfrwt beam="1">  1       21 0.18054948E-01 0.25012815E+03</pdfrwt>
<pdfrwt beam="2">  1        1 0.42971853E+00 0.25012815E+03</pdfrwt>
<totfact> 0.31181813E+02</totfact>
</mgrwt>
</event>
<event>
 5    0  0.4115852E+000  0.2152701E+03  0.7546771E-02  0.1137459E+00
         21   -1    0    0  503  502  0.00000000000E+00  0.00000000000E+00  0.10780678111E+03  0.10780678111E+03  0.00000000000E+00 0. -1.
          2   -1    0    0  502    0 -0.00000000000E+00 -0.00000000000E+00 -0.11213260553E+04  0.11213260553E+04  0.00000000000E+00 0. -1.
         25    1    1    2    0    0  0.22045073887E+03 -0.11449956711E+03 -0.34038323178E+03  0.43953887611E+03  0.12500000000E+03 0.  0.
         21    1    1    2  503  501 -0.82599161996E+02  0.30466775263E+02  0.91073035489E+01  0.88508694123E+02  0.00000000000E+00 0. -1.
          2    1    1    2  501    0 -0.13785157687E+03  0.84032791852E+02 -0.68224334592E+03  0.70108526615E+03  0.00000000000E+00 0. -1.
<mgrwt>
<rscale>  4 0.21527009E+03</rscale>
<asrwt>0</asrwt>
<pdfrwt beam="1">  1       21 0.16585658E-01 0.21527009E+03</pdfrwt>
<pdfrwt beam="2">  1        2 0.17251170E+00 0.21527009E+03</pdfrwt>
<totfact> 0.91729117E+03</totfact>
</mgrwt>
</event>
<event>
 5    0  0.4115852E+000  0.2310938E+03  0.7546771E-02  0.1125872E+00
         21   -1    0    0  503  502  0.00000000000E+00  0.00000000000E+00  0.66136263393E+02  0.66136263393E+02  0.00000000000E+00 0. -1.
          1   -1    0    0  502    0 -0.00000000000E+00 -0.00000000000E+00 -0.24519577550E+04  0.24519577550E+04  0.00000000000E+00 0.  1.
         25    1    1    2    0    0 -0.19724057877E+03 -0.87684491231E+02 -0.31445205300E+03  0.40136954238E+03  0.12500000000E+03 0.  0.
         21    1    1    2  503  501  0.19202418466E+02  0.15298976579E+02  0.99929716307E+01  0.26507565738E+02  0.00000000000E+00 0. -1.
          1    1    1    2  501    0  0.17803816030E+03  0.72385514651E+02 -0.20813624103E+04  0.20902169103E+04  0.00000000000E+00 0.  1.
<mgrwt>
<rscale>  4 0.23109377E+03</rscale>
<asrwt>0</asrwt>
<pdfrwt beam="1">  1       21 0.10174809E-01 0.23109377E+03</pdfrwt>
<pdfrwt beam="2">  1        1 0.37722431E+00 0.23109377E+03</pdfrwt>
<totfact> 0.15132879E+03</totfact>
</mgrwt>
</event>
<event>
 5    0  0.4115852E+000  0.3500630E+03  0.7546771E-02  0.1062589E+00
         21   -1    0    0  501  502  0.00000000000E+00  0.00000000000E+00  0.18423750784E+03  0.18423750784E+03  0.00000000000E+00 0. -1.
         -3   -1    0    0    0  501 -0.00000000000E+00 -0.00000000000E+00 -0.70923658037E+03  0.70923658037E+03  0.00000000000E+00 0. -1.
         25    1    1    2    0    0 -0.14058233370E+03 -0.28784813262E+03 -0.16594250721E+03  0.38181390192E+03  0.12500000000E+03 0.  0.
         21    1    1    2  503  502 -0.29023088996E+02  0.30308602282E+01 -0.11497582400E+02  0.31364314270E+02  0.00000000000E+00 0. -1.
         -3    1    1    2    0  503  0.16960542269E+03  0.28481727240E+03 -0.34755898292E+03  0.48029587201E+03  0.00000000000E+00 0. -1.
<mgrwt>
<rscale>  4 0.35006303E+03</rscale>
<asrwt>0</asrwt>
<pdfrwt beam="1">  1       21 0.28344232E-01 0.35006303E+03</pdfrwt>
<pdfrwt beam="2">  1       -3 0.10911332E+00 0.35006303E+03</pdfrwt>
<totfact> 0.42462659E+02</totfact>
</mgrwt>
</event>
<event>
 5    0  0.4115852E+000  0.3385349E+03  0.7546771E-02  0.1067422E+00
          1   -1    0    0  502    0 -0.00000000000E+00  0.00000000000E+00  0.40470553986E+03  0.40470553986E+03  0.00000000000E+00 0.  1.
         21   -1    0    0  503  502  0.00000000000E+00 -0.00000000000E+00 -0.86990230251E+03  0.86990230251E+03  0.00000000000E+00 0.  1.
         25    1    1    2    0    0  0.27162043173E+03 -0.12085713525E+03 -0.49283493225E+03  0.58897824792E+03  0.12500000000E+03 0.  0.
         21    1    1    2  503  501  0.14364022339E+02 -0.15621372188E+02 -0.25808438085E+03  0.25895540165E+03  0.00000000000E+00 0.  1.
          1    1    1    2  501    0 -0.28598445407E+03  0.13647850744E+03  0.28572255045E+03  0.42667419279E+03  0.00000000000E+00 0.  1.
<mgrwt>
<rscale>  4 0.33853493E+03</rscale>
<asrwt>0</asrwt>
<pdfrwt beam="1">  1       21 0.13383112E+00 0.33853493E+03</pdfrwt>
<pdfrwt beam="2">  1        1 0.62262391E-01 0.33853493E+03</pdfrwt>
<totfact> 0.24328888E+02</totfact>
</mgrwt>
</event>
<event>
 5    0  0.4115852E+000  0.2894455E+03  0.7546771E-02  0.1090639E+00
          1   -1    0    0  502    0 -0.00000000000E+00  0.00000000000E+00  0.24649365888E+04  0.24649365888E+04  0.00000000000E+00 0.  1.
         21   -1    0    0  503  502  0.00000000000E+00 -0.00000000000E+00 -0.86200608445E+02  0.86200608445E+02  0.00000000000E+00 0.  1.
         25    1    1    2    0    0  0.22594026321E+03 -0.14174505285E+02  0.49830246905E+03  0.56140918215E+03  0.12500000000E+03 0.  0.
         21    1    1    2  503  501  0.45770982652E+02  0.13398694616E+02 -0.32423481205E+02  0.57669662768E+02  0.00000000000E+00 0.  1.
          1    1    1    2  501    0 -0.27171124586E+03  0.77581066915E+00  0.19128569926E+04  0.19320583524E+04  0.00000000000E+00 0.  1.
<mgrwt>
<rscale>  4 0.28944552E+03</rscale>
<asrwt>0</asrwt>
<pdfrwt beam="1">  1       21 0.13261634E-01 0.28944552E+03</pdfrwt>
<pdfrwt beam="2">  1        1 0.37922096E+00 0.28944552E+03</pdfrwt>
<totfact> 0.89506701E+02</totfact>
</mgrwt>
</event>
<event>
 5    0  0.4115852E+000  0.2753029E+03  0.7546771E-02  0.1098282E+00
         21   -1    0    0  503  502  0.00000000000E+00  0.00000000000E+00  0.21014394231E+03  0.21014394231E+03  0.00000000000E+00 0. -1.
          1   -1    0    0  502    0 -0.00000000000E+00 -0.00000000000E+00 -0.39059172521E+03  0.39059172521E+03  0.00000000000E+00 0. -1.
         25    1    1    2    0    0 -0.21716879999E+03  0.77568665200E+02 -0.15595731437E+03  0.30516695335E+03  0.12500000000E+03 0.  0.
         21    1    1    2  503  501 -0.30236611783E+02 -0.19783826380E+02 -0.20351664956E+02  0.41470986784E+02  0.00000000000E+00 0. -1.
          1    1    1    2  501    0  0.24740541177E+03 -0.57784838819E+02 -0.41388035766E+01  0.25409772739E+03  0.00000000000E+00 0. -1.
<mgrwt>
<rscale>  4 0.27530293E+03</rscale>
<asrwt>0</asrwt>
<pdfrwt beam="1">  1       21 0.32329837E-01 0.27530293E+03</pdfrwt>
<pdfrwt beam="2">  1        1 0.60091035E-01 0.27530293E+03</pdfrwt>
<totfact> 0.61957153E+03</totfact>
</mgrwt>
</event>
<event>
 5    0  0.4115852E+000  0.3279527E+03  0.7546771E-02  0.1072046E+00
          2   -1    0    0  502    0 -0.00000000000E+00  0.00000000000E+00  0.19378108190E+04  0.19378108190E+04  0.00000000000E+00 0. -1.
         21   -1    0    0  503  502  0.00000000000E+00 -0.00000000000E+00 -0.72638382933E+03  0.72638382933E+03  0.00000000000E+00 0.  1.
         25    1    1    2    0    0  0.24132395821E+03  0.14659314471E+03 -0.17053613460E+03  0.35275257063E+03  0.12500000000E+03 0.  0.
         21    1    1    2  503  501  0.23266659634E+02  0.35046511198E+01 -0.45190393457E+03  0.45251606172E+03  0.00000000000E+00 0.  1.
          2    1    1    2  501    0 -0.26459061784E+03 -0.15009779583E+03  0.18338670588E+04  0.18589260159E+04  0.00000000000E+00 0. -1.
<mgrwt>
<rscale>  4 0.32795268E+03</rscale>
<asrwt>0</asrwt>
<pdfrwt beam="1">  1       21 0.11175136E+00 0.32795268E+03</pdfrwt>
<pdfrwt beam="2">  1        2 0.29812474E+00 0.32795268E+03</pdfrwt>
<totfact> 0.58405941E+01</totfact>
</mgrwt>
</event>
<event>
 5    0  0.4115852E+000  0.2276822E+03  0.7546771E-02  0.1128282E+00
          2   -1    0    0  502    0 -0.00000000000E+00  0.00000000000E+00  0.79426630435E+03  0.79426630435E+03  0.00000000000E+00 0.  1.
         21   -1    0    0  503  502  0.00000000000E+00 -0.00000000000E+00 -0.93443052799E+02  0.93443052799E+02  0.00000000000E+00 0. -1.
         25    1    1    2    0    0 -0.45136463686E+02 -0.21821862764E+03  0.38519592767E+03  0.46223108127E+03  0.12500000000E+03 0.  0.
         21    1    1    2  503  501 -0.28154683085E+02  0.61077151867E+02  0.22047811574E+01  0.67290160646E+02  0.00000000000E+00 0.  1.
          2    1    1    2  501    0  0.73291146772E+02  0.15714147577E+03  0.31342254272E+03  0.35818811523E+03  0.00000000000E+00 0.  1.
<mgrwt>
<rscale>  4 0.22768217E+03</rscale>
<asrwt>0</asrwt>
<pdfrwt beam="1">  1       21 0.14375855E-01 0.22768217E+03</pdfrwt>
<pdfrwt beam="2">  1        2 0.12219481E+00 0.22768217E+03</pdfrwt>
<totfact> 0.19055605E+04</totfact>
</mgrwt>
</event>
<event>
 5    0  0.4115852E+000  0.2701343E+03  0.7546771E-02  0.1101203E+00
         21   -1    0    0  503  502  0.00000000000E+00  0.00000000000E+00  0.15678598456E+04  0.15678598456E+04  0.00000000000E+00 0. -1.
          2   -1    0    0  502    0 -0.00000000000E+00 -0.00000000000E+00 -0.15206432563E+04  0.15206432563E+04  0.00000000000E+00 0.  1.
         25    1    1    2    0    0 -0.11343772728E+03  0.17792478323E+03  0.92022121350E+03  0.95234312526E+03  0.12500000000E+03 0.  0.
         21    1    1    2  503  501 -0.14345938381E+02  0.24949773260E+02  0.62169071281E+03  0.62235652124E+03  0.00000000000E+00 0.  1.
          2    1    1    2  501    0  0.12778366566E+03 -0.20287455649E+03 -0.14946953370E+04  0.15138034554E+04  0.00000000000E+00 0.  1.
<mgrwt>
<rscale>  4 0.27013431E+03</rscale>
<asrwt>0</asrwt>
<pdfrwt beam="1">  1       21 0.24120921E+00 0.27013431E+03</pdfrwt>
<pdfrwt beam="2">  1        2 0.23394512E+00 0.27013431E+03</pdfrwt>
<totfact> 0.11669960E+01</totfact>
</mgrwt>
</event>
<event>
 5    0  0.4115852E+000  0.2322514E+03  0.7546771E-02  0.1125065E+00
         21   -1    0    0  503  502  0.00000000000E+00  0.00000000000E+00  0.20197096569E+03  0.20197096569E+03  0.00000000000E+00 0. -1.
          2   -1    0    0  502    0 -0.00000000000E+00 -0.00000000000E+00 -0.33454666560E+03  0.33454666560E+03  0.00000000000E+00 0. -1.
         25    1    1    2    0    0  0.20199685242E+03  0.16068714022E+02  0.29895340997E+02  0.23995762829E+03  0.12500000000E+03 0.  0.
         21    1    1    2  503  501 -0.84293852321E+01 -0.30871481589E+02  0.13320091657E+02  0.34663060347E+02  0.00000000000E+00 0. -1.
          2    1    1    2  501    0 -0.19356746719E+03  0.14802767567E+02 -0.17579113256E+03  0.26189694265E+03  0.00000000000E+00 0. -1.
<mgrwt>
<rscale>  4 0.23225140E+03</rscale>
<asrwt>0</asrwt>
<pdfrwt beam="1">  1       21 0.31072457E-01 0.23225140E+03</pdfrwt>
<pdfrwt beam="2">  1        2 0.51468717E-01 0.23225140E+03</pdfrwt>
<totfact> 0.11911718E+04</totfact>
</mgrwt>
</event>
<event>
 5    0  0.4115852E+000  0.2596440E+03  0.7546771E-02  0.1107357E+00
         21   -1    0    0  503  502  0.00000000000E+00  0.00000000000E+00  0.47362427047E+02  0.47362427047E+02  0.00000000000E+00 0. -1.
          2   -1    0    0  502    0 -0.00000000000E+00 -0.00000000000E+00 -0.23778178975E+04  0.23778178975E+04  0.00000000000E+00 0.  1.
         25    1    1    2    0    0 -0.29424044098E+02  0.24073405521E+03 -0.51683067770E+03  0.58442930207E+03  0.12500000000E+03 0.  0.
         21    1    1    2  503  501  0.51002092013E+02 -0.16461035795E+02 -0.11075014472E+03  0.12303566005E+03  0.00000000000E+00 0. -1.
          2    1    1    2  501    0 -0.21578047914E+02 -0.22427301941E+03 -0.17028746480E+04  0.17177153624E+04  0.00000000000E+00 0.  1.
<mgrwt>
<rscale>  4 0.25964404E+03</rscale>
<asrwt>0</asrwt>
<pdfrwt beam="1">  1       21 0.72865269E-02 0.25964404E+03</pdfrwt>
<pdfrwt beam="2">  1        2 0.36581815E+00 0.25964404E+03</pdfrwt>
<totfact> 0.83649897E+03</totfact>
</mgrwt>
</event>
<event>
 5    0  0.4115852E+000  0.2525226E+03  0.7546771E-02  0.1111721E+00
         21   -1    0    0  503  502  0.00000000000E+00  0.00000000000E+00  0.63502828039E+03  0.63502828039E+03  0.00000000000E+00 0. -1.
          3   -1    0    0  502    0 -0.00000000000E+00 -0.00000000000E+00 -0.29203222804E+03  0.29203222804E+03  0.00000000000E+00 0. -1.
         25    1    1    2    0    0 -0.14066013007E+03  0.16336386554E+03  0.44184680641E+03  0.50727371811E+03  0.12500000000E+03 0.  0.
         21    1    1    2  503  501  0.17570788227E+02  0.18890100528E+02  0.11210864347E+03  0.11503876059E+03  0.00000000000E+00 0.  1.
          3    1    1    2  501    0  0.12308934184E+03 -0.18225396607E+03 -0.21095939752E+03  0.30474802973E+03  0.00000000000E+00 0. -1.
<mgrwt>
<rscale>  4 0.25252258E+03</rscale>
<asrwt>0</asrwt>
<pdfrwt beam="1">  1       21 0.97696658E-01 0.25252258E+03</pdfrwt>
<pdfrwt beam="2">  1        3 0.44928035E-01 0.25252258E+03</pdfrwt>
<totfact> 0.20801532E+02</totfact>
</mgrwt>
</event>
<event>
 5    0  0.4115852E+000  0.2360469E+03  0.7546771E-02  0.1122455E+00
         21   -1    0    0  503  502  0.00000000000E+00  0.00000000000E+00  0.17319639239E+03  0.17319639239E+03  0.00000000000E+00 0.  1.
          2   -1    0    0  502    0 -0.00000000000E+00 -0.00000000000E+00 -0.74986973164E+03  0.74986973164E+03  0.00000000000E+00 0.  1.
         25    1    1    2    0    0 -0.13431243265E+03 -0.14850355723E+03 -0.66043530946E+03  0.70135079245E+03  0.12500000000E+03 0.  0.
         21    1    1    2  503  501  0.23830311804E+02  0.60962671290E+01  0.14966876421E+02  0.28793326021E+02  0.00000000000E+00 0.  1.
          2    1    1    2  501    0  0.11048212085E+03  0.14240729010E+03  0.68795093792E+02  0.19292200557E+03  0.00000000000E+00 0.  1.
<mgrwt>
<rscale>  4 0.23604689E+03</rscale>
<asrwt>0</asrwt>
<pdfrwt beam="1">  1       21 0.26645599E-01 0.23604689E+03</pdfrwt>
<pdfrwt beam="2">  1        2 0.11536457E+00 0.23604689E+03</pdfrwt>
<totfact> 0.64332546E+03</totfact>
</mgrwt>
</event>
<event>
 5    0  0.1185916E+001  0.4027865E+03  0.7546771E-02  0.1042819E+00
         21   -1    0    0  503  502  0.00000000000E+00  0.00000000000E+00  0.69413676857E+03  0.69413676857E+03  0.00000000000E+00 0. -1.
          2   -1    0    0  502    0 -0.00000000000E+00 -0.00000000000E+00 -0.14059357030E+04  0.14059357030E+04  0.00000000000E+00 0. -1.
         25    1    1    2    0    0 -0.28152901423E+03 -0.24870573358E+03  0.59302184223E+03  0.71303087810E+03  0.12500000000E+03 0.  0.
         21    1    1    2  503  501  0.10529238186E+02 -0.22268918745E+02  0.24506329362E+01  0.24754296610E+02  0.00000000000E+00 0.  1.
          2    1    1    2  501    0  0.27099977604E+03  0.27097465233E+03 -0.13072714096E+04  0.13622872969E+04  0.00000000000E+00 0. -1.
<mgrwt>
<rscale>  4 0.40278652E+03</rscale>
<asrwt>0</asrwt>
<pdfrwt beam="1">  1       21 0.10679027E+00 0.40278652E+03</pdfrwt>
<pdfrwt beam="2">  1        2 0.21629780E+00 0.40278652E+03</pdfrwt>
<totfact> 0.12121106E+02</totfact>
</mgrwt>
</event>
<event>
 5    0  0.4115852E+000  0.3007781E+03  0.7546771E-02  0.1084852E+00
          2   -1    0    0  502    0 -0.00000000000E+00  0.00000000000E+00  0.24922813609E+04  0.24922813609E+04  0.00000000000E+00 0.  1.
         21   -1    0    0  503  502  0.00000000000E+00 -0.00000000000E+00 -0.73520911820E+03  0.73520911820E+03  0.00000000000E+00 0.  1.
         25    1    1    2    0    0 -0.23882717034E+03 -0.19399694357E+03 -0.29995895025E+03  0.44751938867E+03  0.12500000000E+03 0.  0.
         21    1    1    2  503  501  0.25523353387E+02  0.23820473794E+02 -0.35290910769E+03  0.35463177358E+03  0.00000000000E+00 0.  1.
          2    1    1    2  501    0  0.21330381695E+03  0.17017646977E+03  0.24099403006E+04  0.24253393168E+04  0.00000000000E+00 0.  1.
<mgrwt>
<rscale>  4 0.30077813E+03</rscale>
<asrwt>0</asrwt>
<pdfrwt beam="1">  1       21 0.11310910E+00 0.30077813E+03</pdfrwt>
<pdfrwt beam="2">  1        2 0.38342790E+00 0.30077813E+03</pdfrwt>
<totfact> 0.29105679E+01</totfact>
</mgrwt>
</event>
<event>
 5    0  0.4115852E+000  0.3722740E+03  0.7546771E-02  0.1053827E+00
         21   -1    0    0  503  502  0.00000000000E+00  0.00000000000E+00  0.40455128507E+03  0.40455128507E+03  0.00000000000E+00 0. -1.
          2   -1    0    0  502    0 -0.00000000000E+00 -0.00000000000E+00 -0.64129462544E+03  0.64129462544E+03  0.00000000000E+00 0.  1.
         25    1    1    2    0    0  0.32122064948E+03 -0.87165740541E+02  0.80863750814E+02  0.36461557588E+03  0.12500000000E+03 0.  0.
         21    1    1    2  503  501 -0.74415146209E+01 -0.85534232587E+02  0.99516978372E+02  0.13143481300E+03  0.00000000000E+00 0. -1.
          2    1    1    2  501    0 -0.31377913486E+03  0.17269997313E+03 -0.41712406957E+03  0.54979552163E+03  0.00000000000E+00 0.  1.
<mgrwt>
<rscale>  4 0.37227400E+03</rscale>
<asrwt>0</asrwt>
<pdfrwt beam="1">  1       21 0.62238660E-01 0.37227400E+03</pdfrwt>
<pdfrwt beam="2">  1        2 0.98660711E-01 0.37227400E+03</pdfrwt>
<totfact> 0.13146997E+03</totfact>
</mgrwt>
</event>
<event>
 5    0  0.4115852E+000  0.2353119E+03  0.7546771E-02  0.1122956E+00
         21   -1    0    0  503  502  0.00000000000E+00  0.00000000000E+00  0.73237803559E+03  0.73237803559E+03  0.00000000000E+00 0.  1.
          2   -1    0    0  502    0 -0.00000000000E+00 -0.00000000000E+00 -0.17874525556E+04  0.17874525556E+04  0.00000000000E+00 0.  1.
         25    1    1    2    0    0 -0.20891527233E+03  0.61666318758E+02  0.63289955802E+03  0.68090761225E+03  0.12500000000E+03 0.  0.
         21    1    1    2  503  501  0.15909668260E+02 -0.12341288284E+02  0.68392708664E+02  0.71295073736E+02  0.00000000000E+00 0.  1.
          2    1    1    2  501    0  0.19300560407E+03 -0.49325030474E+02 -0.17563667867E+04  0.17676279052E+04  0.00000000000E+00 0.  1.
<mgrwt>
<rscale>  4 0.23531190E+03</rscale>
<asrwt>0</asrwt>
<pdfrwt beam="1">  1       21 0.11267354E+00 0.23531190E+03</pdfrwt>
<pdfrwt beam="2">  1        2 0.27499270E+00 0.23531190E+03</pdfrwt>
<totfact> 0.73461496E+01</totfact>
</mgrwt>
</event>
<event>
 5    0  0.4115852E+000  0.2656412E+03  0.7546771E-02  0.1103800E+00
          1   -1    0    0  502    0 -0.00000000000E+00  0.00000000000E+00  0.89677549734E+03  0.89677549734E+03  0.00000000000E+00 0.  1.
         21   -1    0    0  503  502  0.00000000000E+00 -0.00000000000E+00 -0.48927021579E+03  0.48927021579E+03  0.00000000000E+00 0.  1.
         25    1    1    2    0    0  0.26460860183E+03 -0.13330664799E+03  0.54557805016E+03  0.63329991582E+03  0.12500000000E+03 0.  0.
         21    1    1    2  503  501 -0.20343079448E+03  0.10990363382E+03 -0.41126713869E+03  0.47180881323E+03  0.00000000000E+00 0.  1.
          1    1    1    2  501    0 -0.61177807355E+02  0.23403014170E+02  0.27319437007E+03  0.28093698408E+03  0.00000000000E+00 0.  1.
<mgrwt>
<rscale>  4 0.26564121E+03</rscale>
<asrwt>0</asrwt>
<pdfrwt beam="1">  1       21 0.75272341E-01 0.26564121E+03</pdfrwt>
<pdfrwt beam="2">  1        1 0.13796546E+00 0.26564121E+03</pdfrwt>
<totfact> 0.32464348E+02</totfact>
</mgrwt>
</event>
<event>
 5    0  0.4115852E+000  0.2601321E+03  0.7546771E-02  0.1107064E+00
          1   -1    0    0  502    0 -0.00000000000E+00  0.00000000000E+00  0.76784987900E+03  0.76784987900E+03  0.00000000000E+00 0.  1.
         21   -1    0    0  503  502  0.00000000000E+00 -0.00000000000E+00 -0.11172451619E+04  0.11172451619E+04  0.00000000000E+00 0. -1.
         25    1    1    2    0    0  0.34795399182E+02 -0.25279781033E+03 -0.10071894389E+04  0.10465051450E+04  0.12500000000E+03 0.  0.
         21    1    1    2  503  501 -0.86932125727E+02  0.12207696286E+03 -0.15572657482E+02  0.15067344492E+03  0.00000000000E+00 0. -1.
          1    1    1    2  501    0  0.52136726545E+02  0.13072084747E+03  0.67336681341E+03  0.68791645104E+03  0.00000000000E+00 0.  1.
<mgrwt>
<rscale>  4 0.26013212E+03</rscale>
<asrwt>0</asrwt>
<pdfrwt beam="1">  1       21 0.17188387E+00 0.26013212E+03</pdfrwt>
<pdfrwt beam="2">  1        1 0.11813075E+00 0.26013212E+03</pdfrwt>
<totfact> 0.53436635E+01</totfact>
</mgrwt>
</event>
<event>
 5    0  0.4115852E+000  0.2219659E+03  0.7546771E-02  0.1132426E+00
         21   -1    0    0  503  502  0.00000000000E+00  0.00000000000E+00  0.49722546088E+03  0.49722546088E+03  0.00000000000E+00 0. -1.
          4   -1    0    0  502    0 -0.00000000000E+00 -0.00000000000E+00 -0.10833356556E+04  0.10833356556E+04  0.00000000000E+00 0.  1.
         25    1    1    2    0    0 -0.40879135333E+02  0.20509100125E+03  0.19390712595E+03  0.31138143168E+03  0.12500000000E+03 0.  0.
         21    1    1    2  503  501  0.28473717000E+01 -0.26500722235E+02  0.23568896254E+03  0.23719123692E+03  0.00000000000E+00 0. -1.
          4    1    1    2  501    0  0.38031763633E+02 -0.17859027902E+03 -0.10157062832E+04  0.10319884479E+04  0.00000000000E+00 0.  1.
<mgrwt>
<rscale>  4 0.22196587E+03</rscale>
<asrwt>0</asrwt>
<pdfrwt beam="1">  1       21 0.76496225E-01 0.22196587E+03</pdfrwt>
<pdfrwt beam="2">  1        4 0.16666702E+00 0.22196587E+03</pdfrwt>
<totfact> 0.15195814E+01</totfact>
</mgrwt>
</event>
<event>
 5    0  0.4115852E+000  0.2663723E+03  0.7546771E-02  0.1103374E+00
         21   -1    0    0  503  502  0.00000000000E+00  0.00000000000E+00  0.12239595061E+03  0.12239595061E+03  0.00000000000E+00 0. -1.
          2   -1    0    0  502    0 -0.00000000000E+00 -0.00000000000E+00 -0.11428264797E+04  0.11428264797E+04  0.00000000000E+00 0. -1.
         25    1    1    2    0    0 -0.59993082033E+02 -0.24287233261E+03 -0.98615782338E+02  0.29654040595E+03  0.12500000000E+03 0.  0.
         21    1    1    2  503  501  0.22527475421E+02  0.12793060369E+02 -0.10379055511E+02  0.27908320189E+02  0.00000000000E+00 0. -1.
          2    1    1    2  501    0  0.37465606611E+02  0.23007927224E+03 -0.91143569120E+03  0.94077370413E+03  0.00000000000E+00 0. -1.
<mgrwt>
<rscale>  4 0.26637227E+03</rscale>
<asrwt>0</asrwt>
<pdfrwt beam="1">  1       21 0.18830147E-01 0.26637227E+03</pdfrwt>
<pdfrwt beam="2">  1        2 0.17581945E+00 0.26637227E+03</pdfrwt>
<totfact> 0.69366887E+03</totfact>
</mgrwt>
</event>
<event>
 5    0  0.4115852E+000  0.1730799E+03  0.7546771E-02  0.1174674E+00
         21   -1    0    0  503  502  0.00000000000E+00  0.00000000000E+00  0.53340160670E+03  0.53340160670E+03  0.00000000000E+00 0. -1.
          2   -1    0    0  502    0 -0.00000000000E+00 -0.00000000000E+00 -0.23195133146E+03  0.23195133146E+03  0.00000000000E+00 0.  1.
         25    1    1    2    0    0 -0.97221722273E+02  0.17676488485E+03  0.98665573135E+02  0.25701708721E+03  0.12500000000E+03 0.  0.
         21    1    1    2  503  501  0.76173716022E+02 -0.67888121265E+02  0.32657243559E+03  0.34214147324E+03  0.00000000000E+00 0. -1.
          2    1    1    2  501    0  0.21048006251E+02 -0.10887676359E+03 -0.12378773350E+03  0.16619437770E+03  0.00000000000E+00 0.  1.
<mgrwt>
<rscale>  4 0.17307989E+03</rscale>
<asrwt>0</asrwt>
<pdfrwt beam="1">  1       21 0.82061785E-01 0.17307989E+03</pdfrwt>
<pdfrwt beam="2">  1        2 0.35684820E-01 0.17307989E+03</pdfrwt>
<totfact> 0.23405952E+03</totfact>
</mgrwt>
</event>
<event>
 5    0  0.4115852E+000  0.2667321E+03  0.7546771E-02  0.1103165E+00
          2   -1    0    0  502    0 -0.00000000000E+00  0.00000000000E+00  0.19572409905E+04  0.19572409905E+04  0.00000000000E+00 0.  1.
         21   -1    0    0  503  502  0.00000000000E+00 -0.00000000000E+00 -0.94157514775E+02  0.94157514775E+02  0.00000000000E+00 0.  1.
         25    1    1    2    0    0  0.26344419779E+03 -0.79839677931E+02  0.24175330197E+03  0.38710060519E+03  0.12500000000E+03 0.  0.
         21    1    1    2  503  501 -0.45104716094E+02  0.40824063701E+01  0.25811217308E+02  0.52127923368E+02  0.00000000000E+00 0.  1.
          2    1    1    2  501    0 -0.21833948170E+03  0.75757271561E+02  0.15955189565E+04  0.16121699767E+04  0.00000000000E+00 0.  1.
<mgrwt>
<rscale>  4 0.26673212E+03</rscale>
<asrwt>0</asrwt>
<pdfrwt beam="1">  1       21 0.14485773E-01 0.26673212E+03</pdfrwt>
<pdfrwt beam="2">  1        2 0.30111397E+00 0.26673212E+03</pdfrwt>
<totfact> 0.40970041E+03</totfact>
</mgrwt>
</event>
<event>
 5    0  0.4115852E+000  0.2240652E+03  0.7546771E-02  0.1130888E+00
         21   -1    0    0  503  502  0.00000000000E+00  0.00000000000E+00  0.12868767597E+03  0.12868767597E+03  0.00000000000E+00 0.  1.
          1   -1    0    0  502    0 -0.00000000000E+00 -0.00000000000E+00 -0.14408892909E+04  0.14408892909E+04  0.00000000000E+00 0. -1.
         25    1    1    2    0    0  0.23657398709E+03  0.52290534024E+02 -0.67282652914E+02  0.28080866564E+03  0.12500000000E+03 0.  0.
         21    1    1    2  503  501 -0.11902182032E+03 -0.24226888606E+02 -0.18081830969E+03  0.21782652952E+03  0.00000000000E+00 0.  1.
          1    1    1    2  501    0 -0.11755216677E+03 -0.28063645418E+02 -0.10641006523E+04  0.10709417717E+04  0.00000000000E+00 0. -1.
<mgrwt>
<rscale>  4 0.22406516E+03</rscale>
<asrwt>0</asrwt>
<pdfrwt beam="1">  1       21 0.19798104E-01 0.22406516E+03</pdfrwt>
<pdfrwt beam="2">  1        1 0.22167528E+00 0.22406516E+03</pdfrwt>
<totfact> 0.20587410E+03</totfact>
</mgrwt>
</event>
<event>
 5    0  0.4115852E+000  0.4424278E+03  0.7546771E-02  0.1030005E+00
          2   -1    0    0  502    0 -0.00000000000E+00  0.00000000000E+00  0.25056749808E+04  0.25056749808E+04  0.00000000000E+00 0. -1.
         21   -1    0    0  503  502  0.00000000000E+00 -0.00000000000E+00 -0.16584583992E+03  0.16584583992E+03  0.00000000000E+00 0.  1.
         25    1    1    2    0    0  0.39075646046E+03 -0.33795836667E+02  0.20827284324E+03  0.46134081458E+03  0.12500000000E+03 0.  0.
         21    1    1    2  503  501  0.38270577368E+02  0.76835833370E+02  0.93153152702E+02  0.12667238152E+03  0.00000000000E+00 0.  1.
          2    1    1    2  501    0 -0.42902703783E+03 -0.43039996703E+02  0.20384031450E+04  0.20835076246E+04  0.00000000000E+00 0. -1.
<mgrwt>
<rscale>  4 0.44242775E+03</rscale>
<asrwt>0</asrwt>
<pdfrwt beam="1">  1       21 0.25514746E-01 0.44242775E+03</pdfrwt>
<pdfrwt beam="2">  1        2 0.38548843E+00 0.44242775E+03</pdfrwt>
<totfact> 0.66813240E+02</totfact>
</mgrwt>
</event>
<event>
 5    0  0.4115852E+000  0.2554772E+03  0.7546771E-02  0.1109891E+00
         21   -1    0    0  503  502  0.00000000000E+00  0.00000000000E+00  0.23893412100E+03  0.23893412100E+03  0.00000000000E+00 0. -1.
          1   -1    0    0  502    0 -0.00000000000E+00 -0.00000000000E+00 -0.53183313662E+03  0.53183313662E+03  0.00000000000E+00 0. -1.
         25    1    1    2    0    0  0.20488950775E+03  0.81222269793E+02 -0.41411019692E+03  0.48547813822E+03  0.12500000000E+03 0.  0.
         21    1    1    2  503  501  0.19886233212E+02 -0.93912226977E+01  0.66465540352E+01  0.22974638532E+02  0.00000000000E+00 0.  1.
          1    1    1    2  501    0 -0.22477574097E+03 -0.71831047095E+02  0.11456462726E+03  0.26231448087E+03  0.00000000000E+00 0. -1.
<mgrwt>
<rscale>  4 0.25547716E+03</rscale>
<asrwt>0</asrwt>
<pdfrwt beam="1">  1       21 0.36759096E-01 0.25547716E+03</pdfrwt>
<pdfrwt beam="2">  1        1 0.81820482E-01 0.25547716E+03</pdfrwt>
<totfact> 0.32122237E+03</totfact>
</mgrwt>
</event>
<event>
 5    0  0.4115852E+000  0.3747247E+03  0.7546771E-02  0.1052901E+00
          2   -1    0    0  502    0 -0.00000000000E+00  0.00000000000E+00  0.20824163194E+04  0.20824163194E+04  0.00000000000E+00 0. -1.
         21   -1    0    0  503  502  0.00000000000E+00 -0.00000000000E+00 -0.31281464124E+03  0.31281464124E+03  0.00000000000E+00 0. -1.
         25    1    1    2    0    0  0.36190565024E+03  0.92068832751E+02 -0.15731692348E+03  0.42405893936E+03  0.12500000000E+03 0.  0.
         21    1    1    2  503  501 -0.21393613619E+02 -0.22948504040E+01  0.13025610457E+02  0.25151929744E+02  0.00000000000E+00 0. -1.
          2    1    1    2  501    0 -0.34051203662E+03 -0.89773982347E+02  0.19138929912E+04  0.19460200916E+04  0.00000000000E+00 0. -1.
<mgrwt>
<rscale>  4 0.37472473E+03</rscale>
<asrwt>0</asrwt>
<pdfrwt beam="1">  1       21 0.48125331E-01 0.37472473E+03</pdfrwt>
<pdfrwt beam="2">  1        2 0.32037173E+00 0.37472473E+03</pdfrwt>
<totfact> 0.32296060E+02</totfact>
</mgrwt>
</event>
<event>
 5    0  0.4115852E+000  0.3120239E+03  0.7546771E-02  0.1079380E+00
          2   -1    0    0  502    0 -0.00000000000E+00  0.00000000000E+00  0.22399725060E+04  0.22399725060E+04  0.00000000000E+00 0.  1.
         21   -1    0    0  503  502  0.00000000000E+00 -0.00000000000E+00 -0.62814740526E+02  0.62814740526E+02  0.00000000000E+00 0.  1.
         25    1    1    2    0    0 -0.28111078985E+03 -0.52063954398E+02  0.43395530894E+03  0.53448680215E+03  0.12500000000E+03 0.  0.
         21    1    1    2  503  501  0.46451475780E+02 -0.15381226192E+02  0.19978165720E+03  0.20568673334E+03  0.00000000000E+00 0.  1.
          2    1    1    2  501    0  0.23465931407E+03  0.67445180589E+02  0.15434207994E+04  0.15626137111E+04  0.00000000000E+00 0.  1.
<mgrwt>
<rscale>  4 0.31202393E+03</rscale>
<asrwt>0</asrwt>
<pdfrwt beam="1">  1       21 0.96638079E-02 0.31202393E+03</pdfrwt>
<pdfrwt beam="2">  1        2 0.34461109E+00 0.31202393E+03</pdfrwt>
<totfact> 0.59251766E+03</totfact>
</mgrwt>
</event>
<event>
 5    0  0.4115852E+000  0.2769048E+03  0.7546771E-02  0.1097392E+00
         21   -1    0    0  503  502  0.00000000000E+00  0.00000000000E+00  0.20604338766E+03  0.20604338766E+03  0.00000000000E+00 0. -1.
          2   -1    0    0  502    0 -0.00000000000E+00 -0.00000000000E+00 -0.10583571141E+04  0.10583571141E+04  0.00000000000E+00 0. -1.
         25    1    1    2    0    0 -0.84624831421E+02  0.26087935019E+03 -0.39891768180E+03  0.49997971389E+03  0.12500000000E+03 0.  0.
         21    1    1    2  503  501  0.26800212716E+02 -0.33110139159E+02  0.12929344505E+03  0.13612981911E+03  0.00000000000E+00 0. -1.
          2    1    1    2  501    0  0.57824618705E+02 -0.22776921103E+03 -0.58268948970E+03  0.62829096876E+03  0.00000000000E+00 0. -1.
<mgrwt>
<rscale>  4 0.27690483E+03</rscale>
<asrwt>0</asrwt>
<pdfrwt beam="1">  1       21 0.31698982E-01 0.27690483E+03</pdfrwt>
<pdfrwt beam="2">  1        2 0.16282418E+00 0.27690483E+03</pdfrwt>
<totfact> 0.28496768E+03</totfact>
</mgrwt>
</event>
<event>
 5    0  0.4115852E+000  0.2493121E+03  0.7546771E-02  0.1113740E+00
          1   -1    0    0  502    0 -0.00000000000E+00  0.00000000000E+00  0.89599688029E+03  0.89599688029E+03  0.00000000000E+00 0.  1.
         21   -1    0    0  503  502  0.00000000000E+00 -0.00000000000E+00 -0.93946944647E+03  0.93946944647E+03  0.00000000000E+00 0.  1.
         25    1    1    2    0    0  0.13715872004E+03 -0.14610626245E+03 -0.16101901764E+03  0.28585254670E+03  0.12500000000E+03 0.  0.
         21    1    1    2  503  501 -0.15454636630E+02 -0.33343491910E+02 -0.70144442260E+03  0.70240651495E+03  0.00000000000E+00 0.  1.
          1    1    1    2  501    0 -0.12170408341E+03  0.17944975436E+03  0.81899087406E+03  0.84720726511E+03  0.00000000000E+00 0.  1.
<mgrwt>
<rscale>  4 0.24931214E+03</rscale>
<asrwt>0</asrwt>
<pdfrwt beam="1">  1       21 0.14453376E+00 0.24931214E+03</pdfrwt>
<pdfrwt beam="2">  1        1 0.13784567E+00 0.24931214E+03</pdfrwt>
<totfact> 0.67656894E+01</totfact>
</mgrwt>
</event>
<event>
 5    0  0.4115852E+000  0.3452300E+03  0.7546771E-02  0.1064590E+00
         21   -1    0    0  503  502  0.00000000000E+00  0.00000000000E+00  0.13072355563E+04  0.13072355563E+04  0.00000000000E+00 0. -1.
          2   -1    0    0  502    0 -0.00000000000E+00 -0.00000000000E+00 -0.50831039008E+03  0.50831039008E+03  0.00000000000E+00 0. -1.
         25    1    1    2    0    0 -0.16218677377E+03  0.21343182910E+03  0.99473851629E+03  0.10377800398E+04  0.12500000000E+03 0.  0.
         21    1    1    2  503  501 -0.22318124414E+02  0.53758821704E+02  0.23284515822E+03  0.24001036914E+03  0.00000000000E+00 0.  1.
          2    1    1    2  501    0  0.18450489819E+03 -0.26719065081E+03 -0.42865850826E+03  0.53775553743E+03  0.00000000000E+00 0. -1.
<mgrwt>
<rscale>  4 0.34522996E+03</rscale>
<asrwt>0</asrwt>
<pdfrwt beam="1">  1       21 0.20111316E+00 0.34522996E+03</pdfrwt>
<pdfrwt beam="2">  1        2 0.78201599E-01 0.34522996E+03</pdfrwt>
<totfact> 0.90537327E+01</totfact>
</mgrwt>
</event>
<event>
 5    0  0.4115852E+000  0.3262809E+03  0.7546771E-02  0.1072794E+00
         -3   -1    0    0    0  501 -0.00000000000E+00  0.00000000000E+00  0.42999828889E+03  0.42999828889E+03  0.00000000000E+00 0. -1.
         21   -1    0    0  501  502  0.00000000000E+00 -0.00000000000E+00 -0.49666037237E+03  0.49666037237E+03  0.00000000000E+00 0. -1.
         25    1    1    2    0    0 -0.56726919011E+02 -0.30385996927E+03  0.46309814371E+02  0.33662801899E+03  0.12500000000E+03 0.  0.
         21    1    1    2  503  502  0.18061393823E+02  0.97470263675E+01 -0.25870831109E+03  0.25952111417E+03  0.00000000000E+00 0. -1.
         -3    1    1    2    0  503  0.38665525188E+02  0.29411294290E+03  0.14573641325E+03  0.33050952810E+03  0.00000000000E+00 0. -1.
<mgrwt>
<rscale>  4 0.32628091E+03</rscale>
<asrwt>0</asrwt>
<pdfrwt beam="1">  1       21 0.76409288E-01 0.32628091E+03</pdfrwt>
<pdfrwt beam="2">  1       -3 0.66153583E-01 0.32628091E+03</pdfrwt>
<totfact> 0.16306722E+02</totfact>
</mgrwt>
</event>
<event>
 5    0  0.4115852E+000  0.2279430E+03  0.7546771E-02  0.1128096E+00
         21   -1    0    0  503  502  0.00000000000E+00  0.00000000000E+00  0.13414241473E+03  0.13414241473E+03  0.00000000000E+00 0.  1.
          1   -1    0    0  502    0 -0.00000000000E+00 -0.00000000000E+00 -0.21572603804E+04  0.21572603804E+04  0.00000000000E+00 0.  1.
         25    1    1    2    0    0  0.12089251957E+03  0.21731226763E+03 -0.75448412401E+02  0.28836970348E+03  0.12500000000E+03 0.  0.
         21    1    1    2  503  501 -0.45772355460E+02 -0.44798185627E+02 -0.21299617488E+02  0.67495627007E+02  0.00000000000E+00 0.  1.
          1    1    1    2  501    0 -0.75120164110E+02 -0.17251408200E+03 -0.19263699358E+04  0.19355374647E+04  0.00000000000E+00 0.  1.
<mgrwt>
<rscale>  4 0.22794305E+03</rscale>
<asrwt>0</asrwt>
<pdfrwt beam="1">  1       21 0.20637296E-01 0.22794305E+03</pdfrwt>
<pdfrwt beam="2">  1        1 0.33188619E+00 0.22794305E+03</pdfrwt>
<totfact> 0.65014574E+02</totfact>
</mgrwt>
</event>
<event>
 5    0  0.4115852E+000  0.3246094E+03  0.7546771E-02  0.1073547E+00
          2   -1    0    0  502    0 -0.00000000000E+00  0.00000000000E+00  0.47421078227E+03  0.47421078227E+03  0.00000000000E+00 0. -1.
         21   -1    0    0  503  502  0.00000000000E+00 -0.00000000000E+00 -0.16775658399E+04  0.16775658399E+04  0.00000000000E+00 0. -1.
         25    1    1    2    0    0  0.33406687537E+03 -0.39305435092E+02 -0.22477133564E+03  0.42342974361E+03  0.12500000000E+03 0.  0.
         21    1    1    2  503  501 -0.41213434571E+02  0.25432684578E+02 -0.12956218144E+04  0.12965266116E+04  0.00000000000E+00 0. -1.
          2    1    1    2  501    0 -0.29285344080E+03  0.13872750514E+02  0.31703809236E+03  0.43182026701E+03  0.00000000000E+00 0. -1.
<mgrwt>
<rscale>  4 0.32460940E+03</rscale>
<asrwt>0</asrwt>
<pdfrwt beam="1">  1       21 0.25808705E+00 0.32460940E+03</pdfrwt>
<pdfrwt beam="2">  1        2 0.72955506E-01 0.32460940E+03</pdfrwt>
<totfact> 0.43759982E+01</totfact>
</mgrwt>
</event>
<event>
 5    0  0.4115852E+000  0.2621472E+03  0.7546771E-02  0.1105860E+00
          2   -1    0    0  502    0 -0.00000000000E+00  0.00000000000E+00  0.25630465462E+04  0.25630465462E+04  0.00000000000E+00 0. -1.
         21   -1    0    0  503  502  0.00000000000E+00 -0.00000000000E+00 -0.12381688164E+03  0.12381688164E+03  0.00000000000E+00 0. -1.
         25    1    1    2    0    0 -0.25301454634E+03  0.23015840760E+02  0.11885375123E+03  0.30707866056E+03  0.12500000000E+03 0.  0.
         21    1    1    2  503  501  0.24610780477E+02 -0.61856336426E+01 -0.17431190690E+02  0.30786344182E+02  0.00000000000E+00 0. -1.
          2    1    1    2  501    0  0.22840376587E+03 -0.16830207117E+02  0.23378071040E+04  0.23489984231E+04  0.00000000000E+00 0. -1.
<mgrwt>
<rscale>  4 0.26214724E+03</rscale>
<asrwt>0</asrwt>
<pdfrwt beam="1">  1       21 0.19048753E-01 0.26214724E+03</pdfrwt>
<pdfrwt beam="2">  1        2 0.39431481E+00 0.26214724E+03</pdfrwt>
<totfact> 0.11717910E+03</totfact>
</mgrwt>
</event>
<event>
 5    0  0.4115852E+000  0.3385550E+03  0.7546771E-02  0.1067413E+00
          3   -1    0    0  502    0 -0.00000000000E+00  0.00000000000E+00  0.58905614571E+03  0.58905614571E+03  0.00000000000E+00 0. -1.
         21   -1    0    0  503  502  0.00000000000E+00 -0.00000000000E+00 -0.25228935551E+03  0.25228935551E+03  0.00000000000E+00 0. -1.
         25    1    1    2    0    0  0.18510292755E+03 -0.23062136410E+03  0.18408032933E+03  0.37008090333E+03  0.12500000000E+03 0.  0.
         21    1    1    2  503  501  0.94415615603E+02  0.28751453054E+02  0.14256526304E+02  0.99720625072E+02  0.00000000000E+00 0.  1.
          3    1    1    2  501    0 -0.27951854315E+03  0.20186991104E+03  0.13842993457E+03  0.37154397281E+03  0.00000000000E+00 0. -1.
<mgrwt>
<rscale>  4 0.33855504E+03</rscale>
<asrwt>0</asrwt>
<pdfrwt beam="1">  1       21 0.38813747E-01 0.33855504E+03</pdfrwt>
<pdfrwt beam="2">  1        3 0.90624022E-01 0.33855504E+03</pdfrwt>
<totfact> 0.34918696E+02</totfact>
</mgrwt>
</event>
<event>
 5    0  0.4115852E+000  0.2412263E+03  0.7546771E-02  0.1118979E+00
         21   -1    0    0  503  502  0.00000000000E+00  0.00000000000E+00  0.40565501716E+03  0.40565501716E+03  0.00000000000E+00 0. -1.
          2   -1    0    0  502    0 -0.00000000000E+00 -0.00000000000E+00 -0.13250995198E+04  0.13250995198E+04  0.00000000000E+00 0.  1.
         25    1    1    2    0    0  0.14434061571E+03  0.24612371888E+03 -0.54608195538E+03  0.62868243202E+03  0.12500000000E+03 0.  0.
         21    1    1    2  503  501 -0.78185206202E+02 -0.73674636695E+02  0.34448284119E+03  0.36084526661E+03  0.00000000000E+00 0. -1.
          2    1    1    2  501    0 -0.66155409511E+02 -0.17244908218E+03 -0.71784538840E+03  0.74122683829E+03  0.00000000000E+00 0.  1.
<mgrwt>
<rscale>  4 0.24122627E+03</rscale>
<asrwt>0</asrwt>
<pdfrwt beam="1">  1       21 0.62408464E-01 0.24122627E+03</pdfrwt>
<pdfrwt beam="2">  1        2 0.20386147E+00 0.24122627E+03</pdfrwt>
<totfact> 0.50211836E+02</totfact>
</mgrwt>
</event>
<event>
 5    0  0.4115852E+000  0.2567067E+03  0.7546771E-02  0.1109138E+00
         21   -1    0    0  503  502  0.00000000000E+00  0.00000000000E+00  0.43236043654E+03  0.43236043654E+03  0.00000000000E+00 0.  1.
          2   -1    0    0  502    0 -0.00000000000E+00 -0.00000000000E+00 -0.26611885696E+04  0.26611885696E+04  0.00000000000E+00 0. -1.
         25    1    1    2    0    0  0.15061155740E+03  0.19697100463E+03 -0.19423088648E+04  0.19620576302E+04  0.12500000000E+03 0.  0.
         21    1    1    2  503  501 -0.11718705044E+03 -0.19075483724E+03  0.39237288649E+03  0.45174848619E+03  0.00000000000E+00 0.  1.
          2    1    1    2  501    0 -0.33424506962E+02 -0.62161673895E+01 -0.67889215477E+03  0.67974288978E+03  0.00000000000E+00 0. -1.
<mgrwt>
<rscale>  4 0.25670673E+03</rscale>
<asrwt>0</asrwt>
<pdfrwt beam="1">  1       21 0.66516991E-01 0.25670673E+03</pdfrwt>
<pdfrwt beam="2">  1        2 0.40941362E+00 0.25670673E+03</pdfrwt>
<totfact> 0.83533316E+01</totfact>
</mgrwt>
</event>
<event>
 5    0  0.4115852E+000  0.2762322E+03  0.7546771E-02  0.1097765E+00
          2   -1    0    0  502    0 -0.00000000000E+00  0.00000000000E+00  0.20193078534E+04  0.20193078534E+04  0.00000000000E+00 0. -1.
         21   -1    0    0  503  502  0.00000000000E+00 -0.00000000000E+00 -0.51133634951E+02  0.51133634951E+02  0.00000000000E+00 0. -1.
         25    1    1    2    0    0 -0.22784824280E+03 -0.60471322919E+02  0.45878059836E+03  0.53073179674E+03  0.12500000000E+03 0.  0.
         21    1    1    2  503  501 -0.16767476080E+02  0.11439078742E+02  0.16625209563E+02  0.26237346847E+02  0.00000000000E+00 0. -1.
          2    1    1    2  501    0  0.24461571888E+03  0.49032244177E+02  0.14927684105E+04  0.15134723447E+04  0.00000000000E+00 0. -1.
<mgrwt>
<rscale>  4 0.27623220E+03</rscale>
<asrwt>0</asrwt>
<pdfrwt beam="1">  1       21 0.78667146E-02 0.27623220E+03</pdfrwt>
<pdfrwt beam="2">  1        2 0.31066269E+00 0.27623220E+03</pdfrwt>
<totfact> 0.11291619E+04</totfact>
</mgrwt>
</event>
<event>
 5    0  0.4115852E+000  0.3033624E+03  0.7546771E-02  0.1083572E+00
         21   -1    0    0  503  502  0.00000000000E+00  0.00000000000E+00  0.13743774805E+04  0.13743774805E+04  0.00000000000E+00 0. -1.
          2   -1    0    0  502    0 -0.00000000000E+00 -0.00000000000E+00 -0.71895584898E+03  0.71895584898E+03  0.00000000000E+00 0. -1.
         25    1    1    2    0    0  0.31294179340E+03 -0.99625559476E+02  0.88052975267E+03  0.94805878694E+03  0.12500000000E+03 0.  0.
         21    1    1    2  503  501 -0.16703927247E+03  0.17690582516E+03  0.41672094009E+03  0.48254961551E+03  0.00000000000E+00 0. -1.
          2    1    1    2  501    0 -0.14590252094E+03 -0.77280265687E+02 -0.64182906122E+03  0.66272492703E+03  0.00000000000E+00 0. -1.
<mgrwt>
<rscale>  4 0.30336241E+03</rscale>
<asrwt>0</asrwt>
<pdfrwt beam="1">  1       21 0.21144269E+00 0.30336241E+03</pdfrwt>
<pdfrwt beam="2">  1        2 0.11060859E+00 0.30336241E+03</pdfrwt>
<totfact> 0.52873427E+01</totfact>
</mgrwt>
</event>
<event>
 5    0  0.4799936E+000  0.2479790E+03  0.7546771E-02  0.1114589E+00
         21   -1    0    0  503  502  0.00000000000E+00  0.00000000000E+00  0.62333135163E+02  0.62333135163E+02  0.00000000000E+00 0. -1.
          2   -1    0    0  502    0 -0.00000000000E+00 -0.00000000000E+00 -0.19419575518E+04  0.19419575518E+04  0.00000000000E+00 0.  1.
         25    1    1    2    0    0 -0.17499181458E+03  0.12602146608E+03 -0.25827147594E+03  0.35893272401E+03  0.12500000000E+03 0.  0.
         21    1    1    2  503  501  0.21234695579E+02  0.23177431638E+02 -0.47308376905E+02  0.56799543652E+02  0.00000000000E+00 0.  1.
          2    1    1    2  501    0  0.15375711900E+03 -0.14919889772E+03 -0.15740445638E+04  0.15885584193E+04  0.00000000000E+00 0.  1.
<mgrwt>
<rscale>  4 0.24797902E+03</rscale>
<asrwt>0</asrwt>
<pdfrwt beam="1">  1       21 0.95897138E-02 0.24797902E+03</pdfrwt>
<pdfrwt beam="2">  1        2 0.29876268E+00 0.24797902E+03</pdfrwt>
<totfact> 0.88278860E+03</totfact>
</mgrwt>
</event>
<event>
 5    0  0.4115852E+000  0.3181655E+03  0.7546771E-02  0.1076497E+00
          2   -1    0    0  502    0 -0.00000000000E+00  0.00000000000E+00  0.97999595933E+03  0.97999595933E+03  0.00000000000E+00 0. -1.
         21   -1    0    0  503  502  0.00000000000E+00 -0.00000000000E+00 -0.47920928802E+03  0.47920928802E+03  0.00000000000E+00 0. -1.
         25    1    1    2    0    0  0.32059541474E+03  0.19839994571E+03 -0.23606817872E+03  0.46205751094E+03  0.12500000000E+03 0.  0.
         21    1    1    2  503  501 -0.49841006716E+02 -0.10268238133E+03 -0.74613118405E+02  0.13636317254E+03  0.00000000000E+00 0. -1.
          2    1    1    2  501    0 -0.27075440802E+03 -0.95717564377E+02  0.81146796844E+03  0.86078456387E+03  0.00000000000E+00 0. -1.
<mgrwt>
<rscale>  4 0.31816547E+03</rscale>
<asrwt>0</asrwt>
<pdfrwt beam="1">  1       21 0.73724506E-01 0.31816547E+03</pdfrwt>
<pdfrwt beam="2">  1        2 0.15076861E+00 0.31816547E+03</pdfrwt>
<totfact> 0.53089886E+02</totfact>
</mgrwt>
</event>
<event>
 5    0  0.4115852E+000  0.2283587E+03  0.7546771E-02  0.1127800E+00
         21   -1    0    0  503  502  0.00000000000E+00  0.00000000000E+00  0.16016841678E+03  0.16016841678E+03  0.00000000000E+00 0.  1.
          1   -1    0    0  502    0 -0.00000000000E+00 -0.00000000000E+00 -0.15148187529E+04  0.15148187529E+04  0.00000000000E+00 0. -1.
         25    1    1    2    0    0  0.10945726352E+03  0.20272442899E+03  0.79717808488E+01  0.26223393361E+03  0.12500000000E+03 0.  0.
         21    1    1    2  503  501 -0.68972655669E+02 -0.17543683836E+02 -0.51125307575E+02  0.87628791771E+02  0.00000000000E+00 0.  1.
          1    1    1    2  501    0 -0.40484607850E+02 -0.18518074516E+03 -0.13114968093E+04  0.13251244443E+04  0.00000000000E+00 0. -1.
<mgrwt>
<rscale>  4 0.22835868E+03</rscale>
<asrwt>0</asrwt>
<pdfrwt beam="1">  1       21 0.24641295E-01 0.22835868E+03</pdfrwt>
<pdfrwt beam="2">  1        1 0.23304904E+00 0.22835868E+03</pdfrwt>
<totfact> 0.12129174E+03</totfact>
</mgrwt>
</event>
<event>
 5    0  0.4115852E+000  0.2437396E+03  0.7546771E-02  0.1117326E+00
         21   -1    0    0  503  502  0.00000000000E+00  0.00000000000E+00  0.19963345059E+02  0.19963345059E+02  0.00000000000E+00 0.  1.
          2   -1    0    0  502    0 -0.00000000000E+00 -0.00000000000E+00 -0.26286694886E+04  0.26286694886E+04  0.00000000000E+00 0.  1.
         25    1    1    2    0    0  0.16556968102E+03  0.12794784600E+03 -0.13838129236E+04  0.14051146494E+04  0.12500000000E+03 0.  0.
         21    1    1    2  503  501 -0.22196277194E+02 -0.67711116748E+00 -0.10350575009E+03  0.10586110477E+03  0.00000000000E+00 0. -1.
          2    1    1    2  501    0 -0.14337340383E+03 -0.12727073483E+03 -0.11213874699E+04  0.11376570795E+04  0.00000000000E+00 0.  1.
<mgrwt>
<rscale>  4 0.24373955E+03</rscale>
<asrwt>0</asrwt>
<pdfrwt beam="1">  1       21 0.30712855E-02 0.24373955E+03</pdfrwt>
<pdfrwt beam="2">  1        2 0.40441047E+00 0.24373955E+03</pdfrwt>
<totfact> 0.26669528E+04</totfact>
</mgrwt>
</event>
<event>
 5    0  0.4115852E+000  0.2392609E+03  0.7546771E-02  0.1120286E+00
         21   -1    0    0  503  502  0.00000000000E+00  0.00000000000E+00  0.14719112804E+03  0.14719112804E+03  0.00000000000E+00 0.  1.
          2   -1    0    0  502    0 -0.00000000000E+00 -0.00000000000E+00 -0.99257607378E+03  0.99257607378E+03  0.00000000000E+00 0.  1.
         25    1    1    2    0    0  0.21038026739E+03  0.88617388845E+02 -0.16036856809E+03  0.30570570185E+03  0.12500000000E+03 0.  0.
         21    1    1    2  503  501 -0.37337967843E+02  0.11374344519E+02  0.55050673010E+02  0.67483895522E+02  0.00000000000E+00 0.  1.
          2    1    1    2  501    0 -0.17304229954E+03 -0.99991733364E+02 -0.74006705067E+03  0.76657760446E+03  0.00000000000E+00 0.  1.
<mgrwt>
<rscale>  4 0.23926093E+03</rscale>
<asrwt>0</asrwt>
<pdfrwt beam="1">  1       21 0.22644789E-01 0.23926093E+03</pdfrwt>
<pdfrwt beam="2">  1        2 0.15270401E+00 0.23926093E+03</pdfrwt>
<totfact> 0.60687326E+03</totfact>
</mgrwt>
</event>
<event>
 5    0  0.4115852E+000  0.2485192E+03  0.7546771E-02  0.1114244E+00
         21   -1    0    0  501  502  0.00000000000E+00  0.00000000000E+00  0.16437734928E+03  0.16437734928E+03  0.00000000000E+00 0.  1.
         -2   -1    0    0    0  501 -0.00000000000E+00 -0.00000000000E+00 -0.10411354458E+04  0.10411354458E+04  0.00000000000E+00 0.  1.
         25    1    1    2    0    0  0.83254091159E+02 -0.21708212084E+03 -0.24542526668E+03  0.36043647486E+03  0.12500000000E+03 0.  0.
         21    1    1    2  503  502 -0.10317767217E+02  0.19959507738E+02  0.90509291392E+02  0.93256474830E+02  0.00000000000E+00 0.  1.
         -2    1    1    2    0  503 -0.72936323943E+02  0.19712261310E+03 -0.72184212122E+03  0.75181984538E+03  0.00000000000E+00 0.  1.
<mgrwt>
<rscale>  4 0.24851916E+03</rscale>
<asrwt>0</asrwt>
<pdfrwt beam="1">  1       21 0.25288824E-01 0.24851916E+03</pdfrwt>
<pdfrwt beam="2">  1       -2 0.16017468E+00 0.24851916E+03</pdfrwt>
<totfact> 0.32065757E+02</totfact>
</mgrwt>
</event>
<event>
 5    0  0.4115852E+000  0.2576925E+03  0.7546771E-02  0.1108538E+00
          1   -1    0    0  502    0 -0.00000000000E+00  0.00000000000E+00  0.12871798999E+04  0.12871798999E+04  0.00000000000E+00 0.  1.
         21   -1    0    0  503  502  0.00000000000E+00 -0.00000000000E+00 -0.18471337117E+03  0.18471337117E+03  0.00000000000E+00 0.  1.
         25    1    1    2    0    0  0.17530224556E+03  0.20255828341E+03  0.22235478422E+02  0.29644586686E+03  0.12500000000E+03 0.  0.
         21    1    1    2  503  501 -0.40547874874E+02 -0.26203343828E+02 -0.20582662211E+02  0.52482295760E+02  0.00000000000E+00 0.  1.
          1    1    1    2  501    0 -0.13475437069E+03 -0.17635493958E+03  0.11008137125E+04  0.11229651084E+04  0.00000000000E+00 0.  1.
<mgrwt>
<rscale>  4 0.25769252E+03</rscale>
<asrwt>0</asrwt>
<pdfrwt beam="1">  1       21 0.28417442E-01 0.25769252E+03</pdfrwt>
<pdfrwt beam="2">  1        1 0.19802767E+00 0.25769252E+03</pdfrwt>
<totfact> 0.12909686E+03</totfact>
</mgrwt>
</event>
<event>
 5    0  0.4115852E+000  0.4454209E+03  0.7546771E-02  0.1029096E+00
         21   -1    0    0  503  502  0.00000000000E+00  0.00000000000E+00  0.12267188816E+03  0.12267188816E+03  0.00000000000E+00 0.  1.
          1   -1    0    0  502    0 -0.00000000000E+00 -0.00000000000E+00 -0.29647645816E+04  0.29647645816E+04  0.00000000000E+00 0. -1.
         25    1    1    2    0    0  0.37925854524E+03 -0.16753851212E+03 -0.42973446189E+03  0.61008434246E+03  0.12500000000E+03 0.  0.
         21    1    1    2  503  501 -0.11974379690E+02 -0.57973139238E+02 -0.54621254787E+02  0.80546583519E+02  0.00000000000E+00 0.  1.
          1    1    1    2  501    0 -0.36728416555E+03  0.22551165135E+03 -0.23577369767E+04  0.23968055437E+04  0.00000000000E+00 0. -1.
<mgrwt>
<rscale>  4 0.44542091E+03</rscale>
<asrwt>0</asrwt>
<pdfrwt beam="1">  1       21 0.18872599E-01 0.44542091E+03</pdfrwt>
<pdfrwt beam="2">  1        1 0.45611760E+00 0.44542091E+03</pdfrwt>
<totfact> 0.19852048E+02</totfact>
</mgrwt>
</event>
<event>
 5    0  0.4115852E+000  0.2467465E+03  0.7546771E-02  0.1115378E+00
          2   -1    0    0  502    0 -0.00000000000E+00  0.00000000000E+00  0.15596097652E+04  0.15596097652E+04  0.00000000000E+00 0. -1.
         21   -1    0    0  503  502  0.00000000000E+00 -0.00000000000E+00 -0.76940266661E+02  0.76940266661E+02  0.00000000000E+00 0. -1.
         25    1    1    2    0    0 -0.42208539077E+01 -0.23990003662E+03  0.39524843061E+03  0.47897407558E+03  0.12500000000E+03 0.  0.
         21    1    1    2  503  501  0.44322892219E+02  0.19182028160E+03  0.25187842384E+03  0.31969091261E+03  0.00000000000E+00 0. -1.
          2    1    1    2  501    0 -0.40102038311E+02  0.48079755022E+02  0.83554264409E+03  0.83788504367E+03  0.00000000000E+00 0. -1.
<mgrwt>
<rscale>  4 0.24674655E+03</rscale>
<asrwt>0</asrwt>
<pdfrwt beam="1">  1       21 0.11836965E-01 0.24674655E+03</pdfrwt>
<pdfrwt beam="2">  1        2 0.23993994E+00 0.24674655E+03</pdfrwt>
<totfact> 0.96329809E+03</totfact>
</mgrwt>
</event>
<event>
 5    0  0.4115852E+000  0.2663758E+03  0.7546771E-02  0.1103372E+00
          2   -1    0    0  502    0 -0.00000000000E+00  0.00000000000E+00  0.15690860708E+04  0.15690860708E+04  0.00000000000E+00 0.  1.
         21   -1    0    0  503  502  0.00000000000E+00 -0.00000000000E+00 -0.55216354754E+03  0.55216354754E+03  0.00000000000E+00 0. -1.
         25    1    1    2    0    0  0.14983235788E+02  0.24498032119E+03 -0.43139467690E+03  0.51182635960E+03  0.12500000000E+03 0.  0.
         21    1    1    2  503  501 -0.45483532221E+02 -0.11853800603E+02 -0.63739884357E+02  0.79196194036E+02  0.00000000000E+00 0.  1.
          2    1    1    2  501    0  0.30500296432E+02 -0.23312652058E+03  0.15120570845E+04  0.15302270646E+04  0.00000000000E+00 0.  1.
<mgrwt>
<rscale>  4 0.26637577E+03</rscale>
<asrwt>0</asrwt>
<pdfrwt beam="1">  1       21 0.84948239E-01 0.26637577E+03</pdfrwt>
<pdfrwt beam="2">  1        2 0.24139785E+00 0.26637577E+03</pdfrwt>
<totfact> 0.18313033E+02</totfact>
</mgrwt>
</event>
<event>
 5    0  0.4115852E+000  0.2094752E+03  0.7546771E-02  0.1141982E+00
         -3   -1    0    0    0  501 -0.00000000000E+00  0.00000000000E+00  0.61447938908E+02  0.61447938908E+02  0.00000000000E+00 0.  1.
         21   -1    0    0  501  502  0.00000000000E+00 -0.00000000000E+00 -0.15031543368E+04  0.15031543368E+04  0.00000000000E+00 0.  1.
         25    1    1    2    0    0 -0.20897860935E+03 -0.12986863441E+03 -0.82052773295E+03  0.86569549029E+03  0.12500000000E+03 0.  0.
         21    1    1    2  503  502  0.68048536093E+02  0.71116794732E+02 -0.48316644927E+03  0.49309027516E+03  0.00000000000E+00 0.  1.
         -3    1    1    2    0  503  0.14093007325E+03  0.58751839682E+02 -0.13801221562E+03  0.20581651021E+03  0.00000000000E+00 0.  1.
<mgrwt>
<rscale>  4 0.20947517E+03</rscale>
<asrwt>0</asrwt>
<pdfrwt beam="1">  1       21 0.23125449E+00 0.20947517E+03</pdfrwt>
<pdfrwt beam="2">  1       -3 0.94535300E-02 0.20947517E+03</pdfrwt>
<totfact> 0.33988418E+02</totfact>
</mgrwt>
</event>
<event>
 5    0  0.4115852E+000  0.2259484E+03  0.7546771E-02  0.1129524E+00
         -1   -1    0    0    0  501 -0.00000000000E+00  0.00000000000E+00  0.29580276479E+03  0.29580276479E+03  0.00000000000E+00 0.  1.
         21   -1    0    0  501  502  0.00000000000E+00 -0.00000000000E+00 -0.46582799321E+03  0.46582799321E+03  0.00000000000E+00 0.  1.
         25    1    1    2    0    0 -0.17152161645E+03 -0.10397393007E+03 -0.37244155284E+03  0.44109857552E+03  0.12500000000E+03 0.  0.
         21    1    1    2  503  502  0.25940848396E+01  0.23171316633E+02 -0.19336630180E+02  0.30290996309E+02  0.00000000000E+00 0.  1.
         -1    1    1    2    0  503  0.16892753161E+03  0.80802613436E+02  0.22175295460E+03  0.29024118617E+03  0.00000000000E+00 0.  1.
<mgrwt>
<rscale>  4 0.22594837E+03</rscale>
<asrwt>0</asrwt>
<pdfrwt beam="1">  1       21 0.71665845E-01 0.22594837E+03</pdfrwt>
<pdfrwt beam="2">  1       -1 0.45508118E-01 0.22594837E+03</pdfrwt>
<totfact> 0.78223844E+02</totfact>
</mgrwt>
</event>
<event>
 5    0  0.4115852E+000  0.2545875E+03  0.7546771E-02  0.1110440E+00
         21   -1    0    0  503  502  0.00000000000E+00  0.00000000000E+00  0.41241938356E+03  0.41241938356E+03  0.00000000000E+00 0. -1.
          1   -1    0    0  502    0 -0.00000000000E+00 -0.00000000000E+00 -0.32993382693E+03  0.32993382693E+03  0.00000000000E+00 0.  1.
         25    1    1    2    0    0 -0.12193510255E+03 -0.21441603083E+03 -0.18830974727E+02  0.27716783565E+03  0.12500000000E+03 0.  0.
         21    1    1    2  503  501  0.32521590967E+02  0.24178844924E+02  0.22006153032E+03  0.22376180985E+03  0.00000000000E+00 0. -1.
          1    1    1    2  501    0  0.89413511580E+02  0.19023718591E+03 -0.11874499896E+03  0.24142356499E+03  0.00000000000E+00 0.  1.
<mgrwt>
<rscale>  4 0.25458745E+03</rscale>
<asrwt>0</asrwt>
<pdfrwt beam="1">  1       21 0.63449136E-01 0.25458745E+03</pdfrwt>
<pdfrwt beam="2">  1        1 0.50759050E-01 0.25458745E+03</pdfrwt>
<totfact> 0.19073787E+03</totfact>
</mgrwt>
</event>
<event>
 5    0  0.4115852E+000  0.2481849E+03  0.7546771E-02  0.1114457E+00
         21   -1    0    0  503  502  0.00000000000E+00  0.00000000000E+00  0.13740692267E+03  0.13740692267E+03  0.00000000000E+00 0. -1.
          3   -1    0    0  502    0 -0.00000000000E+00 -0.00000000000E+00 -0.14406723774E+04  0.14406723774E+04  0.00000000000E+00 0.  1.
         25    1    1    2    0    0 -0.82551205373E+02 -0.22939442094E+03 -0.58062246187E+03  0.64201553337E+03  0.12500000000E+03 0.  0.
         21    1    1    2  503  501  0.46422020743E+02  0.29335346222E+02  0.86121735204E+02  0.10213970737E+03  0.00000000000E+00 0.  1.
          3    1    1    2  501    0  0.36129184631E+02  0.20005907472E+03 -0.80876472811E+03  0.83392405937E+03  0.00000000000E+00 0.  1.
<mgrwt>
<rscale>  4 0.24818490E+03</rscale>
<asrwt>0</asrwt>
<pdfrwt beam="1">  1       21 0.21139527E-01 0.24818490E+03</pdfrwt>
<pdfrwt beam="2">  1        3 0.22164190E+00 0.24818490E+03</pdfrwt>
<totfact> 0.12157419E+02</totfact>
</mgrwt>
</event>
<event>
 5    0  0.4115852E+000  0.2792313E+03  0.7546771E-02  0.1096110E+00
         21   -1    0    0  503  502  0.00000000000E+00  0.00000000000E+00  0.49834216510E+02  0.49834216510E+02  0.00000000000E+00 0. -1.
          1   -1    0    0  502    0 -0.00000000000E+00 -0.00000000000E+00 -0.16929865424E+04  0.16929865424E+04  0.00000000000E+00 0. -1.
         25    1    1    2    0    0 -0.11469345966E+03 -0.22178936956E+03 -0.52435742959E+03  0.59407139984E+03  0.12500000000E+03 0.  0.
         21    1    1    2  503  501  0.44584644262E+02  0.80283722462E+02 -0.58222094482E+03  0.58941877743E+03  0.00000000000E+00 0. -1.
          1    1    1    2  501    0  0.70108815399E+02  0.14150564710E+03 -0.53657395143E+03  0.55933058159E+03  0.00000000000E+00 0. -1.
<mgrwt>
<rscale>  4 0.27923129E+03</rscale>
<asrwt>0</asrwt>
<pdfrwt beam="1">  1       21 0.76668023E-02 0.27923129E+03</pdfrwt>
<pdfrwt beam="2">  1        1 0.26045948E+00 0.27923129E+03</pdfrwt>
<totfact> 0.76391252E+03</totfact>
</mgrwt>
</event>
<event>
 5    0  0.4115852E+000  0.2352220E+03  0.7546771E-02  0.1123017E+00
         21   -1    0    0  503  502  0.00000000000E+00  0.00000000000E+00  0.33899914164E+03  0.33899914164E+03  0.00000000000E+00 0. -1.
          1   -1    0    0  502    0 -0.00000000000E+00 -0.00000000000E+00 -0.30281713028E+03  0.30281713028E+03  0.00000000000E+00 0.  1.
         25    1    1    2    0    0 -0.25392527157E+03 -0.39286367602E+02  0.84774112265E+02  0.29804884219E+03  0.12500000000E+03 0.  0.
         21    1    1    2  503  501  0.72189583176E+02  0.36651568035E+01  0.87831066724E+02  0.11375001352E+03  0.00000000000E+00 0.  1.
          1    1    1    2  501    0  0.18173568839E+03  0.35621210798E+02 -0.13642316763E+03  0.23001741621E+03  0.00000000000E+00 0.  1.
<mgrwt>
<rscale>  4 0.23522205E+03</rscale>
<asrwt>0</asrwt>
<pdfrwt beam="1">  1       21 0.52153714E-01 0.23522205E+03</pdfrwt>
<pdfrwt beam="2">  1        1 0.46587251E-01 0.23522205E+03</pdfrwt>
<totfact> 0.32567018E+03</totfact>
</mgrwt>
</event>
<event>
 5    0  0.4115852E+000  0.2650480E+03  0.7546771E-02  0.1104148E+00
         21   -1    0    0  503  502  0.00000000000E+00  0.00000000000E+00  0.16067892676E+03  0.16067892676E+03  0.00000000000E+00 0.  1.
          2   -1    0    0  502    0 -0.00000000000E+00 -0.00000000000E+00 -0.21228355209E+04  0.21228355209E+04  0.00000000000E+00 0. -1.
         25    1    1    2    0    0  0.26395107635E+03  0.18456678132E+03 -0.22987152170E+03  0.41497106400E+03  0.12500000000E+03 0.  0.
         21    1    1    2  503  501 -0.15759331011E+03 -0.11370141652E+03 -0.78111354447E+02  0.20943984149E+03  0.00000000000E+00 0.  1.
          2    1    1    2  501    0 -0.10635776624E+03 -0.70865364793E+02 -0.16541737180E+04  0.16591035422E+04  0.00000000000E+00 0. -1.
<mgrwt>
<rscale>  4 0.26504804E+03</rscale>
<asrwt>0</asrwt>
<pdfrwt beam="1">  1       21 0.24719836E-01 0.26504804E+03</pdfrwt>
<pdfrwt beam="2">  1        2 0.32659006E+00 0.26504804E+03</pdfrwt>
<totfact> 0.12324914E+03</totfact>
</mgrwt>
</event>
<event>
 5    0  0.4115852E+000  0.2155867E+03  0.7546771E-02  0.1137217E+00
         21   -1    0    0  503  502  0.00000000000E+00  0.00000000000E+00  0.20160541118E+04  0.20160541118E+04  0.00000000000E+00 0. -1.
          2   -1    0    0  502    0 -0.00000000000E+00 -0.00000000000E+00 -0.82646952607E+03  0.82646952607E+03  0.00000000000E+00 0.  1.
         25    1    1    2    0    0 -0.19832697414E+03 -0.14942648755E+03  0.71822953145E+03  0.77015616838E+03  0.12500000000E+03 0.  0.
         21    1    1    2  503  501  0.96711737407E+02  0.71235193987E+01  0.12604276319E+04  0.12641525699E+04  0.00000000000E+00 0. -1.
          2    1    1    2  501    0  0.10161523673E+03  0.14230296815E+03 -0.78907257766E+03  0.80821489957E+03  0.00000000000E+00 0.  1.
<mgrwt>
<rscale>  4 0.21558670E+03</rscale>
<asrwt>0</asrwt>
<pdfrwt beam="1">  1       21 0.31016217E+00 0.21558670E+03</pdfrwt>
<pdfrwt beam="2">  1        2 0.12714916E+00 0.21558670E+03</pdfrwt>
<totfact> 0.12426717E+01</totfact>
</mgrwt>
</event>
<event>
 5    0  0.4115852E+000  0.3054278E+03  0.7546771E-02  0.1082558E+00
         21   -1    0    0  503  502  0.00000000000E+00  0.00000000000E+00  0.45023469634E+02  0.45023469634E+02  0.00000000000E+00 0.  1.
          2   -1    0    0  502    0 -0.00000000000E+00 -0.00000000000E+00 -0.22643804564E+04  0.22643804564E+04  0.00000000000E+00 0.  1.
         25    1    1    2    0    0  0.27306840550E+03  0.28080882376E+02 -0.75211786754E+03  0.81034633133E+03  0.12500000000E+03 0.  0.
         21    1    1    2  503  501  0.77804367961E+01 -0.21101108966E+02 -0.60605045549E+02  0.64643356521E+02  0.00000000000E+00 0.  1.
          2    1    1    2  501    0 -0.28084884229E+03 -0.69797734100E+01 -0.14066340737E+04  0.14344142382E+04  0.00000000000E+00 0.  1.
<mgrwt>
<rscale>  4 0.30542779E+03</rscale>
<asrwt>0</asrwt>
<pdfrwt beam="1">  1       21 0.69266875E-02 0.30542779E+03</pdfrwt>
<pdfrwt beam="2">  1        2 0.34836623E+00 0.30542779E+03</pdfrwt>
<totfact> 0.10358102E+04</totfact>
</mgrwt>
</event>
<event>
 5    0  0.4115852E+000  0.2578580E+03  0.7546771E-02  0.1108437E+00
          2   -1    0    0  502    0 -0.00000000000E+00  0.00000000000E+00  0.77593340858E+03  0.77593340858E+03  0.00000000000E+00 0.  1.
         21   -1    0    0  503  502  0.00000000000E+00 -0.00000000000E+00 -0.76819769938E+03  0.76819769938E+03  0.00000000000E+00 0. -1.
         25    1    1    2    0    0  0.30547987146E+02  0.24214865343E+03 -0.49642339919E+03  0.56712462576E+03  0.12500000000E+03 0.  0.
         21    1    1    2  503  501 -0.10066423651E+02 -0.18139939169E+02 -0.21884085499E+03  0.21982199638E+03  0.00000000000E+00 0.  1.
          2    1    1    2  501    0 -0.20481563496E+02 -0.22400871426E+03  0.72299996339E+03  0.75718448582E+03  0.00000000000E+00 0.  1.
<mgrwt>
<rscale>  4 0.25785798E+03</rscale>
<asrwt>0</asrwt>
<pdfrwt beam="1">  1       21 0.11818426E+00 0.25785798E+03</pdfrwt>
<pdfrwt beam="2">  1        2 0.11937437E+00 0.25785798E+03</pdfrwt>
<totfact> 0.24459228E+02</totfact>
</mgrwt>
</event>
<event>
 5    0  0.4115852E+000  0.3007177E+03  0.7546771E-02  0.1084882E+00
         21   -1    0    0  503  502  0.00000000000E+00  0.00000000000E+00  0.21428113746E+03  0.21428113746E+03  0.00000000000E+00 0. -1.
          2   -1    0    0  502    0 -0.00000000000E+00 -0.00000000000E+00 -0.41657974667E+03  0.41657974667E+03  0.00000000000E+00 0. -1.
         25    1    1    2    0    0 -0.81342592279E+02 -0.26113121142E+03 -0.10407918304E+03  0.31821942625E+03  0.12500000000E+03 0.  0.
         21    1    1    2  503  501  0.39376085627E+02  0.18604513087E+03 -0.11526516624E+02  0.19051542569E+03  0.00000000000E+00 0. -1.
          2    1    1    2  501    0  0.41966506652E+02  0.75086080552E+02 -0.86692909543E+02  0.12212603219E+03  0.00000000000E+00 0. -1.
<mgrwt>
<rscale>  4 0.30071769E+03</rscale>
<asrwt>0</asrwt>
<pdfrwt beam="1">  1       21 0.32966329E-01 0.30071769E+03</pdfrwt>
<pdfrwt beam="2">  1        2 0.64089191E-01 0.30071769E+03</pdfrwt>
<totfact> 0.82409328E+03</totfact>
</mgrwt>
</event>
<event>
 5    0  0.4115852E+000  0.1850236E+03  0.7546771E-02  0.1163028E+00
          1   -1    0    0  502    0 -0.00000000000E+00  0.00000000000E+00  0.17288611050E+04  0.17288611050E+04  0.00000000000E+00 0. -1.
         21   -1    0    0  503  502  0.00000000000E+00 -0.00000000000E+00 -0.19612390417E+04  0.19612390417E+04  0.00000000000E+00 0.  1.
         25    1    1    2    0    0  0.19088042652E+03 -0.11020570260E+03  0.10402352870E+04  0.10706517111E+04  0.12500000000E+03 0.  0.
         21    1    1    2  503  501 -0.94764451936E+02  0.97886735297E+02 -0.19401435490E+04  0.19449213622E+04  0.00000000000E+00 0.  1.
          1    1    1    2  501    0 -0.96115974582E+02  0.12318967307E+02  0.66753032536E+03  0.67452707343E+03  0.00000000000E+00 0. -1.
<mgrwt>
<rscale>  4 0.18502364E+03</rscale>
<asrwt>0</asrwt>
<pdfrwt beam="1">  1       21 0.30172908E+00 0.18502364E+03</pdfrwt>
<pdfrwt beam="2">  1        1 0.26597863E+00 0.18502364E+03</pdfrwt>
<totfact> 0.19534368E+00</totfact>
</mgrwt>
</event>
<event>
 5    0  0.4115852E+000  0.2219179E+03  0.7546771E-02  0.1132461E+00
          1   -1    0    0  502    0 -0.00000000000E+00  0.00000000000E+00  0.81681248268E+03  0.81681248268E+03  0.00000000000E+00 0.  1.
         21   -1    0    0  503  502  0.00000000000E+00 -0.00000000000E+00 -0.60993975435E+03  0.60993975435E+03  0.00000000000E+00 0. -1.
         25    1    1    2    0    0  0.11006867519E+03  0.17448696019E+03  0.40985335091E+02  0.24467449852E+03  0.12500000000E+03 0.  0.
         21    1    1    2  503  501 -0.73884449314E-01 -0.31090711682E+02 -0.49548411012E+03  0.49645859968E+03  0.00000000000E+00 0. -1.
          1    1    1    2  501    0 -0.10999479074E+03 -0.14339624851E+03  0.66137150335E+03  0.68561913883E+03  0.00000000000E+00 0.  1.
<mgrwt>
<rscale>  4 0.22191787E+03</rscale>
<asrwt>0</asrwt>
<pdfrwt beam="1">  1       21 0.93836885E-01 0.22191787E+03</pdfrwt>
<pdfrwt beam="2">  1        1 0.12566346E+00 0.22191787E+03</pdfrwt>
<totfact> 0.23284778E+02</totfact>
</mgrwt>
</event>
<event>
 5    0  0.4115852E+000  0.2504797E+03  0.7546771E-02  0.1113002E+00
         21   -1    0    0  503  502  0.00000000000E+00  0.00000000000E+00  0.81118588874E+02  0.81118588874E+02  0.00000000000E+00 0. -1.
          1   -1    0    0  502    0 -0.00000000000E+00 -0.00000000000E+00 -0.93986860311E+03  0.93986860311E+03  0.00000000000E+00 0. -1.
         25    1    1    2    0    0  0.10780103976E+03  0.18260071329E+03 -0.66058464115E+03  0.70495471684E+03  0.12500000000E+03 0.  0.
         21    1    1    2  503  501 -0.89994936296E+02 -0.19961950731E+03 -0.16245450431E+03  0.27265087975E+03  0.00000000000E+00 0. -1.
          1    1    1    2  501    0 -0.17806103467E+02  0.17018794016E+02 -0.35710868774E+02  0.43381595395E+02  0.00000000000E+00 0. -1.
<mgrwt>
<rscale>  4 0.25047967E+03</rscale>
<asrwt>0</asrwt>
<pdfrwt beam="1">  1       21 0.12479782E-01 0.25047967E+03</pdfrwt>
<pdfrwt beam="2">  1        1 0.14459518E+00 0.25047967E+03</pdfrwt>
<totfact> 0.10749128E+04</totfact>
</mgrwt>
</event>
<event>
 5    0  0.4115852E+000  0.2061842E+03  0.7546771E-02  0.1144624E+00
         -1   -1    0    0    0  501 -0.00000000000E+00  0.00000000000E+00  0.51534177834E+03  0.51534177834E+03  0.00000000000E+00 0. -1.
         21   -1    0    0  501  502  0.00000000000E+00 -0.00000000000E+00 -0.19261973782E+03  0.19261973782E+03  0.00000000000E+00 0. -1.
         25    1    1    2    0    0 -0.17700898979E+03  0.13907055582E+03  0.52414393401E+02  0.26276428714E+03  0.12500000000E+03 0.  0.
         21    1    1    2  503  502  0.86474348851E+02 -0.11183717452E+03 -0.17323367682E+02  0.14242705390E+03  0.00000000000E+00 0. -1.
         -1    1    1    2    0  503  0.90534640944E+02 -0.27233381291E+02  0.28763101480E+03  0.30277017512E+03  0.00000000000E+00 0. -1.
<mgrwt>
<rscale>  4 0.20618424E+03</rscale>
<asrwt>0</asrwt>
<pdfrwt beam="1">  1       21 0.29633806E-01 0.20618424E+03</pdfrwt>
<pdfrwt beam="2">  1       -1 0.79283350E-01 0.20618424E+03</pdfrwt>
<totfact> 0.16865346E+03</totfact>
</mgrwt>
</event>
<event>
 5    0  0.4115852E+000  0.3753715E+03  0.7546771E-02  0.1052658E+00
         21   -1    0    0  503  502  0.00000000000E+00  0.00000000000E+00  0.29074312292E+03  0.29074312292E+03  0.00000000000E+00 0. -1.
          2   -1    0    0  502    0 -0.00000000000E+00 -0.00000000000E+00 -0.31965948544E+04  0.31965948544E+04  0.00000000000E+00 0. -1.
         25    1    1    2    0    0  0.78598444503E+02  0.33120426890E+03  0.14589420689E+03  0.39087607092E+03  0.12500000000E+03 0.  0.
         21    1    1    2  503  501  0.66317466310E+02 -0.74503555943E+01 -0.82535950373E+02  0.10613998888E+03  0.00000000000E+00 0.  1.
          2    1    1    2  501    0 -0.14491591081E+03 -0.32375391331E+03 -0.29692099880E+04  0.29903219175E+04  0.00000000000E+00 0. -1.
<mgrwt>
<rscale>  4 0.37537152E+03</rscale>
<asrwt>0</asrwt>
<pdfrwt beam="1">  1       21 0.44729710E-01 0.37537152E+03</pdfrwt>
<pdfrwt beam="2">  1        2 0.49178384E+00 0.37537152E+03</pdfrwt>
<totfact> 0.87354008E+01</totfact>
</mgrwt>
</event>
<event>
 5    0  0.4115852E+000  0.4181341E+03  0.7546771E-02  0.1037675E+00
         -4   -1    0    0    0  501 -0.00000000000E+00  0.00000000000E+00  0.32099027683E+04  0.32099027683E+04  0.00000000000E+00 0. -1.
         21   -1    0    0  501  502  0.00000000000E+00 -0.00000000000E+00 -0.21915304167E+03  0.21915304167E+03  0.00000000000E+00 0.  1.
         25    1    1    2    0    0  0.92383268687E+02 -0.39107604045E+03  0.49958662943E+02  0.42378768948E+03  0.12500000000E+03 0.  0.
         21    1    1    2  503  502 -0.68520195400E+02 -0.74212068406E+01  0.45502070147E+02  0.82586499359E+02  0.00000000000E+00 0. -1.
         -4    1    1    2    0  503 -0.23863073287E+02  0.39849724729E+03  0.28952889936E+04  0.29226816211E+04  0.00000000000E+00 0. -1.
<mgrwt>
<rscale>  4 0.41813407E+03</rscale>
<asrwt>0</asrwt>
<pdfrwt beam="1">  1       21 0.33715855E-01 0.41813407E+03</pdfrwt>
<pdfrwt beam="2">  1       -4 0.49383116E+00 0.41813407E+03</pdfrwt>
<totfact> 0.57315975E-01</totfact>
</mgrwt>
</event>
<event>
 5    0  0.4115852E+000  0.3474439E+03  0.7546771E-02  0.1063669E+00
         21   -1    0    0  503  502  0.00000000000E+00  0.00000000000E+00  0.22269841733E+03  0.22269841733E+03  0.00000000000E+00 0.  1.
          2   -1    0    0  502    0 -0.00000000000E+00 -0.00000000000E+00 -0.10314231571E+04  0.10314231571E+04  0.00000000000E+00 0.  1.
         25    1    1    2    0    0  0.33937685958E+03  0.73786340541E+02 -0.24054735118E+02  0.36989823891E+03  0.12500000000E+03 0.  0.
         21    1    1    2  503  501 -0.29584690470E+02  0.66126786849E+01  0.62924581242E+01  0.30960885951E+02  0.00000000000E+00 0. -1.
          2    1    1    2  501    0 -0.30979216911E+03 -0.80399019226E+02 -0.79096246275E+03  0.85326244955E+03  0.00000000000E+00 0.  1.
<mgrwt>
<rscale>  4 0.34744390E+03</rscale>
<asrwt>0</asrwt>
<pdfrwt beam="1">  1       21 0.34261296E-01 0.34744390E+03</pdfrwt>
<pdfrwt beam="2">  1        2 0.15868048E+00 0.34744390E+03</pdfrwt>
<totfact> 0.24805903E+03</totfact>
</mgrwt>
</event>
<event>
 5    0  0.4115852E+000  0.2837045E+03  0.7546771E-02  0.1093683E+00
          2   -1    0    0  502    0 -0.00000000000E+00  0.00000000000E+00  0.23626223732E+04  0.23626223732E+04  0.00000000000E+00 0. -1.
         21   -1    0    0  503  502  0.00000000000E+00 -0.00000000000E+00 -0.26165343059E+03  0.26165343059E+03  0.00000000000E+00 0. -1.
         25    1    1    2    0    0  0.33493428379E+03  0.14481515374E+03  0.57540863262E+03  0.69272830006E+03  0.12500000000E+03 0.  0.
         21    1    1    2  503  501 -0.11403144788E+03 -0.53629862200E+02 -0.17423844122E+03  0.21503108525E+03  0.00000000000E+00 0. -1.
          2    1    1    2  501    0 -0.22090283590E+03 -0.91185291541E+02  0.16997987512E+04  0.17165164184E+04  0.00000000000E+00 0. -1.
<mgrwt>
<rscale>  4 0.28370454E+03</rscale>
<asrwt>0</asrwt>
<pdfrwt beam="1">  1       21 0.40254376E-01 0.28370454E+03</pdfrwt>
<pdfrwt beam="2">  1        2 0.36348035E+00 0.28370454E+03</pdfrwt>
<totfact> 0.34614591E+02</totfact>
</mgrwt>
</event>
<event>
 5    0  0.4115852E+000  0.3145787E+03  0.7546771E-02  0.1078172E+00
          2   -1    0    0  502    0 -0.00000000000E+00  0.00000000000E+00  0.44711992744E+03  0.44711992744E+03  0.00000000000E+00 0.  1.
         21   -1    0    0  503  502  0.00000000000E+00 -0.00000000000E+00 -0.34243307000E+03  0.34243307000E+03  0.00000000000E+00 0.  1.
         25    1    1    2    0    0  0.62331363702E+02  0.28737033174E+03  0.12059956670E+03  0.34152036829E+03  0.12500000000E+03 0.  0.
         21    1    1    2  503  501  0.36531571493E+02 -0.19697088738E+02 -0.13320392315E+03  0.13951994898E+03  0.00000000000E+00 0.  1.
          2    1    1    2  501    0 -0.98862935195E+02 -0.26767324300E+03  0.11729121388E+03  0.30851268018E+03  0.00000000000E+00 0.  1.
<mgrwt>
<rscale>  4 0.31457867E+03</rscale>
<asrwt>0</asrwt>
<pdfrwt beam="1">  1       21 0.52682011E-01 0.31457867E+03</pdfrwt>
<pdfrwt beam="2">  1        2 0.68787681E-01 0.31457867E+03</pdfrwt>
<totfact> 0.28980884E+03</totfact>
</mgrwt>
</event>
<event>
 5    0  0.4115852E+000  0.3227607E+03  0.7546771E-02  0.1074386E+00
         21   -1    0    0  503  502  0.00000000000E+00  0.00000000000E+00  0.27475002243E+03  0.27475002243E+03  0.00000000000E+00 0. -1.
          1   -1    0    0  502    0 -0.00000000000E+00 -0.00000000000E+00 -0.25665018528E+04  0.25665018528E+04  0.00000000000E+00 0. -1.
         25    1    1    2    0    0  0.20555441078E+03  0.26435650351E+03  0.64230594205E+02  0.36316324975E+03  0.12500000000E+03 0.  0.
         21    1    1    2  503  501 -0.19972115858E+03 -0.13858832105E+03 -0.19022821802E+03  0.30867788850E+03  0.00000000000E+00 0. -1.
          1    1    1    2  501    0 -0.58332521968E+01 -0.12576818246E+03 -0.21657542066E+04  0.21694107370E+04  0.00000000000E+00 0. -1.
<mgrwt>
<rscale>  4 0.32276068E+03</rscale>
<asrwt>0</asrwt>
<pdfrwt beam="1">  1       21 0.42269233E-01 0.32276068E+03</pdfrwt>
<pdfrwt beam="2">  1        1 0.39484645E+00 0.32276068E+03</pdfrwt>
<totfact> 0.80670547E+01</totfact>
</mgrwt>
</event>
<event>
 5    0  0.4115852E+000  0.2707082E+03  0.7546771E-02  0.1100875E+00
          2   -1    0    0  502    0 -0.00000000000E+00  0.00000000000E+00  0.27514340174E+03  0.27514340174E+03  0.00000000000E+00 0. -1.
         21   -1    0    0  503  502  0.00000000000E+00 -0.00000000000E+00 -0.34969561176E+03  0.34969561176E+03  0.00000000000E+00 0. -1.
         25    1    1    2    0    0 -0.22201645461E+03 -0.96928696035E+01 -0.15470133944E+03  0.29823273171E+03  0.12500000000E+03 0.  0.
         21    1    1    2  503  501 -0.23902704682E+02  0.48865862097E+00 -0.44673506808E+02  0.50668533518E+02  0.00000000000E+00 0.  1.
          2    1    1    2  501    0  0.24591915929E+03  0.92042109825E+01  0.12482263623E+03  0.27593774827E+03  0.00000000000E+00 0. -1.
<mgrwt>
<rscale>  4 0.27070816E+03</rscale>
<asrwt>0</asrwt>
<pdfrwt beam="1">  1       21 0.53799325E-01 0.27070816E+03</pdfrwt>
<pdfrwt beam="2">  1        2 0.42329754E-01 0.27070816E+03</pdfrwt>
<totfact> 0.47588162E+03</totfact>
</mgrwt>
</event>
<event>
 5    0  0.4115852E+000  0.4039003E+03  0.7546771E-02  0.1042437E+00
         21   -1    0    0  503  502  0.00000000000E+00  0.00000000000E+00  0.78752430012E+02  0.78752430012E+02  0.00000000000E+00 0.  1.
          1   -1    0    0  502    0 -0.00000000000E+00 -0.00000000000E+00 -0.29010990977E+04  0.29010990977E+04  0.00000000000E+00 0.  1.
         25    1    1    2    0    0  0.20696185339E+03  0.33770339687E+03 -0.10686621509E+04  0.11465341625E+04  0.12500000000E+03 0.  0.
         21    1    1    2  503  501  0.11707005901E+02 -0.29156889557E+02  0.72394342759E+01  0.32242636437E+02  0.00000000000E+00 0.  1.
          1    1    1    2  501    0 -0.21866885929E+03 -0.30854650732E+03 -0.17609239510E+04  0.18010747287E+04  0.00000000000E+00 0.  1.
<mgrwt>
<rscale>  4 0.40390031E+03</rscale>
<asrwt>0</asrwt>
<pdfrwt beam="1">  1       21 0.12115759E-01 0.40390031E+03</pdfrwt>
<pdfrwt beam="2">  1        1 0.44632291E+00 0.40390031E+03</pdfrwt>
<totfact> 0.50821541E+02</totfact>
</mgrwt>
</event>
<event>
 5    0  0.4115852E+000  0.3844914E+03  0.7546771E-02  0.1049286E+00
         21   -1    0    0  503  502  0.00000000000E+00  0.00000000000E+00  0.13802724072E+03  0.13802724072E+03  0.00000000000E+00 0. -1.
          2   -1    0    0  502    0 -0.00000000000E+00 -0.00000000000E+00 -0.21647625075E+04  0.21647625075E+04  0.00000000000E+00 0. -1.
         25    1    1    2    0    0  0.34671842905E+03  0.14308499752E+03 -0.26033536198E+03  0.47337774161E+03  0.12500000000E+03 0.  0.
         21    1    1    2  503  501 -0.22876863978E+02  0.18157268949E+02 -0.30843838042E+01  0.29369214232E+02  0.00000000000E+00 0.  1.
          2    1    1    2  501    0 -0.32384156508E+03 -0.16124226647E+03 -0.17633155210E+04  0.18000427924E+04  0.00000000000E+00 0. -1.
<mgrwt>
<rscale>  4 0.38449137E+03</rscale>
<asrwt>0</asrwt>
<pdfrwt beam="1">  1       21 0.21234960E-01 0.38449137E+03</pdfrwt>
<pdfrwt beam="2">  1        2 0.33304039E+00 0.38449137E+03</pdfrwt>
<totfact> 0.14911782E+03</totfact>
</mgrwt>
</event>
<event>
 5    0  0.4115852E+000  0.2540992E+03  0.7546771E-02  0.1110741E+00
          1   -1    0    0  502    0 -0.00000000000E+00  0.00000000000E+00  0.60018637630E+03  0.60018637630E+03  0.00000000000E+00 0.  1.
         21   -1    0    0  503  502  0.00000000000E+00 -0.00000000000E+00 -0.12379270459E+03  0.12379270459E+03  0.00000000000E+00 0. -1.
         25    1    1    2    0    0  0.21491174884E+03  0.52482010687E+02  0.40701714644E+03  0.47982223659E+03  0.12500000000E+03 0.  0.
         21    1    1    2  503  501 -0.26659006299E+02 -0.35063580388E+02  0.22090329726E+02  0.49276160097E+02  0.00000000000E+00 0. -1.
          1    1    1    2  501    0 -0.18825274254E+03 -0.17418430299E+02  0.47286195546E+02  0.19488068421E+03  0.00000000000E+00 0.  1.
<mgrwt>
<rscale>  4 0.25409924E+03</rscale>
<asrwt>0</asrwt>
<pdfrwt beam="1">  1       21 0.19045032E-01 0.25409924E+03</pdfrwt>
<pdfrwt beam="2">  1        1 0.92336364E-01 0.25409924E+03</pdfrwt>
<totfact> 0.97278759E+03</totfact>
</mgrwt>
</event>
<event>
 5    0  0.4115852E+000  0.2204070E+03  0.7546771E-02  0.1133580E+00
         21   -1    0    0  503  502  0.00000000000E+00  0.00000000000E+00  0.12864204221E+03  0.12864204221E+03  0.00000000000E+00 0.  1.
          1   -1    0    0  502    0 -0.00000000000E+00 -0.00000000000E+00 -0.10711057920E+04  0.10711057920E+04  0.00000000000E+00 0. -1.
         25    1    1    2    0    0 -0.18725799086E+03  0.15507900230E+03 -0.78681923188E+03  0.83296131708E+03  0.12500000000E+03 0.  0.
         21    1    1    2  503  501  0.12942102286E+03 -0.11875137654E+03  0.21475226816E+02  0.17695444599E+03  0.00000000000E+00 0.  1.
          1    1    1    2  501    0  0.57836968002E+02 -0.36327625756E+02 -0.17711974470E+03  0.18983207112E+03  0.00000000000E+00 0. -1.
<mgrwt>
<rscale>  4 0.22040703E+03</rscale>
<asrwt>0</asrwt>
<pdfrwt beam="1">  1       21 0.19791083E-01 0.22040703E+03</pdfrwt>
<pdfrwt beam="2">  1        1 0.16478551E+00 0.22040703E+03</pdfrwt>
<totfact> 0.37114487E+03</totfact>
</mgrwt>
</event>
<event>
 5    0  0.4115852E+000  0.2566320E+03  0.7546771E-02  0.1109184E+00
         21   -1    0    0  501  502  0.00000000000E+00  0.00000000000E+00  0.53446214774E+03  0.53446214774E+03  0.00000000000E+00 0.  1.
         -1   -1    0    0    0  501 -0.00000000000E+00 -0.00000000000E+00 -0.48032283699E+03  0.48032283699E+03  0.00000000000E+00 0.  1.
         25    1    1    2    0    0 -0.10806104162E+02  0.21609154681E+03  0.35010214460E+03  0.43012653969E+03  0.12500000000E+03 0.  0.
         21    1    1    2  503  502  0.62877765888E+02  0.31326839210E+01  0.10632530127E+03  0.12356575918E+03  0.00000000000E+00 0.  1.
         -1    1    1    2    0  503 -0.52071661725E+02 -0.21922423073E+03 -0.40228813513E+03  0.46109268586E+03  0.00000000000E+00 0.  1.
<mgrwt>
<rscale>  4 0.25663199E+03</rscale>
<asrwt>0</asrwt>
<pdfrwt beam="1">  1       21 0.82224946E-01 0.25663199E+03</pdfrwt>
<pdfrwt beam="2">  1       -1 0.73895821E-01 0.25663199E+03</pdfrwt>
<totfact> 0.22379227E+02</totfact>
</mgrwt>
</event>
