<event>
 5    0  0.2296674E+000  0.2651488E+03  0.7546771E-02  0.1104089E+00
         21   -1    0    0  502  501  0.00000000000E+00  0.00000000000E+00  0.21957153942E+03  0.21957153942E+03  0.00000000000E+00 0.  1.
         21   -1    0    0  503  502 -0.00000000000E+00 -0.00000000000E+00 -0.37164065609E+03  0.37164065609E+03  0.00000000000E+00 0.  1.
         25    1    1    2    0    0 -0.15806358736E+03 -0.17232177706E+03  0.53382526934E+02  0.27046919729E+03  0.12500000000E+03 0.  0.
         21    1    1    2  503  504  0.13154067388E+03  0.94637926858E+02 -0.15587200162E+03  0.22484520669E+03  0.00000000000E+00 0.  1.
         21    1    1    2  504  501  0.26522913483E+02  0.77683850203E+02 -0.49579641991E+02  0.95897791539E+02  0.00000000000E+00 0.  1.
<mgrwt>
<rscale>  4 0.26514881E+03</rscale>
<asrwt>0</asrwt>
<pdfrwt beam="1">  1       21 0.33780237E-01 0.26514881E+03</pdfrwt>
<pdfrwt beam="2">  1       21 0.57175486E-01 0.26514881E+03</pdfrwt>
<totfact> 0.23367758E+04</totfact>
</mgrwt>
</event>
<event>
 5    0  0.2159162E+000  0.2309087E+03  0.7546771E-02  0.1126002E+00
         21   -1    0    0  502  501  0.00000000000E+00  0.00000000000E+00  0.25148816644E+03  0.25148816644E+03  0.00000000000E+00 0. -1.
         21   -1    0    0  503  502 -0.00000000000E+00 -0.00000000000E+00 -0.15384947798E+04  0.15384947798E+04  0.00000000000E+00 0. -1.
         25    1    1    2    0    0  0.13377937644E+03  0.15484719971E+03  0.16590621240E+03  0.29158951993E+03  0.12500000000E+03 0.  0.
         21    1    1    2  503  504 -0.11080499947E+03 -0.10336474703E+03 -0.23782058089E+03  0.28199405584E+03  0.00000000000E+00 0. -1.
         21    1    1    2  504  501 -0.22974376977E+02 -0.51482452677E+02 -0.12150922449E+04  0.12163993705E+04  0.00000000000E+00 0. -1.
<mgrwt>
<rscale>  4 0.23090868E+03</rscale>
<asrwt>0</asrwt>
<pdfrwt beam="1">  1       21 0.38690487E-01 0.23090868E+03</pdfrwt>
<pdfrwt beam="2">  1       21 0.23669151E+00 0.23090868E+03</pdfrwt>
<totfact> 0.49050937E+02</totfact>
</mgrwt>
</event>
<event>
 5    0  0.2332251E+000  0.2471297E+03  0.7546771E-02  0.1115132E+00
         21   -1    0    0  502  501  0.00000000000E+00  0.00000000000E+00  0.44308941036E+03  0.44308941036E+03  0.00000000000E+00 0. -1.
         21   -1    0    0  503  502 -0.00000000000E+00 -0.00000000000E+00 -0.17284367046E+03  0.17284367046E+03  0.00000000000E+00 0. -1.
         25    1    1    2    0    0  0.21316771279E+03 -0.27562333248E+01  0.30044220795E+03  0.38902260977E+03  0.12500000000E+03 0.  0.
         21    1    1    2  503  504 -0.54818290436E+02  0.20561747319E+02  0.16560728417E+02  0.60844787327E+02  0.00000000000E+00 0. -1.
         21    1    1    2  504  501 -0.15834942235E+03 -0.17805513994E+02 -0.46757196470E+02  0.16606568372E+03  0.00000000000E+00 0. -1.
<mgrwt>
<rscale>  4 0.24712966E+03</rscale>
<asrwt>0</asrwt>
<pdfrwt beam="1">  1       21 0.68167601E-01 0.24712966E+03</pdfrwt>
<pdfrwt beam="2">  1       21 0.26591334E-01 0.24712966E+03</pdfrwt>
<totfact> 0.25690631E+04</totfact>
</mgrwt>
</event>
<event>
 5    0  0.2159162E+000  0.2726739E+03  0.7546771E-02  0.1099759E+00
         21   -1    0    0  502  501  0.00000000000E+00  0.00000000000E+00  0.29806304117E+03  0.29806304117E+03  0.00000000000E+00 0. -1.
         21   -1    0    0  503  502 -0.00000000000E+00 -0.00000000000E+00 -0.10163424242E+04  0.10163424242E+04  0.00000000000E+00 0.  1.
         25    1    1    2    0    0  0.12877846706E+03 -0.20528554543E+03  0.21634122419E+03  0.34807265624E+03  0.12500000000E+03 0.  0.
         21    1    1    2  503  504 -0.77099160617E+01  0.28087603377E+02 -0.15503891076E+03  0.15775113350E+03  0.00000000000E+00 0.  1.
         21    1    1    2  504  501 -0.12106855099E+03  0.17719794205E+03 -0.77958169645E+03  0.80858167562E+03  0.00000000000E+00 0.  1.
<mgrwt>
<rscale>  4 0.27267389E+03</rscale>
<asrwt>0</asrwt>
<pdfrwt beam="1">  1       21 0.45855853E-01 0.27267389E+03</pdfrwt>
<pdfrwt beam="2">  1       21 0.15636037E+00 0.27267389E+03</pdfrwt>
<totfact> 0.11374058E+03</totfact>
</mgrwt>
</event>
<event>
 5    0  0.4444402E+000  0.2465680E+03  0.7546771E-02  0.1115493E+00
         21   -1    0    0  502  501  0.00000000000E+00  0.00000000000E+00  0.26148377391E+03  0.26148377391E+03  0.00000000000E+00 0.  1.
         21   -1    0    0  503  502 -0.00000000000E+00 -0.00000000000E+00 -0.24401166307E+03  0.24401166307E+03  0.00000000000E+00 0.  1.
         25    1    1    2    0    0 -0.20791645778E+03 -0.44062468380E+02  0.10900002517E+03  0.26958627566E+03  0.12500000000E+03 0.  0.
         21    1    1    2  503  504  0.16639575275E+03  0.20288322360E+02 -0.83924918519E+02  0.18746347513E+03  0.00000000000E+00 0.  1.
         21    1    1    2  504  501  0.41520705030E+02  0.23774146019E+02 -0.76029958134E+01  0.48445686190E+02  0.00000000000E+00 0. -1.
<mgrwt>
<rscale>  4 0.24656795E+03</rscale>
<asrwt>0</asrwt>
<pdfrwt beam="1">  1       21 0.40228273E-01 0.24656795E+03</pdfrwt>
<pdfrwt beam="2">  1       21 0.37540256E-01 0.24656795E+03</pdfrwt>
<totfact> 0.39726270E+04</totfact>
</mgrwt>
</event>
<event>
 5    0  0.2159162E+000  0.3065705E+03  0.7546771E-02  0.1082001E+00
         21   -1    0    0  502  501  0.00000000000E+00  0.00000000000E+00  0.18652922650E+03  0.18652922650E+03  0.00000000000E+00 0.  1.
         21   -1    0    0  503  502 -0.00000000000E+00 -0.00000000000E+00 -0.47129180302E+03  0.47129180302E+03  0.00000000000E+00 0. -1.
         25    1    1    2    0    0  0.10111850556E+03 -0.26102779892E+03 -0.11714051977E+03  0.32818800305E+03  0.12500000000E+03 0.  0.
         21    1    1    2  503  504 -0.85576415669E+02  0.24223067470E+03 -0.16446964839E+03  0.30503981367E+03  0.00000000000E+00 0. -1.
         21    1    1    2  504  501 -0.15542089896E+02  0.18797124217E+02 -0.31524083586E+01  0.24593212795E+02  0.00000000000E+00 0. -1.
<mgrwt>
<rscale>  4 0.30657049E+03</rscale>
<asrwt>0</asrwt>
<pdfrwt beam="1">  1       21 0.28696804E-01 0.30657049E+03</pdfrwt>
<pdfrwt beam="2">  1       21 0.72506431E-01 0.30657049E+03</pdfrwt>
<totfact> 0.18818421E+04</totfact>
</mgrwt>
</event>
<event>
 5    0  0.2159162E+000  0.2585092E+03  0.7546771E-02  0.1108042E+00
         21   -1    0    0  502  501  0.00000000000E+00  0.00000000000E+00  0.44107746538E+03  0.44107746538E+03  0.00000000000E+00 0. -1.
         21   -1    0    0  503  502 -0.00000000000E+00 -0.00000000000E+00 -0.23969137860E+03  0.23969137860E+03  0.00000000000E+00 0. -1.
         25    1    1    2    0    0  0.24124784809E+02 -0.22498886134E+03  0.31639110250E+03  0.40857107425E+03  0.12500000000E+03 0.  0.
         21    1    1    2  503  504 -0.22643808479E+02  0.85466110034E+02 -0.97426640454E+02  0.13156423639E+03  0.00000000000E+00 0. -1.
         21    1    1    2  504  501 -0.14809763299E+01  0.13952275131E+03 -0.17578375261E+02  0.14063353334E+03  0.00000000000E+00 0. -1.
<mgrwt>
<rscale>  4 0.25850917E+03</rscale>
<asrwt>0</asrwt>
<pdfrwt beam="1">  1       21 0.67858072E-01 0.25850917E+03</pdfrwt>
<pdfrwt beam="2">  1       21 0.36875597E-01 0.25850917E+03</pdfrwt>
<totfact> 0.13543783E+04</totfact>
</mgrwt>
</event>
<event>
 5    0  0.2159162E+000  0.8127267E+03  0.7546771E-02  0.9543096E-01
         21   -1    0    0  502  501  0.00000000000E+00  0.00000000000E+00  0.40291937639E+03  0.40291937639E+03  0.00000000000E+00 0.  1.
         21   -1    0    0  503  502 -0.00000000000E+00 -0.00000000000E+00 -0.17654193538E+04  0.17654193538E+04  0.00000000000E+00 0.  1.
         25    1    1    2    0    0 -0.18193265219E+03 -0.77831990409E+03 -0.97799884401E+03  0.12692470610E+04  0.12500000000E+03 0.  0.
         21    1    1    2  503  504 -0.21522346969E+02  0.10436353593E+03 -0.29044982131E+02  0.11044713685E+03  0.00000000000E+00 0. -1.
         21    1    1    2  504  501  0.20345499916E+03  0.67395636816E+03 -0.35545615125E+03  0.78864453230E+03  0.00000000000E+00 0.  1.
<mgrwt>
<rscale>  4 0.81179736E+03</rscale>
<asrwt>0</asrwt>
<pdfrwt beam="1">  1       21 0.61987597E-01 0.81272671E+03</pdfrwt>
<pdfrwt beam="2">  1       21 0.27160297E+00 0.81272671E+03</pdfrwt>
<totfact> 0.79591627E+01</totfact>
</mgrwt>
</event>
<event>
 5    0  0.2159162E+000  0.4858903E+03  0.7546771E-02  0.1017529E+00
         21   -1    0    0  502  501  0.00000000000E+00  0.00000000000E+00  0.24018157420E+03  0.24018157420E+03  0.00000000000E+00 0.  1.
         21   -1    0    0  503  502 -0.00000000000E+00 -0.00000000000E+00 -0.12923608432E+04  0.12923608432E+04  0.00000000000E+00 0. -1.
         25    1    1    2    0    0  0.38926378955E+03  0.26256057949E+03 -0.14313729126E+03  0.50653493454E+03  0.12500000000E+03 0.  0.
         21    1    1    2  503  504 -0.50566418440E+02 -0.23585336759E+02 -0.64942913717E+02  0.85620166000E+02  0.00000000000E+00 0. -1.
         21    1    1    2  504  501 -0.33869737111E+03 -0.23897524273E+03 -0.84409906401E+03  0.94038731685E+03  0.00000000000E+00 0. -1.
<mgrwt>
<rscale>  4 0.48589027E+03</rscale>
<asrwt>0</asrwt>
<pdfrwt beam="1">  1       21 0.36951011E-01 0.48589027E+03</pdfrwt>
<pdfrwt beam="2">  1       21 0.19882475E+00 0.48589027E+03</pdfrwt>
<totfact> 0.78923642E+02</totfact>
</mgrwt>
</event>
