<event>
 5    0  0.1911311E+001  0.2433519E+03  0.7546771E-02  0.1117580E+00
         21   -1    0    0  502  501  0.00000000000E+00  0.00000000000E+00  0.30101079054E+03  0.30101079054E+03  0.00000000000E+00 0.  1.
         21   -1    0    0  504  502 -0.00000000000E+00 -0.00000000000E+00 -0.65615844807E+03  0.65615844807E+03  0.00000000000E+00 0.  1.
         25    1    1    2    0    0 -0.18606452312E+03 -0.13926231936E+03  0.15025296110E+03  0.30366915002E+03  0.12500000000E+03 0.  0.
         21    1    1    2  503  501  0.26363670238E+02  0.77510949319E+01  0.52072080611E+02  0.58878044807E+02  0.00000000000E+00 0.  1.
         21    1    1    2  504  503  0.15970085288E+03  0.13151122443E+03 -0.55747269924E+03  0.59462204379E+03  0.00000000000E+00 0.  1.
<mgrwt>
<rscale>  4 0.24335186E+03</rscale>
<asrwt>0</asrwt>
<pdfrwt beam="1">  1       21 0.46309353E-01 0.24335186E+03</pdfrwt>
<pdfrwt beam="2">  1       21 0.10094745E+00 0.24335186E+03</pdfrwt>
<totfact> 0.34491885E+03</totfact>
</mgrwt>
</event>
<event>
 5    0  0.1911311E+001  0.2743762E+03  0.7546771E-02  0.1098801E+00
         21   -1    0    0  503  501  0.00000000000E+00  0.00000000000E+00  0.21648265991E+03  0.21648265991E+03  0.00000000000E+00 0.  1.
         21   -1    0    0  501  502 -0.00000000000E+00 -0.00000000000E+00 -0.36465129338E+03  0.36465129338E+03  0.00000000000E+00 0.  1.
         25    1    1    2    0    0  0.14374117607E+03  0.19826612000E+03  0.11779036156E+01  0.27494975449E+03  0.12500000000E+03 0.  0.
         21    1    1    2  503  504 -0.16116145357E+03 -0.18309763478E+03 -0.14018210494E+03  0.28133393063E+03  0.00000000000E+00 0.  1.
         21    1    1    2  504  502  0.17420277498E+02 -0.15168485219E+02 -0.91644321510E+01  0.24850268179E+02  0.00000000000E+00 0.  1.
<mgrwt>
<rscale>  4 0.27437617E+03</rscale>
<asrwt>0</asrwt>
<pdfrwt beam="1">  1       21 0.33305025E-01 0.27437617E+03</pdfrwt>
<pdfrwt beam="2">  1       21 0.56100198E-01 0.27437617E+03</pdfrwt>
<totfact> 0.24935279E+04</totfact>
</mgrwt>
</event>
<event>
 5    0  0.1911311E+001  0.2212521E+03  0.7546771E-02  0.1132953E+00
         21   -1    0    0  504  501  0.00000000000E+00  0.00000000000E+00  0.47173418855E+03  0.47173418855E+03  0.00000000000E+00 0.  1.
         21   -1    0    0  503  502 -0.00000000000E+00 -0.00000000000E+00 -0.95471882485E+03  0.95471882485E+03  0.00000000000E+00 0.  1.
         25    1    1    2    0    0  0.99438109631E+02 -0.18843555922E+03  0.32432873607E+03  0.40768863937E+03  0.12500000000E+03 0.  0.
         21    1    1    2  503  501 -0.61683950891E+02  0.17106853209E+03 -0.89947137060E+03  0.91766992922E+03  0.00000000000E+00 0.  1.
         21    1    1    2  504  502 -0.37754158740E+02  0.17367027127E+02  0.92157998229E+02  0.10109444481E+03  0.00000000000E+00 0. -1.
<mgrwt>
<rscale>  4 0.22125210E+03</rscale>
<asrwt>0</asrwt>
<pdfrwt beam="1">  1       21 0.72574491E-01 0.22125210E+03</pdfrwt>
<pdfrwt beam="2">  1       21 0.14687982E+00 0.22125210E+03</pdfrwt>
<totfact> 0.52395219E+02</totfact>
</mgrwt>
</event>
