<LesHouchesEvents version="3.0">
  <!--
  <scalesfunctionalform>
    muR  H_T/2 := sum_i mT(i)/2, i=final state
    muF1 H_T/2 := sum_i mT(i)/2, i=final state
    muF2 H_T/2 := sum_i mT(i)/2, i=final state
    QES  H_T/2 := sum_i mT(i)/2, i=final state
  </scalesfunctionalform>
HERWIG6   
  -->
  <header>
       17
  </header>
  <init>
   2212   2212 0.65000000D+04 0.65000000D+04 -1 -1   244800   244800 -4   1
 0.14312716D-04 0.64774590D-06 0.15842354D-05     66
  </init>
  <event>
  5     66 0.15842354E-05 0.11224887E+03 0.75467711E-02 0.95219921E-01
        1 -1    0    0  502    0 0.00000000E+00 0.00000000E+00 0.18990508E+04 0.18990508E+04 0.32000000E+00 0.0000E+00 0.9000E+01
       -4 -1    0    0    0  501 0.00000000E+00 0.00000000E+00 -.90340322E+03 0.90340455E+03 0.15500000E+01 0.0000E+00 0.9000E+01
       25  1    1    2    0    0 0.20196809E+03 -.41862962E+03 0.65473570E+03 0.81261658E+03 0.12500000E+03 0.0000E+00 0.9000E+01
        1  1    1    2  502    0 -.13335684E+03 0.32980203E+03 0.11341830E+04 0.11886651E+04 0.32000000E+00 0.0000E+00 0.9000E+01
       -4  1    1    2    0  501 -.68611253E+02 0.88827582E+02 -.79327114E+03 0.80117373E+03 0.15500000E+01 0.0000E+00 0.9000E+01
#aMCatNLO 1  0  0  0  0 0.00000000D+00 0.00000000D+00  -5  6  0 0.00000000D+00 0.00000000D+00 0.00000000D+00 0.00000000D+00 0.00000000D+00
  <mgrwgt>
 0.7052736951D-04    1    2    0
 0.130981316298307D+04 0.000000000000000D+00 0.000000000000000D+00 0.130981316298307D+04
 0.130981316298307D+04 -.000000000000000D+00 -.000000000000000D+00 -.130981316298307D+04
 0.620523919980633D+03 0.201962794454316D+03 -.418610643548355D+03 0.391664517198541D+03
 0.840486463844043D+03 -.133346325183594D+03 0.329776026968344D+03 0.761501165791667D+03
 0.115861594214147D+04 -.686164692707213D+02 0.888346165800104D+02 -.115316568299021D+04
 0.000000000000000D+00 0.000000000000000D+00 -.000000000000000D+00 0.000000000000000D+00
 0.130981316298307D+04 0.000000000000000D+00 0.000000000000000D+00 0.130981316298307D+04
 0.130981316298307D+04 -.000000000000000D+00 -.000000000000000D+00 -.130981316298307D+04
 0.474073049952982D+03 0.186167635216810D+03 -.398161370515258D+03 0.126211692480986D+03
 0.571116231007505D+03 -.153715913221670D+03 0.356147604557332D+03 0.419170670623220D+03
 0.971076140368587D+03 -.107715059997938D+03 0.603452418164631D+03 -.753147737999692D+03
 0.603360904637073D+03 0.752633380027983D+02 -.561438652206705D+03 0.207765374895485D+03
0.110917526975D-02 0.000000000000D+00 0.000000000000D+00 0.400591790082D-04 0.000000000000D+00  6 1 -4 25 1 -4 21 2 0.29216177D+00 0.13898522D+00 0.22527526D+06 0.22527526D+06 0.22527526D+06 0.10938779D+01  1  2 14  4  6  5       -4 0.705273695115D-04 0.100000000000D+01
  </mgrwgt>
  </event>
  <event>
  5     66 0.15842354E-05 0.26159803E+02 0.75467711E-02 0.92811800E-01
        1 -1    0    0  502    0 0.00000000E+00 0.00000000E+00 0.95395530E+03 0.95395535E+03 0.32000000E+00 0.0000E+00 0.9000E+01
       -4 -1    0    0    0  501 0.00000000E+00 0.00000000E+00 -.76917175E+03 0.76917331E+03 0.15500000E+01 0.0000E+00 0.9000E+01
       25  1    1    2    0    0 0.44880240E+03 0.15287411E+03 -.24393153E+03 0.54765106E+03 0.12500000E+03 0.0000E+00 0.9000E+01
        1  1    1    2  502    0 -.42294559E+03 -.14881146E+03 0.73884286E+03 0.86424342E+03 0.32000000E+00 0.0000E+00 0.9000E+01
       -4  1    1    2    0  501 -.25856807E+02 -.40626461E+01 -.31012777E+03 0.31123418E+03 0.15500000E+01 0.0000E+00 0.9000E+01
#aMCatNLO 1  0  0  1  4 0.53745724D+02 0.00000000D+00  -5  6  0 0.00000000D+00 0.00000000D+00 0.00000000D+00 0.00000000D+00 0.00000000D+00
  <mgrwgt>
 0.3420840460D-03    7    2    0
 0.856596086639565D+03 0.000000000000000D+00 0.000000000000000D+00 0.856596086639565D+03
 0.856596086639565D+03 0.000000000000000D+00 0.000000000000000D+00 -.856596086639565D+03
 0.577357528978077D+03 0.448832201945160D+03 0.152888064360265D+03 -.304781250310615D+03
 0.789647018257048D+03 -.422989552732132D+03 -.148826932283646D+03 0.649979073469875D+03
 0.346187626044004D+03 -.258426492130279D+02 -.406113207661855D+01 -.345197823159260D+03
 0.000000000000000D+00 0.000000000000000D+00 -.000000000000000D+00 0.000000000000000D+00
 0.152619150063241D+04 0.000000000000000D+00 0.000000000000000D+00 0.152619150063241D+04
 0.871416274707854D+03 0.000000000000000D+00 0.000000000000000D+00 -.871416274707854D+03
 0.562533741428721D+03 0.412130132203568D+03 0.195131632071181D+03 -.304781250310615D+03
 0.809709499845504D+03 -.474485424306025D+03 -.895559060723052D+02 0.649979073469875D+03
 0.349226791350459D+03 -.482335114901041D+02 0.217104364852378D+02 -.345197823159260D+03
 0.676137742715580D+03 0.110588803592561D+03 -.127286162484114D+03 0.654775225924556D+03
0.462530439863D-03 0.000000000000D+00 0.000000000000D+00 0.177074539701D-04 0.000000000000D+00  6 1 -4 25 1 -4 21 0 0.14676248D+00 0.11833424D+00 0.23276996D+06 0.23276996D+06 0.23276996D+06 0.10927999D+01  1  2  2  1  6  1        1 0.180285534428D-03 0.100000000000D+01
0.223738075082D-03 0.000000000000D+00 -.177623867613D-05 0.177074539701D-04 0.000000000000D+00  6 1 -4 25 1 -4 21 2 0.14676248D+00 0.11833424D+00 0.23276996D+06 0.23276996D+06 0.23276996D+06 0.10927999D+01  1  2  3  1  6  1        1 0.104145799470D-03 0.100000000000D+01
-.306674738097D-03 0.000000000000D+00 0.000000000000D+00 0.177074539701D-04 0.000000000000D+00  6 1 -4 25 1 -4 21 2 0.14676248D+00 0.11833424D+00 0.23276996D+06 0.23276996D+06 0.23276996D+06 0.10927999D+01  1  2 15  1  6  1        1 -.142751231612D-03 0.100000000000D+01
-.241244267173D-02 0.000000000000D+00 0.000000000000D+00 0.177074539701D-04 0.000000000000D+00  6 1 -4 25 1 -4 21 2 0.14676248D+00 0.11833424D+00 0.23276996D+06 0.23276996D+06 0.23276996D+06 0.10927999D+01  1  2  4  1  6  1        1 -.112294597436D-02 0.100000000000D+01
-.491703635938D-02 0.000000000000D+00 -.283418259234D-03 0.177074539701D-04 0.000000000000D+00  6 1 -4 25 1 -4 21 2 0.26277876D+00 0.11833424D+00 0.23276996D+06 0.23276996D+06 0.23276996D+06 0.10927999D+01  1  2  5  1  6  1        1 -.680533676134D-03 0.100000000000D+01
0.436289762097D-02 0.000000000000D+00 0.241309124901D-03 0.177074539701D-04 0.000000000000D+00  6 1 -4 25 1 -4 21 2 0.14676248D+00 0.11833424D+00 0.23276996D+06 0.23276996D+06 0.23276996D+06 0.10927999D+01  1  2  6  1  6  1        1 0.203084549010D-02 0.100000000000D+01
-.299561401142D-03 0.000000000000D+00 -.181281739209D-04 0.177074539701D-04 0.000000000000D+00  6 21 -4 25 1 -4 -1 2 0.26277876D+00 0.11833424D+00 0.23276996D+06 0.23276996D+06 0.23276996D+06 0.10927999D+01  1  2  5  5  6  1        1 -.269618959173D-04 0.100000000000D+01
  </mgrwgt>
  </event>
  <event>
  6     66 -.15842354E-05 0.20236430E+03 0.75467711E-02 0.92507012E-01
        3 -1    0    0  502    0 0.00000000E+00 0.00000000E+00 0.12220297E+04 0.12220298E+04 0.50000000E+00 0.0000E+00 0.9000E+01
       -2 -1    0    0    0  503 0.00000000E+00 0.00000000E+00 -.83300244E+03 0.83300250E+03 0.32000000E+00 0.0000E+00 0.9000E+01
       25  1    1    2    0    0 0.13618074E+03 -.54358345E+03 0.80768643E+02 0.57980750E+03 0.12500000E+03 0.0000E+00 0.9000E+01
        3  1    1    2  502    0 -.21078686E+03 0.35818050E+03 0.81343015E+03 0.91345127E+03 0.50000000E+00 0.0000E+00 0.9000E+01
       -2  1    1    2    0  501 0.86181207E+02 0.18986863E+03 -.35965612E+03 0.41572819E+03 0.32000000E+00 0.0000E+00 0.9000E+01
       21  1    1    2  501  503 -.11575093E+02 -.44656869E+01 -.14551544E+03 0.14604531E+03 0.75000000E+00 0.0000E+00 0.9000E+01
#aMCatNLO 2  0  0  2  5 0.12406657D+02 0.00000000D+00  -5  6  0 0.00000000D+00 0.00000000D+00 0.00000000D+00 0.00000000D+00 0.00000000D+00
  <mgrwgt>
 -.1796040339D-04    2    2    0
 0.916288904314103D+03 0.000000000000000D+00 0.000000000000000D+00 0.916288904314103D+03
 0.916288904314103D+03 0.000000000000000D+00 0.000000000000000D+00 -.916288904314103D+03
 0.580860287277125D+03 0.132472158195999D+03 -.545007149686458D+03 -.848057039897716D+02
 0.714636381951897D+03 -.215272327437521D+03 0.356394062095398D+03 0.580815165050011D+03
 0.537081139399185D+03 0.828001692415217D+02 0.188613087591060D+03 -.496009461060239D+03
 0.000000000000000D+00 -.000000000000000D+00 -.000000000000000D+00 -.000000000000000D+00
 0.916507876105241D+03 0.000000000000000D+00 0.000000000000000D+00 0.916507876105241D+03
 0.111068576721582D+04 0.000000000000000D+00 0.000000000000000D+00 -.111068576721582D+04
 0.580382239563311D+03 0.136139488626549D+03 -.543592288583848D+03 -.848057039897716D+02
 0.714161509429845D+03 -.210760028012502D+03 0.358134913393281D+03 0.580815165050011D+03
 0.538076056046593D+03 0.861956328155356D+02 0.189923062088090D+03 -.496009461060239D+03
 0.194573838281315D+03 -.115750934295820D+02 -.446568689752297D+01 -.194177891110582D+03
-.192643239843D-02 0.000000000000D+00 0.000000000000D+00 0.369860100675D-06 0.000000000000D+00  6 3 -2 25 3 -2 21 2 0.18795951D+00 0.12876598D+00 0.36643379D+06 0.36643379D+06 0.36643379D+06 0.10781825D+01  1  2 13  2  6  2       -2 -.910251341343D-04 0.100000000000D+01
0.152841159652D-02 0.000000000000D+00 0.000000000000D+00 0.369860100675D-06 0.117781506545D-07  6 3 -2 25 3 -2 21 2 0.18800443D+00 0.12815413D+00 0.36643379D+06 0.36643379D+06 0.36643379D+06 0.10781825D+01  1  2  1  2  6  2       -2 0.730647307399D-04 0.100000000000D+01
  </mgrwgt>
  </event>
  <event>
  6     66 0.15842354E-05 0.26447662E+03 0.75467711E-02 0.93159003E-01
        1 -1    0    0  502    0 0.00000000E+00 0.00000000E+00 0.24698481E+04 0.24698482E+04 0.32000000E+00 0.0000E+00 0.9000E+01
       -4 -1    0    0    0  501 0.00000000E+00 0.00000000E+00 -.50149295E+03 0.50149534E+03 0.15500000E+01 0.0000E+00 0.9000E+01
       25  1    1    2    0    0 -.28856855E+03 0.47305898E+03 0.17438007E+04 0.18339908E+04 0.12500000E+03 0.0000E+00 0.9000E+01
        1  1    1    2  502    0 0.88024215E+02 -.27896378E+03 0.60026953E+03 0.66775195E+03 0.32000000E+00 0.0000E+00 0.9000E+01
       -4  1    1    2    0  503 0.66511535E+02 -.80031173E+02 -.11570063E+03 0.15562073E+03 0.15500000E+01 0.0000E+00 0.9000E+01
       21  1    1    2  503  501 0.13403280E+03 -.11406402E+03 -.26001438E+03 0.31397999E+03 0.75000000E+00 0.0000E+00 0.9000E+01
#aMCatNLO 2  0  0  5  2 0.17836505D+02 0.00000000D+00  -5  6  0 0.00000000D+00 0.00000000D+00 0.00000000D+00 0.00000000D+00 0.00000000D+00
  <mgrwgt>
 0.1142163785D-04    2    2    0
 0.111293082287806D+04 0.000000000000000D+00 0.000000000000000D+00 0.111293082287806D+04
 0.111293082287806D+04 -.000000000000000D+00 -.000000000000000D+00 -.111293082287806D+04
 0.906535018899602D+03 -.288616540591495D+03 0.473015382347166D+03 0.706496766483232D+03
 0.360438923595988D+03 0.879559276677799D+02 -.278804432625741D+03 0.210827087394797D+03
 0.958887703260532D+03 0.200660612923716D+03 -.194210949721425D+03 -.917323853878029D+03
 0.000000000000000D+00 0.000000000000000D+00 0.000000000000000D+00 -.000000000000000D+00
 0.111293082287806D+04 0.000000000000000D+00 0.000000000000000D+00 0.111293082287806D+04
 0.111293082287806D+04 -.000000000000000D+00 -.000000000000000D+00 -.111293082287806D+04
 0.906251603182936D+03 -.288551922534742D+03 0.472952841253584D+03 0.706201363793152D+03
 0.360395741838491D+03 0.879816223274564D+02 -.278829301403853D+03 0.210709623763568D+03
 0.310352738323968D+03 0.665713707029642D+02 -.800407870213533D+02 -.292370564867458D+03
 0.648861562410726D+03 0.133998929504322D+03 -.114082752828378D+03 -.624540422689263D+03
-.540695843652D-03 0.000000000000D+00 0.000000000000D+00 0.164014350486D-06 0.000000000000D+00  6 1 -4 25 1 -4 21 2 0.37997682D+00 0.77152947D-01 0.32514307D+06 0.32514307D+06 0.32514307D+06 0.10819753D+01  1  2 13  4  6  5       -4 -.717798198162D-04 0.100000000000D+01
0.626731614261D-03 0.000000000000D+00 0.000000000000D+00 0.164014350486D-06 0.662952060535D-09  6 1 -4 25 1 -4 21 2 0.37997682D+00 0.77152947D-01 0.32514307D+06 0.32514307D+06 0.32514307D+06 0.10819753D+01  1  2  1  4  6  5       -4 0.832014576642D-04 0.100000000000D+01
  </mgrwgt>
  </event>
  <event>
  5     66 0.15842354E-05 0.30119002E+02 0.75467711E-02 0.93778587E-01
        1 -1    0    0  502    0 0.00000000E+00 0.00000000E+00 0.84540511E+03 0.84540517E+03 0.32000000E+00 0.0000E+00 0.9000E+01
       -4 -1    0    0    0  501 0.00000000E+00 0.00000000E+00 -.40696250E+03 0.40696546E+03 0.15500000E+01 0.0000E+00 0.9000E+01
       25  1    1    2    0    0 -.51267452E+03 -.13308734E+03 0.45765473E+02 0.54613815E+03 0.12500000E+03 0.0000E+00 0.9000E+01
        1  1    1    2  502    0 0.29041387E+02 -.82499584E+01 0.13875525E+03 0.14200206E+03 0.32000000E+00 0.0000E+00 0.9000E+01
       -4  1    1    2    0  501 0.48363313E+03 0.14133730E+03 0.25392189E+03 0.56423042E+03 0.15500000E+01 0.0000E+00 0.9000E+01
#aMCatNLO 1  0  0  4  1 0.54294980D+01 0.00000000D+00  -5  6  0 0.00000000D+00 0.00000000D+00 0.00000000D+00 0.00000000D+00 0.00000000D+00
  <mgrwgt>
 0.3227833362D-03    8    2    0
 0.586557813501266D+03 0.000000000000000D+00 0.000000000000000D+00 0.586557813501266D+03
 0.586557813501266D+03 -.000000000000000D+00 -.000000000000000D+00 -.586557813501266D+03
 0.565993375760764D+03 -.512771618063354D+03 -.133129956695591D+03 -.155129570823830D+03
 0.995003841875484D+02 0.289726470704779D+02 -.823043095547128D+01 0.948323372140879D+02
 0.507621867054220D+03 0.483798970992876D+03 0.141360387651062D+03 0.602972336097417D+02
 0.000000000000000D+00 0.000000000000000D+00 0.000000000000000D+00 0.000000000000000D+00
 0.586557813501266D+03 0.000000000000000D+00 0.000000000000000D+00 0.586557813501266D+03
 0.586557813501266D+03 -.000000000000000D+00 -.000000000000000D+00 -.586557813501266D+03
 0.565837491638525D+03 -.512681801017290D+03 -.133155471554294D+03 -.154835584555359D+03
 0.629152079444818D+02 0.131679056600398D+02 -.420753281065909D+01 0.613777347160426D+02
 0.507723677035607D+03 0.483879544283579D+03 0.141337498720535D+03 0.605609635152547D+02
 0.366392503839195D+02 0.156343510736708D+02 -.397449435558190D+01 0.328968863240612D+02
0.593114088825D-05 0.000000000000D+00 0.000000000000D+00 0.493459902698D-07 0.000000000000D+00  6 1 -4 25 1 -4 21 0 0.13006256D+00 0.62609848D-01 0.29077229D+06 0.29077229D+06 0.29077229D+06 0.10855571D+01  1  2  2  3  6  4        1 0.152374513189D-04 0.100000000000D+01
0.170433738190D-05 0.000000000000D+00 -.227771427161D-07 0.493459902698D-07 0.000000000000D+00  6 1 -4 25 1 -4 21 2 0.13006256D+00 0.62609848D-01 0.29077229D+06 0.29077229D+06 0.29077229D+06 0.10855571D+01  1  2  3  3  6  4        1 0.515982569758D-05 0.100000000000D+01
-.372944429956D-05 0.000000000000D+00 0.000000000000D+00 0.493459902698D-07 0.000000000000D+00  6 1 -4 25 1 -4 21 2 0.13006256D+00 0.62609848D-01 0.29077229D+06 0.29077229D+06 0.29077229D+06 0.10855571D+01  1  2 15  3  6  4        1 -.112907706766D-04 0.100000000000D+01
0.486132570406D-04 0.000000000000D+00 0.000000000000D+00 0.493459902698D-07 0.000000000000D+00  6 1 -4 25 1 -4 21 2 0.13006256D+00 0.62609848D-01 0.29068007D+06 0.29068007D+06 0.29068007D+06 0.10855674D+01  1  2 12  3  6  4        1 0.147178665636D-03 0.100000000000D+01
-.757708220592D-04 0.000000000000D+00 0.000000000000D+00 0.493459902698D-07 0.000000000000D+00  6 1 -4 25 1 -4 21 2 0.13006256D+00 0.62609848D-01 0.29077229D+06 0.29077229D+06 0.29077229D+06 0.10855571D+01  1  2  4  3  6  4        1 -.229393686332D-03 0.100000000000D+01
-.102185436147D-03 0.000000000000D+00 0.000000000000D+00 0.493459902698D-07 0.000000000000D+00  6 1 -4 25 1 -4 21 2 0.13006256D+00 0.62609848D-01 0.29077229D+06 0.29077229D+06 0.29077229D+06 0.10855571D+01  1  2  5  3  6  4        1 -.309363066812D-03 0.100000000000D+01
0.213157356181D-03 0.000000000000D+00 -.000000000000D+00 0.493459902698D-07 0.000000000000D+00  6 1 -4 25 1 -4 21 2 0.13006256D+00 0.62609848D-01 0.29077229D+06 0.29077229D+06 0.29077229D+06 0.10855571D+01  1  2  6  3  6  4        1 0.645326926306D-03 0.100000000000D+01
0.197942739774D-04 0.000000000000D+00 0.000000000000D+00 0.493459902698D-07 0.184323538796D-08  6 1 -4 25 1 -4 21 2 0.13006256D+00 0.62609848D-01 0.29068007D+06 0.29068007D+06 0.29068007D+06 0.10855674D+01  1  2 11  3  6  4        1 0.599279910167D-04 0.100000000000D+01
  </mgrwgt>
  </event>
  <event>
  5     66 0.15842354E-05 0.99115332E+02 0.75467711E-02 0.93411521E-01
        1 -1    0    0  502    0 0.00000000E+00 0.00000000E+00 0.32304956E+04 0.32304956E+04 0.32000000E+00 0.0000E+00 0.9000E+01
       -4 -1    0    0    0  501 0.00000000E+00 0.00000000E+00 -.38791139E+03 0.38791448E+03 0.15500000E+01 0.0000E+00 0.9000E+01
       25  1    1    2    0    0 0.47182253E+03 -.26035930E+03 0.58855798E+03 0.80773075E+03 0.12500000E+03 0.0000E+00 0.9000E+01
        1  1    1    2  502    0 -.42958186E+03 0.17069012E+03 0.25016244E+04 0.25439734E+04 0.32000000E+00 0.0000E+00 0.9000E+01
       -4  1    1    2    0  501 -.42240675E+02 0.89669181E+02 -.24759816E+03 0.26670600E+03 0.15500000E+01 0.0000E+00 0.9000E+01
#aMCatNLO 1  0  0  1  4 0.37092983D+02 0.00000000D+00  -5  6  0 0.00000000D+00 0.00000000D+00 0.00000000D+00 0.00000000D+00 0.00000000D+00
  <mgrwgt>
 0.3568787086D-04    1    2    0
 0.111944256887971D+04 0.000000000000000D+00 0.000000000000000D+00 0.111944256887971D+04
 0.111944256887971D+04 0.000000000000000D+00 0.000000000000000D+00 -.111944256887971D+04
 0.558181911030437D+03 0.471830697460240D+03 -.260358411039477D+03 -.743729556812996D+02
 0.935335280557009D+03 -.429591606911219D+03 0.170693991039586D+03 0.813121577471090D+03
 0.745367946171983D+03 -.422390905490216D+02 0.896644199998915D+02 -.738748621789790D+03
 0.000000000000000D+00 -.000000000000000D+00 -.000000000000000D+00 0.000000000000000D+00
 0.112886070564539D+04 0.000000000000000D+00 0.000000000000000D+00 0.112886070564539D+04
 0.112278600395482D+04 0.000000000000000D+00 0.000000000000000D+00 -.112278600395482D+04
 0.559352464290845D+03 0.474104027996082D+03 -.258735798468939D+03 -.743729556812996D+02
 0.934094855605212D+03 -.425788741686659D+03 0.173408324402091D+03 0.813121577471090D+03
 0.745465787552107D+03 -.392063803921077D+02 0.918290474246436D+02 -.738748621789790D+03
 0.127336021520496D+02 -.910890591731498D+01 -.650157335779552D+01 0.607470169056804D+01
0.510360221758D-03 0.000000000000D+00 0.000000000000D+00 0.113849977168D-04 0.000000000000D+00  6 1 -4 25 1 -4 21 2 0.49699956D+00 0.59678914D-01 0.31057295D+06 0.31057295D+06 0.31057295D+06 0.10834407D+01  1  2 14  1  6  1        1 0.356878708620D-04 0.100000000000D+01
  </mgrwgt>
  </event>
  <event>
  5     66 -.15842354E-05 0.26407874E+02 0.75467711E-02 0.92240087E-01
        1 -1    0    0  502    0 0.00000000E+00 0.00000000E+00 0.19582080E+04 0.19582081E+04 0.32000000E+00 0.0000E+00 0.9000E+01
       -4 -1    0    0    0  501 0.00000000E+00 0.00000000E+00 -.63700840E+03 0.63701029E+03 0.15500000E+01 0.0000E+00 0.9000E+01
       25  1    1    2    0    0 -.54406454E+03 -.23371188E+02 0.99804078E+03 0.11437932E+04 0.12500000E+03 0.0000E+00 0.9000E+01
        1  1    1    2  502    0 0.36336669E+01 -.26166683E+02 0.75648836E+03 0.75694956E+03 0.32000000E+00 0.0000E+00 0.9000E+01
       -4  1    1    2    0  501 0.54043087E+03 0.49537871E+02 -.43332950E+03 0.69447562E+03 0.15500000E+01 0.0000E+00 0.9000E+01
#aMCatNLO 1  0  0  2  2 0.17364938D+01 0.00000000D+00  -5  6  0 0.00000000D+00 0.00000000D+00 0.00000000D+00 0.00000000D+00 0.00000000D+00
  <mgrwgt>
 -.7009254522D-03    7    4    0
 0.111686948945879D+04 0.000000000000000D+00 0.000000000000000D+00 0.111686948945879D+04
 0.111686948945879D+04 0.000000000000000D+00 0.000000000000000D+00 -.111686948945879D+04
 0.738717266049896D+03 -.544128379700156D+03 -.233855314213685D+02 0.483172456256829D+03
 0.431838858434235D+03 0.363230497517731D+01 -.261568756941751D+02 0.431030653049490D+03
 0.106318285443345D+04 0.540496074724979D+03 0.495424071155436D+02 -.914203109306319D+03
 0.000000000000000D+00 0.000000000000000D+00 0.000000000000000D+00 -.000000000000000D+00
 0.112315022710029D+04 0.000000000000000D+00 0.000000000000000D+00 0.112315022710029D+04
 0.175877917193589D+04 0.000000000000000D+00 0.000000000000000D+00 -.175877917193589D+04
 0.762434332267869D+03 -.574604722250851D+03 -.453310236208752D+02 0.483172456256829D+03
 0.432997443728953D+03 -.139255802008026D+02 -.388000080361992D+02 0.431030653049490D+03
 0.104110509679458D+04 0.497774872883143D+03 0.187796014995478D+02 -.914203109306319D+03
 0.645392526244780D+03 0.907554295685105D+02 0.653514301575266D+02 -.635628944835601D+03
 0.111686948945879D+04 0.000000000000000D+00 0.000000000000000D+00 0.111686948945879D+04
 0.111686948945879D+04 0.000000000000000D+00 0.000000000000000D+00 -.111686948945879D+04
 0.738717266049896D+03 -.544128379700156D+03 -.233855314213685D+02 0.483172456256829D+03
 0.431838858434235D+03 0.363230497517731D+01 -.261568756941751D+02 0.431030653049490D+03
 0.000000000000000D+00 0.000000000000000D+00 0.000000000000000D+00 -.000000000000000D+00
 0.106318285443345D+04 0.540496074724979D+03 0.495424071155436D+02 -.914203109306319D+03
 0.112315022710029D+04 0.000000000000000D+00 0.000000000000000D+00 0.112315022710029D+04
 0.175877917193589D+04 0.000000000000000D+00 0.000000000000000D+00 -.175877917193589D+04
 0.762434332267869D+03 -.574604722250851D+03 -.453310236208752D+02 0.483172456256829D+03
 0.432997443728953D+03 -.139255802008026D+02 -.388000080361992D+02 0.431030653049490D+03
 0.645392526244780D+03 0.907554295685105D+02 0.653514301575266D+02 -.635628944835601D+03
 0.104110509679458D+04 0.497774872883143D+03 0.187796014995478D+02 -.914203109306319D+03
0.138414625084D-03 0.000000000000D+00 0.000000000000D+00 0.267059156645D-04 0.000000000000D+00  6 1 -4 25 1 -4 21 0 0.30126292D+00 0.98001440D-01 0.31807396D+06 0.31807396D+06 0.31807396D+06 0.10826771D+01  1  2  2  2  6  2       -4 0.184571444681D-04 0.100000000000D+01
0.717872164992D-04 0.000000000000D+00 -.531548605730D-06 0.267059156645D-04 0.000000000000D+00  6 1 -4 25 1 -4 21 2 0.30126292D+00 0.98001440D-01 0.31807396D+06 0.31807396D+06 0.31807396D+06 0.10826771D+01  1  2  3  2  6  2       -4 0.112208971967D-04 0.100000000000D+01
-.844186135509D-04 0.000000000000D+00 0.000000000000D+00 0.267059156645D-04 0.000000000000D+00  6 1 -4 25 1 -4 21 2 0.30126292D+00 0.98001440D-01 0.31807396D+06 0.31807396D+06 0.31807396D+06 0.10826771D+01  1  2 15  2  6  2       -4 -.131952822569D-04 0.100000000000D+01
-.586391403206D-02 0.000000000000D+00 0.000000000000D+00 0.267059156645D-04 0.000000000000D+00  6 1 -4 25 1 -4 21 2 0.30126292D+00 0.98001440D-01 0.31807396D+06 0.31807396D+06 0.31807396D+06 0.10826771D+01  1  2  4  2  6  2       -4 -.916575119258D-03 0.100000000000D+01
-.370132113098D-02 0.000000000000D+00 -.885673854875D-04 0.267059156645D-04 0.000000000000D+00  6 1 -4 25 1 -4 21 2 0.30126292D+00 0.15462482D+00 0.31807396D+06 0.31807396D+06 0.31807396D+06 0.10826771D+01  1  2  5  2  6  2       -4 -.146119859377D-03 0.100000000000D+01
0.339140208232D-02 0.000000000000D+00 0.800941255865D-04 0.267059156645D-04 0.000000000000D+00  6 1 -4 25 1 -4 21 2 0.30126292D+00 0.98001440D-01 0.31807396D+06 0.31807396D+06 0.31807396D+06 0.10826771D+01  1  2  6  2  6  2       -4 0.530102377194D-03 0.100000000000D+01
-.190709267012D-03 0.000000000000D+00 -.464913920550D-05 0.267059156645D-04 0.000000000000D+00  6 1 21 25 1 4 -4 2 0.30126292D+00 0.15462482D+00 0.31807396D+06 0.31807396D+06 0.31807396D+06 0.10826771D+01  3  4  5  6  5  2       -4 -.184815610164D-03 0.100000000000D+01
  </mgrwgt>
  </event>
  <event>
  5     66 -.15842354E-05 0.21235345E+02 0.75467711E-02 0.93894344E-01
        1 -1    0    0  502    0 0.00000000E+00 0.00000000E+00 0.17626323E+04 0.17626323E+04 0.32000000E+00 0.0000E+00 0.9000E+01
       -4 -1    0    0    0  501 0.00000000E+00 0.00000000E+00 -.40540564E+03 0.40540861E+03 0.15500000E+01 0.0000E+00 0.9000E+01
       25  1    1    2    0    0 -.39055730E+03 0.34996500E+03 0.56832144E+03 0.78334205E+03 0.12500000E+03 0.0000E+00 0.9000E+01
        1  1    1    2  502    0 0.36956141E+03 -.34679049E+03 0.10272202E+04 0.11454347E+04 0.32000000E+00 0.0000E+00 0.9000E+01
       -4  1    1    2    0  501 0.20995891E+02 -.31745113E+01 -.23831498E+03 0.23926416E+03 0.15500000E+01 0.0000E+00 0.9000E+01
#aMCatNLO 1  0  0  2  2 0.17364938D+01 0.00000000D+00  -5  6  0 0.00000000D+00 0.00000000D+00 0.00000000D+00 0.00000000D+00 0.00000000D+00
  <mgrwgt>
 -.8055478179D-04    1    2    0
 0.845330900879326D+03 0.000000000000000D+00 0.000000000000000D+00 0.845330900879326D+03
 0.845330900879326D+03 0.000000000000000D+00 0.000000000000000D+00 -.845330900879326D+03
 0.548298835298183D+03 -.390565782186174D+03 0.349973486569529D+03 0.999176724759656D+02
 0.644245750791353D+03 0.369569232206946D+03 -.346797834799068D+03 0.397746693006190D+03
 0.498117215669117D+03 0.209965499792276D+02 -.317565177046100D+01 -.497664365482155D+03
 0.000000000000000D+00 0.000000000000000D+00 0.000000000000000D+00 -.000000000000000D+00
 0.891929333299278D+03 0.000000000000000D+00 0.000000000000000D+00 0.891929333299278D+03
 0.934065708266277D+03 0.000000000000000D+00 0.000000000000000D+00 -.934065708266277D+03
 0.553749235629455D+03 -.420430106779615D+03 0.322905868637398D+03 0.999176724759656D+02
 0.642973217014991D+03 0.334686974262386D+03 -.378413471298706D+03 0.397746693006190D+03
 0.498468280279073D+03 -.600985157552520D+01 -.276529827986106D+02 -.497664365482155D+03
 0.130804308642037D+03 0.917529840927547D+02 0.831605854599185D+02 -.421363749669981D+02
-.118235897004D-03 0.000000000000D+00 0.000000000000D+00 0.741983519884D-05 0.000000000000D+00  6 1 -4 25 1 -4 21 2 0.27117443D+00 0.62370329D-01 0.28470605D+06 0.28470605D+06 0.28470605D+06 0.10862371D+01  1  2 14  2  6  2       -4 -.805547817880D-04 0.100000000000D+01
  </mgrwgt>
  </event>
  <event>
  5     66 0.15842354E-05 0.39742610E+02 0.75467711E-02 0.93334324E-01
        1 -1    0    0  502    0 0.00000000E+00 0.00000000E+00 0.12912729E+04 0.12912730E+04 0.32000000E+00 0.0000E+00 0.9000E+01
       -4 -1    0    0    0  501 0.00000000E+00 0.00000000E+00 -.11650010E+04 0.11650020E+04 0.15500000E+01 0.0000E+00 0.9000E+01
       25  1    1    2    0    0 0.56631781E+03 0.75957526E+02 -.13737856E+03 0.60081884E+03 0.12500000E+03 0.0000E+00 0.9000E+01
        1  1    1    2  502    0 -.36509156E+02 -.15704183E+02 0.96979004E+03 0.97060412E+03 0.32000000E+00 0.0000E+00 0.9000E+01
       -4  1    1    2    0  501 -.52980866E+03 -.60253343E+02 -.70613951E+03 0.88485201E+03 0.15500000E+01 0.0000E+00 0.9000E+01
#aMCatNLO 1  0  0  5  2 0.16020241D+02 0.00000000D+00  -5  6  0 0.00000000D+00 0.00000000D+00 0.00000000D+00 0.00000000D+00 0.00000000D+00
  <mgrwgt>
 0.2775127302D-03    4    2    0
 0.122651357072771D+04 0.000000000000000D+00 0.000000000000000D+00 0.122651357072771D+04
 0.122651357072771D+04 -.000000000000000D+00 -.000000000000000D+00 -.122651357072771D+04
 0.608698236569434D+03 0.566335344132972D+03 0.759594677452412D+02 -.168472491666703D+03
 0.921949368290526D+03 -.365084072303002D+02 -.157038606375871D+02 0.921092374658417D+03
 0.922379536595452D+03 -.529826936902672D+03 -.602556071076542D+02 -.752619882991714D+03
 0.000000000000000D+00 0.000000000000000D+00 0.000000000000000D+00 -.000000000000000D+00
 0.122651357072771D+04 0.000000000000000D+00 0.000000000000000D+00 0.122651357072771D+04
 0.122651357072771D+04 -.000000000000000D+00 -.000000000000000D+00 -.122651357072771D+04
 0.597288203369287D+03 0.543479384790971D+03 0.733601289607108D+02 -.200939412933863D+03
 0.875763549455827D+03 -.705788179711434D+02 -.195785848930165D+02 0.872695309958093D+03
 0.255021256335455D+03 -.253602142970455D+03 0.222643108872020D+02 0.150364465358371D+02
 0.724954132294844D+03 -.219298423849374D+03 -.760458549548963D+02 -.686792343560067D+03
0.863121606055D-02 0.000000000000D+00 0.000000000000D+00 0.353952218523D-04 0.000000000000D+00  6 1 -4 25 1 -4 21 0 0.19865746D+00 0.17923100D+00 0.33518551D+06 0.33518551D+06 0.33518551D+06 0.10810064D+01  1  2  2  4  6  5       -4 0.489251671986D-03 0.100000000000D+01
0.512729975396D-02 0.000000000000D+00 -.331461423239D-04 0.353952218523D-04 0.000000000000D+00  6 1 -4 25 1 -4 21 2 0.19865746D+00 0.17923100D+00 0.33518551D+06 0.33518551D+06 0.33518551D+06 0.10810064D+01  1  2  3  4  6  5       -4 0.339629607980D-03 0.100000000000D+01
-.609451473807D-02 0.000000000000D+00 0.000000000000D+00 0.353952218523D-04 0.000000000000D+00  6 1 -4 25 1 -4 21 2 0.19865746D+00 0.17923100D+00 0.33518551D+06 0.33518551D+06 0.33518551D+06 0.10810064D+01  1  2 15  4  6  5       -4 -.403697413969D-03 0.100000000000D+01
-.222935268473D-02 0.000000000000D+00 0.000000000000D+00 0.353952218523D-04 0.000000000000D+00  6 1 -4 25 1 -4 21 2 0.19865746D+00 0.17923100D+00 0.33518551D+06 0.33518551D+06 0.33518551D+06 0.10810064D+01  1  2  5  4  6  5       -4 -.147671135821D-03 0.100000000000D+01
  </mgrwgt>
  </event>
  <event>
  5     66 0.15842354E-05 0.30653996E+02 0.75467711E-02 0.90286169E-01
        1 -1    0    0  502    0 0.00000000E+00 0.00000000E+00 0.38583609E+04 0.38583609E+04 0.32000000E+00 0.0000E+00 0.9000E+01
       -4 -1    0    0    0  501 0.00000000E+00 0.00000000E+00 -.24888474E+03 0.24888957E+03 0.15500000E+01 0.0000E+00 0.9000E+01
       25  1    1    2    0    0 0.35349544E+03 -.32446407E+03 0.10817382E+04 0.11899658E+04 0.12500000E+03 0.0000E+00 0.9000E+01
        1  1    1    2  502    0 -.35494612E+03 0.29384456E+03 0.27016601E+04 0.27406749E+04 0.32000000E+00 0.0000E+00 0.9000E+01
       -4  1    1    2    0  501 0.14506842E+01 0.30619509E+02 -.17392224E+03 0.17660976E+03 0.15500000E+01 0.0000E+00 0.9000E+01
#aMCatNLO 1  0  0  2  5 0.72101502D+02 0.00000000D+00  -5  6  0 0.00000000D+00 0.00000000D+00 0.00000000D+00 0.00000000D+00 0.00000000D+00
  <mgrwgt>
 0.5598843402D-03    7    4    0
 0.979947496801650D+03 0.000000000000000D+00 0.000000000000000D+00 0.979947496801650D+03
 0.979947496801650D+03 0.000000000000000D+00 0.000000000000000D+00 -.979947496801650D+03
 0.501550508392217D+03 0.353501173425393D+03 -.324468131150786D+03 0.754006944455946D+02
 0.767939202057256D+03 -.354950796048631D+03 0.293848430307450D+03 0.614323734236783D+03
 0.690405283153828D+03 0.144962262323793D+01 0.306197008433359D+02 -.689724428682377D+03
 0.000000000000000D+00 0.000000000000000D+00 0.000000000000000D+00 -.000000000000000D+00
 0.118737378637674D+04 0.000000000000000D+00 0.000000000000000D+00 0.118737378637674D+04
 0.123326907581319D+04 0.000000000000000D+00 0.000000000000000D+00 -.123326907581319D+04
 0.573154347063298D+03 0.341768774733258D+03 -.436336734016293D+03 0.754006944455946D+02
 0.730933580661291D+03 -.371313775136681D+03 0.137827171796629D+03 0.614323734236783D+03
 0.699221611679267D+03 -.137207347830153D+02 -.114029891498388D+03 -.689724428682377D+03
 0.417333322786076D+03 0.432657351864384D+02 0.412539453718052D+03 -.458952894364524D+02
 0.979947496801650D+03 0.000000000000000D+00 0.000000000000000D+00 0.979947496801650D+03
 0.979947496801650D+03 0.000000000000000D+00 0.000000000000000D+00 -.979947496801650D+03
 0.501550508392217D+03 0.353501173425393D+03 -.324468131150786D+03 0.754006944455946D+02
 0.767939202057256D+03 -.354950796048631D+03 0.293848430307450D+03 0.614323734236783D+03
 0.000000000000000D+00 0.000000000000000D+00 0.000000000000000D+00 -.000000000000000D+00
 0.690405283153828D+03 0.144962262323793D+01 0.306197008433359D+02 -.689724428682377D+03
 0.118737378637674D+04 0.000000000000000D+00 0.000000000000000D+00 0.118737378637674D+04
 0.123326907581319D+04 0.000000000000000D+00 0.000000000000000D+00 -.123326907581319D+04
 0.573154347063298D+03 0.341768774733258D+03 -.436336734016293D+03 0.754006944455946D+02
 0.730933580661291D+03 -.371313775136681D+03 0.137827171796629D+03 0.614323734236783D+03
 0.417333322786076D+03 0.432657351864384D+02 0.412539453718052D+03 -.458952894364524D+02
 0.699221611679267D+03 -.137207347830153D+02 -.114029891498388D+03 -.689724428682377D+03
0.800031693712D-02 0.000000000000D+00 0.000000000000D+00 0.306901852372D-04 0.000000000000D+00  6 1 -4 25 1 -4 21 0 0.59359435D+00 0.38290333D-01 0.24369268D+06 0.24369268D+06 0.24369268D+06 0.10912950D+01  1  2  2  2  6  2       -4 0.392452282911D-03 0.100000000000D+01
0.490304772749D-02 0.000000000000D+00 -.307233235704D-04 0.306901852372D-04 0.000000000000D+00  6 1 -4 25 1 -4 21 2 0.59359435D+00 0.38290333D-01 0.24369268D+06 0.24369268D+06 0.24369268D+06 0.10912950D+01  1  2  3  2  6  2       -4 0.286437636610D-03 0.100000000000D+01
-.581622881487D-02 0.000000000000D+00 0.000000000000D+00 0.306901852372D-04 0.000000000000D+00  6 1 -4 25 1 -4 21 2 0.59359435D+00 0.38290333D-01 0.24369268D+06 0.24369268D+06 0.24369268D+06 0.10912950D+01  1  2 15  2  6  2       -4 -.339785971564D-03 0.100000000000D+01
-.166352352187D-03 0.000000000000D+00 0.000000000000D+00 0.306901852372D-04 0.000000000000D+00  6 1 -4 25 1 -4 21 2 0.59359435D+00 0.38290333D-01 0.24369268D+06 0.24369268D+06 0.24369268D+06 0.10912950D+01  1  2  4  2  6  2       -4 -.971835830556D-05 0.100000000000D+01
0.174964236126D-02 0.000000000000D+00 -.456788161624D-02 0.306901852372D-04 0.000000000000D+00  6 1 -4 25 1 -4 21 2 0.59359435D+00 0.74695329D-01 0.24369268D+06 0.24369268D+06 0.24369268D+06 0.10912950D+01  1  2  5  2  6  2       -4 0.219816386119D-04 0.100000000000D+01
0.175528072505D-02 0.000000000000D+00 0.370862589912D-02 0.306901852372D-04 0.000000000000D+00  6 1 -4 25 1 -4 21 2 0.59359435D+00 0.38290333D-01 0.24369268D+06 0.24369268D+06 0.24369268D+06 0.10912950D+01  1  2  6  2  6  2       -4 0.102544068590D-03 0.100000000000D+01
0.394829633210D-03 0.000000000000D+00 -.330775051369D-03 0.306901852372D-04 0.000000000000D+00  6 1 21 25 1 4 -4 2 0.59359435D+00 0.74695329D-01 0.24369268D+06 0.24369268D+06 0.24369268D+06 0.10912950D+01  3  4  5  6  5  2       -4 0.105973043319D-03 0.100000000000D+01
  </mgrwgt>
  </event>
  <event>
  6     66 0.15842354E-05 0.46269823E+02 0.75467711E-02 0.89531738E-01
        1 -1    0    0  502    0 0.00000000E+00 0.00000000E+00 0.29287968E+04 0.29287968E+04 0.32000000E+00 0.0000E+00 0.9000E+01
       21 -1    0    0  503  501 0.00000000E+00 0.00000000E+00 -.51409277E+03 0.51409332E+03 0.75000000E+00 0.0000E+00 0.9000E+01
       25  1    1    2    0    0 0.48739766E+03 -.61115819E+03 0.10332558E+04 0.13016579E+04 0.12500000E+03 0.0000E+00 0.9000E+01
        1  1    1    2  502    0 -.43894587E+03 0.61627989E+03 0.16768925E+04 0.18396856E+04 0.32000000E+00 0.0000E+00 0.9000E+01
        4  1    1    2  503    0 0.36624561E+00 0.92150750E+01 -.39834249E+02 0.40917253E+02 0.15500000E+01 0.0000E+00 0.9000E+01
       -4  1    1    2    0  501 -.48818032E+02 -.14336780E+02 -.25561007E+03 0.26062934E+03 0.15500000E+01 0.0000E+00 0.9000E+01
#aMCatNLO 2  0  0  2  5 0.92223502D+01 0.00000000D+00  -5  6  0 0.00000000D+00 0.00000000D+00 0.00000000D+00 0.00000000D+00 0.00000000D+00
  <mgrwgt>
 0.7564213340D-04    1    2    0
 0.117777079509907D+04 0.000000000000000D+00 0.000000000000000D+00 0.117777079509907D+04
 0.117777079509907D+04 0.000000000000000D+00 0.000000000000000D+00 -.117777079509907D+04
 0.800912196081213D+03 0.487520538209825D+03 -.608016571945961D+03 0.135922473838273D+03
 0.911919662016968D+03 -.438800787406937D+03 0.619837903961226D+03 0.504828992587735D+03
 0.000000000000000D+00 0.000000000000000D+00 0.000000000000000D+00 -.000000000000000D+00
 0.642709732099951D+03 -.487197508028879D+02 -.118213320152652D+02 -.640751466426008D+03
 0.117799165101015D+04 0.000000000000000D+00 0.000000000000000D+00 0.117799165101015D+04
 0.127815757061635D+04 0.000000000000000D+00 0.000000000000000D+00 -.127815757061635D+04
 0.803221145032958D+03 0.487395831319058D+03 -.611154311566683D+03 0.135922473838273D+03
 0.909570019540313D+03 -.438942391791641D+03 0.616275007912580D+03 0.504828992587735D+03
 0.100589577954606D+03 0.366245605591159D+00 0.921507496906495D+01 -.100165919606204D+03
 0.642768479098626D+03 -.488196851330079D+02 -.143357713149623D+02 -.640751466426008D+03
0.683016224023D-04 0.000000000000D+00 0.000000000000D+00 0.240667949255D-05 0.210568252119D-08  6 1 21 25 1 4 -4 2 0.45058188D+00 0.79090838D-01 0.64670130D+06 0.64670130D+06 0.64670130D+06 0.10607021D+01  1  2  1  6  5  2       -4 0.756421333966D-04 0.100000000000D+01
  </mgrwgt>
  </event>
  <event>
  5     66 0.15842354E-05 0.38353323E+02 0.75467711E-02 0.95188552E-01
        1 -1    0    0  502    0 0.00000000E+00 0.00000000E+00 0.11835729E+04 0.11835729E+04 0.32000000E+00 0.0000E+00 0.9000E+01
       -4 -1    0    0    0  501 0.00000000E+00 0.00000000E+00 -.11251205E+04 0.11251216E+04 0.15500000E+01 0.0000E+00 0.9000E+01
       25  1    1    2    0    0 -.36682041E+02 -.46322563E+03 0.68763016E+03 0.83927575E+03 0.12500000E+03 0.0000E+00 0.9000E+01
        1  1    1    2  502    0 -.40488258E+01 0.38158977E+02 0.37565844E+03 0.37761338E+03 0.32000000E+00 0.0000E+00 0.9000E+01
       -4  1    1    2    0  501 0.40730867E+02 0.42506665E+03 -.10048362E+04 0.10918053E+04 0.15500000E+01 0.0000E+00 0.9000E+01
#aMCatNLO 1  0  0  4  1 0.99085161D+01 0.00000000D+00  -5  6  0 0.00000000D+00 0.00000000D+00 0.00000000D+00 0.00000000D+00 0.00000000D+00
  <mgrwgt>
 0.1153516624D-02    8    2    0
 0.115397720303692D+04 0.000000000000000D+00 0.000000000000000D+00 0.115397720303692D+04
 0.115397720303692D+04 -.000000000000000D+00 -.000000000000000D+00 -.115397720303692D+04
 0.822301763993890D+03 -.366890038129316D+02 -.463259507660038D+03 0.666783125633257D+03
 0.368029729853524D+03 -.404673121139642D+01 0.381392364074639D+02 0.366025825139178D+03
 0.111762291222643D+04 0.407357350243280D+02 0.425120271252575D+03 -.103280895077243D+04
 0.000000000000000D+00 0.000000000000000D+00 0.000000000000000D+00 0.000000000000000D+00
 0.115397720303692D+04 0.000000000000000D+00 0.000000000000000D+00 0.115397720303692D+04
 0.115397720303692D+04 -.000000000000000D+00 -.000000000000000D+00 -.115397720303692D+04
 0.822577715393066D+03 -.366930567161833D+02 -.463221310253989D+03 0.667149709717898D+03
 0.564367735311597D+02 -.101971767501763D+02 0.823758825350247D+01 0.548932521599770D+02
 0.111718221654932D+04 0.407302285728907D+02 0.425172167917354D+03 -.103231089361825D+04
 0.311757700600302D+03 0.616000489346889D+01 0.298115540831325D+02 0.310267931740372D+03
0.754195540414D-03 0.000000000000D+00 0.000000000000D+00 0.449370969364D-04 0.000000000000D+00  6 1 -4 25 1 -4 21 0 0.18208822D+00 0.17309555D+00 0.22403603D+06 0.22403603D+06 0.22403603D+06 0.10940599D+01  1  2  2  3  6  4        1 0.587837960433D-04 0.100000000000D+01
0.210580203639D-03 0.000000000000D+00 -.289630945943D-05 0.449370969364D-04 0.000000000000D+00  6 1 -4 25 1 -4 21 2 0.18208822D+00 0.17309555D+00 0.22403603D+06 0.22403603D+06 0.22403603D+06 0.10940599D+01  1  2  3  3  6  4        1 0.196459666829D-04 0.100000000000D+01
-.489897708797D-03 0.000000000000D+00 0.000000000000D+00 0.449370969364D-04 0.000000000000D+00  6 1 -4 25 1 -4 21 2 0.18208822D+00 0.17309555D+00 0.22403603D+06 0.22403603D+06 0.22403603D+06 0.10940599D+01  1  2 15  3  6  4        1 -.457047428900D-04 0.100000000000D+01
0.551685320374D-02 0.000000000000D+00 0.000000000000D+00 0.449370969364D-04 0.000000000000D+00  6 1 -4 25 1 -4 21 2 0.18208822D+00 0.17309555D+00 0.22650953D+06 0.22650953D+06 0.22650953D+06 0.10936977D+01  1  2 12  3  6  4        1 0.514075468805D-03 0.100000000000D+01
-.380869021838D-02 0.000000000000D+00 0.000000000000D+00 0.449370969364D-04 0.000000000000D+00  6 1 -4 25 1 -4 21 2 0.18208822D+00 0.17309555D+00 0.22403603D+06 0.22403603D+06 0.22403603D+06 0.10940599D+01  1  2  4  3  6  4        1 -.355329702615D-03 0.100000000000D+01
-.607041522770D-02 0.000000000000D+00 0.000000000000D+00 0.449370969364D-04 0.000000000000D+00  6 1 -4 25 1 -4 21 2 0.18208822D+00 0.17309555D+00 0.22403603D+06 0.22403603D+06 0.22403603D+06 0.10940599D+01  1  2  5  3  6  4        1 -.566336119226D-03 0.100000000000D+01
0.163823439185D-01 0.000000000000D+00 -.000000000000D+00 0.449370969364D-04 0.000000000000D+00  6 1 -4 25 1 -4 21 2 0.18208822D+00 0.17309555D+00 0.22403603D+06 0.22403603D+06 0.22403603D+06 0.10940599D+01  1  2  6  3  6  4        1 0.152838195257D-02 0.100000000000D+01
0.461774901700D-10 0.000000000000D+00 0.000000000000D+00 0.449370969364D-04 0.213321787874D-06  6 1 -4 25 1 -4 21 2 0.18208822D+00 0.17309555D+00 0.22650953D+06 0.22650953D+06 0.22650953D+06 0.10936977D+01  1  2 11  3  6  4        1 0.430294481848D-11 0.100000000000D+01
  </mgrwgt>
  </event>
  <event>
  5     66 -.15842354E-05 0.54647405E+02 0.75467711E-02 0.94930079E-01
        3 -1    0    0  502    0 0.00000000E+00 0.00000000E+00 0.59173461E+03 0.59173483E+03 0.50000000E+00 0.0000E+00 0.9000E+01
       -2 -1    0    0    0  501 0.00000000E+00 0.00000000E+00 -.61618746E+03 0.61618755E+03 0.32000000E+00 0.0000E+00 0.9000E+01
       25  1    1    2    0    0 -.43134996E+03 -.17252056E+03 0.89877914E+02 0.48941718E+03 0.12500000E+03 0.0000E+00 0.9000E+01
        3  1    1    2  502    0 0.35742660E+02 0.41449715E+02 0.19304788E+03 0.20065730E+03 0.50000000E+00 0.0000E+00 0.9000E+01
       -2  1    1    2    0  501 0.39560730E+03 0.13107085E+03 -.30737865E+03 0.51784789E+03 0.32000000E+00 0.0000E+00 0.9000E+01
#aMCatNLO 1  0  0  2  5 0.25318422D+02 0.00000000D+00  -5  6  0 0.00000000D+00 0.00000000D+00 0.00000000D+00 0.00000000D+00 0.00000000D+00
  <mgrwgt>
 -.9284814467D-04    9    4    0
 0.603837419107466D+03 0.000000000000000D+00 0.000000000000000D+00 0.603837419107466D+03
 0.603837419107466D+03 0.000000000000000D+00 0.000000000000000D+00 -.603837419107466D+03
 0.491509086498887D+03 -.431475678044469D+03 -.172531697253065D+03 0.100088634769453D+03
 0.204289534977564D+03 0.356872675596717D+02 0.413854781506140D+02 0.196844799864560D+03
 0.511876216738482D+03 0.395788410484797D+03 0.131146219102451D+03 -.296933434634013D+03
 0.000000000000000D+00 0.000000000000000D+00 0.000000000000000D+00 -.000000000000000D+00
 0.606874590620878D+03 0.000000000000000D+00 0.000000000000000D+00 0.606874590620878D+03
 0.659145266429432D+03 0.000000000000000D+00 0.000000000000000D+00 -.659145266429432D+03
 0.501007556943720D+03 -.439757905211854D+03 -.178826234396365D+03 0.100088634769453D+03
 0.203213770746380D+03 0.322867855911680D+02 0.388010935855352D+02 0.196844799864560D+03
 0.503718876691752D+03 0.387313601191226D+03 0.124705318508607D+03 -.296933434634013D+03
 0.580796526684584D+02 0.201575184294608D+02 0.153198223022235D+02 -.522706758085545D+02
 0.603837419107466D+03 0.000000000000000D+00 0.000000000000000D+00 0.603837419107466D+03
 0.603837419107466D+03 0.000000000000000D+00 0.000000000000000D+00 -.603837419107466D+03
 0.491509086498887D+03 -.431475678044469D+03 -.172531697253065D+03 0.100088634769453D+03
 0.204289534977564D+03 0.356872675596717D+02 0.413854781506140D+02 0.196844799864560D+03
 0.000000000000000D+00 0.000000000000000D+00 0.000000000000000D+00 -.000000000000000D+00
 0.511876216738482D+03 0.395788410484797D+03 0.131146219102451D+03 -.296933434634013D+03
 0.606874590620878D+03 0.000000000000000D+00 0.000000000000000D+00 0.606874590620878D+03
 0.659145266429432D+03 0.000000000000000D+00 0.000000000000000D+00 -.659145266429432D+03
 0.501007556943720D+03 -.439757905211854D+03 -.178826234396365D+03 0.100088634769453D+03
 0.203213770746380D+03 0.322867855911680D+02 0.388010935855352D+02 0.196844799864560D+03
 0.580796526684584D+02 0.201575184294608D+02 0.153198223022235D+02 -.522706758085545D+02
 0.503718876691752D+03 0.387313601191226D+03 0.124705318508607D+03 -.296933434634013D+03
0.875381166664D-05 0.000000000000D+00 0.000000000000D+00 0.807032613322D-06 0.000000000000D+00  6 3 -2 25 3 -2 21 0 0.91036117D-01 0.94798094D-01 0.22696096D+06 0.22696096D+06 0.22696096D+06 0.10936320D+01  1  2  2  2  6  2       -2 0.587660328888D-05 0.100000000000D+01
0.194745774886D-05 0.000000000000D+00 -.336169417314D-07 0.807032613322D-06 0.000000000000D+00  6 3 -2 25 3 -2 21 2 0.91036117D-01 0.94798094D-01 0.22696096D+06 0.22696096D+06 0.22696096D+06 0.10936320D+01  1  2  3  2  6  2       -2 0.156365044233D-05 0.100000000000D+01
-.543298447730D-05 0.000000000000D+00 0.000000000000D+00 0.807032613322D-06 0.000000000000D+00  6 3 -2 25 3 -2 21 2 0.91036117D-01 0.94798094D-01 0.22696096D+06 0.22696096D+06 0.22696096D+06 0.10936320D+01  1  2 15  2  6  2       -2 -.436224538689D-05 0.100000000000D+01
0.177621704447D-03 0.000000000000D+00 0.000000000000D+00 0.807032613322D-06 0.000000000000D+00  6 3 -2 25 3 -2 21 2 0.91036117D-01 0.10483821D+00 0.23697354D+06 0.23697354D+06 0.23697354D+06 0.10922118D+01  1  2 12  2  6  2       -2 0.111447451564D-03 0.100000000000D+01
-.304450332931D-03 0.000000000000D+00 0.000000000000D+00 0.807032613322D-06 0.000000000000D+00  6 3 -2 25 3 -2 21 2 0.91036117D-01 0.94798094D-01 0.22696096D+06 0.22696096D+06 0.22696096D+06 0.10936320D+01  1  2  4  2  6  2       -2 -.244448896535D-03 0.100000000000D+01
-.279444824030D-03 0.000000000000D+00 -.216858626654D-04 0.807032613322D-06 0.000000000000D+00  6 3 -2 25 3 -2 21 2 0.91036117D-01 0.10373940D+00 0.22696096D+06 0.22696096D+06 0.22696096D+06 0.10936320D+01  1  2  5  2  6  2       -2 -.180660148819D-03 0.100000000000D+01
0.280347689276D-03 0.000000000000D+00 0.215980730338D-04 0.807032613322D-06 0.000000000000D+00  6 3 -2 25 3 -2 21 2 0.91036117D-01 0.94798094D-01 0.22696096D+06 0.22696096D+06 0.22696096D+06 0.10936320D+01  1  2  6  2  6  2       -2 0.225096430770D-03 0.100000000000D+01
0.295070382501D-05 0.000000000000D+00 0.000000000000D+00 0.807032613322D-06 0.000000000000D+00  6 3 21 25 3 2 -2 2 0.91036117D-01 0.10483821D+00 0.23697354D+06 0.23697354D+06 0.23697354D+06 0.10922118D+01  3  4 12  6  5  2       -2 0.170344432327D-04 0.100000000000D+01
-.408776320814D-05 0.000000000000D+00 -.321792329477D-06 0.807032613322D-06 0.000000000000D+00  6 3 21 25 3 2 -2 2 0.91036117D-01 0.10373940D+00 0.22696096D+06 0.22696096D+06 0.22696096D+06 0.10936320D+01  3  4  5  6  5  2       -2 -.243954332301D-04 0.100000000000D+01
  </mgrwgt>
  </event>
  <event>
  5     66 -.15842354E-05 0.10436366E+02 0.75467711E-02 0.93566627E-01
        1 -1    0    0  502    0 0.00000000E+00 0.00000000E+00 0.13296158E+04 0.13296158E+04 0.32000000E+00 0.0000E+00 0.9000E+01
       -4 -1    0    0    0  501 0.00000000E+00 0.00000000E+00 -.70794879E+03 0.70795049E+03 0.15500000E+01 0.0000E+00 0.9000E+01
       25  1    1    2    0    0 -.35201941E+03 0.39388500E+03 0.25046050E+03 0.59784490E+03 0.12500000E+03 0.0000E+00 0.9000E+01
        1  1    1    2  502    0 0.10090484E+01 -.10388810E+02 0.77894606E+03 0.77901605E+03 0.32000000E+00 0.0000E+00 0.9000E+01
       -4  1    1    2    0  501 0.35101037E+03 -.38349619E+03 -.40773957E+03 0.66070535E+03 0.15500000E+01 0.0000E+00 0.9000E+01
#aMCatNLO 1  0  0  2  4 0.32381550D+03 0.00000000D+00  -5  6  0 0.00000000D+00 0.00000000D+00 0.00000000D+00 0.00000000D+00 0.00000000D+00
  <mgrwgt>
 -.5719954816D-02    7    4    0
 0.970207014766003D+03 0.000000000000000D+00 0.000000000000000D+00 0.970207014766003D+03
 0.970207014766003D+03 0.000000000000000D+00 0.000000000000000D+00 -.970207014766003D+03
 0.547589578504100D+03 -.352052266612016D+03 0.393920187457067D+03 0.715222620827186D+02
 0.568389426068323D+03 0.100891957907606D+01 -.103874840038559D+02 0.568293605386890D+03
 0.824435024959582D+03 0.351043347032940D+03 -.383532703453211D+03 -.639815867469609D+03
 0.000000000000000D+00 0.000000000000000D+00 0.000000000000000D+00 -.000000000000000D+00
 0.970507894116859D+03 0.000000000000000D+00 0.000000000000000D+00 0.970507894116859D+03
 0.129973330149380D+04 0.000000000000000D+00 0.000000000000000D+00 -.129973330149380D+04
 0.543955054614176D+03 -.352172397721238D+03 0.388743192545100D+03 0.715222620827186D+02
 0.568513323437037D+03 0.883796533960773D+00 -.157796040977236D+02 0.568293605386890D+03
 0.828032996962349D+03 0.350861482901687D+03 -.391370054562930D+03 -.639815867469609D+03
 0.329739820597098D+03 0.427118285590229D+00 0.184064661155543D+02 -.329225407376942D+03
 0.970207014766003D+03 0.000000000000000D+00 0.000000000000000D+00 0.970207014766003D+03
 0.970207014766003D+03 0.000000000000000D+00 0.000000000000000D+00 -.970207014766003D+03
 0.547589578504100D+03 -.352052266612016D+03 0.393920187457067D+03 0.715222620827186D+02
 0.568389426068323D+03 0.100891957907606D+01 -.103874840038559D+02 0.568293605386890D+03
 0.000000000000000D+00 0.000000000000000D+00 0.000000000000000D+00 -.000000000000000D+00
 0.824435024959582D+03 0.351043347032940D+03 -.383532703453211D+03 -.639815867469609D+03
 0.970507894116859D+03 0.000000000000000D+00 0.000000000000000D+00 0.970507894116859D+03
 0.129973330149380D+04 0.000000000000000D+00 0.000000000000000D+00 -.129973330149380D+04
 0.543955054614176D+03 -.352172397721238D+03 0.388743192545100D+03 0.715222620827186D+02
 0.568513323437037D+03 0.883796533960773D+00 -.157796040977236D+02 0.568293605386890D+03
 0.329739820597098D+03 0.427118285590229D+00 0.184064661155543D+02 -.329225407376942D+03
 0.828032996962349D+03 0.350861482901687D+03 -.391370054562930D+03 -.639815867469609D+03
0.670950638294D-04 0.000000000000D+00 0.000000000000D+00 0.241025158134D-04 0.000000000000D+00  6 1 -4 25 1 -4 21 0 0.20455641D+00 0.10891533D+00 0.28797524D+06 0.28797524D+06 0.28797524D+06 0.10858687D+01  1  2  2  2  6  2       -4 0.175991260115D-04 0.100000000000D+01
0.736876203312D-04 0.000000000000D+00 -.257662711641D-06 0.241025158134D-04 0.000000000000D+00  6 1 -4 25 1 -4 21 2 0.20455641D+00 0.10891533D+00 0.28797524D+06 0.28797524D+06 0.28797524D+06 0.10858687D+01  1  2  3  2  6  2       -4 0.227902829736D-04 0.100000000000D+01
-.415319627427D-04 0.000000000000D+00 0.000000000000D+00 0.241025158134D-04 0.000000000000D+00  6 1 -4 25 1 -4 21 2 0.20455641D+00 0.10891533D+00 0.28797524D+06 0.28797524D+06 0.28797524D+06 0.10858687D+01  1  2 15  2  6  2       -4 -.128451044979D-04 0.100000000000D+01
-.232629765048D-01 0.000000000000D+00 0.000000000000D+00 0.241025158134D-04 0.000000000000D+00  6 1 -4 25 1 -4 21 2 0.20455641D+00 0.10891533D+00 0.28797524D+06 0.28797524D+06 0.28797524D+06 0.10858687D+01  1  2  4  2  6  2       -4 -.719482885958D-02 0.100000000000D+01
-.276873432671D-01 0.000000000000D+00 -.577669610530D-04 0.241025158134D-04 0.000000000000D+00  6 1 -4 25 1 -4 21 2 0.20455641D+00 0.14592449D+00 0.28797524D+06 0.28797524D+06 0.28797524D+06 0.10858687D+01  1  2  5  2  6  2       -4 -.352386740099D-02 0.100000000000D+01
0.265620815699D-01 0.000000000000D+00 0.553806388744D-04 0.241025158134D-04 0.000000000000D+00  6 1 -4 25 1 -4 21 2 0.20455641D+00 0.10891533D+00 0.28797524D+06 0.28797524D+06 0.28797524D+06 0.10858687D+01  1  2  6  2  6  2       -4 0.821518394305D-02 0.100000000000D+01
-.104964588248D-02 0.000000000000D+00 -.219258261284D-05 0.241025158134D-04 0.000000000000D+00  6 1 21 25 1 4 -4 2 0.20455641D+00 0.14592449D+00 0.28797524D+06 0.28797524D+06 0.28797524D+06 0.10858687D+01  3  4  5  6  5  2       -4 -.324398680308D-02 0.100000000000D+01
  </mgrwgt>
  </event>
  <event>
  5     66 -.15842354E-05 0.62022910E+02 0.75467711E-02 0.94926155E-01
        1 -1    0    0  502    0 0.00000000E+00 0.00000000E+00 0.15161896E+04 0.15161897E+04 0.32000000E+00 0.0000E+00 0.9000E+01
       -4 -1    0    0    0  501 0.00000000E+00 0.00000000E+00 -.38231110E+03 0.38231424E+03 0.15500000E+01 0.0000E+00 0.9000E+01
       25  1    1    2    0    0 0.47658613E+03 -.35240826E+02 0.26474475E+03 0.56043825E+03 0.12500000E+03 0.0000E+00 0.9000E+01
        1  1    1    2  502    0 -.41757649E+03 0.16103824E+02 0.10589189E+04 0.11383931E+04 0.32000000E+00 0.0000E+00 0.9000E+01
       -4  1    1    2    0  501 -.59009638E+02 0.19137002E+02 -.18978509E+03 0.19967259E+03 0.15500000E+01 0.0000E+00 0.9000E+01
#aMCatNLO 1  0  0  5  2 0.11293970D+00 0.00000000D+00  -5  6  0 0.00000000D+00 0.00000000D+00 0.00000000D+00 0.00000000D+00 0.00000000D+00
  <mgrwgt>
 -.1640063477D-02    7    2    0
 0.761353491854104D+03 0.000000000000000D+00 0.000000000000000D+00 0.761353491854104D+03
 0.761353491854104D+03 -.000000000000000D+00 -.000000000000000D+00 -.761353491854104D+03
 0.501656983831308D+03 0.476610194447121D+03 -.352381114212510D+02 -.873826497610716D+02
 0.630876540858067D+03 -.417612118791244D+03 0.161051979181910D+02 0.472594911783595D+03
 0.390173459018833D+03 -.589980756558766D+02 0.191329135030599D+02 -.385212262022523D+03
 0.000000000000000D+00 0.000000000000000D+00 0.000000000000000D+00 -.000000000000000D+00
 0.761353491854104D+03 0.000000000000000D+00 0.000000000000000D+00 0.761353491854104D+03
 0.761353491854104D+03 -.000000000000000D+00 -.000000000000000D+00 -.761353491854104D+03
 0.501656984607713D+03 0.476610189726272D+03 -.352381098902925D+02 -.873826805846036D+02
 0.630876515799304D+03 -.417612124728116D+03 0.161051998435021D+02 0.472594873020369D+03
 0.864578848303936D+02 -.131680960830088D+02 0.429844694459776D+01 -.853410244182641D+02
 0.303715598470797D+03 -.458299689151468D+02 0.148344631021926D+02 -.299871168017501D+03
0.287413116564D-06 0.000000000000D+00 0.000000000000D+00 0.469225127694D-05 0.000000000000D+00  6 1 -4 25 1 -4 21 0 0.23326019D+00 0.58817336D-01 0.23713653D+06 0.23713653D+06 0.23713653D+06 0.10921892D+01  1  2  2  4  6  5       -4 0.280190613731D-06 0.100000000000D+01
0.787188166830D-07 0.000000000000D+00 -.110374204522D-08 0.469225127694D-05 0.000000000000D+00  6 1 -4 25 1 -4 21 2 0.23326019D+00 0.58817336D-01 0.23713653D+06 0.23713653D+06 0.23713653D+06 0.10921892D+01  1  2  3  4  6  5       -4 0.915421928013D-07 0.100000000000D+01
-.193568196331D-06 0.000000000000D+00 0.000000000000D+00 0.469225127694D-05 0.000000000000D+00  6 1 -4 25 1 -4 21 2 0.23326019D+00 0.58817336D-01 0.23713653D+06 0.23713653D+06 0.23713653D+06 0.10921892D+01  1  2 15  4  6  5       -4 -.225100654398D-06 0.100000000000D+01
-.794050300261D-01 0.000000000000D+00 0.000000000000D+00 0.469225127694D-05 0.000000000000D+00  6 1 -4 25 1 -4 21 2 0.23326019D+00 0.58817336D-01 0.23713653D+06 0.23713653D+06 0.23713653D+06 0.10921892D+01  1  2  4  4  6  5       -4 -.923401910031D-01 0.100000000000D+01
-.408074581407D-01 0.000000000000D+00 0.000000000000D+00 0.469225127694D-05 0.000000000000D+00  6 1 -4 25 1 -4 21 2 0.23326019D+00 0.58817336D-01 0.23713653D+06 0.23713653D+06 0.23713653D+06 0.10921892D+01  1  2  5  4  6  5       -4 -.474550349999D-01 0.100000000000D+01
0.777950724242D-01 0.000000000000D+00 -.000000000000D+00 0.469225127694D-05 0.000000000000D+00  6 1 -4 25 1 -4 21 2 0.23326019D+00 0.58817336D-01 0.23713653D+06 0.23713653D+06 0.23713653D+06 0.10921892D+01  1  2  6  4  6  5       -4 0.904679696536D-01 0.100000000000D+01
0.410069690603D-01 0.000000000000D+00 0.000000000000D+00 0.469225127694D-05 0.273359813909D-03  6 1 -4 25 1 -4 21 2 0.23326019D+00 0.58817336D-01 0.23713654D+06 0.23713654D+06 0.23713654D+06 0.10921892D+01  1  2 11  4  6  5       -4 0.476870462400D-01 0.100000000000D+01
  </mgrwgt>
  </event>
  <event>
  5     66 0.15842354E-05 0.12849436E+02 0.75467711E-02 0.94862224E-01
        1 -1    0    0  502    0 0.00000000E+00 0.00000000E+00 0.30219321E+04 0.30219321E+04 0.32000000E+00 0.0000E+00 0.9000E+01
       -4 -1    0    0    0  501 0.00000000E+00 0.00000000E+00 -.15559254E+03 0.15560026E+03 0.15500000E+01 0.0000E+00 0.9000E+01
       25  1    1    2    0    0 -.31826553E+03 0.36156351E+03 0.14202312E+04 0.15048929E+04 0.12500000E+03 0.0000E+00 0.9000E+01
        1  1    1    2  502    0 0.31045889E+03 -.35135923E+03 0.15235804E+04 0.15940939E+04 0.32000000E+00 0.0000E+00 0.9000E+01
       -4  1    1    2    0  501 0.78066395E+01 -.10204287E+02 -.77472072E+02 0.78545500E+02 0.15500000E+01 0.0000E+00 0.9000E+01
#aMCatNLO 1  0  0  1  4 0.16613712D+02 0.00000000D+00  -5  6  0 0.00000000D+00 0.00000000D+00 0.00000000D+00 0.00000000D+00 0.00000000D+00
  <mgrwgt>
 0.3249281526D-03    4    2    0
 0.685713047940252D+03 0.000000000000000D+00 0.000000000000000D+00 0.685713047940252D+03
 0.685713047940252D+03 0.000000000000000D+00 0.000000000000000D+00 -.685713047940252D+03
 0.518436038634117D+03 -.318282441372167D+03 0.361582552141970D+03 0.145276535115994D+03
 0.509121015268645D+03 0.310474795744426D+03 -.351377226110324D+03 0.198352349032340D+03
 0.343869041977742D+03 0.780764562774146D+01 -.102053260316462D+02 -.343628884148334D+03
 0.000000000000000D+00 -.000000000000000D+00 0.000000000000000D+00 -.000000000000000D+00
 0.821813411623672D+03 0.000000000000000D+00 0.000000000000000D+00 0.821813411623672D+03
 0.868021851464893D+03 0.000000000000000D+00 0.000000000000000D+00 -.868021851464893D+03
 0.429382017583879D+03 -.251238753536042D+03 0.290719339038099D+03 0.145276535115994D+03
 0.617519546944808D+03 0.390167451588051D+03 -.435610027677921D+03 0.198352349032340D+03
 0.353891056011792D+03 0.571635424554282D+02 -.623730624393156D+02 -.343628884148334D+03
 0.289042642548087D+03 -.196092240507437D+03 0.207263751079138D+03 -.462084398412215D+02
0.450314714570D-03 0.000000000000D+00 0.000000000000D+00 0.241352026981D-05 0.000000000000D+00  6 1 -4 25 1 -4 21 0 0.46491322D+00 0.23937909D-01 0.23980978D+06 0.23980978D+06 0.23980978D+06 0.10918214D+01  1  2  2  1  6  1        1 0.271636540671D-03 0.100000000000D+01
0.386487460085D-03 0.000000000000D+00 -.172932707454D-05 0.241352026981D-05 0.000000000000D+00  6 1 -4 25 1 -4 21 2 0.46491322D+00 0.23937909D-01 0.23980978D+06 0.23980978D+06 0.23980978D+06 0.10918214D+01  1  2  3  1  6  1        1 0.277914128534D-03 0.100000000000D+01
-.301086566032D-03 0.000000000000D+00 0.000000000000D+00 0.241352026981D-05 0.000000000000D+00  6 1 -4 25 1 -4 21 2 0.46491322D+00 0.23937909D-01 0.23980978D+06 0.23980978D+06 0.23980978D+06 0.10918214D+01  1  2 15  1  6  1        1 -.216504335208D-03 0.100000000000D+01
-.112897294074D-04 0.000000000000D+00 0.000000000000D+00 0.241352026981D-05 0.000000000000D+00  6 1 -4 25 1 -4 21 2 0.46491322D+00 0.23937909D-01 0.23980978D+06 0.23980978D+06 0.23980978D+06 0.10918214D+01  1  2  4  1  6  1        1 -.811818139956D-05 0.100000000000D+01
  </mgrwgt>
  </event>
  <event>
  5     66 0.15842354E-05 0.29073037E+02 0.75467711E-02 0.95241144E-01
        1 -1    0    0  502    0 0.00000000E+00 0.00000000E+00 0.93033586E+03 0.93033591E+03 0.32000000E+00 0.0000E+00 0.9000E+01
       -4 -1    0    0    0  501 0.00000000E+00 0.00000000E+00 -.41127885E+03 0.41128177E+03 0.15500000E+01 0.0000E+00 0.9000E+01
       25  1    1    2    0    0 -.26931198E+02 -.45681739E+03 0.51142140E+03 0.69755593E+03 0.12500000E+03 0.0000E+00 0.9000E+01
        1  1    1    2  502    0 0.25692723E+02 0.13729319E+02 0.16975917E+03 0.17224079E+03 0.32000000E+00 0.0000E+00 0.9000E+01
       -4  1    1    2    0  501 0.12384751E+01 0.44308807E+03 -.16212356E+03 0.47182097E+03 0.15500000E+01 0.0000E+00 0.9000E+01
#aMCatNLO 1  0  0  4  2 0.36267480D+01 0.00000000D+00  -5  6  0 0.00000000D+00 0.00000000D+00 0.00000000D+00 0.00000000D+00 0.00000000D+00
  <mgrwgt>
 0.1320122574D-02    5    2    0
 0.618570493987744D+03 0.000000000000000D+00 0.000000000000000D+00 0.618570493987744D+03
 0.618570493987744D+03 -.000000000000000D+00 -.000000000000000D+00 -.618570493987744D+03
 0.542055461004439D+03 -.268921012124751D+02 -.456901098237138D+03 0.262139894191651D+03
 0.115332045290007D+03 0.256416755427409D+02 0.137020413388021D+02 0.111607523085528D+03
 0.579753481681043D+03 0.125042566973420D+01 0.443199056898336D+03 -.373747417277179D+03
 0.000000000000000D+00 0.000000000000000D+00 0.000000000000000D+00 -.000000000000000D+00
 0.618570493987744D+03 0.000000000000000D+00 0.000000000000000D+00 0.618570493987744D+03
 0.618570493987744D+03 -.000000000000000D+00 -.000000000000000D+00 -.618570493987744D+03
 0.542967118400342D+03 -.263272842797557D+02 -.456599279233615D+03 0.264598306815759D+03
 0.111849789677280D+03 0.246285302620783D+02 0.969525004152073D+01 0.108672963862288D+03
 0.578314048014859D+03 0.185326671877815D+01 0.443521194699392D+03 -.371123501527760D+03
 0.401003188300809D+01 -.154512701100649D+00 0.338283449270223D+01 -.214776915028689D+01
0.448935684303D-03 0.000000000000D+00 0.000000000000D+00 0.106099898326D-05 0.000000000000D+00  6 1 -4 25 1 -4 21 0 0.14312882D+00 0.63273898D-01 0.22407351D+06 0.22407351D+06 0.22407351D+06 0.10940544D+01  1  2  2  3  6  4        1 0.963908102813D-03 0.100000000000D+01
0.131458189900D-03 0.000000000000D+00 -.172403123520D-05 0.106099898326D-05 0.000000000000D+00  6 1 -4 25 1 -4 21 2 0.14312882D+00 0.63273898D-01 0.22407351D+06 0.22407351D+06 0.22407351D+06 0.10940544D+01  1  2  3  3  6  4        1 0.337844585225D-03 0.100000000000D+01
-.278719689181D-03 0.000000000000D+00 0.000000000000D+00 0.106099898326D-05 0.000000000000D+00  6 1 -4 25 1 -4 21 2 0.14312882D+00 0.63273898D-01 0.22407351D+06 0.22407351D+06 0.22407351D+06 0.10940544D+01  1  2 15  3  6  4        1 -.716303319384D-03 0.100000000000D+01
-.151760906029D-02 0.000000000000D+00 0.000000000000D+00 0.106099898326D-05 0.000000000000D+00  6 1 -4 25 1 -4 21 2 0.14312882D+00 0.63273898D-01 0.22407351D+06 0.22407351D+06 0.22407351D+06 0.10940544D+01  1  2  4  3  6  4        1 -.390022108091D-02 0.100000000000D+01
0.180371771113D-02 0.000000000000D+00 0.000000000000D+00 0.106099898326D-05 0.182257326359D-04  6 1 -4 25 1 -4 21 2 0.14312882D+00 0.63273898D-01 0.22444448D+06 0.22444448D+06 0.22444448D+06 0.10939998D+01  1  2 11  3  6  4        1 0.463489428578D-02 0.100000000000D+01
  </mgrwgt>
  </event>
</LesHouchesEvents>
