<event>
 5    0  0.2159162E+000  0.2856403E+03  0.7546771E-02  0.1092648E+00
         21   -1    0    0  502  501  0.00000000000E+00  0.00000000000E+00  0.19767435742E+03  0.19767435742E+03  0.00000000000E+00 0.  1.
         21   -1    0    0  503  502 -0.00000000000E+00 -0.00000000000E+00 -0.56487935986E+03  0.56487935986E+03  0.00000000000E+00 0.  1.
         25    1    1    2    0    0 -0.12509069463E+02  0.25653246344E+03  0.29169842781E+02  0.28712586324E+03  0.12500000000E+03 0.  0.
         21    1    1    2  503  504  0.14288193143E+02 -0.54737554676E+02 -0.55212821165E+02  0.79049402124E+02  0.00000000000E+00 0.  1.
         21    1    1    2  504  501 -0.17791236800E+01 -0.20179490876E+03 -0.34116202406E+03  0.39637845191E+03  0.00000000000E+00 0.  1.
<mgrwt>
<rscale>  4 0.28564030E+03</rscale>
<asrwt>0</asrwt>
<pdfrwt beam="1">  1       21 0.30411440E-01 0.28564030E+03</pdfrwt>
<pdfrwt beam="2">  1       21 0.86904515E-01 0.28564030E+03</pdfrwt>
<totfact> 0.11203265E+04</totfact>
</mgrwt>
</event>
<event>
 5    0  0.2359903E+000  0.3226393E+03  0.7546771E-02  0.1074441E+00
         21   -1    0    0  502  501  0.00000000000E+00  0.00000000000E+00  0.13955548873E+04  0.13955548873E+04  0.00000000000E+00 0.  1.
         21   -1    0    0  503  502 -0.00000000000E+00 -0.00000000000E+00 -0.78646080478E+02  0.78646080478E+02  0.00000000000E+00 0.  1.
         25    1    1    2    0    0  0.25725977243E+02  0.29632635284E+03  0.89813831895E+03  0.95433147976E+03  0.12500000000E+03 0.  0.
         21    1    1    2  503  504 -0.51677025152E+02 -0.24374696130E+03  0.34703719204E+03  0.42722114734E+03  0.00000000000E+00 0.  1.
         21    1    1    2  504  501  0.25951047909E+02 -0.52579391537E+02  0.71733295868E+02  0.92648340719E+02  0.00000000000E+00 0.  1.
<mgrwt>
<rscale>  4 0.32263932E+03</rscale>
<asrwt>0</asrwt>
<pdfrwt beam="1">  1       21 0.21470073E+00 0.32263932E+03</pdfrwt>
<pdfrwt beam="2">  1       21 0.12099398E-01 0.32263932E+03</pdfrwt>
<totfact> 0.57067809E+03</totfact>
</mgrwt>
</event>
<event>
 5    0  0.2159162E+000  0.2454705E+03  0.7546771E-02  0.1116201E+00
         21   -1    0    0  502  501  0.00000000000E+00  0.00000000000E+00  0.13204852835E+04  0.13204852835E+04  0.00000000000E+00 0. -1.
         21   -1    0    0  503  502 -0.00000000000E+00 -0.00000000000E+00 -0.43772450653E+03  0.43772450653E+03  0.00000000000E+00 0.  1.
         25    1    1    2    0    0 -0.62954193317E+02  0.20321152770E+03  0.12618649731E+04  0.12857629508E+04  0.12500000000E+03 0.  0.
         21    1    1    2  503  504 -0.14810171250E+02 -0.57523276909E+02 -0.50921275499E+00  0.59401412917E+02  0.00000000000E+00 0. -1.
         21    1    1    2  504  501  0.77764364567E+02 -0.14568825079E+03 -0.37859498331E+03  0.41304542632E+03  0.00000000000E+00 0.  1.
<mgrwt>
<rscale>  4 0.24547047E+03</rscale>
<asrwt>0</asrwt>
<pdfrwt beam="1">  1       21 0.20315158E+00 0.24547047E+03</pdfrwt>
<pdfrwt beam="2">  1       21 0.67342232E-01 0.24547047E+03</pdfrwt>
<totfact> 0.24300329E+02</totfact>
</mgrwt>
</event>
<event>
 5    0  0.2159162E+000  0.2588112E+03  0.7546771E-02  0.1107860E+00
         21   -1    0    0  502  501  0.00000000000E+00  0.00000000000E+00  0.19401720604E+03  0.19401720604E+03  0.00000000000E+00 0.  1.
         21   -1    0    0  503  502 -0.00000000000E+00 -0.00000000000E+00 -0.10825621716E+04  0.10825621716E+04  0.00000000000E+00 0.  1.
         25    1    1    2    0    0  0.20769614214E+03  0.90667214882E+02  0.88006024545E+02  0.27336475938E+03  0.12500000000E+03 0.  0.
         21    1    1    2  503  504 -0.22835854531E+02 -0.20264709467E+02 -0.17302091572E+03  0.17569397252E+03  0.00000000000E+00 0. -1.
         21    1    1    2  504  501 -0.18486028760E+03 -0.70402505415E+02 -0.80353007435E+03  0.82752064571E+03  0.00000000000E+00 0.  1.
<mgrwt>
<rscale>  4 0.25881119E+03</rscale>
<asrwt>0</asrwt>
<pdfrwt beam="1">  1       21 0.29848801E-01 0.25881119E+03</pdfrwt>
<pdfrwt beam="2">  1       21 0.16654803E+00 0.25881119E+03</pdfrwt>
<totfact> 0.22971685E+03</totfact>
</mgrwt>
</event>
<event>
 5    0  0.2159162E+000  0.2697897E+03  0.7546771E-02  0.1101400E+00
         21   -1    0    0  502  501  0.00000000000E+00  0.00000000000E+00  0.59810202267E+03  0.59810202267E+03  0.00000000000E+00 0. -1.
         21   -1    0    0  503  502 -0.00000000000E+00 -0.00000000000E+00 -0.11357357774E+03  0.11357357774E+03  0.00000000000E+00 0. -1.
         25    1    1    2    0    0 -0.16579246576E+03 -0.17226235708E+03  0.31630450415E+03  0.41573429100E+03  0.12500000000E+03 0.  0.
         21    1    1    2  503  504  0.16799620434E+02  0.43152238399E+02  0.33546369714E+02  0.57181306793E+02  0.00000000000E+00 0. -1.
         21    1    1    2  504  501  0.14899284532E+03  0.12911011868E+03  0.13467757106E+03  0.23876000262E+03  0.00000000000E+00 0. -1.
<mgrwt>
<rscale>  4 0.26978966E+03</rscale>
<asrwt>0</asrwt>
<pdfrwt beam="1">  1       21 0.92015694E-01 0.26978966E+03</pdfrwt>
<pdfrwt beam="2">  1       21 0.17472858E-01 0.26978966E+03</pdfrwt>
<totfact> 0.28478290E+04</totfact>
</mgrwt>
</event>
<event>
 5    0  0.2159162E+000  0.3334483E+03  0.7546771E-02  0.1069839E+00
         21   -1    0    0  502  501  0.00000000000E+00  0.00000000000E+00  0.96745389008E+03  0.96745389008E+03  0.00000000000E+00 0.  1.
         21   -1    0    0  503  502 -0.00000000000E+00 -0.00000000000E+00 -0.15335712780E+03  0.15335712780E+03  0.00000000000E+00 0.  1.
         25    1    1    2    0    0  0.22169418315E+03  0.21235399472E+03  0.68915520810E+03  0.76472376108E+03  0.12500000000E+03 0.  0.
         21    1    1    2  503  504 -0.83448807429E+02 -0.14400080953E+02  0.66484515672E+02  0.10766269835E+03  0.00000000000E+00 0.  1.
         21    1    1    2  504  501 -0.13824537572E+03 -0.19795391377E+03  0.58457038504E+02  0.24842455844E+03  0.00000000000E+00 0.  1.
<mgrwt>
<rscale>  4 0.33295076E+03</rscale>
<asrwt>0</asrwt>
<pdfrwt beam="1">  1       21 0.14883906E+00 0.33344826E+03</pdfrwt>
<pdfrwt beam="2">  1       21 0.23593405E-01 0.33344826E+03</pdfrwt>
<totfact> 0.47103996E+03</totfact>
</mgrwt>
</event>
<event>
 5    0  0.2159162E+000  0.3041518E+03  0.7546771E-02  0.1083183E+00
         21   -1    0    0  502  501  0.00000000000E+00  0.00000000000E+00  0.38113730759E+03  0.38113730759E+03  0.00000000000E+00 0. -1.
         21   -1    0    0  503  502 -0.00000000000E+00 -0.00000000000E+00 -0.23938247242E+03  0.23938247242E+03  0.00000000000E+00 0. -1.
         25    1    1    2    0    0  0.22284658851E+03  0.16499309442E+03  0.14608624247E+03  0.33741593539E+03  0.12500000000E+03 0.  0.
         21    1    1    2  503  504 -0.16781727434E+03 -0.91317337911E+02 -0.56237103803E+01  0.19113639080E+03  0.00000000000E+00 0. -1.
         21    1    1    2  504  501 -0.55029314171E+02 -0.73675756508E+02  0.12923030808E+01  0.91967453822E+02  0.00000000000E+00 0. -1.
<mgrwt>
<rscale>  4 0.30415181E+03</rscale>
<asrwt>0</asrwt>
<pdfrwt beam="1">  1       21 0.58636509E-01 0.30415181E+03</pdfrwt>
<pdfrwt beam="2">  1       21 0.36828073E-01 0.30415181E+03</pdfrwt>
<totfact> 0.18309773E+04</totfact>
</mgrwt>
</event>
