<event>
 4    0  0.1775285E-001  0.6303258E+03  0.7546771E-02  0.9844413E-01
         21   -1    0    0  503  501  0.00000000000E+00  0.00000000000E+00  0.17990108732E+03  0.17990108732E+03  0.00000000000E+00 0. -1.
         21   -1    0    0  501  502 -0.00000000000E+00 -0.00000000000E+00 -0.55212371195E+03  0.55212371195E+03  0.00000000000E+00 0. -1.
         25    1    1    2    0    0  0.29867905697E+03 -0.48994116741E+02 -0.18449687852E+03  0.37586393912E+03  0.12500000000E+03 0.  0.
         21    1    1    2  503  502 -0.29867905697E+03  0.48994116741E+02 -0.18772574612E+03  0.35616086015E+03  0.00000000000E+00 0. -1.
<mgrwt>
<rscale>  3 0.63032581E+03</rscale>
<asrwt>0</asrwt>
<pdfrwt beam="1">  1       21 0.27677091E-01 0.63032581E+03</pdfrwt>
<pdfrwt beam="2">  1       21 0.84942108E-01 0.63032581E+03</pdfrwt>
<totfact> 0.12841880E+04</totfact>
</mgrwt>
</event>
<event>
 4    0  0.1775285E-001  0.5120969E+03  0.7546771E-02  0.1010669E+00
         21   -1    0    0  503  501  0.00000000000E+00  0.00000000000E+00  0.30952387546E+03  0.30952387546E+03  0.00000000000E+00 0.  1.
         21   -1    0    0  501  502 -0.00000000000E+00 -0.00000000000E+00 -0.21181175731E+03  0.21181175731E+03  0.00000000000E+00 0.  1.
         25    1    1    2    0    0  0.73508712292E+02 -0.21933913639E+03 -0.16280881780E+02  0.26344497461E+03  0.12500000000E+03 0.  0.
         21    1    1    2  503  502 -0.73508712292E+02  0.21933913639E+03  0.11399299992E+03  0.25789065816E+03  0.00000000000E+00 0.  1.
<mgrwt>
<rscale>  3 0.51209685E+03</rscale>
<asrwt>0</asrwt>
<pdfrwt beam="1">  1       21 0.47619058E-01 0.51209685E+03</pdfrwt>
<pdfrwt beam="2">  1       21 0.32586424E-01 0.51209685E+03</pdfrwt>
<totfact> 0.34485313E+04</totfact>
</mgrwt>
</event>
<event>
 4    0  0.1775285E-001  0.6560541E+03  0.7546771E-02  0.9795485E-01
         21   -1    0    0  502  501  0.00000000000E+00  0.00000000000E+00  0.56860134899E+02  0.56860134899E+02  0.00000000000E+00 0.  1.
         21   -1    0    0  503  502 -0.00000000000E+00 -0.00000000000E+00 -0.18923935047E+04  0.18923935047E+04  0.00000000000E+00 0.  1.
         25    1    1    2    0    0 -0.17643014802E+03  0.25732292971E+03 -0.79992247424E+03  0.86766563380E+03  0.12500000000E+03 0.  0.
         21    1    1    2  503  501  0.17643014802E+03 -0.25732292971E+03 -0.10356108956E+04  0.10815880058E+04  0.00000000000E+00 0. -1.
<mgrwt>
<rscale>  3 0.65605411E+03</rscale>
<asrwt>0</asrwt>
<pdfrwt beam="1">  1       21 0.87477133E-02 0.65605411E+03</pdfrwt>
<pdfrwt beam="2">  1       21 0.29113745E+00 0.65605411E+03</pdfrwt>
<totfact> 0.30114246E+03</totfact>
</mgrwt>
</event>
<event>
 4    0  0.1775285E-001  0.6510634E+03  0.7546771E-02  0.9804786E-01
         21   -1    0    0  502  501  0.00000000000E+00  0.00000000000E+00  0.38765934350E+03  0.38765934350E+03  0.00000000000E+00 0.  1.
         21   -1    0    0  503  502 -0.00000000000E+00 -0.00000000000E+00 -0.27336088806E+03  0.27336088806E+03  0.00000000000E+00 0.  1.
         25    1    1    2    0    0  0.26350179590E+03  0.16600735924E+03  0.22497836131E+02  0.33633731936E+03  0.12500000000E+03 0.  0.
         21    1    1    2  503  501 -0.26350179590E+03 -0.16600735924E+03  0.91800619316E+02  0.32468291220E+03  0.00000000000E+00 0.  1.
<mgrwt>
<rscale>  3 0.65106345E+03</rscale>
<asrwt>0</asrwt>
<pdfrwt beam="1">  1       21 0.59639899E-01 0.65106345E+03</pdfrwt>
<pdfrwt beam="2">  1       21 0.42055521E-01 0.65106345E+03</pdfrwt>
<totfact> 0.12228521E+04</totfact>
</mgrwt>
</event>
<event>
 4    0  0.1775285E-001  0.4477823E+03  0.7546771E-02  0.1028385E+00
         21   -1    0    0  503  501  0.00000000000E+00  0.00000000000E+00  0.83586529383E+03  0.83586529383E+03  0.00000000000E+00 0. -1.
         21   -1    0    0  501  502 -0.00000000000E+00 -0.00000000000E+00 -0.59970486170E+02  0.59970486170E+02  0.00000000000E+00 0. -1.
         25    1    1    2    0    0 -0.11461344285E+03 -0.16595258573E+03  0.50635649042E+03  0.55919441823E+03  0.12500000000E+03 0.  0.
         21    1    1    2  503  502  0.11461344285E+03  0.16595258573E+03  0.26953831724E+03  0.33664136177E+03  0.00000000000E+00 0. -1.
<mgrwt>
<rscale>  3 0.44778230E+03</rscale>
<asrwt>0</asrwt>
<pdfrwt beam="1">  1       21 0.12859465E+00 0.44778230E+03</pdfrwt>
<pdfrwt beam="2">  1       21 0.92262292E-02 0.44778230E+03</pdfrwt>
<totfact> 0.37747313E+04</totfact>
</mgrwt>
</event>
<event>
 4    0  0.1775285E-001  0.4611843E+03  0.7546771E-02  0.1024438E+00
         21   -1    0    0  503  501  0.00000000000E+00  0.00000000000E+00  0.32757673080E+03  0.32757673080E+03  0.00000000000E+00 0.  1.
         21   -1    0    0  501  502 -0.00000000000E+00 -0.00000000000E+00 -0.16232146230E+03  0.16232146230E+03  0.00000000000E+00 0.  1.
         25    1    1    2    0    0  0.20499017907E+02  0.21263493643E+03  0.92582548054E+02  0.26425433606E+03  0.12500000000E+03 0.  0.
         21    1    1    2  503  502 -0.20499017907E+02 -0.21263493643E+03  0.72672720443E+02  0.22564385704E+03  0.00000000000E+00 0.  1.
<mgrwt>
<rscale>  3 0.46118428E+03</rscale>
<asrwt>0</asrwt>
<pdfrwt beam="1">  1       21 0.50396420E-01 0.46118428E+03</pdfrwt>
<pdfrwt beam="2">  1       21 0.24972533E-01 0.46118428E+03</pdfrwt>
<totfact> 0.52310863E+04</totfact>
</mgrwt>
</event>
<event>
 4    0  0.1775285E-001  0.5492091E+03  0.7546771E-02  0.1001677E+00
         21   -1    0    0  502  501  0.00000000000E+00  0.00000000000E+00  0.15864621954E+03  0.15864621954E+03  0.00000000000E+00 0. -1.
         21   -1    0    0  503  502 -0.00000000000E+00 -0.00000000000E+00 -0.47531966355E+03  0.47531966355E+03  0.00000000000E+00 0. -1.
         25    1    1    2    0    0  0.20736948755E+03  0.15655225722E+03 -0.18608769623E+03  0.34316809918E+03  0.12500000000E+03 0.  0.
         21    1    1    2  503  501 -0.20736948755E+03 -0.15655225722E+03 -0.13058574778E+03  0.29079778392E+03  0.00000000000E+00 0. -1.
<mgrwt>
<rscale>  3 0.54920913E+03</rscale>
<asrwt>0</asrwt>
<pdfrwt beam="1">  1       21 0.24407111E-01 0.54920913E+03</pdfrwt>
<pdfrwt beam="2">  1       21 0.73126102E-01 0.54920913E+03</pdfrwt>
<totfact> 0.23653532E+04</totfact>
</mgrwt>
</event>
<event>
 4    0  0.1775285E-001  0.7879979E+03  0.7546771E-02  0.9577554E-01
         21   -1    0    0  502  501  0.00000000000E+00  0.00000000000E+00  0.24246118744E+03  0.24246118744E+03  0.00000000000E+00 0.  1.
         21   -1    0    0  503  502 -0.00000000000E+00 -0.00000000000E+00 -0.64024744804E+03  0.64024744804E+03  0.00000000000E+00 0.  1.
         25    1    1    2    0    0  0.31969444847E+03  0.21087796045E+03 -0.17129872070E+03  0.43776969550E+03  0.12500000000E+03 0.  0.
         21    1    1    2  503  501 -0.31969444847E+03 -0.21087796045E+03 -0.22648753990E+03  0.44493893998E+03  0.00000000000E+00 0.  1.
<mgrwt>
<rscale>  3 0.78799786E+03</rscale>
<asrwt>0</asrwt>
<pdfrwt beam="1">  1       21 0.37301722E-01 0.78799786E+03</pdfrwt>
<pdfrwt beam="2">  1       21 0.98499605E-01 0.78799786E+03</pdfrwt>
<totfact> 0.47739158E+03</totfact>
</mgrwt>
</event>
<event>
 4    0  0.1775285E-001  0.4415872E+03  0.7546771E-02  0.1030261E+00
         21   -1    0    0  503  501  0.00000000000E+00  0.00000000000E+00  0.16429459255E+03  0.16429459255E+03  0.00000000000E+00 0.  1.
         21   -1    0    0  501  502 -0.00000000000E+00 -0.00000000000E+00 -0.29672193667E+03  0.29672193667E+03  0.00000000000E+00 0.  1.
         25    1    1    2    0    0 -0.18743806374E+03  0.74888049802E+02 -0.47964106865E+02  0.24221231036E+03  0.12500000000E+03 0.  0.
         21    1    1    2  503  502  0.18743806374E+03 -0.74888049802E+02 -0.84463237253E+02  0.21880421886E+03  0.00000000000E+00 0.  1.
<mgrwt>
<rscale>  3 0.44158718E+03</rscale>
<asrwt>0</asrwt>
<pdfrwt beam="1">  1       21 0.25276091E-01 0.44158718E+03</pdfrwt>
<pdfrwt beam="2">  1       21 0.45649529E-01 0.44158718E+03</pdfrwt>
<totfact> 0.63241164E+04</totfact>
</mgrwt>
</event>
<event>
 4    0  0.1775285E-001  0.5052044E+03  0.7546771E-02  0.1012429E+00
         21   -1    0    0  503  501  0.00000000000E+00  0.00000000000E+00  0.75455016248E+03  0.75455016248E+03  0.00000000000E+00 0. -1.
         21   -1    0    0  501  502 -0.00000000000E+00 -0.00000000000E+00 -0.84564118905E+02  0.84564118905E+02  0.00000000000E+00 0. -1.
         25    1    1    2    0    0 -0.12211029447E+03  0.20325545745E+03  0.36095963202E+03  0.44960044590E+03  0.12500000000E+03 0.  0.
         21    1    1    2  503  502  0.12211029447E+03 -0.20325545745E+03  0.30902641155E+03  0.38951383549E+03  0.00000000000E+00 0. -1.
<mgrwt>
<rscale>  3 0.50520439E+03</rscale>
<asrwt>0</asrwt>
<pdfrwt beam="1">  1       21 0.11608464E+00 0.50520439E+03</pdfrwt>
<pdfrwt beam="2">  1       21 0.13009865E-01 0.50520439E+03</pdfrwt>
<totfact> 0.25938417E+04</totfact>
</mgrwt>
</event>
<event>
 4    0  0.1775285E-001  0.5053781E+03  0.7546771E-02  0.1012385E+00
         21   -1    0    0  503  501  0.00000000000E+00  0.00000000000E+00  0.53594700763E+03  0.53594700763E+03  0.00000000000E+00 0.  1.
         21   -1    0    0  501  502 -0.00000000000E+00 -0.00000000000E+00 -0.11913820595E+03  0.11913820595E+03  0.00000000000E+00 0.  1.
         25    1    1    2    0    0 -0.28493936369E+02 -0.22567612983E+03  0.13384725908E+03  0.29203032163E+03  0.12500000000E+03 0.  0.
         21    1    1    2  503  502  0.28493936369E+02  0.22567612983E+03  0.28296154259E+03  0.36305489195E+03  0.00000000000E+00 0.  1.
<mgrwt>
<rscale>  3 0.50537814E+03</rscale>
<asrwt>0</asrwt>
<pdfrwt beam="1">  1       21 0.82453384E-01 0.50537814E+03</pdfrwt>
<pdfrwt beam="2">  1       21 0.18328955E-01 0.50537814E+03</pdfrwt>
<totfact> 0.31371058E+04</totfact>
</mgrwt>
</event>
<event>
 4    0  0.1775285E-001  0.4517366E+03  0.7546771E-02  0.1027205E+00
         21   -1    0    0  502  501  0.00000000000E+00  0.00000000000E+00  0.72093343875E+03  0.72093343875E+03  0.00000000000E+00 0.  1.
         21   -1    0    0  503  502 -0.00000000000E+00 -0.00000000000E+00 -0.70764485605E+02  0.70764485605E+02  0.00000000000E+00 0.  1.
         25    1    1    2    0    0 -0.12483217432E+03  0.16187834472E+03  0.27738879809E+03  0.36654769886E+03  0.12500000000E+03 0.  0.
         21    1    1    2  503  501  0.12483217432E+03 -0.16187834472E+03  0.37278015506E+03  0.42515022550E+03  0.00000000000E+00 0.  1.
<mgrwt>
<rscale>  3 0.45173658E+03</rscale>
<asrwt>0</asrwt>
<pdfrwt beam="1">  1       21 0.11091283E+00 0.45173658E+03</pdfrwt>
<pdfrwt beam="2">  1       21 0.10886844E-01 0.45173658E+03</pdfrwt>
<totfact> 0.40738777E+04</totfact>
</mgrwt>
</event>
<event>
 4    0  0.1775285E-001  0.5610671E+03  0.7546771E-02  0.9989643E-01
         21   -1    0    0  503  501  0.00000000000E+00  0.00000000000E+00  0.50201220095E+03  0.50201220095E+03  0.00000000000E+00 0. -1.
         21   -1    0    0  501  502 -0.00000000000E+00 -0.00000000000E+00 -0.15676722301E+03  0.15676722301E+03  0.00000000000E+00 0. -1.
         25    1    1    2    0    0  0.23746649512E+03  0.86958776730E+01  0.39246628023E+02  0.27135079216E+03  0.12500000000E+03 0.  0.
         21    1    1    2  503  502 -0.23746649512E+03 -0.86958776730E+01  0.30599834991E+03  0.38742863181E+03  0.00000000000E+00 0. -1.
<mgrwt>
<rscale>  3 0.56106705E+03</rscale>
<asrwt>0</asrwt>
<pdfrwt beam="1">  1       21 0.77232646E-01 0.56106705E+03</pdfrwt>
<pdfrwt beam="2">  1       21 0.24118035E-01 0.56106705E+03</pdfrwt>
<totfact> 0.21305631E+04</totfact>
</mgrwt>
</event>
<event>
 4    0  0.1775285E-001  0.6651216E+03  0.7546771E-02  0.9778811E-01
         21   -1    0    0  502  501  0.00000000000E+00  0.00000000000E+00  0.95088700826E+02  0.95088700826E+02  0.00000000000E+00 0.  1.
         21   -1    0    0  503  502 -0.00000000000E+00 -0.00000000000E+00 -0.11630895032E+04  0.11630895032E+04  0.00000000000E+00 0.  1.
         25    1    1    2    0    0 -0.23127315827E+03 -0.21853290673E+03 -0.47536733116E+03  0.58552797081E+03  0.12500000000E+03 0.  0.
         21    1    1    2  503  501  0.23127315827E+03  0.21853290673E+03 -0.59263347124E+03  0.67265023325E+03  0.00000000000E+00 0.  1.
<mgrwt>
<rscale>  3 0.66512155E+03</rscale>
<asrwt>0</asrwt>
<pdfrwt beam="1">  1       21 0.14629031E-01 0.66512155E+03</pdfrwt>
<pdfrwt beam="2">  1       21 0.17893684E+00 0.66512155E+03</pdfrwt>
<totfact> 0.62064100E+03</totfact>
</mgrwt>
</event>
<event>
 4    0  0.1775285E-001  0.5543799E+03  0.7546771E-02  0.1000485E+00
         21   -1    0    0  502  501  0.00000000000E+00  0.00000000000E+00  0.98891084642E+02  0.98891084642E+02  0.00000000000E+00 0. -1.
         21   -1    0    0  503  502 -0.00000000000E+00 -0.00000000000E+00 -0.77695844319E+03  0.77695844319E+03  0.00000000000E+00 0. -1.
         25    1    1    2    0    0  0.22711943953E+03  0.12718714281E+03 -0.29589197075E+03  0.41344512025E+03  0.12500000000E+03 0.  0.
         21    1    1    2  503  501 -0.22711943953E+03 -0.12718714281E+03 -0.38217538779E+03  0.46240440757E+03  0.00000000000E+00 0. -1.
<mgrwt>
<rscale>  3 0.55437988E+03</rscale>
<asrwt>0</asrwt>
<pdfrwt beam="1">  1       21 0.15214012E-01 0.55437988E+03</pdfrwt>
<pdfrwt beam="2">  1       21 0.11953207E+00 0.55437988E+03</pdfrwt>
<totfact> 0.17823881E+04</totfact>
</mgrwt>
</event>
<event>
 4    0  0.1775285E-001  0.4801713E+03  0.7546771E-02  0.1019088E+00
         21   -1    0    0  502  501  0.00000000000E+00  0.00000000000E+00  0.71877696696E+02  0.71877696696E+02  0.00000000000E+00 0. -1.
         21   -1    0    0  503  502 -0.00000000000E+00 -0.00000000000E+00 -0.80193340874E+03  0.80193340874E+03  0.00000000000E+00 0. -1.
         25    1    1    2    0    0  0.14555228021E+03  0.16904952629E+03 -0.35670017465E+03  0.43888862278E+03  0.12500000000E+03 0.  0.
         21    1    1    2  503  501 -0.14555228021E+03 -0.16904952629E+03 -0.37335553739E+03  0.43492248265E+03  0.00000000000E+00 0. -1.
<mgrwt>
<rscale>  3 0.48017133E+03</rscale>
<asrwt>0</asrwt>
<pdfrwt beam="1">  1       21 0.11058106E-01 0.48017133E+03</pdfrwt>
<pdfrwt beam="2">  1       21 0.12337438E+00 0.48017133E+03</pdfrwt>
<totfact> 0.30066864E+04</totfact>
</mgrwt>
</event>
<event>
 4    0  0.1775285E-001  0.7832279E+03  0.7546771E-02  0.9584616E-01
         21   -1    0    0  502  501  0.00000000000E+00  0.00000000000E+00  0.21223562894E+03  0.21223562894E+03  0.00000000000E+00 0. -1.
         21   -1    0    0  503  502 -0.00000000000E+00 -0.00000000000E+00 -0.72260007232E+03  0.72260007232E+03  0.00000000000E+00 0. -1.
         25    1    1    2    0    0 -0.32452740372E+03  0.79675986328E+02 -0.41656568608E+02  0.35920268411E+03  0.12500000000E+03 0.  0.
         21    1    1    2  503  501  0.32452740372E+03 -0.79675986328E+02 -0.46870787478E+03  0.57563301716E+03  0.00000000000E+00 0. -1.
<mgrwt>
<rscale>  3 0.78322789E+03</rscale>
<asrwt>0</asrwt>
<pdfrwt beam="1">  1       21 0.32651635E-01 0.78322789E+03</pdfrwt>
<pdfrwt beam="2">  1       21 0.11116924E+00 0.78322789E+03</pdfrwt>
<totfact> 0.46403498E+03</totfact>
</mgrwt>
</event>
<event>
 4    0  0.1775285E-001  0.6372767E+03  0.7546771E-02  0.9830951E-01
         21   -1    0    0  502  501  0.00000000000E+00  0.00000000000E+00  0.56329222221E+03  0.56329222221E+03  0.00000000000E+00 0.  1.
         21   -1    0    0  503  502 -0.00000000000E+00 -0.00000000000E+00 -0.18024462987E+03  0.18024462987E+03  0.00000000000E+00 0.  1.
         25    1    1    2    0    0 -0.22755694437E+03 -0.19657784205E+03  0.13042972693E+03  0.35080183093E+03  0.12500000000E+03 0.  0.
         21    1    1    2  503  501  0.22755694437E+03  0.19657784205E+03  0.25261786541E+03  0.39273502115E+03  0.00000000000E+00 0.  1.
<mgrwt>
<rscale>  3 0.63727670E+03</rscale>
<asrwt>0</asrwt>
<pdfrwt beam="1">  1       21 0.86660341E-01 0.63727670E+03</pdfrwt>
<pdfrwt beam="2">  1       21 0.27729943E-01 0.63727670E+03</pdfrwt>
<totfact> 0.12184944E+04</totfact>
</mgrwt>
</event>
<event>
 4    0  0.1775285E-001  0.4659912E+03  0.7546771E-02  0.1023058E+00
         21   -1    0    0  502  501  0.00000000000E+00  0.00000000000E+00  0.28790963729E+03  0.28790963729E+03  0.00000000000E+00 0. -1.
         21   -1    0    0  503  502 -0.00000000000E+00 -0.00000000000E+00 -0.18855555048E+03  0.18855555048E+03  0.00000000000E+00 0. -1.
         25    1    1    2    0    0  0.32968969877E+02  0.21345917543E+03  0.63667008958E+02  0.25754661826E+03  0.12500000000E+03 0.  0.
         21    1    1    2  503  501 -0.32968969877E+02 -0.21345917543E+03  0.35687077856E+02  0.21891856950E+03  0.00000000000E+00 0. -1.
<mgrwt>
<rscale>  3 0.46599125E+03</rscale>
<asrwt>0</asrwt>
<pdfrwt beam="1">  1       21 0.44293790E-01 0.46599125E+03</pdfrwt>
<pdfrwt beam="2">  1       21 0.29008546E-01 0.46599125E+03</pdfrwt>
<totfact> 0.51139600E+04</totfact>
</mgrwt>
</event>
<event>
 4    0  0.1775285E-001  0.4955740E+03  0.7546771E-02  0.1014941E+00
         21   -1    0    0  502  501  0.00000000000E+00  0.00000000000E+00  0.16726152294E+03  0.16726152294E+03  0.00000000000E+00 0.  1.
         21   -1    0    0  503  502 -0.00000000000E+00 -0.00000000000E+00 -0.36708020257E+03  0.36708020257E+03  0.00000000000E+00 0.  1.
         25    1    1    2    0    0 -0.89813975272E+01 -0.20545691588E+03  0.95683204630E+01  0.24085215909E+03  0.12500000000E+03 0.  0.
         21    1    1    2  503  501  0.89813975272E+01  0.20545691588E+03 -0.20938700009E+03  0.29348956641E+03  0.00000000000E+00 0.  1.
<mgrwt>
<rscale>  3 0.49557399E+03</rscale>
<asrwt>0</asrwt>
<pdfrwt beam="1">  1       21 0.25732542E-01 0.49557399E+03</pdfrwt>
<pdfrwt beam="2">  1       21 0.56473876E-01 0.49557399E+03</pdfrwt>
<totfact> 0.38342360E+04</totfact>
</mgrwt>
</event>
