<event>
 5    0  0.1856407E+000  0.2432987E+03  0.7546771E-02  0.1117615E+00
         21   -1    0    0  502  501  0.00000000000E+00  0.00000000000E+00  0.33514335530E+03  0.33514335530E+03  0.00000000000E+00 0. -1.
         21   -1    0    0  503  502 -0.00000000000E+00 -0.00000000000E+00 -0.18977934613E+03  0.18977934613E+03  0.00000000000E+00 0.  1.
         25    1    1    2    0    0 -0.20038568373E+03 -0.58436719677E+02  0.18516557201E+03  0.30574591005E+03  0.12500000000E+03 0.  0.
         21    1    1    2  503  504  0.16782847116E+03  0.61383175466E+02 -0.17398565246E+02  0.17954665142E+03  0.00000000000E+00 0.  1.
         21    1    1    2  504  501  0.32557212571E+02 -0.29464557897E+01 -0.22402997598E+02  0.39630139963E+02  0.00000000000E+00 0.  1.
<mgrwt>
<rscale>  4 0.24329873E+03</rscale>
<asrwt>0</asrwt>
<pdfrwt beam="1">  1       21 0.51560516E-01 0.24329873E+03</pdfrwt>
<pdfrwt beam="2">  1       21 0.29196822E-01 0.24329873E+03</pdfrwt>
<totfact> 0.39182503E+04</totfact>
</mgrwt>
</event>
<event>
 5    0  0.1856407E+000  0.2621949E+03  0.7546771E-02  0.1105832E+00
         21   -1    0    0  502  501  0.00000000000E+00  0.00000000000E+00  0.42090044499E+02  0.42090044499E+02  0.00000000000E+00 0. -1.
         21   -1    0    0  503  502 -0.00000000000E+00 -0.00000000000E+00 -0.15457277337E+04  0.15457277337E+04  0.00000000000E+00 0. -1.
         25    1    1    2    0    0 -0.10203355076E+03 -0.20666475373E+03 -0.70497527677E+03  0.75215444343E+03  0.12500000000E+03 0.  0.
         21    1    1    2  503  504  0.47113387005E+02  0.29791592597E+02 -0.26435932400E+03  0.27017228283E+03  0.00000000000E+00 0. -1.
         21    1    1    2  504  501  0.54920163752E+02  0.17687316113E+03 -0.53430308848E+03  0.56549105198E+03  0.00000000000E+00 0. -1.
<mgrwt>
<rscale>  4 0.26219490E+03</rscale>
<asrwt>0</asrwt>
<pdfrwt beam="1">  1       21 0.64753916E-02 0.26219490E+03</pdfrwt>
<pdfrwt beam="2">  1       21 0.23780426E+00 0.26219490E+03</pdfrwt>
<totfact> 0.12865836E+04</totfact>
</mgrwt>
</event>
<event>
 5    0  0.1856407E+000  0.2611926E+03  0.7546771E-02  0.1106429E+00
         21   -1    0    0  502  501  0.00000000000E+00  0.00000000000E+00  0.45326280041E+03  0.45326280041E+03  0.00000000000E+00 0. -1.
         21   -1    0    0  503  502 -0.00000000000E+00 -0.00000000000E+00 -0.14186626608E+03  0.14186626608E+03  0.00000000000E+00 0.  1.
         25    1    1    2    0    0  0.27819330454E+02  0.22764594259E+03  0.22850513534E+03  0.34703917243E+03  0.12500000000E+03 0.  0.
         21    1    1    2  503  504 -0.15397199997E+02 -0.33520317259E+02  0.64153594337E+00  0.36893048198E+02  0.00000000000E+00 0.  1.
         21    1    1    2  504  501 -0.12422130456E+02 -0.19412562533E+03  0.82249863042E+02  0.21119684587E+03  0.00000000000E+00 0.  1.
<mgrwt>
<rscale>  4 0.26119263E+03</rscale>
<asrwt>0</asrwt>
<pdfrwt beam="1">  1       21 0.69732738E-01 0.26119263E+03</pdfrwt>
<pdfrwt beam="2">  1       21 0.21825580E-01 0.26119263E+03</pdfrwt>
<totfact> 0.35439266E+04</totfact>
</mgrwt>
</event>
<event>
 5    0  0.2482066E+000  0.2477238E+03  0.7546771E-02  0.1114752E+00
         21   -1    0    0  502  501  0.00000000000E+00  0.00000000000E+00  0.48275740331E+03  0.48275740331E+03  0.00000000000E+00 0. -1.
         21   -1    0    0  503  502 -0.00000000000E+00 -0.00000000000E+00 -0.11400845399E+03  0.11400845399E+03  0.00000000000E+00 0. -1.
         25    1    1    2    0    0 -0.20891266352E+03  0.45799600489E+02  0.19253067867E+03  0.31374379135E+03  0.12500000000E+03 0.  0.
         21    1    1    2  503  504  0.33452419480E+02 -0.37195431949E+01  0.45408183449E+01  0.33963486304E+02  0.00000000000E+00 0. -1.
         21    1    1    2  504  501  0.17546024404E+03 -0.42080057294E+02  0.17167745231E+03  0.24905857964E+03  0.00000000000E+00 0. -1.
<mgrwt>
<rscale>  4 0.24772385E+03</rscale>
<asrwt>0</asrwt>
<pdfrwt beam="1">  1       21 0.74270369E-01 0.24772385E+03</pdfrwt>
<pdfrwt beam="2">  1       21 0.17539762E-01 0.24772385E+03</pdfrwt>
<totfact> 0.46655055E+04</totfact>
</mgrwt>
</event>
<event>
 5    0  0.3107880E+000  0.2394883E+03  0.7546771E-02  0.1120134E+00
         21   -1    0    0  502  501  0.00000000000E+00  0.00000000000E+00  0.40743032250E+03  0.40743032250E+03  0.00000000000E+00 0. -1.
         21   -1    0    0  503  502 -0.00000000000E+00 -0.00000000000E+00 -0.17870885316E+03  0.17870885316E+03  0.00000000000E+00 0. -1.
         25    1    1    2    0    0 -0.20323486569E+03 -0.20621616937E+02  0.27608301727E+03  0.36548118166E+03  0.12500000000E+03 0.  0.
         21    1    1    2  503  504  0.30723430251E+02  0.15369911461E+02 -0.32727453755E+02  0.47447334741E+02  0.00000000000E+00 0. -1.
         21    1    1    2  504  501  0.17251143544E+03  0.52517054755E+01 -0.14634094175E+02  0.17321065926E+03  0.00000000000E+00 0. -1.
<mgrwt>
<rscale>  4 0.23948833E+03</rscale>
<asrwt>0</asrwt>
<pdfrwt beam="1">  1       21 0.62681588E-01 0.23948833E+03</pdfrwt>
<pdfrwt beam="2">  1       21 0.27493670E-01 0.23948833E+03</pdfrwt>
<totfact> 0.29048321E+04</totfact>
</mgrwt>
</event>
<event>
 5    0  0.1856407E+000  0.4101494E+03  0.7546771E-02  0.1040321E+00
         21   -1    0    0  502  501  0.00000000000E+00  0.00000000000E+00  0.89146634235E+03  0.89146634235E+03  0.00000000000E+00 0.  1.
         21   -1    0    0  503  502 -0.00000000000E+00 -0.00000000000E+00 -0.20714802844E+03  0.20714802844E+03  0.00000000000E+00 0. -1.
         25    1    1    2    0    0 -0.37764620872E+03 -0.99904343851E+02  0.51672587286E+03  0.65971824635E+03  0.12500000000E+03 0.  0.
         21    1    1    2  503  504  0.34410796494E+03  0.74190655275E+02  0.11269146375E+03  0.36961319088E+03  0.00000000000E+00 0. -1.
         21    1    1    2  504  501  0.33538243781E+02  0.25713688577E+02  0.54900977296E+02  0.69282933571E+02  0.00000000000E+00 0.  1.
<mgrwt>
<rscale>  4 0.41014941E+03</rscale>
<asrwt>0</asrwt>
<pdfrwt beam="1">  1       21 0.13714867E+00 0.41014941E+03</pdfrwt>
<pdfrwt beam="2">  1       21 0.31868928E-01 0.41014941E+03</pdfrwt>
<totfact> 0.31399432E+03</totfact>
</mgrwt>
</event>
<event>
 5    0  0.1856407E+000  0.3076875E+03  0.7546771E-02  0.1081460E+00
         21   -1    0    0  502  501  0.00000000000E+00  0.00000000000E+00  0.27298600457E+04  0.27298600457E+04  0.00000000000E+00 0.  1.
         21   -1    0    0  503  502 -0.00000000000E+00 -0.00000000000E+00 -0.89969201735E+03  0.89969201735E+03  0.00000000000E+00 0. -1.
         25    1    1    2    0    0 -0.24089314285E+03  0.14497267127E+03  0.26950387605E+04  0.27125459448E+04  0.12500000000E+03 0.  0.
         21    1    1    2  503  504  0.17066375403E+03 -0.15457943296E+03 -0.71613200482E+03  0.75224063063E+03  0.00000000000E+00 0. -1.
         21    1    1    2  504  501  0.70229388813E+02  0.96067616864E+01 -0.14873872733E+03  0.16476548768E+03  0.00000000000E+00 0. -1.
<mgrwt>
<rscale>  4 0.30768747E+03</rscale>
<asrwt>0</asrwt>
<pdfrwt beam="1">  1       21 0.41997847E+00 0.30768747E+03</pdfrwt>
<pdfrwt beam="2">  1       21 0.13841416E+00 0.30768747E+03</pdfrwt>
<totfact> 0.19450819E+00</totfact>
</mgrwt>
</event>
<event>
 5    0  0.1856407E+000  0.3027742E+03  0.7546771E-02  0.1083862E+00
         21   -1    0    0  502  501  0.00000000000E+00  0.00000000000E+00  0.30600858460E+03  0.30600858460E+03  0.00000000000E+00 0. -1.
         21   -1    0    0  503  502 -0.00000000000E+00 -0.00000000000E+00 -0.49936140667E+03  0.49936140667E+03  0.00000000000E+00 0. -1.
         25    1    1    2    0    0  0.55504840550E+02  0.27012304018E+03  0.16803777513E+03  0.34627869994E+03  0.12500000000E+03 0.  0.
         21    1    1    2  503  504 -0.33384003593E+02 -0.51661522719E+02 -0.57719152911E+02  0.84349897678E+02  0.00000000000E+00 0. -1.
         21    1    1    2  504  501 -0.22120836957E+02 -0.21846151746E+03 -0.30367144429E+03  0.37474139365E+03  0.00000000000E+00 0. -1.
<mgrwt>
<rscale>  4 0.30277425E+03</rscale>
<asrwt>0</asrwt>
<pdfrwt beam="1">  1       21 0.47078243E-01 0.30277425E+03</pdfrwt>
<pdfrwt beam="2">  1       21 0.76824832E-01 0.30277425E+03</pdfrwt>
<totfact> 0.60817914E+03</totfact>
</mgrwt>
</event>
<event>
 5    0  0.1856407E+000  0.2991280E+03  0.7546771E-02  0.1085677E+00
         21   -1    0    0  502  501  0.00000000000E+00  0.00000000000E+00  0.61400296686E+03  0.61400296686E+03  0.00000000000E+00 0.  1.
         21   -1    0    0  503  502 -0.00000000000E+00 -0.00000000000E+00 -0.85265001834E+03  0.85265001834E+03  0.00000000000E+00 0. -1.
         25    1    1    2    0    0 -0.60010981938E+02 -0.26504951075E+03  0.55170490672E+03  0.62757936964E+03  0.12500000000E+03 0.  0.
         21    1    1    2  503  504  0.35513438946E+02  0.25066396026E+03 -0.71932068156E+03  0.76257187743E+03  0.00000000000E+00 0. -1.
         21    1    1    2  504  501  0.24497542992E+02  0.14385550498E+02 -0.71031276635E+02  0.76501738125E+02  0.00000000000E+00 0. -1.
<mgrwt>
<rscale>  4 0.29912800E+03</rscale>
<asrwt>0</asrwt>
<pdfrwt beam="1">  1       21 0.94461995E-01 0.29912800E+03</pdfrwt>
<pdfrwt beam="2">  1       21 0.13117693E+00 0.29912800E+03</pdfrwt>
<totfact> 0.35900219E+02</totfact>
</mgrwt>
</event>
<event>
 5    0  0.2178362E+000  0.2361989E+03  0.7546771E-02  0.1122351E+00
         21   -1    0    0  502  501  0.00000000000E+00  0.00000000000E+00  0.12706767822E+04  0.12706767822E+04  0.00000000000E+00 0.  1.
         21   -1    0    0  503  502 -0.00000000000E+00 -0.00000000000E+00 -0.81460209837E+02  0.81460209837E+02  0.00000000000E+00 0. -1.
         25    1    1    2    0    0  0.20265491869E+03 -0.18713342683E+02  0.10360366330E+04  0.10632102851E+04  0.12500000000E+03 0.  0.
         21    1    1    2  503  504 -0.18118618588E+03  0.56966062460E+02  0.85530688728E+02  0.20830041992E+03  0.00000000000E+00 0. -1.
         21    1    1    2  504  501 -0.21468732817E+02 -0.38252719776E+02  0.67649250634E+02  0.80626287093E+02  0.00000000000E+00 0. -1.
<mgrwt>
<rscale>  4 0.23619890E+03</rscale>
<asrwt>0</asrwt>
<pdfrwt beam="1">  1       21 0.19548872E+00 0.23619890E+03</pdfrwt>
<pdfrwt beam="2">  1       21 0.12532341E-01 0.23619890E+03</pdfrwt>
<totfact> 0.75268562E+03</totfact>
</mgrwt>
</event>
<event>
 5    0  0.3474875E+000  0.3058909E+03  0.7546771E-02  0.1082332E+00
         21   -1    0    0  502  501  0.00000000000E+00  0.00000000000E+00  0.48990011934E+03  0.48990011934E+03  0.00000000000E+00 0.  1.
         21   -1    0    0  503  502 -0.00000000000E+00 -0.00000000000E+00 -0.21142364321E+03  0.21142364321E+03  0.00000000000E+00 0.  1.
         25    1    1    2    0    0  0.60550026905E+02 -0.28923984641E+03  0.21311329187E+03  0.38518601958E+03  0.12500000000E+03 0.  0.
         21    1    1    2  503  504 -0.15467082470E+02  0.22056288775E+02  0.33984451274E+02  0.43366501393E+02  0.00000000000E+00 0.  1.
         21    1    1    2  504  501 -0.45082944436E+02  0.26718355764E+03  0.31378732987E+02  0.27277124158E+03  0.00000000000E+00 0.  1.
<mgrwt>
<rscale>  4 0.30589088E+03</rscale>
<asrwt>0</asrwt>
<pdfrwt beam="1">  1       21 0.75369249E-01 0.30589088E+03</pdfrwt>
<pdfrwt beam="2">  1       21 0.32526714E-01 0.30589088E+03</pdfrwt>
<totfact> 0.13470088E+04</totfact>
</mgrwt>
</event>
<event>
 5    0  0.1856407E+000  0.4382241E+03  0.7546771E-02  0.1033203E+00
         21   -1    0    0  502  501  0.00000000000E+00  0.00000000000E+00  0.74851381265E+03  0.74851381265E+03  0.00000000000E+00 0. -1.
         21   -1    0    0  503  502 -0.00000000000E+00 -0.00000000000E+00 -0.58837777914E+03  0.58837777914E+03  0.00000000000E+00 0. -1.
         25    1    1    2    0    0  0.56328429111E+02  0.39082788096E+03  0.59142702199E+03  0.72203202616E+03  0.12500000000E+03 0.  0.
         21    1    1    2  503  504 -0.98672524709E+02 -0.15287775678E+03 -0.26513662372E+03  0.32156695242E+03  0.00000000000E+00 0. -1.
         21    1    1    2  504  501  0.42344095598E+02 -0.23795012418E+03 -0.16615436477E+03  0.29329261321E+03  0.00000000000E+00 0. -1.
<mgrwt>
<rscale>  4 0.43208505E+03</rscale>
<asrwt>0</asrwt>
<pdfrwt beam="1">  1       21 0.11515597E+00 0.43822411E+03</pdfrwt>
<pdfrwt beam="2">  1       21 0.90519658E-01 0.43822411E+03</pdfrwt>
<totfact> 0.50959913E+02</totfact>
</mgrwt>
</event>
<event>
 5    0  0.1856407E+000  0.3014688E+03  0.7546771E-02  0.1084509E+00
         21   -1    0    0  502  501  0.00000000000E+00  0.00000000000E+00  0.11870420914E+04  0.11870420914E+04  0.00000000000E+00 0.  1.
         21   -1    0    0  503  502 -0.00000000000E+00 -0.00000000000E+00 -0.44142828034E+03  0.44142828034E+03  0.00000000000E+00 0.  1.
         25    1    1    2    0    0  0.11624772621E+03 -0.24848515815E+03  0.11139696060E+04  0.11540414597E+04  0.12500000000E+03 0.  0.
         21    1    1    2  503  504 -0.42924361171E+02  0.14482193072E+03 -0.28495582803E+03  0.32251467615E+03  0.00000000000E+00 0.  1.
         21    1    1    2  504  501 -0.73323365040E+02  0.10366322743E+03 -0.83399966901E+02  0.15191423587E+03  0.00000000000E+00 0.  1.
<mgrwt>
<rscale>  4 0.30146875E+03</rscale>
<asrwt>0</asrwt>
<pdfrwt beam="1">  1       21 0.18262186E+00 0.30146875E+03</pdfrwt>
<pdfrwt beam="2">  1       21 0.67912044E-01 0.30146875E+03</pdfrwt>
<totfact> 0.31053866E+02</totfact>
</mgrwt>
</event>
<event>
 5    0  0.1856407E+000  0.3958009E+03  0.7546771E-02  0.1045243E+00
         21   -1    0    0  502  501  0.00000000000E+00  0.00000000000E+00  0.30893855367E+03  0.30893855367E+03  0.00000000000E+00 0. -1.
         21   -1    0    0  503  502 -0.00000000000E+00 -0.00000000000E+00 -0.59351005308E+03  0.59351005308E+03  0.00000000000E+00 0.  1.
         25    1    1    2    0    0  0.14302200145E+03 -0.34724350183E+03  0.48292986749E+02  0.39873619730E+03  0.12500000000E+03 0.  0.
         21    1    1    2  503  504  0.24313509861E+00  0.24093231040E+02 -0.15388840634E+02  0.28589496545E+02  0.00000000000E+00 0. -1.
         21    1    1    2  504  501 -0.14326513655E+03  0.32315027079E+03 -0.31747564552E+03  0.47512291290E+03  0.00000000000E+00 0.  1.
<mgrwt>
<rscale>  4 0.39580089E+03</rscale>
<asrwt>0</asrwt>
<pdfrwt beam="1">  1       21 0.47529009E-01 0.39580089E+03</pdfrwt>
<pdfrwt beam="2">  1       21 0.91309238E-01 0.39580089E+03</pdfrwt>
<totfact> 0.38352252E+03</totfact>
</mgrwt>
</event>
