<event>
 5    0  0.9662576E-001  0.2531063E+03  0.7546771E-02  0.1111357E+00
         21   -1    0    0  501  502  0.00000000000E+00  0.00000000000E+00  0.33520965865E+03  0.33520965865E+03  0.00000000000E+00 0. -1.
          2   -1    0    0  503    0 -0.00000000000E+00 -0.00000000000E+00 -0.12562754725E+04  0.12562754725E+04  0.00000000000E+00 0. -1.
         25    1    1    2    0    0 -0.65387662189E+02  0.20558270032E+03  0.23191170512E+03  0.34051113346E+03  0.12500000000E+03 0.  0.
         21    1    1    2  503  502 -0.15145607999E+03  0.31038881849E+02 -0.26537334996E+03  0.30712435791E+03  0.00000000000E+00 0. -1.
          2    1    1    2  501    0  0.21684374218E+03 -0.23662158217E+03 -0.88760416906E+03  0.94384963982E+03  0.00000000000E+00 0. -1.
<mgrwt>
<rscale>  4 0.25310633E+03</rscale>
<asrwt>0</asrwt>
<pdfrwt beam="1">  1       21 0.51570718E-01 0.25310633E+03</pdfrwt>
<pdfrwt beam="2">  1        2 0.19327315E+00 0.25310633E+03</pdfrwt>
<totfact> 0.81939726E+02</totfact>
</mgrwt>
</event>
<event>
 5    0  0.9662576E-001  0.2380590E+03  0.7546771E-02  0.1121093E+00
         21   -1    0    0  501  502  0.00000000000E+00  0.00000000000E+00  0.16157754200E+03  0.16157754200E+03  0.00000000000E+00 0. -1.
          2   -1    0    0  503    0 -0.00000000000E+00 -0.00000000000E+00 -0.19664972196E+04  0.19664972196E+04  0.00000000000E+00 0. -1.
         25    1    1    2    0    0  0.96469463322E+02  0.17959814791E+03  0.61949520720E+02  0.24703156722E+03  0.12500000000E+03 0.  0.
         21    1    1    2  503  502 -0.31719885371E+02 -0.11792352662E+02 -0.11254646753E+03  0.11752411694E+03  0.00000000000E+00 0. -1.
          2    1    1    2  501    0 -0.64749577952E+02 -0.16780579525E+03 -0.17543227308E+04  0.17635190775E+04  0.00000000000E+00 0. -1.
<mgrwt>
<rscale>  4 0.23805903E+03</rscale>
<asrwt>0</asrwt>
<pdfrwt beam="1">  1       21 0.24858083E-01 0.23805903E+03</pdfrwt>
<pdfrwt beam="2">  1        2 0.30253803E+00 0.23805903E+03</pdfrwt>
<totfact> 0.14944956E+03</totfact>
</mgrwt>
</event>
<event>
 5    0  0.9662576E-001  0.2890017E+03  0.7546771E-02  0.1090872E+00
         21   -1    0    0  501  502  0.00000000000E+00  0.00000000000E+00  0.42034804488E+03  0.42034804488E+03  0.00000000000E+00 0. -1.
          2   -1    0    0  503    0 -0.00000000000E+00 -0.00000000000E+00 -0.77143943526E+03  0.77143943526E+03  0.00000000000E+00 0.  1.
         25    1    1    2    0    0 -0.11836305795E+03  0.27254318965E+03  0.30154846411E+03  0.44141372874E+03  0.12500000000E+03 0.  0.
         21    1    1    2  503  502  0.11207726486E+02 -0.37648470592E+02  0.88662247590E+01  0.40269472463E+02  0.00000000000E+00 0.  1.
          2    1    1    2  501    0  0.10715533146E+03 -0.23489471906E+03 -0.66150607925E+03  0.71010427895E+03  0.00000000000E+00 0.  1.
<mgrwt>
<rscale>  4 0.28900168E+03</rscale>
<asrwt>0</asrwt>
<pdfrwt beam="1">  1       21 0.64668930E-01 0.28900168E+03</pdfrwt>
<pdfrwt beam="2">  1        2 0.11868299E+00 0.28900168E+03</pdfrwt>
<totfact> 0.98888536E+02</totfact>
</mgrwt>
</event>
<event>
 5    0  0.9662576E-001  0.2594986E+03  0.7546771E-02  0.1107445E+00
         21   -1    0    0  501  502  0.00000000000E+00  0.00000000000E+00  0.85636106192E+02  0.85636106192E+02  0.00000000000E+00 0. -1.
          2   -1    0    0  503    0 -0.00000000000E+00 -0.00000000000E+00 -0.22281113281E+04  0.22281113281E+04  0.00000000000E+00 0. -1.
         25    1    1    2    0    0  0.10154282715E+03 -0.20111130662E+03 -0.14272458323E+03  0.29453694175E+03  0.12500000000E+03 0.  0.
         21    1    1    2  503  502  0.80858755584E+01 -0.19458478734E+02 -0.54569090483E+02  0.58496148713E+02  0.00000000000E+00 0.  1.
          2    1    1    2  501    0 -0.10962870271E+03  0.22056978535E+03 -0.19451815482E+04  0.19607143438E+04  0.00000000000E+00 0. -1.
<mgrwt>
<rscale>  4 0.25949856E+03</rscale>
<asrwt>0</asrwt>
<pdfrwt beam="1">  1       21 0.13174785E-01 0.25949856E+03</pdfrwt>
<pdfrwt beam="2">  1        2 0.34278638E+00 0.25949856E+03</pdfrwt>
<totfact> 0.35133950E+03</totfact>
</mgrwt>
</event>
<event>
 5    0  0.9662576E-001  0.3367477E+03  0.7546771E-02  0.1068190E+00
         21   -1    0    0  501  502  0.00000000000E+00  0.00000000000E+00  0.24197635367E+03  0.24197635367E+03  0.00000000000E+00 0.  1.
          2   -1    0    0  503    0 -0.00000000000E+00 -0.00000000000E+00 -0.66911137487E+03  0.66911137487E+03  0.00000000000E+00 0. -1.
         25    1    1    2    0    0 -0.35595504143E+02  0.29435992465E+03 -0.16757009111E+02  0.32221204588E+03  0.12500000000E+03 0.  0.
         21    1    1    2  503  502 -0.47947241690E+02  0.48275780938E+02 -0.86454656582E+02  0.11001771065E+03  0.00000000000E+00 0. -1.
          2    1    1    2  501    0  0.83542745833E+02 -0.34263570558E+03 -0.32392335550E+03  0.47885797202E+03  0.00000000000E+00 0. -1.
<mgrwt>
<rscale>  4 0.33674768E+03</rscale>
<asrwt>0</asrwt>
<pdfrwt beam="1">  1       21 0.37227130E-01 0.33674768E+03</pdfrwt>
<pdfrwt beam="2">  1        2 0.10294021E+00 0.33674768E+03</pdfrwt>
<totfact> 0.37204795E+03</totfact>
</mgrwt>
</event>
<event>
 5    0  0.2475276E+000  0.2738985E+03  0.7546771E-02  0.1099069E+00
         21   -1    0    0  501  502  0.00000000000E+00  0.00000000000E+00  0.34190450136E+03  0.34190450136E+03  0.00000000000E+00 0.  1.
          1   -1    0    0  503    0 -0.00000000000E+00 -0.00000000000E+00 -0.40471142986E+03  0.40471142986E+03  0.00000000000E+00 0.  1.
         25    1    1    2    0    0  0.19452017893E+03 -0.14666673506E+03  0.21111497135E+03  0.34575101202E+03  0.12500000000E+03 0.  0.
         21    1    1    2  503  502  0.24895522191E+02  0.33439476223E+02 -0.66040487940E+02  0.78098217922E+02  0.00000000000E+00 0.  1.
          1    1    1    2  501    0 -0.21941570112E+03  0.11322725884E+03 -0.20788141191E+03  0.32276670129E+03  0.00000000000E+00 0.  1.
<mgrwt>
<rscale>  4 0.27389853E+03</rscale>
<asrwt>0</asrwt>
<pdfrwt beam="1">  1       21 0.52600693E-01 0.27389853E+03</pdfrwt>
<pdfrwt beam="2">  1        1 0.62263297E-01 0.27389853E+03</pdfrwt>
<totfact> 0.21853765E+03</totfact>
</mgrwt>
</event>
<event>
 5    0  0.9662576E-001  0.2967494E+03  0.7546771E-02  0.1086877E+00
         21   -1    0    0  501  502  0.00000000000E+00  0.00000000000E+00  0.24446115062E+03  0.24446115062E+03  0.00000000000E+00 0. -1.
          2   -1    0    0  503    0 -0.00000000000E+00 -0.00000000000E+00 -0.43916200259E+03  0.43916200259E+03  0.00000000000E+00 0.  1.
         25    1    1    2    0    0  0.22276704808E+03 -0.15102986698E+03  0.64307434454E+02  0.30363732405E+03  0.12500000000E+03 0.  0.
         21    1    1    2  503  502 -0.21737589174E+02  0.12356263735E+01 -0.35483120175E+01  0.22059920077E+02  0.00000000000E+00 0. -1.
          2    1    1    2  501    0 -0.20102945890E+03  0.14979424061E+03 -0.25545997441E+03  0.35792590908E+03  0.00000000000E+00 0.  1.
<mgrwt>
<rscale>  4 0.29674935E+03</rscale>
<asrwt>0</asrwt>
<pdfrwt beam="1">  1       21 0.37609408E-01 0.29674935E+03</pdfrwt>
<pdfrwt beam="2">  1        2 0.67563385E-01 0.29674935E+03</pdfrwt>
<totfact> 0.59719924E+03</totfact>
</mgrwt>
</event>
<event>
 5    0  0.9662576E-001  0.3300668E+03  0.7546771E-02  0.1071107E+00
         -1   -1    0    0    0  501 -0.00000000000E+00  0.00000000000E+00  0.13302469239E+04  0.13302469239E+04  0.00000000000E+00 0.  1.
         21   -1    0    0  503  502  0.00000000000E+00 -0.00000000000E+00 -0.28183118124E+03  0.28183118124E+03  0.00000000000E+00 0.  1.
         25    1    1    2    0    0  0.28015345747E+03  0.12091118176E+03 -0.14889159260E+03  0.36179991702E+03  0.12500000000E+03 0.  0.
         21    1    1    2  503  501 -0.14504760461E+02  0.42001758640E+02  0.22174084695E+03  0.22614937322E+03  0.00000000000E+00 0.  1.
         -1    1    1    2    0  502 -0.26564869701E+03 -0.16291294040E+03  0.97556648837E+03  0.10241288149E+04  0.00000000000E+00 0.  1.
<mgrwt>
<rscale>  4 0.33006678E+03</rscale>
<asrwt>0</asrwt>
<pdfrwt beam="1">  1       21 0.43358644E-01 0.33006678E+03</pdfrwt>
<pdfrwt beam="2">  1       -1 0.20465337E+00 0.33006678E+03</pdfrwt>
<totfact> 0.70305413E+01</totfact>
</mgrwt>
</event>
<event>
 5    0  0.9662576E-001  0.3283568E+03  0.7546771E-02  0.1071866E+00
         21   -1    0    0  501  502  0.00000000000E+00  0.00000000000E+00  0.13228954593E+03  0.13228954593E+03  0.00000000000E+00 0. -1.
          2   -1    0    0  503    0 -0.00000000000E+00 -0.00000000000E+00 -0.14998832157E+04  0.14998832157E+04  0.00000000000E+00 0.  1.
         25    1    1    2    0    0  0.11884272894E+03 -0.28312449024E+03 -0.13548471407E+03  0.35813988740E+03  0.12500000000E+03 0.  0.
         21    1    1    2  503  502 -0.28756185188E+02  0.77497507436E+01 -0.19307635352E+03  0.19535980935E+03  0.00000000000E+00 0.  1.
          2    1    1    2  501    0 -0.90086543749E+02  0.27537473950E+03 -0.10390326022E+04  0.10786730649E+04  0.00000000000E+00 0.  1.
<mgrwt>
<rscale>  4 0.32835685E+03</rscale>
<asrwt>0</asrwt>
<pdfrwt beam="1">  1       21 0.20352236E-01 0.32835685E+03</pdfrwt>
<pdfrwt beam="2">  1        2 0.23075128E+00 0.32835685E+03</pdfrwt>
<totfact> 0.37245631E+03</totfact>
</mgrwt>
</event>
<event>
 5    0  0.9662576E-001  0.3343526E+03  0.7546771E-02  0.1069227E+00
          2   -1    0    0  503    0 -0.00000000000E+00  0.00000000000E+00  0.28830142455E+04  0.28830142455E+04  0.00000000000E+00 0. -1.
         21   -1    0    0  501  502  0.00000000000E+00 -0.00000000000E+00 -0.10386194453E+03  0.10386194453E+03  0.00000000000E+00 0.  1.
         25    1    1    2    0    0  0.30206941041E+03  0.70147940610E+02  0.20486647246E+03  0.39212489568E+03  0.12500000000E+03 0.  0.
         21    1    1    2  503  502 -0.32607221258E+02  0.18803615068E+02  0.19463285646E+03  0.19823913748E+03  0.00000000000E+00 0. -1.
          2    1    1    2  501    0 -0.26946218915E+03 -0.88951555678E+02  0.23796529721E+04  0.23965121569E+04  0.00000000000E+00 0. -1.
<mgrwt>
<rscale>  4 0.33435260E+03</rscale>
<asrwt>0</asrwt>
<pdfrwt beam="1">  1       21 0.15978763E-01 0.33435260E+03</pdfrwt>
<pdfrwt beam="2">  1        2 0.44354059E+00 0.33435260E+03</pdfrwt>
<totfact> 0.10325979E+03</totfact>
</mgrwt>
</event>
<event>
 5    0  0.1065174E+000  0.3558503E+03  0.7546771E-02  0.1060239E+00
         21   -1    0    0  501  502  0.00000000000E+00  0.00000000000E+00  0.17483552692E+03  0.17483552692E+03  0.00000000000E+00 0. -1.
          2   -1    0    0  503    0 -0.00000000000E+00 -0.00000000000E+00 -0.82452954337E+03  0.82452954337E+03  0.00000000000E+00 0. -1.
         25    1    1    2    0    0 -0.33305214922E+03 -0.89834567570E+01 -0.13713436923E+03  0.38135976692E+03  0.12500000000E+03 0.  0.
         21    1    1    2  503  502  0.62821597429E+02 -0.33604090812E+02 -0.93355188298E+02  0.11743499992E+03  0.00000000000E+00 0. -1.
          2    1    1    2  501    0  0.27023055180E+03  0.42587547569E+02 -0.41920445892E+03  0.50057030347E+03  0.00000000000E+00 0. -1.
<mgrwt>
<rscale>  4 0.35585030E+03</rscale>
<asrwt>0</asrwt>
<pdfrwt beam="1">  1       21 0.26897773E-01 0.35585030E+03</pdfrwt>
<pdfrwt beam="2">  1        2 0.12685070E+00 0.35585030E+03</pdfrwt>
<totfact> 0.54383022E+03</totfact>
</mgrwt>
</event>
<event>
 5    0  0.9662576E-001  0.3873956E+03  0.7546771E-02  0.1048234E+00
          1   -1    0    0  503    0 -0.00000000000E+00  0.00000000000E+00  0.59233319485E+03  0.59233319485E+03  0.00000000000E+00 0. -1.
         21   -1    0    0  501  502  0.00000000000E+00 -0.00000000000E+00 -0.60633739139E+03  0.60633739139E+03  0.00000000000E+00 0.  1.
         25    1    1    2    0    0  0.39730067412E+02  0.33226707499E+03 -0.38915629747E+03  0.52824947822E+03  0.12500000000E+03 0.  0.
         21    1    1    2  503  502 -0.63789183205E+02  0.39161767574E+02 -0.61344297049E+02  0.96777201416E+02  0.00000000000E+00 0.  1.
          1    1    1    2  501    0  0.24059115793E+02 -0.37142884257E+03  0.43649639798E+03  0.57364390661E+03  0.00000000000E+00 0. -1.
<mgrwt>
<rscale>  4 0.38739561E+03</rscale>
<asrwt>0</asrwt>
<pdfrwt beam="1">  1       21 0.93282675E-01 0.38739561E+03</pdfrwt>
<pdfrwt beam="2">  1        1 0.91128184E-01 0.38739561E+03</pdfrwt>
<totfact> 0.35053857E+02</totfact>
</mgrwt>
</event>
<event>
 5    0  0.9662576E-001  0.2362442E+03  0.7546771E-02  0.1122320E+00
         21   -1    0    0  501  502  0.00000000000E+00  0.00000000000E+00  0.31085983401E+03  0.31085983401E+03  0.00000000000E+00 0. -1.
          1   -1    0    0  503    0 -0.00000000000E+00 -0.00000000000E+00 -0.60027574436E+03  0.60027574436E+03  0.00000000000E+00 0. -1.
         25    1    1    2    0    0  0.18681262811E+03  0.10912041172E+03  0.13079793459E+03  0.28202716530E+03  0.12500000000E+03 0.  0.
         21    1    1    2  503  502 -0.72922244028E+01 -0.59608947804E+02 -0.43794506065E+03  0.44204330030E+03  0.00000000000E+00 0. -1.
          1    1    1    2  501    0 -0.17952040371E+03 -0.49511463911E+02  0.17731215711E+02  0.18706511277E+03  0.00000000000E+00 0. -1.
<mgrwt>
<rscale>  4 0.23624421E+03</rscale>
<asrwt>0</asrwt>
<pdfrwt beam="1">  1       21 0.47824590E-01 0.23624421E+03</pdfrwt>
<pdfrwt beam="2">  1        1 0.92350115E-01 0.23624421E+03</pdfrwt>
<totfact> 0.15993334E+03</totfact>
</mgrwt>
</event>
<event>
 5    0  0.9662576E-001  0.2428541E+03  0.7546771E-02  0.1117906E+00
          1   -1    0    0  503    0 -0.00000000000E+00  0.00000000000E+00  0.26047085924E+03  0.26047085924E+03  0.00000000000E+00 0.  1.
         21   -1    0    0  501  502  0.00000000000E+00 -0.00000000000E+00 -0.20627985745E+03  0.20627985745E+03  0.00000000000E+00 0.  1.
         25    1    1    2    0    0  0.20765788910E+03 -0.15209583366E+02 -0.11160754397E+02  0.24311045385E+03  0.12500000000E+03 0.  0.
         21    1    1    2  503  502 -0.22365218417E+02 -0.96248498243E+01 -0.31171282891E+01  0.24547040917E+02  0.00000000000E+00 0.  1.
          1    1    1    2  501    0 -0.18529267068E+03  0.24834433190E+02  0.68468884476E+02  0.19909322194E+03  0.00000000000E+00 0.  1.
<mgrwt>
<rscale>  4 0.24285413E+03</rscale>
<asrwt>0</asrwt>
<pdfrwt beam="1">  1       21 0.31735363E-01 0.24285413E+03</pdfrwt>
<pdfrwt beam="2">  1        1 0.40072440E-01 0.24285413E+03</pdfrwt>
<totfact> 0.10808723E+04</totfact>
</mgrwt>
</event>
<event>
 5    0  0.9662576E-001  0.4552863E+03  0.7546771E-02  0.1026157E+00
         21   -1    0    0  501  502  0.00000000000E+00  0.00000000000E+00  0.47964189661E+03  0.47964189661E+03  0.00000000000E+00 0. -1.
          2   -1    0    0  503    0 -0.00000000000E+00 -0.00000000000E+00 -0.44290762523E+03  0.44290762523E+03  0.00000000000E+00 0.  1.
         25    1    1    2    0    0 -0.22937007743E+03 -0.35765792495E+03 -0.97363905355E+01  0.44300070090E+03  0.12500000000E+03 0.  0.
         21    1    1    2  503  502 -0.28751146128E+01 -0.26978920766E+02 -0.39368505364E+01  0.27415821014E+02  0.00000000000E+00 0.  1.
          2    1    1    2  501    0  0.23224519204E+03  0.38463684572E+03  0.50407512452E+02  0.45213299993E+03  0.00000000000E+00 0.  1.
<mgrwt>
<rscale>  4 0.45528629E+03</rscale>
<asrwt>0</asrwt>
<pdfrwt beam="1">  1       21 0.73791061E-01 0.45528629E+03</pdfrwt>
<pdfrwt beam="2">  1        2 0.68139635E-01 0.45528629E+03</pdfrwt>
<totfact> 0.13522336E+03</totfact>
</mgrwt>
</event>
<event>
 5    0  0.2750708E+000  0.2934591E+03  0.7546771E-02  0.1088557E+00
          2   -1    0    0  503    0 -0.00000000000E+00  0.00000000000E+00  0.75144222551E+03  0.75144222551E+03  0.00000000000E+00 0.  1.
         21   -1    0    0  501  502  0.00000000000E+00 -0.00000000000E+00 -0.15535959306E+03  0.15535959306E+03  0.00000000000E+00 0.  1.
         25    1    1    2    0    0  0.13324238630E+03  0.22688712388E+03  0.83021710578E+02  0.30290081696E+03  0.12500000000E+03 0.  0.
         21    1    1    2  503  502  0.40300065310E+02 -0.15482316057E+02  0.94560336919E+02  0.10394928904E+03  0.00000000000E+00 0.  1.
          2    1    1    2  501    0 -0.17354245161E+03 -0.21140480783E+03  0.41850058495E+03  0.49995171255E+03  0.00000000000E+00 0.  1.
<mgrwt>
<rscale>  4 0.29345915E+03</rscale>
<asrwt>0</asrwt>
<pdfrwt beam="1">  1       21 0.23901476E-01 0.29345915E+03</pdfrwt>
<pdfrwt beam="2">  1        2 0.11560649E+00 0.29345915E+03</pdfrwt>
<totfact> 0.77982349E+03</totfact>
</mgrwt>
</event>
<event>
 5    0  0.9662576E-001  0.4024242E+03  0.7546771E-02  0.1042943E+00
          2   -1    0    0  503    0 -0.00000000000E+00  0.00000000000E+00  0.41498759550E+03  0.41498759550E+03  0.00000000000E+00 0.  1.
         21   -1    0    0  501  502  0.00000000000E+00 -0.00000000000E+00 -0.59118645201E+03  0.59118645201E+03  0.00000000000E+00 0.  1.
         25    1    1    2    0    0  0.28614825668E+03  0.21488850684E+03 -0.13665041709E+03  0.40293452529E+03  0.12500000000E+03 0.  0.
         21    1    1    2  503  502  0.11076901979E+03 -0.74865915516E+02  0.91973928065E+02  0.16227718415E+03  0.00000000000E+00 0.  1.
          2    1    1    2  501    0 -0.39691727648E+03 -0.14002259133E+03 -0.13152236749E+03  0.44096233807E+03  0.00000000000E+00 0.  1.
<mgrwt>
<rscale>  4 0.40242424E+03</rscale>
<asrwt>0</asrwt>
<pdfrwt beam="1">  1       21 0.90951761E-01 0.40242424E+03</pdfrwt>
<pdfrwt beam="2">  1        2 0.63844246E-01 0.40242424E+03</pdfrwt>
<totfact> 0.90647519E+02</totfact>
</mgrwt>
</event>
<event>
 5    0  0.1377538E+000  0.3357438E+03  0.7546771E-02  0.1068623E+00
         -2   -1    0    0    0  501 -0.00000000000E+00  0.00000000000E+00  0.24377095237E+03  0.24377095237E+03  0.00000000000E+00 0. -1.
         21   -1    0    0  503  502  0.00000000000E+00 -0.00000000000E+00 -0.46158390387E+03  0.46158390387E+03  0.00000000000E+00 0. -1.
         25    1    1    2    0    0 -0.11536602403E+03 -0.28946429024E+03 -0.17789170717E+03  0.37995967458E+03  0.12500000000E+03 0.  0.
         21    1    1    2  503  501  0.69489001158E+00  0.49174499762E+02  0.18969041702E+02  0.52710898703E+02  0.00000000000E+00 0.  1.
         -2    1    1    2    0  502  0.11467113402E+03  0.24028979048E+03 -0.58890286028E+02  0.27268428296E+03  0.00000000000E+00 0. -1.
<mgrwt>
<rscale>  4 0.33574379E+03</rscale>
<asrwt>0</asrwt>
<pdfrwt beam="1">  1       21 0.71012908E-01 0.33574379E+03</pdfrwt>
<pdfrwt beam="2">  1       -2 0.37503224E-01 0.33574379E+03</pdfrwt>
<totfact> 0.93404719E+02</totfact>
</mgrwt>
</event>
<event>
 5    0  0.9662576E-001  0.3295554E+03  0.7546771E-02  0.1071334E+00
          2   -1    0    0  503    0 -0.00000000000E+00  0.00000000000E+00  0.33683073790E+04  0.33683073790E+04  0.00000000000E+00 0.  1.
         21   -1    0    0  501  502  0.00000000000E+00 -0.00000000000E+00 -0.15760852337E+03  0.15760852337E+03  0.00000000000E+00 0. -1.
         25    1    1    2    0    0  0.17226380761E+03 -0.25154163022E+03  0.34683284316E+02  0.33132452574E+03  0.12500000000E+03 0.  0.
         21    1    1    2  503  502 -0.21040538342E+02 -0.15528738214E+02  0.10223634298E+03  0.10552779630E+03  0.00000000000E+00 0.  1.
          2    1    1    2  501    0 -0.15122326927E+03  0.26707036843E+03  0.30737792283E+04  0.30890635803E+04  0.00000000000E+00 0.  1.
<mgrwt>
<rscale>  4 0.32955536E+03</rscale>
<asrwt>0</asrwt>
<pdfrwt beam="1">  1       21 0.24247468E-01 0.32955536E+03</pdfrwt>
<pdfrwt beam="2">  1        2 0.51820108E+00 0.32955536E+03</pdfrwt>
<totfact> 0.23744272E+02</totfact>
</mgrwt>
</event>
<event>
 5    0  0.9662576E-001  0.2908515E+03  0.7546771E-02  0.1089905E+00
         21   -1    0    0  501  502  0.00000000000E+00  0.00000000000E+00  0.11593811803E+03  0.11593811803E+03  0.00000000000E+00 0. -1.
          2   -1    0    0  503    0 -0.00000000000E+00 -0.00000000000E+00 -0.18257896177E+04  0.18257896177E+04  0.00000000000E+00 0. -1.
         25    1    1    2    0    0  0.10874771289E+03 -0.24132951651E+03 -0.15167146975E+03  0.32968960453E+03  0.12500000000E+03 0.  0.
         21    1    1    2  503  502  0.52884288863E+02  0.34585907260E+02 -0.91780151048E+03  0.91997420922E+03  0.00000000000E+00 0. -1.
          2    1    1    2  501    0 -0.16163200175E+03  0.20674360925E+03 -0.64037851939E+03  0.69206392194E+03  0.00000000000E+00 0. -1.
<mgrwt>
<rscale>  4 0.29085145E+03</rscale>
<asrwt>0</asrwt>
<pdfrwt beam="1">  1       21 0.17836635E-01 0.29085145E+03</pdfrwt>
<pdfrwt beam="2">  1        2 0.28089068E+00 0.29085145E+03</pdfrwt>
<totfact> 0.32413932E+03</totfact>
</mgrwt>
</event>
<event>
 5    0  0.1215461E+000  0.2741383E+03  0.7546771E-02  0.1098934E+00
          2   -1    0    0  503    0 -0.00000000000E+00  0.00000000000E+00  0.15119897534E+04  0.15119897534E+04  0.00000000000E+00 0. -1.
         21   -1    0    0  501  502  0.00000000000E+00 -0.00000000000E+00 -0.78593683137E+02  0.78593683137E+02  0.00000000000E+00 0.  1.
         25    1    1    2    0    0 -0.26566862673E+03 -0.38222937341E+02  0.32036974485E+03  0.43623684574E+03  0.12500000000E+03 0.  0.
         21    1    1    2  503  502  0.69863660758E+02 -0.31339197365E+02  0.52778414392E+03  0.53330964641E+03  0.00000000000E+00 0. -1.
          2    1    1    2  501    0  0.19580496597E+03  0.69562134706E+02  0.58524218147E+03  0.62103694436E+03  0.00000000000E+00 0. -1.
<mgrwt>
<rscale>  4 0.27413829E+03</rscale>
<asrwt>0</asrwt>
<pdfrwt beam="1">  1       21 0.12091337E-01 0.27413829E+03</pdfrwt>
<pdfrwt beam="2">  1        2 0.23261379E+00 0.27413829E+03</pdfrwt>
<totfact> 0.97504051E+03</totfact>
</mgrwt>
</event>
<event>
 5    0  0.9662576E-001  0.4486038E+03  0.7546771E-02  0.1028139E+00
          2   -1    0    0  503    0 -0.00000000000E+00  0.00000000000E+00  0.40635083359E+03  0.40635083359E+03  0.00000000000E+00 0.  1.
         21   -1    0    0  501  502  0.00000000000E+00 -0.00000000000E+00 -0.17529466997E+04  0.17529466997E+04  0.00000000000E+00 0.  1.
         25    1    1    2    0    0 -0.28896566098E+03  0.31749139161E+03 -0.15350157029E+04  0.15988121043E+04  0.12500000000E+03 0.  0.
         21    1    1    2  503  502 -0.58528967989E+02 -0.32823763551E+02  0.67736568826E+02  0.95348216050E+02  0.00000000000E+00 0. -1.
          2    1    1    2  501    0  0.34749462897E+03 -0.28466762806E+03  0.12068326796E+03  0.46513721287E+03  0.00000000000E+00 0.  1.
<mgrwt>
<rscale>  4 0.44860383E+03</rscale>
<asrwt>0</asrwt>
<pdfrwt beam="1">  1       21 0.26968411E+00 0.44860383E+03</pdfrwt>
<pdfrwt beam="2">  1        2 0.62515513E-01 0.44860383E+03</pdfrwt>
<totfact> 0.41228437E+01</totfact>
</mgrwt>
</event>
<event>
 5    0  0.9662576E-001  0.3458796E+03  0.7546771E-02  0.1064319E+00
          2   -1    0    0  503    0 -0.00000000000E+00  0.00000000000E+00  0.47674503790E+03  0.47674503790E+03  0.00000000000E+00 0.  1.
         21   -1    0    0  501  502  0.00000000000E+00 -0.00000000000E+00 -0.48900499923E+03  0.48900499923E+03  0.00000000000E+00 0. -1.
         25    1    1    2    0    0  0.22331211690E+03 -0.16620791765E+03 -0.30565147834E+03  0.43190415563E+03  0.12500000000E+03 0.  0.
         21    1    1    2  503  502  0.73334854922E+02  0.17612149351E+02 -0.19388963730E+02  0.77872464105E+02  0.00000000000E+00 0.  1.
          2    1    1    2  501    0 -0.29664697182E+03  0.14859576829E+03  0.31278048073E+03  0.45597341740E+03  0.00000000000E+00 0.  1.
<mgrwt>
<rscale>  4 0.34587961E+03</rscale>
<asrwt>0</asrwt>
<pdfrwt beam="1">  1       21 0.75231538E-01 0.34587961E+03</pdfrwt>
<pdfrwt beam="2">  1        2 0.73345391E-01 0.34587961E+03</pdfrwt>
<totfact> 0.12235386E+03</totfact>
</mgrwt>
</event>
<event>
 5    0  0.9662576E-001  0.2461467E+03  0.7546771E-02  0.1115764E+00
          1   -1    0    0  503    0 -0.00000000000E+00  0.00000000000E+00  0.70648016852E+03  0.70648016852E+03  0.00000000000E+00 0.  1.
         21   -1    0    0  501  502  0.00000000000E+00 -0.00000000000E+00 -0.27941869243E+03  0.27941869243E+03  0.00000000000E+00 0. -1.
         25    1    1    2    0    0  0.11712067259E+03  0.17974259488E+03 -0.19074705837E+03  0.31310396459E+03  0.12500000000E+03 0.  0.
         21    1    1    2  503  502  0.17898159721E+02 -0.16350881069E+02  0.55289338529E+01  0.24864925953E+02  0.00000000000E+00 0.  1.
          1    1    1    2  501    0 -0.13501883232E+03 -0.16339171381E+03  0.61227960061E+03  0.64792997040E+03  0.00000000000E+00 0.  1.
<mgrwt>
<rscale>  4 0.24614672E+03</rscale>
<asrwt>0</asrwt>
<pdfrwt beam="1">  1       21 0.42987491E-01 0.24614672E+03</pdfrwt>
<pdfrwt beam="2">  1        1 0.10868926E+00 0.24614672E+03</pdfrwt>
<totfact> 0.15745508E+03</totfact>
</mgrwt>
</event>
<event>
 5    0  0.9662576E-001  0.2832188E+03  0.7546771E-02  0.1093944E+00
          2   -1    0    0  503    0 -0.00000000000E+00  0.00000000000E+00  0.30986730353E+04  0.30986730353E+04  0.00000000000E+00 0.  1.
         21   -1    0    0  501  502  0.00000000000E+00 -0.00000000000E+00 -0.81328228972E+02  0.81328228972E+02  0.00000000000E+00 0.  1.
         25    1    1    2    0    0  0.33933204223E+02  0.24867441728E+03  0.20107480257E+03  0.34503116437E+03  0.12500000000E+03 0.  0.
         21    1    1    2  503  502  0.27529561145E+02  0.28971663417E+02  0.28848636526E+03  0.29124150968E+03  0.00000000000E+00 0. -1.
          2    1    1    2  501    0 -0.61462765368E+02 -0.27764608070E+03  0.25277836385E+04  0.25437285902E+04  0.00000000000E+00 0.  1.
<mgrwt>
<rscale>  4 0.28321881E+03</rscale>
<asrwt>0</asrwt>
<pdfrwt beam="1">  1       21 0.12512038E-01 0.28321881E+03</pdfrwt>
<pdfrwt beam="2">  1        2 0.47671884E+00 0.28321881E+03</pdfrwt>
<totfact> 0.12333335E+03</totfact>
</mgrwt>
</event>
<event>
 5    0  0.9662576E-001  0.1621492E+03  0.7546771E-02  0.1186292E+00
         21   -1    0    0  503  502  0.00000000000E+00  0.00000000000E+00  0.63154553518E+03  0.63154553518E+03  0.00000000000E+00 0.  1.
         -2   -1    0    0    0  501 -0.00000000000E+00 -0.00000000000E+00 -0.39865430260E+03  0.39865430260E+03  0.00000000000E+00 0.  1.
         25    1    1    2    0    0  0.11229145255E+03  0.16701433111E+03  0.15960345635E+03  0.28565962331E+03  0.12500000000E+03 0.  0.
         21    1    1    2  503  501 -0.79125833755E+02 -0.78061717189E+02 -0.32062724722E+03  0.33934696244E+03  0.00000000000E+00 0.  1.
         -2    1    1    2    0  502 -0.33165618798E+02 -0.88952613920E+02  0.39391502345E+03  0.40519325203E+03  0.00000000000E+00 0.  1.
<mgrwt>
<rscale>  4 0.16214915E+03</rscale>
<asrwt>0</asrwt>
<pdfrwt beam="1">  1       21 0.97160852E-01 0.16214915E+03</pdfrwt>
<pdfrwt beam="2">  1       -2 0.61331431E-01 0.16214915E+03</pdfrwt>
<totfact> 0.18416298E+02</totfact>
</mgrwt>
</event>
<event>
 5    0  0.9662576E-001  0.4026386E+03  0.7546771E-02  0.1042870E+00
          2   -1    0    0  503    0 -0.00000000000E+00  0.00000000000E+00  0.21899974405E+04  0.21899974405E+04  0.00000000000E+00 0.  1.
         21   -1    0    0  501  502  0.00000000000E+00 -0.00000000000E+00 -0.60696417354E+03  0.60696417354E+03  0.00000000000E+00 0.  1.
         25    1    1    2    0    0  0.38114512235E+03  0.43903505929E+02 -0.51630477426E+03  0.65528218506E+03  0.12500000000E+03 0.  0.
         21    1    1    2  503  502 -0.21920167942E+02  0.10337454702E+01  0.55664350255E+03  0.55707589368E+03  0.00000000000E+00 0.  1.
          2    1    1    2  501    0 -0.35922495441E+03 -0.44937251399E+02  0.15426945387E+04  0.15846035353E+04  0.00000000000E+00 0.  1.
<mgrwt>
<rscale>  4 0.40263865E+03</rscale>
<asrwt>0</asrwt>
<pdfrwt beam="1">  1       21 0.93379105E-01 0.40263865E+03</pdfrwt>
<pdfrwt beam="2">  1        2 0.33692268E+00 0.40263865E+03</pdfrwt>
<totfact> 0.63559527E+01</totfact>
</mgrwt>
</event>
<event>
 5    0  0.9662576E-001  0.3558353E+03  0.7546771E-02  0.1060245E+00
         21   -1    0    0  501  502  0.00000000000E+00  0.00000000000E+00  0.42152898884E+03  0.42152898884E+03  0.00000000000E+00 0. -1.
          1   -1    0    0  503    0 -0.00000000000E+00 -0.00000000000E+00 -0.57086311402E+03  0.57086311402E+03  0.00000000000E+00 0.  1.
         25    1    1    2    0    0 -0.30707252539E+03 -0.12922928455E+03  0.26718949559E+03  0.44498198883E+03  0.12500000000E+03 0.  0.
         21    1    1    2  503  502  0.94856585585E+02  0.30269225435E+01 -0.55223199487E+02  0.10980225795E+03  0.00000000000E+00 0.  1.
          1    1    1    2  501    0  0.21221593980E+03  0.12620236200E+03 -0.36130042128E+03  0.43760785607E+03  0.00000000000E+00 0.  1.
<mgrwt>
<rscale>  4 0.35583528E+03</rscale>
<asrwt>0</asrwt>
<pdfrwt beam="1">  1       21 0.64850614E-01 0.35583528E+03</pdfrwt>
<pdfrwt beam="2">  1        1 0.87825094E-01 0.35583528E+03</pdfrwt>
<totfact> 0.85678927E+02</totfact>
</mgrwt>
</event>
