<event>
 5    0  0.2608967E+000  0.2790124E+03  0.7546771E-02  0.1096230E+00
         21   -1    0    0  502  501  0.00000000000E+00  0.00000000000E+00  0.12228591020E+04  0.12228591020E+04  0.00000000000E+00 0. -1.
         21   -1    0    0  503  502 -0.00000000000E+00 -0.00000000000E+00 -0.91073111666E+02  0.91073111666E+02  0.00000000000E+00 0.  1.
         25    1    1    2    0    0 -0.26535418468E+02  0.24802977616E+03  0.96854399607E+03  0.10079312331E+04  0.12500000000E+03 0.  0.
         21    1    1    2  503  504  0.25282765051E+02 -0.49042078926E+02  0.61099077408E+02  0.82325214692E+02  0.00000000000E+00 0.  1.
         21    1    1    2  504  501  0.12526534173E+01 -0.19898769724E+03  0.10214291689E+03  0.22367576593E+03  0.00000000000E+00 0.  1.
<mgrwt>
<rscale>  4 0.27901236E+03</rscale>
<asrwt>0</asrwt>
<pdfrwt beam="1">  1       21 0.18813216E+00 0.27901236E+03</pdfrwt>
<pdfrwt beam="2">  1       21 0.14011249E-01 0.27901236E+03</pdfrwt>
<totfact> 0.66871176E+03</totfact>
</mgrwt>
</event>
<event>
 5    0  0.2159162E+000  0.2640329E+03  0.7546771E-02  0.1104744E+00
         21   -1    0    0  502  501  0.00000000000E+00  0.00000000000E+00  0.19746769118E+03  0.19746769118E+03  0.00000000000E+00 0.  1.
         21   -1    0    0  503  502 -0.00000000000E+00 -0.00000000000E+00 -0.96717970947E+03  0.96717970947E+03  0.00000000000E+00 0.  1.
         25    1    1    2    0    0  0.20948347953E+03 -0.10574808712E+03  0.77427781443E+02  0.27692245749E+03  0.12500000000E+03 0.  0.
         21    1    1    2  503  504 -0.51393576657E+01  0.33039545284E+02 -0.40941778030E+02  0.52860701264E+02  0.00000000000E+00 0. -1.
         21    1    1    2  504  501 -0.20434412186E+03  0.72708541832E+02 -0.80619802170E+03  0.83486424189E+03  0.00000000000E+00 0.  1.
<mgrwt>
<rscale>  4 0.26403286E+03</rscale>
<asrwt>0</asrwt>
<pdfrwt beam="1">  1       21 0.30379645E-01 0.26403286E+03</pdfrwt>
<pdfrwt beam="2">  1       21 0.14879688E+00 0.26403286E+03</pdfrwt>
<totfact> 0.30012645E+03</totfact>
</mgrwt>
</event>
<event>
 5    0  0.3088619E+000  0.2714619E+03  0.7546771E-02  0.1100446E+00
         21   -1    0    0  502  501  0.00000000000E+00  0.00000000000E+00  0.12041450939E+03  0.12041450939E+03  0.00000000000E+00 0. -1.
         21   -1    0    0  503  502 -0.00000000000E+00 -0.00000000000E+00 -0.59883939516E+03  0.59883939516E+03  0.00000000000E+00 0. -1.
         25    1    1    2    0    0  0.18662493437E+03 -0.15243912432E+03 -0.17586868296E+03  0.32345223202E+03  0.12500000000E+03 0.  0.
         21    1    1    2  503  504 -0.13649086116E+03  0.86045646394E+02 -0.24950686077E+03  0.29713175867E+03  0.00000000000E+00 0. -1.
         21    1    1    2  504  501 -0.50134073213E+02  0.66393477930E+02 -0.53049342042E+02  0.98669913853E+02  0.00000000000E+00 0.  1.
<mgrwt>
<rscale>  4 0.27146188E+03</rscale>
<asrwt>0</asrwt>
<pdfrwt beam="1">  1       21 0.18525309E-01 0.27146188E+03</pdfrwt>
<pdfrwt beam="2">  1       21 0.92129137E-01 0.27146188E+03</pdfrwt>
<totfact> 0.25445469E+04</totfact>
</mgrwt>
</event>
<event>
 5    0  0.3005259E+000  0.2922632E+03  0.7546771E-02  0.1089173E+00
         21   -1    0    0  502  501  0.00000000000E+00  0.00000000000E+00  0.54399613188E+02  0.54399613188E+02  0.00000000000E+00 0. -1.
         21   -1    0    0  503  502 -0.00000000000E+00 -0.00000000000E+00 -0.23425578717E+04  0.23425578717E+04  0.00000000000E+00 0. -1.
         25    1    1    2    0    0 -0.82528881221E+02  0.25096169297E+03 -0.43523728819E+03  0.52426070290E+03  0.12500000000E+03 0.  0.
         21    1    1    2  503  504 -0.92176540334E+01 -0.20015480555E+02 -0.11411924792E+03  0.11622730898E+03  0.00000000000E+00 0. -1.
         21    1    1    2  504  501  0.91746535254E+02 -0.23094621242E+03 -0.17388017224E+04  0.17564694730E+04  0.00000000000E+00 0. -1.
<mgrwt>
<rscale>  4 0.29226322E+03</rscale>
<asrwt>0</asrwt>
<pdfrwt beam="1">  1       21 0.83691720E-02 0.29226322E+03</pdfrwt>
<pdfrwt beam="2">  1       21 0.36039349E+00 0.29226322E+03</pdfrwt>
<totfact> 0.15016829E+03</totfact>
</mgrwt>
</event>
<event>
 5    0  0.2159162E+000  0.2430776E+03  0.7546771E-02  0.1117759E+00
         21   -1    0    0  502  501  0.00000000000E+00  0.00000000000E+00  0.58361918621E+02  0.58361918621E+02  0.00000000000E+00 0. -1.
         21   -1    0    0  503  502 -0.00000000000E+00 -0.00000000000E+00 -0.10498965564E+04  0.10498965564E+04  0.00000000000E+00 0. -1.
         25    1    1    2    0    0 -0.96078611957E+02 -0.18501520091E+03 -0.31420612646E+03  0.39725585477E+03  0.12500000000E+03 0.  0.
         21    1    1    2  503  504  0.78413012257E+02  0.10596022061E+03 -0.47800568406E+03  0.49584836678E+03  0.00000000000E+00 0. -1.
         21    1    1    2  504  501  0.17665599700E+02  0.79054980295E+02 -0.19932282725E+03  0.21515425347E+03  0.00000000000E+00 0. -1.
<mgrwt>
<rscale>  4 0.24307761E+03</rscale>
<asrwt>0</asrwt>
<pdfrwt beam="1">  1       21 0.89787577E-02 0.24307761E+03</pdfrwt>
<pdfrwt beam="2">  1       21 0.16152253E+00 0.24307761E+03</pdfrwt>
<totfact> 0.23323739E+04</totfact>
</mgrwt>
</event>
<event>
 5    0  0.2643897E+000  0.2748827E+03  0.7546771E-02  0.1098517E+00
         21   -1    0    0  502  501  0.00000000000E+00  0.00000000000E+00  0.93300681446E+03  0.93300681446E+03  0.00000000000E+00 0.  1.
         21   -1    0    0  503  502 -0.00000000000E+00 -0.00000000000E+00 -0.78678443359E+02  0.78678443359E+02  0.00000000000E+00 0.  1.
         25    1    1    2    0    0  0.21104096301E+03  0.12408558241E+03  0.34124903979E+03  0.43819108502E+03  0.12500000000E+03 0.  0.
         21    1    1    2  503  504 -0.16106868926E+03 -0.12831542062E+03  0.40518306000E+03  0.45451213619E+03  0.00000000000E+00 0.  1.
         21    1    1    2  504  501 -0.49972273746E+02  0.42298382033E+01  0.10789627131E+03  0.11898203661E+03  0.00000000000E+00 0.  1.
<mgrwt>
<rscale>  4 0.27488274E+03</rscale>
<asrwt>0</asrwt>
<pdfrwt beam="1">  1       21 0.14353950E+00 0.27488274E+03</pdfrwt>
<pdfrwt beam="2">  1       21 0.12104377E-01 0.27488274E+03</pdfrwt>
<totfact> 0.18474502E+04</totfact>
</mgrwt>
</event>
<event>
 5    0  0.2159162E+000  0.6803586E+03  0.7546771E-02  0.9751738E-01
         21   -1    0    0  502  501  0.00000000000E+00  0.00000000000E+00  0.72722505452E+03  0.72722505452E+03  0.00000000000E+00 0. -1.
         21   -1    0    0  503  502 -0.00000000000E+00 -0.00000000000E+00 -0.76512378535E+03  0.76512378535E+03  0.00000000000E+00 0. -1.
         25    1    1    2    0    0 -0.89319936976E+02  0.66205820592E+03 -0.32565278576E+03  0.75364040234E+03  0.12500000000E+03 0.  0.
         21    1    1    2  503  504  0.34298431544E+02 -0.90925893926E+02  0.88152757136E+02  0.13120521782E+03  0.00000000000E+00 0.  1.
         21    1    1    2  504  501  0.55021505432E+02 -0.57113231200E+03  0.19960129779E+03  0.60750321970E+03  0.00000000000E+00 0. -1.
<mgrwt>
<rscale>  4 0.68018134E+03</rscale>
<asrwt>0</asrwt>
<pdfrwt beam="1">  1       21 0.11188078E+00 0.68035855E+03</pdfrwt>
<pdfrwt beam="2">  1       21 0.11771135E+00 0.68035855E+03</pdfrwt>
<totfact> 0.26208054E+02</totfact>
</mgrwt>
</event>
<event>
 5    0  0.2159162E+000  0.4983134E+03  0.7546771E-02  0.1014220E+00
         21   -1    0    0  502  501  0.00000000000E+00  0.00000000000E+00  0.42343137686E+03  0.42343137686E+03  0.00000000000E+00 0.  1.
         21   -1    0    0  503  502 -0.00000000000E+00 -0.00000000000E+00 -0.72148102079E+03  0.72148102079E+03  0.00000000000E+00 0.  1.
         25    1    1    2    0    0  0.25945767862E+03 -0.41465541529E+03  0.74099052269E+02  0.51026764543E+03  0.12500000000E+03 0.  0.
         21    1    1    2  503  504 -0.13704537974E+02  0.14888910890E+02 -0.78524108668E+02  0.81089639725E+02  0.00000000000E+00 0.  1.
         21    1    1    2  504  501 -0.24575314065E+03  0.39976650440E+03 -0.29362458753E+03  0.55355511250E+03  0.00000000000E+00 0.  1.
<mgrwt>
<rscale>  4 0.49831336E+03</rscale>
<asrwt>0</asrwt>
<pdfrwt beam="1">  1       21 0.65143289E-01 0.49831336E+03</pdfrwt>
<pdfrwt beam="2">  1       21 0.11099708E+00 0.49831336E+03</pdfrwt>
<totfact> 0.11595215E+03</totfact>
</mgrwt>
</event>
<event>
 5    0  0.2159162E+000  0.2455702E+03  0.7546771E-02  0.1116137E+00
         21   -1    0    0  502  501  0.00000000000E+00  0.00000000000E+00  0.26907576856E+04  0.26907576856E+04  0.00000000000E+00 0.  1.
         21   -1    0    0  503  502 -0.00000000000E+00 -0.00000000000E+00 -0.20101814550E+02  0.20101814550E+02  0.00000000000E+00 0. -1.
         25    1    1    2    0    0 -0.10261930383E+03  0.18479446921E+03  0.15815441491E+04  0.16004957397E+04  0.12500000000E+03 0.  0.
         21    1    1    2  503  504  0.20435237413E+02 -0.14389527479E+02  0.85588987909E+02  0.89163514290E+02  0.00000000000E+00 0. -1.
         21    1    1    2  504  501  0.82184066418E+02 -0.17040494173E+03  0.10035227340E+04  0.10212002461E+04  0.00000000000E+00 0. -1.
<mgrwt>
<rscale>  4 0.24557019E+03</rscale>
<asrwt>0</asrwt>
<pdfrwt beam="1">  1       21 0.41396244E+00 0.24557019E+03</pdfrwt>
<pdfrwt beam="2">  1       21 0.30925890E-02 0.24557019E+03</pdfrwt>
<totfact> 0.40119796E+03</totfact>
</mgrwt>
</event>
<event>
 5    0  0.2159162E+000  0.3740467E+03  0.7546771E-02  0.1053156E+00
         21   -1    0    0  502  501  0.00000000000E+00  0.00000000000E+00  0.36364000947E+03  0.36364000947E+03  0.00000000000E+00 0. -1.
         21   -1    0    0  503  502 -0.00000000000E+00 -0.00000000000E+00 -0.67083997147E+03  0.67083997147E+03  0.00000000000E+00 0.  1.
         25    1    1    2    0    0  0.30880925185E+03  0.20158500758E+03  0.15478455347E+03  0.41902616542E+03  0.12500000000E+03 0.  0.
         21    1    1    2  503  504 -0.68815358273E+01 -0.25824629099E+02  0.97421795309E+01  0.28446037782E+02  0.00000000000E+00 0.  1.
         21    1    1    2  504  501 -0.30192771602E+03 -0.17576037848E+03 -0.47172669501E+03  0.58700777774E+03  0.00000000000E+00 0.  1.
<mgrwt>
<rscale>  4 0.37404667E+03</rscale>
<asrwt>0</asrwt>
<pdfrwt beam="1">  1       21 0.55944617E-01 0.37404667E+03</pdfrwt>
<pdfrwt beam="2">  1       21 0.10320615E+00 0.37404667E+03</pdfrwt>
<totfact> 0.20384211E+03</totfact>
</mgrwt>
</event>
<event>
 5    0  0.2159162E+000  0.3130867E+03  0.7546771E-02  0.1078876E+00
         21   -1    0    0  502  501  0.00000000000E+00  0.00000000000E+00  0.42346140713E+03  0.42346140713E+03  0.00000000000E+00 0.  1.
         21   -1    0    0  503  502 -0.00000000000E+00 -0.00000000000E+00 -0.39098125565E+03  0.39098125565E+03  0.00000000000E+00 0.  1.
         25    1    1    2    0    0  0.15979001602E+03  0.23846469039E+03  0.28818773106E+03  0.42552958312E+03  0.12500000000E+03 0.  0.
         21    1    1    2  503  504 -0.13342258188E+03 -0.18301891495E+03 -0.22859565609E+03  0.32179726937E+03  0.00000000000E+00 0.  1.
         21    1    1    2  504  501 -0.26367434141E+02 -0.55445775431E+02 -0.27111923489E+02  0.67115810295E+02  0.00000000000E+00 0.  1.
<mgrwt>
<rscale>  4 0.31308666E+03</rscale>
<asrwt>0</asrwt>
<pdfrwt beam="1">  1       21 0.65147909E-01 0.31308666E+03</pdfrwt>
<pdfrwt beam="2">  1       21 0.60150962E-01 0.31308666E+03</pdfrwt>
<totfact> 0.51914004E+03</totfact>
</mgrwt>
</event>
<event>
 5    0  0.2159162E+000  0.2564318E+03  0.7546771E-02  0.1109306E+00
         21   -1    0    0  502  501  0.00000000000E+00  0.00000000000E+00  0.35499656160E+03  0.35499656160E+03  0.00000000000E+00 0.  1.
         21   -1    0    0  503  502 -0.00000000000E+00 -0.00000000000E+00 -0.53097666968E+03  0.53097666968E+03  0.00000000000E+00 0. -1.
         25    1    1    2    0    0  0.10257539809E+03  0.19902405788E+03  0.27780654726E+03  0.37806582179E+03  0.12500000000E+03 0.  0.
         21    1    1    2  503  504 -0.43935349922E+02 -0.66660426311E+02 -0.12064610083E+03  0.14467000053E+03  0.00000000000E+00 0.  1.
         21    1    1    2  504  501 -0.58640048163E+02 -0.13236363157E+03 -0.33314055451E+03  0.36323740896E+03  0.00000000000E+00 0. -1.
<mgrwt>
<rscale>  4 0.25643184E+03</rscale>
<asrwt>0</asrwt>
<pdfrwt beam="1">  1       21 0.54614856E-01 0.25643184E+03</pdfrwt>
<pdfrwt beam="2">  1       21 0.81688718E-01 0.25643184E+03</pdfrwt>
<totfact> 0.39664700E+03</totfact>
</mgrwt>
</event>
