<event>
 5    0  0.1911311E+001  0.2732873E+03  0.7546771E-02  0.1099413E+00
         21   -1    0    0  503  501  0.00000000000E+00  0.00000000000E+00  0.10262616300E+04  0.10262616300E+04  0.00000000000E+00 0.  1.
         21   -1    0    0  501  502 -0.00000000000E+00 -0.00000000000E+00 -0.67575931578E+02  0.67575931578E+02  0.00000000000E+00 0.  1.
         25    1    1    2    0    0  0.24018250152E+03  0.37058474093E+02  0.51554052939E+03  0.58349635987E+03  0.12500000000E+03 0.  0.
         21    1    1    2  503  504 -0.88013785403E+02 -0.11192974161E+02  0.97658495927E+02  0.13194275622E+03  0.00000000000E+00 0.  1.
         21    1    1    2  504  502 -0.15216871612E+03 -0.25865499933E+02  0.34548667307E+03  0.37839844545E+03  0.00000000000E+00 0.  1.
<mgrwt>
<rscale>  4 0.27328733E+03</rscale>
<asrwt>0</asrwt>
<pdfrwt beam="1">  1       21 0.15788639E+00 0.27328733E+03</pdfrwt>
<pdfrwt beam="2">  1       21 0.10396298E-01 0.27328733E+03</pdfrwt>
<totfact> 0.18830828E+04</totfact>
</mgrwt>
</event>
<event>
 5    0  0.1911311E+001  0.2154896E+03  0.7546771E-02  0.1137291E+00
         21   -1    0    0  502  501  0.00000000000E+00  0.00000000000E+00  0.40475680788E+03  0.40475680788E+03  0.00000000000E+00 0. -1.
         21   -1    0    0  504  502 -0.00000000000E+00 -0.00000000000E+00 -0.61388573943E+03  0.61388573943E+03  0.00000000000E+00 0. -1.
         25    1    1    2    0    0 -0.17621093859E+03  0.23237313811E+03  0.55155928883E+02  0.32204773976E+03  0.12500000000E+03 0.  0.
         21    1    1    2  503  501  0.57027853731E+02 -0.11614006058E+03  0.18026694316E+03  0.22189380471E+03  0.00000000000E+00 0. -1.
         21    1    1    2  504  503  0.11918308486E+03 -0.11623307754E+03 -0.44455180359E+03  0.47470100284E+03  0.00000000000E+00 0. -1.
<mgrwt>
<rscale>  4 0.21548959E+03</rscale>
<asrwt>0</asrwt>
<pdfrwt beam="1">  1       21 0.62270279E-01 0.21548959E+03</pdfrwt>
<pdfrwt beam="2">  1       21 0.94443959E-01 0.21548959E+03</pdfrwt>
<totfact> 0.22023333E+03</totfact>
</mgrwt>
</event>
<event>
 5    0  0.1911311E+001  0.2900672E+03  0.7546771E-02  0.1090314E+00
         21   -1    0    0  502  501  0.00000000000E+00  0.00000000000E+00  0.12391556799E+04  0.12391556799E+04  0.00000000000E+00 0. -1.
         21   -1    0    0  504  502 -0.00000000000E+00 -0.00000000000E+00 -0.21435057225E+03  0.21435057225E+03  0.00000000000E+00 0. -1.
         25    1    1    2    0    0 -0.63145216659E+01  0.32411120122E+03  0.36254374264E+03  0.50214630266E+03  0.12500000000E+03 0.  0.
         21    1    1    2  503  501  0.81696447833E-01 -0.77823521747E+02  0.69807882146E+03  0.70240340843E+03  0.00000000000E+00 0. -1.
         21    1    1    2  504  503  0.62328252180E+01 -0.24628767947E+03 -0.35817456407E+02  0.24895654110E+03  0.00000000000E+00 0. -1.
<mgrwt>
<rscale>  4 0.29006721E+03</rscale>
<asrwt>0</asrwt>
<pdfrwt beam="1">  1       21 0.19063933E+00 0.29006721E+03</pdfrwt>
<pdfrwt beam="2">  1       21 0.32977012E-01 0.29006721E+03</pdfrwt>
<totfact> 0.12547188E+03</totfact>
</mgrwt>
</event>
<event>
 5    0  0.1911311E+001  0.2374141E+03  0.7546771E-02  0.1121528E+00
         21   -1    0    0  502  501  0.00000000000E+00  0.00000000000E+00  0.15225303712E+04  0.15225303712E+04  0.00000000000E+00 0.  1.
         21   -1    0    0  504  502 -0.00000000000E+00 -0.00000000000E+00 -0.69545232194E+02  0.69545232194E+02  0.00000000000E+00 0. -1.
         25    1    1    2    0    0  0.11569973085E+03 -0.21432935373E+03  0.94861982908E+03  0.98733382384E+03  0.12500000000E+03 0.  0.
         21    1    1    2  503  501  0.12049094720E+02  0.68114778256E+02  0.34979138354E+03  0.35656530356E+03  0.00000000000E+00 0. -1.
         21    1    1    2  504  503 -0.12774882557E+03  0.14621457547E+03  0.15457392637E+03  0.24817647597E+03  0.00000000000E+00 0. -1.
<mgrwt>
<rscale>  4 0.23741406E+03</rscale>
<asrwt>0</asrwt>
<pdfrwt beam="1">  1       21 0.23423542E+00 0.23741406E+03</pdfrwt>
<pdfrwt beam="2">  1       21 0.10699268E-01 0.23741406E+03</pdfrwt>
<totfact> 0.57015662E+03</totfact>
</mgrwt>
</event>
<event>
 5    0  0.2422025E+001  0.2354127E+03  0.7546771E-02  0.1122887E+00
         21   -1    0    0  502  501  0.00000000000E+00  0.00000000000E+00  0.33158296835E+03  0.33158296835E+03  0.00000000000E+00 0. -1.
         21   -1    0    0  504  502 -0.00000000000E+00 -0.00000000000E+00 -0.42751946581E+03  0.42751946581E+03  0.00000000000E+00 0. -1.
         25    1    1    2    0    0 -0.11309822594E+03 -0.19378951356E+03  0.19470100612E+03  0.32230275528E+03  0.12500000000E+03 0.  0.
         21    1    1    2  503  501  0.23738762058E+02  0.18314791067E+02  0.41187250230E+02  0.50944577507E+02  0.00000000000E+00 0.  1.
         21    1    1    2  504  503  0.89359463884E+02  0.17547472249E+03 -0.33182475381E+03  0.38585510138E+03  0.00000000000E+00 0. -1.
<mgrwt>
<rscale>  4 0.23541268E+03</rscale>
<asrwt>0</asrwt>
<pdfrwt beam="1">  1       21 0.51012765E-01 0.23541268E+03</pdfrwt>
<pdfrwt beam="2">  1       21 0.65772225E-01 0.23541268E+03</pdfrwt>
<totfact> 0.75400221E+03</totfact>
</mgrwt>
</event>
<event>
 5    0  0.1911311E+001  0.2420259E+03  0.7546771E-02  0.1118451E+00
         21   -1    0    0  503  501  0.00000000000E+00  0.00000000000E+00  0.52882891770E+03  0.52882891770E+03  0.00000000000E+00 0.  1.
         21   -1    0    0  504  502 -0.00000000000E+00 -0.00000000000E+00 -0.32082604255E+03  0.32082604255E+03  0.00000000000E+00 0.  1.
         25    1    1    2    0    0  0.18487725414E+03  0.13219970659E+03  0.37561939261E+03  0.45647704173E+03  0.12500000000E+03 0.  0.
         21    1    1    2  503  502 -0.17427076953E+03 -0.10882364173E+03 -0.24026179651E+03  0.31613069603E+03  0.00000000000E+00 0.  1.
         21    1    1    2  504  501 -0.10606484616E+02 -0.23376064856E+02  0.72645279055E+02  0.77047222488E+02  0.00000000000E+00 0.  1.
<mgrwt>
<rscale>  4 0.24202586E+03</rscale>
<asrwt>0</asrwt>
<pdfrwt beam="1">  1       21 0.81358295E-01 0.24202586E+03</pdfrwt>
<pdfrwt beam="2">  1       21 0.49357853E-01 0.24202586E+03</pdfrwt>
<totfact> 0.50018887E+03</totfact>
</mgrwt>
</event>
<event>
 5    0  0.2357991E+001  0.2748311E+03  0.7546771E-02  0.1098546E+00
         21   -1    0    0  502  501  0.00000000000E+00  0.00000000000E+00  0.39528972933E+03  0.39528972933E+03  0.00000000000E+00 0. -1.
         21   -1    0    0  504  502 -0.00000000000E+00 -0.00000000000E+00 -0.21037795107E+03  0.21037795107E+03  0.00000000000E+00 0. -1.
         25    1    1    2    0    0 -0.19012226416E+03  0.17093314006E+03  0.20526401050E+02  0.28532603604E+03  0.12500000000E+03 0.  0.
         21    1    1    2  503  501  0.25176714907E+02  0.32862364268E+01 -0.59867082728E+01  0.26086529078E+02  0.00000000000E+00 0.  1.
         21    1    1    2  504  503  0.16494554926E+03 -0.17421937648E+03  0.17037208548E+03  0.29425511529E+03  0.00000000000E+00 0. -1.
<mgrwt>
<rscale>  4 0.27483114E+03</rscale>
<asrwt>0</asrwt>
<pdfrwt beam="1">  1       21 0.60813805E-01 0.27483114E+03</pdfrwt>
<pdfrwt beam="2">  1       21 0.32365839E-01 0.27483114E+03</pdfrwt>
<totfact> 0.22174058E+04</totfact>
</mgrwt>
</event>
