<event>
 5    0  0.1911311E+001  0.2439770E+03  0.7546771E-02  0.1117171E+00
         21   -1    0    0  502  501  0.00000000000E+00  0.00000000000E+00  0.77164229151E+02  0.77164229151E+02  0.00000000000E+00 0.  1.
         21   -1    0    0  504  502 -0.00000000000E+00 -0.00000000000E+00 -0.13158927171E+04  0.13158927171E+04  0.00000000000E+00 0.  1.
         25    1    1    2    0    0 -0.15528713689E+03  0.14432958594E+03 -0.17883150038E+03  0.30422167870E+03  0.12500000000E+03 0.  0.
         21    1    1    2  503  501  0.17409389675E+03 -0.10509090612E+03 -0.92519833166E+03  0.94728281751E+03  0.00000000000E+00 0.  1.
         21    1    1    2  504  503 -0.18806759859E+02 -0.39238679819E+02 -0.13469865587E+03  0.14155245001E+03  0.00000000000E+00 0. -1.
<mgrwt>
<rscale>  4 0.24397702E+03</rscale>
<asrwt>0</asrwt>
<pdfrwt beam="1">  1       21 0.11871421E-01 0.24397702E+03</pdfrwt>
<pdfrwt beam="2">  1       21 0.20244502E+00 0.24397702E+03</pdfrwt>
<totfact> 0.74355720E+03</totfact>
</mgrwt>
</event>
<event>
 5    0  0.2715983E+001  0.3065182E+03  0.7546771E-02  0.1082027E+00
         21   -1    0    0  503  501  0.00000000000E+00  0.00000000000E+00  0.38427991284E+03  0.38427991284E+03  0.00000000000E+00 0. -1.
         21   -1    0    0  504  502 -0.00000000000E+00 -0.00000000000E+00 -0.46918217754E+03  0.46918217754E+03  0.00000000000E+00 0.  1.
         25    1    1    2    0    0 -0.85357212898E+02 -0.31060383713E+03 -0.27706668540E+03  0.44288999265E+03  0.12500000000E+03 0.  0.
         21    1    1    2  503  502  0.35634320979E+02  0.42809525853E+02 -0.26124222258E+02  0.61521828028E+02  0.00000000000E+00 0.  1.
         21    1    1    2  504  501  0.49722891920E+02  0.26779431128E+03  0.21828864296E+03  0.34905026970E+03  0.00000000000E+00 0. -1.
<mgrwt>
<rscale>  4 0.30651818E+03</rscale>
<asrwt>0</asrwt>
<pdfrwt beam="1">  1       21 0.59119987E-01 0.30651818E+03</pdfrwt>
<pdfrwt beam="2">  1       21 0.72181873E-01 0.30651818E+03</pdfrwt>
<totfact> 0.43050013E+03</totfact>
</mgrwt>
</event>
<event>
 5    0  0.4314966E+001  0.2267816E+03  0.7546771E-02  0.1128926E+00
         21   -1    0    0  502  501  0.00000000000E+00  0.00000000000E+00  0.46904084523E+03  0.46904084523E+03  0.00000000000E+00 0.  1.
         21   -1    0    0  504  502 -0.00000000000E+00 -0.00000000000E+00 -0.37679078005E+03  0.37679078005E+03  0.00000000000E+00 0.  1.
         25    1    1    2    0    0  0.43140971778E+02 -0.21692985742E+03  0.35115191599E+03  0.43341939803E+03  0.12500000000E+03 0.  0.
         21    1    1    2  503  501  0.16019767075E+02  0.39379153402E+02  0.40899848700E+02  0.58992781621E+02  0.00000000000E+00 0. -1.
         21    1    1    2  504  503 -0.59160738853E+02  0.17755070402E+03 -0.29980169951E+03  0.35341944563E+03  0.00000000000E+00 0.  1.
<mgrwt>
<rscale>  4 0.22678161E+03</rscale>
<asrwt>0</asrwt>
<pdfrwt beam="1">  1       21 0.72160131E-01 0.22678161E+03</pdfrwt>
<pdfrwt beam="2">  1       21 0.57967812E-01 0.22678161E+03</pdfrwt>
<totfact> 0.47110021E+03</totfact>
</mgrwt>
</event>
