<LesHouchesEvents version="3.0">
  <!--
  <scalesfunctionalform>
    muR  H_T/2 := sum_i mT(i)/2, i=final state
    muF1 H_T/2 := sum_i mT(i)/2, i=final state
    muF2 H_T/2 := sum_i mT(i)/2, i=final state
    QES  H_T/2 := sum_i mT(i)/2, i=final state
  </scalesfunctionalform>
HERWIG6   
  -->
  <header>
       41
  </header>
  <init>
   2212   2212 0.65000000D+04 0.65000000D+04 -1 -1   244800   244800 -4   1
 0.59317656D-04 0.24295885D-05 0.16598358D-05     66
  </init>
  <event>
  7     66 0.16598358E-05 0.82872431E+02 0.75467711E-02 0.94053646E-01
        2 -1    0    0  503    0 0.00000000E+00 0.00000000E+00 0.27391948E+04 0.27391948E+04 0.32000000E+00 0.0000E+00 0.9000E+01
       -2 -1    0    0    0  501 0.00000000E+00 0.00000000E+00 -.63778340E+03 0.63778348E+03 0.32000000E+00 0.0000E+00 0.9000E+01
       23  2    1    2    0    0 0.47055413E+02 0.10301386E+03 -.45789469E+03 0.48002419E+03 0.89048333E+02 0.0000E+00 0.0000E+00
       25  1    1    2    0    0 -.21350037E+03 -.45580995E+03 0.28966386E+03 0.59403305E+03 0.12500000E+03 0.0000E+00 0.9000E+01
        1  1    3    3  502    0 0.73298382E+02 0.72405834E+02 -.34965684E+03 0.36452060E+03 0.32000000E+00 0.0000E+00 0.9000E+01
       -1  1    3    3    0  502 -.26242969E+02 0.30608025E+02 -.10823786E+03 0.11550360E+03 0.32000000E+00 0.0000E+00 0.9000E+01
       21  1    1    2  503  501 0.16644495E+03 0.35279609E+03 0.22696422E+04 0.23029210E+04 0.75000000E+00 0.0000E+00 0.9000E+01
#aMCatNLO 2  0  0  0  0 0.00000000D+00 0.00000000D+00  -5  6  0 0.00000000D+00 0.00000000D+00 0.00000000D+00 0.00000000D+00 0.00000000D+00
  <mgrwgt>
 0.4580835404D-03    1    2    0
 0.493236340239769D+03 0.000000000000000D+00 0.000000000000000D+00 0.493236340239769D+03
 0.493236340239769D+03 0.000000000000000D+00 0.000000000000000D+00 -.493236340239769D+03
 0.497136800231293D+03 -.120449076079554D+03 -.258578788269501D+03 0.387490681788436D+03
 0.375520689094890D+03 0.129327949829827D+03 0.191163707667735D+03 -.296220367635042D+03
 0.113815191153357D+03 -.887887375027356D+01 0.674150806017660D+02 -.912703141533939D+02
 0.000000000000000D+00 0.000000000000000D+00 0.000000000000000D+00 0.000000000000000D+00
 0.320783149329853D+04 0.000000000000000D+00 0.000000000000000D+00 0.320783149329853D+04
 0.544608655821317D+03 0.000000000000000D+00 0.000000000000000D+00 -.544608655821317D+03
 0.647394117744031D+03 -.213500365530685D+03 -.455809948481787D+03 0.387490681788436D+03
 0.313627215651836D+03 0.732996677169531D+02 0.724063733953601D+02 -.296220367635042D+03
 0.997790023358336D+02 -.262442544589073D+02 0.306074855120641D+02 -.912703141533939D+02
 0.269163981338814D+04 0.166444952272639D+03 0.352796089574363D+03 0.266322283747721D+04
0.133603529282D-02 0.000000000000D+00 0.000000000000D+00 0.324407204716D-05 0.938849222073D-09  6 2 -2 25 1 -1 21 2 0.42141455D+00 0.98120522D-01 0.27670855D+06 0.27670855D+06 0.27670855D+06 0.10871582D+01  1  2  1  1  6  1        2 0.458083540435D-03 0.100000000000D+01
  </mgrwgt>
  </event>
  <event>
  7     66 0.16598358E-05 0.41066121E+02 0.75467711E-02 0.91111547E-01
        2 -1    0    0  503    0 0.00000000E+00 0.00000000E+00 0.33543778E+04 0.33543779E+04 0.32000000E+00 0.0000E+00 0.9000E+01
       -2 -1    0    0    0  501 0.00000000E+00 0.00000000E+00 -.30661068E+03 0.30661084E+03 0.32000000E+00 0.0000E+00 0.9000E+01
       23  2    1    2    0    0 0.37404938E+02 -.63643875E+03 0.80923121E+03 0.10341483E+04 0.90300400E+02 0.0000E+00 0.0000E+00
       25  1    1    2    0    0 -.40419874E+02 0.68031977E+03 0.42515755E+03 0.81292847E+03 0.12500000E+03 0.0000E+00 0.9000E+01
        1  1    3    3  502    0 -.14074092E+02 -.43283312E+03 0.56914728E+03 0.71517223E+03 0.32000000E+00 0.0000E+00 0.9000E+01
       -1  1    3    3    0  502 0.51479030E+02 -.20360563E+03 0.24008393E+03 0.31897608E+03 0.32000000E+00 0.0000E+00 0.9000E+01
       21  1    1    2  503  501 0.30149358E+01 -.43881024E+02 0.18133784E+04 0.18139119E+04 0.75000000E+00 0.0000E+00 0.9000E+01
#aMCatNLO 2  0  0  0  0 0.00000000D+00 0.00000000D+00  -5  6  0 0.00000000D+00 0.00000000D+00 0.00000000D+00 0.00000000D+00 0.00000000D+00
  <mgrwgt>
 0.2940200348D-03    1    2    0
 0.686666295009593D+03 0.000000000000000D+00 0.000000000000000D+00 0.686666295009593D+03
 0.686666295009593D+03 0.000000000000000D+00 0.000000000000000D+00 -.686666295009593D+03
 0.689386261704328D+03 -.388832707541921D+02 0.657955208549182D+03 -.158781146944865D+03
 0.464114784270029D+03 -.130716817898194D+02 -.447437607730183D+03 0.122602003661817D+03
 0.219831544044828D+03 0.519549525440115D+02 -.210517600818999D+03 0.361791432830478D+02
 0.000000000000000D+00 0.000000000000000D+00 -.000000000000000D+00 0.000000000000000D+00
 0.149572902160011D+04 0.000000000000000D+00 0.000000000000000D+00 0.149572902160011D+04
 0.687616444779174D+03 0.000000000000000D+00 0.000000000000000D+00 -.687616444779174D+03
 0.710848236223724D+03 -.404198741828680D+02 0.680319774876708D+03 -.158781146944865D+03
 0.450084831492727D+03 -.140749153668766D+02 -.432835997804433D+03 0.122602003661817D+03
 0.213103699241368D+03 0.514798537086289D+02 -.203602752642979D+03 0.361791432830478D+02
 0.809308699421463D+03 0.301493584111566D+01 -.438810244292955D+02 0.808112576820934D+03
0.471606575217D-03 0.000000000000D+00 0.000000000000D+00 0.276871696411D-04 0.114171793784D-06  6 2 -2 25 1 -1 21 2 0.51605801D+00 0.47170875D-01 0.47606369D+06 0.47606369D+06 0.47606369D+06 0.10700194D+01  1  2  1  1  6  1        2 0.294020034842D-03 0.100000000000D+01
  </mgrwgt>
  </event>
  <event>
  6     66 0.16598358E-05 0.43746024E+02 0.75467711E-02 0.94968378E-01
        2 -1    0    0  501    0 0.00000000E+00 0.00000000E+00 0.27996970E+04 0.27996971E+04 0.32000000E+00 0.0000E+00 0.9000E+01
       -2 -1    0    0    0  501 0.00000000E+00 0.00000000E+00 -.89655951E+02 0.89656522E+02 0.32000000E+00 0.0000E+00 0.9000E+01
       25  1    1    2    0    0 -.28860633E+03 -.37594776E+03 0.14089775E+04 0.14918019E+04 0.12500000E+03 0.0000E+00 0.9000E+01
        1  1    1    2  503    0 0.81453933E+02 0.10711769E+03 0.29663383E+03 0.32573099E+03 0.32000000E+00 0.0000E+00 0.9000E+01
       -1  1    1    2    0  502 0.19833607E+03 0.22068484E+03 0.65617216E+03 0.72013958E+03 0.32000000E+00 0.0000E+00 0.9000E+01
       21  1    1    2  502  503 0.88163333E+01 0.48145218E+02 0.34825763E+03 0.35168115E+03 0.75000000E+00 0.0000E+00 0.9000E+01
#aMCatNLO 2  0  0  0  0 0.00000000D+00 0.00000000D+00  -5  6  0 0.00000000D+00 0.00000000D+00 0.00000000D+00 0.00000000D+00 0.00000000D+00
  <mgrwgt>
 0.1372302091D-03    1    2    0
 0.501009332254294D+03 0.000000000000000D+00 0.000000000000000D+00 0.501009332254294D+03
 0.501009332254294D+03 -.000000000000000D+00 -.000000000000000D+00 -.501009332254294D+03
 0.503966142905346D+03 -.295482305408014D+03 -.387774277693923D+03 0.260420802666233D+02
 0.203783910620110D+03 0.101244108669153D+03 0.174151883758169D+03 0.307999037481438D+02
 0.294268610983133D+03 0.194238196738861D+03 0.213622393935754D+03 -.568419840147671D+02
 0.000000000000000D+00 0.000000000000000D+00 0.000000000000000D+00 0.000000000000000D+00
 0.501009332254294D+03 0.000000000000000D+00 0.000000000000000D+00 0.501009332254294D+03
 0.501009332254294D+03 -.000000000000000D+00 -.000000000000000D+00 -.501009332254294D+03
 0.490940054543480D+03 -.288593394566919D+03 -.375924533389894D+03 0.281377853266445D+02
 0.136674235944245D+03 0.813045122607353D+02 0.106798379694652D+03 -.257590596020890D+02
 0.301923490146586D+03 0.198366338908826D+03 0.220723288444789D+03 -.555861442116921D+02
 0.724808838742775D+02 0.892254339735708D+01 0.484028652504528D+02 0.532074184871367D+02
0.103027210189D-04 0.000000000000D+00 0.000000000000D+00 0.140128967324D-05 0.113014791093D-09  6 2 -2 25 1 -1 21 2 0.43072267D+00 0.13793269D-01 0.23538934D+06 0.23538934D+06 0.23538934D+06 0.10924321D+01  1  2  1  3  6  4        1 0.137230209149D-03 0.100000000000D+01
  </mgrwgt>
  </event>
  <event>
  7     66 0.16598358E-05 0.59538282E+02 0.75467711E-02 0.90276931E-01
        2 -1    0    0  501    0 0.00000000E+00 0.00000000E+00 0.12433398E+04 0.12433399E+04 0.32000000E+00 0.0000E+00 0.9000E+01
       -2 -1    0    0    0  503 0.00000000E+00 0.00000000E+00 -.47145805E+03 0.47145816E+03 0.32000000E+00 0.0000E+00 0.9000E+01
       23  2    1    2    0    0 0.71113236E+03 0.18432073E+03 0.52763781E+03 0.90801069E+03 0.79989893E+02 0.0000E+00 0.0000E+00
       25  1    1    2    0    0 -.68699845E+03 -.20613523E+03 0.25662443E+03 0.77197131E+03 0.12500000E+03 0.0000E+00 0.9000E+01
        1  1    3    3  502    0 0.37365515E+03 0.98103220E+02 0.32636083E+03 0.50572118E+03 0.32000000E+00 0.0000E+00 0.9000E+01
       -1  1    3    3    0  502 0.33747720E+03 0.86217514E+02 0.20127698E+03 0.40228951E+03 0.32000000E+00 0.0000E+00 0.9000E+01
       21  1    1    2  501  503 -.24133911E+02 0.21814493E+02 -.12380469E+02 0.34816034E+02 0.75000000E+00 0.0000E+00 0.9000E+01
#aMCatNLO 2  0  0  2  1 0.26026186D+01 0.00000000D+00  -5  6  0 0.00000000D+00 0.00000000D+00 0.00000000D+00 0.00000000D+00 0.00000000D+00
  <mgrwgt>
 0.1829301172D-02    1    2    0
 0.742666463196342D+03 0.000000000000000D+00 0.000000000000000D+00 0.742666463196342D+03
 0.742666463196342D+03 0.000000000000000D+00 0.000000000000000D+00 -.742666463196342D+03
 0.745772371959861D+03 -.699046895037484D+03 -.195244708285768D+03 -.117321665533247D+03
 0.395045109527285D+03 0.367200916592285D+03 0.103937879879478D+03 0.102083507685468D+03
 0.344515444905538D+03 0.331845978445199D+03 0.913068284062908D+02 0.152381578477783D+02
 0.000000000000000D+00 -.000000000000000D+00 0.000000000000000D+00 -.000000000000000D+00
 0.749604709915888D+03 0.000000000000000D+00 0.000000000000000D+00 0.749604709915888D+03
 0.781982728627708D+03 0.000000000000000D+00 0.000000000000000D+00 -.781982728627708D+03
 0.737460486644005D+03 -.686998445560937D+03 -.206135227349849D+03 -.117321665533247D+03
 0.399579690429383D+03 0.373655733649198D+03 0.981034106101914D+02 0.102083507685468D+03
 0.348648962673871D+03 0.337476622544820D+03 0.862173239825609D+02 0.152381578477783D+02
 0.458982987963377D+02 -.241339106330810D+02 0.218144927570970D+02 -.323780187118192D+02
0.417210052133D-03 0.000000000000D+00 0.000000000000D+00 0.720641293625D-06 0.410956905282D-08  6 2 -2 25 1 -1 21 2 0.19128229D+00 0.72531724D-01 0.55893242D+06 0.55893242D+06 0.55893242D+06 0.10651072D+01  1  2  1  2  6  2       -2 0.182930117216D-02 0.100000000000D+01
  </mgrwgt>
  </event>
  <event>
  7     66 0.16598358E-05 0.39218314E+02 0.75467711E-02 0.93874261E-01
        2 -1    0    0  503    0 0.00000000E+00 0.00000000E+00 0.18819509E+04 0.18819510E+04 0.32000000E+00 0.0000E+00 0.9000E+01
       -2 -1    0    0    0  501 0.00000000E+00 0.00000000E+00 -.17440568E+03 0.17440598E+03 0.32000000E+00 0.0000E+00 0.9000E+01
       23  2    1    2    0    0 -.50259787E+03 -.14473954E+03 0.48389003E+03 0.71829591E+03 0.90803648E+02 0.0000E+00 0.0000E+00
       25  1    1    2    0    0 0.48693213E+03 0.14760624E+03 0.12014573E+04 0.13107307E+04 0.12500000E+03 0.0000E+00 0.9000E+01
        1  1    3    3  502    0 -.40898946E+03 -.83720294E+02 0.40389607E+03 0.58087313E+03 0.32000000E+00 0.0000E+00 0.9000E+01
       -1  1    3    3    0  502 -.93608410E+02 -.61019242E+02 0.79993963E+02 0.13742277E+03 0.32000000E+00 0.0000E+00 0.9000E+01
       21  1    1    2  503  501 0.15665734E+02 -.28667049E+01 0.22197965E+02 0.27330301E+02 0.75000000E+00 0.0000E+00 0.9000E+01
#aMCatNLO 2  0  0  1  2 0.24759046D+01 0.00000000D+00  -5  6  0 0.00000000D+00 0.00000000D+00 0.00000000D+00 0.00000000D+00 0.00000000D+00
  <mgrwgt>
 0.3728814476D-02    1    2    0
 0.564867238051994D+03 0.000000000000000D+00 0.000000000000000D+00 0.564867238051994D+03
 0.564867238051994D+03 0.000000000000000D+00 0.000000000000000D+00 -.564867238051994D+03
 0.568133358419317D+03 0.494765295721854D+03 0.146172834174881D+03 0.202463126636337D+03
 0.435269658180958D+03 -.402920359032077D+03 -.848318896656107D+02 -.141132597603074D+03
 0.126331459503714D+03 -.918449366897767D+02 -.613409445092707D+02 -.613305290332633D+02
 0.000000000000000D+00 0.000000000000000D+00 -.000000000000000D+00 -.000000000000000D+00
 0.572447367991820D+03 0.000000000000000D+00 0.000000000000000D+00 0.572447367991820D+03
 0.573350827753253D+03 0.000000000000000D+00 0.000000000000000D+00 -.573350827753253D+03
 0.561699939411788D+03 0.486932132811593D+03 0.147606240800981D+03 0.202463126636337D+03
 0.440684836091163D+03 -.408993373758038D+03 -.837205761836466D+02 -.141132597603074D+03
 0.127461948486452D+03 -.936044928244326D+02 -.610189597055196D+02 -.613305290332633D+02
 0.159514717556704D+02 0.156657337708770D+02 -.286670491181526D+01 -.903459761432877D+00
0.260123077285D-03 0.000000000000D+00 0.000000000000D+00 0.285037019807D-04 0.706795114196D-06  6 2 -2 25 1 -1 21 2 0.28952648D+00 0.26831256D-01 0.28573256D+06 0.28573256D+06 0.28573256D+06 0.10861210D+01  1  2  1  1  6  1        2 0.372881447647D-02 0.100000000000D+01
  </mgrwgt>
  </event>
  <event>
  7     66 0.16598358E-05 0.49606219E+02 0.75467711E-02 0.93591816E-01
        2 -1    0    0  503    0 0.00000000E+00 0.00000000E+00 0.41026340E+04 0.41026341E+04 0.32000000E+00 0.0000E+00 0.9000E+01
       -2 -1    0    0    0  501 0.00000000E+00 0.00000000E+00 -.24811745E+03 0.24811766E+03 0.32000000E+00 0.0000E+00 0.9000E+01
       23  2    1    2    0    0 -.80301854E+02 -.50752503E+03 0.67309538E+03 0.85176837E+03 0.91771000E+02 0.0000E+00 0.0000E+00
       25  1    1    2    0    0 0.73600897E+02 0.53193623E+03 0.32008765E+03 0.63753772E+03 0.12500000E+03 0.0000E+00 0.9000E+01
        1  1    3    3  502    0 0.11352019E+02 -.16281859E+03 0.17709369E+03 0.24083405E+03 0.32000000E+00 0.0000E+00 0.9000E+01
       -1  1    3    3    0  502 -.91653873E+02 -.34470644E+03 0.49600169E+03 0.61093432E+03 0.32000000E+00 0.0000E+00 0.9000E+01
       21  1    1    2  503  501 0.67009573E+01 -.24411199E+02 0.28613336E+04 0.28614456E+04 0.75000000E+00 0.0000E+00 0.9000E+01
#aMCatNLO 2  0  0  1  2 0.24759046D+01 0.00000000D+00  -5  6  0 0.00000000D+00 0.00000000D+00 0.00000000D+00 0.00000000D+00 0.00000000D+00
  <mgrwgt>
 0.9625437328D-04    1    2    0
 0.554747528186648D+03 0.000000000000000D+00 0.000000000000000D+00 0.554747528186648D+03
 0.554747528186648D+03 0.000000000000000D+00 0.000000000000000D+00 -.554747528186648D+03
 0.557993637137159D+03 0.770040915877010D+02 0.519538586886987D+03 -.141003282585125D+03
 0.168398170493608D+03 0.123590510465603D+02 -.166480377293477D+03 0.221242323944625D+02
 0.383103248742530D+03 -.893631426342614D+02 -.353058209593510D+03 0.118879050190663D+03
 0.000000000000000D+00 0.000000000000000D+00 -.000000000000000D+00 0.000000000000000D+00
 0.183406081834928D+04 0.000000000000000D+00 0.000000000000000D+00 0.183406081834928D+04
 0.555017140953330D+03 0.000000000000000D+00 0.000000000000000D+00 -.555017140953330D+03
 0.569104707357005D+03 0.736008969756379D+02 0.531936227569154D+03 -.141003282585125D+03
 0.164704437352198D+03 0.113532710222859D+02 -.162816378972001D+03 0.221242323944625D+02
 0.375974658370136D+03 -.916551252782261D+02 -.344708649692083D+03 0.118879050190663D+03
 0.127929415622327D+04 0.670095728030231D+01 -.244111989050697D+02 0.127904367739595D+04
0.358543351390D-03 0.000000000000D+00 0.000000000000D+00 0.274034428803D-04 0.480282906867D-06  6 2 -2 25 1 -1 21 2 0.63117436D+00 0.38171925D-01 0.30061756D+06 0.30061756D+06 0.30061756D+06 0.10844858D+01  1  2  1  1  6  1        2 0.962543732804D-04 0.100000000000D+01
  </mgrwgt>
  </event>
  <event>
  6     66 -.16598358E-05 0.10300757E+02 0.75467711E-02 0.89768260E-01
        2 -1    0    0  501    0 0.00000000E+00 0.00000000E+00 0.24914675E+04 0.24914676E+04 0.32000000E+00 0.0000E+00 0.9000E+01
       -2 -1    0    0    0  501 0.00000000E+00 0.00000000E+00 -.24939993E+03 0.24940014E+03 0.32000000E+00 0.0000E+00 0.9000E+01
       23  2    1    2    0    0 0.31544031E+03 -.71410821E+03 0.11171200E+04 0.13658821E+04 0.90685439E+02 0.0000E+00 0.0000E+00
       25  1    1    2    0    0 -.31544031E+03 0.71410821E+03 0.11249476E+04 0.13749856E+04 0.12500000E+03 0.0000E+00 0.9000E+01
        1  1    3    3  502    0 0.52570345E+01 -.93398759E+01 0.42733685E+02 0.44058370E+02 0.32000000E+00 0.0000E+00 0.9000E+01
       -1  1    3    3    0  502 0.31018327E+03 -.70476834E+03 0.10743863E+04 0.13218238E+04 0.32000000E+00 0.0000E+00 0.9000E+01
#aMCatNLO 1  0  0  4  2 0.24102582D-02 0.00000000D+00  -5  6  0 0.00000000D+00 0.00000000D+00 0.00000000D+00 0.00000000D+00 0.00000000D+00
  <mgrwgt>
 -.1763700259D-01    7    2    0
 0.788271623780815D+03 0.000000000000000D+00 0.000000000000000D+00 0.788271623780815D+03
 0.788271623780815D+03 -.000000000000000D+00 -.000000000000000D+00 -.788271623780815D+03
 0.790618895638771D+03 -.315440305128939D+03 0.714108214761943D+03 0.331135535785748D+00
 0.158140565556561D+02 0.525323750035920D+01 -.933121639613939D+01 0.116368501356135D+02
 0.770110295367202D+03 0.310187067628580D+03 -.704776998365803D+03 -.119679856713992D+02
 0.000000000000000D+00 0.000000000000000D+00 0.000000000000000D+00 0.000000000000000D+00
 0.788271623780815D+03 0.000000000000000D+00 0.000000000000000D+00 0.788271623780815D+03
 0.788271623780815D+03 -.000000000000000D+00 -.000000000000000D+00 -.788271623780815D+03
 0.790618577719171D+03 -.315440146362335D+03 0.714107932748130D+03 0.331487231892069D+00
 0.158105413200545D+02 0.525302075027310D+01 -.933064049980179D+01 0.116326324490121D+02
 0.770110603727227D+03 0.310187222276851D+03 -.704777273064307D+03 -.119676430981285D+02
 0.352479517771710D-02 -.966647885868485D-04 -.191840212001592D-04 0.352341722434851D-02
0.181325417743D-05 0.000000000000D+00 0.000000000000D+00 0.491667249603D-05 0.000000000000D+00  6 2 -2 25 1 -1 21 0 0.38330272D+00 0.38369238D-01 0.61728084D+06 0.61728084D+06 0.61728084D+06 0.10621022D+01  1  2  2  3  6  4        1 0.505293547203D-05 0.100000000000D+01
0.102848934555D-05 0.000000000000D+00 -.696337348210D-08 0.491667249603D-05 0.000000000000D+00  6 2 -2 25 1 -1 21 2 0.38330272D+00 0.38369238D-01 0.61728084D+06 0.61728084D+06 0.61728084D+06 0.10621022D+01  1  2  3  3  6  4        1 0.323308793962D-05 0.100000000000D+01
-.536089491046D-06 0.000000000000D+00 0.000000000000D+00 0.491667249603D-05 0.000000000000D+00  6 2 -2 25 1 -1 21 2 0.38330272D+00 0.38369238D-01 0.61728084D+06 0.61728084D+06 0.61728084D+06 0.10621022D+01  1  2 15  3  6  4        1 -.168521382896D-05 0.100000000000D+01
-.348255372444D+00 0.000000000000D+00 0.000000000000D+00 0.491667249603D-05 0.000000000000D+00  6 2 -2 25 1 -1 21 2 0.38330272D+00 0.38369238D-01 0.61728084D+06 0.61728084D+06 0.61728084D+06 0.10621022D+01  1  2  4  3  6  4        1 -.109475149103D+01 0.100000000000D+01
-.264545219286D-01 0.000000000000D+00 0.000000000000D+00 0.491667249603D-05 0.000000000000D+00  6 2 -2 25 1 -1 21 2 0.38330272D+00 0.38369238D-01 0.61728084D+06 0.61728084D+06 0.61728084D+06 0.10621022D+01  1  2  5  3  6  4        1 -.831606045950D-01 0.100000000000D+01
0.264793850390D-01 0.000000000000D+00 -.000000000000D+00 0.491667249603D-05 0.000000000000D+00  6 2 -2 25 1 -1 21 2 0.38330272D+00 0.38369238D-01 0.61728084D+06 0.61728084D+06 0.61728084D+06 0.10621022D+01  1  2  6  3  6  4        1 0.832387625484D-01 0.100000000000D+01
0.342617812763D+00 0.000000000000D+00 0.000000000000D+00 0.491667249603D-05 0.300350853413D+04  6 2 -2 25 1 -1 21 2 0.38330272D+00 0.38369238D-01 0.61728043D+06 0.61728043D+06 0.61728043D+06 0.10621023D+01  1  2 11  3  6  4        1 0.107702972968D+01 0.100000000000D+01
  </mgrwgt>
  </event>
  <event>
  6     66 0.16598358E-05 0.40381120E+02 0.75467711E-02 0.93930865E-01
        2 -1    0    0  501    0 0.00000000E+00 0.00000000E+00 0.70556487E+03 0.70556494E+03 0.32000000E+00 0.0000E+00 0.9000E+01
       -2 -1    0    0    0  501 0.00000000E+00 0.00000000E+00 -.51101353E+03 0.51101363E+03 0.32000000E+00 0.0000E+00 0.9000E+01
       25  1    1    2    0    0 0.25983158E+03 0.43395950E+03 0.35695969E+03 0.63156830E+03 0.12500000E+03 0.0000E+00 0.9000E+01
        1  1    1    2  503    0 -.64054205E+02 -.65442966E+02 0.38202836E+01 0.91653805E+02 0.32000000E+00 0.0000E+00 0.9000E+01
       -1  1    1    2    0  502 -.19113640E+03 -.38723242E+03 -.18181604E+03 0.46855016E+03 0.32000000E+00 0.0000E+00 0.9000E+01
       21  1    1    2  502  503 -.46409749E+01 0.18715887E+02 0.15587406E+02 0.24806305E+02 0.75000000E+00 0.0000E+00 0.9000E+01
#aMCatNLO 2  0  0  4  1 0.21817287D+02 0.00000000D+00  -5  6  0 0.00000000D+00 0.00000000D+00 0.00000000D+00 0.00000000D+00 0.00000000D+00
  <mgrwgt>
 0.1396739874D+00    3    2    0
 0.600460903671038D+03 0.000000000000000D+00 0.000000000000000D+00 0.600460903671038D+03
 0.600460903671038D+03 -.000000000000000D+00 -.000000000000000D+00 -.600460903671038D+03
 0.594411859423326D+03 0.272859211420522D+03 0.442821215646835D+03 0.259147989263135D+03
 0.112199810096258D+03 -.927718013625706D+02 -.630953327498384D+02 0.108131529499147D+01
 0.494310137822492D+03 -.180087410057951D+03 -.379725882896997D+03 -.260229304558126D+03
 0.000000000000000D+00 0.000000000000000D+00 0.000000000000000D+00 0.000000000000000D+00
 0.600460903671038D+03 0.000000000000000D+00 0.000000000000000D+00 0.600460903671038D+03
 0.600460903671038D+03 -.000000000000000D+00 -.000000000000000D+00 -.600460903671038D+03
 0.581881150233964D+03 0.259731659517267D+03 0.433892993456888D+03 0.259300999363729D+03
 0.920454442139642D+02 -.637671452642403D+02 -.654465480769986D+02 -.110844183519208D+02
 0.504208271954142D+03 -.191230979001303D+03 -.387304771957841D+03 -.260099419061001D+03
 0.227869409400053D+02 -.473353525172312D+01 0.188583265779510D+02 0.118828380491923D+02
-.310150367187D-03 0.000000000000D+00 0.000000000000D+00 0.964832772453D-08 0.000000000000D+00  6 2 -2 25 1 -1 21 2 0.10854845D+00 0.78617479D-01 0.28284992D+06 0.28284992D+06 0.28284992D+06 0.10864484D+01  1  2 13  3  6  4        1 -.269370431755D-02 0.100000000000D+01
-.799534933001D-03 0.000000000000D+00 0.000000000000D+00 0.964832772453D-08 0.000000000000D+00  6 2 -2 25 1 -1 21 2 0.10854845D+00 0.78617479D-01 0.28483931D+06 0.28483931D+06 0.28483931D+06 0.10862220D+01  1  2  8  3  6  4        1 -.693963874364D-02 0.100000000000D+01
0.171910937154D-01 0.000000000000D+00 0.000000000000D+00 0.964832772453D-08 0.167158852997D-08  6 2 -2 25 1 -1 21 2 0.10854845D+00 0.78617479D-01 0.28284992D+06 0.28284992D+06 0.28284992D+06 0.10864484D+01  1  2  1  3  6  4        1 0.149307330455D+00 0.100000000000D+01
  </mgrwgt>
  </event>
  <event>
  7     66 0.16598358E-05 0.55551485E+02 0.75467711E-02 0.93404063E-01
        2 -1    0    0  501    0 0.00000000E+00 0.00000000E+00 0.25343313E+04 0.25343314E+04 0.32000000E+00 0.0000E+00 0.9000E+01
       -2 -1    0    0    0  503 0.00000000E+00 0.00000000E+00 -.19402124E+03 0.19402150E+03 0.32000000E+00 0.0000E+00 0.9000E+01
       23  2    1    2    0    0 0.22527408E+02 0.52909117E+03 0.88050557E+03 0.10303022E+04 0.76075719E+02 0.0000E+00 0.0000E+00
       25  1    1    2    0    0 0.44669756E+02 -.47993717E+03 0.15172648E+04 0.15968884E+04 0.12500000E+03 0.0000E+00 0.9000E+01
        1  1    3    3  502    0 -.18221405E+02 0.34912435E+03 0.54770165E+03 0.64976691E+03 0.32000000E+00 0.0000E+00 0.9000E+01
       -1  1    3    3    0  502 0.40748813E+02 0.17996681E+03 0.33280392E+03 0.38053525E+03 0.32000000E+00 0.0000E+00 0.9000E+01
       21  1    1    2  501  503 -.67197165E+02 -.49153999E+02 -.57460251E+02 0.10116233E+03 0.75000000E+00 0.0000E+00 0.9000E+01
#aMCatNLO 2  0  0  2  1 0.85227520D+01 0.00000000D+00  -5  6  0 0.00000000D+00 0.00000000D+00 0.00000000D+00 0.00000000D+00 0.00000000D+00
  <mgrwgt>
 0.6746816577D-03    1    2    0
 0.535232618527259D+03 0.000000000000000D+00 0.000000000000000D+00 0.535232618527259D+03
 0.535232618527259D+03 0.000000000000000D+00 0.000000000000000D+00 -.535232618527259D+03
 0.539827576325516D+03 0.114857257510308D+02 -.504210925586092D+03 0.146383854249947D+03
 0.352991911220627D+03 -.407795347467928D+02 0.332627079085343D+03 -.110903314613132D+03
 0.177645749508375D+03 0.292938089957620D+02 0.171583846500749D+03 -.354805396368145D+02
 0.000000000000000D+00 -.000000000000000D+00 -.000000000000000D+00 -.000000000000000D+00
 0.541517605121425D+03 0.000000000000000D+00 0.000000000000000D+00 0.541517605121425D+03
 0.908029229982557D+03 0.000000000000000D+00 0.000000000000000D+00 -.908029229982557D+03
 0.519026303089272D+03 0.446697563811890D+02 -.479937166073115D+03 0.146383854249947D+03
 0.366771734479005D+03 -.182224479478366D+02 0.349127344118656D+03 -.110903314613132D+03
 0.187899963890406D+03 0.407498563182239D+02 0.179963821217323D+03 -.354805396368145D+02
 0.375848833645298D+03 -.671971647515763D+02 -.491539992628638D+02 -.366511624861132D+03
0.132913222722D-03 0.000000000000D+00 0.000000000000D+00 0.289816681364D-06 0.296055970465D-09  6 2 -2 25 1 -1 21 2 0.38989688D+00 0.29849422D-01 0.31099263D+06 0.31099263D+06 0.31099263D+06 0.10833975D+01  1  2  1  2  6  2       -2 0.674681657686D-03 0.100000000000D+01
  </mgrwgt>
  </event>
  <event>
  7     66 0.16598358E-05 0.41267860E+02 0.75467711E-02 0.94367977E-01
        2 -1    0    0  501    0 0.00000000E+00 0.00000000E+00 0.14003212E+04 0.14003212E+04 0.32000000E+00 0.0000E+00 0.9000E+01
       -2 -1    0    0    0  503 0.00000000E+00 0.00000000E+00 -.44994974E+03 0.44994986E+03 0.32000000E+00 0.0000E+00 0.9000E+01
       23  2    1    2    0    0 -.40152283E+03 -.27430508E+03 0.10388043E+04 0.11505373E+04 0.90320274E+02 0.0000E+00 0.0000E+00
       25  1    1    2    0    0 0.41477154E+03 0.24741778E+03 0.10011129E+03 0.50882045E+03 0.12500000E+03 0.0000E+00 0.9000E+01
        1  1    3    3  502    0 -.86101783E+02 -.10638839E+03 0.30862450E+03 0.33761100E+03 0.32000000E+00 0.0000E+00 0.9000E+01
       -1  1    3    3    0  502 -.31542105E+03 -.16791669E+03 0.73017982E+03 0.81292628E+03 0.32000000E+00 0.0000E+00 0.9000E+01
       21  1    1    2  501  503 -.13248704E+02 0.26887306E+02 -.18854415E+03 0.19091337E+03 0.75000000E+00 0.0000E+00 0.9000E+01
#aMCatNLO 2  0  0  2  1 0.76294544D+01 0.00000000D+00  -5  6  0 0.00000000D+00 0.00000000D+00 0.00000000D+00 0.00000000D+00 0.00000000D+00
  <mgrwgt>
 0.1059312043D-02    1    2    0
 0.603208269039351D+03 0.000000000000000D+00 0.000000000000000D+00 0.603208269039351D+03
 0.603208269039351D+03 0.000000000000000D+00 0.000000000000000D+00 -.603208269039351D+03
 0.606303074163621D+03 0.408120517472082D+03 0.260915550410608D+03 -.342548006142945D+03
 0.171579643666097D+03 -.879904114415703D+02 -.102548940073468D+03 0.105740136678255D+03
 0.428533820248983D+03 -.320130106030512D+03 -.158366610337140D+03 0.236807869464690D+03
 0.000000000000000D+00 -.000000000000000D+00 0.000000000000000D+00 -.000000000000000D+00
 0.603904980956530D+03 0.000000000000000D+00 0.000000000000000D+00 0.603904980956530D+03
 0.104333241398146D+04 0.000000000000000D+00 0.000000000000000D+00 -.104333241398146D+04
 0.605157104136975D+03 0.414771537279644D+03 0.247417776316948D+03 -.342548006142945D+03
 0.172951795244548D+03 -.860989044274999D+02 -.106387619721282D+03 0.105740136678255D+03
 0.428679946584022D+03 -.315423929265776D+03 -.167917463086521D+03 0.236807869464690D+03
 0.440448548972444D+03 -.132487035863680D+02 0.268873064908549D+02 -.439427433024929D+03
0.247574013584D-03 0.000000000000D+00 0.000000000000D+00 0.180957620443D-04 0.147130326715D-06  6 2 -2 25 1 -1 21 2 0.21543393D+00 0.69223013D-01 0.26165619D+06 0.26165619D+06 0.26165619D+06 0.10889734D+01  1  2  1  2  6  2       -2 0.105931204281D-02 0.100000000000D+01
  </mgrwgt>
  </event>
  <event>
  7     66 0.16598358E-05 0.55758783E+02 0.75467711E-02 0.94800590E-01
        2 -1    0    0  501    0 0.00000000E+00 0.00000000E+00 0.55887443E+03 0.55887452E+03 0.32000000E+00 0.0000E+00 0.9000E+01
       -2 -1    0    0    0  503 0.00000000E+00 0.00000000E+00 -.46123568E+03 0.46123579E+03 0.32000000E+00 0.0000E+00 0.9000E+01
       23  2    1    2    0    0 -.32902581E+02 0.47609560E+03 -.66139013E+02 0.48972251E+03 0.87773386E+02 0.0000E+00 0.0000E+00
       25  1    1    2    0    0 0.18629916E+02 -.46968388E+03 0.16725190E+03 0.51434251E+03 0.12500000E+03 0.0000E+00 0.9000E+01
        1  1    3    3  502    0 0.23053040E+02 0.16402004E+03 -.46626283E+02 0.17207013E+03 0.32000000E+00 0.0000E+00 0.9000E+01
       -1  1    3    3    0  502 -.55955622E+02 0.31207556E+03 -.19512730E+02 0.31765239E+03 0.32000000E+00 0.0000E+00 0.9000E+01
       21  1    1    2  501  503 0.14272666E+02 -.64117208E+01 -.34741300E+01 0.16045287E+02 0.75000000E+00 0.0000E+00 0.9000E+01
#aMCatNLO 2  0  0  2  1 0.76294544D+01 0.00000000D+00  -5  6  0 0.00000000D+00 0.00000000D+00 0.00000000D+00 0.00000000D+00 0.00000000D+00
  <mgrwgt>
 0.2255289936D-02    1    2    0
 0.499419147227548D+03 0.000000000000000D+00 0.000000000000000D+00 0.499419147227548D+03
 0.499419147227548D+03 0.000000000000000D+00 0.000000000000000D+00 -.499419147227548D+03
 0.503384169807568D+03 0.257985847048862D+02 -.472904268568757D+03 0.116045716032640D+03
 0.176965194212668D+03 0.255876504708506D+02 0.162879917898401D+03 -.642812916136482D+02
 0.318488930434860D+03 -.513862351757368D+02 0.310024350670356D+03 -.517644244189917D+02
 0.000000000000000D+00 0.000000000000000D+00 -.000000000000000D+00 -.000000000000000D+00
 0.505153391493361D+03 0.000000000000000D+00 0.000000000000000D+00 0.505153391493361D+03
 0.510269259317148D+03 0.000000000000000D+00 0.000000000000000D+00 -.510269259317148D+03
 0.500041628958681D+03 0.186299156045413D+02 -.469683881697777D+03 0.116045716032640D+03
 0.177666831990889D+03 0.230540902899544D+02 0.164018071135660D+03 -.642812916136482D+02
 0.321252377931698D+03 -.559566715300146D+02 0.312077531396644D+03 -.517644244189917D+02
 0.164618119292408D+02 0.142726656355189D+02 -.641172083452753D+01 -.511586782378668D+01
0.154983709554D-03 0.000000000000D+00 0.000000000000D+00 0.414806229732D-05 0.107656183069D-06  6 2 -2 25 1 -1 21 2 0.85979249D-01 0.70958155D-01 0.24241902D+06 0.24241902D+06 0.24241902D+06 0.10914666D+01  1  2  1  2  6  2       -2 0.225528993557D-02 0.100000000000D+01
  </mgrwgt>
  </event>
  <event>
  7     66 0.16598358E-05 0.25923456E+02 0.75467711E-02 0.93500114E-01
        2 -1    0    0  503    0 0.00000000E+00 0.00000000E+00 0.10421595E+04 0.10421596E+04 0.32000000E+00 0.0000E+00 0.9000E+01
       -2 -1    0    0    0  501 0.00000000E+00 0.00000000E+00 -.67038248E+03 0.67038255E+03 0.32000000E+00 0.0000E+00 0.9000E+01
       23  2    1    2    0    0 -.17298068E+03 0.51188618E+03 0.15716310E+03 0.56988276E+03 0.90090786E+02 0.0000E+00 0.0000E+00
       25  1    1    2    0    0 0.14089712E+03 -.49295045E+03 -.31311884E+03 0.61361271E+03 0.12500000E+03 0.0000E+00 0.9000E+01
        1  1    3    3  502    0 -.26423540E+02 0.10404481E+03 -.42294013E+01 0.10743145E+03 0.32000000E+00 0.0000E+00 0.9000E+01
       -1  1    3    3    0  502 -.14655714E+03 0.40784137E+03 0.16139251E+03 0.46245132E+03 0.32000000E+00 0.0000E+00 0.9000E+01
       21  1    1    2  503  501 0.32083559E+02 -.18935721E+02 0.52773280E+03 0.52904668E+03 0.75000000E+00 0.0000E+00 0.9000E+01
#aMCatNLO 2  0  0  1  1 0.44666352D+02 0.00000000D+00  -5  6  0 0.00000000D+00 0.00000000D+00 0.00000000D+00 0.00000000D+00 0.00000000D+00
  <mgrwgt>
 0.7696202359D-03    1    2    0
 0.586291613727981D+03 0.000000000000000D+00 0.000000000000000D+00 0.586291613727981D+03
 0.586291613727981D+03 0.000000000000000D+00 0.000000000000000D+00 -.586291613727981D+03
 0.589493369557165D+03 0.156856848577647D+03 -.502369886692000D+03 -.234302920919089D+03
 0.105460830876642D+03 -.235050690753452D+02 0.102319388039268D+03 0.100120631352735D+02
 0.477629027022155D+03 -.133351779502302D+03 0.400050498652732D+03 0.224290857783815D+03
 0.000000000000000D+00 0.000000000000000D+00 -.000000000000000D+00 0.000000000000000D+00
 0.118986640011502D+04 0.000000000000000D+00 0.000000000000000D+00 0.118986640011502D+04
 0.587162604315295D+03 0.000000000000000D+00 0.000000000000000D+00 -.587162604315295D+03
 0.577386360431500D+03 0.140897123791504D+03 -.492950454882029D+03 -.234302920919089D+03
 0.107809504840186D+03 -.264220242469995D+02 0.104040975391200D+03 0.100120631352735D+02
 0.487979032839480D+03 -.146558658061092D+03 0.407845200232743D+03 0.224290857783815D+03
 0.603854106319151D+03 0.320835585165873D+02 -.189357207419143D+02 0.602703795799726D+03
0.282975548761D-03 0.000000000000D+00 0.000000000000D+00 0.110627804703D-04 0.636089675565D-07  6 2 -2 25 1 -1 21 2 0.16033218D+00 0.10313573D+00 0.30563563D+06 0.30563563D+06 0.30563563D+06 0.10839544D+01  1  2  1  1  6  1        2 0.769620235886D-03 0.100000000000D+01
  </mgrwgt>
  </event>
  <event>
  7     66 0.16598358E-05 0.12423117E+03 0.75467711E-02 0.92834611E-01
        2 -1    0    0  501    0 0.00000000E+00 0.00000000E+00 0.32188970E+04 0.32188970E+04 0.32000000E+00 0.0000E+00 0.9000E+01
       21 -1    0    0  503  501 0.00000000E+00 0.00000000E+00 -.20126248E+03 0.20126387E+03 0.75000000E+00 0.0000E+00 0.9000E+01
       23  2    1    2    0    0 -.42738469E+03 -.58281329E+02 0.19856105E+04 0.20339615E+04 0.91082485E+02 0.0000E+00 0.0000E+00
       25  1    1    2    0    0 0.53563147E+03 0.17278936E+03 0.10776308E+04 0.12221581E+04 0.12500000E+03 0.0000E+00 0.9000E+01
        1  1    3    3  502    0 -.15056229E+03 0.22558854E+02 0.65555670E+03 0.67300267E+03 0.32000000E+00 0.0000E+00 0.9000E+01
        2  1    1    2  503    0 -.10824678E+03 -.11450803E+03 -.45606797E+02 0.16404127E+03 0.32000000E+00 0.0000E+00 0.9000E+01
       -1  1    3    3    0  502 -.27682240E+03 -.80840182E+02 0.13300538E+04 0.13609588E+04 0.32000000E+00 0.0000E+00 0.9000E+01
#aMCatNLO 2  0  0  2  1 0.76294544D+01 0.00000000D+00  -5  6  0 0.00000000D+00 0.00000000D+00 0.00000000D+00 0.00000000D+00 0.00000000D+00
  <mgrwgt>
 0.1000041550D-02    1    2    0
 0.546360261828181D+03 0.000000000000000D+00 0.000000000000000D+00 0.546360261828181D+03
 0.546360261828181D+03 0.000000000000000D+00 0.000000000000000D+00 -.546360261828181D+03
 0.549713809620032D+03 0.478262436378228D+03 0.112101962705165D+03 -.212740368510961D+03
 0.180248356344072D+03 -.167621520683467D+03 0.451250088707180D+01 0.661221075302796D+02
 0.000000000000000D+00 -.000000000000000D+00 -.000000000000000D+00 -.000000000000000D+00
 0.362758357692259D+03 -.310640915694762D+03 -.116614463592237D+03 0.146618260980682D+03
 0.562357184409129D+03 0.000000000000000D+00 0.000000000000000D+00 0.562357184409129D+03
 0.115201781064641D+04 0.000000000000000D+00 0.000000000000000D+00 -.115201781064641D+04
 0.614524776304943D+03 0.535631471908493D+03 0.172789359046217D+03 -.212740368510961D+03
 0.165980798572369D+03 -.150560728393857D+03 0.225601297865622D+02 0.661221075302796D+02
 0.610351626984210D+03 -.108246780255347D+03 -.114508030251502D+03 -.589660626237282D+03
 0.323517793194018D+03 -.276823963259288D+03 -.808414585812772D+02 0.146618260980682D+03
0.495422182189D-04 0.000000000000D+00 0.000000000000D+00 0.344237088249D-04 0.102423696252D-08  6 2 21 25 1 2 -1 2 0.49521499D+00 0.30963564D-01 0.34499638D+06 0.34499638D+06 0.34499638D+06 0.10800899D+01  1  2  1  6  5  2       -2 0.100004154988D-02 0.100000000000D+01
  </mgrwgt>
  </event>
  <event>
  7     66 0.16598358E-05 0.12918590E+03 0.75467711E-02 0.89751731E-01
        2 -1    0    0  501    0 0.00000000E+00 0.00000000E+00 0.22512012E+04 0.22512012E+04 0.32000000E+00 0.0000E+00 0.9000E+01
       -2 -1    0    0    0  503 0.00000000E+00 0.00000000E+00 -.41751346E+03 0.41751358E+03 0.32000000E+00 0.0000E+00 0.9000E+01
       23  2    1    2    0    0 -.55462666E+03 0.27636776E+03 0.12877362E+04 0.14318946E+04 0.89821595E+02 0.0000E+00 0.0000E+00
       25  1    1    2    0    0 0.69515679E+03 -.35783927E+03 0.66615925E+03 0.10347391E+04 0.12500000E+03 0.0000E+00 0.9000E+01
        1  1    3    3  502    0 -.19670427E+03 0.99637613E+02 0.56040686E+03 0.60222601E+03 0.32000000E+00 0.0000E+00 0.9000E+01
       -1  1    3    3    0  502 -.35792239E+03 0.17673015E+03 0.72732931E+03 0.82966862E+03 0.32000000E+00 0.0000E+00 0.9000E+01
       21  1    1    2  501  503 -.14053012E+03 0.81471502E+02 -.12020765E+03 0.20208108E+03 0.75000000E+00 0.0000E+00 0.9000E+01
#aMCatNLO 2  0  0  2  1 0.76294544D+01 0.00000000D+00  -5  6  0 0.00000000D+00 0.00000000D+00 0.00000000D+00 0.00000000D+00 0.00000000D+00
  <mgrwgt>
 0.6100396848D-03    1    2    0
 0.748362951170302D+03 0.000000000000000D+00 0.000000000000000D+00 0.748362951170302D+03
 0.748362951170302D+03 0.000000000000000D+00 0.000000000000000D+00 -.748362951170302D+03
 0.750887488608602D+03 0.621122516270697D+03 -.314918340538658D+03 -.251476199913370D+03
 0.284789469460112D+03 -.222173663310516D+03 0.114403547820418D+03 0.136585993032443D+03
 0.461048944271891D+03 -.398948852960181D+03 0.200514792718240D+03 0.114890206880927D+03
 0.000000000000000D+00 -.000000000000000D+00 0.000000000000000D+00 -.000000000000000D+00
 0.766699063128262D+03 0.000000000000000D+00 0.000000000000000D+00 0.766699063128262D+03
 0.122591294363226D+04 0.000000000000000D+00 0.000000000000000D+00 -.122591294363226D+04
 0.830756990479407D+03 0.695156785879261D+03 -.357839267204631D+03 -.251476199913370D+03
 0.259374166560975D+03 -.196702226541369D+03 0.996366341272607D+02 0.136585993032443D+03
 0.415383621506525D+03 -.357924434561187D+03 0.176731130598965D+03 0.114890206880927D+03
 0.487097228213610D+03 -.140530124776705D+03 0.814715024784056D+02 -.459213880503994D+03
0.395043648684D-03 0.000000000000D+00 0.000000000000D+00 0.206547215581D-04 0.543722634700D-08  6 2 -2 25 1 -1 21 2 0.34633853D+00 0.64232827D-01 0.61928722D+06 0.61928722D+06 0.61928722D+06 0.10620045D+01  1  2  1  2  6  2       -2 0.610039684752D-03 0.100000000000D+01
  </mgrwgt>
  </event>
  <event>
  7     66 0.16598358E-05 0.54463324E+02 0.75467711E-02 0.93601158E-01
        2 -1    0    0  501    0 0.00000000E+00 0.00000000E+00 0.74225706E+03 0.74225713E+03 0.32000000E+00 0.0000E+00 0.9000E+01
       21 -1    0    0  503  501 0.00000000E+00 0.00000000E+00 -.49301734E+03 0.49301791E+03 0.75000000E+00 0.0000E+00 0.9000E+01
       23  2    1    2    0    0 0.25831497E+03 -.41972220E+03 0.64372413E+02 0.50518508E+03 0.90414660E+02 0.0000E+00 0.0000E+00
       25  1    1    2    0    0 -.32876087E+03 0.36136923E+03 0.29710791E+03 0.58529441E+03 0.12500000E+03 0.0000E+00 0.9000E+01
        1  1    3    3  502    0 0.13728476E+03 -.14492460E+03 0.88263695E+01 0.19982055E+03 0.32000000E+00 0.0000E+00 0.9000E+01
        2  1    1    2  503    0 0.70445908E+02 0.58352967E+02 -.11224060E+03 0.14479555E+03 0.32000000E+00 0.0000E+00 0.9000E+01
       -1  1    3    3    0  502 0.12103021E+03 -.27479760E+03 0.55546044E+02 0.30536453E+03 0.32000000E+00 0.0000E+00 0.9000E+01
#aMCatNLO 2  0  0  2  1 0.76294544D+01 0.00000000D+00  -5  6  0 0.00000000D+00 0.00000000D+00 0.00000000D+00 0.00000000D+00 0.00000000D+00
  <mgrwgt>
 0.7309323391D-03    1    2    0
 0.512374324053953D+03 0.000000000000000D+00 0.000000000000000D+00 0.512374324053953D+03
 0.512374324053953D+03 0.000000000000000D+00 0.000000000000000D+00 -.512374324053953D+03
 0.516009454120747D+03 -.293359400513730D+03 0.390693588669569D+03 0.109268195943325D+03
 0.210708157697451D+03 0.151672140105472D+03 -.133005539329562D+03 -.608524128012392D+02
 0.000000000000000D+00 0.000000000000000D+00 0.000000000000000D+00 -.000000000000000D+00
 0.298031036289708D+03 0.141687260408258D+03 -.257688049340008D+03 -.484157831420860D+02
 0.525945364731258D+03 0.000000000000000D+00 0.000000000000000D+00 0.525945364731258D+03
 0.695786741305431D+03 0.000000000000000D+00 0.000000000000000D+00 -.695786741305431D+03
 0.515980592608807D+03 -.328760874699018D+03 0.361369230249842D+03 0.109268195943325D+03
 0.208693184802294D+03 0.137284960842618D+03 -.144922975285608D+03 -.608524128012392D+02
 0.192908755523985D+03 0.704459082015245D+02 0.583529671813272D+02 -.169841376574173D+03
 0.304149573101601D+03 0.121030005654876D+03 -.274799222145561D+03 -.484157831420860D+02
0.860057086513D-05 0.000000000000D+00 0.000000000000D+00 0.285976274093D-04 0.921245399997D-09  6 2 21 25 1 2 -1 2 0.11419341D+00 0.75848851D-01 0.30011157D+06 0.30011157D+06 0.30011157D+06 0.10845399D+01  1  2  1  6  5  2       -2 0.730932339055D-03 0.100000000000D+01
  </mgrwgt>
  </event>
  <event>
  7     66 0.16598358E-05 0.70738763E+02 0.75467711E-02 0.94746081E-01
        2 -1    0    0  503    0 0.00000000E+00 0.00000000E+00 0.22431752E+03 0.22431775E+03 0.32000000E+00 0.0000E+00 0.9000E+01
       -2 -1    0    0    0  501 0.00000000E+00 0.00000000E+00 -.12718888E+04 0.12718889E+04 0.32000000E+00 0.0000E+00 0.9000E+01
       23  2    1    2    0    0 0.45251457E+03 0.12857434E+03 -.77450379E+03 0.91076368E+03 0.91288336E+02 0.0000E+00 0.0000E+00
       25  1    1    2    0    0 -.46275948E+03 -.14283442E+03 -.26594150E+03 0.56647850E+03 0.12500000E+03 0.0000E+00 0.9000E+01
        1  1    3    3  502    0 0.20076990E+03 0.39065767E+02 -.25794501E+03 0.32919663E+03 0.32000000E+00 0.0000E+00 0.9000E+01
       -1  1    3    3    0  502 0.25174467E+03 0.89508576E+02 -.51655877E+03 0.58156705E+03 0.32000000E+00 0.0000E+00 0.9000E+01
       21  1    1    2  503  501 0.10244909E+02 0.14260076E+02 -.71260392E+01 0.18964464E+02 0.75000000E+00 0.0000E+00 0.9000E+01
#aMCatNLO 2  0  0  1  1 0.44666352D+02 0.00000000D+00  -5  6  0 0.00000000D+00 0.00000000D+00 0.00000000D+00 0.00000000D+00 0.00000000D+00
  <mgrwgt>
 0.5223320166D-03    1    2    0
 0.524263708507948D+03 0.000000000000000D+00 0.000000000000000D+00 0.524263708507948D+03
 0.524263708507948D+03 0.000000000000000D+00 0.000000000000000D+00 -.524263708507948D+03
 0.527740698998183D+03 -.457572203712551D+03 -.135614153574404D+03 0.187407911036403D+03
 0.210331293244602D+03 0.202811904734353D+03 0.419083241841010D+02 -.367461097267554D+02
 0.310455424773111D+03 0.254760298978198D+03 0.937058293903026D+02 -.150661801309647D+03
 0.000000000000000D+00 0.000000000000000D+00 0.000000000000000D+00 0.000000000000000D+00
 0.538540980008921D+03 0.000000000000000D+00 0.000000000000000D+00 0.538540980008921D+03
 0.529763730370095D+03 0.000000000000000D+00 0.000000000000000D+00 -.529763730370095D+03
 0.534129884974121D+03 -.462759481185559D+03 -.142834419788479D+03 0.187407911036403D+03
 0.207809199108871D+03 0.200769272807943D+03 0.390651475152618D+02 -.367461097267554D+02
 0.306735342123493D+03 0.251745299024348D+03 0.895091959124331D+02 -.150661801309647D+03
 0.196302841725314D+02 0.102449093532680D+02 0.142600763607843D+02 0.877724963882535D+01
0.174884788586D-03 0.000000000000D+00 0.000000000000D+00 0.505863478917D-04 0.104209458090D-05  6 2 -2 25 1 -1 21 2 0.34509944D-01 0.19567260D+00 0.24475322D+06 0.24475322D+06 0.24475322D+06 0.10911528D+01  1  2  1  1  6  1        2 0.522332016627D-03 0.100000000000D+01
  </mgrwgt>
  </event>
  <event>
  7     66 0.16598358E-05 0.28865015E+02 0.75467711E-02 0.94277281E-01
        2 -1    0    0  503    0 0.00000000E+00 0.00000000E+00 0.65981495E+03 0.65981503E+03 0.32000000E+00 0.0000E+00 0.9000E+01
       -2 -1    0    0    0  501 0.00000000E+00 0.00000000E+00 -.61627408E+03 0.61627417E+03 0.32000000E+00 0.0000E+00 0.9000E+01
       23  2    1    2    0    0 -.49385877E+03 0.98784537E+02 0.12778024E+02 0.51216061E+03 0.92143098E+02 0.0000E+00 0.0000E+00
       25  1    1    2    0    0 0.45682865E+03 -.11358521E+03 -.20236102E+03 0.52741730E+03 0.12500000E+03 0.0000E+00 0.9000E+01
        1  1    3    3  502    0 -.11112587E+03 0.10641657E+02 0.39709285E+02 0.11848685E+03 0.32000000E+00 0.0000E+00 0.9000E+01
       -1  1    3    3    0  502 -.38273289E+03 0.88142881E+02 -.26931261E+02 0.39367376E+03 0.32000000E+00 0.0000E+00 0.9000E+01
       21  1    1    2  503  501 0.37030111E+02 0.14800669E+02 0.23312387E+03 0.23651129E+03 0.75000000E+00 0.0000E+00 0.9000E+01
#aMCatNLO 2  0  0  1  1 0.44666352D+02 0.00000000D+00  -5  6  0 0.00000000D+00 0.00000000D+00 0.00000000D+00 0.00000000D+00 0.00000000D+00
  <mgrwgt>
 0.6888059119D-03    1    2    0
 0.510683420570832D+03 0.000000000000000D+00 0.000000000000000D+00 0.510683420570832D+03
 0.510683420570832D+03 0.000000000000000D+00 0.000000000000000D+00 -.510683420570832D+03
 0.514176117428933D+03 0.475186052022943D+03 -.106247886725729D+03 -.107989269205127D+03
 0.124092367352940D+03 -.106556840557054D+03 0.124656219140981D+02 0.623631592853540D+02
 0.383098356359791D+03 -.368629211465889D+03 0.937822648116308D+02 0.456261099197732D+02
 0.000000000000000D+00 0.000000000000000D+00 0.000000000000000D+00 0.000000000000000D+00
 0.793447134830477D+03 0.000000000000000D+00 0.000000000000000D+00 0.793447134830477D+03
 0.512480487666855D+03 0.000000000000000D+00 0.000000000000000D+00 -.512480487666855D+03
 0.498879445658902D+03 0.456828654842420D+03 -.113585206573484D+03 -.107989269205127D+03
 0.127869543448756D+03 -.111122596907922D+03 0.106407218825850D+02 0.623631592853540D+02
 0.395396065708472D+03 -.382736168506991D+03 0.881438153696306D+02 0.456261099197732D+02
 0.283782567681201D+03 0.370301105724930D+02 0.148006693212679D+02 0.280966647163621D+03
0.111895371637D-03 0.000000000000D+00 0.000000000000D+00 0.255679777875D-04 0.112646823556D-06  6 2 -2 25 1 -1 21 2 0.10150991D+00 0.94811318D-01 0.26590288D+06 0.26590288D+06 0.26590288D+06 0.10884499D+01  1  2  1  1  6  1        2 0.688805911913D-03 0.100000000000D+01
  </mgrwgt>
  </event>
  <event>
  7     66 0.16598358E-05 0.23974490E+02 0.75467711E-02 0.94300476E-01
        2 -1    0    0  503    0 0.00000000E+00 0.00000000E+00 0.28699673E+04 0.28699673E+04 0.32000000E+00 0.0000E+00 0.9000E+01
       -2 -1    0    0    0  501 0.00000000E+00 0.00000000E+00 -.97266606E+02 0.97267133E+02 0.32000000E+00 0.0000E+00 0.9000E+01
       23  2    1    2    0    0 -.26691940E+03 -.41263047E+03 0.12813928E+04 0.13753471E+04 0.90012543E+02 0.0000E+00 0.0000E+00
       25  1    1    2    0    0 0.22284612E+03 0.42092172E+03 0.14484179E+04 0.15298284E+04 0.12500000E+03 0.0000E+00 0.9000E+01
        1  1    3    3  502    0 -.21806943E+03 -.32030689E+03 0.89919659E+03 0.97913502E+03 0.32000000E+00 0.0000E+00 0.9000E+01
       -1  1    3    3    0  502 -.48849968E+02 -.92323579E+02 0.38219622E+03 0.39621208E+03 0.32000000E+00 0.0000E+00 0.9000E+01
       21  1    1    2  503  501 0.44073277E+02 -.82912514E+01 0.42889921E+02 0.62058895E+02 0.75000000E+00 0.0000E+00 0.9000E+01
#aMCatNLO 2  0  0  1  2 0.80528652D+01 0.00000000D+00  -5  6  0 0.00000000D+00 0.00000000D+00 0.00000000D+00 0.00000000D+00 0.00000000D+00
  <mgrwgt>
 0.1733073557D-03    1    2    0
 0.496529694654138D+03 0.000000000000000D+00 0.000000000000000D+00 0.496529694654138D+03
 0.496529694654138D+03 0.000000000000000D+00 0.000000000000000D+00 -.496529694654138D+03
 0.500317354383701D+03 0.244886983417087D+03 0.416775301750002D+03 0.319557240816104D+02
 0.385647426595531D+03 -.200818269426675D+03 -.323555537185768D+03 -.608914990836969D+02
 0.107094608329044D+03 -.440687139904120D+02 -.932197645642340D+02 0.289357750020865D+02
 0.000000000000000D+00 0.000000000000000D+00 -.000000000000000D+00 -.000000000000000D+00
 0.506290610773836D+03 0.000000000000000D+00 0.000000000000000D+00 0.506290610773836D+03
 0.551363922523223D+03 0.000000000000000D+00 0.000000000000000D+00 -.551363922523223D+03
 0.493438605818990D+03 0.222846119649721D+03 0.420921722376109D+03 0.319557240816104D+02
 0.392251620851231D+03 -.218071566630589D+03 -.320309773854996D+03 -.608914990836969D+02
 0.108381274403984D+03 -.488478295546628D+02 -.923206971066555D+02 0.289357750020865D+02
 0.635830322228549D+02 0.440732765355310D+02 -.829125141445826D+01 -.450733117493874D+02
0.165836340834D-04 0.000000000000D+00 0.000000000000D+00 0.128128224051D-04 0.404574318508D-07  6 2 -2 25 1 -1 21 2 0.44153157D+00 0.14964071D-01 0.26480951D+06 0.26480951D+06 0.26480951D+06 0.10885838D+01  1  2  1  1  6  1        2 0.173307355674D-03 0.100000000000D+01
  </mgrwgt>
  </event>
  <event>
  7     66 0.16598358E-05 0.61526954E+02 0.75467711E-02 0.95272291E-01
        2 -1    0    0  503    0 0.00000000E+00 0.00000000E+00 0.52177961E+03 0.52177971E+03 0.32000000E+00 0.0000E+00 0.9000E+01
       -2 -1    0    0    0  501 0.00000000E+00 0.00000000E+00 -.56646418E+03 0.56646427E+03 0.32000000E+00 0.0000E+00 0.9000E+01
       23  2    1    2    0    0 0.43860026E+03 0.12151816E+03 -.75747162E+02 0.47018233E+03 0.90536938E+02 0.0000E+00 0.0000E+00
       25  1    1    2    0    0 -.44674532E+03 -.11212610E+03 -.98985547E+02 0.48741849E+03 0.12500000E+03 0.0000E+00 0.9000E+01
        1  1    3    3  502    0 0.15736435E+03 0.49047961E+02 0.16014584E+02 0.16560740E+03 0.32000000E+00 0.0000E+00 0.9000E+01
       -1  1    3    3    0  502 0.28123591E+03 0.72470201E+02 -.91761746E+02 0.30457492E+03 0.32000000E+00 0.0000E+00 0.9000E+01
       21  1    1    2  503  501 0.81450648E+01 -.93920585E+01 0.13004815E+03 0.13064316E+03 0.75000000E+00 0.0000E+00 0.9000E+01
#aMCatNLO 2  0  0  1  2 0.80528652D+01 0.00000000D+00  -5  6  0 0.00000000D+00 0.00000000D+00 0.00000000D+00 0.00000000D+00 0.00000000D+00
  <mgrwgt>
 0.7596467138D-02    1    2    0
 0.470721056679007D+03 0.000000000000000D+00 0.000000000000000D+00 0.470721056679007D+03
 0.470721056679007D+03 0.000000000000000D+00 0.000000000000000D+00 -.470721056679007D+03
 0.474666101642535D+03 -.442627137856024D+03 -.116874775579386D+03 -.102182050857524D+02
 0.172292801429153D+03 0.158849527167536D+03 0.473333329557031D+02 0.470233211742868D+02
 0.294483210286325D+03 0.283777610688487D+03 0.695414426236829D+02 -.368051160885343D+02
 0.000000000000000D+00 0.000000000000000D+00 -.000000000000000D+00 0.000000000000000D+00
 0.627522414667124D+03 0.000000000000000D+00 0.000000000000000D+00 0.627522414667124D+03
 0.471008575941845D+03 0.000000000000000D+00 0.000000000000000D+00 -.471008575941845D+03
 0.477370986292324D+03 -.446745322941210D+03 -.112126104314233D+03 -.102182050857524D+02
 0.171405714959775D+03 0.157362805566108D+03 0.490476687618765D+02 0.470233211742868D+02
 0.292747491557921D+03 0.281237452591134D+03 0.724704940180063D+02 -.368051160885343D+02
 0.157006797798949D+03 0.814506478396748D+01 -.939205846564948D+01 0.156513838725280D+03
0.758530869488D-03 0.000000000000D+00 0.000000000000D+00 0.446773925655D-04 0.192286757176D-05  6 2 -2 25 1 -1 21 2 0.80273649D-01 0.87148184D-01 0.22323148D+06 0.22323148D+06 0.22323148D+06 0.10941786D+01  1  2  1  1  6  1        2 0.759646713790D-02 0.100000000000D+01
  </mgrwgt>
  </event>
  <event>
  7     66 0.16598358E-05 0.97352898E+02 0.75467711E-02 0.91243886E-01
        2 -1    0    0  501    0 0.00000000E+00 0.00000000E+00 0.11120255E+04 0.11120255E+04 0.32000000E+00 0.0000E+00 0.9000E+01
       -2 -1    0    0    0  503 0.00000000E+00 0.00000000E+00 -.46268531E+03 0.46268543E+03 0.32000000E+00 0.0000E+00 0.9000E+01
       23  2    1    2    0    0 0.42288448E+03 -.51372440E+03 0.27030075E+03 0.72359757E+03 0.88243469E+02 0.0000E+00 0.0000E+00
       25  1    1    2    0    0 -.38888788E+03 0.38818777E+03 0.43264007E+03 0.71044068E+03 0.12500000E+03 0.0000E+00 0.9000E+01
        1  1    3    3  502    0 0.24776279E+03 -.35401841E+03 0.20167370E+03 0.47685199E+03 0.32000000E+00 0.0000E+00 0.9000E+01
       -1  1    3    3    0  502 0.17512169E+03 -.15970599E+03 0.68627051E+02 0.24674558E+03 0.32000000E+00 0.0000E+00 0.9000E+01
       21  1    1    2  501  503 -.33996594E+02 0.12553663E+03 -.53600661E+02 0.14067269E+03 0.75000000E+00 0.0000E+00 0.9000E+01
#aMCatNLO 2  0  0  2  1 0.29239538D+01 0.00000000D+00  -5  6  0 0.00000000D+00 0.00000000D+00 0.00000000D+00 0.00000000D+00 0.00000000D+00
  <mgrwgt>
 0.4162032603D-03    1    2    0
 0.621575559950223D+03 0.000000000000000D+00 0.000000000000000D+00 0.621575559950223D+03
 0.621575559950223D+03 0.000000000000000D+00 0.000000000000000D+00 -.621575559950223D+03
 0.624728068941356D+03 -.405203775873495D+03 0.448436216913977D+03 0.968246843575431D+02
 0.393513466698793D+03 0.236483958242069D+03 -.312368954619230D+03 -.367943223548832D+02
 0.224909584260297D+03 0.168719817631426D+03 -.136067262294748D+03 -.600303620026598D+02
 0.000000000000000D+00 -.000000000000000D+00 0.000000000000000D+00 -.000000000000000D+00
 0.650431829005693D+03 0.000000000000000D+00 0.000000000000000D+00 0.650431829005693D+03
 0.791038858292705D+03 0.000000000000000D+00 0.000000000000000D+00 -.791038858292705D+03
 0.571772291724476D+03 -.388887884798857D+03 0.388187773042367D+03 0.968246843575431D+02
 0.433672157921886D+03 0.247763746358729D+03 -.354020966030767D+03 -.367943223548832D+02
 0.244491516557359D+03 0.175120732736035D+03 -.159703432249721D+03 -.600303620026598D+02
 0.191534721094677D+03 -.339965942959061D+02 0.125536625238120D+03 -.140607029287013D+03
0.748298155324D-04 0.000000000000D+00 0.000000000000D+00 0.723566839962D-05 0.268193915018D-08  6 2 -2 25 1 -1 21 2 0.17108067D+00 0.71182290D-01 0.46423012D+06 0.46423012D+06 0.46423012D+06 0.10707962D+01  1  2  1  2  6  2       -2 0.416203260267D-03 0.100000000000D+01
  </mgrwgt>
  </event>
  <event>
  7     66 0.16598358E-05 0.56023851E+02 0.75467711E-02 0.93837656E-01
        2 -1    0    0  501    0 0.00000000E+00 0.00000000E+00 0.10130563E+04 0.10130563E+04 0.32000000E+00 0.0000E+00 0.9000E+01
       21 -1    0    0  503  501 0.00000000E+00 0.00000000E+00 -.14816019E+04 0.14816021E+04 0.75000000E+00 0.0000E+00 0.9000E+01
       23  2    1    2    0    0 -.48266316E+03 -.21373318E+03 0.59677587E+03 0.80153130E+03 0.87552186E+02 0.0000E+00 0.0000E+00
       25  1    1    2    0    0 0.43723592E+03 0.19558990E+03 0.11791429E+03 0.50888058E+03 0.12500000E+03 0.0000E+00 0.9000E+01
        1  1    3    3  502    0 -.26658504E+03 -.10243024E+03 0.38358290E+03 0.47822116E+03 0.32000000E+00 0.0000E+00 0.9000E+01
        2  1    1    2  503    0 0.45427235E+02 0.18143282E+02 -.11832358E+04 0.11842465E+04 0.32000000E+00 0.0000E+00 0.9000E+01
       -1  1    3    3    0  502 -.21607812E+03 -.11130294E+03 0.21319297E+03 0.32331014E+03 0.32000000E+00 0.0000E+00 0.9000E+01
#aMCatNLO 2  0  0  2  1 0.29239538D+01 0.00000000D+00  -5  6  0 0.00000000D+00 0.00000000D+00 0.00000000D+00 0.00000000D+00 0.00000000D+00
  <mgrwgt>
 0.6120389284D-03    1    2    0
 0.548635681230614D+03 0.000000000000000D+00 0.000000000000000D+00 0.548635681230614D+03
 0.548635681230614D+03 0.000000000000000D+00 0.000000000000000D+00 -.548635681230614D+03
 0.552262685002552D+03 0.459636018375032D+03 0.204536324964315D+03 -.190443418444080D+03
 0.308543710851475D+03 -.253561490369268D+03 -.972283511098364D+02 0.146466514426255D+03
 0.000000000000000D+00 0.000000000000000D+00 0.000000000000000D+00 -.000000000000000D+00
 0.236464966607201D+03 -.206074528005764D+03 -.107307973854479D+03 0.439769040178242D+02
 0.549454672074664D+03 0.000000000000000D+00 0.000000000000000D+00 0.549454672074664D+03
 0.273170180083587D+04 0.000000000000000D+00 0.000000000000000D+00 -.273170180083587D+04
 0.530400185305049D+03 0.437235921756240D+03 0.195589901756034D+03 -.190443418444080D+03
 0.320955309245725D+03 -.266585709873172D+03 -.102430122406739D+03 0.146466514426255D+03
 0.218279530496232D+04 0.454272351711490D+02 0.181432820554117D+02 -.218224712876120D+04
 0.247005673397436D+03 -.216077447054217D+03 -.111303061404707D+03 0.439769040178242D+02
0.264760376075D-03 0.000000000000D+00 0.000000000000D+00 0.545640423999D-05 0.695396020282D-08  6 2 21 25 1 2 -1 2 0.15585483D+00 0.22793877D+00 0.28761424D+06 0.28761424D+06 0.28761424D+06 0.10859092D+01  1  2  1  6  5  2       -2 0.612038928443D-03 0.100000000000D+01
  </mgrwgt>
  </event>
  <event>
  7     66 0.16598358E-05 0.59649816E+02 0.75467711E-02 0.95228667E-01
        2 -1    0    0  501    0 0.00000000E+00 0.00000000E+00 0.32638096E+04 0.32638096E+04 0.32000000E+00 0.0000E+00 0.9000E+01
       21 -1    0    0  503  501 0.00000000E+00 0.00000000E+00 -.12122709E+03 0.12122941E+03 0.75000000E+00 0.0000E+00 0.9000E+01
       23  2    1    2    0    0 -.28198826E+03 -.27044453E+03 0.18798627E+04 0.19226358E+04 0.99933838E+02 0.0000E+00 0.0000E+00
       25  1    1    2    0    0 0.33768612E+03 0.31265815E+03 0.12989226E+04 0.13836950E+04 0.12500000E+03 0.0000E+00 0.9000E+01
        1  1    3    3  502    0 -.16396203E+03 -.92521685E+02 0.79821210E+03 0.82011369E+03 0.32000000E+00 0.0000E+00 0.9000E+01
        2  1    1    2  503    0 -.55697859E+02 -.42213629E+02 -.36202805E+02 0.78708243E+02 0.32000000E+00 0.0000E+00 0.9000E+01
       -1  1    3    3    0  502 -.11802623E+03 -.17792284E+03 0.10816506E+04 0.11025221E+04 0.32000000E+00 0.0000E+00 0.9000E+01
#aMCatNLO 2  0  0  2  1 0.29239538D+01 0.00000000D+00  -5  6  0 0.00000000D+00 0.00000000D+00 0.00000000D+00 0.00000000D+00 0.00000000D+00
  <mgrwgt>
 0.8298480961D-03    1    2    0
 0.453393580886717D+03 0.000000000000000D+00 0.000000000000000D+00 0.453393580886717D+03
 0.453393580886717D+03 0.000000000000000D+00 0.000000000000000D+00 -.453393580886717D+03
 0.456502488776326D+03 0.308649924486077D+03 0.290651505074261D+03 -.114133469989241D+03
 0.206509220720384D+03 -.176169838883161D+03 -.101772821972851D+03 0.353912251568610D+02
 0.000000000000000D+00 -.000000000000000D+00 -.000000000000000D+00 -.000000000000000D+00
 0.243775452276724D+03 -.132480085602916D+03 -.188878683101411D+03 0.787422448323796D+02
 0.457718597647037D+03 0.000000000000000D+00 0.000000000000000D+00 0.457718597647037D+03
 0.864430672880442D+03 0.000000000000000D+00 0.000000000000000D+00 -.864430672880442D+03
 0.490345278959692D+03 0.337686126328648D+03 0.312658157915999D+03 -.114133469989241D+03
 0.191562885946586D+03 -.163962488946944D+03 -.925208229124894D+02 0.353912251568610D+02
 0.412672938398452D+03 -.556978589434116D+02 -.422136287811116D+02 -.406712075233405D+03
 0.227568167222750D+03 -.118025778438292D+03 -.177923706222398D+03 0.787422448323796D+02
0.156417556055D-04 0.000000000000D+00 0.000000000000D+00 0.675857556533D-06 0.766894211033D-10  6 2 21 25 1 2 -1 2 0.50212467D+00 0.18650499D-01 0.22493248D+06 0.22493248D+06 0.22493248D+06 0.10939281D+01  1  2  1  6  5  2       -2 0.829848096113D-03 0.100000000000D+01
  </mgrwgt>
  </event>
  <event>
  7     66 0.16598358E-05 0.51189890E+02 0.75467711E-02 0.94627127E-01
        2 -1    0    0  501    0 0.00000000E+00 0.00000000E+00 0.56770229E+03 0.56770238E+03 0.32000000E+00 0.0000E+00 0.9000E+01
       21 -1    0    0  503  501 0.00000000E+00 0.00000000E+00 -.90931399E+03 0.90931430E+03 0.75000000E+00 0.0000E+00 0.9000E+01
       23  2    1    2    0    0 0.25875749E+03 0.41405128E+03 0.17906062E+03 0.52775796E+03 0.89843539E+02 0.0000E+00 0.0000E+00
       25  1    1    2    0    0 -.24912420E+03 -.40340079E+03 -.66449306E+02 0.49480863E+03 0.12500000E+03 0.0000E+00 0.9000E+01
        1  1    3    3  502    0 0.21578977E+03 0.27448682E+03 0.14328033E+03 0.37740905E+03 0.32000000E+00 0.0000E+00 0.9000E+01
        2  1    1    2  503    0 -.96332903E+01 -.10650490E+02 -.45422302E+03 0.45445009E+03 0.32000000E+00 0.0000E+00 0.9000E+01
       -1  1    3    3    0  502 0.42967728E+02 0.13956446E+03 0.35780284E+02 0.15034891E+03 0.32000000E+00 0.0000E+00 0.9000E+01
#aMCatNLO 2  0  0  2  5 0.56009064D+03 0.00000000D+00  -5  6  0 0.00000000D+00 0.00000000D+00 0.00000000D+00 0.00000000D+00 0.00000000D+00
  <mgrwgt>
 0.6515132218D-03    1    2    0
 0.508122743337797D+03 0.000000000000000D+00 0.000000000000000D+00 0.508122743337797D+03
 0.508122743337797D+03 0.000000000000000D+00 0.000000000000000D+00 -.508122743337797D+03
 0.511838941136238D+03 -.253944365554155D+03 -.408729921785540D+03 -.121680778695523D+03
 0.358959992020992D+03 0.212366284205706D+03 0.270701135180265D+03 0.102341255691377D+03
 0.000000000000000D+00 -.000000000000000D+00 -.000000000000000D+00 -.000000000000000D+00
 0.145446553518365D+03 0.415780813484489D+02 0.138028786605275D+03 0.193395230041453D+02
 0.508275076169123D+03 0.000000000000000D+00 0.000000000000000D+00 0.508275076169123D+03
 0.101563080821102D+04 0.000000000000000D+00 0.000000000000000D+00 -.101563080821102D+04
 0.505199245314293D+03 -.249124203904195D+03 -.403400789031557D+03 -.121680778695523D+03
 0.363845924650785D+03 0.215791958291814D+03 0.274488533467395D+03 0.102341255691377D+03
 0.507558934561405D+03 -.963329031585487D+01 -.106504898961790D+02 -.507355732041898D+03
 0.147301779853661D+03 0.429655359282364D+02 0.139562745460342D+03 0.193395230041453D+02
0.270621081270D-04 0.000000000000D+00 0.000000000000D+00 0.188820718906D-04 0.540693152285D-07  6 2 21 25 1 2 -1 2 0.87338835D-01 0.13989448D+00 0.24993516D+06 0.24993516D+06 0.24993516D+06 0.10904676D+01  1  2  1  6  5  2       -2 0.651513221765D-03 0.100000000000D+01
  </mgrwgt>
  </event>
  <event>
  7     66 0.16598358E-05 0.46690529E+02 0.75467711E-02 0.94437338E-01
        2 -1    0    0  501    0 0.00000000E+00 0.00000000E+00 0.18548982E+04 0.18548982E+04 0.32000000E+00 0.0000E+00 0.9000E+01
       -2 -1    0    0    0  503 0.00000000E+00 0.00000000E+00 -.13985662E+03 0.13985699E+03 0.32000000E+00 0.0000E+00 0.9000E+01
       23  2    1    2    0    0 -.43114460E+03 0.23106142E+03 0.87237832E+03 0.10043394E+04 0.91534716E+02 0.0000E+00 0.0000E+00
       25  1    1    2    0    0 0.43966030E+03 -.22519894E+03 0.83126698E+03 0.97501053E+03 0.12500000E+03 0.0000E+00 0.9000E+01
        1  1    3    3  502    0 -.82655436E+02 0.86396631E+02 0.23430205E+03 0.26304724E+03 0.32000000E+00 0.0000E+00 0.9000E+01
       -1  1    3    3    0  502 -.34848916E+03 0.14466478E+03 0.63807627E+03 0.74129213E+03 0.32000000E+00 0.0000E+00 0.9000E+01
       21  1    1    2  501  503 -.85157011E+01 -.58624794E+01 0.11396266E+02 0.15405298E+02 0.75000000E+00 0.0000E+00 0.9000E+01
#aMCatNLO 2  0  0  2  5 0.56009064D+03 0.00000000D+00  -5  6  0 0.00000000D+00 0.00000000D+00 0.00000000D+00 0.00000000D+00 0.00000000D+00
  <mgrwgt>
 0.1809986513D-02    1    2    0
 0.503813418721423D+03 0.000000000000000D+00 0.000000000000000D+00 0.503813418721423D+03
 0.503813418721423D+03 0.000000000000000D+00 0.000000000000000D+00 -.503813418721423D+03
 0.507409192298950D+03 0.435362121161407D+03 -.228157937641948D+03 -.155842028440864D+02
 0.120768055174368D+03 -.836719465061112D+02 0.856938842240919D+02 0.155076344123018D+02
 0.379449589969528D+03 -.351690174655296D+03 0.142464053417856D+03 0.765684317846507D-01
 0.000000000000000D+00 -.000000000000000D+00 -.000000000000000D+00 -.000000000000000D+00
 0.507493659570115D+03 0.000000000000000D+00 0.000000000000000D+00 0.507493659570115D+03
 0.511153425993707D+03 0.000000000000000D+00 0.000000000000000D+00 -.511153425993707D+03
 0.509787804958404D+03 0.439660298470460D+03 -.225198935732138D+03 -.155842028440864D+02
 0.120565855833666D+03 -.826521873611310D+02 0.863959188402971D+02 0.155076344123018D+02
 0.377326213654418D+03 -.348492410017820D+03 0.144665496259566D+03 0.765684317846507D-01
 0.109672111173343D+02 -.851570109150886D+01 -.586247936772488D+01 -.365976642359264D+01
0.827751259385D-04 0.000000000000D+00 0.000000000000D+00 0.346799114624D-04 0.205372859847D-05  6 2 -2 25 1 -1 21 2 0.28536180D+00 0.21515892D-01 0.25845972D+06 0.25845972D+06 0.25845972D+06 0.10893735D+01  1  2  1  2  6  2       -2 0.180998651290D-02 0.100000000000D+01
  </mgrwgt>
  </event>
  <event>
  7     66 0.16598358E-05 0.21914763E+02 0.75467711E-02 0.94392503E-01
        2 -1    0    0  503    0 0.00000000E+00 0.00000000E+00 0.10174970E+04 0.10174970E+04 0.32000000E+00 0.0000E+00 0.9000E+01
       -2 -1    0    0    0  501 0.00000000E+00 0.00000000E+00 -.31478215E+03 0.31478231E+03 0.32000000E+00 0.0000E+00 0.9000E+01
       23  2    1    2    0    0 -.14454871E+03 0.47121921E+03 0.15807141E+03 0.52575409E+03 0.92135355E+02 0.0000E+00 0.0000E+00
       25  1    1    2    0    0 0.13308071E+03 -.47369519E+03 0.36201832E+03 0.62352215E+03 0.12500000E+03 0.0000E+00 0.9000E+01
        1  1    3    3  502    0 -.32421545E+02 0.23925340E+02 0.12691274E+02 0.42246293E+02 0.32000000E+00 0.0000E+00 0.9000E+01
       -1  1    3    3    0  502 -.11212717E+03 0.44729387E+03 0.14538013E+03 0.48350780E+03 0.32000000E+00 0.0000E+00 0.9000E+01
       21  1    1    2  503  501 0.11468000E+02 0.24759765E+01 0.18262510E+03 0.18300310E+03 0.75000000E+00 0.0000E+00 0.9000E+01
#aMCatNLO 2  0  0  1  2 0.15156393D+01 0.00000000D+00  -5  6  0 0.00000000D+00 0.00000000D+00 0.00000000D+00 0.00000000D+00 0.00000000D+00
  <mgrwgt>
 0.9076109689D-03    1    2    0
 0.512397528783062D+03 0.000000000000000D+00 0.000000000000000D+00 0.512397528783062D+03
 0.512397528783062D+03 0.000000000000000D+00 0.000000000000000D+00 -.512397528783062D+03
 0.515879237874461D+03 0.138851369484490D+03 -.472449283197017D+03 0.895452961849018D+02
 0.406268558260664D+02 -.319642704737312D+02 0.240187517274111D+02 -.720599700604519D+01
 0.468288963865596D+03 -.106887099010759D+03 0.448430531469605D+03 -.823392991788566D+02
 0.000000000000000D+00 0.000000000000000D+00 0.000000000000000D+00 0.000000000000000D+00
 0.624663372364655D+03 0.000000000000000D+00 0.000000000000000D+00 0.624663372364655D+03
 0.512737715029689D+03 0.000000000000000D+00 0.000000000000000D+00 -.512737715029689D+03
 0.515500693706786D+03 0.133080714211381D+03 -.473695185375918D+03 0.895452961849018D+02
 0.409291842901451D+02 -.324205832044133D+02 0.239202324088051D+02 -.720599700604519D+01
 0.468432334940109D+03 -.112128131473064D+03 0.447298976480538D+03 -.823392991788566D+02
 0.112538874457303D+03 0.114680004660959D+02 0.247597648657455D+01 0.111925657334966D+03
0.610112137037D-04 0.000000000000D+00 0.000000000000D+00 0.828773888106D-05 0.388963279625D-06  6 2 -2 25 1 -1 21 2 0.15653763D+00 0.48427922D-01 0.26052085D+06 0.26052085D+06 0.26052085D+06 0.10891149D+01  1  2  1  1  6  1        2 0.907610968852D-03 0.100000000000D+01
  </mgrwgt>
  </event>
  <event>
  7     66 0.16598358E-05 0.42343743E+02 0.75467711E-02 0.91644766E-01
        2 -1    0    0  501    0 0.00000000E+00 0.00000000E+00 0.23267379E+04 0.23267380E+04 0.32000000E+00 0.0000E+00 0.9000E+01
       -2 -1    0    0    0  503 0.00000000E+00 0.00000000E+00 -.28902223E+03 0.28902241E+03 0.32000000E+00 0.0000E+00 0.9000E+01
       23  2    1    2    0    0 0.21195047E+03 0.57806423E+03 0.12314411E+04 0.13798895E+04 0.92555412E+02 0.0000E+00 0.0000E+00
       25  1    1    2    0    0 -.23767571E+03 -.60143498E+03 0.91177020E+03 0.11247949E+04 0.12500000E+03 0.0000E+00 0.9000E+01
        1  1    3    3  502    0 0.17554202E+03 0.39971099E+03 0.93726413E+03 0.10339478E+04 0.32000000E+00 0.0000E+00 0.9000E+01
       -1  1    3    3    0  502 0.36408451E+02 0.17835325E+03 0.29417698E+03 0.34594169E+03 0.32000000E+00 0.0000E+00 0.9000E+01
       21  1    1    2  501  503 0.25725235E+02 0.23370744E+02 -.10549560E+03 0.11107594E+03 0.75000000E+00 0.0000E+00 0.9000E+01
#aMCatNLO 2  0  0  2  5 0.56009064D+03 0.00000000D+00  -5  6  0 0.00000000D+00 0.00000000D+00 0.00000000D+00 0.00000000D+00 0.00000000D+00
  <mgrwgt>
 0.6587546064D-03    1    2    0
 0.647858273526267D+03 0.000000000000000D+00 0.000000000000000D+00 0.647858273526267D+03
 0.647858273526267D+03 0.000000000000000D+00 0.000000000000000D+00 -.647858273526267D+03
 0.650582054327300D+03 -.224609204810786D+03 -.589564383487099D+03 -.979619939082179D+02
 0.459066041477713D+03 0.184548619702028D+03 0.407894397974316D+03 0.101516488834393D+03
 0.186068451247520D+03 0.400605851087577D+02 0.181669985512783D+03 -.355449492617464D+01
 0.000000000000000D+00 0.000000000000000D+00 0.000000000000000D+00 -.000000000000000D+00
 0.648869050732397D+03 0.000000000000000D+00 0.000000000000000D+00 0.648869050732397D+03
 0.103638553731129D+04 0.000000000000000D+00 0.000000000000000D+00 -.103638553731129D+04
 0.665909397799032D+03 -.237675705447202D+03 -.601434978087217D+03 -.979619939082179D+02
 0.448209963512676D+03 0.175543682771018D+03 0.399713634150700D+03 0.101516488834393D+03
 0.182063245296432D+03 0.364067877070297D+02 0.178350600398607D+03 -.355449492617464D+01
 0.389071981435542D+03 0.257252349691542D+02 0.233707435379093D+02 -.387516486578888D+03
0.213981337566D-03 0.000000000000D+00 0.000000000000D+00 0.197387277527D-04 0.111694295204D-06  6 2 -2 25 1 -1 21 2 0.35795950D+00 0.44464949D-01 0.43034331D+06 0.43034331D+06 0.43034331D+06 0.10731459D+01  1  2  1  2  6  2       -2 0.658754606372D-03 0.100000000000D+01
  </mgrwgt>
  </event>
  <event>
  6     66 0.16598358E-05 0.19464961E+02 0.75467711E-02 0.94795783E-01
        2 -1    0    0  501    0 0.00000000E+00 0.00000000E+00 0.39117451E+03 0.39117464E+03 0.32000000E+00 0.0000E+00 0.9000E+01
       -2 -1    0    0    0  501 -.00000000E+00 -.00000000E+00 -.67050220E+03 0.67050228E+03 0.32000000E+00 0.0000E+00 0.9000E+01
       25  1    1    2    0    0 0.45476733E+03 0.14479304E+03 -.28026928E+03 0.56741010E+03 0.12500000E+03 0.0000E+00 0.9000E+01
        1  1    1    2  503    0 -.31057646E+02 0.11049462E+02 -.46269959E+01 0.33289330E+02 0.32000000E+00 0.0000E+00 0.9000E+01
       -1  1    1    2    0  502 -.42638393E+03 -.14933760E+03 0.11227339E+02 0.45191939E+03 0.32000000E+00 0.0000E+00 0.9000E+01
       21  1    1    2  502  503 0.26742513E+01 -.65048942E+01 -.56587549E+01 0.90581056E+01 0.75000000E+00 0.0000E+00 0.9000E+01
#aMCatNLO 2  0  0  4  5 0.20073139D+01 0.00000000D+00  -5  6  0 0.00000000D+00 0.00000000D+00 0.00000000D+00 0.00000000D+00 0.00000000D+00
  <mgrwgt>
 0.1459456280D-01    1    2    0
 0.512136194213295D+03 0.000000000000000D+00 0.000000000000000D+00 0.512136194213295D+03
 0.512136194213295D+03 -.000000000000000D+00 -.000000000000000D+00 -.512136194213295D+03
 0.516940226292641D+03 0.460907998409258D+03 0.143809831505815D+03 -.135958622102930D+03
 0.405773404770347D+02 -.400419203118056D+02 0.645434129164055D+01 0.122745933669014D+01
 0.466754821656914D+03 -.420866078097452D+03 -.150264172797456D+03 0.134731162766239D+03
 0.000000000000000D+00 0.000000000000000D+00 0.000000000000000D+00 -.000000000000000D+00
 0.512136194213295D+03 0.000000000000000D+00 0.000000000000000D+00 0.512136194213295D+03
 0.512136194213295D+03 -.000000000000000D+00 -.000000000000000D+00 -.512136194213295D+03
 0.511590390377854D+03 0.454636302376542D+03 0.144820763707802D+03 -.135766367291165D+03
 0.330013760011706D+02 -.307356364096185D+02 0.112034499377556D+02 0.434674383401844D+01
 0.471678286781446D+03 -.426588384373773D+03 -.149341796512925D+03 0.134906576388053D+03
 0.800233526611882D+01 0.268771840684948D+01 -.668241713263196D+01 -.348695293090663D+01
0.158579999770D-02 0.000000000000D+00 0.000000000000D+00 0.972297518077D-07 0.409727076371D-07  6 2 -2 25 1 -1 21 2 0.60180710D-01 0.10315420D+00 0.24262387D+06 0.24262387D+06 0.24262387D+06 0.10914389D+01  1  2  1  3  6  4        1 0.145945628029D-01 0.100000000000D+01
  </mgrwgt>
  </event>
  <event>
  7     66 0.16598358E-05 0.33428938E+02 0.75467711E-02 0.94565527E-01
        2 -1    0    0  501    0 0.00000000E+00 0.00000000E+00 0.32091536E+04 0.32091536E+04 0.32000000E+00 0.0000E+00 0.9000E+01
       -2 -1    0    0    0  503 0.00000000E+00 0.00000000E+00 -.98286248E+02 0.98286769E+02 0.32000000E+00 0.0000E+00 0.9000E+01
       23  2    1    2    0    0 0.25716921E+03 -.42079859E+03 0.19986417E+04 0.20605681E+04 0.90359736E+02 0.0000E+00 0.0000E+00
       25  1    1    2    0    0 -.24649626E+03 0.38646148E+03 0.11137673E+04 0.12108739E+04 0.12500000E+03 0.0000E+00 0.9000E+01
        1  1    3    3  502    0 0.75133466E+02 -.95937170E+02 0.35713087E+03 0.37734803E+03 0.32000000E+00 0.0000E+00 0.9000E+01
       -1  1    3    3    0  502 0.18203574E+03 -.32486142E+03 0.16415108E+04 0.16832201E+04 0.32000000E+00 0.0000E+00 0.9000E+01
       21  1    1    2  501  503 -.10672952E+02 0.34337111E+02 -.15416180E+01 0.35998447E+02 0.75000000E+00 0.0000E+00 0.9000E+01
#aMCatNLO 2  0  0  2  5 0.56009064D+03 0.00000000D+00  -5  6  0 0.00000000D+00 0.00000000D+00 0.00000000D+00 0.00000000D+00 0.00000000D+00
  <mgrwgt>
 0.1094360020D-02    1    2    0
 0.503475375888190D+03 0.000000000000000D+00 0.000000000000000D+00 0.503475375888190D+03
 0.503475375888190D+03 0.000000000000000D+00 0.000000000000000D+00 -.503475375888190D+03
 0.507179687228060D+03 -.251784963238783D+03 0.403476354851321D+03 -.124166817223797D+03
 0.118015136245185D+03 0.738605095476644D+02 -.918432472359883D+02 -.608403233702904D+01
 0.381755928303137D+03 0.177924453691119D+03 -.311633107615333D+03 0.130250849560826D+03
 0.000000000000000D+00 -.000000000000000D+00 0.000000000000000D+00 -.000000000000000D+00
 0.506514369398239D+03 0.000000000000000D+00 0.000000000000000D+00 0.506514369398239D+03
 0.622717032634667D+03 0.000000000000000D+00 0.000000000000000D+00 -.622717032634667D+03
 0.491075633015020D+03 -.246496255528667D+03 0.386461479130793D+03 -.124166817223797D+03
 0.122005087540921D+03 0.751321249173798D+02 -.959342990894754D+02 -.608403233702904D+01
 0.394511838772599D+03 0.182037082235736D+03 -.324864291376446D+03 0.130250849560826D+03
 0.121638842704365D+03 -.106729516244484D+02 0.343371113351279D+02 -.116202663236427D+03
0.174228172131D-03 0.000000000000D+00 0.000000000000D+00 0.178119798500D-04 0.889348970197D-07  6 2 -2 25 1 -1 21 2 0.49371486D+00 0.15120968D-01 0.25266692D+06 0.25266692D+06 0.25266692D+06 0.10901126D+01  1  2  1  2  6  2       -2 0.109436002010D-02 0.100000000000D+01
  </mgrwgt>
  </event>
  <event>
  7     66 0.16598358E-05 0.42894039E+02 0.75467711E-02 0.94895062E-01
        2 -1    0    0  503    0 0.00000000E+00 0.00000000E+00 0.19646871E+04 0.19646871E+04 0.32000000E+00 0.0000E+00 0.9000E+01
       -2 -1    0    0    0  501 0.00000000E+00 0.00000000E+00 -.13578072E+03 0.13578110E+03 0.32000000E+00 0.0000E+00 0.9000E+01
       23  2    1    2    0    0 -.26532555E+03 -.38291622E+03 0.58596696E+03 0.75446432E+03 0.94003458E+02 0.0000E+00 0.0000E+00
       25  1    1    2    0    0 0.27627550E+03 0.38794714E+03 0.11325967E+04 0.12350026E+04 0.12500000E+03 0.0000E+00 0.9000E+01
        1  1    3    3  502    0 -.28545945E+02 -.95922653E+02 0.91107457E+02 0.13533919E+03 0.32000000E+00 0.0000E+00 0.9000E+01
       -1  1    3    3    0  502 -.23677961E+03 -.28699357E+03 0.49485951E+03 0.61912513E+03 0.32000000E+00 0.0000E+00 0.9000E+01
       21  1    1    2  503  501 -.10949950E+02 -.50309159E+01 0.11034266E+03 0.11100125E+03 0.75000000E+00 0.0000E+00 0.9000E+01
#aMCatNLO 2  0  0  1  2 0.15156393D+01 0.00000000D+00  -5  6  0 0.00000000D+00 0.00000000D+00 0.00000000D+00 0.00000000D+00 0.00000000D+00
  <mgrwgt>
 0.6236561618D-03    1    2    0
 0.501091896300081D+03 0.000000000000000D+00 0.000000000000000D+00 0.501091896300081D+03
 0.501091896300081D+03 0.000000000000000D+00 0.000000000000000D+00 -.501091896300081D+03
 0.504478675486514D+03 0.270736794127448D+03 0.385402397373167D+03 0.130538555320774D+03
 0.113223633132280D+03 -.297762007688942D+02 -.964867837238221D+02 -.512178634274811D+02
 0.384481483981367D+03 -.240960593358554D+03 -.288915613649345D+03 -.793206918932933D+02
 0.000000000000000D+00 -.000000000000000D+00 -.000000000000000D+00 0.000000000000000D+00
 0.531037254042669D+03 0.000000000000000D+00 0.000000000000000D+00 0.531037254042669D+03
 0.502341890999010D+03 0.000000000000000D+00 0.000000000000000D+00 -.502341890999010D+03
 0.509407939216662D+03 0.276275501809906D+03 0.387947137135224D+03 0.130538555320774D+03
 0.112422121156455D+03 -.285435324856080D+02 -.959204386170312D+02 -.512178634274811D+02
 0.380426177154185D+03 -.236782019662379D+03 -.286995782662954D+03 -.793206918932933D+02
 0.311229075143762D+02 -.109499496619187D+02 -.503091585523893D+01 0.286953630436586D+02
0.309043266473D-04 0.000000000000D+00 0.000000000000D+00 0.378484297371D-05 0.166196117590D-06  6 2 -2 25 1 -1 21 2 0.30225687D+00 0.20889185D-01 0.23843246D+06 0.23843246D+06 0.23843246D+06 0.10920103D+01  1  2  1  1  6  1        2 0.623656161800D-03 0.100000000000D+01
  </mgrwgt>
  </event>
  <event>
  7     66 0.16598358E-05 0.49923760E+02 0.75467711E-02 0.91135032E-01
        2 -1    0    0  503    0 0.00000000E+00 0.00000000E+00 0.64784372E+03 0.64784380E+03 0.32000000E+00 0.0000E+00 0.9000E+01
       -2 -1    0    0    0  501 0.00000000E+00 0.00000000E+00 -.12469713E+04 0.12469713E+04 0.32000000E+00 0.0000E+00 0.9000E+01
       23  2    1    2    0    0 0.17068419E+03 -.58090675E+03 -.62800537E+03 0.87722625E+03 0.92462920E+02 0.0000E+00 0.0000E+00
       25  1    1    2    0    0 -.22455766E+03 0.63708497E+03 -.24770277E+03 0.73026370E+03 0.12500000E+03 0.0000E+00 0.9000E+01
        1  1    3    3  502    0 0.12451319E+03 -.26498152E+03 -.28413062E+03 0.40798168E+03 0.32000000E+00 0.0000E+00 0.9000E+01
       -1  1    3    3    0  502 0.46170998E+02 -.31592524E+03 -.34387475E+03 0.46924457E+03 0.32000000E+00 0.0000E+00 0.9000E+01
       21  1    1    2  503  501 0.53873473E+02 -.56178219E+02 0.27658061E+03 0.28732515E+03 0.75000000E+00 0.0000E+00 0.9000E+01
#aMCatNLO 2  0  0  1  2 0.64612509D+02 0.00000000D+00  -5  6  0 0.00000000D+00 0.00000000D+00 0.00000000D+00 0.00000000D+00 0.00000000D+00
  <mgrwgt>
 0.2756826117D-03    1    2    0
 0.672885730377369D+03 0.000000000000000D+00 0.000000000000000D+00 0.672885730377369D+03
 0.672885730377369D+03 0.000000000000000D+00 0.000000000000000D+00 -.672885730377369D+03
 0.675514560243785D+03 -.196850345232804D+03 0.608192313401279D+03 0.179016682470326D+03
 0.318482426597406D+03 0.136921873658967D+03 -.277919459550597D+03 -.737850294314077D+02
 0.351774473913547D+03 0.599284715738362D+02 -.330272853850682D+03 -.105231653038919D+03
 0.000000000000000D+00 0.000000000000000D+00 -.000000000000000D+00 0.000000000000000D+00
 0.119339716033195D+04 0.000000000000000D+00 0.000000000000000D+00 0.119339716033195D+04
 0.676926334482314D+03 0.000000000000000D+00 0.000000000000000D+00 -.676926334482314D+03
 0.709912233056964D+03 -.224557664318171D+03 0.637084971912861D+03 0.179016682470326D+03
 0.301931912500958D+03 0.124514131769134D+03 -.264980905365030D+03 -.737850294314077D+02
 0.336176317175755D+03 0.461700599595141D+02 -.315925847299466D+03 -.105231653038919D+03
 0.522303032080586D+03 0.538734725895231D+02 -.561782192483648D+02 0.516470825849633D+03
0.307803700329D-03 0.000000000000D+00 0.000000000000D+00 0.217572108706D-04 0.259910663368D-07  6 2 -2 25 1 -1 21 2 0.99668234D-01 0.19184166D+00 0.47393931D+06 0.47393931D+06 0.47393931D+06 0.10701573D+01  1  2  1  1  6  1        2 0.275682611724D-03 0.100000000000D+01
  </mgrwgt>
  </event>
  <event>
  7     66 0.16598358E-05 0.67316233E+02 0.75467711E-02 0.88741620E-01
        2 -1    0    0  501    0 0.00000000E+00 0.00000000E+00 0.27465948E+04 0.27465948E+04 0.32000000E+00 0.0000E+00 0.9000E+01
       -2 -1    0    0    0  503 0.00000000E+00 0.00000000E+00 -.55503463E+03 0.55503473E+03 0.32000000E+00 0.0000E+00 0.9000E+01
       23  2    1    2    0    0 0.83631268E+03 0.91520800E+02 0.52059172E+03 0.99328882E+03 0.88385439E+02 0.0000E+00 0.0000E+00
       25  1    1    2    0    0 -.85552405E+03 -.10452636E+03 0.18937207E+04 0.20843824E+04 0.12500000E+03 0.0000E+00 0.9000E+01
        1  1    3    3  502    0 0.36492031E+03 0.84013592E+02 0.23355479E+03 0.44133101E+03 0.32000000E+00 0.0000E+00 0.9000E+01
       -1  1    3    3    0  502 0.47139237E+03 0.75072072E+01 0.28703693E+03 0.55195781E+03 0.32000000E+00 0.0000E+00 0.9000E+01
       21  1    1    2  501  503 0.19211367E+02 0.13005564E+02 -.22275220E+03 0.22395831E+03 0.75000000E+00 0.0000E+00 0.9000E+01
#aMCatNLO 2  0  0  2  2 0.59577522D+03 0.00000000D+00  -5  6  0 0.00000000D+00 0.00000000D+00 0.00000000D+00 0.00000000D+00 0.00000000D+00
  <mgrwgt>
 0.6237080663D-03    1    2    0
 0.954282164354960D+03 0.000000000000000D+00 0.000000000000000D+00 0.954282164354960D+03
 0.954282164354960D+03 0.000000000000000D+00 0.000000000000000D+00 -.954282164354960D+03
 0.956328994557951D+03 -.845851548439609D+03 -.979783506357365D+02 0.416983868562367D+03
 0.420472074606210D+03 0.369129651496616D+03 0.868651495409406D+02 -.181643914582535D+03
 0.531763259545758D+03 0.476721896942993D+03 0.111132010947960D+02 -.235339953979833D+03
 0.000000000000000D+00 0.000000000000000D+00 0.000000000000000D+00 -.000000000000000D+00
 0.954562032631657D+03 0.000000000000000D+00 0.000000000000000D+00 0.954562032631657D+03
 0.159702007834168D+04 0.000000000000000D+00 0.000000000000000D+00 -.159702007834168D+04
 0.965581534083025D+03 -.855524045076110D+03 -.104526363265448D+03 0.416983868562367D+03
 0.416195598224000D+03 0.364918911646493D+03 0.840145951540837D+02 -.181643914582535D+03
 0.526928192807895D+03 0.471393766752030D+03 0.750620436020718D+01 -.235339953979833D+03
 0.642876785858414D+03 0.192113666775863D+02 0.130055637511575D+02 -.642458045710020D+03
0.152253553065D-02 0.000000000000D+00 0.000000000000D+00 0.623251683487D-05 0.777892407470D-07  6 2 -2 25 1 -1 21 2 0.42255296D+00 0.85389933D-01 0.75691870D+06 0.75691870D+06 0.75691870D+06 0.10560114D+01  1  2  1  2  6  2       -2 0.623708066344D-03 0.100000000000D+01
  </mgrwgt>
  </event>
  <event>
  7     66 0.16598358E-05 0.86555709E+02 0.75467711E-02 0.94970382E-01
        2 -1    0    0  501    0 0.00000000E+00 0.00000000E+00 0.52629870E+03 0.52629880E+03 0.32000000E+00 0.0000E+00 0.9000E+01
       -2 -1    0    0    0  503 0.00000000E+00 0.00000000E+00 -.48511145E+03 0.48511156E+03 0.32000000E+00 0.0000E+00 0.9000E+01
       23  2    1    2    0    0 -.45444495E+03 -.12451571E+03 0.13060406E+03 0.49810706E+03 0.95020247E+02 0.0000E+00 0.0000E+00
       25  1    1    2    0    0 0.44514063E+03 0.11487606E+03 -.58995848E+02 0.48005437E+03 0.12500000E+03 0.0000E+00 0.9000E+01
        1  1    3    3  502    0 -.22077403E+03 -.10887792E+03 0.76070378E+02 0.25764778E+03 0.32000000E+00 0.0000E+00 0.9000E+01
       -1  1    3    3    0  502 -.23367092E+03 -.15637787E+02 0.54533681E+02 0.24045928E+03 0.32000000E+00 0.0000E+00 0.9000E+01
       21  1    1    2  501  503 0.93043269E+01 0.96396518E+01 -.30420966E+02 0.33248925E+02 0.75000000E+00 0.0000E+00 0.9000E+01
#aMCatNLO 2  0  0  2  2 0.59577522D+03 0.00000000D+00  -5  6  0 0.00000000D+00 0.00000000D+00 0.00000000D+00 0.00000000D+00 0.00000000D+00
  <mgrwgt>
 0.3232687736D-02    1    2    0
 0.487722399995506D+03 0.000000000000000D+00 0.000000000000000D+00 0.487722399995506D+03
 0.487722399995506D+03 0.000000000000000D+00 0.000000000000000D+00 -.487722399995506D+03
 0.491103500457392D+03 0.449798939157380D+03 0.119702255552910D+03 -.943924388388481D+02
 0.249599285418107D+03 -.218378122063924D+03 -.106396873707559D+03 0.573629179027838D+02
 0.234742014115513D+03 -.231420817093456D+03 -.133053818453504D+02 0.370295209360643D+02
 0.000000000000000D+00 0.000000000000000D+00 0.000000000000000D+00 -.000000000000000D+00
 0.489078449256344D+03 0.000000000000000D+00 0.000000000000000D+00 0.489078449256344D+03
 0.522021596275676D+03 0.000000000000000D+00 0.000000000000000D+00 -.522021596275676D+03
 0.485676456154877D+03 0.445140627644715D+03 0.114876060052924D+03 -.943924388388481D+02
 0.252757284498080D+03 -.220773885180542D+03 -.108878979324802D+03 0.573629179027838D+02
 0.237103060915880D+03 -.233671069394738D+03 -.156367324861895D+02 0.370295209360643D+02
 0.355632439631843D+02 0.930432693056400D+01 0.963965175806734D+01 -.329431470193322D+02
0.230972512596D-03 0.000000000000D+00 0.000000000000D+00 0.418298458997D-05 0.148750190103D-06  6 2 -2 25 1 -1 21 2 0.80968393D-01 0.74631945D-01 0.23530681D+06 0.23530681D+06 0.23530681D+06 0.10924436D+01  1  2  1  2  6  2       -2 0.323268773616D-02 0.100000000000D+01
  </mgrwgt>
  </event>
  <event>
  6     66 0.16598358E-05 0.99692980E+02 0.75467711E-02 0.92663104E-01
        2 -1    0    0  501    0 0.00000000E+00 0.00000000E+00 0.16159372E+04 0.16159372E+04 0.32000000E+00 0.0000E+00 0.9000E+01
       21 -1    0    0  503  501 0.00000000E+00 0.00000000E+00 -.25941428E+03 0.25941536E+03 0.75000000E+00 0.0000E+00 0.9000E+01
       25  1    1    2    0    0 -.43512090E+03 0.39582669E+03 0.36228379E+03 0.70205663E+03 0.12500000E+03 0.0000E+00 0.9000E+01
        1  1    1    2  502    0 0.11519048E+03 -.10916914E+03 0.43908328E+03 0.46688433E+03 0.32000000E+00 0.0000E+00 0.9000E+01
        2  1    1    2  503    0 0.41159912E+01 -.18684020E+02 0.94950605E+01 0.21361005E+02 0.32000000E+00 0.0000E+00 0.9000E+01
       -1  1    1    2    0  502 0.31581442E+03 -.26797352E+03 0.54566076E+03 0.68505060E+03 0.32000000E+00 0.0000E+00 0.9000E+01
#aMCatNLO 2  0  0  2  2 0.59577522D+03 0.00000000D+00  -5  6  0 0.00000000D+00 0.00000000D+00 0.00000000D+00 0.00000000D+00 0.00000000D+00
  <mgrwgt>
 0.9266683880D-02    1    2    0
 0.636874138980396D+03 0.000000000000000D+00 0.000000000000000D+00 0.636874138980396D+03
 0.636874138980396D+03 0.000000000000000D+00 0.000000000000000D+00 -.636874138980396D+03
 0.631533181240985D+03 -.433068842956558D+03 0.386511272179754D+03 -.215103632574196D+03
 0.217197541245286D+03 0.115888593354707D+03 -.112339873248276D+03 0.145342212491163D+03
 0.000000000000000D+00 0.000000000000000D+00 -.000000000000000D+00 -.000000000000000D+00
 0.425017555474521D+03 0.317180249601852D+03 -.274171398931477D+03 0.697614200830329D+02
 0.643084574086152D+03 0.000000000000000D+00 0.000000000000000D+00 0.643084574086152D+03
 0.651853045764628D+03 0.000000000000000D+00 0.000000000000000D+00 -.651853045764628D+03
 0.638673389278442D+03 -.435121000497456D+03 0.395826780741135D+03 -.215103632574196D+03
 0.215199696883659D+03 0.115190008357995D+03 -.109168735366301D+03 0.145342212491163D+03
 0.210456661991863D+02 0.411599123649644D+01 -.186840195443173D+02 -.876847167847531D+01
 0.420018867489492D+03 0.315815000902965D+03 -.267974025830517D+03 0.697614200830329D+02
0.894721533129D-04 0.000000000000D+00 0.000000000000D+00 0.863497027026D-08 0.460898692142D-10  6 2 21 25 1 2 -1 2 0.24860534D+00 0.39909899D-01 0.35603891D+06 0.35603891D+06 0.35603891D+06 0.10790917D+01  1  2  1  6  5  2       -2 0.926668388035D-02 0.100000000000D+01
  </mgrwgt>
  </event>
  <event>
  6     66 0.16598358E-05 0.48943226E+02 0.75467711E-02 0.94813665E-01
        2 -1    0    0  501    0 0.00000000E+00 0.00000000E+00 0.10322717E+04 0.10322718E+04 0.32000000E+00 0.0000E+00 0.9000E+01
       -2 -1    0    0    0  501 0.00000000E+00 0.00000000E+00 -.25121858E+03 0.25121879E+03 0.32000000E+00 0.0000E+00 0.9000E+01
       25  1    1    2    0    0 0.17217792E+03 -.43222842E+03 0.22603595E+03 0.53215026E+03 0.12500000E+03 0.0000E+00 0.9000E+01
        1  1    1    2  503    0 -.63157320E+01 0.14664036E+03 0.16680900E+03 0.22219053E+03 0.32000000E+00 0.0000E+00 0.9000E+01
       -1  1    1    2    0  502 -.14428578E+03 0.29733071E+03 0.33522362E+03 0.47074294E+03 0.32000000E+00 0.0000E+00 0.9000E+01
       21  1    1    2  502  503 -.21576410E+02 -.11742656E+02 0.52984541E+02 0.58406811E+02 0.75000000E+00 0.0000E+00 0.9000E+01
#aMCatNLO 2  0  0  4  5 0.20073139D+01 0.00000000D+00  -5  6  0 0.00000000D+00 0.00000000D+00 0.00000000D+00 0.00000000D+00 0.00000000D+00
  <mgrwgt>
 0.8440883897D+00    1    2    0
 0.509240607849243D+03 0.000000000000000D+00 0.000000000000000D+00 0.509240607849243D+03
 0.509240607849243D+03 -.000000000000000D+00 -.000000000000000D+00 -.509240607849243D+03
 0.513503890531953D+03 0.175354511467497D+03 -.447591718129901D+03 -.130283133063994D+03
 0.179381818252985D+03 -.331252997081088D+02 0.160273451449835D+03 0.734368572268194D+02
 0.325595506913549D+03 -.142229211759389D+03 0.287318266680067D+03 0.568462758371741D+02
 0.000000000000000D+00 0.000000000000000D+00 -.000000000000000D+00 0.000000000000000D+00
 0.509240607849243D+03 0.000000000000000D+00 0.000000000000000D+00 0.509240607849243D+03
 0.509240607849243D+03 -.000000000000000D+00 -.000000000000000D+00 -.509240607849243D+03
 0.497208890771573D+03 0.172166527210477D+03 -.432166974971569D+03 -.123215557923931D+03
 0.151904942045386D+03 -.616682604312520D+01 0.146510487840474D+03 0.396454111734555D+02
 0.336250526159417D+03 -.144316802589383D+03 0.297418866236496D+03 0.614743429363775D+02
 0.331168567221098D+02 -.216828985779686D+02 -.117623791054004D+02 0.220958038140983D+02
0.373837661609D-01 0.000000000000D+00 0.000000000000D+00 0.124449936152D-05 0.408798465786D-06  6 2 -2 25 1 -1 21 2 0.15881105D+00 0.38649032D-01 0.24186284D+06 0.24186284D+06 0.24186284D+06 0.10915419D+01  1  2  1  3  6  4        1 0.844088389663D+00 0.100000000000D+01
  </mgrwgt>
  </event>
  <event>
  7     66 0.16598358E-05 0.61063832E+02 0.75467711E-02 0.94877668E-01
        2 -1    0    0  503    0 0.00000000E+00 0.00000000E+00 0.14211280E+04 0.14211280E+04 0.32000000E+00 0.0000E+00 0.9000E+01
       -2 -1    0    0    0  501 0.00000000E+00 0.00000000E+00 -.24643259E+03 0.24643280E+03 0.32000000E+00 0.0000E+00 0.9000E+01
       23  2    1    2    0    0 0.47426580E+03 0.22521900E+02 0.27077208E+03 0.55429887E+03 0.92165249E+02 0.0000E+00 0.0000E+00
       25  1    1    2    0    0 -.45334704E+03 -.40201378E+02 0.42981221E+03 0.63835979E+03 0.12500000E+03 0.0000E+00 0.9000E+01
        1  1    3    3  502    0 0.28811017E+03 -.16228494E+02 0.20137431E+03 0.35188428E+03 0.32000000E+00 0.0000E+00 0.9000E+01
       -1  1    3    3    0  502 0.18615563E+03 0.38750394E+02 0.69397768E+02 0.20241458E+03 0.32000000E+00 0.0000E+00 0.9000E+01
       21  1    1    2  503  501 -.20918758E+02 0.17679478E+02 0.47411109E+03 0.47490215E+03 0.75000000E+00 0.0000E+00 0.9000E+01
#aMCatNLO 2  0  0  1  2 0.45642644D+01 0.00000000D+00  -5  6  0 0.00000000D+00 0.00000000D+00 0.00000000D+00 0.00000000D+00 0.00000000D+00
  <mgrwgt>
 0.3549257411D-02    1    2    0
 0.482407029042830D+03 0.000000000000000D+00 0.000000000000000D+00 0.482407029042830D+03
 0.482407029042830D+03 0.000000000000000D+00 0.000000000000000D+00 -.482407029042830D+03
 0.486102335389519D+03 -.463783780396899D+03 -.313807699997501D+02 0.677519947022146D+02
 0.282215347035387D+03 0.281924064736936D+03 -.109999369939302D+02 -.658218889407481D+01
 0.196496375660754D+03 0.181859715659962D+03 0.423807069936803D+02 -.611698058081398D+02
 0.000000000000000D+00 -.000000000000000D+00 0.000000000000000D+00 0.000000000000000D+00
 0.724510865098216D+03 0.000000000000000D+00 0.000000000000000D+00 0.724510865098216D+03
 0.483376615861529D+03 0.000000000000000D+00 0.000000000000000D+00 -.483376615861529D+03
 0.476817596089042D+03 -.453347037421984D+03 -.402013782688308D+02 0.677519947022146D+02
 0.288643182355786D+03 0.288111395117714D+03 -.162291562677397D+02 -.658218889407481D+01
 0.199741959367870D+03 0.186154400528674D+03 0.387510561574850D+02 -.611698058081398D+02
 0.242684743147047D+03 -.209187582244032D+02 0.176794783790854D+02 0.241134249236687D+03
0.253861039476D-03 0.000000000000D+00 0.000000000000D+00 0.326780414571D-04 0.299075004784D-06  6 2 -2 25 1 -1 21 2 0.21863483D+00 0.37912679D-01 0.23916092D+06 0.23916092D+06 0.23916092D+06 0.10919102D+01  1  2  1  1  6  1        2 0.354925741083D-02 0.100000000000D+01
  </mgrwgt>
  </event>
  <event>
  7     66 0.16598358E-05 0.32408917E+02 0.75467711E-02 0.95214414E-01
        2 -1    0    0  503    0 0.00000000E+00 0.00000000E+00 0.92267990E+03 0.92267996E+03 0.32000000E+00 0.0000E+00 0.9000E+01
       -2 -1    0    0    0  501 0.00000000E+00 0.00000000E+00 -.32056857E+03 0.32056873E+03 0.32000000E+00 0.0000E+00 0.9000E+01
       23  2    1    2    0    0 0.21439440E+03 -.36732006E+03 0.23447358E+03 0.49395930E+03 0.90160631E+02 0.0000E+00 0.0000E+00
       25  1    1    2    0    0 -.24087883E+03 0.39356089E+03 0.11207179E+03 0.49101718E+03 0.12500000E+03 0.0000E+00 0.9000E+01
        1  1    3    3  502    0 0.81192468E+02 -.64967327E+02 0.47398417E+02 0.11427897E+03 0.32000000E+00 0.0000E+00 0.9000E+01
       -1  1    3    3    0  502 0.13320193E+03 -.30235274E+03 0.18707516E+03 0.37968033E+03 0.32000000E+00 0.0000E+00 0.9000E+01
       21  1    1    2  503  501 0.26484436E+02 -.26240826E+02 0.25556597E+03 0.25827221E+03 0.75000000E+00 0.0000E+00 0.9000E+01
#aMCatNLO 2  0  0  1  2 0.45642644D+01 0.00000000D+00  -5  6  0 0.00000000D+00 0.00000000D+00 0.00000000D+00 0.00000000D+00 0.00000000D+00
  <mgrwgt>
 0.6334181269D-02    1    2    0
 0.460623208568490D+03 0.000000000000000D+00 0.000000000000000D+00 0.460623208568490D+03
 0.460623208568490D+03 0.000000000000000D+00 0.000000000000000D+00 -.460623208568490D+03
 0.464691642714290D+03 -.227270221027556D+03 0.380077453734031D+03 -.648282238353553D+02
 0.108536376290257D+03 0.842494398360982D+02 -.679938390025677D+02 0.768210408786962D+01
 0.348018398132434D+03 0.143020781191458D+03 -.312083614731463D+03 0.571461197474856D+02
 0.000000000000000D+00 0.000000000000000D+00 -.000000000000000D+00 0.000000000000000D+00
 0.638900536952901D+03 0.000000000000000D+00 0.000000000000000D+00 0.638900536952901D+03
 0.462953612711961D+03 0.000000000000000D+00 0.000000000000000D+00 -.462953612711961D+03
 0.482431844584362D+03 -.240878832289869D+03 0.393560890102272D+03 -.648282238353553D+02
 0.104266438063437D+03 0.811918123831824D+02 -.649643362557776D+02 0.768210408786962D+01
 0.335302241963170D+03 0.133202584215793D+03 -.302355727614955D+03 0.571461197474856D+02
 0.179853625053893D+03 0.264844356908936D+02 -.262408262315396D+02 0.175946924240941D+03
0.379848534286D-03 0.000000000000D+00 0.000000000000D+00 0.187608506665D-04 0.905393515193D-07  6 2 -2 25 1 -1 21 2 0.14195053D+00 0.49318175D-01 0.22549140D+06 0.22549140D+06 0.22549140D+06 0.10938462D+01  1  2  1  1  6  1        2 0.633418126883D-02 0.100000000000D+01
  </mgrwgt>
  </event>
  <event>
  7     66 0.16598358E-05 0.25487757E+02 0.75467711E-02 0.95135370E-01
        2 -1    0    0  503    0 0.00000000E+00 0.00000000E+00 0.64840839E+03 0.64840847E+03 0.32000000E+00 0.0000E+00 0.9000E+01
       -2 -1    0    0    0  501 0.00000000E+00 0.00000000E+00 -.52156989E+03 0.52156999E+03 0.32000000E+00 0.0000E+00 0.9000E+01
       23  2    1    2    0    0 0.32362313E+03 -.31338666E+03 -.45994850E+02 0.46191675E+03 0.91150604E+02 0.0000E+00 0.0000E+00
       25  1    1    2    0    0 -.34255550E+03 0.30724730E+03 -.54427543E+02 0.47992972E+03 0.12500000E+03 0.0000E+00 0.9000E+01
        1  1    3    3  502    0 0.15964932E+02 -.56590413E+02 -.86634072E+01 0.59434930E+02 0.32000000E+00 0.0000E+00 0.9000E+01
       -1  1    3    3    0  502 0.30765820E+03 -.25679624E+03 -.37331443E+02 0.40248182E+03 0.32000000E+00 0.0000E+00 0.9000E+01
       21  1    1    2  503  501 0.18932367E+02 0.61393547E+01 0.22726090E+03 0.22813199E+03 0.75000000E+00 0.0000E+00 0.9000E+01
#aMCatNLO 2  0  0  1  2 0.11835244D+01 0.00000000D+00  -5  6  0 0.00000000D+00 0.00000000D+00 0.00000000D+00 0.00000000D+00 0.00000000D+00
  <mgrwgt>
 0.3193608316D-02    1    2    0
 0.468132990826008D+03 0.000000000000000D+00 0.000000000000000D+00 0.468132990826008D+03
 0.468132990826008D+03 0.000000000000000D+00 0.000000000000000D+00 -.468132990826008D+03
 0.472040303259698D+03 -.332962812658764D+03 0.310358002182365D+03 -.327471666615783D+01
 0.588074393176749D+02 0.171507097460100D+02 -.562022579030492D+02 -.233971812603274D+01
 0.405418239074644D+03 0.315812102912754D+03 -.254155744279316D+03 0.561443479219057D+01
 0.000000000000000D+00 0.000000000000000D+00 0.000000000000000D+00 0.000000000000000D+00
 0.721656598460134D+03 0.000000000000000D+00 0.000000000000000D+00 0.721656598460134D+03
 0.468629535420757D+03 0.000000000000000D+00 0.000000000000000D+00 -.468629535420757D+03
 0.476844732092232D+03 -.342555498605227D+03 0.307247302885141D+03 -.327471666615783D+01
 0.588424519326689D+02 0.159613365170588D+02 -.565879457581592D+02 -.233971812603274D+01
 0.400790319501442D+03 0.307661794686108D+03 -.256798711870904D+03 0.561443479219057D+01
 0.253808630354547D+03 0.189323674020603D+02 0.613935474392312D+01 0.253027063039377D+03
0.340915935420D-03 0.000000000000D+00 0.000000000000D+00 0.201860099581D-04 0.354028950980D-06  6 2 -2 25 1 -1 21 2 0.99755033D-01 0.80241440D-01 0.22861945D+06 0.22861945D+06 0.22861945D+06 0.10933921D+01  1  2  1  1  6  1        2 0.319360831609D-02 0.100000000000D+01
  </mgrwgt>
  </event>
  <event>
  7     66 -.16598358E-05 0.25567356E+02 0.75467711E-02 0.95117155E-01
        2 -1    0    0  501    0 0.00000000E+00 0.00000000E+00 0.10076296E+04 0.10076297E+04 0.32000000E+00 0.0000E+00 0.9000E+01
       -2 -1    0    0    0  503 0.00000000E+00 0.00000000E+00 -.23381988E+03 0.23382010E+03 0.32000000E+00 0.0000E+00 0.9000E+01
       23  2    1    2    0    0 0.24074681E+03 0.38385148E+03 0.45429964E+03 0.64906758E+03 0.97977450E+02 0.0000E+00 0.0000E+00
       25  1    1    2    0    0 -.24097809E+03 -.39708033E+03 0.32208229E+03 0.57888275E+03 0.12500000E+03 0.0000E+00 0.9000E+01
        1  1    3    3  502    0 0.40930701E+02 0.14128240E+02 0.43553787E+02 0.61416319E+02 0.32000000E+00 0.0000E+00 0.9000E+01
       -1  1    3    3    0  502 0.19981610E+03 0.36972324E+03 0.41074585E+03 0.58765126E+03 0.32000000E+00 0.0000E+00 0.9000E+01
       21  1    1    2  501  503 0.23128725E+00 0.13228853E+02 -.25722080E+01 0.13499437E+02 0.75000000E+00 0.0000E+00 0.9000E+01
#aMCatNLO 2  0  0  2  1 0.13230874D+02 0.00000000D+00  -5  6  0 0.00000000D+00 0.00000000D+00 0.00000000D+00 0.00000000D+00 0.00000000D+00
  <mgrwgt>
 -.1856504941D-02    4    2    0
 0.475635901442360D+03 0.000000000000000D+00 0.000000000000000D+00 0.475635901442360D+03
 0.475635901442360D+03 0.000000000000000D+00 0.000000000000000D+00 -.475635901442360D+03
 0.478802936889618D+03 -.240861013166463D+03 -.390383709604783D+03 -.566902459489900D+02
 0.439351594448922D+02 0.409396587985761D+02 0.147339414758418D+02 0.609537049659282D+01
 0.428533706550210D+03 0.199921354367887D+03 0.375649768128942D+03 0.505948754523972D+02
 0.000000000000000D+00 0.000000000000000D+00 0.000000000000000D+00 -.000000000000000D+00
 0.478268052845462D+03 0.000000000000000D+00 0.000000000000000D+00 0.478268052845462D+03
 0.492604374612152D+03 0.000000000000000D+00 0.000000000000000D+00 -.492604374612152D+03
 0.484336675901619D+03 -.240978093870098D+03 -.397080331812604D+03 -.566902459489900D+02
 0.437245575834236D+02 0.409290027511934D+02 0.141244514289296D+02 0.609537049659282D+01
 0.423302576524814D+03 0.199817803864846D+03 0.369727027858571D+03 0.505948754523972D+02
 0.195086174477566D+02 0.231287254058653D+00 0.132288525251034D+02 -.143363217666906D+02
-.735043933854D-04 0.000000000000D+00 0.000000000000D+00 0.440397281547D-06 0.000000000000D+00  6 2 -2 25 1 -1 21 2 0.15416449D+00 0.36065821D-01 0.22934715D+06 0.22934715D+06 0.22934715D+06 0.10932874D+01  1  2 13  2  6  2       -2 -.197730720074D-02 0.100000000000D+01
-.820291409848D-06 0.000000000000D+00 0.000000000000D+00 0.440397281547D-06 0.000000000000D+00  6 2 -2 25 1 -1 21 2 0.15416449D+00 0.36161416D-01 0.22934715D+06 0.22934715D+06 0.22934715D+06 0.10932874D+01  1  2 13  2  6  2       -2 -.219593133945D-04 0.100000000000D+01
-.258414925511D-04 0.000000000000D+00 0.000000000000D+00 0.440397281547D-06 0.000000000000D+00  6 2 -2 25 1 -1 21 2 0.15416449D+00 0.34732671D-01 0.22301146D+06 0.22301146D+06 0.22301146D+06 0.10942112D+01  1  2  8  2  6  2       -2 -.746456836899D-03 0.100000000000D+01
0.331580530835D-04 0.000000000000D+00 0.000000000000D+00 0.440397281547D-06 0.158495256000D-07  6 2 -2 25 1 -1 21 2 0.15501763D+00 0.35971771D-01 0.22934715D+06 0.22934715D+06 0.22934715D+06 0.10932874D+01  1  2  1  2  6  2       -2 0.889218410268D-03 0.100000000000D+01
  </mgrwgt>
  </event>
  <event>
  7     66 0.16598358E-05 0.77202937E+02 0.75467711E-02 0.90695653E-01
        2 -1    0    0  501    0 0.00000000E+00 0.00000000E+00 0.82982000E+03 0.82982006E+03 0.32000000E+00 0.0000E+00 0.9000E+01
       -2 -1    0    0    0  503 0.00000000E+00 0.00000000E+00 -.62985928E+03 0.62985936E+03 0.32000000E+00 0.0000E+00 0.9000E+01
       23  2    1    2    0    0 0.52750140E+03 0.47700895E+03 0.71831185E+02 0.72050862E+03 0.90430498E+02 0.0000E+00 0.0000E+00
       25  1    1    2    0    0 -.51511457E+03 -.47585053E+03 0.13490681E+03 0.72498386E+03 0.12500000E+03 0.0000E+00 0.9000E+01
        1  1    3    3  502    0 0.28271836E+03 0.25878509E+03 0.83910773E+02 0.39235254E+03 0.32000000E+00 0.0000E+00 0.9000E+01
       -1  1    3    3    0  502 0.24478304E+03 0.21822386E+03 -.12079588E+02 0.32815608E+03 0.32000000E+00 0.0000E+00 0.9000E+01
       21  1    1    2  501  503 -.12386833E+02 -.11584235E+01 -.67772720E+01 0.14186948E+02 0.75000000E+00 0.0000E+00 0.9000E+01
#aMCatNLO 2  0  0  2  1 0.13230874D+02 0.00000000D+00  -5  6  0 0.00000000D+00 0.00000000D+00 0.00000000D+00 0.00000000D+00 0.00000000D+00
  <mgrwgt>
 0.6712741275D-02    1    2    0
 0.715288947935145D+03 0.000000000000000D+00 0.000000000000000D+00 0.715288947935145D+03
 0.715288947935145D+03 0.000000000000000D+00 0.000000000000000D+00 -.715288947935145D+03
 0.717891855822829D+03 -.521309311324651D+03 -.476429866309568D+03 0.315420524254585D+02
 0.381659911655952D+03 0.279402804330793D+03 0.258475481981290D+03 0.280853398031386D+02
 0.331026128391508D+03 0.241906506993858D+03 0.217954384328278D+03 -.596273922285971D+02
 0.000000000000000D+00 -.000000000000000D+00 -.000000000000000D+00 -.000000000000000D+00
 0.718514772607425D+03 0.000000000000000D+00 0.000000000000000D+00 0.718514772607425D+03
 0.727412458761093D+03 0.000000000000000D+00 0.000000000000000D+00 -.727412458761093D+03
 0.713019387827032D+03 -.515114568716687D+03 -.475850530567999D+03 0.315420524254585D+02
 0.384302889482075D+03 0.282718832785655D+03 0.258785598789289D+03 0.280853398031386D+02
 0.333309713012809D+03 0.244782569056413D+03 0.218223355236878D+03 -.596273922285971D+02
 0.152952410466018D+02 -.123868331253810D+02 -.115842345816825D+01 -.889768615366841D+01
0.163141294121D-02 0.000000000000D+00 0.000000000000D+00 0.401807297234D-04 0.157785376426D-05  6 2 -2 25 1 -1 21 2 0.12766300D+00 0.96900202D-01 0.51550271D+06 0.51550271D+06 0.51550271D+06 0.10675744D+01  1  2  1  2  6  2       -2 0.671274127481D-02 0.100000000000D+01
  </mgrwgt>
  </event>
  <event>
  7     66 0.16598358E-05 0.45720383E+02 0.75467711E-02 0.94477828E-01
        2 -1    0    0  501    0 0.00000000E+00 0.00000000E+00 0.19966156E+04 0.19966157E+04 0.32000000E+00 0.0000E+00 0.9000E+01
       -2 -1    0    0    0  503 0.00000000E+00 0.00000000E+00 -.21500115E+03 0.21500139E+03 0.32000000E+00 0.0000E+00 0.9000E+01
       23  2    1    2    0    0 0.36446634E+03 0.32358372E+03 0.15375630E+04 0.16155350E+04 0.91166177E+02 0.0000E+00 0.0000E+00
       25  1    1    2    0    0 -.37432425E+03 -.30807868E+03 0.26641669E+03 0.56712782E+03 0.12500000E+03 0.0000E+00 0.9000E+01
        1  1    3    3  502    0 0.11771240E+03 0.56765816E+02 0.34975946E+03 0.37337696E+03 0.32000000E+00 0.0000E+00 0.9000E+01
       -1  1    3    3    0  502 0.24675394E+03 0.26681790E+03 0.11878035E+04 0.12421580E+04 0.32000000E+00 0.0000E+00 0.9000E+01
       21  1    1    2  501  503 0.98579072E+01 -.15505044E+02 -.22365171E+02 0.28954241E+02 0.75000000E+00 0.0000E+00 0.9000E+01
#aMCatNLO 2  0  0  2  1 0.13230874D+02 0.00000000D+00  -5  6  0 0.00000000D+00 0.00000000D+00 0.00000000D+00 0.00000000D+00 0.00000000D+00
  <mgrwgt>
 0.9370505487D-03    1    2    0
 0.614275336138171D+03 0.000000000000000D+00 0.000000000000000D+00 0.614275336138171D+03
 0.614275336138171D+03 0.000000000000000D+00 0.000000000000000D+00 -.614275336138171D+03
 0.617251903687951D+03 -.369375514426135D+03 -.315862312489433D+03 -.359399000412711D+03
 0.149991835470796D+03 0.118913298377481D+03 0.548718921925372D+02 0.731180800082783D+02
 0.461306933117596D+03 0.250462216048654D+03 0.260990420296896D+03 0.286280920404432D+03
 0.000000000000000D+00 0.000000000000000D+00 -.000000000000000D+00 -.000000000000000D+00
 0.615357741673875D+03 0.000000000000000D+00 0.000000000000000D+00 0.615357741673875D+03
 0.697598482247103D+03 0.000000000000000D+00 0.000000000000000D+00 -.697598482247103D+03
 0.616298431432617D+03 -.374324249987678D+03 -.308078676574363D+03 -.359399000412711D+03
 0.149746962594943D+03 0.117710811533669D+03 0.567632278010969D+02 0.731180800082783D+02
 0.462642662013690D+03 0.246755531296263D+03 0.266820492283115D+03 0.286280920404432D+03
 0.842681678797282D+02 0.985790715774564D+01 -.155050435098488D+02 -.822407405732282D+02
0.108285303915D-03 0.000000000000D+00 0.000000000000D+00 0.213324998301D-04 0.403180397834D-06  6 2 -2 25 1 -1 21 2 0.30717083D+00 0.33077031D-01 0.25661405D+06 0.25661405D+06 0.25661405D+06 0.10896070D+01  1  2  1  2  6  2       -2 0.937050548747D-03 0.100000000000D+01
  </mgrwgt>
  </event>
  <event>
  7     66 0.16598358E-05 0.66244152E+02 0.75467711E-02 0.94499080E-01
        2 -1    0    0  501    0 0.00000000E+00 0.00000000E+00 0.15396786E+04 0.15396787E+04 0.32000000E+00 0.0000E+00 0.9000E+01
       21 -1    0    0  503  501 0.00000000E+00 0.00000000E+00 -.42144760E+03 0.42144826E+03 0.75000000E+00 0.0000E+00 0.9000E+01
       23  2    1    2    0    0 0.46459728E+03 -.92654987E+02 0.79648553E+03 0.93119919E+03 0.91143601E+02 0.0000E+00 0.0000E+00
       25  1    1    2    0    0 -.48578582E+03 0.83079045E+02 0.57961157E+03 0.77101528E+03 0.12500000E+03 0.0000E+00 0.9000E+01
        1  1    3    3  502    0 0.18748495E+03 -.74803014E+02 0.38627856E+03 0.43584094E+03 0.32000000E+00 0.0000E+00 0.9000E+01
        2  1    1    2  503    0 0.21188545E+02 0.95759416E+01 -.25786606E+03 0.25891246E+03 0.32000000E+00 0.0000E+00 0.9000E+01
       -1  1    3    3    0  502 0.27711233E+03 -.17851973E+02 0.41020697E+03 0.49535825E+03 0.32000000E+00 0.0000E+00 0.9000E+01
#aMCatNLO 2  0  0  2  1 0.13230874D+02 0.00000000D+00  -5  6  0 0.00000000D+00 0.00000000D+00 0.00000000D+00 0.00000000D+00 0.00000000D+00
  <mgrwgt>
 0.1461202913D-02    1    2    0
 0.500836855186789D+03 0.000000000000000D+00 0.000000000000000D+00 0.500836855186789D+03
 0.500836855186789D+03 0.000000000000000D+00 0.000000000000000D+00 -.500836855186789D+03
 0.504489663485467D+03 -.475016910892923D+03 0.879459414045136D+02 -.742244320954911D+02
 0.213236404340133D+03 0.191958881559612D+03 -.727812697416659D+02 0.576579456890597D+02
 0.000000000000000D+00 0.000000000000000D+00 0.000000000000000D+00 -.000000000000000D+00
 0.283947642547978D+03 0.283058029333312D+03 -.151646716628478D+02 0.165664864064314D+02
 0.501142035363530D+03 0.000000000000000D+00 0.000000000000000D+00 0.501142035363530D+03
 0.129483143364390D+04 0.000000000000000D+00 0.000000000000000D+00 -.129483143364390D+04
 0.513832908410319D+03 -.485785820823980D+03 0.830790450828676D+02 -.742244320954911D+02
 0.209929098963178D+03 0.187483844555846D+03 -.748037159569553D+02 0.576579456890597D+02
 0.794029920120129D+03 0.211885451592446D+02 0.957594159081568D+01 -.793689398280374D+03
 0.278181541513807D+03 0.277113431108890D+03 -.178512707167281D+02 0.165664864064314D+02
0.353707091214D-04 0.000000000000D+00 0.000000000000D+00 0.519812676943D-04 0.962082395872D-07  6 2 21 25 1 2 -1 2 0.23687367D+00 0.64838141D-01 0.25565124D+06 0.25565124D+06 0.25565124D+06 0.10897295D+01  1  2  1  6  5  2       -2 0.146120291341D-02 0.100000000000D+01
  </mgrwgt>
  </event>
</LesHouchesEvents>
