<event>
 5    0  0.1911311E+001  0.4945087E+03  0.7546771E-02  0.1015222E+00
         21   -1    0    0  502  501  0.00000000000E+00  0.00000000000E+00  0.14323721337E+03  0.14323721337E+03  0.00000000000E+00 0. -1.
         21   -1    0    0  504  502 -0.00000000000E+00 -0.00000000000E+00 -0.17055906733E+04  0.17055906733E+04  0.00000000000E+00 0. -1.
         25    1    1    2    0    0  0.47835451496E+03 -0.95308701404E+01 -0.66512626988E+03  0.82881351000E+03  0.12500000000E+03 0.  0.
         21    1    1    2  503  501 -0.45236696554E+03  0.53061536998E+00 -0.80074948841E+03  0.91969337078E+03  0.00000000000E+00 0. -1.
         21    1    1    2  504  503 -0.25987549420E+02  0.90002547705E+01 -0.96477701609E+02  0.10032100587E+03  0.00000000000E+00 0. -1.
<mgrwt>
<rscale>  4 0.49450873E+03</rscale>
<asrwt>0</asrwt>
<pdfrwt beam="1">  1       21 0.22036494E-01 0.49450873E+03</pdfrwt>
<pdfrwt beam="2">  1       21 0.26239857E+00 0.49450873E+03</pdfrwt>
<totfact> 0.86438485E+02</totfact>
</mgrwt>
</event>
<event>
 5    0  0.1911311E+001  0.2445491E+03  0.7546771E-02  0.1116799E+00
         21   -1    0    0  504  501  0.00000000000E+00  0.00000000000E+00  0.87030269865E+03  0.87030269865E+03  0.00000000000E+00 0. -1.
         21   -1    0    0  503  502 -0.00000000000E+00 -0.00000000000E+00 -0.17680207266E+04  0.17680207266E+04  0.00000000000E+00 0. -1.
         25    1    1    2    0    0 -0.24618908095E+03 -0.57275834738E+02  0.31920832138E+02  0.28378429194E+03  0.12500000000E+03 0.  0.
         21    1    1    2  503  501  0.20387253435E+03  0.43233817851E+02 -0.16347695884E+04  0.16480002368E+04  0.00000000000E+00 0. -1.
         21    1    1    2  504  502  0.42316546607E+02  0.14042016887E+02  0.70513072829E+03  0.70653889655E+03  0.00000000000E+00 0. -1.
<mgrwt>
<rscale>  4 0.24454906E+03</rscale>
<asrwt>0</asrwt>
<pdfrwt beam="1">  1       21 0.13389272E+00 0.24454906E+03</pdfrwt>
<pdfrwt beam="2">  1       21 0.27200319E+00 0.24454906E+03</pdfrwt>
<totfact> 0.18238922E+01</totfact>
</mgrwt>
</event>
<event>
 5    0  0.1911311E+001  0.2955487E+03  0.7546771E-02  0.1087487E+00
         21   -1    0    0  504  501  0.00000000000E+00  0.00000000000E+00  0.29359442730E+03  0.29359442730E+03  0.00000000000E+00 0. -1.
         21   -1    0    0  503  502 -0.00000000000E+00 -0.00000000000E+00 -0.46926688792E+03  0.46926688792E+03  0.00000000000E+00 0. -1.
         25    1    1    2    0    0 -0.29876679672E+03  0.28912887282E+02 -0.46061926829E+02  0.32839649051E+03  0.12500000000E+03 0.  0.
         21    1    1    2  503  501  0.25418688896E+03 -0.12045509251E+02 -0.21732043357E+03  0.33464046328E+03  0.00000000000E+00 0. -1.
         21    1    1    2  504  502  0.44579907759E+02 -0.16867378031E+02  0.87709899780E+02  0.99824361440E+02  0.00000000000E+00 0. -1.
<mgrwt>
<rscale>  4 0.29554866E+03</rscale>
<asrwt>0</asrwt>
<pdfrwt beam="1">  1       21 0.45168374E-01 0.29554866E+03</pdfrwt>
<pdfrwt beam="2">  1       21 0.72194905E-01 0.29554866E+03</pdfrwt>
<totfact> 0.76542118E+03</totfact>
</mgrwt>
</event>
