<event>
 5    0  0.1856407E+000  0.2363968E+03  0.7546771E-02  0.1122217E+00
         21   -1    0    0  502  501  0.00000000000E+00  0.00000000000E+00  0.11248432120E+03  0.11248432120E+03  0.00000000000E+00 0.  1.
         21   -1    0    0  503  502 -0.00000000000E+00 -0.00000000000E+00 -0.58725810769E+03  0.58725810769E+03  0.00000000000E+00 0.  1.
         25    1    1    2    0    0  0.14945298283E+03  0.14958017609E+03 -0.13081865840E+03  0.27829650472E+03  0.12500000000E+03 0.  0.
         21    1    1    2  503  504 -0.16135927909E+03 -0.98787980369E+02 -0.24466171409E+03  0.30928180735E+03  0.00000000000E+00 0.  1.
         21    1    1    2  504  501  0.11906296265E+02 -0.50792195721E+02 -0.99293414002E+02  0.11216411682E+03  0.00000000000E+00 0.  1.
<mgrwt>
<rscale>  4 0.23639678E+03</rscale>
<asrwt>0</asrwt>
<pdfrwt beam="1">  1       21 0.17305280E-01 0.23639678E+03</pdfrwt>
<pdfrwt beam="2">  1       21 0.90347400E-01 0.23639678E+03</pdfrwt>
<totfact> 0.30718817E+04</totfact>
</mgrwt>
</event>
<event>
 5    0  0.2870283E+000  0.2295136E+03  0.7546771E-02  0.1126983E+00
         21   -1    0    0  502  501  0.00000000000E+00  0.00000000000E+00  0.24783213826E+03  0.24783213826E+03  0.00000000000E+00 0. -1.
         21   -1    0    0  503  502 -0.00000000000E+00 -0.00000000000E+00 -0.21726449668E+03  0.21726449668E+03  0.00000000000E+00 0. -1.
         25    1    1    2    0    0  0.43933838584E+02  0.20022823938E+03  0.60347197619E+02  0.24756476784E+03  0.12500000000E+03 0.  0.
         21    1    1    2  503  504 -0.26242061644E+02 -0.18474282864E+03 -0.41656693205E+02  0.19119058194E+03  0.00000000000E+00 0. -1.
         21    1    1    2  504  501 -0.17691776941E+02 -0.15485410740E+02  0.11877137168E+02  0.26341285170E+02  0.00000000000E+00 0. -1.
<mgrwt>
<rscale>  4 0.22951361E+03</rscale>
<asrwt>0</asrwt>
<pdfrwt beam="1">  1       21 0.38128021E-01 0.22951361E+03</pdfrwt>
<pdfrwt beam="2">  1       21 0.33425307E-01 0.22951361E+03</pdfrwt>
<totfact> 0.56242358E+04</totfact>
</mgrwt>
</event>
<event>
 5    0  0.1856407E+000  0.2604315E+03  0.7546771E-02  0.1106884E+00
         21   -1    0    0  502  501  0.00000000000E+00  0.00000000000E+00  0.12255347658E+04  0.12255347658E+04  0.00000000000E+00 0. -1.
         21   -1    0    0  503  502 -0.00000000000E+00 -0.00000000000E+00 -0.23616460278E+03  0.23616460278E+03  0.00000000000E+00 0.  1.
         25    1    1    2    0    0  0.23184136939E+03 -0.13276762412E+02  0.10926605680E+04  0.11240368365E+04  0.12500000000E+03 0.  0.
         21    1    1    2  503  504 -0.36767706935E+02  0.10052639426E+03 -0.23746405701E+02  0.10964174387E+03  0.00000000000E+00 0.  1.
         21    1    1    2  504  501 -0.19507366245E+03 -0.87249631843E+02 -0.79543999264E+02  0.22802078821E+03  0.00000000000E+00 0.  1.
<mgrwt>
<rscale>  4 0.26043150E+03</rscale>
<asrwt>0</asrwt>
<pdfrwt beam="1">  1       21 0.18854381E+00 0.26043150E+03</pdfrwt>
<pdfrwt beam="2">  1       21 0.36333016E-01 0.26043150E+03</pdfrwt>
<totfact> 0.10922237E+03</totfact>
</mgrwt>
</event>
<event>
 5    0  0.3118176E+000  0.2771303E+03  0.7546771E-02  0.1097267E+00
         21   -1    0    0  502  501  0.00000000000E+00  0.00000000000E+00  0.74501338358E+03  0.74501338358E+03  0.00000000000E+00 0.  1.
         21   -1    0    0  503  502 -0.00000000000E+00 -0.00000000000E+00 -0.94050819172E+02  0.94050819172E+02  0.00000000000E+00 0.  1.
         25    1    1    2    0    0  0.24535002676E+03  0.31297640884E+02  0.30248692842E+03  0.41024324470E+03  0.12500000000E+03 0.  0.
         21    1    1    2  503  504 -0.22565726870E+03 -0.19642880964E+02  0.30797943638E+03  0.38230665561E+03  0.00000000000E+00 0.  1.
         21    1    1    2  504  501 -0.19692758065E+02 -0.11654759920E+02  0.40496199610E+02  0.46514302444E+02  0.00000000000E+00 0.  1.
<mgrwt>
<rscale>  4 0.27713025E+03</rscale>
<asrwt>0</asrwt>
<pdfrwt beam="1">  1       21 0.11461744E+00 0.27713025E+03</pdfrwt>
<pdfrwt beam="2">  1       21 0.14469357E-01 0.27713025E+03</pdfrwt>
<totfact> 0.23676459E+04</totfact>
</mgrwt>
</event>
<event>
 5    0  0.1856407E+000  0.3595364E+03  0.7546771E-02  0.1058768E+00
         21   -1    0    0  502  501  0.00000000000E+00  0.00000000000E+00  0.68862760770E+03  0.68862760770E+03  0.00000000000E+00 0. -1.
         21   -1    0    0  503  502 -0.00000000000E+00 -0.00000000000E+00 -0.48034706801E+03  0.48034706801E+03  0.00000000000E+00 0.  1.
         25    1    1    2    0    0 -0.33378408571E+03 -0.47218665228E+02  0.56600937115E+03  0.67054681153E+03  0.12500000000E+03 0.  0.
         21    1    1    2  503  504  0.13188789935E+03  0.55380076125E+02 -0.12249494556E+03  0.18832520414E+03  0.00000000000E+00 0.  1.
         21    1    1    2  504  501  0.20189618636E+03 -0.81614108967E+01 -0.23523388590E+03  0.31010266005E+03  0.00000000000E+00 0.  1.
<mgrwt>
<rscale>  4 0.35953639E+03</rscale>
<asrwt>0</asrwt>
<pdfrwt beam="1">  1       21 0.10594271E+00 0.35953639E+03</pdfrwt>
<pdfrwt beam="2">  1       21 0.73899549E-01 0.35953639E+03</pdfrwt>
<totfact> 0.10415253E+03</totfact>
</mgrwt>
</event>
<event>
 5    0  0.1856407E+000  0.3603984E+03  0.7546771E-02  0.1058426E+00
         21   -1    0    0  502  501  0.00000000000E+00  0.00000000000E+00  0.10409365520E+04  0.10409365520E+04  0.00000000000E+00 0.  1.
         21   -1    0    0  503  502 -0.00000000000E+00 -0.00000000000E+00 -0.29686390079E+03  0.29686390079E+03  0.00000000000E+00 0.  1.
         25    1    1    2    0    0 -0.28467086031E+03 -0.18842549988E+03  0.88327609371E+03  0.95516664799E+03  0.12500000000E+03 0.  0.
         21    1    1    2  503  504  0.21520061188E+02  0.95943306931E+01 -0.45033941836E+02  0.50825388659E+02  0.00000000000E+00 0.  1.
         21    1    1    2  504  501  0.26315079912E+03  0.17883116919E+03 -0.94169500672E+02  0.33180841612E+03  0.00000000000E+00 0.  1.
<mgrwt>
<rscale>  4 0.36039835E+03</rscale>
<asrwt>0</asrwt>
<pdfrwt beam="1">  1       21 0.16014408E+00 0.36039835E+03</pdfrwt>
<pdfrwt beam="2">  1       21 0.45671370E-01 0.36039835E+03</pdfrwt>
<totfact> 0.10159352E+03</totfact>
</mgrwt>
</event>
<event>
 5    0  0.1856407E+000  0.2229857E+03  0.7546771E-02  0.1131676E+00
         21   -1    0    0  502  501  0.00000000000E+00  0.00000000000E+00  0.48093685098E+03  0.48093685098E+03  0.00000000000E+00 0.  1.
         21   -1    0    0  503  502 -0.00000000000E+00 -0.00000000000E+00 -0.19670885351E+03  0.19670885351E+03  0.00000000000E+00 0.  1.
         25    1    1    2    0    0 -0.24291267326E+03 -0.57175003962E+02  0.79988990970E+02  0.29034253320E+03  0.12500000000E+03 0.  0.
         21    1    1    2  503  504  0.84380893430E+02  0.54575020165E+02  0.20548910702E+03  0.22874514444E+03  0.00000000000E+00 0.  1.
         21    1    1    2  504  501  0.15853177983E+03  0.25999837972E+01 -0.12501005197E+01  0.15855802686E+03  0.00000000000E+00 0.  1.
<mgrwt>
<rscale>  4 0.22298575E+03</rscale>
<asrwt>0</asrwt>
<pdfrwt beam="1">  1       21 0.73990285E-01 0.22298575E+03</pdfrwt>
<pdfrwt beam="2">  1       21 0.30262901E-01 0.22298575E+03</pdfrwt>
<totfact> 0.16856113E+04</totfact>
</mgrwt>
</event>
<event>
 5    0  0.5020653E+000  0.2983595E+03  0.7546771E-02  0.1086064E+00
         21   -1    0    0  502  501  0.00000000000E+00  0.00000000000E+00  0.29776946928E+03  0.29776946928E+03  0.00000000000E+00 0. -1.
         21   -1    0    0  503  502 -0.00000000000E+00 -0.00000000000E+00 -0.27859758948E+03  0.27859758948E+03  0.00000000000E+00 0. -1.
         25    1    1    2    0    0  0.37539514559E+02 -0.26829862552E+03  0.83386074043E+01  0.29847596215E+03  0.12500000000E+03 0.  0.
         21    1    1    2  503  504 -0.37353938733E+02  0.24123466060E+03  0.28201089483E+02  0.24573314726E+03  0.00000000000E+00 0. -1.
         21    1    1    2  504  501 -0.18557582545E+00  0.27063964919E+02 -0.17367817094E+02  0.32157949345E+02  0.00000000000E+00 0. -1.
<mgrwt>
<rscale>  4 0.29835946E+03</rscale>
<asrwt>0</asrwt>
<pdfrwt beam="1">  1       21 0.45810688E-01 0.29835946E+03</pdfrwt>
<pdfrwt beam="2">  1       21 0.42861168E-01 0.29835946E+03</pdfrwt>
<totfact> 0.22727632E+04</totfact>
</mgrwt>
</event>
<event>
 5    0  0.2951778E+000  0.2446182E+03  0.7546771E-02  0.1116754E+00
         21   -1    0    0  502  501  0.00000000000E+00  0.00000000000E+00  0.43393330063E+02  0.43393330063E+02  0.00000000000E+00 0.  1.
         21   -1    0    0  503  502 -0.00000000000E+00 -0.00000000000E+00 -0.13955604534E+04  0.13955604534E+04  0.00000000000E+00 0.  1.
         25    1    1    2    0    0  0.17943116312E+03  0.12932702407E+03 -0.59649121892E+03  0.64834234453E+03  0.12500000000E+03 0.  0.
         21    1    1    2  503  504 -0.21965382227E+02  0.10975867333E+01 -0.33700576785E+02  0.40241913332E+02  0.00000000000E+00 0.  1.
         21    1    1    2  504  501 -0.15746578089E+03 -0.13042461080E+03 -0.72197532767E+03  0.75036952564E+03  0.00000000000E+00 0.  1.
<mgrwt>
<rscale>  4 0.24461815E+03</rscale>
<asrwt>0</asrwt>
<pdfrwt beam="1">  1       21 0.66758982E-02 0.24461815E+03</pdfrwt>
<pdfrwt beam="2">  1       21 0.21470157E+00 0.24461815E+03</pdfrwt>
<totfact> 0.17135697E+04</totfact>
</mgrwt>
</event>
<event>
 5    0  0.2136185E+000  0.2809178E+03  0.7546771E-02  0.1095189E+00
         21   -1    0    0  502  501  0.00000000000E+00  0.00000000000E+00  0.17691379646E+03  0.17691379646E+03  0.00000000000E+00 0.  1.
         21   -1    0    0  503  502 -0.00000000000E+00 -0.00000000000E+00 -0.47615532791E+03  0.47615532791E+03  0.00000000000E+00 0.  1.
         25    1    1    2    0    0 -0.25157430925E+03 -0.45077255994E+00 -0.27534847813E+03  0.39335940395E+03  0.12500000000E+03 0.  0.
         21    1    1    2  503  504  0.20747727978E+03 -0.17696397148E+02 -0.46335835136E+01  0.20828215044E+03  0.00000000000E+00 0.  1.
         21    1    1    2  504  501  0.44097029467E+02  0.18147169708E+02 -0.19259469809E+02  0.51427569975E+02  0.00000000000E+00 0.  1.
<mgrwt>
<rscale>  4 0.28091785E+03</rscale>
<asrwt>0</asrwt>
<pdfrwt beam="1">  1       21 0.27217507E-01 0.28091785E+03</pdfrwt>
<pdfrwt beam="2">  1       21 0.73254666E-01 0.28091785E+03</pdfrwt>
<totfact> 0.20607217E+04</totfact>
</mgrwt>
</event>
