<event>
 5    0  0.1257040E+001  0.2704649E+03  0.7546771E-02  0.1101014E+00
         21   -1    0    0  502  501  0.00000000000E+00  0.00000000000E+00  0.48162267389E+03  0.48162267389E+03  0.00000000000E+00 0.  1.
         21   -1    0    0  504  502 -0.00000000000E+00 -0.00000000000E+00 -0.46098196076E+03  0.46098196076E+03  0.00000000000E+00 0. -1.
         25    1    1    2    0    0  0.22651697830E+03  0.93761443443E+02  0.33562012882E+03  0.43401269636E+03  0.12500000000E+03 0.  0.
         21    1    1    2  503  501 -0.20939317634E+02  0.29269961353E+02  0.56243090606E+02  0.66771782225E+02  0.00000000000E+00 0. -1.
         21    1    1    2  504  503 -0.20557766066E+03 -0.12303140480E+03 -0.37122250630E+03  0.44182015607E+03  0.00000000000E+00 0. -1.
<mgrwt>
<rscale>  4 0.27046491E+03</rscale>
<asrwt>0</asrwt>
<pdfrwt beam="1">  1       21 0.74095796E-01 0.27046491E+03</pdfrwt>
<pdfrwt beam="2">  1       21 0.70920302E-01 0.27046491E+03</pdfrwt>
<totfact> 0.27766805E+03</totfact>
</mgrwt>
</event>
<event>
 5    0  0.1257040E+001  0.2087723E+03  0.7546771E-02  0.1142542E+00
         21   -1    0    0  503  501  0.00000000000E+00  0.00000000000E+00  0.76571260642E+03  0.76571260642E+03  0.00000000000E+00 0. -1.
         21   -1    0    0  504  502 -0.00000000000E+00 -0.00000000000E+00 -0.19407907033E+03  0.19407907033E+03  0.00000000000E+00 0.  1.
         25    1    1    2    0    0 -0.11144037914E+03 -0.17128520806E+03  0.55071223284E+03  0.60055519647E+03  0.12500000000E+03 0.  0.
         21    1    1    2  503  502  0.10181369061E+03  0.12938010162E+03 -0.12525534371E+03  0.20686744408E+03  0.00000000000E+00 0.  1.
         21    1    1    2  504  501  0.96266885255E+01  0.41905106443E+02  0.14617664696E+03  0.15236903620E+03  0.00000000000E+00 0. -1.
<mgrwt>
<rscale>  4 0.20877235E+03</rscale>
<asrwt>0</asrwt>
<pdfrwt beam="1">  1       21 0.11780194E+00 0.20877235E+03</pdfrwt>
<pdfrwt beam="2">  1       21 0.29858319E-01 0.20877235E+03</pdfrwt>
<totfact> 0.58711775E+03</totfact>
</mgrwt>
</event>
<event>
 5    0  0.1257040E+001  0.2729365E+03  0.7546771E-02  0.1099611E+00
         21   -1    0    0  504  501  0.00000000000E+00  0.00000000000E+00  0.46813108024E+03  0.46813108024E+03  0.00000000000E+00 0.  1.
         21   -1    0    0  503  502 -0.00000000000E+00 -0.00000000000E+00 -0.20328159977E+03  0.20328159977E+03  0.00000000000E+00 0.  1.
         25    1    1    2    0    0  0.12658399768E+03  0.19101399876E+03  0.25612036747E+03  0.36569454306E+03  0.12500000000E+03 0.  0.
         21    1    1    2  503  501 -0.10452292938E+03 -0.22500029252E+03 -0.29711913623E+02  0.24986590847E+03  0.00000000000E+00 0.  1.
         21    1    1    2  504  502 -0.22061068301E+02  0.33986293759E+02  0.38441026625E+02  0.55852228478E+02  0.00000000000E+00 0. -1.
<mgrwt>
<rscale>  4 0.27293648E+03</rscale>
<asrwt>0</asrwt>
<pdfrwt beam="1">  1       21 0.72020166E-01 0.27293648E+03</pdfrwt>
<pdfrwt beam="2">  1       21 0.31274092E-01 0.27293648E+03</pdfrwt>
<totfact> 0.16362968E+04</totfact>
</mgrwt>
</event>
<event>
 5    0  0.1257040E+001  0.3090358E+03  0.7546771E-02  0.1080809E+00
         21   -1    0    0  504  501  0.00000000000E+00  0.00000000000E+00  0.39438310186E+03  0.39438310186E+03  0.00000000000E+00 0. -1.
         21   -1    0    0  501  502 -0.00000000000E+00 -0.00000000000E+00 -0.22832731897E+03  0.22832731897E+03  0.00000000000E+00 0. -1.
         25    1    1    2    0    0 -0.17703183756E+03 -0.22031306765E+03  0.68169689740E+02  0.31646520486E+03  0.12500000000E+03 0.  0.
         21    1    1    2  503  502  0.87546148327E+01  0.45966637113E+02  0.25830943975E+02  0.53449159722E+02  0.00000000000E+00 0.  1.
         21    1    1    2  504  503  0.16827722272E+03  0.17434643054E+03  0.72055149179E+02  0.25279605625E+03  0.00000000000E+00 0. -1.
<mgrwt>
<rscale>  4 0.30903579E+03</rscale>
<asrwt>0</asrwt>
<pdfrwt beam="1">  1       21 0.60674323E-01 0.30903579E+03</pdfrwt>
<pdfrwt beam="2">  1       21 0.35127280E-01 0.30903579E+03</pdfrwt>
<totfact> 0.18663571E+04</totfact>
</mgrwt>
</event>
<event>
 5    0  0.1257040E+001  0.2855350E+03  0.7546771E-02  0.1092704E+00
         21   -1    0    0  504  501  0.00000000000E+00  0.00000000000E+00  0.47465331496E+03  0.47465331496E+03  0.00000000000E+00 0. -1.
         21   -1    0    0  503  502 -0.00000000000E+00 -0.00000000000E+00 -0.30247574507E+03  0.30247574507E+03  0.00000000000E+00 0. -1.
         25    1    1    2    0    0  0.94898786276E+02  0.24603029975E+03 -0.82458204022E+02  0.30325079298E+03  0.12500000000E+03 0.  0.
         21    1    1    2  503  501  0.25177716210E+02 -0.20564261354E+02 -0.60218022643E+02  0.68432568925E+02  0.00000000000E+00 0.  1.
         21    1    1    2  504  502 -0.12007650249E+03 -0.22546603840E+03  0.31485379656E+03  0.40544569813E+03  0.00000000000E+00 0. -1.
<mgrwt>
<rscale>  4 0.28553498E+03</rscale>
<asrwt>0</asrwt>
<pdfrwt beam="1">  1       21 0.73023587E-01 0.28553498E+03</pdfrwt>
<pdfrwt beam="2">  1       21 0.46534730E-01 0.28553498E+03</pdfrwt>
<totfact> 0.70468740E+03</totfact>
</mgrwt>
</event>
<event>
 5    0  0.1257040E+001  0.2475815E+03  0.7546771E-02  0.1114843E+00
         21   -1    0    0  502  501  0.00000000000E+00  0.00000000000E+00  0.84737526128E+02  0.84737526128E+02  0.00000000000E+00 0.  1.
         21   -1    0    0  504  502 -0.00000000000E+00 -0.00000000000E+00 -0.82374141046E+03  0.82374141046E+03  0.00000000000E+00 0.  1.
         25    1    1    2    0    0 -0.62527918809E+02 -0.21181823176E+03 -0.34710444876E+03  0.42998046733E+03  0.12500000000E+03 0.  0.
         21    1    1    2  503  501  0.31313533481E+02  0.41649077932E+01  0.24934549913E+01  0.31687555188E+02  0.00000000000E+00 0. -1.
         21    1    1    2  504  503  0.31214385328E+02  0.20765332397E+03 -0.39439289056E+03  0.44681091407E+03  0.00000000000E+00 0.  1.
<mgrwt>
<rscale>  4 0.24758145E+03</rscale>
<asrwt>0</asrwt>
<pdfrwt beam="1">  1       21 0.13036542E-01 0.24758145E+03</pdfrwt>
<pdfrwt beam="2">  1       21 0.12672945E+00 0.24758145E+03</pdfrwt>
<totfact> 0.22583047E+04</totfact>
</mgrwt>
</event>
<event>
 5    0  0.1257040E+001  0.2509663E+03  0.7546771E-02  0.1112696E+00
         21   -1    0    0  504  501  0.00000000000E+00  0.00000000000E+00  0.16320039821E+03  0.16320039821E+03  0.00000000000E+00 0. -1.
         21   -1    0    0  503  502 -0.00000000000E+00 -0.00000000000E+00 -0.42915664188E+03  0.42915664188E+03  0.00000000000E+00 0. -1.
         25    1    1    2    0    0  0.27462744006E+02 -0.22971174627E+03 -0.83370084301E+02  0.27585731754E+03  0.12500000000E+03 0.  0.
         21    1    1    2  503  501 -0.38653078001E+02  0.20764175636E+03 -0.19618293955E+03  0.28826533818E+03  0.00000000000E+00 0. -1.
         21    1    1    2  504  502  0.11190333996E+02  0.22069989905E+02  0.13596780185E+02  0.28234384369E+02  0.00000000000E+00 0.  1.
<mgrwt>
<rscale>  4 0.25096633E+03</rscale>
<asrwt>0</asrwt>
<pdfrwt beam="1">  1       21 0.25107754E-01 0.25096633E+03</pdfrwt>
<pdfrwt beam="2">  1       21 0.66024097E-01 0.25096633E+03</pdfrwt>
<totfact> 0.30735677E+04</totfact>
</mgrwt>
</event>
<event>
 5    0  0.1257040E+001  0.2847372E+03  0.7546771E-02  0.1093129E+00
         21   -1    0    0  502  501  0.00000000000E+00  0.00000000000E+00  0.33612084763E+03  0.33612084763E+03  0.00000000000E+00 0. -1.
         21   -1    0    0  504  502 -0.00000000000E+00 -0.00000000000E+00 -0.36970684161E+03  0.36970684161E+03  0.00000000000E+00 0. -1.
         25    1    1    2    0    0 -0.19131983805E+03 -0.16049805516E+03  0.18337873432E+03  0.33408930894E+03  0.12500000000E+03 0.  0.
         21    1    1    2  503  501 -0.17627499597E+02  0.10331695020E+02  0.14966112879E+02  0.25327005325E+02  0.00000000000E+00 0. -1.
         21    1    1    2  504  503  0.20894733765E+03  0.15016636014E+03 -0.23193084117E+03  0.34641137498E+03  0.00000000000E+00 0. -1.
<mgrwt>
<rscale>  4 0.28473720E+03</rscale>
<asrwt>0</asrwt>
<pdfrwt beam="1">  1       21 0.51710900E-01 0.28473720E+03</pdfrwt>
<pdfrwt beam="2">  1       21 0.56877976E-01 0.28473720E+03</pdfrwt>
<totfact> 0.97785961E+03</totfact>
</mgrwt>
</event>
<event>
 5    0  0.1257040E+001  0.2690118E+03  0.7546771E-02  0.1101847E+00
         21   -1    0    0  502  501  0.00000000000E+00  0.00000000000E+00  0.45445115364E+03  0.45445115364E+03  0.00000000000E+00 0. -1.
         21   -1    0    0  504  502 -0.00000000000E+00 -0.00000000000E+00 -0.10809146048E+04  0.10809146048E+04  0.00000000000E+00 0. -1.
         25    1    1    2    0    0  0.21189206161E+03  0.11924979018E+03 -0.75000461543E+03  0.79827982650E+03  0.12500000000E+03 0.  0.
         21    1    1    2  503  501 -0.18101220274E+03 -0.15481034749E+03  0.39517174720E+03  0.46140261271E+03  0.00000000000E+00 0. -1.
         21    1    1    2  504  503 -0.30879858871E+02  0.35560557307E+02 -0.27163058296E+03  0.27568331926E+03  0.00000000000E+00 0. -1.
<mgrwt>
<rscale>  4 0.26901176E+03</rscale>
<asrwt>0</asrwt>
<pdfrwt beam="1">  1       21 0.69915563E-01 0.26901176E+03</pdfrwt>
<pdfrwt beam="2">  1       21 0.16629455E+00 0.26901176E+03</pdfrwt>
<totfact> 0.38966322E+02</totfact>
</mgrwt>
</event>
<event>
 5    0  0.1257040E+001  0.1961782E+03  0.7546771E-02  0.1153004E+00
         21   -1    0    0  502  501  0.00000000000E+00  0.00000000000E+00  0.35070906829E+03  0.35070906829E+03  0.00000000000E+00 0.  1.
         21   -1    0    0  504  502 -0.00000000000E+00 -0.00000000000E+00 -0.45204548990E+03  0.45204548990E+03  0.00000000000E+00 0.  1.
         25    1    1    2    0    0  0.16804649916E+03  0.12203103169E+03  0.16763865410E+03  0.29471836883E+03  0.12500000000E+03 0.  0.
         21    1    1    2  503  501 -0.10861131994E+03 -0.56761730448E+02  0.81131905395E+02  0.14697176237E+03  0.00000000000E+00 0.  1.
         21    1    1    2  504  503 -0.59435179229E+02 -0.65269301244E+02 -0.35010698111E+03  0.36106442699E+03  0.00000000000E+00 0.  1.
<mgrwt>
<rscale>  4 0.19617816E+03</rscale>
<asrwt>0</asrwt>
<pdfrwt beam="1">  1       21 0.53955241E-01 0.19617816E+03</pdfrwt>
<pdfrwt beam="2">  1       21 0.69545460E-01 0.19617816E+03</pdfrwt>
<totfact> 0.60894179E+03</totfact>
</mgrwt>
</event>
<event>
 5    0  0.1257040E+001  0.2485870E+03  0.7546771E-02  0.1114201E+00
         21   -1    0    0  504  501  0.00000000000E+00  0.00000000000E+00  0.27149652838E+03  0.27149652838E+03  0.00000000000E+00 0. -1.
         21   -1    0    0  503  502 -0.00000000000E+00 -0.00000000000E+00 -0.49460083781E+03  0.49460083781E+03  0.00000000000E+00 0. -1.
         25    1    1    2    0    0 -0.22105553682E+03  0.24336768786E+03 -0.85331750037E+02  0.36193906865E+03  0.12500000000E+03 0.  0.
         21    1    1    2  503  501  0.14002900174E+03 -0.11757338991E+03 -0.17159532382E+03  0.25075202592E+03  0.00000000000E+00 0. -1.
         21    1    1    2  504  502  0.81026535072E+02 -0.12579429794E+03  0.33822764427E+02  0.15340627163E+03  0.00000000000E+00 0. -1.
<mgrwt>
<rscale>  4 0.24858697E+03</rscale>
<asrwt>0</asrwt>
<pdfrwt beam="1">  1       21 0.41768697E-01 0.24858697E+03</pdfrwt>
<pdfrwt beam="2">  1       21 0.76092436E-01 0.24858697E+03</pdfrwt>
<totfact> 0.81904402E+03</totfact>
</mgrwt>
</event>
<event>
 5    0  0.1257040E+001  0.3443210E+03  0.7546771E-02  0.1064970E+00
         21   -1    0    0  502  501  0.00000000000E+00  0.00000000000E+00  0.11153463371E+03  0.11153463371E+03  0.00000000000E+00 0.  1.
         21   -1    0    0  504  502 -0.00000000000E+00 -0.00000000000E+00 -0.14264011273E+04  0.14264011273E+04  0.00000000000E+00 0.  1.
         25    1    1    2    0    0  0.10476854309E+03  0.29866765705E+03 -0.51527815094E+03  0.61750740062E+03  0.12500000000E+03 0.  0.
         21    1    1    2  503  501 -0.49423055044E+02 -0.32304698198E+03 -0.40111940469E+03  0.51739614200E+03  0.00000000000E+00 0.  1.
         21    1    1    2  504  503 -0.55345488051E+02  0.24379324937E+02 -0.39846893796E+03  0.40303221838E+03  0.00000000000E+00 0.  1.
<mgrwt>
<rscale>  4 0.34432096E+03</rscale>
<asrwt>0</asrwt>
<pdfrwt beam="1">  1       21 0.17159175E-01 0.34432096E+03</pdfrwt>
<pdfrwt beam="2">  1       21 0.21944632E+00 0.34432096E+03</pdfrwt>
<totfact> 0.27672509E+03</totfact>
</mgrwt>
</event>
<event>
 5    0  0.1257040E+001  0.2401169E+03  0.7546771E-02  0.1119715E+00
         21   -1    0    0  504  501  0.00000000000E+00  0.00000000000E+00  0.37592516774E+02  0.37592516774E+02  0.00000000000E+00 0. -1.
         21   -1    0    0  501  502 -0.00000000000E+00 -0.00000000000E+00 -0.15288060035E+04  0.15288060035E+04  0.00000000000E+00 0. -1.
         25    1    1    2    0    0 -0.20480396244E+03 -0.92979907909E+01 -0.10313592134E+04  0.10589418978E+04  0.12500000000E+03 0.  0.
         21    1    1    2  503  502  0.17844031452E+03 -0.78089468251E+01 -0.34649298108E+03  0.38981958832E+03  0.00000000000E+00 0. -1.
         21    1    1    2  504  503  0.26363647918E+02  0.17106937616E+02 -0.11336129218E+03  0.11763703418E+03  0.00000000000E+00 0. -1.
<mgrwt>
<rscale>  4 0.24011688E+03</rscale>
<asrwt>0</asrwt>
<pdfrwt beam="1">  1       21 0.57834658E-02 0.24011688E+03</pdfrwt>
<pdfrwt beam="2">  1       21 0.23520086E+00 0.24011688E+03</pdfrwt>
<totfact> 0.16458211E+04</totfact>
</mgrwt>
</event>
<event>
 5    0  0.1257040E+001  0.3201317E+03  0.7546771E-02  0.1075589E+00
         21   -1    0    0  502  501  0.00000000000E+00  0.00000000000E+00  0.23748959967E+03  0.23748959967E+03  0.00000000000E+00 0. -1.
         21   -1    0    0  504  502 -0.00000000000E+00 -0.00000000000E+00 -0.65525981053E+03  0.65525981053E+03  0.00000000000E+00 0.  1.
         25    1    1    2    0    0  0.16683845451E+03 -0.24286512945E+03  0.49238962977E+02  0.32383331589E+03  0.12500000000E+03 0.  0.
         21    1    1    2  503  501  0.23448473389E+02  0.16101636685E+02 -0.33044644404E+02  0.43600941871E+02  0.00000000000E+00 0. -1.
         21    1    1    2  504  503 -0.19028692790E+03  0.22676349277E+03 -0.43396452943E+03  0.52531515244E+03  0.00000000000E+00 0.  1.
<mgrwt>
<rscale>  4 0.32013172E+03</rscale>
<asrwt>0</asrwt>
<pdfrwt beam="1">  1       21 0.36536862E-01 0.32013172E+03</pdfrwt>
<pdfrwt beam="2">  1       21 0.10080920E+00 0.32013172E+03</pdfrwt>
<totfact> 0.53809714E+03</totfact>
</mgrwt>
</event>
<event>
 5    0  0.1257040E+001  0.3387735E+03  0.7546771E-02  0.1067319E+00
         21   -1    0    0  504  501  0.00000000000E+00  0.00000000000E+00  0.32079075316E+03  0.32079075316E+03  0.00000000000E+00 0. -1.
         21   -1    0    0  503  502 -0.00000000000E+00 -0.00000000000E+00 -0.94059244273E+03  0.94059244273E+03  0.00000000000E+00 0. -1.
         25    1    1    2    0    0  0.25623564672E+03  0.10188228069E+03 -0.35769179954E+02  0.30486249360E+03  0.12500000000E+03 0.  0.
         21    1    1    2  503  501 -0.27630199765E+03 -0.17296157303E+03 -0.72637076503E+03  0.79616140822E+03  0.00000000000E+00 0. -1.
         21    1    1    2  504  502  0.20066350928E+02  0.71079292334E+02  0.14233825541E+03  0.16035929406E+03  0.00000000000E+00 0. -1.
<mgrwt>
<rscale>  4 0.33877352E+03</rscale>
<asrwt>0</asrwt>
<pdfrwt beam="1">  1       21 0.49352423E-01 0.33877352E+03</pdfrwt>
<pdfrwt beam="2">  1       21 0.14470653E+00 0.33877352E+03</pdfrwt>
<totfact> 0.11499173E+03</totfact>
</mgrwt>
</event>
<event>
 5    0  0.1257040E+001  0.2476620E+03  0.7546771E-02  0.1114791E+00
         21   -1    0    0  502  501  0.00000000000E+00  0.00000000000E+00  0.77403772470E+02  0.77403772470E+02  0.00000000000E+00 0. -1.
         21   -1    0    0  504  502 -0.00000000000E+00 -0.00000000000E+00 -0.93013634711E+03  0.93013634711E+03  0.00000000000E+00 0. -1.
         25    1    1    2    0    0 -0.18006595337E+02  0.23854787024E+03 -0.50235270719E+03  0.57027411505E+03  0.12500000000E+03 0.  0.
         21    1    1    2  503  501  0.34046817195E+02 -0.44749776607E+02 -0.33430041077E+02  0.65416327579E+02  0.00000000000E+00 0. -1.
         21    1    1    2  504  503 -0.16040221857E+02 -0.19379809363E+03 -0.31694982637E+03  0.37184967695E+03  0.00000000000E+00 0. -1.
<mgrwt>
<rscale>  4 0.24766197E+03</rscale>
<asrwt>0</asrwt>
<pdfrwt beam="1">  1       21 0.11908274E-01 0.24766197E+03</pdfrwt>
<pdfrwt beam="2">  1       21 0.14309789E+00 0.24766197E+03</pdfrwt>
<totfact> 0.19451693E+04</totfact>
</mgrwt>
</event>
<event>
 5    0  0.1257040E+001  0.2328684E+03  0.7546771E-02  0.1124637E+00
         21   -1    0    0  504  501  0.00000000000E+00  0.00000000000E+00  0.75534470057E+03  0.75534470057E+03  0.00000000000E+00 0. -1.
         21   -1    0    0  503  502 -0.00000000000E+00 -0.00000000000E+00 -0.44532134650E+03  0.44532134650E+03  0.00000000000E+00 0.  1.
         25    1    1    2    0    0 -0.99163696643E+02 -0.20949611785E+03 -0.28380786815E+03  0.38716142389E+03  0.12500000000E+03 0.  0.
         21    1    1    2  503  501  0.47917289401E+02  0.21167215546E+02 -0.89030059725E+02  0.10329796306E+03  0.00000000000E+00 0. -1.
         21    1    1    2  504  502  0.51246407243E+02  0.18832890231E+03  0.68286128194E+03  0.71020666012E+03  0.00000000000E+00 0. -1.
<mgrwt>
<rscale>  4 0.23286842E+03</rscale>
<asrwt>0</asrwt>
<pdfrwt beam="1">  1       21 0.11620688E+00 0.23286842E+03</pdfrwt>
<pdfrwt beam="2">  1       21 0.68510977E-01 0.23286842E+03</pdfrwt>
<totfact> 0.10692293E+03</totfact>
</mgrwt>
</event>
<event>
 5    0  0.1257040E+001  0.2687069E+03  0.7546771E-02  0.1102022E+00
         21   -1    0    0  503  501  0.00000000000E+00  0.00000000000E+00  0.38301226495E+03  0.38301226495E+03  0.00000000000E+00 0. -1.
         21   -1    0    0  504  502 -0.00000000000E+00 -0.00000000000E+00 -0.77868563218E+03  0.77868563218E+03  0.00000000000E+00 0.  1.
         25    1    1    2    0    0  0.69986344146E+02  0.27168264375E+03  0.24591072465E+03  0.39345473917E+03  0.12500000000E+03 0.  0.
         21    1    1    2  503  502 -0.96873694155E+01 -0.23529488418E+03 -0.65544327523E+03  0.69646494147E+03  0.00000000000E+00 0.  1.
         21    1    1    2  504  501 -0.60298974731E+02 -0.36387759563E+02  0.13859183351E+02  0.71778216492E+02  0.00000000000E+00 0.  1.
<mgrwt>
<rscale>  4 0.26870693E+03</rscale>
<asrwt>0</asrwt>
<pdfrwt beam="1">  1       21 0.58924964E-01 0.26870693E+03</pdfrwt>
<pdfrwt beam="2">  1       21 0.11979779E+00 0.26870693E+03</pdfrwt>
<totfact> 0.13402452E+03</totfact>
</mgrwt>
</event>
<event>
 5    0  0.1257040E+001  0.2458876E+03  0.7546771E-02  0.1115932E+00
         21   -1    0    0  502  501  0.00000000000E+00  0.00000000000E+00  0.30710498827E+03  0.30710498827E+03  0.00000000000E+00 0. -1.
         21   -1    0    0  504  502 -0.00000000000E+00 -0.00000000000E+00 -0.27882042416E+03  0.27882042416E+03  0.00000000000E+00 0. -1.
         25    1    1    2    0    0  0.12022722312E+03  0.20801657020E+03 -0.10085835312E+03  0.28900326305E+03  0.12500000000E+03 0.  0.
         21    1    1    2  503  501 -0.10770332966E+03 -0.17353405804E+03  0.15119855977E+03  0.25411627456E+03  0.00000000000E+00 0. -1.
         21    1    1    2  504  503 -0.12523893462E+02 -0.34482512164E+02 -0.22055642540E+02  0.42805874836E+02  0.00000000000E+00 0. -1.
<mgrwt>
<rscale>  4 0.24588757E+03</rscale>
<asrwt>0</asrwt>
<pdfrwt beam="1">  1       21 0.47246921E-01 0.24588757E+03</pdfrwt>
<pdfrwt beam="2">  1       21 0.42895450E-01 0.24588757E+03</pdfrwt>
<totfact> 0.21766457E+04</totfact>
</mgrwt>
</event>
<event>
 5    0  0.1257040E+001  0.3041169E+03  0.7546771E-02  0.1083201E+00
         21   -1    0    0  502  501  0.00000000000E+00  0.00000000000E+00  0.28215904790E+03  0.28215904790E+03  0.00000000000E+00 0.  1.
         21   -1    0    0  504  502 -0.00000000000E+00 -0.00000000000E+00 -0.69460658077E+03  0.69460658077E+03  0.00000000000E+00 0.  1.
         25    1    1    2    0    0 -0.13986390312E+03  0.23987965242E+03  0.80888839450E+02  0.31507485363E+03  0.12500000000E+03 0.  0.
         21    1    1    2  503  501  0.47823902485E+02  0.22341350348E+02  0.35962167999E+02  0.63871269844E+02  0.00000000000E+00 0.  1.
         21    1    1    2  504  503  0.92040000634E+02 -0.26222100277E+03 -0.52929854032E+03  0.59781950520E+03  0.00000000000E+00 0.  1.
<mgrwt>
<rscale>  4 0.30411688E+03</rscale>
<asrwt>0</asrwt>
<pdfrwt beam="1">  1       21 0.43409084E-01 0.30411688E+03</pdfrwt>
<pdfrwt beam="2">  1       21 0.10686255E+00 0.30411688E+03</pdfrwt>
<totfact> 0.33111351E+03</totfact>
</mgrwt>
</event>
<event>
 5    0  0.1257040E+001  0.2462372E+03  0.7546771E-02  0.1115706E+00
         21   -1    0    0  502  501  0.00000000000E+00  0.00000000000E+00  0.64489079966E+03  0.64489079966E+03  0.00000000000E+00 0. -1.
         21   -1    0    0  504  502 -0.00000000000E+00 -0.00000000000E+00 -0.60147071444E+03  0.60147071444E+03  0.00000000000E+00 0. -1.
         25    1    1    2    0    0 -0.30506922633E+03  0.10624165069E+03  0.18934352477E+03  0.39475371001E+03  0.12500000000E+03 0.  0.
         21    1    1    2  503  501  0.12695833273E+03 -0.60897263725E+01  0.31920164430E+03  0.34357705503E+03  0.00000000000E+00 0. -1.
         21    1    1    2  504  503  0.17811089359E+03 -0.10015192432E+03 -0.46512508386E+03  0.50803074906E+03  0.00000000000E+00 0. -1.
<mgrwt>
<rscale>  4 0.24623724E+03</rscale>
<asrwt>0</asrwt>
<pdfrwt beam="1">  1       21 0.99213970E-01 0.24623724E+03</pdfrwt>
<pdfrwt beam="2">  1       21 0.92533955E-01 0.24623724E+03</pdfrwt>
<totfact> 0.78353146E+02</totfact>
</mgrwt>
</event>
<event>
 5    0  0.1257040E+001  0.2717272E+03  0.7546771E-02  0.1100295E+00
         21   -1    0    0  504  501  0.00000000000E+00  0.00000000000E+00  0.16961716857E+04  0.16961716857E+04  0.00000000000E+00 0. -1.
         21   -1    0    0  503  502 -0.00000000000E+00 -0.00000000000E+00 -0.76166182191E+02  0.76166182191E+02  0.00000000000E+00 0. -1.
         25    1    1    2    0    0 -0.26041332799E+03 -0.19227038703E+03  0.75018289375E+03  0.82654847238E+03  0.12500000000E+03 0.  0.
         21    1    1    2  503  501  0.17527239685E+03  0.10915397932E+03  0.30334816667E+03  0.36695383159E+03  0.00000000000E+00 0. -1.
         21    1    1    2  504  502  0.85140931144E+02  0.83116407710E+02  0.56647444313E+03  0.57883556396E+03  0.00000000000E+00 0. -1.
<mgrwt>
<rscale>  4 0.27172722E+03</rscale>
<asrwt>0</asrwt>
<pdfrwt beam="1">  1       21 0.26094946E+00 0.27172722E+03</pdfrwt>
<pdfrwt beam="2">  1       21 0.11717875E-01 0.27172722E+03</pdfrwt>
<totfact> 0.32607173E+03</totfact>
</mgrwt>
</event>
<event>
 5    0  0.1257040E+001  0.2631472E+03  0.7546771E-02  0.1105267E+00
         21   -1    0    0  502  501  0.00000000000E+00  0.00000000000E+00  0.16860620775E+03  0.16860620775E+03  0.00000000000E+00 0.  1.
         21   -1    0    0  504  502 -0.00000000000E+00 -0.00000000000E+00 -0.45002641043E+03  0.45002641043E+03  0.00000000000E+00 0.  1.
         25    1    1    2    0    0 -0.24804695585E+03 -0.72013292929E+00 -0.97508481159E+02  0.29438191995E+03  0.12500000000E+03 0.  0.
         21    1    1    2  503  501  0.25006498837E+02 -0.45615521466E+01  0.11284127064E+02  0.27811225533E+02  0.00000000000E+00 0. -1.
         21    1    1    2  504  503  0.22304045701E+03  0.52816850759E+01 -0.19519584859E+03  0.29643947269E+03  0.00000000000E+00 0.  1.
<mgrwt>
<rscale>  4 0.26314716E+03</rscale>
<asrwt>0</asrwt>
<pdfrwt beam="1">  1       21 0.25939417E-01 0.26314716E+03</pdfrwt>
<pdfrwt beam="2">  1       21 0.69234831E-01 0.26314716E+03</pdfrwt>
<totfact> 0.25854165E+04</totfact>
</mgrwt>
</event>
<event>
 5    0  0.1257040E+001  0.2819107E+03  0.7546771E-02  0.1094650E+00
         21   -1    0    0  502  501  0.00000000000E+00  0.00000000000E+00  0.17317338153E+03  0.17317338153E+03  0.00000000000E+00 0.  1.
         21   -1    0    0  504  502 -0.00000000000E+00 -0.00000000000E+00 -0.47717135106E+03  0.47717135106E+03  0.00000000000E+00 0.  1.
         25    1    1    2    0    0  0.25450467978E+03  0.40209749668E+02 -0.22577723093E+03  0.36467768509E+03  0.12500000000E+03 0.  0.
         21    1    1    2  503  501 -0.81346884793E+01 -0.24374819803E+02  0.27651270880E+01  0.25844746562E+02  0.00000000000E+00 0. -1.
         21    1    1    2  504  503 -0.24636999130E+03 -0.15834929865E+02 -0.80985865695E+02  0.25982230093E+03  0.00000000000E+00 0.  1.
<mgrwt>
<rscale>  4 0.28191067E+03</rscale>
<asrwt>0</asrwt>
<pdfrwt beam="1">  1       21 0.26642059E-01 0.28191067E+03</pdfrwt>
<pdfrwt beam="2">  1       21 0.73410977E-01 0.28191067E+03</pdfrwt>
<totfact> 0.21368590E+04</totfact>
</mgrwt>
</event>
<event>
 5    0  0.1257040E+001  0.2678331E+03  0.7546771E-02  0.1102526E+00
         21   -1    0    0  504  501  0.00000000000E+00  0.00000000000E+00  0.15564249090E+04  0.15564249090E+04  0.00000000000E+00 0. -1.
         21   -1    0    0  503  502 -0.00000000000E+00 -0.00000000000E+00 -0.12375820838E+03  0.12375820838E+03  0.00000000000E+00 0. -1.
         25    1    1    2    0    0  0.20264473004E+03 -0.20115446322E+03  0.12509771286E+04  0.12892233247E+04  0.12500000000E+03 0.  0.
         21    1    1    2  503  501 -0.16850828662E+03  0.15907124638E+03  0.34716773381E+02  0.23431593723E+03  0.00000000000E+00 0. -1.
         21    1    1    2  504  502 -0.34136443420E+02  0.42083216849E+02  0.14697279857E+03  0.15664385538E+03  0.00000000000E+00 0. -1.
<mgrwt>
<rscale>  4 0.26783310E+03</rscale>
<asrwt>0</asrwt>
<pdfrwt beam="1">  1       21 0.23944997E+00 0.26783310E+03</pdfrwt>
<pdfrwt beam="2">  1       21 0.19039726E-01 0.26783310E+03</pdfrwt>
<totfact> 0.18056813E+03</totfact>
</mgrwt>
</event>
<event>
 5    0  0.1257040E+001  0.2639229E+03  0.7546771E-02  0.1104809E+00
         21   -1    0    0  503  501  0.00000000000E+00  0.00000000000E+00  0.16400241005E+04  0.16400241005E+04  0.00000000000E+00 0.  1.
         21   -1    0    0  504  502 -0.00000000000E+00 -0.00000000000E+00 -0.36145246561E+03  0.36145246561E+03  0.00000000000E+00 0. -1.
         25    1    1    2    0    0  0.24418047949E+03 -0.44442495614E+02 -0.25361718038E+03  0.37622588449E+03  0.12500000000E+03 0.  0.
         21    1    1    2  503  502 -0.12879917145E+02  0.25822256190E+02 -0.32492393034E+02  0.43456147844E+02  0.00000000000E+00 0. -1.
         21    1    1    2  504  501 -0.23130056234E+03  0.18620239424E+02  0.15646812083E+04  0.15817945338E+04  0.00000000000E+00 0.  1.
<mgrwt>
<rscale>  4 0.26392289E+03</rscale>
<asrwt>0</asrwt>
<pdfrwt beam="1">  1       21 0.25231140E+00 0.26392289E+03</pdfrwt>
<pdfrwt beam="2">  1       21 0.55608072E-01 0.26392289E+03</pdfrwt>
<totfact> 0.17973337E+02</totfact>
</mgrwt>
</event>
<event>
 5    0  0.1257040E+001  0.3209925E+03  0.7546771E-02  0.1075193E+00
         21   -1    0    0  502  501  0.00000000000E+00  0.00000000000E+00  0.39622736662E+03  0.39622736662E+03  0.00000000000E+00 0. -1.
         21   -1    0    0  504  502 -0.00000000000E+00 -0.00000000000E+00 -0.39568836546E+03  0.39568836546E+03  0.00000000000E+00 0.  1.
         25    1    1    2    0    0  0.21141883830E+03 -0.23286379941E+03 -0.15940315917E+03  0.37410939766E+03  0.12500000000E+03 0.  0.
         21    1    1    2  503  501 -0.16206212924E+03  0.24167710304E+03  0.20045464668E+03  0.35334688515E+03  0.00000000000E+00 0. -1.
         21    1    1    2  504  503 -0.49356709060E+02 -0.88133036298E+01 -0.40512486358E+02  0.64459449276E+02  0.00000000000E+00 0.  1.
<mgrwt>
<rscale>  4 0.32099250E+03</rscale>
<asrwt>0</asrwt>
<pdfrwt beam="1">  1       21 0.60958057E-01 0.32099250E+03</pdfrwt>
<pdfrwt beam="2">  1       21 0.60875133E-01 0.32099250E+03</pdfrwt>
<totfact> 0.58295952E+03</totfact>
</mgrwt>
</event>
<event>
 5    0  0.1257040E+001  0.2724490E+03  0.7546771E-02  0.1099886E+00
         21   -1    0    0  504  501  0.00000000000E+00  0.00000000000E+00  0.36832453822E+03  0.36832453822E+03  0.00000000000E+00 0.  1.
         21   -1    0    0  503  502 -0.00000000000E+00 -0.00000000000E+00 -0.25043203893E+03  0.25043203893E+03  0.00000000000E+00 0.  1.
         25    1    1    2    0    0  0.13306133647E+03 -0.22297194485E+03  0.31379285395E+00  0.28817860073E+03  0.12500000000E+03 0.  0.
         21    1    1    2  503  501 -0.12960967379E+03  0.18650063498E+03  0.21950922170E+02  0.22817317409E+03  0.00000000000E+00 0.  1.
         21    1    1    2  504  502 -0.34516626786E+01  0.36471309869E+02  0.95627784263E+02  0.10240480234E+03  0.00000000000E+00 0.  1.
<mgrwt>
<rscale>  4 0.27244901E+03</rscale>
<asrwt>0</asrwt>
<pdfrwt beam="1">  1       21 0.56665314E-01 0.27244901E+03</pdfrwt>
<pdfrwt beam="2">  1       21 0.38528006E-01 0.27244901E+03</pdfrwt>
<totfact> 0.18232494E+04</totfact>
</mgrwt>
</event>
<event>
 5    0  0.1257040E+001  0.2597486E+03  0.7546771E-02  0.1107294E+00
         21   -1    0    0  502  501  0.00000000000E+00  0.00000000000E+00  0.52607641355E+03  0.52607641355E+03  0.00000000000E+00 0.  1.
         21   -1    0    0  504  502 -0.00000000000E+00 -0.00000000000E+00 -0.51923432317E+03  0.51923432317E+03  0.00000000000E+00 0.  1.
         25    1    1    2    0    0 -0.66206539402E+02  0.21950329465E+03  0.45964050471E+03  0.52863919245E+03  0.12500000000E+03 0.  0.
         21    1    1    2  503  501  0.14788831502E+02 -0.19561256765E+02 -0.71766903740E+01  0.25551070196E+02  0.00000000000E+00 0. -1.
         21    1    1    2  504  503  0.51417707900E+02 -0.19994203789E+03 -0.44562172395E+03  0.49112047407E+03  0.00000000000E+00 0.  1.
<mgrwt>
<rscale>  4 0.25974861E+03</rscale>
<asrwt>0</asrwt>
<pdfrwt beam="1">  1       21 0.80934833E-01 0.25974861E+03</pdfrwt>
<pdfrwt beam="2">  1       21 0.79882203E-01 0.25974861E+03</pdfrwt>
<totfact> 0.17510165E+03</totfact>
</mgrwt>
</event>
<event>
 5    0  0.1257040E+001  0.3067140E+03  0.7546771E-02  0.1081932E+00
         21   -1    0    0  502  501  0.00000000000E+00  0.00000000000E+00  0.50046356739E+03  0.50046356739E+03  0.00000000000E+00 0. -1.
         21   -1    0    0  504  502 -0.00000000000E+00 -0.00000000000E+00 -0.32173174271E+03  0.32173174271E+03  0.00000000000E+00 0. -1.
         25    1    1    2    0    0 -0.29866178824E+03  0.41521048857E+02  0.32075071533E+03  0.45763400512E+03  0.12500000000E+03 0.  0.
         21    1    1    2  503  501  0.23433675273E+02 -0.21887583981E+02  0.26192368911E+02  0.41403425686E+02  0.00000000000E+00 0. -1.
         21    1    1    2  504  503  0.27522811297E+03 -0.19633464876E+02 -0.16821125956E+03  0.32315787930E+03  0.00000000000E+00 0. -1.
<mgrwt>
<rscale>  4 0.30671398E+03</rscale>
<asrwt>0</asrwt>
<pdfrwt beam="1">  1       21 0.76994395E-01 0.30671398E+03</pdfrwt>
<pdfrwt beam="2">  1       21 0.49497191E-01 0.30671398E+03</pdfrwt>
<totfact> 0.54372222E+03</totfact>
</mgrwt>
</event>
<event>
 5    0  0.1257040E+001  0.2347941E+03  0.7546771E-02  0.1123310E+00
         21   -1    0    0  504  501  0.00000000000E+00  0.00000000000E+00  0.37889256978E+03  0.37889256978E+03  0.00000000000E+00 0.  1.
         21   -1    0    0  503  502 -0.00000000000E+00 -0.00000000000E+00 -0.66950408332E+03  0.66950408332E+03  0.00000000000E+00 0.  1.
         25    1    1    2    0    0 -0.15324319121E+03 -0.17722998586E+03 -0.39788102523E+03  0.47835996256E+03  0.12500000000E+03 0.  0.
         21    1    1    2  503  501  0.23005840196E+02  0.30179193796E+02 -0.20097310560E+03  0.20452442787E+03  0.00000000000E+00 0.  1.
         21    1    1    2  504  502  0.13023735101E+03  0.14705079206E+03  0.30824261730E+03  0.36551226267E+03  0.00000000000E+00 0.  1.
<mgrwt>
<rscale>  4 0.23479409E+03</rscale>
<asrwt>0</asrwt>
<pdfrwt beam="1">  1       21 0.58291165E-01 0.23479409E+03</pdfrwt>
<pdfrwt beam="2">  1       21 0.10300063E+00 0.23479409E+03</pdfrwt>
<totfact> 0.20351005E+03</totfact>
</mgrwt>
</event>
<event>
 5    0  0.1257040E+001  0.3218452E+03  0.7546771E-02  0.1074803E+00
         21   -1    0    0  503  501  0.00000000000E+00  0.00000000000E+00  0.40565861582E+03  0.40565861582E+03  0.00000000000E+00 0.  1.
         21   -1    0    0  504  502 -0.00000000000E+00 -0.00000000000E+00 -0.47698465001E+03  0.47698465001E+03  0.00000000000E+00 0.  1.
         25    1    1    2    0    0  0.21320944610E+03  0.30428740650E+03 -0.71138165835E+02  0.39841527619E+03  0.12500000000E+03 0.  0.
         21    1    1    2  503  502 -0.19090845747E+03 -0.18021579089E+03 -0.13871678806E+03  0.29692779881E+03  0.00000000000E+00 0.  1.
         21    1    1    2  504  501 -0.22300988637E+02 -0.12407161561E+03  0.13852891969E+03  0.18730019083E+03  0.00000000000E+00 0.  1.
<mgrwt>
<rscale>  4 0.32184524E+03</rscale>
<asrwt>0</asrwt>
<pdfrwt beam="1">  1       21 0.62409018E-01 0.32184524E+03</pdfrwt>
<pdfrwt beam="2">  1       21 0.73382254E-01 0.32184524E+03</pdfrwt>
<totfact> 0.36585869E+03</totfact>
</mgrwt>
</event>
<event>
 5    0  0.1257040E+001  0.2113024E+03  0.7546771E-02  0.1140539E+00
         21   -1    0    0  504  501  0.00000000000E+00  0.00000000000E+00  0.64460112876E+03  0.64460112876E+03  0.00000000000E+00 0.  1.
         21   -1    0    0  503  502 -0.00000000000E+00 -0.00000000000E+00 -0.26482976546E+03  0.26482976546E+03  0.00000000000E+00 0. -1.
         25    1    1    2    0    0 -0.38923773602E+02  0.22150524437E+03  0.39675882963E+03  0.47288709258E+03  0.12500000000E+03 0.  0.
         21    1    1    2  503  501  0.23178601662E+02 -0.16483563728E+03 -0.19070868974E+03  0.25313600936E+03  0.00000000000E+00 0. -1.
         21    1    1    2  504  502  0.15745171940E+02 -0.56669607099E+02  0.17372122340E+03  0.18340779228E+03  0.00000000000E+00 0.  1.
<mgrwt>
<rscale>  4 0.21130245E+03</rscale>
<asrwt>0</asrwt>
<pdfrwt beam="1">  1       21 0.99169404E-01 0.21130245E+03</pdfrwt>
<pdfrwt beam="2">  1       21 0.40743041E-01 0.21130245E+03</pdfrwt>
<totfact> 0.47889197E+03</totfact>
</mgrwt>
</event>
<event>
 5    0  0.1257040E+001  0.5954138E+03  0.7546771E-02  0.9914967E-01
         21   -1    0    0  504  501  0.00000000000E+00  0.00000000000E+00  0.41944263702E+03  0.41944263702E+03  0.00000000000E+00 0.  1.
         21   -1    0    0  503  502 -0.00000000000E+00 -0.00000000000E+00 -0.11242627986E+04  0.11242627986E+04  0.00000000000E+00 0. -1.
         25    1    1    2    0    0 -0.38774906945E+03  0.42140653132E+03  0.53012599082E+01  0.58616201587E+03  0.12500000000E+03 0.  0.
         21    1    1    2  503  501  0.40927068977E+03 -0.41874618047E+03 -0.72449442230E+03  0.93152725624E+03  0.00000000000E+00 0. -1.
         21    1    1    2  504  502 -0.21521620322E+02 -0.26603508508E+01  0.14373000860E+02  0.26016163469E+02  0.00000000000E+00 0. -1.
<mgrwt>
<rscale>  4 0.59541382E+03</rscale>
<asrwt>0</asrwt>
<pdfrwt beam="1">  1       21 0.64529637E-01 0.59541382E+03</pdfrwt>
<pdfrwt beam="2">  1       21 0.17296351E+00 0.59541382E+03</pdfrwt>
<totfact> 0.34910655E+02</totfact>
</mgrwt>
</event>
<event>
 5    0  0.1257040E+001  0.7118058E+03  0.7546771E-02  0.9697253E-01
         21   -1    0    0  503  501  0.00000000000E+00  0.00000000000E+00  0.14072729667E+04  0.14072729667E+04  0.00000000000E+00 0. -1.
         21   -1    0    0  504  502 -0.00000000000E+00 -0.00000000000E+00 -0.63000437738E+03  0.63000437738E+03  0.00000000000E+00 0. -1.
         25    1    1    2    0    0 -0.61788014391E+03  0.40528203068E+03 -0.19073215090E+03  0.77332603087E+03  0.12500000000E+03 0.  0.
         21    1    1    2  503  502  0.13574134072E+02 -0.67444912379E+02 -0.58940314590E+01  0.69049351398E+02  0.00000000000E+00 0. -1.
         21    1    1    2  504  501  0.60430600984E+03 -0.33783711830E+03  0.97389477168E+03  0.11949019618E+04  0.00000000000E+00 0. -1.
<mgrwt>
<rscale>  4 0.71180583E+03</rscale>
<asrwt>0</asrwt>
<pdfrwt beam="1">  1       21 0.21650353E+00 0.71180583E+03</pdfrwt>
<pdfrwt beam="2">  1       21 0.96923750E-01 0.71180583E+03</pdfrwt>
<totfact> 0.65105896E+01</totfact>
</mgrwt>
</event>
<event>
 5    0  0.1257040E+001  0.2461361E+03  0.7546771E-02  0.1115771E+00
         21   -1    0    0  502  501  0.00000000000E+00  0.00000000000E+00  0.39580384355E+03  0.39580384355E+03  0.00000000000E+00 0. -1.
         21   -1    0    0  504  502 -0.00000000000E+00 -0.00000000000E+00 -0.43394354958E+03  0.43394354958E+03  0.00000000000E+00 0. -1.
         25    1    1    2    0    0 -0.10991897986E+03  0.17039995898E+03 -0.26376091120E+03  0.35540560833E+03  0.12500000000E+03 0.  0.
         21    1    1    2  503  501  0.90968881993E+02 -0.19279569221E+03  0.31495253099E+03  0.38031646454E+03  0.00000000000E+00 0. -1.
         21    1    1    2  504  503  0.18950097870E+02  0.22395733232E+02 -0.89331325827E+02  0.94025320262E+02  0.00000000000E+00 0. -1.
<mgrwt>
<rscale>  4 0.24613612E+03</rscale>
<asrwt>0</asrwt>
<pdfrwt beam="1">  1       21 0.60892899E-01 0.24613612E+03</pdfrwt>
<pdfrwt beam="2">  1       21 0.66760546E-01 0.24613612E+03</pdfrwt>
<totfact> 0.49691045E+03</totfact>
</mgrwt>
</event>
<event>
 5    0  0.1257040E+001  0.2761347E+03  0.7546771E-02  0.1097819E+00
         21   -1    0    0  503  501  0.00000000000E+00  0.00000000000E+00  0.34631162766E+03  0.34631162766E+03  0.00000000000E+00 0.  1.
         21   -1    0    0  504  502 -0.00000000000E+00 -0.00000000000E+00 -0.34185977971E+03  0.34185977971E+03  0.00000000000E+00 0.  1.
         25    1    1    2    0    0 -0.14654604933E+03 -0.17356305888E+03  0.10650950282E+03  0.28030189827E+03  0.12500000000E+03 0.  0.
         21    1    1    2  503  502  0.15063285168E+03  0.20271894365E+03 -0.18940829062E+03  0.31569087202E+03  0.00000000000E+00 0.  1.
         21    1    1    2  504  501 -0.40868023555E+01 -0.29155884760E+02  0.87350635744E+02  0.92178637084E+02  0.00000000000E+00 0. -1.
<mgrwt>
<rscale>  4 0.27613465E+03</rscale>
<asrwt>0</asrwt>
<pdfrwt beam="1">  1       21 0.53278712E-01 0.27613465E+03</pdfrwt>
<pdfrwt beam="2">  1       21 0.52593812E-01 0.27613465E+03</pdfrwt>
<totfact> 0.10892891E+04</totfact>
</mgrwt>
</event>
<event>
 5    0  0.1257040E+001  0.3096744E+03  0.7546771E-02  0.1080502E+00
         21   -1    0    0  502  501  0.00000000000E+00  0.00000000000E+00  0.24255616676E+03  0.24255616676E+03  0.00000000000E+00 0.  1.
         21   -1    0    0  504  502 -0.00000000000E+00 -0.00000000000E+00 -0.27910740513E+04  0.27910740513E+04  0.00000000000E+00 0.  1.
         25    1    1    2    0    0  0.40648255306E+01  0.25721079943E+03  0.12177356692E+03  0.31084999558E+03  0.12500000000E+03 0.  0.
         21    1    1    2  503  501  0.57390182182E+02  0.20496439105E+02 -0.31305614426E+02  0.68511156183E+02  0.00000000000E+00 0. -1.
         21    1    1    2  504  503 -0.61455007713E+02 -0.27770723854E+03 -0.26389858371E+04  0.26542690663E+04  0.00000000000E+00 0.  1.
<mgrwt>
<rscale>  4 0.30967439E+03</rscale>
<asrwt>0</asrwt>
<pdfrwt beam="1">  1       21 0.37316332E-01 0.30967439E+03</pdfrwt>
<pdfrwt beam="2">  1       21 0.42939603E+00 0.30967439E+03</pdfrwt>
<totfact> 0.32886044E+01</totfact>
</mgrwt>
</event>
<event>
 5    0  0.1257040E+001  0.2188930E+03  0.7546771E-02  0.1134711E+00
         21   -1    0    0  502  501  0.00000000000E+00  0.00000000000E+00  0.40767840576E+03  0.40767840576E+03  0.00000000000E+00 0. -1.
         21   -1    0    0  504  502 -0.00000000000E+00 -0.00000000000E+00 -0.12352546545E+04  0.12352546545E+04  0.00000000000E+00 0. -1.
         25    1    1    2    0    0 -0.17269161463E+03 -0.21828326636E+03 -0.72629062675E+02  0.31363985538E+03  0.12500000000E+03 0.  0.
         21    1    1    2  503  501  0.14163738469E+03  0.91249387065E+02  0.25788903201E+03  0.30804926913E+03  0.00000000000E+00 0. -1.
         21    1    1    2  504  503  0.31054229936E+02  0.12703387929E+03 -0.10128362180E+04  0.10212439357E+04  0.00000000000E+00 0. -1.
<mgrwt>
<rscale>  4 0.21889295E+03</rscale>
<asrwt>0</asrwt>
<pdfrwt beam="1">  1       21 0.62719756E-01 0.21889295E+03</pdfrwt>
<pdfrwt beam="2">  1       21 0.19003917E+00 0.21889295E+03</pdfrwt>
<totfact> 0.35586904E+02</totfact>
</mgrwt>
</event>
<event>
 5    0  0.1257040E+001  0.2534888E+03  0.7546771E-02  0.1111120E+00
         21   -1    0    0  504  501  0.00000000000E+00  0.00000000000E+00  0.24398852189E+03  0.24398852189E+03  0.00000000000E+00 0. -1.
         21   -1    0    0  503  502 -0.00000000000E+00 -0.00000000000E+00 -0.13062142734E+04  0.13062142734E+04  0.00000000000E+00 0. -1.
         25    1    1    2    0    0  0.15119621335E+03 -0.16592173781E+03  0.15183470541E+03  0.29844446012E+03  0.12500000000E+03 0.  0.
         21    1    1    2  503  501  0.53255698488E-01  0.43663144194E+02 -0.71212254586E+03  0.71345987506E+03  0.00000000000E+00 0. -1.
         21    1    1    2  504  502 -0.15124946904E+03  0.12225859362E+03 -0.50193791110E+03  0.53829846015E+03  0.00000000000E+00 0. -1.
<mgrwt>
<rscale>  4 0.25348875E+03</rscale>
<asrwt>0</asrwt>
<pdfrwt beam="1">  1       21 0.37536695E-01 0.25348875E+03</pdfrwt>
<pdfrwt beam="2">  1       21 0.20095604E+00 0.25348875E+03</pdfrwt>
<totfact> 0.85208405E+02</totfact>
</mgrwt>
</event>
<event>
 5    0  0.1257040E+001  0.2405223E+03  0.7546771E-02  0.1119445E+00
         21   -1    0    0  503  501  0.00000000000E+00  0.00000000000E+00  0.55182888904E+02  0.55182888904E+02  0.00000000000E+00 0.  1.
         21   -1    0    0  504  502 -0.00000000000E+00 -0.00000000000E+00 -0.11057655666E+04  0.11057655666E+04  0.00000000000E+00 0.  1.
         25    1    1    2    0    0 -0.92100823556E+02  0.19723508930E+03 -0.54877748966E+03  0.60346166018E+03  0.12500000000E+03 0.  0.
         21    1    1    2  503  502  0.10922091896E+03 -0.16457616872E+03 -0.46580397860E+03  0.50595243939E+03  0.00000000000E+00 0.  1.
         21    1    1    2  504  501 -0.17120095400E+02 -0.32658920578E+02 -0.36001209420E+02  0.51534355915E+02  0.00000000000E+00 0. -1.
<mgrwt>
<rscale>  4 0.24052235E+03</rscale>
<asrwt>0</asrwt>
<pdfrwt beam="1">  1       21 0.84896752E-02 0.24052235E+03</pdfrwt>
<pdfrwt beam="2">  1       21 0.17011778E+00 0.24052235E+03</pdfrwt>
<totfact> 0.22345714E+04</totfact>
</mgrwt>
</event>
<event>
 5    0  0.1257040E+001  0.2229439E+03  0.7546771E-02  0.1131707E+00
         21   -1    0    0  502  501  0.00000000000E+00  0.00000000000E+00  0.49303053391E+03  0.49303053391E+03  0.00000000000E+00 0.  1.
         21   -1    0    0  504  502 -0.00000000000E+00 -0.00000000000E+00 -0.20483630558E+03  0.20483630558E+03  0.00000000000E+00 0.  1.
         25    1    1    2    0    0  0.67984430449E+01 -0.22647763659E+03 -0.27169038507E+02  0.26019511017E+03  0.12500000000E+03 0.  0.
         21    1    1    2  503  501 -0.16705018656E+02  0.17744464350E+03  0.33850160713E+03  0.38255587459E+03  0.00000000000E+00 0.  1.
         21    1    1    2  504  503  0.99065756113E+01  0.49032993093E+02 -0.23138340286E+02  0.55115854735E+02  0.00000000000E+00 0.  1.
<mgrwt>
<rscale>  4 0.22294387E+03</rscale>
<asrwt>0</asrwt>
<pdfrwt beam="1">  1       21 0.75850851E-01 0.22294387E+03</pdfrwt>
<pdfrwt beam="2">  1       21 0.31513278E-01 0.22294387E+03</pdfrwt>
<totfact> 0.14726237E+04</totfact>
</mgrwt>
</event>
<event>
 5    0  0.1257040E+001  0.3909205E+03  0.7546771E-02  0.1046970E+00
         21   -1    0    0  502  501  0.00000000000E+00  0.00000000000E+00  0.33666589923E+03  0.33666589923E+03  0.00000000000E+00 0.  1.
         21   -1    0    0  504  502 -0.00000000000E+00 -0.00000000000E+00 -0.95563037337E+03  0.95563037337E+03  0.00000000000E+00 0. -1.
         25    1    1    2    0    0 -0.32974705064E+02 -0.38025449501E+03  0.14165469225E+03  0.42587775710E+03  0.12500000000E+03 0.  0.
         21    1    1    2  503  501 -0.10919980986E+02  0.72030987079E+02 -0.44045563429E+02  0.85133546514E+02  0.00000000000E+00 0.  1.
         21    1    1    2  504  503  0.43894686049E+02  0.30822350793E+03 -0.71657360296E+03  0.78128496899E+03  0.00000000000E+00 0. -1.
<mgrwt>
<rscale>  4 0.39092048E+03</rscale>
<asrwt>0</asrwt>
<pdfrwt beam="1">  1       21 0.51794754E-01 0.39092048E+03</pdfrwt>
<pdfrwt beam="2">  1       21 0.14702006E+00 0.39092048E+03</pdfrwt>
<totfact> 0.96755197E+02</totfact>
</mgrwt>
</event>
