<event>
 5    0  0.6256745E+000  0.2467509E+03  0.7546771E-02  0.1115376E+00
         21   -1    0    0  502  501  0.00000000000E+00  0.00000000000E+00  0.10029997696E+04  0.10029997696E+04  0.00000000000E+00 0.  1.
         21   -1    0    0  503  502 -0.00000000000E+00 -0.00000000000E+00 -0.13577417377E+03  0.13577417377E+03  0.00000000000E+00 0.  1.
         25    1    1    2    0    0  0.73786248369E+02 -0.19954099850E+03  0.87776862359E+03  0.91179152063E+03  0.12500000000E+03 0.  0.
         21    1    1    2  503  504 -0.87363864925E+02  0.16895040565E+03 -0.22310078862E+02  0.19150567638E+03  0.00000000000E+00 0.  1.
         21    1    1    2  504  501  0.13577616555E+02  0.30590592842E+02  0.11767051109E+02  0.35476746378E+02  0.00000000000E+00 0. -1.
<mgrwt>
<rscale>  4 0.24675093E+03</rscale>
<asrwt>0</asrwt>
<pdfrwt beam="1">  1       21 0.15430765E+00 0.24675093E+03</pdfrwt>
<pdfrwt beam="2">  1       21 0.20888335E-01 0.24675093E+03</pdfrwt>
<totfact> 0.56660121E+03</totfact>
</mgrwt>
</event>
<event>
 5    0  0.2283524E+000  0.2422302E+03  0.7546771E-02  0.1118316E+00
         21   -1    0    0  502  501  0.00000000000E+00  0.00000000000E+00  0.25577799064E+03  0.25577799064E+03  0.00000000000E+00 0.  1.
         21   -1    0    0  503  502 -0.00000000000E+00 -0.00000000000E+00 -0.28155519628E+03  0.28155519628E+03  0.00000000000E+00 0.  1.
         25    1    1    2    0    0 -0.62226733903E+02 -0.19793506900E+03  0.12679961156E+03  0.27341104485E+03  0.12500000000E+03 0.  0.
         21    1    1    2  503  504 -0.97566787129E+01  0.39789110460E+02 -0.21483928825E+02  0.46259326503E+02  0.00000000000E+00 0.  1.
         21    1    1    2  504  501  0.71983412616E+02  0.15814595854E+03 -0.13109288838E+03  0.21766281556E+03  0.00000000000E+00 0.  1.
<mgrwt>
<rscale>  4 0.24223018E+03</rscale>
<asrwt>0</asrwt>
<pdfrwt beam="1">  1       21 0.39350460E-01 0.24223018E+03</pdfrwt>
<pdfrwt beam="2">  1       21 0.43316184E-01 0.24223018E+03</pdfrwt>
<totfact> 0.31111580E+04</totfact>
</mgrwt>
</event>
<event>
 5    0  0.2159162E+000  0.3052181E+03  0.7546771E-02  0.1082661E+00
         21   -1    0    0  502  501  0.00000000000E+00  0.00000000000E+00  0.22864469756E+04  0.22864469756E+04  0.00000000000E+00 0. -1.
         21   -1    0    0  503  502 -0.00000000000E+00 -0.00000000000E+00 -0.55868385779E+02  0.55868385779E+02  0.00000000000E+00 0.  1.
         25    1    1    2    0    0 -0.23098360536E+03  0.15549816970E+03  0.18108119703E+04  0.18363545678E+04  0.12500000000E+03 0.  0.
         21    1    1    2  503  504  0.43311886553E+02 -0.86288229557E+01  0.66485985403E+02  0.79817055554E+02  0.00000000000E+00 0.  1.
         21    1    1    2  504  501  0.18767171881E+03 -0.14686934674E+03  0.35328063411E+03  0.42614373806E+03  0.00000000000E+00 0.  1.
<mgrwt>
<rscale>  4 0.30521813E+03</rscale>
<asrwt>0</asrwt>
<pdfrwt beam="1">  1       21 0.35176100E+00 0.30521813E+03</pdfrwt>
<pdfrwt beam="2">  1       21 0.85951380E-02 0.30521813E+03</pdfrwt>
<totfact> 0.15978632E+03</totfact>
</mgrwt>
</event>
<event>
 5    0  0.2159162E+000  0.2922717E+03  0.7546771E-02  0.1089169E+00
         21   -1    0    0  502  501  0.00000000000E+00  0.00000000000E+00  0.78311542650E+02  0.78311542650E+02  0.00000000000E+00 0. -1.
         21   -1    0    0  503  502 -0.00000000000E+00 -0.00000000000E+00 -0.16594572240E+04  0.16594572240E+04  0.00000000000E+00 0. -1.
         25    1    1    2    0    0 -0.78646424386E+01 -0.27846827042E+03 -0.38080941117E+03  0.48810576505E+03  0.12500000000E+03 0.  0.
         21    1    1    2  503  504  0.67029333172E+02  0.23247702592E+02 -0.13409459647E+03  0.15170612375E+03  0.00000000000E+00 0. -1.
         21    1    1    2  504  501 -0.59164690734E+02  0.25522056783E+03 -0.10662416737E+04  0.10979568778E+04  0.00000000000E+00 0. -1.
<mgrwt>
<rscale>  4 0.29227173E+03</rscale>
<asrwt>0</asrwt>
<pdfrwt beam="1">  1       21 0.12047932E-01 0.29227173E+03</pdfrwt>
<pdfrwt beam="2">  1       21 0.25530106E+00 0.29227173E+03</pdfrwt>
<totfact> 0.32998911E+03</totfact>
</mgrwt>
</event>
<event>
 5    0  0.2761409E+000  0.2384901E+03  0.7546771E-02  0.1120803E+00
         21   -1    0    0  502  501  0.00000000000E+00  0.00000000000E+00  0.48095424136E+02  0.48095424136E+02  0.00000000000E+00 0.  1.
         21   -1    0    0  503  502 -0.00000000000E+00 -0.00000000000E+00 -0.13339989217E+04  0.13339989217E+04  0.00000000000E+00 0.  1.
         25    1    1    2    0    0  0.12388534937E+03 -0.16095009902E+03 -0.35758214067E+03  0.42981682318E+03  0.12500000000E+03 0.  0.
         21    1    1    2  503  504 -0.12593915220E+03  0.13341776664E+03 -0.83709007972E+03  0.85696019283E+03  0.00000000000E+00 0.  1.
         21    1    1    2  504  501  0.20538028308E+01  0.27532332374E+02 -0.91231277150E+02  0.95317329812E+02  0.00000000000E+00 0.  1.
<mgrwt>
<rscale>  4 0.23849007E+03</rscale>
<asrwt>0</asrwt>
<pdfrwt beam="1">  1       21 0.73992976E-02 0.23849007E+03</pdfrwt>
<pdfrwt beam="2">  1       21 0.20523056E+00 0.23849007E+03</pdfrwt>
<totfact> 0.16522404E+04</totfact>
</mgrwt>
</event>
<event>
 5    0  0.2159162E+000  0.2936355E+03  0.7546771E-02  0.1088466E+00
         21   -1    0    0  502  501  0.00000000000E+00  0.00000000000E+00  0.35388270719E+03  0.35388270719E+03  0.00000000000E+00 0. -1.
         21   -1    0    0  503  502 -0.00000000000E+00 -0.00000000000E+00 -0.65422160934E+03  0.65422160934E+03  0.00000000000E+00 0. -1.
         25    1    1    2    0    0  0.25610467889E+03 -0.85540104155E+02  0.24773524830E+03  0.38717498527E+03  0.12500000000E+03 0.  0.
         21    1    1    2  503  504 -0.26011215082E+02  0.39895626945E+02 -0.43538698068E+02  0.64527998488E+02  0.00000000000E+00 0.  1.
         21    1    1    2  504  501 -0.23009346381E+03  0.45644477210E+02 -0.50453545239E+03  0.55640133277E+03  0.00000000000E+00 0. -1.
<mgrwt>
<rscale>  4 0.29363549E+03</rscale>
<asrwt>0</asrwt>
<pdfrwt beam="1">  1       21 0.54443494E-01 0.29363549E+03</pdfrwt>
<pdfrwt beam="2">  1       21 0.10064948E+00 0.29363549E+03</pdfrwt>
<totfact> 0.23942678E+03</totfact>
</mgrwt>
</event>
<event>
 5    0  0.2159162E+000  0.2907513E+03  0.7546771E-02  0.1089958E+00
         21   -1    0    0  502  501  0.00000000000E+00  0.00000000000E+00  0.86068238517E+03  0.86068238517E+03  0.00000000000E+00 0.  1.
         21   -1    0    0  503  502 -0.00000000000E+00 -0.00000000000E+00 -0.34476220086E+03  0.34476220086E+03  0.00000000000E+00 0.  1.
         25    1    1    2    0    0 -0.25146299100E+03 -0.75350238297E+02  0.77750933636E+03  0.83009461050E+03  0.12500000000E+03 0.  0.
         21    1    1    2  503  504  0.18154501318E+03  0.61576950584E+02 -0.22382713809E+03  0.29470137495E+03  0.00000000000E+00 0.  1.
         21    1    1    2  504  501  0.69917977818E+02  0.13773287712E+02 -0.37762013963E+02  0.80648600578E+02  0.00000000000E+00 0.  1.
<mgrwt>
<rscale>  4 0.29075126E+03</rscale>
<asrwt>0</asrwt>
<pdfrwt beam="1">  1       21 0.13241267E+00 0.29075126E+03</pdfrwt>
<pdfrwt beam="2">  1       21 0.53040339E-01 0.29075126E+03</pdfrwt>
<totfact> 0.12827143E+03</totfact>
</mgrwt>
</event>
<event>
 5    0  0.1616497E+001  0.3051092E+03  0.7546771E-02  0.1082714E+00
         21   -1    0    0  502  501  0.00000000000E+00  0.00000000000E+00  0.57642291110E+03  0.57642291110E+03  0.00000000000E+00 0.  1.
         21   -1    0    0  503  502 -0.00000000000E+00 -0.00000000000E+00 -0.15164216036E+03  0.15164216036E+03  0.00000000000E+00 0.  1.
         25    1    1    2    0    0  0.27274865726E+03 -0.55450662007E+02  0.24267510817E+03  0.38984973269E+03  0.12500000000E+03 0.  0.
         21    1    1    2  503  504 -0.30838900270E+02  0.10923686349E+02  0.47914182783E+02  0.58018390232E+02  0.00000000000E+00 0. -1.
         21    1    1    2  504  501 -0.24190975699E+03  0.44526975657E+02  0.13419145980E+03  0.28019694854E+03  0.00000000000E+00 0.  1.
<mgrwt>
<rscale>  4 0.30510917E+03</rscale>
<asrwt>0</asrwt>
<pdfrwt beam="1">  1       21 0.88680447E-01 0.30510917E+03</pdfrwt>
<pdfrwt beam="2">  1       21 0.23329563E-01 0.30510917E+03</pdfrwt>
<totfact> 0.17733431E+04</totfact>
</mgrwt>
</event>
<event>
 5    0  0.2159162E+000  0.2423766E+03  0.7546771E-02  0.1118220E+00
         21   -1    0    0  502  501  0.00000000000E+00  0.00000000000E+00  0.54095453905E+03  0.54095453905E+03  0.00000000000E+00 0. -1.
         21   -1    0    0  503  502 -0.00000000000E+00 -0.00000000000E+00 -0.24595038491E+03  0.24595038491E+03  0.00000000000E+00 0. -1.
         25    1    1    2    0    0  0.21338677215E+03 -0.62306951475E+02  0.39717518969E+03  0.47200551060E+03  0.12500000000E+03 0.  0.
         21    1    1    2  503  504 -0.33243925418E+02  0.94491537004E+02 -0.84505498479E+02  0.13105338002E+03  0.00000000000E+00 0. -1.
         21    1    1    2  504  501 -0.18014284673E+03 -0.32184585529E+02 -0.17665537069E+02  0.18384603334E+03  0.00000000000E+00 0. -1.
<mgrwt>
<rscale>  4 0.24237664E+03</rscale>
<asrwt>0</asrwt>
<pdfrwt beam="1">  1       21 0.83223775E-01 0.24237664E+03</pdfrwt>
<pdfrwt beam="2">  1       21 0.37838521E-01 0.24237664E+03</pdfrwt>
<totfact> 0.81956085E+03</totfact>
</mgrwt>
</event>
<event>
 5    0  0.2159162E+000  0.4555517E+03  0.7546771E-02  0.1026079E+00
         21   -1    0    0  502  501  0.00000000000E+00  0.00000000000E+00  0.15833132597E+03  0.15833132597E+03  0.00000000000E+00 0.  1.
         21   -1    0    0  503  502 -0.00000000000E+00 -0.00000000000E+00 -0.20088014911E+04  0.20088014911E+04  0.00000000000E+00 0.  1.
         25    1    1    2    0    0 -0.10179913371E+03 -0.48697979713E+03 -0.60405763834E+03  0.79247903245E+03  0.12500000000E+03 0.  0.
         21    1    1    2  503  504  0.15941906122E+02  0.11160518109E+03 -0.68288500092E+03  0.69212844566E+03  0.00000000000E+00 0.  1.
         21    1    1    2  504  501  0.85857227587E+02  0.37537461604E+03 -0.56352752587E+03  0.68252533895E+03  0.00000000000E+00 0.  1.
<mgrwt>
<rscale>  4 0.45555167E+03</rscale>
<asrwt>0</asrwt>
<pdfrwt beam="1">  1       21 0.24358665E-01 0.45555167E+03</pdfrwt>
<pdfrwt beam="2">  1       21 0.30904639E+00 0.45555167E+03</pdfrwt>
<totfact> 0.37981752E+02</totfact>
</mgrwt>
</event>
<event>
 5    0  0.2451589E+000  0.2217871E+03  0.7546771E-02  0.1132558E+00
         21   -1    0    0  502  501  0.00000000000E+00  0.00000000000E+00  0.13875813708E+04  0.13875813708E+04  0.00000000000E+00 0. -1.
         21   -1    0    0  503  502 -0.00000000000E+00 -0.00000000000E+00 -0.10756558002E+03  0.10756558002E+03  0.00000000000E+00 0. -1.
         25    1    1    2    0    0  0.67502914634E+02 -0.20759888976E+03  0.11897282808E+04  0.12160313831E+04  0.12500000000E+03 0.  0.
         21    1    1    2  503  504 -0.40071583496E+01  0.10613853229E+03 -0.29031031865E+02  0.11011015469E+03  0.00000000000E+00 0. -1.
         21    1    1    2  504  501 -0.63495756284E+02  0.10146035747E+03  0.11931854179E+03  0.16900541299E+03  0.00000000000E+00 0. -1.
<mgrwt>
<rscale>  4 0.22178709E+03</rscale>
<asrwt>0</asrwt>
<pdfrwt beam="1">  1       21 0.21347404E+00 0.22178709E+03</pdfrwt>
<pdfrwt beam="2">  1       21 0.16548552E-01 0.22178709E+03</pdfrwt>
<totfact> 0.35196720E+03</totfact>
</mgrwt>
</event>
<event>
 5    0  0.2159162E+000  0.2921652E+03  0.7546771E-02  0.1089224E+00
         21   -1    0    0  502  501  0.00000000000E+00  0.00000000000E+00  0.17072800905E+03  0.17072800905E+03  0.00000000000E+00 0. -1.
         21   -1    0    0  503  502 -0.00000000000E+00 -0.00000000000E+00 -0.66852483333E+03  0.66852483333E+03  0.00000000000E+00 0.  1.
         25    1    1    2    0    0 -0.20033362951E+03  0.17744301515E+03 -0.50149397094E+02  0.29959897992E+03  0.12500000000E+03 0.  0.
         21    1    1    2  503  504  0.30426579427E+02  0.16346014084E+02 -0.10738940703E+03  0.11280715250E+03  0.00000000000E+00 0.  1.
         21    1    1    2  504  501  0.16990705009E+03 -0.19378902924E+03 -0.34025802016E+03  0.42684670996E+03  0.00000000000E+00 0.  1.
<mgrwt>
<rscale>  4 0.29216524E+03</rscale>
<asrwt>0</asrwt>
<pdfrwt beam="1">  1       21 0.26265847E-01 0.29216524E+03</pdfrwt>
<pdfrwt beam="2">  1       21 0.10284998E+00 0.29216524E+03</pdfrwt>
<totfact> 0.99796679E+03</totfact>
</mgrwt>
</event>
<event>
 5    0  0.2159162E+000  0.2210530E+03  0.7546771E-02  0.1133100E+00
         21   -1    0    0  502  501  0.00000000000E+00  0.00000000000E+00  0.15218067547E+04  0.15218067547E+04  0.00000000000E+00 0. -1.
         21   -1    0    0  503  502 -0.00000000000E+00 -0.00000000000E+00 -0.16447926973E+03  0.16447926973E+03  0.00000000000E+00 0.  1.
         25    1    1    2    0    0 -0.19831070947E+03 -0.35405544084E+02  0.14145163219E+04  0.14342461836E+04  0.12500000000E+03 0.  0.
         21    1    1    2  503  504  0.10917743790E+03 -0.42785876787E+01  0.38047619847E+02  0.11569632940E+03  0.00000000000E+00 0.  1.
         21    1    1    2  504  501  0.89133271561E+02  0.39684131763E+02 -0.95236456818E+02  0.13634351147E+03  0.00000000000E+00 0.  1.
<mgrwt>
<rscale>  4 0.22105300E+03</rscale>
<asrwt>0</asrwt>
<pdfrwt beam="1">  1       21 0.23412411E+00 0.22105300E+03</pdfrwt>
<pdfrwt beam="2">  1       21 0.25304504E-01 0.22105300E+03</pdfrwt>
<totfact> 0.11843645E+03</totfact>
</mgrwt>
</event>
