<event>
 5    0  0.2286636E+000  0.2838367E+03  0.7546771E-02  0.1093612E+00
         21   -1    0    0  502  501  0.00000000000E+00  0.00000000000E+00  0.45543762135E+03  0.45543762135E+03  0.00000000000E+00 0. -1.
         21   -1    0    0  503  502 -0.00000000000E+00 -0.00000000000E+00 -0.17394706519E+03  0.17394706519E+03  0.00000000000E+00 0.  1.
         25    1    1    2    0    0 -0.22793557627E+03  0.11394586739E+03  0.23221501916E+03  0.36672483247E+03  0.12500000000E+03 0.  0.
         21    1    1    2  503  504  0.19552982479E+03 -0.10250202549E+03  0.55725976335E+02  0.22769269213E+03  0.00000000000E+00 0.  1.
         21    1    1    2  504  501  0.32405751475E+02 -0.11443841907E+02 -0.64504393391E+01  0.34967161937E+02  0.00000000000E+00 0. -1.
<mgrwt>
<rscale>  4 0.28383673E+03</rscale>
<asrwt>0</asrwt>
<pdfrwt beam="1">  1       21 0.70067326E-01 0.28383673E+03</pdfrwt>
<pdfrwt beam="2">  1       21 0.26761087E-01 0.28383673E+03</pdfrwt>
<totfact> 0.23494126E+04</totfact>
</mgrwt>
</event>
<event>
 5    0  0.2159162E+000  0.2843685E+03  0.7546771E-02  0.1093327E+00
         21   -1    0    0  502  501  0.00000000000E+00  0.00000000000E+00  0.31023755780E+03  0.31023755780E+03  0.00000000000E+00 0. -1.
         21   -1    0    0  503  502 -0.00000000000E+00 -0.00000000000E+00 -0.32420813194E+03  0.32420813194E+03  0.00000000000E+00 0. -1.
         25    1    1    2    0    0  0.23947413234E+03 -0.71364276665E+02  0.97233720531E+02  0.29583799021E+03  0.12500000000E+03 0.  0.
         21    1    1    2  503  504 -0.26739409585E+03  0.29913928165E+02 -0.10224669571E+03  0.28783473101E+03  0.00000000000E+00 0. -1.
         21    1    1    2  504  501  0.27919963510E+02  0.41450348500E+02 -0.89575989575E+01  0.50772968519E+02  0.00000000000E+00 0. -1.
<mgrwt>
<rscale>  4 0.28436850E+03</rscale>
<asrwt>0</asrwt>
<pdfrwt beam="1">  1       21 0.47728855E-01 0.28436850E+03</pdfrwt>
<pdfrwt beam="2">  1       21 0.49878174E-01 0.28436850E+03</pdfrwt>
<totfact> 0.15303056E+04</totfact>
</mgrwt>
</event>
<event>
 5    0  0.2159162E+000  0.2646176E+03  0.7546771E-02  0.1104400E+00
         21   -1    0    0  502  501  0.00000000000E+00  0.00000000000E+00  0.95142731440E+03  0.95142731440E+03  0.00000000000E+00 0. -1.
         21   -1    0    0  503  502 -0.00000000000E+00 -0.00000000000E+00 -0.18960771669E+04  0.18960771669E+04  0.00000000000E+00 0. -1.
         25    1    1    2    0    0  0.23193332299E+03  0.22095640419E+02  0.91542771299E+03  0.95284530820E+03  0.12500000000E+03 0.  0.
         21    1    1    2  503  504  0.28223951025E+02 -0.41767484673E+02 -0.73460589039E+02  0.89093054327E+02  0.00000000000E+00 0.  1.
         21    1    1    2  504  501 -0.26015727401E+03  0.19671844254E+02 -0.17866169765E+04  0.18055661188E+04  0.00000000000E+00 0. -1.
<mgrwt>
<rscale>  4 0.26461764E+03</rscale>
<asrwt>0</asrwt>
<pdfrwt beam="1">  1       21 0.14637343E+00 0.26461764E+03</pdfrwt>
<pdfrwt beam="2">  1       21 0.29170418E+00 0.26461764E+03</pdfrwt>
<totfact> 0.10772528E+01</totfact>
</mgrwt>
</event>
<event>
 5    0  0.2159162E+000  0.4016987E+03  0.7546771E-02  0.1044540E+00
         21   -1    0    0  502  501  0.00000000000E+00  0.00000000000E+00  0.13199505542E+04  0.13199505542E+04  0.00000000000E+00 0. -1.
         21   -1    0    0  503  502 -0.00000000000E+00 -0.00000000000E+00 -0.11768602716E+03  0.11768602716E+03  0.00000000000E+00 0. -1.
         25    1    1    2    0    0  0.32978695135E+03 -0.15781220491E+03  0.60502176066E+03  0.71787217259E+03  0.12500000000E+03 0.  0.
         21    1    1    2  503  504 -0.20770413193E+03  0.11920110256E+03  0.23485250386E+03  0.33541855620E+03  0.00000000000E+00 0. -1.
         21    1    1    2  504  501 -0.12208281942E+03  0.38611102348E+02  0.36239026248E+03  0.38434585253E+03  0.00000000000E+00 0. -1.
<mgrwt>
<rscale>  4 0.39781291E+03</rscale>
<asrwt>0</asrwt>
<pdfrwt beam="1">  1       21 0.20306931E+00 0.40169875E+03</pdfrwt>
<pdfrwt beam="2">  1       21 0.18105543E-01 0.40169875E+03</pdfrwt>
<totfact> 0.30990491E+03</totfact>
</mgrwt>
</event>
<event>
 5    0  0.2159162E+000  0.3961156E+03  0.7546771E-02  0.1045133E+00
         21   -1    0    0  502  501  0.00000000000E+00  0.00000000000E+00  0.51176981251E+03  0.51176981251E+03  0.00000000000E+00 0. -1.
         21   -1    0    0  503  502 -0.00000000000E+00 -0.00000000000E+00 -0.71790313778E+03  0.71790313778E+03  0.00000000000E+00 0. -1.
         25    1    1    2    0    0 -0.25281414817E+03  0.27815027686E+03  0.36385542050E+03  0.53786460848E+03  0.12500000000E+03 0.  0.
         21    1    1    2  503  504  0.16978450705E+02 -0.85439818421E+02 -0.11422016516E+03  0.14364705528E+03  0.00000000000E+00 0. -1.
         21    1    1    2  504  501  0.23583569746E+03 -0.19271045844E+03 -0.45576858061E+03  0.54816128654E+03  0.00000000000E+00 0. -1.
<mgrwt>
<rscale>  4 0.39611560E+03</rscale>
<asrwt>0</asrwt>
<pdfrwt beam="1">  1       21 0.78733818E-01 0.39611560E+03</pdfrwt>
<pdfrwt beam="2">  1       21 0.11044664E+00 0.39611560E+03</pdfrwt>
<totfact> 0.79861178E+02</totfact>
</mgrwt>
</event>
<event>
 5    0  0.2159162E+000  0.3337867E+03  0.7546771E-02  0.1069474E+00
         21   -1    0    0  502  501  0.00000000000E+00  0.00000000000E+00  0.12472505899E+04  0.12472505899E+04  0.00000000000E+00 0.  1.
         21   -1    0    0  503  502 -0.00000000000E+00 -0.00000000000E+00 -0.19739764369E+03  0.19739764369E+03  0.00000000000E+00 0. -1.
         25    1    1    2    0    0  0.14234035976E+03  0.27482320691E+03  0.10783339364E+04  0.11288124962E+04  0.12500000000E+03 0.  0.
         21    1    1    2  503  504 -0.12383001775E+03 -0.26627152246E+03 -0.31007757870E+02  0.29528948172E+03  0.00000000000E+00 0. -1.
         21    1    1    2  504  501 -0.18510342009E+02 -0.85516844499E+01  0.25267676624E+01  0.20546255694E+02  0.00000000000E+00 0. -1.
<mgrwt>
<rscale>  4 0.33378672E+03</rscale>
<asrwt>0</asrwt>
<pdfrwt beam="1">  1       21 0.19188470E+00 0.33378672E+03</pdfrwt>
<pdfrwt beam="2">  1       21 0.30368869E-01 0.33378672E+03</pdfrwt>
<totfact> 0.14081139E+03</totfact>
</mgrwt>
</event>
<event>
 5    0  0.2159162E+000  0.2618658E+03  0.7546771E-02  0.1106027E+00
         21   -1    0    0  502  501  0.00000000000E+00  0.00000000000E+00  0.34570120604E+03  0.34570120604E+03  0.00000000000E+00 0. -1.
         21   -1    0    0  503  502 -0.00000000000E+00 -0.00000000000E+00 -0.18347026642E+03  0.18347026642E+03  0.00000000000E+00 0. -1.
         25    1    1    2    0    0  0.43979938983E+01  0.23006377264E+03  0.13201769341E+03  0.29326157812E+03  0.12500000000E+03 0.  0.
         21    1    1    2  503  504 -0.17186524660E+02 -0.16798679824E+03  0.91133161986E+01  0.16910941294E+03  0.00000000000E+00 0. -1.
         21    1    1    2  504  501  0.12788530761E+02 -0.62076974399E+02  0.21099930009E+02  0.66800481405E+02  0.00000000000E+00 0. -1.
<mgrwt>
<rscale>  4 0.26186577E+03</rscale>
<asrwt>0</asrwt>
<pdfrwt beam="1">  1       21 0.53184801E-01 0.26186577E+03</pdfrwt>
<pdfrwt beam="2">  1       21 0.28226195E-01 0.26186577E+03</pdfrwt>
<totfact> 0.38899710E+04</totfact>
</mgrwt>
</event>
<event>
 5    0  0.3526638E+000  0.3044656E+03  0.7546771E-02  0.1083029E+00
         21   -1    0    0  502  501  0.00000000000E+00  0.00000000000E+00  0.26393493166E+03  0.26393493166E+03  0.00000000000E+00 0.  1.
         21   -1    0    0  503  502 -0.00000000000E+00 -0.00000000000E+00 -0.40888619327E+03  0.40888619327E+03  0.00000000000E+00 0.  1.
         25    1    1    2    0    0 -0.25405288767E+03 -0.12381369570E+03  0.42619174828E+02  0.31195207170E+03  0.12500000000E+03 0.  0.
         21    1    1    2  503  504  0.22619565579E+03  0.14807285858E+03 -0.15507230076E+03  0.31166883805E+03  0.00000000000E+00 0.  1.
         21    1    1    2  504  501  0.27857231877E+02 -0.24259162880E+02 -0.32498135670E+02  0.49200215177E+02  0.00000000000E+00 0.  1.
<mgrwt>
<rscale>  4 0.30446560E+03</rscale>
<asrwt>0</asrwt>
<pdfrwt beam="1">  1       21 0.40605374E-01 0.30446560E+03</pdfrwt>
<pdfrwt beam="2">  1       21 0.62905568E-01 0.30446560E+03</pdfrwt>
<totfact> 0.12882711E+04</totfact>
</mgrwt>
</event>
<event>
 5    0  0.2159162E+000  0.3903117E+03  0.7546771E-02  0.1047187E+00
         21   -1    0    0  502  501  0.00000000000E+00  0.00000000000E+00  0.49058876272E+03  0.49058876272E+03  0.00000000000E+00 0.  1.
         21   -1    0    0  503  502 -0.00000000000E+00 -0.00000000000E+00 -0.34294085851E+03  0.34294085851E+03  0.00000000000E+00 0.  1.
         25    1    1    2    0    0 -0.20927804300E+03  0.31288455357E+03 -0.18588906927E+02  0.39707000718E+03  0.12500000000E+03 0.  0.
         21    1    1    2  503  504  0.22061104169E+02 -0.38657781055E+01  0.53457784466E+02  0.57960083485E+02  0.00000000000E+00 0. -1.
         21    1    1    2  504  501  0.18721693883E+03 -0.30901877547E+03  0.11277902668E+03  0.37849953056E+03  0.00000000000E+00 0.  1.
<mgrwt>
<rscale>  4 0.39031168E+03</rscale>
<asrwt>0</asrwt>
<pdfrwt beam="1">  1       21 0.75475194E-01 0.39031168E+03</pdfrwt>
<pdfrwt beam="2">  1       21 0.52760132E-01 0.39031168E+03</pdfrwt>
<totfact> 0.47916759E+03</totfact>
</mgrwt>
</event>
<event>
 5    0  0.2159162E+000  0.3343519E+03  0.7546771E-02  0.1069227E+00
         21   -1    0    0  502  501  0.00000000000E+00  0.00000000000E+00  0.38560044403E+03  0.38560044403E+03  0.00000000000E+00 0.  1.
         21   -1    0    0  503  502 -0.00000000000E+00 -0.00000000000E+00 -0.47628415981E+03  0.47628415981E+03  0.00000000000E+00 0.  1.
         25    1    1    2    0    0 -0.26238717223E+03  0.17801270533E+03  0.21974130836E+03  0.40552039901E+03  0.12500000000E+03 0.  0.
         21    1    1    2  503  504  0.24712977622E+03 -0.14812554771E+03 -0.22816652637E+03  0.36752451338E+03  0.00000000000E+00 0.  1.
         21    1    1    2  504  501  0.15257396016E+02 -0.29887157616E+02 -0.82258497758E+02  0.88839691451E+02  0.00000000000E+00 0. -1.
<mgrwt>
<rscale>  4 0.33435186E+03</rscale>
<asrwt>0</asrwt>
<pdfrwt beam="1">  1       21 0.59323145E-01 0.33435186E+03</pdfrwt>
<pdfrwt beam="2">  1       21 0.73274486E-01 0.33435186E+03</pdfrwt>
<totfact> 0.40753008E+03</totfact>
</mgrwt>
</event>
