<event>
 5    0  0.3696258E+000  0.2235982E+03  0.7546771E-02  0.1131229E+00
         21   -1    0    0  501  502  0.00000000000E+00  0.00000000000E+00  0.13659708804E+04  0.13659708804E+04  0.00000000000E+00 0. -1.
          2   -1    0    0  503    0 -0.00000000000E+00 -0.00000000000E+00 -0.13782655128E+03  0.13782655128E+03  0.00000000000E+00 0.  1.
         25    1    1    2    0    0  0.92996709027E+02  0.23096811746E+03  0.20892019702E+03  0.34823455873E+03  0.12500000000E+03 0.  0.
         21    1    1    2  503  502 -0.84227078184E+02 -0.15759106583E+03  0.10573956447E+04  0.10723873807E+04  0.00000000000E+00 0. -1.
          2    1    1    2  501    0 -0.87696308430E+01 -0.73377051628E+02 -0.38171512666E+02  0.83175492244E+02  0.00000000000E+00 0.  1.
<mgrwt>
<rscale>  4 0.22359820E+03</rscale>
<asrwt>0</asrwt>
<pdfrwt beam="1">  1       21 0.21014936E+00 0.22359820E+03</pdfrwt>
<pdfrwt beam="2">  1        2 0.21204086E-01 0.22359820E+03</pdfrwt>
<totfact> 0.35956741E+02</totfact>
</mgrwt>
</event>
<event>
 5    0  0.3696258E+000  0.2937306E+03  0.7546771E-02  0.1088417E+00
          2   -1    0    0  503    0 -0.00000000000E+00  0.00000000000E+00  0.18762814717E+04  0.18762814717E+04  0.00000000000E+00 0. -1.
         21   -1    0    0  501  502  0.00000000000E+00 -0.00000000000E+00 -0.13552447824E+04  0.13552447824E+04  0.00000000000E+00 0.  1.
         25    1    1    2    0    0  0.21659766615E+03 -0.10235285258E+03 -0.88292815105E+03  0.92335138237E+03  0.12500000000E+03 0.  0.
         21    1    1    2  503  502 -0.32410578632E+03  0.15315536104E+03 -0.37875466910E+03  0.52149422308E+03  0.00000000000E+00 0.  1.
          2    1    1    2  501    0  0.10750812018E+03 -0.50802508462E+02  0.17827195095E+04  0.17866806486E+04  0.00000000000E+00 0. -1.
<mgrwt>
<rscale>  4 0.29373065E+03</rscale>
<asrwt>0</asrwt>
<pdfrwt beam="1">  1       21 0.20849920E+00 0.29373065E+03</pdfrwt>
<pdfrwt beam="2">  1        2 0.28865869E+00 0.29373065E+03</pdfrwt>
<totfact> 0.11811084E+01</totfact>
</mgrwt>
</event>
<event>
 5    0  0.3696258E+000  0.3467734E+03  0.7546771E-02  0.1063947E+00
          2   -1    0    0  503    0 -0.00000000000E+00  0.00000000000E+00  0.20441008473E+04  0.20441008473E+04  0.00000000000E+00 0.  1.
         21   -1    0    0  501  502  0.00000000000E+00 -0.00000000000E+00 -0.10400588309E+04  0.10400588309E+04  0.00000000000E+00 0. -1.
         25    1    1    2    0    0 -0.29717727057E+03 -0.12729830748E+03 -0.97265068737E+03  0.10325664864E+04  0.12500000000E+03 0.  0.
         21    1    1    2  503  502  0.31090704876E+03  0.10575593703E+03  0.68505080695E+03  0.75969870297E+03  0.00000000000E+00 0. -1.
          2    1    1    2  501    0 -0.13729778192E+02  0.21542370452E+02  0.12916418968E+04  0.12918944888E+04  0.00000000000E+00 0.  1.
<mgrwt>
<rscale>  4 0.34677337E+03</rscale>
<asrwt>0</asrwt>
<pdfrwt beam="1">  1       21 0.16000905E+00 0.34677337E+03</pdfrwt>
<pdfrwt beam="2">  1        2 0.31447705E+00 0.34677337E+03</pdfrwt>
<totfact> 0.19921846E+01</totfact>
</mgrwt>
</event>
<event>
 5    0  0.3696258E+000  0.2490366E+03  0.7546771E-02  0.1113915E+00
          2   -1    0    0  503    0 -0.00000000000E+00  0.00000000000E+00  0.33300280057E+03  0.33300280057E+03  0.00000000000E+00 0.  1.
         21   -1    0    0  501  502  0.00000000000E+00 -0.00000000000E+00 -0.25090892685E+03  0.25090892685E+03  0.00000000000E+00 0.  1.
         25    1    1    2    0    0  0.61215902501E+02 -0.19848182132E+03 -0.74659156337E+02  0.25365608556E+03  0.12500000000E+03 0.  0.
         21    1    1    2  503  502 -0.93378887026E+02  0.21022680762E+03  0.75537658215E+02  0.24211746115E+03  0.00000000000E+00 0.  1.
          2    1    1    2  501    0  0.32162984525E+02 -0.11744986295E+02  0.81215371845E+02  0.88138180719E+02  0.00000000000E+00 0.  1.
<mgrwt>
<rscale>  4 0.24903664E+03</rscale>
<asrwt>0</asrwt>
<pdfrwt beam="1">  1       21 0.38601373E-01 0.24903664E+03</pdfrwt>
<pdfrwt beam="2">  1        2 0.51231200E-01 0.24903664E+03</pdfrwt>
<totfact> 0.77422462E+03</totfact>
</mgrwt>
</event>
<event>
 5    0  0.3696258E+000  0.2438776E+03  0.7546771E-02  0.1117236E+00
          2   -1    0    0  503    0 -0.00000000000E+00  0.00000000000E+00  0.38640507370E+03  0.38640507370E+03  0.00000000000E+00 0.  1.
         21   -1    0    0  501  502  0.00000000000E+00 -0.00000000000E+00 -0.18909928148E+03  0.18909928148E+03  0.00000000000E+00 0.  1.
         25    1    1    2    0    0  0.20455806841E+03 -0.10895829730E+03  0.97453700393E+01  0.26350689960E+03  0.12500000000E+03 0.  0.
         21    1    1    2  503  502 -0.37048736957E+02 -0.37915867657E+01  0.12629504899E+01  0.37263656345E+02  0.00000000000E+00 0.  1.
          2    1    1    2  501    0 -0.16750933145E+03  0.11274988407E+03  0.18629747170E+03  0.27473379923E+03  0.00000000000E+00 0.  1.
<mgrwt>
<rscale>  4 0.24387763E+03</rscale>
<asrwt>0</asrwt>
<pdfrwt beam="1">  1       21 0.29092197E-01 0.24387763E+03</pdfrwt>
<pdfrwt beam="2">  1        2 0.59446934E-01 0.24387763E+03</pdfrwt>
<totfact> 0.11568710E+04</totfact>
</mgrwt>
</event>
<event>
 5    0  0.3696258E+000  0.2324811E+03  0.7546771E-02  0.1124906E+00
          2   -1    0    0  503    0 -0.00000000000E+00  0.00000000000E+00  0.40938750869E+03  0.40938750869E+03  0.00000000000E+00 0. -1.
         21   -1    0    0  501  502  0.00000000000E+00 -0.00000000000E+00 -0.57939557888E+03  0.57939557888E+03  0.00000000000E+00 0.  1.
         25    1    1    2    0    0 -0.75458366114E+02 -0.19360784900E+03 -0.50751025977E+03  0.56246744616E+03  0.12500000000E+03 0.  0.
         21    1    1    2  503  502  0.46124801428E+02  0.13449144643E+03  0.85706341607E+02  0.16601513022E+03  0.00000000000E+00 0.  1.
          2    1    1    2  501    0  0.29333564687E+02  0.59116402570E+02  0.25179584798E+03  0.26030051119E+03  0.00000000000E+00 0. -1.
<mgrwt>
<rscale>  4 0.23248108E+03</rscale>
<asrwt>0</asrwt>
<pdfrwt beam="1">  1       21 0.89137782E-01 0.23248108E+03</pdfrwt>
<pdfrwt beam="2">  1        2 0.62982694E-01 0.23248108E+03</pdfrwt>
<totfact> 0.10221879E+03</totfact>
</mgrwt>
</event>
<event>
 5    0  0.3696258E+000  0.2450399E+03  0.7546771E-02  0.1116480E+00
          2   -1    0    0  503    0 -0.00000000000E+00  0.00000000000E+00  0.14823559345E+04  0.14823559345E+04  0.00000000000E+00 0.  1.
         21   -1    0    0  501  502  0.00000000000E+00 -0.00000000000E+00 -0.13160277932E+03  0.13160277932E+03  0.00000000000E+00 0. -1.
         25    1    1    2    0    0 -0.16083552877E+03 -0.15101270403E+03  0.25579524415E+02  0.25485724664E+03  0.12500000000E+03 0.  0.
         21    1    1    2  503  502  0.10061510489E+03  0.24299782233E+02  0.19983077891E+03  0.22504714828E+03  0.00000000000E+00 0. -1.
          2    1    1    2  501    0  0.60220423884E+02  0.12671292180E+03  0.11253428518E+04  0.11340543189E+04  0.00000000000E+00 0.  1.
<mgrwt>
<rscale>  4 0.24503995E+03</rscale>
<asrwt>0</asrwt>
<pdfrwt beam="1">  1       21 0.20246582E-01 0.24503995E+03</pdfrwt>
<pdfrwt beam="2">  1        2 0.22805475E+00 0.24503995E+03</pdfrwt>
<totfact> 0.39536414E+03</totfact>
</mgrwt>
</event>
<event>
 5    0  0.3696258E+000  0.2290217E+03  0.7546771E-02  0.1127330E+00
         21   -1    0    0  501  502  0.00000000000E+00  0.00000000000E+00  0.20106264973E+03  0.20106264973E+03  0.00000000000E+00 0. -1.
          1   -1    0    0  503    0 -0.00000000000E+00 -0.00000000000E+00 -0.10467710583E+04  0.10467710583E+04  0.00000000000E+00 0. -1.
         25    1    1    2    0    0 -0.25404698433E+02 -0.19839554603E+03  0.39758025134E+02  0.23919007494E+03  0.12500000000E+03 0.  0.
         21    1    1    2  503  502  0.46021681972E+02  0.17590618259E+03 -0.73526010347E+02  0.19613019778E+03  0.00000000000E+00 0. -1.
          1    1    1    2  501    0 -0.20616983539E+02  0.22489363444E+02 -0.81194042334E+03  0.81251343529E+03  0.00000000000E+00 0. -1.
<mgrwt>
<rscale>  4 0.22902173E+03</rscale>
<asrwt>0</asrwt>
<pdfrwt beam="1">  1       21 0.30932716E-01 0.22902173E+03</pdfrwt>
<pdfrwt beam="2">  1        1 0.16104170E+00 0.22902173E+03</pdfrwt>
<totfact> 0.16374446E+03</totfact>
</mgrwt>
</event>
<event>
 5    0  0.3696258E+000  0.2708918E+03  0.7546771E-02  0.1100770E+00
         21   -1    0    0  501  502  0.00000000000E+00  0.00000000000E+00  0.18322492625E+04  0.18322492625E+04  0.00000000000E+00 0. -1.
          2   -1    0    0  503    0 -0.00000000000E+00 -0.00000000000E+00 -0.53211899619E+02  0.53211899619E+02  0.00000000000E+00 0. -1.
         25    1    1    2    0    0  0.23427672943E+03 -0.76832313492E+02  0.12334752676E+04  0.12640708154E+04  0.12500000000E+03 0.  0.
         21    1    1    2  503  502 -0.23336210951E+03  0.14057747445E+02  0.44890924114E+03  0.50613733433E+03  0.00000000000E+00 0. -1.
          2    1    1    2  501    0 -0.91461991829E+00  0.62774566047E+02  0.96652854134E+02  0.11525301247E+03  0.00000000000E+00 0. -1.
<mgrwt>
<rscale>  4 0.27089177E+03</rscale>
<asrwt>0</asrwt>
<pdfrwt beam="1">  1       21 0.28188445E+00 0.27089177E+03</pdfrwt>
<pdfrwt beam="2">  1        2 0.81864475E-02 0.27089177E+03</pdfrwt>
<totfact> 0.40682295E+02</totfact>
</mgrwt>
</event>
<event>
 5    0  0.3696258E+000  0.2751640E+03  0.7546771E-02  0.1098360E+00
          2   -1    0    0  503    0 -0.00000000000E+00  0.00000000000E+00  0.14790892478E+04  0.14790892478E+04  0.00000000000E+00 0.  1.
         21   -1    0    0  501  502  0.00000000000E+00 -0.00000000000E+00 -0.33187251872E+03  0.33187251872E+03  0.00000000000E+00 0. -1.
         25    1    1    2    0    0 -0.28199700117E+02  0.26272151194E+03 -0.95112136349E+02  0.30739084957E+03  0.12500000000E+03 0.  0.
         21    1    1    2  503  502 -0.17733333553E+03 -0.12166396708E+03 -0.20817688844E+02  0.21606158600E+03  0.00000000000E+00 0.  1.
          2    1    1    2  501    0  0.20553303564E+03 -0.14105754486E+03  0.12631465542E+04  0.12875093309E+04  0.00000000000E+00 0.  1.
<mgrwt>
<rscale>  4 0.27516403E+03</rscale>
<asrwt>0</asrwt>
<pdfrwt beam="1">  1       21 0.51057312E-01 0.27516403E+03</pdfrwt>
<pdfrwt beam="2">  1        2 0.22755219E+00 0.27516403E+03</pdfrwt>
<totfact> 0.62489106E+02</totfact>
</mgrwt>
</event>
<event>
 5    0  0.3696258E+000  0.2767778E+03  0.7546771E-02  0.1097462E+00
          2   -1    0    0  503    0 -0.00000000000E+00  0.00000000000E+00  0.28241719531E+04  0.28241719531E+04  0.00000000000E+00 0.  1.
         21   -1    0    0  501  502  0.00000000000E+00 -0.00000000000E+00 -0.15169018269E+03  0.15169018269E+03  0.00000000000E+00 0. -1.
         25    1    1    2    0    0 -0.20014839482E+03  0.96310506668E+02  0.15530992609E+03  0.29846485017E+03  0.12500000000E+03 0.  0.
         21    1    1    2  503  502  0.30659024652E+03  0.52841014859E+02  0.24015443651E+03  0.39301896327E+03  0.00000000000E+00 0. -1.
          2    1    1    2  501    0 -0.10644185170E+03 -0.14915152153E+03  0.22770174078E+04  0.22843783224E+04  0.00000000000E+00 0.  1.
<mgrwt>
<rscale>  4 0.27677775E+03</rscale>
<asrwt>0</asrwt>
<pdfrwt beam="1">  1       21 0.23336953E-01 0.27677775E+03</pdfrwt>
<pdfrwt beam="2">  1        2 0.43448795E+00 0.27677775E+03</pdfrwt>
<totfact> 0.56409631E+02</totfact>
</mgrwt>
</event>
<event>
 5    0  0.3696258E+000  0.5266099E+03  0.7546771E-02  0.1007058E+00
         21   -1    0    0  501  502  0.00000000000E+00  0.00000000000E+00  0.33513883239E+03  0.33513883239E+03  0.00000000000E+00 0.  1.
          2   -1    0    0  503    0 -0.00000000000E+00 -0.00000000000E+00 -0.13363676478E+04  0.13363676478E+04  0.00000000000E+00 0.  1.
         25    1    1    2    0    0  0.10424951060E+03  0.48858097715E+03 -0.21994687343E+03  0.55998299869E+03  0.12500000000E+03 0.  0.
         21    1    1    2  503  502 -0.85408677832E+02 -0.51770053840E+03 -0.25372006376E+03  0.58282275218E+03  0.00000000000E+00 0.  1.
          2    1    1    2  501    0 -0.18840832764E+02  0.29119561251E+02 -0.52756187821E+03  0.52870072931E+03  0.00000000000E+00 0.  1.
<mgrwt>
<rscale>  4 0.52660991E+03</rscale>
<asrwt>0</asrwt>
<pdfrwt beam="1">  1       21 0.51559821E-01 0.52660991E+03</pdfrwt>
<pdfrwt beam="2">  1        2 0.20559502E+00 0.52660991E+03</pdfrwt>
<totfact> 0.67318208E+02</totfact>
</mgrwt>
</event>
<event>
 5    0  0.3696258E+000  0.3460224E+03  0.7546771E-02  0.1064260E+00
          2   -1    0    0  503    0 -0.00000000000E+00  0.00000000000E+00  0.13818454998E+04  0.13818454998E+04  0.00000000000E+00 0.  1.
         21   -1    0    0  501  502  0.00000000000E+00 -0.00000000000E+00 -0.13133552049E+04  0.13133552049E+04  0.00000000000E+00 0.  1.
         25    1    1    2    0    0 -0.25934708415E+03 -0.17414655994E+03 -0.10267475253E+04  0.10804736994E+04  0.12500000000E+03 0.  0.
         21    1    1    2  503  502  0.28520865721E+03  0.24763854760E+03 -0.12051888122E+03  0.39647651776E+03  0.00000000000E+00 0.  1.
          2    1    1    2  501    0 -0.25861573061E+02 -0.73491987660E+02  0.12157567015E+04  0.12182504875E+04  0.00000000000E+00 0.  1.
<mgrwt>
<rscale>  4 0.34602236E+03</rscale>
<asrwt>0</asrwt>
<pdfrwt beam="1">  1       21 0.20205465E+00 0.34602236E+03</pdfrwt>
<pdfrwt beam="2">  1        2 0.21259161E+00 0.34602236E+03</pdfrwt>
<totfact> 0.22949049E+01</totfact>
</mgrwt>
</event>
<event>
 5    0  0.3696258E+000  0.2721377E+03  0.7546771E-02  0.1100062E+00
          2   -1    0    0  503    0 -0.00000000000E+00  0.00000000000E+00  0.11581239553E+04  0.11581239553E+04  0.00000000000E+00 0. -1.
         21   -1    0    0  501  502  0.00000000000E+00 -0.00000000000E+00 -0.35648597620E+03  0.35648597620E+03  0.00000000000E+00 0. -1.
         25    1    1    2    0    0 -0.21092476099E+03 -0.11302964801E+03 -0.15195229607E+03  0.30980551385E+03  0.12500000000E+03 0.  0.
         21    1    1    2  503  502  0.10500196147E+03  0.27892851773E+03  0.78987790984E+02  0.30832710073E+03  0.00000000000E+00 0. -1.
          2    1    1    2  501    0  0.10592279952E+03 -0.16589886973E+03  0.87460248416E+03  0.89647731691E+03  0.00000000000E+00 0. -1.
<mgrwt>
<rscale>  4 0.27213772E+03</rscale>
<asrwt>0</asrwt>
<pdfrwt beam="1">  1       21 0.54843997E-01 0.27213772E+03</pdfrwt>
<pdfrwt beam="2">  1        2 0.17817291E+00 0.27213772E+03</pdfrwt>
<totfact> 0.81019918E+02</totfact>
</mgrwt>
</event>
<event>
 5    0  0.3696258E+000  0.4625618E+03  0.7546771E-02  0.1024041E+00
          3   -1    0    0  503    0 -0.00000000000E+00  0.00000000000E+00  0.36658324396E+03  0.36658324396E+03  0.00000000000E+00 0. -1.
         21   -1    0    0  501  502  0.00000000000E+00 -0.00000000000E+00 -0.10520385626E+04  0.10520385626E+04  0.00000000000E+00 0.  1.
         25    1    1    2    0    0 -0.45957696147E+03 -0.63378237949E+02 -0.45495872154E+03  0.66169496210E+03  0.12500000000E+03 0.  0.
         21    1    1    2  503  502  0.42415622630E+03  0.61423295093E+02 -0.39849879976E+03  0.58522014567E+03  0.00000000000E+00 0.  1.
          3    1    1    2  501    0  0.35420735172E+02  0.19549428563E+01  0.16800220271E+03  0.17170669875E+03  0.00000000000E+00 0. -1.
<mgrwt>
<rscale>  4 0.46256176E+03</rscale>
<asrwt>0</asrwt>
<pdfrwt beam="1">  1       21 0.16185209E+00 0.46256176E+03</pdfrwt>
<pdfrwt beam="2">  1        3 0.56397422E-01 0.46256176E+03</pdfrwt>
<totfact> 0.33940251E+01</totfact>
</mgrwt>
</event>
<event>
 5    0  0.3696258E+000  0.2207142E+03  0.7546771E-02  0.1133352E+00
          2   -1    0    0  503    0 -0.00000000000E+00  0.00000000000E+00  0.29101970323E+03  0.29101970323E+03  0.00000000000E+00 0. -1.
         21   -1    0    0  501  502  0.00000000000E+00 -0.00000000000E+00 -0.45187895596E+03  0.45187895596E+03  0.00000000000E+00 0. -1.
         25    1    1    2    0    0 -0.97598735329E+02 -0.19852519917E+03 -0.10459446128E+03  0.27477767226E+03  0.12500000000E+03 0.  0.
         21    1    1    2  503  502  0.95878425307E+02  0.13981807777E+03 -0.22942721934E+03  0.28526937495E+03  0.00000000000E+00 0. -1.
          2    1    1    2  501    0  0.17203100210E+01  0.58707121393E+02  0.17316242789E+03  0.18285161198E+03  0.00000000000E+00 0. -1.
<mgrwt>
<rscale>  4 0.22071416E+03</rscale>
<asrwt>0</asrwt>
<pdfrwt beam="1">  1       21 0.69519839E-01 0.22071416E+03</pdfrwt>
<pdfrwt beam="2">  1        2 0.44772262E-01 0.22071416E+03</pdfrwt>
<totfact> 0.26075549E+03</totfact>
</mgrwt>
</event>
<event>
 5    0  0.3696258E+000  0.2712707E+03  0.7546771E-02  0.1100555E+00
         21   -1    0    0  501  502  0.00000000000E+00  0.00000000000E+00  0.26573020165E+04  0.26573020165E+04  0.00000000000E+00 0. -1.
          2   -1    0    0  503    0 -0.00000000000E+00 -0.00000000000E+00 -0.18619571086E+04  0.18619571086E+04  0.00000000000E+00 0.  1.
         25    1    1    2    0    0 -0.96450112833E+02 -0.19374842504E+03  0.35266140357E+03  0.43224546503E+03  0.12500000000E+03 0.  0.
         21    1    1    2  503  502  0.10015626007E+03  0.22340131428E+03  0.22581089805E+04  0.22713422445E+04  0.00000000000E+00 0. -1.
          2    1    1    2  501    0 -0.37061472357E+01 -0.29652889240E+02 -0.18154254762E+04  0.18156714155E+04  0.00000000000E+00 0.  1.
<mgrwt>
<rscale>  4 0.27127068E+03</rscale>
<asrwt>0</asrwt>
<pdfrwt beam="1">  1       21 0.40881569E+00 0.27127068E+03</pdfrwt>
<pdfrwt beam="2">  1        2 0.28645494E+00 0.27127068E+03</pdfrwt>
<totfact> 0.75740885E-01</totfact>
</mgrwt>
</event>
<event>
 5    0  0.3696258E+000  0.3329109E+03  0.7546771E-02  0.1069856E+00
         21   -1    0    0  501  502  0.00000000000E+00  0.00000000000E+00  0.72270779904E+03  0.72270779904E+03  0.00000000000E+00 0. -1.
          1   -1    0    0  503    0 -0.00000000000E+00 -0.00000000000E+00 -0.12592012415E+04  0.12592012415E+04  0.00000000000E+00 0.  1.
         25    1    1    2    0    0 -0.36977639922E+02 -0.27559126568E+03 -0.18271821553E+03  0.35542768303E+03  0.12500000000E+03 0.  0.
         21    1    1    2  503  502  0.65349586831E+02  0.30612483274E+03  0.59737507987E+03  0.67441824395E+03  0.00000000000E+00 0. -1.
          1    1    1    2  501    0 -0.28371946909E+02 -0.30533567058E+02 -0.95115030679E+03  0.95206311356E+03  0.00000000000E+00 0.  1.
<mgrwt>
<rscale>  4 0.33291091E+03</rscale>
<asrwt>0</asrwt>
<pdfrwt beam="1">  1       21 0.11118582E+00 0.33291091E+03</pdfrwt>
<pdfrwt beam="2">  1        1 0.19372327E+00 0.33291091E+03</pdfrwt>
<totfact> 0.67668992E+01</totfact>
</mgrwt>
</event>
<event>
 5    0  0.3696258E+000  0.2263427E+03  0.7546771E-02  0.1129241E+00
         21   -1    0    0  501  502  0.00000000000E+00  0.00000000000E+00  0.27958125760E+03  0.27958125760E+03  0.00000000000E+00 0. -1.
          1   -1    0    0  503    0 -0.00000000000E+00 -0.00000000000E+00 -0.32232685404E+03  0.32232685404E+03  0.00000000000E+00 0. -1.
         25    1    1    2    0    0 -0.20160028767E+03 -0.33814759878E+02 -0.10127063069E+03  0.26012853480E+03  0.12500000000E+03 0.  0.
         21    1    1    2  503  502  0.18498560021E+03  0.88456239621E+01  0.15452935483E+03  0.24119958303E+03  0.00000000000E+00 0. -1.
          1    1    1    2  501    0  0.16614687463E+02  0.24969135916E+02 -0.96004320574E+02  0.10057999382E+03  0.00000000000E+00 0. -1.
<mgrwt>
<rscale>  4 0.22634272E+03</rscale>
<asrwt>0</asrwt>
<pdfrwt beam="1">  1       21 0.43012501E-01 0.22634272E+03</pdfrwt>
<pdfrwt beam="2">  1        1 0.49588747E-01 0.22634272E+03</pdfrwt>
<totfact> 0.45046483E+03</totfact>
</mgrwt>
</event>
<event>
 5    0  0.3696258E+000  0.2995261E+03  0.7546771E-02  0.1085478E+00
         21   -1    0    0  501  502  0.00000000000E+00  0.00000000000E+00  0.16850262575E+03  0.16850262575E+03  0.00000000000E+00 0.  1.
          2   -1    0    0  503    0 -0.00000000000E+00 -0.00000000000E+00 -0.23605312403E+04  0.23605312403E+04  0.00000000000E+00 0.  1.
         25    1    1    2    0    0 -0.19324007634E+02 -0.27290438465E+03  0.14513673200E+02  0.30114094232E+03  0.12500000000E+03 0.  0.
         21    1    1    2  503  502 -0.10153159637E+01  0.25741322815E+03 -0.15802165554E+04  0.16010455843E+04  0.00000000000E+00 0.  1.
          2    1    1    2  501    0  0.20339323598E+02  0.15491156502E+02 -0.62632573231E+03  0.62684733945E+03  0.00000000000E+00 0.  1.
<mgrwt>
<rscale>  4 0.29952609E+03</rscale>
<asrwt>0</asrwt>
<pdfrwt beam="1">  1       21 0.25923482E-01 0.29952609E+03</pdfrwt>
<pdfrwt beam="2">  1        2 0.36315864E+00 0.29952609E+03</pdfrwt>
<totfact> 0.82476910E+02</totfact>
</mgrwt>
</event>
<event>
 5    0  0.3696258E+000  0.2394281E+03  0.7546771E-02  0.1120174E+00
          2   -1    0    0  503    0 -0.00000000000E+00  0.00000000000E+00  0.35739051297E+04  0.35739051297E+04  0.00000000000E+00 0. -1.
         21   -1    0    0  501  502  0.00000000000E+00 -0.00000000000E+00 -0.21670195974E+03  0.21670195974E+03  0.00000000000E+00 0. -1.
         25    1    1    2    0    0 -0.18643283560E+03  0.11435779888E+03 -0.99763146600E+02  0.27094758492E+03  0.12500000000E+03 0.  0.
         21    1    1    2  503  502  0.15603922741E+03 -0.61660119982E+02  0.19549488995E+03  0.25762077340E+03  0.00000000000E+00 0. -1.
          2    1    1    2  501    0  0.30393608184E+02 -0.52697678896E+02  0.32614714266E+04  0.32620387311E+04  0.00000000000E+00 0. -1.
<mgrwt>
<rscale>  4 0.23942807E+03</rscale>
<asrwt>0</asrwt>
<pdfrwt beam="1">  1       21 0.33338766E-01 0.23942807E+03</pdfrwt>
<pdfrwt beam="2">  1        2 0.54983151E+00 0.23942807E+03</pdfrwt>
<totfact> 0.99539354E+01</totfact>
</mgrwt>
</event>
<event>
 5    0  0.3696258E+000  0.4162965E+03  0.7546771E-02  0.1038278E+00
          2   -1    0    0  503    0 -0.00000000000E+00  0.00000000000E+00  0.13557281664E+04  0.13557281664E+04  0.00000000000E+00 0. -1.
         21   -1    0    0  501  502  0.00000000000E+00 -0.00000000000E+00 -0.44749125288E+03  0.44749125288E+03  0.00000000000E+00 0. -1.
         25    1    1    2    0    0  0.33606906027E+02  0.39881033922E+03 -0.26161252160E+03  0.49421171805E+03  0.12500000000E+03 0.  0.
         21    1    1    2  503  502 -0.95719551035E+02 -0.37463882425E+03  0.48198000698E+03  0.61791682953E+03  0.00000000000E+00 0. -1.
          2    1    1    2  501    0  0.62112645008E+02 -0.24171514970E+02  0.68786942813E+03  0.69109087171E+03  0.00000000000E+00 0. -1.
<mgrwt>
<rscale>  4 0.41629650E+03</rscale>
<asrwt>0</asrwt>
<pdfrwt beam="1">  1       21 0.68844809E-01 0.41629650E+03</pdfrwt>
<pdfrwt beam="2">  1        2 0.20857356E+00 0.41629650E+03</pdfrwt>
<totfact> 0.35965547E+02</totfact>
</mgrwt>
</event>
<event>
 5    0  0.3696258E+000  0.2685266E+03  0.7546771E-02  0.1102126E+00
         21   -1    0    0  501  502  0.00000000000E+00  0.00000000000E+00  0.27621070578E+03  0.27621070578E+03  0.00000000000E+00 0. -1.
          2   -1    0    0  503    0 -0.00000000000E+00 -0.00000000000E+00 -0.60041722856E+03  0.60041722856E+03  0.00000000000E+00 0. -1.
         25    1    1    2    0    0 -0.17364038805E+02  0.25057628220E+03 -0.83618933517E+02  0.29275776521E+03  0.12500000000E+03 0.  0.
         21    1    1    2  503  502 -0.21268842235E+03 -0.18166717722E+03 -0.67211943723E+02  0.28767477063E+03  0.00000000000E+00 0. -1.
          2    1    1    2  501    0  0.23005246115E+03 -0.68909104987E+02 -0.17337564554E+03  0.29619539851E+03  0.00000000000E+00 0. -1.
<mgrwt>
<rscale>  4 0.26852664E+03</rscale>
<asrwt>0</asrwt>
<pdfrwt beam="1">  1       21 0.42493955E-01 0.26852664E+03</pdfrwt>
<pdfrwt beam="2">  1        2 0.92371880E-01 0.26852664E+03</pdfrwt>
<totfact> 0.32888264E+03</totfact>
</mgrwt>
</event>
<event>
 5    0  0.3696258E+000  0.2650391E+03  0.7546771E-02  0.1104153E+00
          1   -1    0    0  503    0 -0.00000000000E+00  0.00000000000E+00  0.20521502573E+04  0.20521502573E+04  0.00000000000E+00 0. -1.
         21   -1    0    0  501  502  0.00000000000E+00 -0.00000000000E+00 -0.19452094901E+04  0.19452094901E+04  0.00000000000E+00 0.  1.
         25    1    1    2    0    0  0.11630891640E+03  0.23593506896E+03 -0.39215486239E+03  0.48847063053E+03  0.12500000000E+03 0.  0.
         21    1    1    2  503  502 -0.80607862964E+02 -0.21392593253E+03 -0.14959931044E+04  0.15133596072E+04  0.00000000000E+00 0.  1.
          1    1    1    2  501    0 -0.35701053438E+02 -0.22009136424E+02  0.19950887340E+04  0.19955295096E+04  0.00000000000E+00 0. -1.
<mgrwt>
<rscale>  4 0.26503913E+03</rscale>
<asrwt>0</asrwt>
<pdfrwt beam="1">  1       21 0.29926300E+00 0.26503913E+03</pdfrwt>
<pdfrwt beam="2">  1        1 0.31571542E+00 0.26503913E+03</pdfrwt>
<totfact> 0.10984838E+00</totfact>
</mgrwt>
</event>
<event>
 5    0  0.3696258E+000  0.2880308E+03  0.7546771E-02  0.1091382E+00
         21   -1    0    0  501  502  0.00000000000E+00  0.00000000000E+00  0.57122145024E+03  0.57122145024E+03  0.00000000000E+00 0. -1.
          2   -1    0    0  503    0 -0.00000000000E+00 -0.00000000000E+00 -0.17107599561E+04  0.17107599561E+04  0.00000000000E+00 0. -1.
         25    1    1    2    0    0 -0.20886651146E+03  0.19951499313E+03  0.45782461083E+03  0.55557162128E+03  0.12500000000E+03 0.  0.
         21    1    1    2  503  502  0.16359807084E+03 -0.83884052662E+02 -0.74305073581E+02  0.19829802579E+03  0.00000000000E+00 0. -1.
          2    1    1    2  501    0  0.45268440624E+02 -0.11563094047E+03 -0.15230580431E+04  0.15281117593E+04  0.00000000000E+00 0. -1.
<mgrwt>
<rscale>  4 0.28803084E+03</rscale>
<asrwt>0</asrwt>
<pdfrwt beam="1">  1       21 0.87880222E-01 0.28803084E+03</pdfrwt>
<pdfrwt beam="2">  1        2 0.26319384E+00 0.28803084E+03</pdfrwt>
<totfact> 0.14046318E+02</totfact>
</mgrwt>
</event>
<event>
 5    0  0.3696258E+000  0.2978242E+03  0.7546771E-02  0.1086333E+00
         21   -1    0    0  501  502  0.00000000000E+00  0.00000000000E+00  0.34506950545E+03  0.34506950545E+03  0.00000000000E+00 0.  1.
          1   -1    0    0  503    0 -0.00000000000E+00 -0.00000000000E+00 -0.13257437940E+04  0.13257437940E+04  0.00000000000E+00 0.  1.
         25    1    1    2    0    0 -0.13434268564E+03 -0.23765094182E+03  0.24418283442E+03  0.38700928149E+03  0.12500000000E+03 0.  0.
         21    1    1    2  503  502  0.66280559557E+02  0.22171491520E+03 -0.11759209255E+04  0.11984742964E+04  0.00000000000E+00 0.  1.
          1    1    1    2  501    0  0.68062126086E+02  0.15936026619E+02 -0.48936197472E+02  0.85329721521E+02  0.00000000000E+00 0.  1.
<mgrwt>
<rscale>  4 0.29782423E+03</rscale>
<asrwt>0</asrwt>
<pdfrwt beam="1">  1       21 0.53087617E-01 0.29782423E+03</pdfrwt>
<pdfrwt beam="2">  1        1 0.20396058E+00 0.29782423E+03</pdfrwt>
<totfact> 0.33478459E+02</totfact>
</mgrwt>
</event>
<event>
 5    0  0.3696258E+000  0.2719124E+03  0.7546771E-02  0.1100190E+00
         21   -1    0    0  501  502  0.00000000000E+00  0.00000000000E+00  0.12181642807E+03  0.12181642807E+03  0.00000000000E+00 0.  1.
          2   -1    0    0  503    0 -0.00000000000E+00 -0.00000000000E+00 -0.18141861328E+04  0.18141861328E+04  0.00000000000E+00 0.  1.
         25    1    1    2    0    0 -0.21770835623E+02  0.24385847597E+03 -0.84788228204E+02  0.28767163438E+03  0.12500000000E+03 0.  0.
         21    1    1    2  503  502  0.89156372673E+02 -0.20617781003E+03 -0.14952344212E+04  0.15120132680E+04  0.00000000000E+00 0.  1.
          2    1    1    2  501    0 -0.67385537050E+02 -0.37680665939E+02 -0.11234705531E+03  0.13631765853E+03  0.00000000000E+00 0.  1.
<mgrwt>
<rscale>  4 0.27191245E+03</rscale>
<asrwt>0</asrwt>
<pdfrwt beam="1">  1       21 0.18740990E-01 0.27191245E+03</pdfrwt>
<pdfrwt beam="2">  1        2 0.27910555E+00 0.27191245E+03</pdfrwt>
<totfact> 0.30190394E+03</totfact>
</mgrwt>
</event>
<event>
 5    0  0.3696258E+000  0.3652292E+03  0.7546771E-02  0.1056532E+00
         21   -1    0    0  501  502  0.00000000000E+00  0.00000000000E+00  0.42140952457E+03  0.42140952457E+03  0.00000000000E+00 0. -1.
          2   -1    0    0  503    0 -0.00000000000E+00 -0.00000000000E+00 -0.11386411055E+04  0.11386411055E+04  0.00000000000E+00 0.  1.
         25    1    1    2    0    0  0.34126296537E+03 -0.24088391630E+03  0.41131977815E+01  0.43603599743E+03  0.12500000000E+03 0.  0.
         21    1    1    2  503  502 -0.27593395463E+03  0.12866511388E+03  0.77920425880E+02  0.31427034797E+03  0.00000000000E+00 0. -1.
          2    1    1    2  501    0 -0.65329010741E+02  0.11221880242E+03 -0.79926520457E+03  0.80974428463E+03  0.00000000000E+00 0.  1.
<mgrwt>
<rscale>  4 0.36522921E+03</rscale>
<asrwt>0</asrwt>
<pdfrwt beam="1">  1       21 0.64832235E-01 0.36522921E+03</pdfrwt>
<pdfrwt beam="2">  1        2 0.17517555E+00 0.36522921E+03</pdfrwt>
<totfact> 0.55694228E+02</totfact>
</mgrwt>
</event>
<event>
 5    0  0.3696258E+000  0.2712074E+03  0.7546771E-02  0.1100591E+00
          1   -1    0    0  503    0 -0.00000000000E+00  0.00000000000E+00  0.97532864485E+03  0.97532864485E+03  0.00000000000E+00 0. -1.
         21   -1    0    0  501  502  0.00000000000E+00 -0.00000000000E+00 -0.54652103760E+03  0.54652103760E+03  0.00000000000E+00 0. -1.
         25    1    1    2    0    0  0.12351172606E+03 -0.20657513065E+03 -0.49404822410E+03  0.56359300813E+03  0.12500000000E+03 0.  0.
         21    1    1    2  503  502 -0.77626336670E+02  0.88083320494E+02  0.29177946659E+03  0.31451514529E+03  0.00000000000E+00 0. -1.
          1    1    1    2  501    0 -0.45885389393E+02  0.11849181016E+03  0.63107636476E+03  0.64374152903E+03  0.00000000000E+00 0. -1.
<mgrwt>
<rscale>  4 0.27120736E+03</rscale>
<asrwt>0</asrwt>
<pdfrwt beam="1">  1       21 0.84080160E-01 0.27120736E+03</pdfrwt>
<pdfrwt beam="2">  1        1 0.15005056E+00 0.27120736E+03</pdfrwt>
<totfact> 0.21870384E+02</totfact>
</mgrwt>
</event>
<event>
 5    0  0.3696258E+000  0.2445423E+03  0.7546771E-02  0.1116803E+00
         21   -1    0    0  501  502  0.00000000000E+00  0.00000000000E+00  0.43769103791E+02  0.43769103791E+02  0.00000000000E+00 0. -1.
          2   -1    0    0  503    0 -0.00000000000E+00 -0.00000000000E+00 -0.15392422152E+04  0.15392422152E+04  0.00000000000E+00 0. -1.
         25    1    1    2    0    0 -0.25040873331E+02 -0.20868376581E+03 -0.44811266584E+03  0.51049575976E+03  0.12500000000E+03 0.  0.
         21    1    1    2  503  502 -0.26418660425E+02  0.14975696289E+03 -0.65343621466E+03  0.67089789103E+03  0.00000000000E+00 0. -1.
          2    1    1    2  501    0  0.51459533756E+02  0.58926802913E+02 -0.39392423089E+03  0.40161766819E+03  0.00000000000E+00 0. -1.
<mgrwt>
<rscale>  4 0.24454235E+03</rscale>
<asrwt>0</asrwt>
<pdfrwt beam="1">  1       21 0.67337077E-02 0.24454235E+03</pdfrwt>
<pdfrwt beam="2">  1        2 0.23680651E+00 0.24454235E+03</pdfrwt>
<totfact> 0.26722229E+04</totfact>
</mgrwt>
</event>
<event>
 5    0  0.3696258E+000  0.1908148E+03  0.7546771E-02  0.1157728E+00
         21   -1    0    0  501  502  0.00000000000E+00  0.00000000000E+00  0.23860585139E+03  0.23860585139E+03  0.00000000000E+00 0.  1.
          1   -1    0    0  503    0 -0.00000000000E+00 -0.00000000000E+00 -0.70467630792E+03  0.70467630792E+03  0.00000000000E+00 0.  1.
         25    1    1    2    0    0 -0.59207716145E+02 -0.19784825882E+03 -0.60172891351E+01  0.24147607529E+03  0.12500000000E+03 0.  0.
         21    1    1    2  503  502 -0.30797838975E+02  0.89797748007E+02  0.91955442881E+02  0.13216635694E+03  0.00000000000E+00 0.  1.
          1    1    1    2  501    0  0.90005555120E+02  0.10805051082E+03 -0.55200861027E+03  0.56963972707E+03  0.00000000000E+00 0.  1.
<mgrwt>
<rscale>  4 0.19081479E+03</rscale>
<asrwt>0</asrwt>
<pdfrwt beam="1">  1       21 0.36708593E-01 0.19081479E+03</pdfrwt>
<pdfrwt beam="2">  1        1 0.10841174E+00 0.19081479E+03</pdfrwt>
<totfact> 0.22276641E+03</totfact>
</mgrwt>
</event>
<event>
 5    0  0.3696258E+000  0.4703919E+03  0.7546771E-02  0.1021810E+00
         21   -1    0    0  501  502  0.00000000000E+00  0.00000000000E+00  0.67605889422E+03  0.67605889422E+03  0.00000000000E+00 0. -1.
          2   -1    0    0  503    0 -0.00000000000E+00 -0.00000000000E+00 -0.14960348544E+04  0.14960348544E+04  0.00000000000E+00 0. -1.
         25    1    1    2    0    0  0.41674608829E+03 -0.47847435428E+02 -0.25908512912E+02  0.43847797005E+03  0.12500000000E+03 0.  0.
         21    1    1    2  503  502 -0.47225535864E+03 -0.14197469455E+02  0.34908172735E+03  0.58743914090E+03  0.00000000000E+00 0. -1.
          2    1    1    2  501    0  0.55509270348E+02  0.62044904883E+02 -0.11431491746E+04  0.11461766377E+04  0.00000000000E+00 0. -1.
<mgrwt>
<rscale>  4 0.47039189E+03</rscale>
<asrwt>0</asrwt>
<pdfrwt beam="1">  1       21 0.10400906E+00 0.47039189E+03</pdfrwt>
<pdfrwt beam="2">  1        2 0.23015921E+00 0.47039189E+03</pdfrwt>
<totfact> 0.11234633E+02</totfact>
</mgrwt>
</event>
<event>
 5    0  0.3696258E+000  0.2806074E+03  0.7546771E-02  0.1095358E+00
         21   -1    0    0  501  502  0.00000000000E+00  0.00000000000E+00  0.10302785883E+04  0.10302785883E+04  0.00000000000E+00 0. -1.
          2   -1    0    0  503    0 -0.00000000000E+00 -0.00000000000E+00 -0.29618894129E+04  0.29618894129E+04  0.00000000000E+00 0. -1.
         25    1    1    2    0    0 -0.17660572000E+03 -0.27907197096E+03  0.33663729256E+03  0.48787335657E+03  0.12500000000E+03 0.  0.
         21    1    1    2  503  502  0.65986028673E+02  0.54641434299E+02  0.60959951891E+03  0.61559029864E+03  0.00000000000E+00 0.  1.
          2    1    1    2  501    0  0.11061969133E+03  0.22443053666E+03 -0.28778476361E+04  0.28887043460E+04  0.00000000000E+00 0. -1.
<mgrwt>
<rscale>  4 0.28060739E+03</rscale>
<asrwt>0</asrwt>
<pdfrwt beam="1">  1       21 0.15850440E+00 0.28060739E+03</pdfrwt>
<pdfrwt beam="2">  1        2 0.45567528E+00 0.28060739E+03</pdfrwt>
<totfact> 0.66956605E+00</totfact>
</mgrwt>
</event>
<event>
 5    0  0.3696258E+000  0.2385946E+03  0.7546771E-02  0.1120733E+00
         -3   -1    0    0    0  501 -0.00000000000E+00  0.00000000000E+00  0.21257466820E+03  0.21257466820E+03  0.00000000000E+00 0. -1.
         21   -1    0    0  503  502  0.00000000000E+00 -0.00000000000E+00 -0.50671130740E+03  0.50671130740E+03  0.00000000000E+00 0. -1.
         25    1    1    2    0    0 -0.16340380314E+03  0.14489120935E+03 -0.21488927832E+03  0.33090280653E+03  0.12500000000E+03 0.  0.
         21    1    1    2  503  501  0.99562097721E+02 -0.16919361076E+03 -0.18020760179E+03  0.26648427527E+03  0.00000000000E+00 0. -1.
         -3    1    1    2    0  502  0.63841705422E+02  0.24302401412E+02  0.10096024092E+03  0.12189889381E+03  0.00000000000E+00 0. -1.
<mgrwt>
<rscale>  4 0.23859460E+03</rscale>
<asrwt>0</asrwt>
<pdfrwt beam="1">  1       21 0.77955585E-01 0.23859460E+03</pdfrwt>
<pdfrwt beam="2">  1       -3 0.32703795E-01 0.23859460E+03</pdfrwt>
<totfact> 0.65121124E+02</totfact>
</mgrwt>
</event>
