<event>
 5    0  0.2159162E+000  0.3717575E+03  0.7546771E-02  0.1054023E+00
         21   -1    0    0  502  501  0.00000000000E+00  0.00000000000E+00  0.45047714517E+03  0.45047714517E+03  0.00000000000E+00 0. -1.
         21   -1    0    0  503  502 -0.00000000000E+00 -0.00000000000E+00 -0.35543338125E+03  0.35543338125E+03  0.00000000000E+00 0. -1.
         25    1    1    2    0    0  0.26566383588E+03  0.22803814557E+03  0.21035279013E+03  0.42714396384E+03  0.12500000000E+03 0.  0.
         21    1    1    2  503  504 -0.86485623113E+02 -0.10480529644E+03 -0.82158644619E+02  0.15878903001E+03  0.00000000000E+00 0. -1.
         21    1    1    2  504  501 -0.17917821276E+03 -0.12323284913E+03 -0.33150381598E+02  0.21997753257E+03  0.00000000000E+00 0. -1.
<mgrwt>
<rscale>  4 0.37175754E+03</rscale>
<asrwt>0</asrwt>
<pdfrwt beam="1">  1       21 0.69304176E-01 0.37175754E+03</pdfrwt>
<pdfrwt beam="2">  1       21 0.54682058E-01 0.37175754E+03</pdfrwt>
<totfact> 0.54194547E+03</totfact>
</mgrwt>
</event>
<event>
 5    0  0.2159162E+000  0.2610329E+03  0.7546771E-02  0.1106524E+00
         21   -1    0    0  502  501  0.00000000000E+00  0.00000000000E+00  0.21894238341E+03  0.21894238341E+03  0.00000000000E+00 0.  1.
         21   -1    0    0  503  502 -0.00000000000E+00 -0.00000000000E+00 -0.31469344553E+03  0.31469344553E+03  0.00000000000E+00 0.  1.
         25    1    1    2    0    0 -0.22795220323E+03 -0.23473001136E+02  0.38652325794E+02  0.26387912201E+03  0.12500000000E+03 0.  0.
         21    1    1    2  503  504  0.38745809996E+02 -0.12265484440E+00 -0.44276609482E+01  0.38998166854E+02  0.00000000000E+00 0.  1.
         21    1    1    2  504  501  0.18920639324E+03  0.23595655981E+02 -0.12997572696E+03  0.23075854009E+03  0.00000000000E+00 0.  1.
<mgrwt>
<rscale>  4 0.26103293E+03</rscale>
<asrwt>0</asrwt>
<pdfrwt beam="1">  1       21 0.33683444E-01 0.26103293E+03</pdfrwt>
<pdfrwt beam="2">  1       21 0.48414376E-01 0.26103293E+03</pdfrwt>
<totfact> 0.33483771E+04</totfact>
</mgrwt>
</event>
<event>
 5    0  0.6550218E+000  0.2646927E+03  0.7546771E-02  0.1104356E+00
         21   -1    0    0  502  501  0.00000000000E+00  0.00000000000E+00  0.50057879169E+03  0.50057879169E+03  0.00000000000E+00 0. -1.
         21   -1    0    0  503  502 -0.00000000000E+00 -0.00000000000E+00 -0.32339956543E+03  0.32339956543E+03  0.00000000000E+00 0.  1.
         25    1    1    2    0    0  0.10838754154E+03 -0.21070003929E+03  0.36853374420E+03  0.45561440532E+03  0.12500000000E+03 0.  0.
         21    1    1    2  503  504 -0.35467437848E+02  0.21952764990E+03 -0.19365239144E+03  0.29487552786E+03  0.00000000000E+00 0.  1.
         21    1    1    2  504  501 -0.72920103692E+02 -0.88276106103E+01  0.22978734970E+01  0.73488423946E+02  0.00000000000E+00 0. -1.
<mgrwt>
<rscale>  4 0.26469270E+03</rscale>
<asrwt>0</asrwt>
<pdfrwt beam="1">  1       21 0.77012122E-01 0.26469270E+03</pdfrwt>
<pdfrwt beam="2">  1       21 0.49753779E-01 0.26469270E+03</pdfrwt>
<totfact> 0.54964380E+03</totfact>
</mgrwt>
</event>
<event>
 5    0  0.2159162E+000  0.4427611E+03  0.7546771E-02  0.1029903E+00
         21   -1    0    0  502  501  0.00000000000E+00  0.00000000000E+00  0.32832134145E+03  0.32832134145E+03  0.00000000000E+00 0.  1.
         21   -1    0    0  503  502 -0.00000000000E+00 -0.00000000000E+00 -0.65354225515E+03  0.65354225515E+03  0.00000000000E+00 0.  1.
         25    1    1    2    0    0  0.20942297134E+03 -0.38365186143E+03 -0.12613552941E+03  0.47178586613E+03  0.12500000000E+03 0.  0.
         21    1    1    2  503  504 -0.15525438236E+03  0.38343378653E+03 -0.16118462777E+03  0.44396607542E+03  0.00000000000E+00 0.  1.
         21    1    1    2  504  501 -0.54168588974E+02  0.21807489780E+00 -0.37900756515E+02  0.66111655043E+02  0.00000000000E+00 0. -1.
<mgrwt>
<rscale>  4 0.44276108E+03</rscale>
<asrwt>0</asrwt>
<pdfrwt beam="1">  1       21 0.50510976E-01 0.44276108E+03</pdfrwt>
<pdfrwt beam="2">  1       21 0.10054496E+00 0.44276108E+03</pdfrwt>
<totfact> 0.26284614E+03</totfact>
</mgrwt>
</event>
<event>
 5    0  0.2159162E+000  0.2020716E+03  0.7546771E-02  0.1148003E+00
         21   -1    0    0  502  501  0.00000000000E+00  0.00000000000E+00  0.13246970556E+04  0.13246970556E+04  0.00000000000E+00 0. -1.
         21   -1    0    0  503  502 -0.00000000000E+00 -0.00000000000E+00 -0.68192719204E+02  0.68192719204E+02  0.00000000000E+00 0. -1.
         25    1    1    2    0    0  0.22739928455E+03  0.10510712449E+03  0.50666853431E+03  0.57887472384E+03  0.12500000000E+03 0.  0.
         21    1    1    2  503  504 -0.12323747333E+03 -0.45036658270E+02  0.13778268010E+03  0.19026256162E+03  0.00000000000E+00 0. -1.
         21    1    1    2  504  501 -0.10416181123E+03 -0.60070466220E+02  0.61205312199E+03  0.62375248935E+03  0.00000000000E+00 0. -1.
<mgrwt>
<rscale>  4 0.20207163E+03</rscale>
<asrwt>0</asrwt>
<pdfrwt beam="1">  1       21 0.20379953E+00 0.20207163E+03</pdfrwt>
<pdfrwt beam="2">  1       21 0.10491189E-01 0.20207163E+03</pdfrwt>
<totfact> 0.93893895E+03</totfact>
</mgrwt>
</event>
<event>
 5    0  0.2638288E+000  0.2421684E+03  0.7546771E-02  0.1118357E+00
         21   -1    0    0  502  501  0.00000000000E+00  0.00000000000E+00  0.65617662348E+03  0.65617662348E+03  0.00000000000E+00 0. -1.
         21   -1    0    0  503  502 -0.00000000000E+00 -0.00000000000E+00 -0.21108614095E+03  0.21108614095E+03  0.00000000000E+00 0. -1.
         25    1    1    2    0    0  0.21210205239E+03 -0.14502471570E+02  0.56039554548E+03  0.61226282731E+03  0.12500000000E+03 0.  0.
         21    1    1    2  503  504 -0.29845236048E+02  0.12978857987E+02 -0.53352493624E+02  0.62495419395E+02  0.00000000000E+00 0. -1.
         21    1    1    2  504  501 -0.18225681634E+03  0.15236135838E+01 -0.61952569322E+02  0.19250451773E+03  0.00000000000E+00 0. -1.
<mgrwt>
<rscale>  4 0.24216841E+03</rscale>
<asrwt>0</asrwt>
<pdfrwt beam="1">  1       21 0.10095025E+00 0.24216841E+03</pdfrwt>
<pdfrwt beam="2">  1       21 0.32474791E-01 0.24216841E+03</pdfrwt>
<totfact> 0.70786265E+03</totfact>
</mgrwt>
</event>
<event>
 5    0  0.2159162E+000  0.4247989E+03  0.7546771E-02  0.1035537E+00
         21   -1    0    0  502  501  0.00000000000E+00  0.00000000000E+00  0.81905502314E+03  0.81905502314E+03  0.00000000000E+00 0. -1.
         21   -1    0    0  503  502 -0.00000000000E+00 -0.00000000000E+00 -0.25495977047E+03  0.25495977047E+03  0.00000000000E+00 0. -1.
         25    1    1    2    0    0  0.40562255022E+03 -0.86663946839E+01  0.48030246600E+03  0.64103059091E+03  0.12500000000E+03 0.  0.
         21    1    1    2  503  504 -0.36509218722E+03 -0.24654530644E+02  0.97624987707E+02  0.37872257561E+03  0.00000000000E+00 0. -1.
         21    1    1    2  504  501 -0.40530362996E+02  0.33320925328E+02 -0.13832201029E+02  0.54261627091E+02  0.00000000000E+00 0.  1.
<mgrwt>
<rscale>  4 0.42473283E+03</rscale>
<asrwt>0</asrwt>
<pdfrwt beam="1">  1       21 0.12600846E+00 0.42479888E+03</pdfrwt>
<pdfrwt beam="2">  1       21 0.39224580E-01 0.42479888E+03</pdfrwt>
<totfact> 0.25551543E+03</totfact>
</mgrwt>
</event>
<event>
 5    0  0.3354617E+000  0.2316886E+03  0.7546771E-02  0.1125457E+00
         21   -1    0    0  502  501  0.00000000000E+00  0.00000000000E+00  0.31550924686E+03  0.31550924686E+03  0.00000000000E+00 0.  1.
         21   -1    0    0  503  502 -0.00000000000E+00 -0.00000000000E+00 -0.28670959350E+03  0.28670959350E+03  0.00000000000E+00 0.  1.
         25    1    1    2    0    0  0.19174979388E+03 -0.79586090633E+02  0.20321414068E+03  0.31626399771E+03  0.12500000000E+03 0.  0.
         21    1    1    2  503  504 -0.34373255257E+02  0.28608218078E+02 -0.89399536969E+02  0.99961132591E+02  0.00000000000E+00 0.  1.
         21    1    1    2  504  501 -0.15737653862E+03  0.50977872555E+02 -0.85014950350E+02  0.18599371006E+03  0.00000000000E+00 0.  1.
<mgrwt>
<rscale>  4 0.23168857E+03</rscale>
<asrwt>0</asrwt>
<pdfrwt beam="1">  1       21 0.48539884E-01 0.23168857E+03</pdfrwt>
<pdfrwt beam="2">  1       21 0.44109168E-01 0.23168857E+03</pdfrwt>
<totfact> 0.19567801E+04</totfact>
</mgrwt>
</event>
<event>
 5    0  0.2159162E+000  0.2509450E+03  0.7546771E-02  0.1112709E+00
         21   -1    0    0  502  501  0.00000000000E+00  0.00000000000E+00  0.10734435263E+04  0.10734435263E+04  0.00000000000E+00 0. -1.
         21   -1    0    0  503  502 -0.00000000000E+00 -0.00000000000E+00 -0.32377594499E+03  0.32377594499E+03  0.00000000000E+00 0.  1.
         25    1    1    2    0    0  0.33258304201E+02  0.21504017942E+03  0.10177275054E+04  0.10482092677E+04  0.12500000000E+03 0.  0.
         21    1    1    2  503  504 -0.41839094020E+02 -0.19246989701E+03 -0.22042655323E+03  0.29560621849E+03  0.00000000000E+00 0.  1.
         21    1    1    2  504  501  0.85807898184E+01 -0.22570282410E+02 -0.47633370903E+02  0.53403985109E+02  0.00000000000E+00 0.  1.
<mgrwt>
<rscale>  4 0.25094500E+03</rscale>
<asrwt>0</asrwt>
<pdfrwt beam="1">  1       21 0.16514516E+00 0.25094500E+03</pdfrwt>
<pdfrwt beam="2">  1       21 0.49811685E-01 0.25094500E+03</pdfrwt>
<totfact> 0.83845920E+02</totfact>
</mgrwt>
</event>
<event>
 5    0  0.2159162E+000  0.3212701E+03  0.7546771E-02  0.1075066E+00
         21   -1    0    0  502  501  0.00000000000E+00  0.00000000000E+00  0.12546195940E+04  0.12546195940E+04  0.00000000000E+00 0.  1.
         21   -1    0    0  503  502 -0.00000000000E+00 -0.00000000000E+00 -0.33174671341E+03  0.33174671341E+03  0.00000000000E+00 0.  1.
         25    1    1    2    0    0 -0.57248372953E+02 -0.28828362246E+03  0.11165819085E+04  0.11613634150E+04  0.12500000000E+03 0.  0.
         21    1    1    2  503  504  0.51865462686E+01 -0.23459802964E+02 -0.88789196943E+02  0.91982520683E+02  0.00000000000E+00 0.  1.
         21    1    1    2  504  501  0.52061826685E+02  0.31174342543E+03 -0.10491983096E+03  0.33302037178E+03  0.00000000000E+00 0.  1.
<mgrwt>
<rscale>  4 0.32127014E+03</rscale>
<asrwt>0</asrwt>
<pdfrwt beam="1">  1       21 0.19301840E+00 0.32127014E+03</pdfrwt>
<pdfrwt beam="2">  1       21 0.51037957E-01 0.32127014E+03</pdfrwt>
<totfact> 0.48300546E+02</totfact>
</mgrwt>
</event>
