<event>
 5    0  0.1911311E+001  0.2901151E+03  0.7546771E-02  0.1090289E+00
         21   -1    0    0  502  501  0.00000000000E+00  0.00000000000E+00  0.43030115481E+03  0.43030115481E+03  0.00000000000E+00 0. -1.
         21   -1    0    0  504  502 -0.00000000000E+00 -0.00000000000E+00 -0.10983756943E+04  0.10983756943E+04  0.00000000000E+00 0. -1.
         25    1    1    2    0    0  0.22806186829E+03  0.13371309497E+03  0.26077121883E+03  0.39181377732E+03  0.12500000000E+03 0.  0.
         21    1    1    2  503  501  0.89372011768E+01 -0.22657960706E+02  0.85703723486E+02  0.89097614826E+02  0.00000000000E+00 0. -1.
         21    1    1    2  504  503 -0.23699906946E+03 -0.11105513426E+03 -0.10145494818E+04  0.10477654570E+04  0.00000000000E+00 0. -1.
<mgrwt>
<rscale>  4 0.29011509E+03</rscale>
<asrwt>0</asrwt>
<pdfrwt beam="1">  1       21 0.66200178E-01 0.29011509E+03</pdfrwt>
<pdfrwt beam="2">  1       21 0.16898087E+00 0.29011509E+03</pdfrwt>
<totfact> 0.41337224E+02</totfact>
</mgrwt>
</event>
<event>
 5    0  0.1911311E+001  0.3184251E+03  0.7546771E-02  0.1076376E+00
         21   -1    0    0  504  501  0.00000000000E+00  0.00000000000E+00  0.30650576585E+03  0.30650576585E+03  0.00000000000E+00 0. -1.
         21   -1    0    0  503  502 -0.00000000000E+00 -0.00000000000E+00 -0.24279119685E+04  0.24279119685E+04  0.00000000000E+00 0. -1.
         25    1    1    2    0    0 -0.34600425596E+02  0.23692860768E+03  0.32898805485E+02  0.27210234470E+03  0.12500000000E+03 0.  0.
         21    1    1    2  503  501  0.26892997163E+02 -0.29499969869E+03 -0.22928441349E+04  0.23119001454E+04  0.00000000000E+00 0. -1.
         21    1    1    2  504  502  0.77074284323E+01  0.58071091005E+02  0.13853912673E+03  0.15041524424E+03  0.00000000000E+00 0. -1.
<mgrwt>
<rscale>  4 0.31842510E+03</rscale>
<asrwt>0</asrwt>
<pdfrwt beam="1">  1       21 0.47154735E-01 0.31842510E+03</pdfrwt>
<pdfrwt beam="2">  1       21 0.37352490E+00 0.31842510E+03</pdfrwt>
<totfact> 0.45551227E+01</totfact>
</mgrwt>
</event>
<event>
 5    0  0.1911311E+001  0.2713274E+03  0.7546771E-02  0.1100522E+00
         21   -1    0    0  504  501  0.00000000000E+00  0.00000000000E+00  0.76207927897E+03  0.76207927897E+03  0.00000000000E+00 0.  1.
         21   -1    0    0  503  502 -0.00000000000E+00 -0.00000000000E+00 -0.14583380180E+03  0.14583380180E+03  0.00000000000E+00 0.  1.
         25    1    1    2    0    0  0.18455674751E+03 -0.14488253404E+03  0.18771582646E+03  0.32544488508E+03  0.12500000000E+03 0.  0.
         21    1    1    2  503  501  0.30177288246E+02  0.27908809619E+02 -0.37847075803E+02  0.55874605386E+02  0.00000000000E+00 0.  1.
         21    1    1    2  504  502 -0.21473403576E+03  0.11697372442E+03  0.46637672650E+03  0.52659359030E+03  0.00000000000E+00 0.  1.
<mgrwt>
<rscale>  4 0.27132739E+03</rscale>
<asrwt>0</asrwt>
<pdfrwt beam="1">  1       21 0.11724296E+00 0.27132739E+03</pdfrwt>
<pdfrwt beam="2">  1       21 0.22435970E-01 0.27132739E+03</pdfrwt>
<totfact> 0.99054375E+03</totfact>
</mgrwt>
</event>
