<LesHouchesEvents version="3.0">
  <!--
  <scalesfunctionalform>
    muR  H_T/2 := sum_i mT(i)/2, i=final state
    muF1 H_T/2 := sum_i mT(i)/2, i=final state
    muF2 H_T/2 := sum_i mT(i)/2, i=final state
    QES  H_T/2 := sum_i mT(i)/2, i=final state
  </scalesfunctionalform>
HERWIG6   
  -->
  <header>
      311
  </header>
  <init>
   2212   2212 0.65000000D+04 0.65000000D+04 -1 -1   244800   244800 -4   1
 0.30156550D-03 0.12667666D-04 0.18204334D-05     66
  </init>
  <event>
  5     66 -.18204334E-05 0.19213592E+03 0.75467711E-02 0.92473155E-01
        2 -1    0    0  501    0 0.00000000E+00 0.00000000E+00 0.32026838E+04 0.32026838E+04 0.32000000E+00 0.0000E+00 0.9000E+01
        2 -1    0    0  502    0 0.00000000E+00 0.00000000E+00 -.19524832E+04 0.19524832E+04 0.32000000E+00 0.0000E+00 0.9000E+01
       25  1    1    2    0    0 -.16769954E+03 -.57108682E+03 0.45208685E+03 0.75780658E+03 0.12500000E+03 0.0000E+00 0.9000E+01
        2  1    1    2  501    0 0.67034344E+02 0.18006844E+03 0.25714600E+04 0.25786285E+04 0.32000000E+00 0.0000E+00 0.9000E+01
        2  1    1    2  502    0 0.10066520E+03 0.39101838E+03 -.17733462E+04 0.18187319E+04 0.32000000E+00 0.0000E+00 0.9000E+01
#aMCatNLO 1  0  0  5  1 0.11713927D+03 0.00000000D+00  -5  6  0 0.00000000D+00 0.00000000D+00 0.00000000D+00 0.00000000D+00 0.00000000D+00
  <mgrwgt>
 -.3416311011D-02    5    2    0
 0.250063715801365D+04 0.000000000000000D+00 0.000000000000000D+00 0.250063715801365D+04
 0.250063715801365D+04 -.000000000000000D+00 -.000000000000000D+00 -.250063715801365D+04
 0.668156698681751D+03 -.167703695592257D+03 -.571104921332522D+03 0.276627932985390D+03
 0.201511476954318D+04 0.670324977652841D+02 0.180063479155277D+03 0.200593402736703D+04
 0.231800284780236D+04 0.100671197826973D+03 0.391041442177244D+03 -.228256196035242D+04
 0.000000000000000D+00 0.000000000000000D+00 0.000000000000000D+00 0.000000000000000D+00
 0.250063715801365D+04 0.000000000000000D+00 0.000000000000000D+00 0.250063715801365D+04
 0.250063715801365D+04 -.000000000000000D+00 -.000000000000000D+00 -.250063715801365D+04
 0.667237128105533D+03 -.167632625968914D+03 -.570828862552979D+03 0.275016540429404D+03
 0.201036135687410D+04 0.672467334958560D+02 0.180895644172253D+03 0.200107656724232D+04
 0.952717459636452D+03 -.185914786108458D+02 0.606083770989485D+02 -.950605880186226D+03
 0.137095837141122D+04 0.118977371083904D+03 0.329324841281776D+03 -.132548722748550D+04
0.150863916114D-02 0.000000000000D+00 0.000000000000D+00 0.662247256835D-04 0.000000000000D+00  6 2 2 25 2 2 21 0 0.49272058D+00 0.30038203D+00 0.36248265D+06 0.36248265D+06 0.36248265D+06 0.10785247D+01  1  2  2  3  6  5        2 0.240515595556D-03 0.100000000000D+01
0.267110058239D-03 0.000000000000D+00 -.579357161260D-05 0.662247256835D-04 0.000000000000D+00  6 2 2 25 2 2 21 2 0.49272058D+00 0.30038203D+00 0.36248265D+06 0.36248265D+06 0.36248265D+06 0.10785247D+01  1  2  3  3  6  5        2 0.495345598148D-04 0.100000000000D+01
-.998573501711D-03 0.000000000000D+00 0.000000000000D+00 0.662247256835D-04 0.000000000000D+00  6 2 2 25 2 2 21 2 0.49272058D+00 0.30038203D+00 0.36248265D+06 0.36248265D+06 0.36248265D+06 0.10785247D+01  1  2 15  3  6  5        2 -.185181715642D-03 0.100000000000D+01
0.662860721449D-11 0.000000000000D+00 0.000000000000D+00 0.662247256835D-04 0.000000000000D+00  6 2 2 25 2 2 21 2 0.49272058D+00 0.30038203D+00 0.36873302D+06 0.36873302D+06 0.36873302D+06 0.10779851D+01  1  2 12  3  6  5        2 0.122561212724D-11 0.100000000000D+01
-.189876008178D-01 0.000000000000D+00 0.000000000000D+00 0.662247256835D-04 0.000000000000D+00  6 2 2 25 2 2 21 2 0.49272058D+00 0.30038203D+00 0.36248265D+06 0.36248265D+06 0.36248265D+06 0.10785247D+01  1  2  5  3  6  5        2 -.352117945182D-02 0.100000000000D+01
  </mgrwgt>
  </event>
  <event>
  6     66 -.18204334E-05 0.17012902E+03 0.75467711E-02 0.94865710E-01
        2 -1    0    0  503    0 0.00000000E+00 0.00000000E+00 0.60694308E+03 0.60694317E+03 0.32000000E+00 0.0000E+00 0.9000E+01
        2 -1    0    0  502    0 0.00000000E+00 0.00000000E+00 -.17243135E+04 0.17243136E+04 0.32000000E+00 0.0000E+00 0.9000E+01
       25  1    1    2    0    0 0.27656013E+03 0.37616018E+03 -.53992410E+03 0.72465510E+03 0.12500000E+03 0.0000E+00 0.9000E+01
        2  1    1    2  501    0 -.14896917E+03 -.88043236E+02 0.41233036E+03 0.44716870E+03 0.32000000E+00 0.0000E+00 0.9000E+01
        2  1    1    2  502    0 -.13335518E+03 -.28743663E+03 -.10511042E+04 0.10978268E+04 0.32000000E+00 0.0000E+00 0.9000E+01
       21  1    1    2  503  501 0.57642204E+01 -.68031877E+00 0.61327525E+02 0.61606143E+02 0.75000000E+00 0.0000E+00 0.9000E+01
#aMCatNLO 2  0  0  1  4 0.58042286D+01 0.00000000D+00  -5  6  0 0.00000000D+00 0.00000000D+00 0.00000000D+00 0.00000000D+00 0.00000000D+00
  <mgrwgt>
 -.1489245773D-01    3    2    0
 0.969787499796660D+03 0.000000000000000D+00 0.000000000000000D+00 0.969787499796660D+03
 0.969787499796660D+03 0.000000000000000D+00 0.000000000000000D+00 -.969787499796660D+03
 0.520555971558831D+03 0.278119014210043D+03 0.376011621233423D+03 -.191359855136349D+03
 0.773385549373192D+03 -.146661064965216D+03 -.883092084118017D+02 0.754199724020252D+03
 0.645633478661296D+03 -.131457949244827D+03 -.287702412821622D+03 -.562839868883902D+03
 0.000000000000000D+00 0.000000000000000D+00 -.000000000000000D+00 0.000000000000000D+00
 0.107907111465982D+04 0.000000000000000D+00 0.000000000000000D+00 0.107907111465982D+04
 0.969868913156267D+03 0.000000000000000D+00 0.000000000000000D+00 -.969868913156267D+03
 0.519863649434688D+03 0.276573006825935D+03 0.376194087860254D+03 -.191359855136349D+03
 0.773793899065940D+03 -.148960090092734D+03 -.880378673015782D+02 0.754199724020252D+03
 0.645926135725834D+03 -.133377137099965D+03 -.287475901785658D+03 -.562839868883902D+03
 0.109356343589629D+03 0.576422036676316D+01 -.680318773018017D+00 0.109202201503557D+03
-.544624399407D-02 0.000000000000D+00 0.000000000000D+00 0.165316901457D-05 0.000000000000D+00  6 2 2 25 2 2 21 2 0.93748929D-01 0.26525639D+00 0.23966314D+06 0.23966314D+06 0.23966314D+06 0.10918414D+01  1  2 13  1  6  1        2 -.507856558657D-01 0.100000000000D+01
-.505159828379D-08 0.000000000000D+00 0.000000000000D+00 0.165316901457D-05 0.000000000000D+00  6 2 2 25 2 2 21 2 0.93381280D-01 0.26525639D+00 0.23966314D+06 0.23966314D+06 0.23966314D+06 0.10918414D+01  1  2 13  1  6  1        2 -.473234314315D-07 0.100000000000D+01
0.383189487692D-02 0.000000000000D+00 0.000000000000D+00 0.165316901457D-05 0.214323277620D-06  6 2 2 25 2 2 21 2 0.93375744D-01 0.26527866D+00 0.23966314D+06 0.23966314D+06 0.23966314D+06 0.10918414D+01  1  2  1  1  6  1        2 0.358932454634D-01 0.100000000000D+01
  </mgrwgt>
  </event>
  <event>
  5     66 0.18204334E-05 0.11206176E+03 0.75467711E-02 0.94577427E-01
        2 -1    0    0  501    0 0.00000000E+00 0.00000000E+00 0.81470113E+03 0.81470119E+03 0.32000000E+00 0.0000E+00 0.9000E+01
        2 -1    0    0  502    0 -.00000000E+00 -.00000000E+00 -.17980110E+04 0.17980111E+04 0.32000000E+00 0.0000E+00 0.9000E+01
       25  1    1    2    0    0 0.46787733E+02 0.48514934E+03 -.55172383E+03 0.74671491E+03 0.12500000E+03 0.0000E+00 0.9000E+01
        2  1    1    2  501    0 0.25427824E+02 -.10914272E+03 0.68059329E+03 0.68975796E+03 0.32000000E+00 0.0000E+00 0.9000E+01
        2  1    1    2  502    0 -.72215557E+02 -.37600662E+03 -.11121794E+04 0.11762394E+04 0.32000000E+00 0.0000E+00 0.9000E+01
#aMCatNLO 1  0  0  5  2 0.38181489D+02 0.00000000D+00  -5  6  0 0.00000000D+00 0.00000000D+00 0.00000000D+00 0.00000000D+00 0.00000000D+00
  <mgrwgt>
 0.1588242647D-01    8    2    0
 0.121030646822395D+04 0.000000000000000D+00 0.000000000000000D+00 0.121030646822395D+04
 0.121030646822395D+04 -.000000000000000D+00 -.000000000000000D+00 -.121030646822395D+04
 0.581859141376818D+03 0.467947891353973D+02 0.485185389110954D+03 -.292130871882439D+03
 0.102093463081889D+04 0.254269440183293D+02 -.109138943187858D+03 0.101476582618997D+04
 0.817819164252204D+03 -.722217331537266D+02 -.376046445923096D+03 -.722634954307535D+03
 0.000000000000000D+00 -.000000000000000D+00 0.000000000000000D+00 0.000000000000000D+00
 0.121030646822395D+04 0.000000000000000D+00 0.000000000000000D+00 0.121030646822395D+04
 0.121030646822395D+04 -.000000000000000D+00 -.000000000000000D+00 -.121030646822395D+04
 0.581969054052124D+03 0.466177501391002D+02 0.484263576763892D+03 -.293902285574873D+03
 0.101801676799559D+04 0.251167831968588D+02 -.110753898541121D+03 0.101166242446775D+04
 0.717229433939202D+03 -.297002875469282D+02 -.314744555205176D+03 -.643794857696980D+03
 0.103397680460995D+03 -.420342457890308D+02 -.587651230175957D+02 -.739652811958973D+02
0.223278281067D-03 0.000000000000D+00 0.000000000000D+00 0.854092059479D-05 0.000000000000D+00  6 2 2 25 2 2 21 0 0.12533864D+00 0.27661709D+00 0.24909582D+06 0.24909582D+06 0.24909582D+06 0.10905775D+01  1  2  2  3  6  5        2 0.111305576949D-02 0.100000000000D+01
0.510248516537D-04 0.000000000000D+00 -.857447389820D-06 0.854092059479D-05 0.000000000000D+00  6 2 2 25 2 2 21 2 0.12533864D+00 0.27661709D+00 0.24909582D+06 0.24909582D+06 0.24909582D+06 0.10905775D+01  1  2  3  3  6  5        2 0.302527784752D-03 0.100000000000D+01
-.172328498860D-03 0.000000000000D+00 0.000000000000D+00 0.854092059479D-05 0.000000000000D+00  6 2 2 25 2 2 21 2 0.12533864D+00 0.27661709D+00 0.24909582D+06 0.24909582D+06 0.24909582D+06 0.10905775D+01  1  2 15  3  6  5        2 -.102174053074D-02 0.100000000000D+01
0.371263085730D-02 0.000000000000D+00 0.000000000000D+00 0.854092059479D-05 0.000000000000D+00  6 2 2 25 2 2 21 2 0.12533864D+00 0.27661709D+00 0.25213661D+06 0.25213661D+06 0.25213661D+06 0.10901812D+01  1  2 12  3  6  5        2 0.219802855268D-01 0.100000000000D+01
0.316415197774D-09 0.000000000000D+00 0.000000000000D+00 0.854092059479D-05 0.000000000000D+00  6 2 2 25 2 2 21 2 0.12533864D+00 0.27661709D+00 0.25213661D+06 0.25213661D+06 0.25213661D+06 0.10901812D+01  1  2 12  3  6  5        2 0.187330673568D-08 0.100000000000D+01
-.172720659745D-02 0.000000000000D+00 0.000000000000D+00 0.854092059479D-05 0.000000000000D+00  6 2 2 25 2 2 21 2 0.12533864D+00 0.27661709D+00 0.24909582D+06 0.24909582D+06 0.24909582D+06 0.10905775D+01  1  2  4  3  6  5        2 -.102406566369D-01 0.100000000000D+01
-.470636712819D-02 0.000000000000D+00 0.000000000000D+00 0.854092059479D-05 0.000000000000D+00  6 2 2 25 2 2 21 2 0.12533864D+00 0.27661709D+00 0.24909582D+06 0.24909582D+06 0.24909582D+06 0.10905775D+01  1  2  5  3  6  5        2 -.279041834591D-01 0.100000000000D+01
0.533867187543D-02 0.000000000000D+00 -.000000000000D+00 0.854092059479D-05 0.000000000000D+00  6 2 2 25 2 2 21 2 0.12533864D+00 0.27661709D+00 0.24909582D+06 0.24909582D+06 0.24909582D+06 0.10905775D+01  1  2  6  3  6  5        2 0.316531361414D-01 0.100000000000D+01
  </mgrwgt>
  </event>
  <event>
  5     66 0.18204334E-05 0.51219918E+02 0.75467711E-02 0.92790989E-01
        2 -1    0    0  501    0 0.00000000E+00 0.00000000E+00 0.88758633E+03 0.88758639E+03 0.32000000E+00 0.0000E+00 0.9000E+01
        2 -1    0    0  502    0 0.00000000E+00 0.00000000E+00 -.73933834E+03 0.73933841E+03 0.32000000E+00 0.0000E+00 0.9000E+01
       25  1    1    2    0    0 0.41300053E+03 0.26649309E+03 0.39334555E+03 0.64182063E+03 0.12500000E+03 0.0000E+00 0.9000E+01
        2  1    1    2  501    0 -.51253806E+02 0.78934290E+00 0.28518899E+03 0.28975927E+03 0.32000000E+00 0.0000E+00 0.9000E+01
        2  1    1    2  502    0 -.36174672E+03 -.26728243E+03 -.53028655E+03 0.69534489E+03 0.32000000E+00 0.0000E+00 0.9000E+01
#aMCatNLO 1  0  0  2  1 0.20809375D+03 0.00000000D+00  -5  6  0 0.00000000D+00 0.00000000D+00 0.00000000D+00 0.00000000D+00 0.00000000D+00
  <mgrwgt>
 0.1121074182D-01    7    2    0
 0.810078211092526D+03 0.000000000000000D+00 0.000000000000000D+00 0.810078211092526D+03
 0.810078211092526D+03 0.000000000000000D+00 0.000000000000000D+00 -.810078211092526D+03
 0.608666122035962D+03 0.413037208505361D+03 0.266545176505833D+03 0.336457101850845D+03
 0.264667623548478D+03 -.512138445400104D+02 0.788727471101594D+00 0.259664150377381D+03
 0.746822676600611D+03 -.361823363965351D+03 -.267333903976935D+03 -.596121252228226D+03
 0.000000000000000D+00 -.000000000000000D+00 -.000000000000000D+00 -.000000000000000D+00
 0.873099849348941D+03 0.000000000000000D+00 0.000000000000000D+00 0.873099849348941D+03
 0.100879094551424D+04 0.000000000000000D+00 0.000000000000000D+00 -.100879094551424D+04
 0.675761203589601D+03 0.488984331714617D+03 0.297857593874330D+03 0.336457101850845D+03
 0.260799073680277D+03 -.201434342485161D+02 0.135988197266981D+02 0.259664150377381D+03
 0.696905314713816D+03 -.276456924424985D+03 -.232137974609267D+03 -.596121252228226D+03
 0.248425202879488D+03 -.192383973041115D+03 -.793184389917610D+02 -.135691096165300D+03
0.405410833233D-03 0.000000000000D+00 0.000000000000D+00 0.151007905892D-05 0.000000000000D+00  6 2 2 25 2 2 21 0 0.13655175D+00 0.11374437D+00 0.25417200D+06 0.25417200D+06 0.25417200D+06 0.10899188D+01  1  2  2  2  6  2        2 0.758570576825D-02 0.100000000000D+01
0.993693832928D-04 0.000000000000D+00 -.155688434674D-05 0.151007905892D-05 0.000000000000D+00  6 2 2 25 2 2 21 2 0.13655175D+00 0.11374437D+00 0.25417200D+06 0.25417200D+06 0.25417200D+06 0.10899188D+01  1  2  3  2  6  2        2 0.220872435024D-02 0.100000000000D+01
-.259018231081D-03 0.000000000000D+00 0.000000000000D+00 0.151007905892D-05 0.000000000000D+00  6 2 2 25 2 2 21 2 0.13655175D+00 0.11374437D+00 0.25417200D+06 0.25417200D+06 0.25417200D+06 0.10899188D+01  1  2 15  2  6  2        2 -.575730527035D-02 0.100000000000D+01
-.105716652433D-03 0.000000000000D+00 0.000000000000D+00 0.151007905892D-05 0.000000000000D+00  6 2 2 25 2 2 21 2 0.13655175D+00 0.11374437D+00 0.25417200D+06 0.25417200D+06 0.25417200D+06 0.10899188D+01  1  2  4  2  6  2        2 -.234980772465D-02 0.100000000000D+01
-.124121119869D-02 0.000000000000D+00 -.422869469726D-03 0.151007905892D-05 0.000000000000D+00  6 2 2 25 2 2 21 2 0.13655175D+00 0.14851835D+00 0.25417200D+06 0.25417200D+06 0.25417200D+06 0.10899188D+01  1  2  5  2  6  2        2 -.194264842955D-01 0.100000000000D+01
0.132133418973D-02 0.000000000000D+00 0.408257686119D-03 0.151007905892D-05 0.000000000000D+00  6 2 2 25 2 2 21 2 0.13655175D+00 0.11374437D+00 0.25417200D+06 0.25417200D+06 0.25417200D+06 0.10899188D+01  1  2  6  2  6  2        2 0.293698411217D-01 0.100000000000D+01
-.361815828128D-04 0.000000000000D+00 -.150094451183D-04 0.151007905892D-05 0.000000000000D+00  6 2 21 25 2 2 -2 2 0.13655175D+00 0.14851835D+00 0.25417200D+06 0.25417200D+06 0.25417200D+06 0.10899188D+01  1  2  5  5  6  2        2 -.419932127927D-03 0.100000000000D+01
  </mgrwgt>
  </event>
  <event>
  6     66 0.18204334E-05 0.76666030E+02 0.75467711E-02 0.93176691E-01
        2 -1    0    0  501    0 0.00000000E+00 0.00000000E+00 0.13706553E+04 0.13706554E+04 0.32000000E+00 0.0000E+00 0.9000E+01
        2 -1    0    0  502    0 -.00000000E+00 -.00000000E+00 -.17071072E+04 0.17071073E+04 0.32000000E+00 0.0000E+00 0.9000E+01
       25  1    1    2    0    0 0.24057058E+03 0.44122472E+03 0.17023385E+03 0.54512202E+03 0.12500000E+03 0.0000E+00 0.9000E+01
        2  1    1    2  501    0 -.40341923E+02 -.74500899E+01 0.95595198E+03 0.95683189E+03 0.32000000E+00 0.0000E+00 0.9000E+01
        2  1    1    2  503    0 -.11000026E+03 -.46976317E+03 -.12964008E+04 0.13832688E+04 0.32000000E+00 0.0000E+00 0.9000E+01
       21  1    1    2  502  503 -.90228395E+02 0.35988537E+02 -.16623697E+03 0.19253995E+03 0.75000000E+00 0.0000E+00 0.9000E+01
#aMCatNLO 2  0  0  5  2 0.34771770D+02 0.00000000D+00  -5  6  0 0.00000000D+00 0.00000000D+00 0.00000000D+00 0.00000000D+00 0.00000000D+00
  <mgrwgt>
 0.8221605147D-02    1    2    0
 0.152965870137646D+04 0.000000000000000D+00 0.000000000000000D+00 0.152965870137646D+04
 0.152965870137646D+04 -.000000000000000D+00 -.000000000000000D+00 -.152965870137646D+04
 0.572523500041853D+03 0.241700859215268D+03 0.443676955307289D+03 0.238515433639059D+03
 0.108122604607746D+04 -.382321660017813D+02 -.288412701523725D+01 0.108054604067132D+04
 0.140556785663360D+04 -.203468693213486D+03 -.440792828292052D+03 -.131906147431038D+04
 0.000000000000000D+00 0.000000000000000D+00 0.000000000000000D+00 -.000000000000000D+00
 0.152965870137646D+04 0.000000000000000D+00 0.000000000000000D+00 0.152965870137646D+04
 0.152965870137646D+04 -.000000000000000D+00 -.000000000000000D+00 -.152965870137646D+04
 0.567181322310633D+03 0.240582661193923D+03 0.441254500724058D+03 0.231266299104842D+03
 0.106766633545235D+04 -.403405077074429D+02 -.745162036650946D+01 0.106687793146642D+04
 0.124898265921565D+04 -.109977732262447D+03 -.469800139294400D+03 -.115202014329037D+04
 0.175487085774278D+03 -.902644212240326D+02 0.359972589368508D+02 -.146124087280888D+03
0.278153960914D-02 0.000000000000D+00 0.000000000000D+00 0.995778459308D-04 0.122251107801D-07  6 2 2 25 2 2 21 2 0.21087006D+00 0.26263189D+00 0.32409794D+06 0.32409794D+06 0.32409794D+06 0.10820780D+01  1  2  1  3  6  5        2 0.822160514738D-02 0.100000000000D+01
  </mgrwgt>
  </event>
  <event>
  5     66 0.18204334E-05 0.10342742E+03 0.75467711E-02 0.89952586E-01
        2 -1    0    0  501    0 0.00000000E+00 0.00000000E+00 0.19723045E+04 0.19723045E+04 0.32000000E+00 0.0000E+00 0.9000E+01
        2 -1    0    0  502    0 0.00000000E+00 0.00000000E+00 -.19464376E+04 0.19464377E+04 0.32000000E+00 0.0000E+00 0.9000E+01
       25  1    1    2    0    0 0.61487210E+03 -.42053418E+03 -.75140793E+03 0.10654368E+04 0.12500000E+03 0.0000E+00 0.9000E+01
        2  1    1    2  501    0 -.59619201E+03 0.31881114E+03 0.17495026E+04 0.18755919E+04 0.32000000E+00 0.0000E+00 0.9000E+01
        2  1    1    2  502    0 -.18680083E+02 0.10172304E+03 -.97222786E+03 0.97771347E+03 0.32000000E+00 0.0000E+00 0.9000E+01
#aMCatNLO 1  0  0  2  2 0.13919180D+02 0.00000000D+00  -5  6  0 0.00000000D+00 0.00000000D+00 0.00000000D+00 0.00000000D+00 0.00000000D+00
  <mgrwgt>
 0.1768975434D-02    3    2    0
 0.195932840645659D+04 0.000000000000000D+00 0.000000000000000D+00 0.195932840645659D+04
 0.195932840645659D+04 0.000000000000000D+00 0.000000000000000D+00 -.195932840645659D+04
 0.107039612586514D+04 0.614871315364209D+03 -.420536544270410D+03 -.758422802098206D+03
 0.186407887785251D+04 -.596190256571877D+03 0.318810203272614D+03 0.173715494274802D+04
 0.984181809195526D+03 -.186810587923327D+02 0.101726340997797D+03 -.978732140649819D+03
 0.000000000000000D+00 -.000000000000000D+00 0.000000000000000D+00 0.000000000000000D+00
 0.197546207400084D+04 0.000000000000000D+00 0.000000000000000D+00 0.197546207400084D+04
 0.196234523095657D+04 0.000000000000000D+00 0.000000000000000D+00 -.196234523095657D+04
 0.107295569813153D+04 0.617337397350438D+03 -.423436324897861D+03 -.758422802098206D+03
 0.186185606128290D+04 -.591903297738339D+03 0.313769316454743D+03 0.173715494274802D+04
 0.983869774080403D+03 -.164166724684694D+02 0.990637273330159D+02 -.978732140649819D+03
 0.191257714625754D+02 -.901742714362961D+01 0.106032811101019D+02 0.131168430442751D+02
0.422768137885D-02 0.000000000000D+00 0.000000000000D+00 0.696846226939D-05 0.000000000000D+00  6 2 2 25 2 2 21 0 0.30343146D+00 0.29945195D+00 0.58894049D+06 0.58894049D+06 0.58894049D+06 0.10635213D+01  1  2  2  2  6  2        2 0.350356331817D-02 0.100000000000D+01
0.105337807774D-02 0.000000000000D+00 -.162354096688D-04 0.696846226939D-05 0.000000000000D+00  6 2 2 25 2 2 21 2 0.30343146D+00 0.29945195D+00 0.58894049D+06 0.58894049D+06 0.58894049D+06 0.10635213D+01  1  2  3  2  6  2        2 0.987380168036D-03 0.100000000000D+01
-.290390830948D-02 0.000000000000D+00 0.000000000000D+00 0.696846226939D-05 0.000000000000D+00  6 2 2 25 2 2 21 2 0.30343146D+00 0.29945195D+00 0.58894049D+06 0.58894049D+06 0.58894049D+06 0.10635213D+01  1  2 15  2  6  2        2 -.272196805229D-02 0.100000000000D+01
  </mgrwgt>
  </event>
  <event>
  5     66 0.18204334E-05 0.24309385E+03 0.75467711E-02 0.94106970E-01
        2 -1    0    0  501    0 0.00000000E+00 0.00000000E+00 0.18734674E+04 0.18734675E+04 0.32000000E+00 0.0000E+00 0.9000E+01
        2 -1    0    0  502    0 0.00000000E+00 0.00000000E+00 -.12567247E+04 0.12567248E+04 0.32000000E+00 0.0000E+00 0.9000E+01
       25  1    1    2    0    0 -.30251493E+03 -.35525186E+03 -.63232344E+03 0.79572426E+03 0.12500000E+03 0.0000E+00 0.9000E+01
        2  1    1    2  501    0 0.22638693E+03 0.88566338E+02 0.17473623E+04 0.17641911E+04 0.32000000E+00 0.0000E+00 0.9000E+01
        2  1    1    2  502    0 0.76128008E+02 0.26668552E+03 -.49829614E+03 0.57027694E+03 0.32000000E+00 0.0000E+00 0.9000E+01
#aMCatNLO 1  0  0  1  5 0.63477683D+02 0.00000000D+00  -5  6  0 0.00000000D+00 0.00000000D+00 0.00000000D+00 0.00000000D+00 0.00000000D+00
  <mgrwgt>
 0.3130329736D-02    9    2    0
 0.153441618030878D+04 0.000000000000000D+00 0.000000000000000D+00 0.153441618030878D+04
 0.153441618030878D+04 0.000000000000000D+00 0.000000000000000D+00 -.153441618030878D+04
 0.938703437891811D+03 -.302518899588969D+03 -.355260930642175D+03 -.804867151063230D+03
 0.144829302892298D+04 0.226386128070437D+03 0.885660258206378D+02 0.142774580290559D+04
 0.681835893802765D+03 0.761327715185312D+02 0.266694904821537D+03 -.622878651842358D+03
 0.000000000000000D+00 0.000000000000000D+00 0.000000000000000D+00 0.000000000000000D+00
 0.173090609918741D+04 0.000000000000000D+00 0.000000000000000D+00 0.173090609918741D+04
 0.153987972330341D+04 0.000000000000000D+00 0.000000000000000D+00 -.153987972330341D+04
 0.945973873796346D+03 -.321876496559643D+03 -.357527565380790D+03 -.804867151063230D+03
 0.144373883213529D+04 0.196681951739811D+03 0.850878813972909D+02 0.142774580290559D+04
 0.679776090893036D+03 0.621475996980183D+02 0.265057342250010D+03 -.622878651842358D+03
 0.201297025666147D+03 0.630469451218132D+02 0.738234173348892D+01 0.191026375883998D+03
0.206360992939D-03 0.000000000000D+00 0.000000000000D+00 0.278060975713D-05 0.000000000000D+00  6 2 2 25 2 2 21 0 0.28822577D+00 0.19334227D+00 0.25175755D+06 0.25175755D+06 0.25175755D+06 0.10902303D+01  1  2  2  1  6  1        2 0.499536862138D-03 0.100000000000D+01
0.133218716969D-04 0.000000000000D+00 -.792480548984D-06 0.278060975713D-05 0.000000000000D+00  6 2 2 25 2 2 21 2 0.28822577D+00 0.19334227D+00 0.25175755D+06 0.25175755D+06 0.25175755D+06 0.10902303D+01  1  2  3  1  6  1        2 0.383302517650D-04 0.100000000000D+01
-.120764932904D-03 0.000000000000D+00 0.000000000000D+00 0.278060975713D-05 0.000000000000D+00  6 2 2 25 2 2 21 2 0.28822577D+00 0.19334227D+00 0.25175755D+06 0.25175755D+06 0.25175755D+06 0.10902303D+01  1  2 15  1  6  1        2 -.347469964274D-03 0.100000000000D+01
0.628138484533D-09 0.000000000000D+00 0.000000000000D+00 0.278060975713D-05 0.000000000000D+00  6 2 2 25 2 2 21 2 0.32633976D+00 0.19334227D+00 0.27408803D+06 0.27408803D+06 0.27408803D+06 0.10874663D+01  1  2 12  1  6  1        2 0.130719429068D-08 0.100000000000D+01
-.625384762977D-03 0.000000000000D+00 0.000000000000D+00 0.278060975713D-05 0.000000000000D+00  6 2 2 25 2 2 21 2 0.28822577D+00 0.19334227D+00 0.25175755D+06 0.25175755D+06 0.25175755D+06 0.10902303D+01  1  2  4  1  6  1        2 -.179938344703D-02 0.100000000000D+01
-.633192972783D-02 0.000000000000D+00 -.337392058281D-03 0.278060975713D-05 0.000000000000D+00  6 2 2 25 2 2 21 2 0.32551093D+00 0.19334227D+00 0.25175755D+06 0.25175755D+06 0.25175755D+06 0.10902303D+01  1  2  5  1  6  1        2 -.134245219178D-01 0.100000000000D+01
0.632856873895D-02 0.000000000000D+00 0.334910794527D-03 0.278060975713D-05 0.000000000000D+00  6 2 2 25 2 2 21 2 0.28822577D+00 0.19334227D+00 0.25175755D+06 0.25175755D+06 0.25175755D+06 0.10902303D+01  1  2  6  1  6  1        2 0.182088252007D-01 0.100000000000D+01
0.122665316656D-10 0.000000000000D+00 0.000000000000D+00 0.278060975713D-05 0.000000000000D+00  6 21 2 25 2 2 -2 2 0.32633976D+00 0.19334227D+00 0.27408803D+06 0.27408803D+06 0.27408803D+06 0.10874663D+01  1  2 12  4  6  1        2 0.447037997224D-11 0.100000000000D+01
-.119927969281D-03 0.000000000000D+00 -.647553421247D-05 0.278060975713D-05 0.000000000000D+00  6 21 2 25 2 2 -2 2 0.32551093D+00 0.19334227D+00 0.25175755D+06 0.25175755D+06 0.25175755D+06 0.10902303D+01  1  2  5  4  6  1        2 -.449885610061D-04 0.100000000000D+01
  </mgrwgt>
  </event>
  <event>
  6     66 0.18204334E-05 0.21430265E+03 0.75467711E-02 0.89582148E-01
        2 -1    0    0  501    0 0.00000000E+00 0.00000000E+00 0.18205856E+04 0.18205856E+04 0.32000000E+00 0.0000E+00 0.9000E+01
        2 -1    0    0  503    0 0.00000000E+00 0.00000000E+00 -.27145649E+04 0.27145650E+04 0.32000000E+00 0.0000E+00 0.9000E+01
       25  1    1    2    0    0 -.42480303E+03 0.34153308E+03 -.50345178E+02 0.56148206E+03 0.12500000E+03 0.0000E+00 0.9000E+01
        2  1    1    2  501    0 0.45696131E+02 0.25815457E+03 0.14837118E+04 0.15066959E+04 0.32000000E+00 0.0000E+00 0.9000E+01
        2  1    1    2  502    0 0.28570085E+03 -.62058606E+03 -.16963487E+04 0.18287567E+04 0.32000000E+00 0.0000E+00 0.9000E+01
       21  1    1    2  503  502 0.93406053E+02 0.20898403E+02 -.63099725E+03 0.63821589E+03 0.75000000E+00 0.0000E+00 0.9000E+01
#aMCatNLO 2  0  0  2  5 0.95715380D+02 0.00000000D+00  -5  6  0 0.00000000D+00 0.00000000D+00 0.00000000D+00 0.00000000D+00 0.00000000D+00
  <mgrwgt>
 0.4214101194D-03    3    2    0
 0.194343632501853D+04 0.000000000000000D+00 0.000000000000000D+00 0.194343632501853D+04
 0.194343632501853D+04 0.000000000000000D+00 0.000000000000000D+00 -.194343632501853D+04
 0.551200966758665D+03 -.411483757443653D+03 0.344562749764255D+03 -.124553037150756D+02
 0.161342351914156D+04 0.844256713724578D+02 0.266812821792565D+03 0.158896780214689D+04
 0.172224816413684D+04 0.327058086071195D+03 -.611375571556820D+03 -.157651249843182D+04
 0.000000000000000D+00 0.000000000000000D+00 0.000000000000000D+00 -.000000000000000D+00
 0.194788695300743D+04 0.000000000000000D+00 0.000000000000000D+00 0.194788695300743D+04
 0.253715789219718D+04 0.000000000000000D+00 0.000000000000000D+00 -.253715789219718D+04
 0.559403900700666D+03 -.424826295852166D+03 0.341577528360713D+03 -.124553037150756D+02
 0.161044922986300D+04 0.456948434803071D+02 0.258147297073012D+03 0.158896780214689D+04
 0.171819785053393D+04 0.285725399318099D+03 -.620623228740443D+03 -.157651249843182D+04
 0.596993864107011D+03 0.934060530537605D+02 0.208984033067178D+02 -.589270939189748D+03
-.285898329750D-02 0.000000000000D+00 0.000000000000D+00 0.672239300786D-06 0.000000000000D+00  6 2 2 25 2 2 21 2 0.27945010D+00 0.42828561D+00 0.64030204D+06 0.64030204D+06 0.64030204D+06 0.10610007D+01  1  2 13  2  6  2        2 -.105922091267D-02 0.100000000000D+01
-.332678823782D-09 0.000000000000D+00 0.000000000000D+00 0.672239300786D-06 0.000000000000D+00  6 2 2 25 2 2 21 2 0.27945010D+00 0.41800173D+00 0.64030204D+06 0.64030204D+06 0.64030204D+06 0.10610007D+01  1  2 13  2  6  2        2 -.135383179391D-09 0.100000000000D+01
0.364518122267D-02 0.000000000000D+00 0.000000000000D+00 0.672239300786D-06 0.573945455634D-09  6 2 2 25 2 2 21 2 0.28009006D+00 0.41762533D+00 0.64030204D+06 0.64030204D+06 0.64030204D+06 0.10610007D+01  1  2  1  2  6  2        2 0.148063116746D-02 0.100000000000D+01
  </mgrwgt>
  </event>
  <event>
  5     66 0.18204334E-05 0.20203620E+03 0.75467711E-02 0.93753518E-01
        2 -1    0    0  501    0 0.00000000E+00 0.00000000E+00 0.84952526E+03 0.84952532E+03 0.32000000E+00 0.0000E+00 0.9000E+01
        2 -1    0    0  502    0 0.00000000E+00 0.00000000E+00 -.12003371E+04 0.12003372E+04 0.32000000E+00 0.0000E+00 0.9000E+01
       25  1    1    2    0    0 -.18487521E+03 -.49170693E+03 -.52191424E+02 0.54249746E+03 0.12500000E+03 0.0000E+00 0.9000E+01
        2  1    1    2  501    0 0.10442617E+03 0.17298467E+03 0.55606809E+03 0.59164208E+03 0.32000000E+00 0.0000E+00 0.9000E+01
        2  1    1    2  502    0 0.80449036E+02 0.31872226E+03 -.85468855E+03 0.91572297E+03 0.32000000E+00 0.0000E+00 0.9000E+01
#aMCatNLO 1  0  0  1  4 0.69204410D+01 0.00000000D+00  -5  6  0 0.00000000D+00 0.00000000D+00 0.00000000D+00 0.00000000D+00 0.00000000D+00
  <mgrwgt>
 0.3471697968D-02   13    2    0
 0.100981028999912D+04 0.000000000000000D+00 0.000000000000000D+00 0.100981028999912D+04
 0.100981028999912D+04 0.000000000000000D+00 0.000000000000000D+00 -.100981028999912D+04
 0.541589712533430D+03 -.184876677932663D+03 -.491735065333895D+03 0.413721669688132D+02
 0.697006877901481D+03 0.104413519174633D+03 0.172963703577178D+03 0.667083174799368D+03
 0.781023989563331D+03 0.804631587580306D+02 0.318771361756717D+03 -.708455341768181D+03
 0.000000000000000D+00 -.000000000000000D+00 -.000000000000000D+00 0.000000000000000D+00
 0.105512022048129D+04 0.000000000000000D+00 0.000000000000000D+00 0.105512022048129D+04
 0.101008050245308D+04 0.000000000000000D+00 0.000000000000000D+00 -.101008050245308D+04
 0.539891217587077D+03 -.184826010555116D+03 -.489882859926985D+03 0.413721669688132D+02
 0.697613210040015D+03 0.104478857120557D+03 0.175352208816178D+03 0.667083174799368D+03
 0.782128009143586D+03 0.805363924233465D+02 0.321448504277858D+03 -.708455341768181D+03
 0.455682861636895D+02 -.189238988787479D+00 -.691785316705195D+01 0.450397180282041D+02
0.462419072750D-05 0.000000000000D+00 0.000000000000D+00 0.101794845184D-05 0.000000000000D+00  6 2 2 25 2 2 21 0 0.13069620D+00 0.18466726D+00 0.28666015D+06 0.28666015D+06 0.28666015D+06 0.10860164D+01  1  2  2  1  6  1        2 0.463875722326D-04 0.100000000000D+01
0.512336664291D-06 0.000000000000D+00 -.177581099710D-07 0.101794845184D-05 0.000000000000D+00  6 2 2 25 2 2 21 2 0.13069620D+00 0.18466726D+00 0.28666015D+06 0.28666015D+06 0.28666015D+06 0.10860164D+01  1  2  3  1  6  1        2 0.606169516606D-05 0.100000000000D+01
-.283239994204D-05 0.000000000000D+00 0.000000000000D+00 0.101794845184D-05 0.000000000000D+00  6 2 2 25 2 2 21 2 0.13069620D+00 0.18466726D+00 0.28666015D+06 0.28666015D+06 0.28666015D+06 0.10860164D+01  1  2 15  1  6  1        2 -.335114510315D-04 0.100000000000D+01
0.581266470797D-03 0.000000000000D+00 0.000000000000D+00 0.101794845184D-05 0.000000000000D+00  6 2 2 25 2 2 21 2 0.13775533D+00 0.18466726D+00 0.29199226D+06 0.29199226D+06 0.29199226D+06 0.10854222D+01  1  2 12  1  6  1        2 0.639856742169D-02 0.100000000000D+01
0.839343538830D-09 0.000000000000D+00 0.000000000000D+00 0.101794845184D-05 0.000000000000D+00  6 2 2 25 2 2 21 2 0.13658393D+00 0.18466726D+00 0.29199226D+06 0.29199226D+06 0.29199226D+06 0.10854222D+01  1  2 12  1  6  1        2 0.934644735007D-08 0.100000000000D+01
-.339810507723D-03 0.000000000000D+00 0.000000000000D+00 0.101794845184D-05 0.000000000000D+00  6 2 2 25 2 2 21 2 0.13069620D+00 0.18466726D+00 0.28666015D+06 0.28666015D+06 0.28666015D+06 0.10860164D+01  1  2  4  1  6  1        2 -.402045735862D-02 0.100000000000D+01
-.929759782537D-03 0.000000000000D+00 -.244096160530D-04 0.101794845184D-05 0.000000000000D+00  6 2 2 25 2 2 21 2 0.13657612D+00 0.18466726D+00 0.28666015D+06 0.28666015D+06 0.28666015D+06 0.10860164D+01  1  2  5  1  6  1        2 -.103746672015D-01 0.100000000000D+01
0.929956970197D-03 0.000000000000D+00 0.243859995585D-04 0.101794845184D-05 0.000000000000D+00  6 2 2 25 2 2 21 2 0.13069620D+00 0.18466726D+00 0.28666015D+06 0.28666015D+06 0.28666015D+06 0.10860164D+01  1  2  6  1  6  1        2 0.110027567102D-01 0.100000000000D+01
0.414066909752D-04 0.000000000000D+00 0.000000000000D+00 0.101794845184D-05 0.587848904352D-07  6 2 2 25 2 2 21 2 0.13656051D+00 0.18471667D+00 0.29199226D+06 0.29199226D+06 0.29199226D+06 0.10854222D+01  1  2 11  1  6  1        2 0.460989810842D-03 0.100000000000D+01
0.144818479153D-04 0.000000000000D+00 0.000000000000D+00 0.101794845184D-05 0.000000000000D+00  6 21 2 25 2 2 -2 2 0.13775533D+00 0.18466726D+00 0.29199226D+06 0.29199226D+06 0.29199226D+06 0.10854222D+01  1  2 12  4  6  1        2 0.132093290796D-03 0.100000000000D+01
0.177336172411D-10 0.000000000000D+00 0.000000000000D+00 0.101794845184D-05 0.000000000000D+00  6 21 2 25 2 2 -2 2 0.13658393D+00 0.18466726D+00 0.29199226D+06 0.29199226D+06 0.29199226D+06 0.10854222D+01  1  2 12  4  6  1        2 0.165792309950D-09 0.100000000000D+01
-.163741332813D-04 0.000000000000D+00 -.188757708475D-06 0.101794845184D-05 0.000000000000D+00  6 21 2 25 2 2 -2 2 0.13657612D+00 0.18466726D+00 0.28666015D+06 0.28666015D+06 0.28666015D+06 0.10860164D+01  1  2  5  4  6  1        2 -.153535744333D-03 0.100000000000D+01
0.749089846615D-06 0.000000000000D+00 0.000000000000D+00 0.101794845184D-05 0.984865337591D-09  6 21 2 25 2 2 -2 2 0.13656051D+00 0.18471667D+00 0.29199226D+06 0.29199226D+06 0.29199226D+06 0.10854222D+01  1  2 11  4  6  1        2 0.700371000503D-05 0.100000000000D+01
  </mgrwgt>
  </event>
  <event>
  5     66 0.18204334E-05 0.25505462E+02 0.75467711E-02 0.92369674E-01
        2 -1    0    0  501    0 0.00000000E+00 0.00000000E+00 0.18244558E+04 0.18244558E+04 0.32000000E+00 0.0000E+00 0.9000E+01
        2 -1    0    0  502    0 0.00000000E+00 0.00000000E+00 -.12258978E+04 0.12258979E+04 0.32000000E+00 0.0000E+00 0.9000E+01
       25  1    1    2    0    0 0.26002993E+03 0.47105920E+03 0.80655363E+02 0.55824961E+03 0.12500000E+03 0.0000E+00 0.9000E+01
        2  1    1    2  501    0 -.24503003E+03 -.49168517E+03 0.14546922E+04 0.15549674E+04 0.32000000E+00 0.0000E+00 0.9000E+01
        2  1    1    2  502    0 -.14999902E+02 0.20625969E+02 -.93678957E+03 0.93713671E+03 0.32000000E+00 0.0000E+00 0.9000E+01
#aMCatNLO 1  0  0  5  2 0.21022608D+01 0.00000000D+00  -5  6  0 0.00000000D+00 0.00000000D+00 0.00000000D+00 0.00000000D+00 0.00000000D+00
  <mgrwgt>
 0.1324965654D-01    6    2    0
 0.149552548933808D+04 0.000000000000000D+00 0.000000000000000D+00 0.149552548933808D+04
 0.149552548933808D+04 -.000000000000000D+00 -.000000000000000D+00 -.149552548933808D+04
 0.553159866865157D+03 0.260025312063737D+03 0.471045920457561D+03 -.293839448802053D+02
 0.129465877175823D+04 -.245024190665552D+03 -.491673449016297D+03 0.117233173667338D+04
 0.114323234005278D+04 -.150011213981833D+02 0.206275285587341D+02 -.114294779179318D+04
 0.000000000000000D+00 0.000000000000000D+00 0.000000000000000D+00 -.000000000000000D+00
 0.149552548933808D+04 0.000000000000000D+00 0.000000000000000D+00 0.149552548933808D+04
 0.149552548933808D+04 -.000000000000000D+00 -.000000000000000D+00 -.149552548933808D+04
 0.553236350064927D+03 0.260009480051828D+03 0.471067690515220D+03 -.305901989041707D+02
 0.129209323042866D+04 -.245061205875724D+03 -.491622550667790D+03 0.116951151733072D+04
 0.583656517930921D+03 -.667246869451728D+02 -.459629284271596D+01 -.579811711823261D+03
 0.562064880251655D+03 0.517764127690700D+02 0.251511529952835D+02 -.559109606603287D+03
0.429051018209D-03 0.000000000000D+00 0.000000000000D+00 0.626200609622D-04 0.000000000000D+00  6 2 2 25 2 2 21 0 0.28068551D+00 0.18859967D+00 0.31766134D+06 0.31766134D+06 0.31766134D+06 0.10827186D+01  1  2  2  3  6  5        2 0.113115425225D-02 0.100000000000D+01
0.340066095104D-03 0.000000000000D+00 -.164766888165D-05 0.626200609622D-04 0.000000000000D+00  6 2 2 25 2 2 21 2 0.28068551D+00 0.18859967D+00 0.31766134D+06 0.31766134D+06 0.31766134D+06 0.10827186D+01  1  2  3  3  6  5        2 0.105101146539D-02 0.100000000000D+01
-.295193150928D-03 0.000000000000D+00 0.000000000000D+00 0.626200609622D-04 0.000000000000D+00  6 2 2 25 2 2 21 2 0.28068551D+00 0.18859967D+00 0.31766134D+06 0.31766134D+06 0.31766134D+06 0.10827186D+01  1  2 15  3  6  5        2 -.912326722940D-03 0.100000000000D+01
-.752319767407D-04 0.000000000000D+00 0.000000000000D+00 0.626200609622D-04 0.000000000000D+00  6 2 2 25 2 2 21 2 0.28068551D+00 0.18859967D+00 0.31766134D+06 0.31766134D+06 0.31766134D+06 0.10827186D+01  1  2  4  3  6  5        2 -.232512653442D-03 0.100000000000D+01
-.670542255172D-02 0.000000000000D+00 0.000000000000D+00 0.626200609622D-04 0.000000000000D+00  6 2 2 25 2 2 21 2 0.28068551D+00 0.18859967D+00 0.31766134D+06 0.31766134D+06 0.31766134D+06 0.10827186D+01  1  2  5  3  6  5        2 -.207238418754D-01 0.100000000000D+01
0.106568536999D-01 0.000000000000D+00 -.000000000000D+00 0.626200609622D-04 0.000000000000D+00  6 2 2 25 2 2 21 2 0.28068551D+00 0.18859967D+00 0.31766134D+06 0.31766134D+06 0.31766134D+06 0.10827186D+01  1  2  6  3  6  5        2 0.329361720700D-01 0.100000000000D+01
  </mgrwgt>
  </event>
  <event>
  6     66 0.18204334E-05 0.59604893E+02 0.75467711E-02 0.88404280E-01
        2 -1    0    0  501    0 0.00000000E+00 0.00000000E+00 0.18208570E+04 0.18208570E+04 0.32000000E+00 0.0000E+00 0.9000E+01
        2 -1    0    0  502    0 0.00000000E+00 0.00000000E+00 -.10637114E+04 0.10637115E+04 0.32000000E+00 0.0000E+00 0.9000E+01
       25  1    1    2    0    0 -.63931581E+03 -.60816285E+03 0.11653843E+03 0.89877303E+03 0.12500000E+03 0.0000E+00 0.9000E+01
        2  1    1    2  501    0 0.20408371E+02 -.18851074E+02 0.10165335E+04 0.10169131E+04 0.32000000E+00 0.0000E+00 0.9000E+01
        2  1    1    2  503    0 0.49614942E+03 0.49462590E+03 -.23203200E+03 0.73800947E+03 0.32000000E+00 0.0000E+00 0.9000E+01
       21  1    1    2  502  503 0.12275802E+03 0.13238802E+03 -.14389440E+03 0.23087287E+03 0.75000000E+00 0.0000E+00 0.9000E+01
#aMCatNLO 2  0  0  5  4 0.63055404D+02 0.00000000D+00  -5  6  0 0.00000000D+00 0.00000000D+00 0.00000000D+00 0.00000000D+00 0.00000000D+00
  <mgrwgt>
 0.4783304095D-02    1    2    0
 0.139171351111130D+04 0.000000000000000D+00 0.000000000000000D+00 0.139171351111130D+04
 0.139171351111130D+04 -.000000000000000D+00 -.000000000000000D+00 -.139171351111130D+04
 0.902008557521392D+03 -.641135164042644D+03 -.610008353249777D+03 -.121778274890594D+03
 0.778840359012212D+03 0.188834922445708D+02 -.203901697645616D+02 0.778344370779344D+03
 0.110257810568900D+04 0.622251671798073D+03 0.630398523014339D+03 -.656566095888750D+03
 0.000000000000000D+00 0.000000000000000D+00 0.000000000000000D+00 -.000000000000000D+00
 0.139171351111130D+04 0.000000000000000D+00 0.000000000000000D+00 0.139171351111130D+04
 0.139171351111130D+04 -.000000000000000D+00 -.000000000000000D+00 -.139171351111130D+04
 0.899801314828606D+03 -.639372089877218D+03 -.608222195975763D+03 -.123638574788561D+03
 0.777234344094904D+03 0.204061141097420D+02 -.188476129207372D+02 0.776737783061160D+03
 0.827822244251898D+03 0.496117331088936D+03 0.494587129964659D+03 -.441067832362282D+03
 0.278569119047201D+03 0.122848644678540D+03 0.132482678931842D+03 -.212031375910316D+03
0.138659544704D-02 0.000000000000D+00 0.000000000000D+00 0.210889245512D-05 0.303935882348D-08  6 2 2 25 2 2 21 2 0.28013184D+00 0.16364792D+00 0.81022913D+06 0.81022913D+06 0.81022913D+06 0.10540023D+01  1  2  1  3  6  5        2 0.478330409512D-02 0.100000000000D+01
  </mgrwgt>
  </event>
  <event>
  6     66 0.18204334E-05 0.30607476E+03 0.75467711E-02 0.90612518E-01
        2 -1    0    0  503    0 0.00000000E+00 0.00000000E+00 0.57087125E+03 0.57087134E+03 0.32000000E+00 0.0000E+00 0.9000E+01
        2 -1    0    0  502    0 0.00000000E+00 0.00000000E+00 -.13829269E+04 0.13829270E+04 0.32000000E+00 0.0000E+00 0.9000E+01
       25  1    1    2    0    0 -.22391274E+03 0.58432090E+03 -.65360272E+03 0.91344914E+03 0.12500000E+03 0.0000E+00 0.9000E+01
        2  1    1    2  501    0 0.28067237E+03 -.79124352E+02 0.19179597E+03 0.34903215E+03 0.32000000E+00 0.0000E+00 0.9000E+01
        2  1    1    2  502    0 -.82393937E+02 -.43974646E+03 -.40401165E+03 0.60281940E+03 0.32000000E+00 0.0000E+00 0.9000E+01
       21  1    1    2  503  501 0.25634304E+02 -.65450087E+02 0.53762739E+02 0.88497605E+02 0.75000000E+00 0.0000E+00 0.9000E+01
#aMCatNLO 2  0  0  1  5 0.70291048D+02 0.00000000D+00  -5  6  0 0.00000000D+00 0.00000000D+00 0.00000000D+00 0.00000000D+00 0.00000000D+00
  <mgrwgt>
 0.6750804813D-04    2    2    0
 0.825343008290365D+03 0.000000000000000D+00 0.000000000000000D+00 0.825343008290365D+03
 0.825343008290365D+03 0.000000000000000D+00 0.000000000000000D+00 -.825343008290365D+03
 0.662763509334957D+03 -.213399153453382D+03 0.557615514553230D+03 -.259145149560828D+03
 0.502399350994489D+03 0.288348236529099D+03 -.988610105990876D+02 0.399358113669385D+03
 0.485523156251285D+03 -.749490830757170D+02 -.458754503954142D+03 -.140212964108557D+03
 0.000000000000000D+00 0.000000000000000D+00 -.000000000000000D+00 0.000000000000000D+00
 0.943670601554988D+03 0.000000000000000D+00 0.000000000000000D+00 0.943670601554988D+03
 0.836596256672418D+03 0.000000000000000D+00 0.000000000000000D+00 -.836596256672418D+03
 0.688787698349027D+03 -.223888847358690D+03 0.584398039767796D+03 -.259145149560828D+03
 0.494456884767258D+03 0.280611410339097D+03 -.791071698879118D+02 0.399358113669385D+03
 0.468937355035196D+03 -.823568664813163D+02 -.439840782768807D+03 -.140212964108557D+03
 0.128084920075925D+03 0.256343035009095D+02 -.654500871110774D+02 0.107074344882571D+03
-.521399947113D-07 0.000000000000D+00 0.000000000000D+00 0.214804344976D-08 0.000000000000D+00  6 2 2 25 2 2 21 2 0.89197232D-01 0.20989587D+00 0.52381656D+06 0.52381656D+06 0.52381656D+06 0.10670850D+01  1  2 13  1  6  1        2 -.749279660087D-06 0.100000000000D+01
0.477846584070D-05 0.000000000000D+00 0.000000000000D+00 0.214804344976D-08 0.354916155731D-11  6 2 2 25 2 2 21 2 0.87826242D-01 0.21275772D+00 0.52381656D+06 0.52381656D+06 0.52381656D+06 0.10670850D+01  1  2  1  1  6  1        2 0.682573277878D-04 0.100000000000D+01
  </mgrwgt>
  </event>
  <event>
  5     66 0.18204334E-05 0.64964867E+02 0.75467711E-02 0.93973286E-01
        2 -1    0    0  501    0 0.00000000E+00 0.00000000E+00 0.29071258E+04 0.29071258E+04 0.32000000E+00 0.0000E+00 0.9000E+01
        2 -1    0    0  502    0 0.00000000E+00 0.00000000E+00 -.38001371E+03 0.38001385E+03 0.32000000E+00 0.0000E+00 0.9000E+01
       25  1    1    2    0    0 0.25178695E+03 0.39818099E+03 0.38631550E+03 0.62194006E+03 0.12500000E+03 0.0000E+00 0.9000E+01
        2  1    1    2  501    0 -.26493311E+03 -.33456642E+03 0.23796789E+04 0.24176426E+04 0.32000000E+00 0.0000E+00 0.9000E+01
        2  1    1    2  502    0 0.13146162E+02 -.63614572E+02 -.23888226E+03 0.24755700E+03 0.32000000E+00 0.0000E+00 0.9000E+01
#aMCatNLO 1  0  0  1  5 0.58500537D+02 0.00000000D+00  -5  6  0 0.00000000D+00 0.00000000D+00 0.00000000D+00 0.00000000D+00 0.00000000D+00
  <mgrwgt>
 0.1044275435D-01    9    2    0
 0.105106989693523D+04 0.000000000000000D+00 0.000000000000000D+00 0.105106989693523D+04
 0.105106989693523D+04 0.000000000000000D+00 0.000000000000000D+00 -.105106989693523D+04
 0.508097327985258D+03 0.251779661145284D+03 0.398178999895825D+03 -.143521360714303D+03
 0.919713755225963D+03 -.264926708260874D+03 -.334558334695445D+03 0.814713416783908D+03
 0.674328710659233D+03 0.131470471155899D+02 -.636206652003798D+02 -.671192056069606D+03
 0.000000000000000D+00 0.000000000000000D+00 0.000000000000000D+00 0.000000000000000D+00
 0.112618457997700D+04 0.000000000000000D+00 0.000000000000000D+00 0.112618457997700D+04
 0.106292915587143D+04 0.000000000000000D+00 0.000000000000000D+00 -.106292915587143D+04
 0.496125927543384D+03 0.240454117273514D+03 0.389999195493674D+03 -.143521360714303D+03
 0.931497904046299D+03 -.285804514811952D+03 -.349637202065289D+03 0.814713416783908D+03
 0.675329811704412D+03 -.207428611164310D+01 -.746141795029530D+02 -.671192056069606D+03
 0.861600925543425D+02 0.474246836500815D+02 0.342521860745674D+02 0.632554241055720D+02
0.851415677463D-03 0.000000000000D+00 0.000000000000D+00 0.127527439953D-04 0.000000000000D+00  6 2 2 25 2 2 21 0 0.44725014D+00 0.58463660D-01 0.23966930D+06 0.23966930D+06 0.23966930D+06 0.10918406D+01  1  2  2  1  6  1        2 0.241230998255D-02 0.100000000000D+01
0.271441356002D-03 0.000000000000D+00 -.326966038436D-05 0.127527439953D-04 0.000000000000D+00  6 2 2 25 2 2 21 2 0.44725014D+00 0.58463660D-01 0.23966930D+06 0.23966930D+06 0.23966930D+06 0.10918406D+01  1  2  3  1  6  1        2 0.916823935207D-03 0.100000000000D+01
-.518012726184D-03 0.000000000000D+00 0.000000000000D+00 0.127527439953D-04 0.000000000000D+00  6 2 2 25 2 2 21 2 0.44725014D+00 0.58463660D-01 0.23966930D+06 0.23966930D+06 0.23966930D+06 0.10918406D+01  1  2 15  1  6  1        2 -.174964667545D-02 0.100000000000D+01
0.479458371944D-09 0.000000000000D+00 0.000000000000D+00 0.127527439953D-04 0.000000000000D+00  6 2 2 25 2 2 21 2 0.48307205D+00 0.58463660D-01 0.28071097D+06 0.28071097D+06 0.28071097D+06 0.10866937D+01  1  2 12  1  6  1        2 0.112865791463D-08 0.100000000000D+01
-.652835035583D-03 0.000000000000D+00 0.000000000000D+00 0.127527439953D-04 0.000000000000D+00  6 2 2 25 2 2 21 2 0.44725014D+00 0.58463660D-01 0.23966930D+06 0.23966930D+06 0.23966930D+06 0.10918406D+01  1  2  4  1  6  1        2 -.220502430131D-02 0.100000000000D+01
-.117234657166D-01 0.000000000000D+00 -.177237257390D-02 0.127527439953D-04 0.000000000000D+00  6 2 2 25 2 2 21 2 0.48067117D+00 0.58463660D-01 0.23966930D+06 0.23966930D+06 0.23966930D+06 0.10918406D+01  1  2  5  1  6  1        2 -.288522369680D-01 0.100000000000D+01
0.118250652578D-01 0.000000000000D+00 0.176778017651D-02 0.127527439953D-04 0.000000000000D+00  6 2 2 25 2 2 21 2 0.44725014D+00 0.58463660D-01 0.23966930D+06 0.23966930D+06 0.23966930D+06 0.10918406D+01  1  2  6  1  6  1        2 0.399404977318D-01 0.100000000000D+01
0.673888269646D-11 0.000000000000D+00 0.000000000000D+00 0.127527439953D-04 0.000000000000D+00  6 21 2 25 2 2 -2 2 0.48307205D+00 0.58463660D-01 0.28071097D+06 0.28071097D+06 0.28071097D+06 0.10866937D+01  1  2 12  4  6  1        2 0.897289511397D-12 0.100000000000D+01
-.139485055445D-03 0.000000000000D+00 -.215636393241D-04 0.127527439953D-04 0.000000000000D+00  6 21 2 25 2 2 -2 2 0.48067117D+00 0.58463660D-01 0.23966930D+06 0.23966930D+06 0.23966930D+06 0.10918406D+01  1  2  5  4  6  1        2 -.199704829548D-04 0.100000000000D+01
  </mgrwgt>
  </event>
  <event>
  5     66 0.18204334E-05 0.16869683E+03 0.75467711E-02 0.90613019E-01
        2 -1    0    0  501    0 0.00000000E+00 0.00000000E+00 0.35862056E+04 0.35862056E+04 0.32000000E+00 0.0000E+00 0.9000E+01
        2 -1    0    0  502    0 0.00000000E+00 0.00000000E+00 -.23570587E+04 0.23570588E+04 0.32000000E+00 0.0000E+00 0.9000E+01
       25  1    1    2    0    0 -.63349077E+03 0.13548598E+02 0.18761925E+03 0.67254747E+03 0.12500000E+03 0.0000E+00 0.9000E+01
        2  1    1    2  501    0 0.56068468E+03 0.13861999E+03 0.31262633E+04 0.31791674E+04 0.32000000E+00 0.0000E+00 0.9000E+01
        2  1    1    2  502    0 0.72806091E+02 -.15216859E+03 -.20847357E+04 0.20915495E+04 0.32000000E+00 0.0000E+00 0.9000E+01
#aMCatNLO 1  0  0  5  1 0.80657471D+02 0.00000000D+00  -5  6  0 0.00000000D+00 0.00000000D+00 0.00000000D+00 0.00000000D+00 0.00000000D+00
  <mgrwgt>
 0.1555853981D-02    7    2    0
 0.290738668044138D+04 0.000000000000000D+00 0.000000000000000D+00 0.290738668044138D+04
 0.290738668044138D+04 -.000000000000000D+00 -.000000000000000D+00 -.290738668044138D+04
 0.647751145818263D+03 -.633488113059040D+03 0.135570169293838D+02 0.496544541178937D+02
 0.258854937005740D+04 0.560678437017405D+03 0.138618444560289D+03 0.252329396985685D+04
 0.257847284500710D+04 0.728096760416362D+02 -.152175461489676D+03 -.257294842397475D+04
 0.000000000000000D+00 0.000000000000000D+00 0.000000000000000D+00 -.000000000000000D+00
 0.290738668044138D+04 0.000000000000000D+00 0.000000000000000D+00 0.290738668044138D+04
 0.290738668044138D+04 -.000000000000000D+00 -.000000000000000D+00 -.290738668044138D+04
 0.647692126890699D+03 -.633472228153571D+03 0.135238167703962D+02 0.490931133083655D+02
 0.258637020612052D+04 0.560741892600530D+03 0.138485819569063D+03 0.252105157638017D+04
 0.126993888827411D+04 -.804514480478792D+01 -.142448846784866D+03 -.126189872083524D+04
 0.131077213959744D+04 0.807754803578299D+02 -.956078955459625D+01 -.130824596885330D+04
0.175649069000D-02 0.000000000000D+00 0.000000000000D+00 0.527538773960D-04 0.000000000000D+00  6 2 2 25 2 2 21 0 0.55172394D+00 0.36262442D+00 0.48448689D+06 0.48448689D+06 0.48448689D+06 0.10694791D+01  1  2  2  3  6  5        2 0.868745523809D-04 0.100000000000D+01
0.420489436423D-03 0.000000000000D+00 -.674538674423D-05 0.527538773960D-04 0.000000000000D+00  6 2 2 25 2 2 21 2 0.55172394D+00 0.36262442D+00 0.48448689D+06 0.48448689D+06 0.48448689D+06 0.10694791D+01  1  2  3  3  6  5        2 0.237873711752D-04 0.100000000000D+01
-.121746370279D-02 0.000000000000D+00 0.000000000000D+00 0.527538773960D-04 0.000000000000D+00  6 2 2 25 2 2 21 2 0.55172394D+00 0.36262442D+00 0.48448689D+06 0.48448689D+06 0.48448689D+06 0.10694791D+01  1  2 15  3  6  5        2 -.688727432416D-04 0.100000000000D+01
0.175739796172D-10 0.000000000000D+00 0.000000000000D+00 0.527538773960D-04 0.000000000000D+00  6 2 2 25 2 2 21 2 0.55172394D+00 0.36262442D+00 0.52376609D+06 0.52376609D+06 0.52376609D+06 0.10670880D+01  1  2 12  3  6  5        2 0.979849786474D-12 0.100000000000D+01
-.196714562526D-01 0.000000000000D+00 0.000000000000D+00 0.527538773960D-04 0.000000000000D+00  6 2 2 25 2 2 21 2 0.55172394D+00 0.36262442D+00 0.48448689D+06 0.48448689D+06 0.48448689D+06 0.10694791D+01  1  2  4  3  6  5        2 -.111282755500D-02 0.100000000000D+01
-.760401232439D-01 0.000000000000D+00 0.000000000000D+00 0.527538773960D-04 0.000000000000D+00  6 2 2 25 2 2 21 2 0.55172394D+00 0.36262442D+00 0.48448689D+06 0.48448689D+06 0.48448689D+06 0.10694791D+01  1  2  5  3  6  5        2 -.430164108569D-02 0.100000000000D+01
0.122475707810D+00 0.000000000000D+00 -.000000000000D+00 0.527538773960D-04 0.000000000000D+00  6 2 2 25 2 2 21 2 0.55172394D+00 0.36262442D+00 0.48448689D+06 0.48448689D+06 0.48448689D+06 0.10694791D+01  1  2  6  3  6  5        2 0.692853344051D-02 0.100000000000D+01
  </mgrwgt>
  </event>
  <event>
  5     66 -.18204334E-05 0.86323801E+02 0.75467711E-02 0.94235777E-01
        2 -1    0    0  501    0 0.00000000E+00 0.00000000E+00 0.58666827E+03 0.58666835E+03 0.32000000E+00 0.0000E+00 0.9000E+01
        2 -1    0    0  502    0 0.00000000E+00 0.00000000E+00 -.91370550E+03 0.91370556E+03 0.32000000E+00 0.0000E+00 0.9000E+01
       25  1    1    2    0    0 0.14296739E+03 0.48429586E+03 0.10905755E+03 0.53150795E+03 0.12500000E+03 0.0000E+00 0.9000E+01
        2  1    1    2  501    0 0.13316050E+02 -.85357503E+02 0.19085458E+03 0.20949652E+03 0.32000000E+00 0.0000E+00 0.9000E+01
        2  1    1    2  502    0 -.15628344E+03 -.39893836E+03 -.62694937E+03 0.75936943E+03 0.32000000E+00 0.0000E+00 0.9000E+01
#aMCatNLO 1  0  0  2  5 0.41074419D+02 0.00000000D+00  -5  6  0 0.00000000D+00 0.00000000D+00 0.00000000D+00 0.00000000D+00 0.00000000D+00
  <mgrwgt>
 -.1629498205D-02    5    2    0
 0.732148980618971D+03 0.000000000000000D+00 0.000000000000000D+00 0.732148980618971D+03
 0.732148980618971D+03 0.000000000000000D+00 0.000000000000000D+00 -.732148980618971D+03
 0.569078649657703D+03 0.143008544528479D+03 0.484329454648102D+03 0.230649181763892D+03
 0.257086329533963D+03 0.133058562884996D+02 -.852921619282966D+02 0.242160240616152D+03
 0.638132982046277D+03 -.156314400816978D+03 -.399037292719806D+03 -.472809422380044D+03
 0.000000000000000D+00 0.000000000000000D+00 0.000000000000000D+00 -.000000000000000D+00
 0.762294047097875D+03 0.000000000000000D+00 0.000000000000000D+00 0.762294047097875D+03
 0.154055750976964D+04 0.000000000000000D+00 0.000000000000000D+00 -.154055750976964D+04
 0.491133239524266D+03 0.117299534586796D+03 0.398282102413564D+03 0.230649181763892D+03
 0.274096999327615D+03 0.425225895743646D+00 -.128403279117270D+03 0.242160240616152D+03
 0.720232376947217D+03 -.189253315080377D+03 -.509282936728470D+03 -.472809422380044D+03
 0.817388941068416D+03 0.715285545978377D+02 0.239404113432176D+03 -.778263462671764D+03
0.511011069714D-04 0.000000000000D+00 0.000000000000D+00 0.279659521029D-06 0.000000000000D+00  6 2 2 25 2 2 21 0 0.90256667D-01 0.14057009D+00 0.26787199D+06 0.26787199D+06 0.26787199D+06 0.10882103D+01  1  2  2  2  6  2        2 0.121183745158D-02 0.100000000000D+01
0.769557136465D-05 0.000000000000D+00 -.196241706001D-06 0.279659521029D-06 0.000000000000D+00  6 2 2 25 2 2 21 2 0.90256667D-01 0.14057009D+00 0.26787199D+06 0.26787199D+06 0.26787199D+06 0.10882103D+01  1  2  3  2  6  2        2 0.216112861120D-03 0.100000000000D+01
-.369645682270D-04 0.000000000000D+00 0.000000000000D+00 0.279659521029D-06 0.000000000000D+00  6 2 2 25 2 2 21 2 0.90256667D-01 0.14057009D+00 0.26787199D+06 0.26787199D+06 0.26787199D+06 0.10882103D+01  1  2 15  2  6  2        2 -.103806698958D-02 0.100000000000D+01
-.271718396746D-03 0.000000000000D+00 -.286355055366D-04 0.279659521029D-06 0.000000000000D+00  6 2 2 25 2 2 21 2 0.90256667D-01 0.29899300D+00 0.26787199D+06 0.26787199D+06 0.26787199D+06 0.10882103D+01  1  2  5  2  6  2        2 -.198772191984D-02 0.100000000000D+01
-.204028100400D-04 0.000000000000D+00 -.233819163603D-05 0.279659521029D-06 0.000000000000D+00  6 2 21 25 2 2 -2 2 0.90256667D-01 0.29899300D+00 0.26787199D+06 0.26787199D+06 0.26787199D+06 0.10882103D+01  1  2  5  5  6  2        2 -.316596081843D-04 0.100000000000D+01
  </mgrwgt>
  </event>
  <event>
  5     66 0.18204334E-05 0.77373377E+02 0.75467711E-02 0.93560694E-01
        2 -1    0    0  501    0 0.00000000E+00 0.00000000E+00 0.44898792E+03 0.44898803E+03 0.32000000E+00 0.0000E+00 0.9000E+01
        2 -1    0    0  502    0 0.00000000E+00 0.00000000E+00 -.23337087E+04 0.23337088E+04 0.32000000E+00 0.0000E+00 0.9000E+01
       25  1    1    2    0    0 -.45237883E+03 0.11144322E+03 -.12810359E+03 0.49910092E+03 0.12500000E+03 0.0000E+00 0.9000E+01
        2  1    1    2  501    0 -.83132653E+01 0.76946252E+02 0.22629926E+03 0.23916792E+03 0.32000000E+00 0.0000E+00 0.9000E+01
        2  1    1    2  502    0 0.46069209E+03 -.18838947E+03 -.19829165E+04 0.20444280E+04 0.32000000E+00 0.0000E+00 0.9000E+01
#aMCatNLO 1  0  0  2  4 0.35124312D+02 0.00000000D+00  -5  6  0 0.00000000D+00 0.00000000D+00 0.00000000D+00 0.00000000D+00 0.00000000D+00
  <mgrwgt>
 0.1000490118D-01    9    2    0
 0.102362454772717D+04 0.000000000000000D+00 0.000000000000000D+00 0.102362454772717D+04
 0.102362454772717D+04 0.000000000000000D+00 0.000000000000000D+00 -.102362454772717D+04
 0.560587783314421D+03 -.452448552678435D+03 0.111487042788395D+03 0.285472606865991D+03
 0.533277110022419D+03 -.831104675802619D+01 0.769257171010159D+02 0.527634188263179D+03
 0.953384202117500D+03 0.460759599436461D+03 -.188412759889411D+03 -.813106795129170D+03
 0.000000000000000D+00 -.000000000000000D+00 -.000000000000000D+00 -.000000000000000D+00
 0.103214498509600D+04 0.000000000000000D+00 0.000000000000000D+00 0.103214498509600D+04
 0.106062548608159D+04 0.000000000000000D+00 0.000000000000000D+00 -.106062548608159D+04
 0.560118464418963D+03 -.449509811345882D+03 0.120640019960138D+03 0.285472606865991D+03
 0.534568621477722D+03 -.551091746964507D+01 0.856469744538075D+02 0.527634188263179D+03
 0.952863298382377D+03 0.465758204852578D+03 -.172844148675673D+03 -.813106795129170D+03
 0.452200868985264D+02 -.107374760370503D+02 -.334428457382727D+02 -.284805009855892D+02
0.473147394990D-03 0.000000000000D+00 0.000000000000D+00 0.337390309587D-05 0.000000000000D+00  6 2 2 25 2 2 21 0 0.69075075D-01 0.35903212D+00 0.27964190D+06 0.27964190D+06 0.27964190D+06 0.10868170D+01  1  2  2  2  6  2        2 0.240307916996D-02 0.100000000000D+01
0.111828876220D-03 0.000000000000D+00 -.181701057933D-05 0.337390309587D-05 0.000000000000D+00  6 2 2 25 2 2 21 2 0.69075075D-01 0.35903212D+00 0.27964190D+06 0.27964190D+06 0.27964190D+06 0.10868170D+01  1  2  3  2  6  2        2 0.670870146961D-03 0.100000000000D+01
-.332187507500D-03 0.000000000000D+00 0.000000000000D+00 0.337390309587D-05 0.000000000000D+00  6 2 2 25 2 2 21 2 0.69075075D-01 0.35903212D+00 0.27964190D+06 0.27964190D+06 0.27964190D+06 0.10868170D+01  1  2 15  2  6  2        2 -.199281875583D-02 0.100000000000D+01
0.839947869298D-09 0.000000000000D+00 0.000000000000D+00 0.337390309587D-05 0.000000000000D+00  6 2 2 25 2 2 21 2 0.69075075D-01 0.37486739D+00 0.30231017D+06 0.30231017D+06 0.30231017D+06 0.10843055D+01  1  2 12  2  6  2        2 0.436113929601D-08 0.100000000000D+01
-.300906691016D-03 0.000000000000D+00 0.000000000000D+00 0.337390309587D-05 0.000000000000D+00  6 2 2 25 2 2 21 2 0.69075075D-01 0.35903212D+00 0.27964190D+06 0.27964190D+06 0.27964190D+06 0.10868170D+01  1  2  4  2  6  2        2 -.180516269899D-02 0.100000000000D+01
-.153012814750D-01 0.000000000000D+00 -.214153394159D-02 0.337390309587D-05 0.000000000000D+00  6 2 2 25 2 2 21 2 0.69075075D-01 0.37309931D+00 0.27964190D+06 0.27964190D+06 0.27964190D+06 0.10868170D+01  1  2  5  2  6  2        2 -.814301704862D-01 0.100000000000D+01
0.153738116205D-01 0.000000000000D+00 0.213995330895D-02 0.337390309587D-05 0.000000000000D+00  6 2 2 25 2 2 21 2 0.69075075D-01 0.35903212D+00 0.27964190D+06 0.27964190D+06 0.27964190D+06 0.10868170D+01  1  2  6  2  6  2        2 0.922286945000D-01 0.100000000000D+01
0.177209506958D-10 0.000000000000D+00 0.000000000000D+00 0.337390309587D-05 0.000000000000D+00  6 2 21 25 2 2 -2 2 0.69075075D-01 0.37486739D+00 0.30231017D+06 0.30231017D+06 0.30231017D+06 0.10843055D+01  1  2 12  5  6  2        2 0.114846482033D-10 0.100000000000D+01
-.103045633902D-03 0.000000000000D+00 -.145801965282D-04 0.337390309587D-05 0.000000000000D+00  6 2 21 25 2 2 -2 2 0.69075075D-01 0.37309931D+00 0.27964190D+06 0.27964190D+06 0.27964190D+06 0.10868170D+01  1  2  5  5  6  2        2 -.695950669295D-04 0.100000000000D+01
  </mgrwgt>
  </event>
  <event>
  5     66 -.18204334E-05 0.33221076E+02 0.75467711E-02 0.94136662E-01
        2 -1    0    0  501    0 0.00000000E+00 0.00000000E+00 0.15487425E+04 0.15487425E+04 0.32000000E+00 0.0000E+00 0.9000E+01
        2 -1    0    0  502    0 -.00000000E+00 -.00000000E+00 -.16043567E+04 0.16043567E+04 0.32000000E+00 0.0000E+00 0.9000E+01
       25  1    1    2    0    0 -.47107188E+03 0.20388627E+03 -.80214712E+03 0.96049119E+03 0.12500000E+03 0.0000E+00 0.9000E+01
        2  1    1    2  501    0 0.33046237E+02 0.34087025E+01 0.13881510E+04 0.13885486E+04 0.32000000E+00 0.0000E+00 0.9000E+01
        2  1    1    2  502    0 0.43802564E+03 -.20729497E+03 -.64161813E+03 0.80405945E+03 0.32000000E+00 0.0000E+00 0.9000E+01
#aMCatNLO 1  0  0  5  2 0.39519133D+01 0.00000000D+00  -5  6  0 0.00000000D+00 0.00000000D+00 0.00000000D+00 0.00000000D+00 0.00000000D+00
  <mgrwgt>
 -.1854153118D+00    6    2    0
 0.157630435246195D+04 0.000000000000000D+00 0.000000000000000D+00 0.157630435246195D+04
 0.157630435246195D+04 -.000000000000000D+00 -.000000000000000D+00 -.157630435246195D+04
 0.946495692792896D+03 -.471102189150587D+03 0.203900122902677D+03 -.785313035504505D+03
 0.141323128607085D+04 0.330457407257501D+02 0.340865132688664D+01 0.141284076528302D+04
 0.792881726060147D+03 0.438056448424837D+03 -.207308774229564D+03 -.627527729778511D+03
 0.000000000000000D+00 0.000000000000000D+00 0.000000000000000D+00 -.000000000000000D+00
 0.157630435246195D+04 0.000000000000000D+00 0.000000000000000D+00 0.157630435246195D+04
 0.157630435246195D+04 -.000000000000000D+00 -.000000000000000D+00 -.157630435246195D+04
 0.947006565267046D+03 -.470236643856288D+03 0.203490506437387D+03 -.786552952587121D+03
 0.141141162263767D+04 0.343369229080275D+02 0.279760360352250D+01 0.141099111182742D+04
 0.631766593369677D+03 0.376404501962669D+03 -.172822010726350D+03 -.477054747391390D+03
 0.162423923649505D+03 0.594952189855914D+02 -.334660993145589D+02 -.147383411848908D+03
0.853400059950D-03 0.000000000000D+00 0.000000000000D+00 0.226363537144D-04 0.000000000000D+00  6 2 2 25 2 2 21 0 0.23826808D+00 0.24682411D+00 0.27362839D+06 0.27362839D+06 0.27362839D+06 0.10875207D+01  1  2  2  3  6  5        2 0.197774569515D-02 0.100000000000D+01
0.575318548866D-03 0.000000000000D+00 -.327728093560D-05 0.226363537144D-04 0.000000000000D+00  6 2 2 25 2 2 21 2 0.23826808D+00 0.24682411D+00 0.27362839D+06 0.27362839D+06 0.27362839D+06 0.10875207D+01  1  2  3  3  6  5        2 0.157688942456D-02 0.100000000000D+01
-.565705946296D-03 0.000000000000D+00 0.000000000000D+00 0.226363537144D-04 0.000000000000D+00  6 2 2 25 2 2 21 2 0.23826808D+00 0.24682411D+00 0.27362839D+06 0.27362839D+06 0.27362839D+06 0.10875207D+01  1  2 15  3  6  5        2 -.155054226199D-02 0.100000000000D+01
-.736581315463D-01 0.000000000000D+00 0.000000000000D+00 0.226363537144D-04 0.000000000000D+00  6 2 2 25 2 2 21 2 0.23826808D+00 0.24682411D+00 0.27362839D+06 0.27362839D+06 0.27362839D+06 0.10875207D+01  1  2  4  3  6  5        2 -.201889420908D+00 0.100000000000D+01
-.234327692602D-01 0.000000000000D+00 0.000000000000D+00 0.226363537144D-04 0.000000000000D+00  6 2 2 25 2 2 21 2 0.23826808D+00 0.24682411D+00 0.27362839D+06 0.27362839D+06 0.27362839D+06 0.10875207D+01  1  2  5  3  6  5        2 -.642268289582D-01 0.100000000000D+01
0.287120669725D-01 0.000000000000D+00 -.000000000000D+00 0.226363537144D-04 0.000000000000D+00  6 2 2 25 2 2 21 2 0.23826808D+00 0.24682411D+00 0.27362839D+06 0.27362839D+06 0.27362839D+06 0.10875207D+01  1  2  6  3  6  5        2 0.786968451745D-01 0.100000000000D+01
  </mgrwgt>
  </event>
  <event>
  5     66 0.18204334E-05 0.16304824E+03 0.75467711E-02 0.87334585E-01
        2 -1    0    0  501    0 0.00000000E+00 0.00000000E+00 0.12411802E+04 0.12411802E+04 0.32000000E+00 0.0000E+00 0.9000E+01
        2 -1    0    0  502    0 -.00000000E+00 -.00000000E+00 -.36925952E+04 0.36925952E+04 0.32000000E+00 0.0000E+00 0.9000E+01
       25  1    1    2    0    0 -.45237380E+03 -.84451976E+03 -.58276211E+01 0.96618561E+03 0.12500000E+03 0.0000E+00 0.9000E+01
        2  1    1    2  501    0 -.12513457E+03 0.10455652E+03 0.68249824E+03 0.70170839E+03 0.32000000E+00 0.0000E+00 0.9000E+01
        2  1    1    2  502    0 0.57750837E+03 0.73996324E+03 -.31280857E+04 0.32658814E+04 0.32000000E+00 0.0000E+00 0.9000E+01
#aMCatNLO 1  0  0  5  2 0.50638098D+02 0.00000000D+00  -5  6  0 0.00000000D+00 0.00000000D+00 0.00000000D+00 0.00000000D+00 0.00000000D+00
  <mgrwgt>
 0.1344574991D-03    4    2    0
 0.214083536900162D+04 0.000000000000000D+00 0.000000000000000D+00 0.214083536900162D+04
 0.214083536900162D+04 -.000000000000000D+00 -.000000000000000D+00 -.214083536900162D+04
 0.111011517118669D+04 -.452426692741146D+03 -.844563791294453D+03 0.546582823942086D+03
 0.119919975639594D+04 -.125120452475048D+03 0.104544727582464D+03 0.118806368854840D+04
 0.197235581042061D+04 0.577547145216194D+03 0.740019063711989D+03 -.173464651249049D+04
 0.000000000000000D+00 0.000000000000000D+00 0.000000000000000D+00 -.000000000000000D+00
 0.214083536900162D+04 0.000000000000000D+00 0.000000000000000D+00 0.214083536900162D+04
 0.214083536900162D+04 -.000000000000000D+00 -.000000000000000D+00 -.214083536900162D+04
 0.107511261300282D+04 -.440107255881164D+03 -.828778728194244D+03 0.509581743836296D+03
 0.115994035625931D+04 -.111820567734434D+03 0.121586051974332D+03 0.114811786096891D+04
 0.246925340760478D+03 0.151320073889799D+03 0.194084949775798D+03 0.201343343120652D+02
 0.179969242798063D+04 0.400607749725799D+03 0.513107726444115D+03 -.167783393911727D+04
0.317208276399D-02 0.000000000000D+00 0.000000000000D+00 0.716358760003D-06 0.000000000000D+00  6 2 2 25 2 2 21 0 0.19095080D+00 0.56809157D+00 0.10691520D+07 0.10691520D+07 0.10691520D+07 0.10459364D+01  1  2  2  3  6  5        2 0.503820411411D-03 0.100000000000D+01
0.744571471806D-03 0.000000000000D+00 -.121816330423D-04 0.716358760003D-06 0.000000000000D+00  6 2 2 25 2 2 21 2 0.19095080D+00 0.56809157D+00 0.10691520D+07 0.10691520D+07 0.10691520D+07 0.10459364D+01  1  2  3  3  6  5        2 0.129374342070D-03 0.100000000000D+01
-.219191421522D-02 0.000000000000D+00 0.000000000000D+00 0.716358760003D-06 0.000000000000D+00  6 2 2 25 2 2 21 2 0.19095080D+00 0.56809157D+00 0.10691520D+07 0.10691520D+07 0.10691520D+07 0.10459364D+01  1  2 15  3  6  5        2 -.380859957983D-03 0.100000000000D+01
-.678404007146D-03 0.000000000000D+00 0.000000000000D+00 0.716358760003D-06 0.000000000000D+00  6 2 2 25 2 2 21 2 0.19095080D+00 0.56809157D+00 0.10691520D+07 0.10691520D+07 0.10691520D+07 0.10459364D+01  1  2  5  3  6  5        2 -.117877296412D-03 0.100000000000D+01
  </mgrwgt>
  </event>
  <event>
  5     66 -.18204334E-05 0.19792566E+02 0.75467711E-02 0.93482550E-01
        2 -1    0    0  501    0 0.00000000E+00 0.00000000E+00 0.47089372E+03 0.47089383E+03 0.32000000E+00 0.0000E+00 0.9000E+01
        2 -1    0    0  502    0 0.00000000E+00 0.00000000E+00 -.24172773E+04 0.24172773E+04 0.32000000E+00 0.0000E+00 0.9000E+01
       25  1    1    2    0    0 -.16361039E+03 0.48467239E+03 -.10598729E+04 0.11834827E+04 0.12500000E+03 0.0000E+00 0.9000E+01
        2  1    1    2  501    0 0.17403352E+03 -.50149822E+03 0.23676021E+03 0.58124317E+03 0.32000000E+00 0.0000E+00 0.9000E+01
        2  1    1    2  502    0 -.10423128E+02 0.16825826E+02 -.11232708E+04 0.11234453E+04 0.32000000E+00 0.0000E+00 0.9000E+01
#aMCatNLO 1  0  0  1  2 0.31953831D+02 0.00000000D+00  -5  6  0 0.00000000D+00 0.00000000D+00 0.00000000D+00 0.00000000D+00 0.00000000D+00
  <mgrwgt>
 -.9129149740D-02    7    2    0
 0.106690247347681D+04 0.000000000000000D+00 0.000000000000000D+00 0.106690247347681D+04
 0.106690247347681D+04 0.000000000000000D+00 0.000000000000000D+00 -.106690247347681D+04
 0.635099236168027D+03 -.163610321363731D+03 0.484672263521398D+03 -.355035912968693D+03
 0.100269464421949D+04 0.174033431142081D+03 -.501497971039980D+03 0.850651926133210D+03
 0.496011066566104D+03 -.104231097783501D+02 0.168257075185826D+02 -.495616013164518D+03
 0.000000000000000D+00 -.000000000000000D+00 0.000000000000000D+00 0.000000000000000D+00
 0.115101388882503D+04 0.000000000000000D+00 0.000000000000000D+00 0.115101388882503D+04
 0.107006122254452D+04 0.000000000000000D+00 0.000000000000000D+00 -.107006122254452D+04
 0.628244090273620D+03 -.157046823197043D+03 0.477861311250380D+03 -.355035912968693D+03
 0.101002316051441D+04 0.184490184539940D+03 -.512348960328603D+03 0.850651926133210D+03
 0.495776937831439D+03 -.527043384904323D+01 0.114787676808219D+02 -.495616013164518D+03
 0.870309227500768D+02 -.221729274938536D+02 0.230088813974013D+02 0.809526662805028D+02
0.195229432471D-03 0.000000000000D+00 0.000000000000D+00 0.132459772545D-04 0.000000000000D+00  6 2 2 25 2 2 21 0 0.72445198D-01 0.37188883D+00 0.29010226D+06 0.29010226D+06 0.29010226D+06 0.10856315D+01  1  2  2  1  6  1        2 0.840562023681D-03 0.100000000000D+01
0.133043528110D-03 0.000000000000D+00 -.749732425780D-06 0.132459772545D-04 0.000000000000D+00  6 2 2 25 2 2 21 2 0.72445198D-01 0.37188883D+00 0.29010226D+06 0.29010226D+06 0.29010226D+06 0.10856315D+01  1  2  3  1  6  1        2 0.675123274449D-03 0.100000000000D+01
-.146734833813D-03 0.000000000000D+00 0.000000000000D+00 0.132459772545D-04 0.000000000000D+00  6 2 2 25 2 2 21 2 0.72445198D-01 0.37188883D+00 0.29010226D+06 0.29010226D+06 0.29010226D+06 0.10856315D+01  1  2 15  1  6  1        2 -.744599176573D-03 0.100000000000D+01
-.261468294005D-02 0.000000000000D+00 0.000000000000D+00 0.132459772545D-04 0.000000000000D+00  6 2 2 25 2 2 21 2 0.72445198D-01 0.37188883D+00 0.29010226D+06 0.29010226D+06 0.29010226D+06 0.10856315D+01  1  2  4  1  6  1        2 -.132680885211D-01 0.100000000000D+01
-.103691902946D-01 0.000000000000D+00 -.637056519937D-03 0.132459772545D-04 0.000000000000D+00  6 2 2 25 2 2 21 2 0.78273620D-01 0.37188883D+00 0.29010226D+06 0.29010226D+06 0.29010226D+06 0.10856315D+01  1  2  5  1  6  1        2 -.482056473533D-01 0.100000000000D+01
0.103892689404D-01 0.000000000000D+00 0.635154013784D-03 0.132459772545D-04 0.000000000000D+00  6 2 2 25 2 2 21 2 0.72445198D-01 0.37188883D+00 0.29010226D+06 0.29010226D+06 0.29010226D+06 0.10856315D+01  1  2  6  1  6  1        2 0.527198681951D-01 0.100000000000D+01
-.134185513120D-03 0.000000000000D+00 -.826060932535D-05 0.132459772545D-04 0.000000000000D+00  6 21 2 25 2 2 -2 2 0.78273620D-01 0.37188883D+00 0.29010226D+06 0.29010226D+06 0.29010226D+06 0.10856315D+01  1  2  5  4  6  1        2 -.114636818190D-02 0.100000000000D+01
  </mgrwgt>
  </event>
  <event>
  5     66 0.18204334E-05 0.60328215E+02 0.75467711E-02 0.93488289E-01
        2 -1    0    0  501    0 0.00000000E+00 0.00000000E+00 0.22587224E+04 0.22587224E+04 0.32000000E+00 0.0000E+00 0.9000E+01
        2 -1    0    0  502    0 0.00000000E+00 0.00000000E+00 -.56175941E+03 0.56175950E+03 0.32000000E+00 0.0000E+00 0.9000E+01
       25  1    1    2    0    0 0.45208953E+03 0.22801783E+03 0.38627915E+03 0.64900975E+03 0.12500000E+03 0.0000E+00 0.9000E+01
        2  1    1    2  501    0 -.15001975E+02 0.58439647E+02 0.15816548E+04 0.15828052E+04 0.32000000E+00 0.0000E+00 0.9000E+01
        2  1    1    2  502    0 -.43708755E+03 -.28645748E+03 -.27097098E+03 0.58866696E+03 0.32000000E+00 0.0000E+00 0.9000E+01
#aMCatNLO 1  0  0  1  2 0.32871691D+01 0.00000000D+00  -5  6  0 0.00000000D+00 0.00000000D+00 0.00000000D+00 0.00000000D+00 0.00000000D+00
  <mgrwgt>
 0.1362378536D-01   10    2    0
 0.112643628752604D+04 0.000000000000000D+00 0.000000000000000D+00 0.112643628752604D+04
 0.112643628752604D+04 0.000000000000000D+00 0.000000000000000D+00 -.112643628752604D+04
 0.521627761193799D+03 0.452143419523771D+03 0.228056626017124D+03 -.519853432150853D+01
 0.790137115718719D+03 -.150004125867220D+02 0.584335617418020D+02 0.787830672239087D+03
 0.941107698139564D+03 -.437143006937049D+03 -.286490187758926D+03 -.782632137917578D+03
 0.000000000000000D+00 -.000000000000000D+00 0.000000000000000D+00 0.000000000000000D+00
 0.112861249235839D+04 0.000000000000000D+00 0.000000000000000D+00 0.112861249235839D+04
 0.112767949262693D+04 0.000000000000000D+00 0.000000000000000D+00 -.112767949262693D+04
 0.522049210265085D+03 0.452812501730240D+03 0.227693195893308D+03 -.519853432150853D+01
 0.790078028224281D+03 -.139873655768535D+02 0.578832978180739D+02 0.787830672239087D+03
 0.940747734717712D+03 -.435936583858161D+03 -.287145489132503D+03 -.782632137917578D+03
 0.341701177824453D+01 -.288855229522539D+01 0.156899542112143D+01 0.932999731462964D+00
0.433611175359D-03 0.000000000000D+00 0.000000000000D+00 0.830911750866D-05 0.000000000000D+00  6 2 2 25 2 2 21 0 0.34749576D+00 0.86424533D-01 0.30502831D+06 0.30502831D+06 0.30502831D+06 0.10840182D+01  1  2  2  1  6  1        2 0.187143907807D-02 0.100000000000D+01
0.172923144821D-03 0.000000000000D+00 -.166518108582D-05 0.830911750866D-05 0.000000000000D+00  6 2 2 25 2 2 21 2 0.34749576D+00 0.86424533D-01 0.30502831D+06 0.30502831D+06 0.30502831D+06 0.10840182D+01  1  2  3  1  6  1        2 0.877003825777D-03 0.100000000000D+01
-.335301574574D-03 0.000000000000D+00 0.000000000000D+00 0.830911750866D-05 0.000000000000D+00  6 2 2 25 2 2 21 2 0.34749576D+00 0.86424533D-01 0.30502831D+06 0.30502831D+06 0.30502831D+06 0.10840182D+01  1  2 15  1  6  1        2 -.170052865968D-02 0.100000000000D+01
-.101591617425D-02 0.000000000000D+00 0.000000000000D+00 0.830911750866D-05 0.000000000000D+00  6 2 2 25 2 2 21 2 0.34749576D+00 0.86424533D-01 0.30502831D+06 0.30502831D+06 0.30502831D+06 0.10840182D+01  1  2  4  1  6  1        2 -.515236044548D-02 0.100000000000D+01
-.348016189427D+00 0.000000000000D+00 -.307540288193D-01 0.830911750866D-05 0.000000000000D+00  6 2 2 25 2 2 21 2 0.34833272D+00 0.86424533D-01 0.30502831D+06 0.30502831D+06 0.30502831D+06 0.10840182D+01  1  2  5  1  6  1        2 -.175263868255D+01 0.100000000000D+01
0.348089255064D+00 0.000000000000D+00 0.307539398293D-01 0.830911750866D-05 0.000000000000D+00  6 2 2 25 2 2 21 2 0.34749576D+00 0.86424533D-01 0.30502831D+06 0.30502831D+06 0.30502831D+06 0.10840182D+01  1  2  6  1  6  1        2 0.176538316325D+01 0.100000000000D+01
0.101209832256D-02 0.000000000000D+00 0.000000000000D+00 0.830911750866D-05 0.314973095733D-06  6 2 2 25 2 2 21 2 0.34816710D+00 0.86519917D-01 0.30628956D+06 0.30628956D+06 0.30628956D+06 0.10838858D+01  1  2 11  1  6  1        2 0.509503147179D-02 0.100000000000D+01
0.652202819010D-13 0.000000000000D+00 0.000000000000D+00 0.830911750866D-05 0.000000000000D+00  6 21 2 25 2 2 -2 2 0.34841741D+00 0.86424533D-01 0.30628956D+06 0.30628956D+06 0.30628956D+06 0.10838858D+01  1  2 12  4  6  1        2 0.490574838557D-13 0.100000000000D+01
-.156345446182D-03 0.000000000000D+00 -.138220546700D-04 0.830911750866D-05 0.000000000000D+00  6 21 2 25 2 2 -2 2 0.34833272D+00 0.86424533D-01 0.30502831D+06 0.30502831D+06 0.30502831D+06 0.10840182D+01  1  2  5  4  6  1        2 -.117838958079D-03 0.100000000000D+01
0.869695901763D-05 0.000000000000D+00 0.000000000000D+00 0.830911750866D-05 0.140396619023D-08  6 21 2 25 2 2 -2 2 0.34816710D+00 0.86519917D-01 0.30628956D+06 0.30628956D+06 0.30628956D+06 0.10838858D+01  1  2 11  4  6  1        2 0.655835138719D-05 0.100000000000D+01
  </mgrwgt>
  </event>
  <event>
  5     66 -.18204334E-05 0.59690408E+02 0.75467711E-02 0.94875588E-01
        2 -1    0    0  501    0 0.00000000E+00 0.00000000E+00 0.59142044E+03 0.59142053E+03 0.32000000E+00 0.0000E+00 0.9000E+01
        2 -1    0    0  502    0 -.00000000E+00 -.00000000E+00 -.12162979E+04 0.12162980E+04 0.32000000E+00 0.0000E+00 0.9000E+01
       25  1    1    2    0    0 -.42806113E+03 -.21305582E+03 -.24485667E+03 0.55155136E+03 0.12500000E+03 0.0000E+00 0.9000E+01
        2  1    1    2  501    0 0.38902209E+03 0.16791243E+03 0.33408032E+03 0.53957625E+03 0.32000000E+00 0.0000E+00 0.9000E+01
        2  1    1    2  502    0 0.39039041E+02 0.45143384E+02 -.71410115E+03 0.71659091E+03 0.32000000E+00 0.0000E+00 0.9000E+01
#aMCatNLO 1  0  0  5  2 0.55718658D+01 0.00000000D+00  -5  6  0 0.00000000D+00 0.00000000D+00 0.00000000D+00 0.00000000D+00 0.00000000D+00
  <mgrwgt>
 -.2196459271D-01    9    2    0
 0.848141251689827D+03 0.000000000000000D+00 0.000000000000000D+00 0.848141251689827D+03
 0.848141251689827D+03 -.000000000000000D+00 -.000000000000000D+00 -.848141251689827D+03
 0.497561179612341D+03 -.428046839135149D+03 -.213053230186901D+03 -.576745357203604D+02
 0.698056329279323D+03 0.389002247210766D+03 0.167903870660402D+03 0.554768583040849D+03
 0.500664994487990D+03 0.390445919243824D+02 0.451493595264992D+02 -.497094047320489D+03
 0.000000000000000D+00 0.000000000000000D+00 0.000000000000000D+00 -.000000000000000D+00
 0.848141251689827D+03 0.000000000000000D+00 0.000000000000000D+00 0.848141251689827D+03
 0.848141251689827D+03 -.000000000000000D+00 -.000000000000000D+00 -.848141251689827D+03
 0.497561762946231D+03 -.428042022947277D+03 -.213047660970090D+03 -.577358527479882D+02
 0.697993612437158D+03 0.389009003801847D+03 0.167911683669703D+03 0.554682561877850D+03
 0.899491089284474D+02 0.125378788346410D+02 0.850642662973334D+01 -.886638849664425D+02
 0.410778019067817D+03 0.264951403107896D+02 0.366295506706530D+02 -.408282824163419D+03
0.208285528615D-04 0.000000000000D+00 0.000000000000D+00 0.391209690454D-05 0.000000000000D+00  6 2 2 25 2 2 21 0 0.90987770D-01 0.18712277D+00 0.23892011D+06 0.23892011D+06 0.23892011D+06 0.10919433D+01  1  2  2  3  6  5        2 0.322125143628D-03 0.100000000000D+01
0.664802983513D-05 0.000000000000D+00 -.799871272719D-07 0.391209690454D-05 0.000000000000D+00  6 2 2 25 2 2 21 2 0.90987770D-01 0.18712277D+00 0.23892011D+06 0.23892011D+06 0.23892011D+06 0.10919433D+01  1  2  3  3  6  5        2 0.122591015652D-03 0.100000000000D+01
-.140298308406D-04 0.000000000000D+00 0.000000000000D+00 0.391209690454D-05 0.000000000000D+00  6 2 2 25 2 2 21 2 0.90987770D-01 0.18712277D+00 0.23892011D+06 0.23892011D+06 0.23892011D+06 0.10919433D+01  1  2 15  3  6  5        2 -.258712920194D-03 0.100000000000D+01
0.791457458925D-03 0.000000000000D+00 0.000000000000D+00 0.391209690454D-05 0.000000000000D+00  6 2 2 25 2 2 21 2 0.90987770D-01 0.18712277D+00 0.23924818D+06 0.23924818D+06 0.23924818D+06 0.10918983D+01  1  2 12  3  6  5        2 0.145926329414D-01 0.100000000000D+01
0.589055448543D-09 0.000000000000D+00 0.000000000000D+00 0.391209690454D-05 0.000000000000D+00  6 2 2 25 2 2 21 2 0.90987770D-01 0.18712277D+00 0.23924818D+06 0.23924818D+06 0.23924818D+06 0.10918983D+01  1  2 12  3  6  5        2 0.108608110844D-07 0.100000000000D+01
-.372305886350D-02 0.000000000000D+00 0.000000000000D+00 0.391209690454D-05 0.000000000000D+00  6 2 2 25 2 2 21 2 0.90987770D-01 0.18712277D+00 0.23892011D+06 0.23892011D+06 0.23892011D+06 0.10919433D+01  1  2  4  3  6  5        2 -.686539589516D-01 0.100000000000D+01
-.127295749657D-02 0.000000000000D+00 0.000000000000D+00 0.391209690454D-05 0.000000000000D+00  6 2 2 25 2 2 21 2 0.90987770D-01 0.18712277D+00 0.23892011D+06 0.23892011D+06 0.23892011D+06 0.10919433D+01  1  2  5  3  6  5        2 -.234735938702D-01 0.100000000000D+01
0.246641532961D-02 0.000000000000D+00 -.000000000000D+00 0.391209690454D-05 0.000000000000D+00  6 2 2 25 2 2 21 2 0.90987770D-01 0.18712277D+00 0.23892011D+06 0.23892011D+06 0.23892011D+06 0.10919433D+01  1  2  6  3  6  5        2 0.454811978550D-01 0.100000000000D+01
0.537113105818D-03 0.000000000000D+00 0.000000000000D+00 0.391209690454D-05 0.861179015258D-07  6 2 2 25 2 2 21 2 0.90987770D-01 0.18712277D+00 0.23924818D+06 0.23924818D+06 0.23924818D+06 0.10918983D+01  1  2 11  3  6  5        2 0.990311521214D-02 0.100000000000D+01
  </mgrwgt>
  </event>
  <event>
  5     66 0.18204334E-05 0.54153941E+02 0.75467711E-02 0.91063414E-01
        2 -1    0    0  501    0 0.00000000E+00 0.00000000E+00 0.27465463E+04 0.27465464E+04 0.32000000E+00 0.0000E+00 0.9000E+01
        2 -1    0    0  502    0 0.00000000E+00 0.00000000E+00 -.97054932E+03 0.97054937E+03 0.32000000E+00 0.0000E+00 0.9000E+01
       25  1    1    2    0    0 -.51415155E+03 0.39997112E+03 -.36575857E+03 0.75745167E+03 0.12500000E+03 0.0000E+00 0.9000E+01
        2  1    1    2  501    0 0.55099298E+03 -.36027738E+03 0.25061876E+04 0.25912100E+04 0.32000000E+00 0.0000E+00 0.9000E+01
        2  1    1    2  502    0 -.36841431E+02 -.39693736E+02 -.36443198E+03 0.36843406E+03 0.32000000E+00 0.0000E+00 0.9000E+01
#aMCatNLO 1  0  0  5  1 0.17109043D+02 0.00000000D+00  -5  6  0 0.00000000D+00 0.00000000D+00 0.00000000D+00 0.00000000D+00 0.00000000D+00
  <mgrwgt>
 0.8442876537D-03    7    2    0
 0.163268454279719D+04 0.000000000000000D+00 0.000000000000000D+00 0.163268454279719D+04
 0.163268454279719D+04 -.000000000000000D+00 -.000000000000000D+00 -.163268454279719D+04
 0.106119504244340D+04 -.514154178694752D+03 0.399970285009267D+03 -.828359324053744D+03
 0.158659090935049D+04 0.550994152694094D+03 -.360278149208445D+03 0.144356358104986D+04
 0.617583133800495D+03 -.368399739993422D+02 -.396921358008226D+02 -.615204256996111D+03
 0.000000000000000D+00 0.000000000000000D+00 -.000000000000000D+00 0.000000000000000D+00
 0.163268454279719D+04 0.000000000000000D+00 0.000000000000000D+00 0.163268454279719D+04
 0.163268454279719D+04 -.000000000000000D+00 -.000000000000000D+00 -.163268454279719D+04
 0.106197938078615D+04 -.514213974865428D+03 0.399905859401180D+03 -.829357882270761D+03
 0.158522458928625D+04 0.550904823047489D+03 -.360374394782998D+03 0.144207183247076D+04
 0.564904083847964D+03 -.404340157871623D+02 -.205811937380013D+02 -.563079149658154D+03
 0.532610316740177D+02 0.374316760510100D+01 -.189502708801808D+02 -.496348005418438D+02
0.148691189443D-03 0.000000000000D+00 0.000000000000D+00 0.996228276260D-05 0.000000000000D+00  6 2 2 25 2 2 21 0 0.42254560D+00 0.14931529D+00 0.47318776D+06 0.47318776D+06 0.47318776D+06 0.10702062D+01  1  2  2  3  6  5        2 0.161939034375D-03 0.100000000000D+01
0.485904992702D-04 0.000000000000D+00 -.571013318750D-06 0.996228276260D-05 0.000000000000D+00  6 2 2 25 2 2 21 2 0.42254560D+00 0.14931529D+00 0.47318776D+06 0.47318776D+06 0.47318776D+06 0.10702062D+01  1  2  3  3  6  5        2 0.606111624494D-04 0.100000000000D+01
-.109793705448D-03 0.000000000000D+00 0.000000000000D+00 0.996228276260D-05 0.000000000000D+00  6 2 2 25 2 2 21 2 0.42254560D+00 0.14931529D+00 0.47318776D+06 0.47318776D+06 0.47318776D+06 0.10702062D+01  1  2 15  3  6  5        2 -.136955252916D-03 0.100000000000D+01
0.369284780844D-10 0.000000000000D+00 0.000000000000D+00 0.996228276260D-05 0.000000000000D+00  6 2 2 25 2 2 21 2 0.42254560D+00 0.14931529D+00 0.48045099D+06 0.48045099D+06 0.48045099D+06 0.10697367D+01  1  2 12  3  6  5        2 0.459666212442D-10 0.100000000000D+01
-.697167051503D-04 0.000000000000D+00 0.000000000000D+00 0.996228276260D-05 0.000000000000D+00  6 2 2 25 2 2 21 2 0.42254560D+00 0.14931529D+00 0.47318776D+06 0.47318776D+06 0.47318776D+06 0.10702062D+01  1  2  4  3  6  5        2 -.869637193436D-04 0.100000000000D+01
-.551348534758D-02 0.000000000000D+00 0.000000000000D+00 0.996228276260D-05 0.000000000000D+00  6 2 2 25 2 2 21 2 0.42254560D+00 0.14931529D+00 0.47318776D+06 0.47318776D+06 0.47318776D+06 0.10702062D+01  1  2  5  3  6  5        2 -.687745055275D-02 0.100000000000D+01
0.619142756493D-02 0.000000000000D+00 -.000000000000D+00 0.996228276260D-05 0.000000000000D+00  6 2 2 25 2 2 21 2 0.42254560D+00 0.14931529D+00 0.47318776D+06 0.47318776D+06 0.47318776D+06 0.10702062D+01  1  2  6  3  6  5        2 0.772310693587D-02 0.100000000000D+01
  </mgrwgt>
  </event>
  <event>
  6     66 -.18204334E-05 0.40310711E+02 0.75467711E-02 0.94296982E-01
        2 -1    0    0  501    0 0.00000000E+00 0.00000000E+00 0.25032982E+04 0.25032982E+04 0.32000000E+00 0.0000E+00 0.9000E+01
        2 -1    0    0  503    0 0.00000000E+00 0.00000000E+00 -.15079035E+04 0.15079035E+04 0.32000000E+00 0.0000E+00 0.9000E+01
       25  1    1    2    0    0 0.24859739E+03 0.38307049E+03 -.63797151E+02 0.47774338E+03 0.12500000E+03 0.0000E+00 0.9000E+01
        2  1    1    2  501    0 -.42970404E+02 0.36345062E+02 0.22363086E+04 0.22370167E+04 0.32000000E+00 0.0000E+00 0.9000E+01
        2  1    1    2  502    0 -.23411146E+03 -.40497332E+03 -.87099649E+03 0.98865897E+03 0.32000000E+00 0.0000E+00 0.9000E+01
       21  1    1    2  503  502 0.28484473E+02 -.14442227E+02 -.30612029E+03 0.30778261E+03 0.75000000E+00 0.0000E+00 0.9000E+01
#aMCatNLO 2  0  0  2  5 0.31936549D+02 0.00000000D+00  -5  6  0 0.00000000D+00 0.00000000D+00 0.00000000D+00 0.00000000D+00 0.00000000D+00
  <mgrwgt>
 -.7388851440D-01    3    2    0
 0.173351893682941D+04 0.000000000000000D+00 0.000000000000000D+00 0.173351893682941D+04
 0.173351893682941D+04 0.000000000000000D+00 0.000000000000000D+00 -.173351893682941D+04
 0.534728567513865D+03 0.253002970342373D+03 0.380870694033004D+03 -.247460405600946D+03
 0.154950473864884D+04 -.302378140931805D+02 0.298891524293514D+02 0.154892131764694D+04
 0.138280456749611D+04 -.222765156249192D+03 -.410759846462355D+03 -.130146091204599D+04
 0.000000000000000D+00 0.000000000000000D+00 -.000000000000000D+00 -.000000000000000D+00
 0.173416795448209D+04 0.000000000000000D+00 0.000000000000000D+00 0.173416795448209D+04
 0.217668115759556D+04 0.000000000000000D+00 0.000000000000000D+00 -.217668115759556D+04
 0.534259180405643D+03 0.248611771243134D+03 0.383097124378240D+03 -.247460405600946D+03
 0.154994340942338D+04 -.429697597515292D+02 0.363445167904359D+02 0.154892131764694D+04
 0.138298237214542D+04 -.234126484890869D+03 -.404999413769968D+03 -.130146091204599D+04
 0.443664150103214D+03 0.284844733992648D+02 -.144422273987085D+02 -.442513203113464D+03
-.302938382946D+00 0.000000000000D+00 0.000000000000D+00 0.161933091090D-03 0.000000000000D+00  6 2 2 25 2 2 21 2 0.38497860D+00 0.23360502D+00 0.26497387D+06 0.26497387D+06 0.26497387D+06 0.10885637D+01  1  2 13  2  6  2        2 -.275829748914D+00 0.100000000000D+01
-.210579896108D-09 0.000000000000D+00 0.000000000000D+00 0.161933091090D-03 0.000000000000D+00  6 2 2 25 2 2 21 2 0.38497860D+00 0.23201835D+00 0.26497387D+06 0.26497387D+06 0.26497387D+06 0.10885637D+01  1  2 13  2  6  2        2 -.194250457225D-09 0.100000000000D+01
0.219130602878D+00 0.000000000000D+00 0.000000000000D+00 0.161933091090D-03 0.727977800235D-06  6 2 2 25 2 2 21 2 0.38512273D+00 0.23198511D+00 0.26497387D+06 0.26497387D+06 0.26497387D+06 0.10885637D+01  1  2  1  2  6  2        2 0.201941234705D+00 0.100000000000D+01
  </mgrwgt>
  </event>
  <event>
  6     66 -.18204334E-05 0.18118428E+03 0.75467711E-02 0.95264465E-01
        2 -1    0    0  501    0 0.00000000E+00 0.00000000E+00 0.11356341E+04 0.11356342E+04 0.32000000E+00 0.0000E+00 0.9000E+01
        2 -1    0    0  502    0 -.00000000E+00 -.00000000E+00 -.17311753E+04 0.17311754E+04 0.32000000E+00 0.0000E+00 0.9000E+01
       25  1    1    2    0    0 0.11099193E+03 -.44319331E+03 -.17128149E+03 0.50368827E+03 0.12500000E+03 0.0000E+00 0.9000E+01
        2  1    1    2  501    0 0.99031992E+01 0.19792237E+03 0.94540973E+03 0.96595601E+03 0.32000000E+00 0.0000E+00 0.9000E+01
        2  1    1    2  503    0 -.51321913E+02 0.11843399E+03 -.73183192E+03 0.74312759E+03 0.32000000E+00 0.0000E+00 0.9000E+01
       21  1    1    2  502  503 -.69573217E+02 0.12683695E+03 -.63783752E+03 0.65403770E+03 0.75000000E+00 0.0000E+00 0.9000E+01
#aMCatNLO 2  0  0  5  2 0.17999808D+02 0.00000000D+00  -5  6  0 0.00000000D+00 0.00000000D+00 0.00000000D+00 0.00000000D+00 0.00000000D+00
  <mgrwgt>
 -.1951936971D-02    3    2    0
 0.140213477976617D+04 0.000000000000000D+00 0.000000000000000D+00 0.140213477976617D+04
 0.140213477976617D+04 -.000000000000000D+00 -.000000000000000D+00 -.140213477976617D+04
 0.478557436865342D+03 0.111004663437887D+03 -.443218372889102D+03 -.680268991480864D+02
 0.118849075640389D+04 0.992893442835448D+01 0.197868777253474D+03 0.117186161354779D+04
 0.113722136626310D+04 -.120933597866241D+03 0.245349595635627D+03 -.110383471439970D+04
 0.000000000000000D+00 -.000000000000000D+00 0.000000000000000D+00 0.000000000000000D+00
 0.140213477976617D+04 0.000000000000000D+00 0.000000000000000D+00 0.140213477976617D+04
 0.140213477976617D+04 -.000000000000000D+00 -.000000000000000D+00 -.140213477976617D+04
 0.478549002012796D+03 0.110994282022335D+03 -.443197311115097D+03 -.681216566602524D+02
 0.118826723587904D+04 0.990315452406947D+01 0.197921079419319D+03 0.117162630463624D+04
 0.603820540815494D+03 -.512764159122678D+02 0.118339046449049D+03 -.589886298168925D+03
 0.533632780825009D+03 -.696210206341361D+02 0.126937185246728D+03 -.513618349807064D+03
-.215328729616D-02 0.000000000000D+00 0.000000000000D+00 0.190807819984D-04 0.000000000000D+00  6 2 2 25 2 2 21 2 0.17471295D+00 0.26633467D+00 0.22353558D+06 0.22353558D+06 0.22353558D+06 0.10941337D+01  1  2 13  3  6  5        2 -.883095719026D-02 0.100000000000D+01
-.292116633668D-10 0.000000000000D+00 0.000000000000D+00 0.190807819984D-04 0.000000000000D+00  6 2 2 25 2 2 21 2 0.17471295D+00 0.26633467D+00 0.22353558D+06 0.22353558D+06 0.22353558D+06 0.10941337D+01  1  2 13  3  6  5        2 -.119801453856D-09 0.100000000000D+01
0.167733879651D-02 0.000000000000D+00 0.000000000000D+00 0.190807819984D-04 0.985138807720D-07  6 2 2 25 2 2 21 2 0.17471295D+00 0.26633467D+00 0.22353558D+06 0.22353558D+06 0.22353558D+06 0.10941337D+01  1  2  1  3  6  5        2 0.687902033880D-02 0.100000000000D+01
  </mgrwgt>
  </event>
  <event>
  5     66 0.18204334E-05 0.97415005E+02 0.75467711E-02 0.94289227E-01
        2 -1    0    0  501    0 0.00000000E+00 0.00000000E+00 0.17695236E+04 0.17695237E+04 0.32000000E+00 0.0000E+00 0.9000E+01
        2 -1    0    0  502    0 0.00000000E+00 0.00000000E+00 -.87433888E+03 0.87433894E+03 0.32000000E+00 0.0000E+00 0.9000E+01
       25  1    1    2    0    0 0.50637221E+03 -.21561877E+02 0.74987495E+03 0.91368220E+03 0.12500000E+03 0.0000E+00 0.9000E+01
        2  1    1    2  501    0 -.41083609E+03 0.25842082E+01 0.88941859E+03 0.97972368E+03 0.32000000E+00 0.0000E+00 0.9000E+01
        2  1    1    2  502    0 -.95536119E+02 0.18977669E+02 -.74410878E+03 0.75045672E+03 0.32000000E+00 0.0000E+00 0.9000E+01
#aMCatNLO 1  0  0  5  2 0.27717520D+01 0.00000000D+00  -5  6  0 0.00000000D+00 0.00000000D+00 0.00000000D+00 0.00000000D+00 0.00000000D+00
  <mgrwgt>
 0.1238119168D-01    9    2    0
 0.124385024504616D+04 0.000000000000000D+00 0.000000000000000D+00 0.124385024504616D+04
 0.124385024504616D+04 -.000000000000000D+00 -.000000000000000D+00 -.124385024504616D+04
 0.701264292805707D+03 0.506313224648582D+03 -.215637245970669D+02 0.468325242424264D+03
 0.721047681131619D+03 -.410765099277320D+03 0.258376164488256D+01 0.592600300250296D+03
 0.106538851615499D+04 -.955481253712641D+02 0.189799629521846D+02 -.106092554267456D+04
 0.000000000000000D+00 -.000000000000000D+00 0.000000000000000D+00 0.000000000000000D+00
 0.124385024504616D+04 0.000000000000000D+00 0.000000000000000D+00 0.124385024504616D+04
 0.124385024504616D+04 -.000000000000000D+00 -.000000000000000D+00 -.124385024504616D+04
 0.701261164891792D+03 0.506312840543955D+03 -.215636482973848D+02 0.468320977490665D+03
 0.721044302344343D+03 -.410765494217890D+03 0.258384009704853D+01 0.592595914999020D+03
 0.652702761733479D+03 -.561657053233887D+02 0.130516550854963D+02 -.650150723309269D+03
 0.412692261122705D+03 -.393816410026780D+02 0.592815311484019D+01 -.410766169180416D+03
0.208239614214D-05 0.000000000000D+00 0.000000000000D+00 0.609162282807D-05 0.000000000000D+00  6 2 2 25 2 2 21 0 0.27223441D+00 0.13451368D+00 0.26530176D+06 0.26530176D+06 0.26530176D+06 0.10885235D+01  1  2  2  3  6  5        2 0.976789814534D-05 0.100000000000D+01
0.556803171530D-06 0.000000000000D+00 -.799694949333D-08 0.609162282807D-05 0.000000000000D+00  6 2 2 25 2 2 21 2 0.27223441D+00 0.13451368D+00 0.26530176D+06 0.26530176D+06 0.26530176D+06 0.10885235D+01  1  2  3  3  6  5        2 0.309467513076D-05 0.100000000000D+01
-.135618079696D-05 0.000000000000D+00 0.000000000000D+00 0.609162282807D-05 0.000000000000D+00  6 2 2 25 2 2 21 2 0.27223441D+00 0.13451368D+00 0.26530176D+06 0.26530176D+06 0.26530176D+06 0.10885235D+01  1  2 15  3  6  5        2 -.753756300211D-05 0.100000000000D+01
0.164737779990D-03 0.000000000000D+00 0.000000000000D+00 0.609162282807D-05 0.000000000000D+00  6 2 2 25 2 2 21 2 0.27223441D+00 0.13451368D+00 0.26533913D+06 0.26533913D+06 0.26533913D+06 0.10885189D+01  1  2 12  3  6  5        2 0.915586074686D-03 0.100000000000D+01
0.163729893848D-10 0.000000000000D+00 0.000000000000D+00 0.609162282807D-05 0.000000000000D+00  6 2 2 25 2 2 21 2 0.27223441D+00 0.13451368D+00 0.26533913D+06 0.26533913D+06 0.26533913D+06 0.10885189D+01  1  2 12  3  6  5        2 0.909984405677D-10 0.100000000000D+01
-.207803153567D-01 0.000000000000D+00 0.000000000000D+00 0.609162282807D-05 0.000000000000D+00  6 2 2 25 2 2 21 2 0.27223441D+00 0.13451368D+00 0.26530176D+06 0.26530176D+06 0.26530176D+06 0.10885235D+01  1  2  4  3  6  5        2 -.115495615743D+00 0.100000000000D+01
-.170486475024D-01 0.000000000000D+00 0.000000000000D+00 0.609162282807D-05 0.000000000000D+00  6 2 2 25 2 2 21 2 0.27223441D+00 0.13451368D+00 0.26530176D+06 0.26530176D+06 0.26530176D+06 0.10885235D+01  1  2  5  3  6  5        2 -.947552530885D-01 0.100000000000D+01
0.247921926095D-01 0.000000000000D+00 -.000000000000D+00 0.609162282807D-05 0.000000000000D+00  6 2 2 25 2 2 21 2 0.27223441D+00 0.13451368D+00 0.26530176D+06 0.26530176D+06 0.26530176D+06 0.10885235D+01  1  2  6  3  6  5        2 0.137793363667D+00 0.100000000000D+01
0.150989951632D-01 0.000000000000D+00 0.000000000000D+00 0.609162282807D-05 0.188878809559D-05  6 2 2 25 2 2 21 2 0.27223441D+00 0.13451368D+00 0.26533913D+06 0.26533913D+06 0.26533913D+06 0.10885189D+01  1  2 11  3  6  5        2 0.839177856715D-01 0.100000000000D+01
  </mgrwgt>
  </event>
  <event>
  5     66 -.18204334E-05 0.13549142E+02 0.75467711E-02 0.89664427E-01
        2 -1    0    0  501    0 0.00000000E+00 0.00000000E+00 0.39593166E+04 0.39593166E+04 0.32000000E+00 0.0000E+00 0.9000E+01
        2 -1    0    0  502    0 0.00000000E+00 0.00000000E+00 -.38925953E+03 0.38925966E+03 0.32000000E+00 0.0000E+00 0.9000E+01
       25  1    1    2    0    0 -.25244749E+03 -.74456046E+03 0.22885942E+04 0.24230948E+04 0.12500000E+03 0.0000E+00 0.9000E+01
        2  1    1    2  501    0 -.72974086E+01 0.11426195E+02 0.11337018E+04 0.11337829E+04 0.32000000E+00 0.0000E+00 0.9000E+01
        2  1    1    2  502    0 0.25974490E+03 0.73313427E+03 0.14776116E+03 0.79169864E+03 0.32000000E+00 0.0000E+00 0.9000E+01
#aMCatNLO 1  0  0  5  2 0.45100867D+01 0.00000000D+00  -5  6  0 0.00000000D+00 0.00000000D+00 0.00000000D+00 0.00000000D+00 0.00000000D+00
  <mgrwgt>
 -.2866539785D-02    6    2    0
 0.124145157740128D+04 0.000000000000000D+00 0.000000000000000D+00 0.124145157740128D+04
 0.124145157740128D+04 -.000000000000000D+00 -.000000000000000D+00 -.124145157740128D+04
 0.953341072749759D+03 -.252484169483931D+03 -.744647883690092D+03 0.524390574350396D+03
 0.355392949393065D+03 -.729282450380573D+01 0.114190176125434D+02 0.355134579034234D+03
 0.117416913265974D+04 0.259776993987737D+03 0.733228866077549D+03 -.879525153384631D+03
 0.000000000000000D+00 0.000000000000000D+00 0.000000000000000D+00 -.000000000000000D+00
 0.124145157740128D+04 0.000000000000000D+00 0.000000000000000D+00 0.124145157740128D+04
 0.124145157740128D+04 -.000000000000000D+00 -.000000000000000D+00 -.124145157740128D+04
 0.953112505485809D+03 -.252431404206273D+03 -.744498952007916D+03 0.524211927318521D+03
 0.355327784113092D+03 -.727315375112199D+01 0.114745389405247D+02 0.355067979904320D+03
 0.102388118950142D+04 0.224034628679264D+03 0.649294291455880D+03 -.759314229058162D+03
 0.150581675702248D+03 0.356699292781317D+02 0.837301216115119D+02 -.119965678164679D+03
0.105267796938D-04 0.000000000000D+00 0.000000000000D+00 0.296702632631D-05 0.000000000000D+00  6 2 2 25 2 2 21 0 0.60912564D+00 0.59886092D-01 0.63011710D+06 0.63011710D+06 0.63011710D+06 0.10614826D+01  1  2  2  3  6  5        2 0.485418111185D-05 0.100000000000D+01
0.895796200173D-05 0.000000000000D+00 -.404256057890D-07 0.296702632631D-05 0.000000000000D+00  6 2 2 25 2 2 21 2 0.60912564D+00 0.59886092D-01 0.63011710D+06 0.63011710D+06 0.63011710D+06 0.10614826D+01  1  2  3  3  6  5        2 0.465431152112D-05 0.100000000000D+01
-.731791971861D-05 0.000000000000D+00 0.000000000000D+00 0.296702632631D-05 0.000000000000D+00  6 2 2 25 2 2 21 2 0.60912564D+00 0.59886092D-01 0.63011710D+06 0.63011710D+06 0.63011710D+06 0.10614826D+01  1  2 15  3  6  5        2 -.380219050386D-05 0.100000000000D+01
-.610527409633D-02 0.000000000000D+00 0.000000000000D+00 0.296702632631D-05 0.000000000000D+00  6 2 2 25 2 2 21 2 0.60912564D+00 0.59886092D-01 0.63011710D+06 0.63011710D+06 0.63011710D+06 0.10614826D+01  1  2  4  3  6  5        2 -.317213307677D-02 0.100000000000D+01
-.423177791293D-02 0.000000000000D+00 0.000000000000D+00 0.296702632631D-05 0.000000000000D+00  6 2 2 25 2 2 21 2 0.60912564D+00 0.59886092D-01 0.63011710D+06 0.63011710D+06 0.63011710D+06 0.10614826D+01  1  2  5  3  6  5        2 -.219871581183D-02 0.100000000000D+01
0.480895807154D-02 0.000000000000D+00 -.000000000000D+00 0.296702632631D-05 0.000000000000D+00  6 2 2 25 2 2 21 2 0.60912564D+00 0.59886092D-01 0.63011710D+06 0.63011710D+06 0.63011710D+06 0.10614826D+01  1  2  6  3  6  5        2 0.249860280191D-02 0.100000000000D+01
  </mgrwgt>
  </event>
  <event>
  5     66 0.18204334E-05 0.14233382E+03 0.75467711E-02 0.93980723E-01
        2 -1    0    0  501    0 0.00000000E+00 0.00000000E+00 0.21775480E+04 0.21775480E+04 0.32000000E+00 0.0000E+00 0.9000E+01
        2 -1    0    0  502    0 0.00000000E+00 0.00000000E+00 -.18508296E+04 0.18508296E+04 0.32000000E+00 0.0000E+00 0.9000E+01
       25  1    1    2    0    0 -.10280992E+03 0.45193891E+03 0.56868700E+03 0.74421002E+03 0.12500000E+03 0.0000E+00 0.9000E+01
        2  1    1    2  501    0 0.28993897E+02 -.33025464E+03 0.15000989E+04 0.15362961E+04 0.32000000E+00 0.0000E+00 0.9000E+01
        2  1    1    2  502    0 0.73816024E+02 -.12168426E+03 -.17420675E+04 0.17478716E+04 0.32000000E+00 0.0000E+00 0.9000E+01
#aMCatNLO 1  0  0  1  4 0.24153222D+03 0.00000000D+00  -5  6  0 0.00000000D+00 0.00000000D+00 0.00000000D+00 0.00000000D+00 0.00000000D+00
  <mgrwgt>
 0.2003866560D-01    7    2    0
 0.200755334918789D+04 0.000000000000000D+00 0.000000000000000D+00 0.200755334918789D+04
 0.200755334918789D+04 0.000000000000000D+00 0.000000000000000D+00 -.200755334918789D+04
 0.700462289906725D+03 -.102813637446927D+03 0.451927996676888D+03 0.510110636387753D+03
 0.141922093520058D+04 0.289921309095981D+02 -.330234522097734D+03 0.137996111527528D+04
 0.189542347326848D+04 0.738215065373288D+02 -.121693474579154D+03 -.189007175166303D+04
 0.000000000000000D+00 0.000000000000000D+00 -.000000000000000D+00 0.000000000000000D+00
 0.271297163972967D+04 0.000000000000000D+00 0.000000000000000D+00 0.271297163972967D+04
 0.203196428039247D+04 0.000000000000000D+00 0.000000000000000D+00 -.203196428039247D+04
 0.726632912619046D+03 -.130110925532046D+03 0.485003789059955D+03 0.510110636387753D+03
 0.140535485567844D+04 -.250359808417514D+02 -.264769315386928D+03 0.137996111527528D+04
 0.189037715975758D+04 0.140721327249535D+01 -.339499550718142D+02 -.189007175166303D+04
 0.722570992067075D+03 0.153739693101302D+03 -.186284518601213D+03 0.681007359337202D+03
0.462440031786D-02 0.000000000000D+00 0.000000000000D+00 0.101245560036D-03 0.000000000000D+00  6 2 2 25 2 2 21 0 0.33500739D+00 0.28474302D+00 0.22746916D+06 0.22746916D+06 0.22746916D+06 0.10935583D+01  1  2  2  1  6  1        2 0.362811328502D-02 0.100000000000D+01
0.866482059602D-03 0.000000000000D+00 -.177589148532D-04 0.101245560036D-03 0.000000000000D+00  6 2 2 25 2 2 21 2 0.33500739D+00 0.28474302D+00 0.22746916D+06 0.22746916D+06 0.22746916D+06 0.10935583D+01  1  2  3  1  6  1        2 0.812959461325D-03 0.100000000000D+01
-.275724387131D-02 0.000000000000D+00 0.000000000000D+00 0.101245560036D-03 0.000000000000D+00  6 2 2 25 2 2 21 2 0.33500739D+00 0.28474302D+00 0.22746916D+06 0.22746916D+06 0.22746916D+06 0.10935583D+01  1  2 15  1  6  1        2 -.258692891275D-02 0.100000000000D+01
-.465389019966D-02 0.000000000000D+00 0.000000000000D+00 0.101245560036D-03 0.000000000000D+00  6 2 2 25 2 2 21 2 0.33500739D+00 0.28474302D+00 0.22746916D+06 0.22746916D+06 0.22746916D+06 0.10935583D+01  1  2  4  1  6  1        2 -.436641939421D-02 0.100000000000D+01
-.381782520371D-01 0.000000000000D+00 -.320621349132D-02 0.101245560036D-03 0.000000000000D+00  6 2 2 25 2 2 21 2 0.45404337D+00 0.28474302D+00 0.22746916D+06 0.22746916D+06 0.22746916D+06 0.10935583D+01  1  2  5  1  6  1        2 -.126429520630D-01 0.100000000000D+01
0.375469241284D-01 0.000000000000D+00 0.306352271952D-02 0.101245560036D-03 0.000000000000D+00  6 2 2 25 2 2 21 2 0.33500739D+00 0.28474302D+00 0.22746916D+06 0.22746916D+06 0.22746916D+06 0.10935583D+01  1  2  6  1  6  1        2 0.352276505619D-01 0.100000000000D+01
-.141672573287D-02 0.000000000000D+00 -.125140237670D-03 0.101245560036D-03 0.000000000000D+00  6 21 2 25 2 2 -2 2 0.45404337D+00 0.28474302D+00 0.22746916D+06 0.22746916D+06 0.22746916D+06 0.10935583D+01  1  2  5  4  6  1        2 -.337573362316D-04 0.100000000000D+01
  </mgrwgt>
  </event>
  <event>
  5     66 0.18204334E-05 0.45989869E+02 0.75467711E-02 0.94043950E-01
        2 -1    0    0  501    0 0.00000000E+00 0.00000000E+00 0.56679587E+03 0.56679596E+03 0.32000000E+00 0.0000E+00 0.9000E+01
        2 -1    0    0  502    0 0.00000000E+00 0.00000000E+00 -.75720147E+03 0.75720154E+03 0.32000000E+00 0.0000E+00 0.9000E+01
       25  1    1    2    0    0 0.47581930E+03 0.51072668E+02 -.83030181E+02 0.50152909E+03 0.12500000E+03 0.0000E+00 0.9000E+01
        2  1    1    2  501    0 0.32807469E+02 -.32276849E+02 0.21507856E+03 0.21994775E+03 0.32000000E+00 0.0000E+00 0.9000E+01
        2  1    1    2  502    0 -.50862677E+03 -.18795819E+02 -.32245398E+03 0.60252065E+03 0.32000000E+00 0.0000E+00 0.9000E+01
#aMCatNLO 1  0  0  1  5 0.28010467D+01 0.00000000D+00  -5  6  0 0.00000000D+00 0.00000000D+00 0.00000000D+00 0.00000000D+00 0.00000000D+00
  <mgrwgt>
 0.6903200730D-02   11    2    0
 0.655117372086016D+03 0.000000000000000D+00 0.000000000000000D+00 0.655117372086016D+03
 0.655117372086016D+03 0.000000000000000D+00 0.000000000000000D+00 -.655117372086016D+03
 0.494854068149653D+03 0.475950006085832D+03 0.510660802034686D+02 -.109268441835209D+02
 0.253330475209344D+03 0.327837863957042D+02 -.322535491387513D+02 0.249120977814609D+03
 0.562050200813035D+03 -.508733792481536D+03 -.188125310647174D+02 -.238194133631088D+03
 0.000000000000000D+00 -.000000000000000D+00 0.000000000000000D+00 0.000000000000000D+00
 0.662305993866032D+03 0.000000000000000D+00 0.000000000000000D+00 0.662305993866032D+03
 0.655391782944787D+03 0.000000000000000D+00 0.000000000000000D+00 -.655391782944787D+03
 0.495513699514062D+03 0.476713765817720D+03 0.503330503962227D+02 -.109268441835209D+02
 0.253429364662882D+03 0.331745934999636D+02 -.326286320926501D+02 0.249120977814609D+03
 0.561294674059297D+03 -.507867482401116D+03 -.196439851002630D+02 -.238194133631088D+03
 0.746003857457826D+01 -.202087691656785D+01 0.193956679669045D+01 0.691421092124436D+01
0.423022948932D-04 0.000000000000D+00 0.000000000000D+00 0.299821041825D-06 0.000000000000D+00  6 2 2 25 2 2 21 0 0.87199377D-01 0.11649255D+00 0.27552253D+06 0.27552253D+06 0.27552253D+06 0.10872973D+01  1  2  2  1  6  1        2 0.133343327554D-02 0.100000000000D+01
0.130647012640D-04 0.000000000000D+00 -.162451950840D-06 0.299821041825D-06 0.000000000000D+00  6 2 2 25 2 2 21 2 0.87199377D-01 0.11649255D+00 0.27552253D+06 0.27552253D+06 0.27552253D+06 0.10872973D+01  1  2  3  1  6  1        2 0.486859268505D-03 0.100000000000D+01
-.302192740100D-04 0.000000000000D+00 0.000000000000D+00 0.299821041825D-06 0.000000000000D+00  6 2 2 25 2 2 21 2 0.87199377D-01 0.11649255D+00 0.27552253D+06 0.27552253D+06 0.27552253D+06 0.10872973D+01  1  2 15  1  6  1        2 -.112612859200D-02 0.100000000000D+01
0.111587102084D-09 0.000000000000D+00 0.000000000000D+00 0.299821041825D-06 0.000000000000D+00  6 2 2 25 2 2 21 2 0.88186071D-01 0.11649255D+00 0.27718804D+06 0.27718804D+06 0.27718804D+06 0.10871022D+01  1  2 12  1  6  1        2 0.410226095485D-08 0.100000000000D+01
-.645259017429D-03 0.000000000000D+00 0.000000000000D+00 0.299821041825D-06 0.000000000000D+00  6 2 2 25 2 2 21 2 0.87199377D-01 0.11649255D+00 0.27552253D+06 0.27552253D+06 0.27552253D+06 0.10872973D+01  1  2  4  1  6  1        2 -.240457341407D-01 0.100000000000D+01
-.194882110394D-01 0.000000000000D+00 -.911704148963D-03 0.299821041825D-06 0.000000000000D+00  6 2 2 25 2 2 21 2 0.88174786D-01 0.11649255D+00 0.27552253D+06 0.27552253D+06 0.27552253D+06 0.10872973D+01  1  2  5  1  6  1        2 -.716924105333D+00 0.100000000000D+01
0.194972028122D-01 0.000000000000D+00 0.911647744529D-03 0.299821041825D-06 0.000000000000D+00  6 2 2 25 2 2 21 2 0.87199377D-01 0.11649255D+00 0.27552253D+06 0.27552253D+06 0.27552253D+06 0.10872973D+01  1  2  6  1  6  1        2 0.726568002376D+00 0.100000000000D+01
0.589219953857D-03 0.000000000000D+00 0.000000000000D+00 0.299821041825D-06 0.264346416840D-07  6 2 2 25 2 2 21 2 0.88156218D-01 0.11654134D+00 0.27718804D+06 0.27718804D+06 0.27718804D+06 0.10871022D+01  1  2 11  1  6  1        2 0.216585312694D-01 0.100000000000D+01
0.145863604347D-10 0.000000000000D+00 0.000000000000D+00 0.299821041825D-06 0.000000000000D+00  6 21 2 25 2 2 -2 2 0.88186071D-01 0.11649255D+00 0.27718804D+06 0.27718804D+06 0.27718804D+06 0.10871022D+01  1  2 12  4  6  1        2 0.845041697346D-09 0.100000000000D+01
-.399639720175D-04 0.000000000000D+00 -.187022650992D-05 0.299821041825D-06 0.000000000000D+00  6 21 2 25 2 2 -2 2 0.88174786D-01 0.11649255D+00 0.27552253D+06 0.27552253D+06 0.27552253D+06 0.10872973D+01  1  2  5  4  6  1        2 -.231777204289D-02 0.100000000000D+01
0.219165312454D-04 0.000000000000D+00 0.000000000000D+00 0.299821041825D-06 0.435240095473D-09  6 21 2 25 2 2 -2 2 0.88156218D-01 0.11654134D+00 0.27718804D+06 0.27718804D+06 0.27718804D+06 0.10871022D+01  1  2 11  4  6  1        2 0.127010970276D-02 0.100000000000D+01
  </mgrwgt>
  </event>
  <event>
  5     66 0.18204334E-05 0.52678002E+02 0.75467711E-02 0.87882732E-01
        2 -1    0    0  501    0 0.00000000E+00 0.00000000E+00 0.14053061E+04 0.14053062E+04 0.32000000E+00 0.0000E+00 0.9000E+01
        2 -1    0    0  502    0 0.00000000E+00 0.00000000E+00 -.16552898E+04 0.16552898E+04 0.32000000E+00 0.0000E+00 0.9000E+01
       25  1    1    2    0    0 0.39035553E+03 -.26482653E+03 0.12527740E+04 0.13444621E+04 0.12500000E+03 0.0000E+00 0.9000E+01
        2  1    1    2  501    0 0.24455696E+02 -.46882164E+02 0.53761055E+02 0.75408035E+02 0.32000000E+00 0.0000E+00 0.9000E+01
        2  1    1    2  502    0 -.41481123E+03 0.31170869E+03 -.15565188E+04 0.16407259E+04 0.32000000E+00 0.0000E+00 0.9000E+01
#aMCatNLO 1  0  0  2  4 0.65624321D+03 0.00000000D+00  -5  6  0 0.00000000D+00 0.00000000D+00 0.00000000D+00 0.00000000D+00 0.00000000D+00
  <mgrwgt>
 0.6579705916D-03    7    2    0
 0.152518492018723D+04 0.000000000000000D+00 0.000000000000000D+00 0.152518492018723D+04
 0.152518492018723D+04 0.000000000000000D+00 0.000000000000000D+00 -.152518492018723D+04
 0.145192274500146D+04 0.390488349281517D+03 -.265030349388172D+03 0.136738159283762D+04
 0.797641086670938D+02 0.243634792207651D+02 -.467053822305225D+02 0.598944169553063D+02
 0.151868298670590D+04 -.414851828502282D+03 0.311735731618694D+03 -.142727600979293D+04
 0.000000000000000D+00 -.000000000000000D+00 -.000000000000000D+00 -.000000000000000D+00
 0.166139734656361D+04 0.000000000000000D+00 0.000000000000000D+00 0.166139734656361D+04
 0.262273108190608D+04 0.000000000000000D+00 0.000000000000000D+00 -.262273108190608D+04
 0.151714996011746D+04 0.641139360046668D+03 -.729856290801012D+02 0.136738159283762D+04
 0.796386366174629D+02 0.378203606084891D+02 -.363949389794250D+02 0.598944169553063D+02
 0.152337346777283D+04 -.158039483083746D+03 0.508501166144599D+03 -.142727600979293D+04
 0.116396636396192D+04 -.520920237571411D+03 -.399120598085073D+03 -.961333735342467D+03
0.162476180362D-03 0.000000000000D+00 0.000000000000D+00 0.156134269107D-06 0.000000000000D+00  6 2 2 25 2 2 21 0 0.21620095D+00 0.25465998D+00 0.28079895D+06 0.28079895D+06 0.28079895D+06 0.10866835D+01  1  2  2  2  6  2        2 0.422963709786D-03 0.100000000000D+01
0.214307845337D-04 0.000000000000D+00 -.623951313552D-06 0.156134269107D-06 0.000000000000D+00  6 2 2 25 2 2 21 2 0.21620095D+00 0.25465998D+00 0.28079895D+06 0.28079895D+06 0.28079895D+06 0.10866835D+01  1  2  3  2  6  2        2 0.658806167894D-04 0.100000000000D+01
-.103783453834D-03 0.000000000000D+00 0.000000000000D+00 0.156134269107D-06 0.000000000000D+00  6 2 2 25 2 2 21 2 0.21620095D+00 0.25465998D+00 0.28079895D+06 0.28079895D+06 0.28079895D+06 0.10866835D+01  1  2 15  2  6  2        2 -.319041887636D-03 0.100000000000D+01
-.923454475737D-05 0.000000000000D+00 0.000000000000D+00 0.156134269107D-06 0.000000000000D+00  6 2 2 25 2 2 21 2 0.21620095D+00 0.25465998D+00 0.28079895D+06 0.28079895D+06 0.28079895D+06 0.10866835D+01  1  2  4  2  6  2        2 -.283880183401D-04 0.100000000000D+01
-.173370494170D-03 0.000000000000D+00 -.869565004031D-04 0.156134269107D-06 0.000000000000D+00  6 2 2 25 2 2 21 2 0.21620095D+00 0.44753986D+00 0.28079895D+06 0.28079895D+06 0.28079895D+06 0.10866835D+01  1  2  5  2  6  2        2 -.103159923521D-03 0.100000000000D+01
0.201683579727D-03 0.000000000000D+00 0.747555205480D-04 0.156134269107D-06 0.000000000000D+00  6 2 2 25 2 2 21 2 0.21620095D+00 0.25465998D+00 0.28079895D+06 0.28079895D+06 0.28079895D+06 0.10866835D+01  1  2  6  2  6  2        2 0.619997770397D-03 0.100000000000D+01
-.633681111968D-05 0.000000000000D+00 -.540927253760D-05 0.156134269107D-06 0.000000000000D+00  6 2 21 25 2 2 -2 2 0.21620095D+00 0.44753986D+00 0.28079895D+06 0.28079895D+06 0.28079895D+06 0.10866835D+01  1  2  5  5  6  2        2 -.281675849792D-06 0.100000000000D+01
  </mgrwgt>
  </event>
  <event>
  6     66 0.18204334E-05 0.57501872E+02 0.75467711E-02 0.94675728E-01
        2 -1    0    0  501    0 0.00000000E+00 0.00000000E+00 0.26905288E+03 0.26905307E+03 0.32000000E+00 0.0000E+00 0.9000E+01
        2 -1    0    0  502    0 -.00000000E+00 -.00000000E+00 -.21287802E+04 0.21287803E+04 0.32000000E+00 0.0000E+00 0.9000E+01
       25  1    1    2    0    0 0.14646367E+03 0.44910363E+03 -.30500336E+03 0.57601886E+03 0.12500000E+03 0.0000E+00 0.9000E+01
        2  1    1    2  501    0 -.44633047E+01 0.14482584E+02 0.96968006E+02 0.98145621E+02 0.32000000E+00 0.0000E+00 0.9000E+01
        2  1    1    2  503    0 -.56244931E+02 -.31579133E+03 -.10176169E+04 0.10669732E+04 0.32000000E+00 0.0000E+00 0.9000E+01
       21  1    1    2  502  503 -.85755436E+02 -.14779489E+03 -.63407513E+03 0.65669564E+03 0.75000000E+00 0.0000E+00 0.9000E+01
#aMCatNLO 2  0  0  5  1 0.42883546D+02 0.00000000D+00  -5  6  0 0.00000000D+00 0.00000000D+00 0.00000000D+00 0.00000000D+00 0.00000000D+00
  <mgrwgt>
 0.2400260647D-01    1    2    0
 0.756805600810909D+03 0.000000000000000D+00 0.000000000000000D+00 0.756805600810909D+03
 0.756805600810909D+03 -.000000000000000D+00 -.000000000000000D+00 -.756805600810909D+03
 0.539739870027178D+03 0.146897769910982D+03 0.450534012740316D+03 0.226128892130670D+03
 0.275219420804358D+03 -.425129403789217D+01 0.151567797425075D+02 0.274768863073542D+03
 0.698651910790281D+03 -.142646475873090D+03 -.465690792482823D+03 -.500897755204212D+03
 0.000000000000000D+00 0.000000000000000D+00 0.000000000000000D+00 -.000000000000000D+00
 0.756805600810909D+03 0.000000000000000D+00 0.000000000000000D+00 0.756805600810909D+03
 0.756805600810909D+03 -.000000000000000D+00 -.000000000000000D+00 -.756805600810909D+03
 0.537906552453740D+03 0.146487344488608D+03 0.449194117457024D+03 0.224687698638242D+03
 0.274451955322062D+03 -.446063831075152D+01 0.144733439987717D+02 0.274033758503322D+03
 0.439767007829652D+03 -.562037625270502D+02 -.315703834183992D+03 -.300943927226941D+03
 0.261485686016364D+03 -.858229436508061D+02 -.147963627271803D+03 -.197777529914623D+03
0.171874940912D-02 0.000000000000D+00 0.000000000000D+00 0.292037455723D-05 0.510235962228D-08  6 2 2 25 2 2 21 2 0.41392768D-01 0.32750467D+00 0.24780326D+06 0.24780326D+06 0.24780326D+06 0.10907476D+01  1  2  1  3  6  5        2 0.240026064697D-01 0.100000000000D+01
  </mgrwgt>
  </event>
  <event>
  6     66 0.18204334E-05 0.28675871E+03 0.75467711E-02 0.87189602E-01
        2 -1    0    0  503    0 0.00000000E+00 0.00000000E+00 0.42610900E+04 0.42610900E+04 0.32000000E+00 0.0000E+00 0.9000E+01
        2 -1    0    0  502    0 0.00000000E+00 0.00000000E+00 -.25719370E+04 0.25719370E+04 0.32000000E+00 0.0000E+00 0.9000E+01
       25  1    1    2    0    0 0.62865444E+03 -.28738885E+03 0.10253642E+03 0.70988554E+03 0.12500000E+03 0.0000E+00 0.9000E+01
        2  1    1    2  501    0 -.75859672E+03 0.49629512E+03 0.29117768E+04 0.30496265E+04 0.32000000E+00 0.0000E+00 0.9000E+01
        2  1    1    2  502    0 -.81379114E+02 0.50616203E+02 -.21662065E+04 0.21683254E+04 0.32000000E+00 0.0000E+00 0.9000E+01
       21  1    1    2  503  501 0.21132139E+03 -.25952247E+03 0.84104627E+03 0.90518950E+03 0.75000000E+00 0.0000E+00 0.9000E+01
#aMCatNLO 2  0  0  1  5 0.12065553D+03 0.00000000D+00  -5  6  0 0.00000000D+00 0.00000000D+00 0.00000000D+00 0.00000000D+00 0.00000000D+00
  <mgrwgt>
 0.2170563307D-03    1    2    0
 0.292865000343409D+04 0.000000000000000D+00 0.000000000000000D+00 0.292865000343409D+04
 0.292865000343409D+04 0.000000000000000D+00 0.000000000000000D+00 -.292865000343409D+04
 0.738992551398930D+03 0.654628227138297D+03 -.319289494179401D+03 0.104602272066757D+01
 0.261535543333560D+04 -.663496490890330D+03 0.379507785894818D+03 0.250116578612843D+04
 0.250295202213366D+04 0.886826375203304D+01 -.602182917154173D+02 -.250221180884910D+04
 0.000000000000000D+00 0.000000000000000D+00 -.000000000000000D+00 0.000000000000000D+00
 0.368940316441368D+04 0.000000000000000D+00 0.000000000000000D+00 0.368940316441368D+04
 0.297046789104848D+04 0.000000000000000D+00 0.000000000000000D+00 -.297046789104848D+04
 0.702433102731727D+03 0.628647325998407D+03 -.287382513672704D+03 0.104602272066757D+01
 0.266037413321132D+04 -.758588601896165D+03 0.496289806497845D+03 0.250116578612843D+04
 0.250404643643103D+04 -.813801174855053D+02 0.506151749685365D+02 -.250221180884910D+04
 0.793017383088076D+03 0.211321393383264D+03 -.259522467793678D+03 0.718935273365201D+03
0.210703249899D-01 0.000000000000D+00 0.000000000000D+00 0.174843444557D-03 0.614215840683D-09  6 2 2 25 2 2 21 2 0.65555227D+00 0.39568259D+00 0.10398448D+07 0.10398448D+07 0.10398448D+07 0.10467363D+01  1  2  1  1  6  1        2 0.217056330651D-03 0.100000000000D+01
  </mgrwgt>
  </event>
  <event>
  5     66 0.18204334E-05 0.32296897E+02 0.75467711E-02 0.88962968E-01
        2 -1    0    0  501    0 0.00000000E+00 0.00000000E+00 0.24030968E+04 0.24030968E+04 0.32000000E+00 0.0000E+00 0.9000E+01
        2 -1    0    0  502    0 0.00000000E+00 0.00000000E+00 -.20266527E+04 0.20266527E+04 0.32000000E+00 0.0000E+00 0.9000E+01
       25  1    1    2    0    0 0.43989148E+03 -.14208035E+03 0.19494160E+03 0.51702859E+03 0.12500000E+03 0.0000E+00 0.9000E+01
        2  1    1    2  501    0 -.40761492E+03 0.14316967E+03 0.20241746E+04 0.20697658E+04 0.32000000E+00 0.0000E+00 0.9000E+01
        2  1    1    2  502    0 -.32276557E+02 -.10893213E+01 -.18426722E+04 0.18429552E+04 0.32000000E+00 0.0000E+00 0.9000E+01
#aMCatNLO 1  0  0  5  1 0.91312865D+01 0.00000000D+00  -5  6  0 0.00000000D+00 0.00000000D+00 0.00000000D+00 0.00000000D+00 0.00000000D+00
  <mgrwgt>
 0.4181630293D-01    4    2    0
 0.220686265273538D+04 0.000000000000000D+00 0.000000000000000D+00 0.220686265273538D+04
 0.220686265273538D+04 -.000000000000000D+00 -.000000000000000D+00 -.220686265273538D+04
 0.502291179445169D+03 0.439885790400545D+03 -.142077605408591D+03 0.151610930982786D+03
 0.190460374142306D+04 -.407607271376609D+03 0.143166982025344D+03 0.185495955196371D+04
 0.200683038460252D+04 -.322785190239431D+02 -.108937661675327D+01 -.200657048294649D+04
 0.000000000000000D+00 0.000000000000000D+00 0.000000000000000D+00 0.000000000000000D+00
 0.220686265273538D+04 0.000000000000000D+00 0.000000000000000D+00 0.220686265273538D+04
 0.220686265273538D+04 -.000000000000000D+00 -.000000000000000D+00 -.220686265273538D+04
 0.482397975605374D+03 0.438534534684581D+03 -.142123209309412D+03 0.676111095363395D+02
 0.161484913250907D+04 -.412436897851701D+03 0.143003985633046D+03 0.155472936106218D+04
 0.186452569963319D+04 0.305707089607298D+03 -.231611528836007D+03 -.182465212017708D+04
 0.451952497723121D+03 -.331804726440185D+03 0.230730752512373D+03 0.202311649578555D+03
0.810910806070D-01 0.000000000000D+00 0.000000000000D+00 0.923963679003D-03 0.000000000000D+00  6 2 2 25 2 2 21 0 0.36970720D+00 0.31179273D+00 0.22239702D+06 0.22239702D+06 0.22239702D+06 0.10943023D+01  1  2  2  3  6  5        2 0.382230812142D-01 0.100000000000D+01
0.554052418214D-01 0.000000000000D+00 -.311411101303D-03 0.923963679003D-03 0.000000000000D+00  6 2 2 25 2 2 21 2 0.36970720D+00 0.31179273D+00 0.22239702D+06 0.22239702D+06 0.22239702D+06 0.10943023D+01  1  2  3  3  6  5        2 0.312736158615D-01 0.100000000000D+01
-.480212879061D-01 0.000000000000D+00 0.000000000000D+00 0.923963679003D-03 0.000000000000D+00  6 2 2 25 2 2 21 2 0.36970720D+00 0.31179273D+00 0.22239702D+06 0.22239702D+06 0.22239702D+06 0.10943023D+01  1  2 15  3  6  5        2 -.271057261331D-01 0.100000000000D+01
-.101809845533D-02 0.000000000000D+00 0.000000000000D+00 0.923963679003D-03 0.000000000000D+00  6 2 2 25 2 2 21 2 0.36970720D+00 0.31179273D+00 0.22239702D+06 0.22239702D+06 0.22239702D+06 0.10943023D+01  1  2  4  3  6  5        2 -.574668008919D-03 0.100000000000D+01
  </mgrwgt>
  </event>
  <event>
  5     66 0.18204334E-05 0.19833850E+02 0.75467711E-02 0.95425991E-01
        2 -1    0    0  501    0 0.00000000E+00 0.00000000E+00 0.15249137E+04 0.15249138E+04 0.32000000E+00 0.0000E+00 0.9000E+01
        2 -1    0    0  502    0 0.00000000E+00 0.00000000E+00 -.18027934E+04 0.18027934E+04 0.32000000E+00 0.0000E+00 0.9000E+01
       25  1    1    2    0    0 0.12074778E+03 0.44157992E+03 -.21593175E+02 0.47504118E+03 0.12500000E+03 0.0000E+00 0.9000E+01
        2  1    1    2  501    0 -.45646758E+01 -.19302078E+02 0.12672614E+04 0.12674167E+04 0.32000000E+00 0.0000E+00 0.9000E+01
        2  1    1    2  502    0 -.11618310E+03 -.42227785E+03 -.15235479E+04 0.15852494E+04 0.32000000E+00 0.0000E+00 0.9000E+01
#aMCatNLO 1  0  0  1  4 0.82670664D+02 0.00000000D+00  -5  6  0 0.00000000D+00 0.00000000D+00 0.00000000D+00 0.00000000D+00 0.00000000D+00
  <mgrwgt>
 0.6902362131D-01    7    2    0
 0.165804238825336D+04 0.000000000000000D+00 0.000000000000000D+00 0.165804238825336D+04
 0.165804238825336D+04 0.000000000000000D+00 0.000000000000000D+00 -.165804238825336D+04
 0.474931396238279D+03 0.120756900719739D+03 0.441613037480239D+03 0.181804067303599D+02
 0.137800855609322D+04 -.456453144807637D+01 -.193014679204343D+02 0.137786581315268D+04
 0.146314482417523D+04 -.116192369271662D+03 -.422311569559805D+03 -.139604621988304D+04
 0.000000000000000D+00 0.000000000000000D+00 0.000000000000000D+00 0.000000000000000D+00
 0.239122105437403D+04 0.000000000000000D+00 0.000000000000000D+00 0.239122105437403D+04
 0.166350834076942D+04 0.000000000000000D+00 0.000000000000000D+00 -.166350834076942D+04
 0.459892942554803D+03 0.120472290954303D+03 0.425479045941226D+03 0.181804067303599D+02
 0.137949920617815D+04 -.540406204739818D+01 -.668928763370027D+02 0.137786581315268D+04
 0.147866934157351D+04 -.117088012447524D+03 -.473083894252183D+03 -.139604621988304D+04
 0.736667904836974D+03 0.201978354061951D+01 0.114497724647960D+03 0.727712713604611D+03
0.145700550028D-02 0.000000000000D+00 0.000000000000D+00 0.306388974254D-03 0.000000000000D+00  6 2 2 25 2 2 21 0 0.23460212D+00 0.27735284D+00 0.21735242D+06 0.21735242D+06 0.21735242D+06 0.10950609D+01  1  2  2  1  6  1        2 0.276287472323D-02 0.100000000000D+01
0.126121740099D-02 0.000000000000D+00 -.559528475945D-05 0.306388974254D-03 0.000000000000D+00  6 2 2 25 2 2 21 2 0.23460212D+00 0.27735284D+00 0.21735242D+06 0.21735242D+06 0.21735242D+06 0.10950609D+01  1  2  3  1  6  1        2 0.286791648103D-02 0.100000000000D+01
-.107173538306D-02 0.000000000000D+00 0.000000000000D+00 0.306388974254D-03 0.000000000000D+00  6 2 2 25 2 2 21 2 0.23460212D+00 0.27735284D+00 0.21735242D+06 0.21735242D+06 0.21735242D+06 0.10950609D+01  1  2 15  1  6  1        2 -.243704817739D-02 0.100000000000D+01
-.140861574524D-03 0.000000000000D+00 0.000000000000D+00 0.306388974254D-03 0.000000000000D+00  6 2 2 25 2 2 21 2 0.23460212D+00 0.27735284D+00 0.21735242D+06 0.21735242D+06 0.21735242D+06 0.10950609D+01  1  2  4  1  6  1        2 -.320308957681D-03 0.100000000000D+01
-.567831675427D-01 0.000000000000D+00 -.101257356003D-02 0.306388974254D-03 0.000000000000D+00  6 2 2 25 2 2 21 2 0.33864777D+00 0.27735284D+00 0.21735242D+06 0.21735242D+06 0.21735242D+06 0.10950609D+01  1  2  5  1  6  1        2 -.552657319608D-01 0.100000000000D+01
0.535697381675D-01 0.000000000000D+00 0.947987286551D-03 0.306388974254D-03 0.000000000000D+00  6 2 2 25 2 2 21 2 0.23460212D+00 0.27735284D+00 0.21735242D+06 0.21735242D+06 0.21735242D+06 0.10950609D+01  1  2  6  1  6  1        2 0.121813681649D+00 0.100000000000D+01
-.250818725040D-02 0.000000000000D+00 -.452736126548D-04 0.306388974254D-03 0.000000000000D+00  6 21 2 25 2 2 -2 2 0.33864777D+00 0.27735284D+00 0.21735242D+06 0.21735242D+06 0.21735242D+06 0.10950609D+01  1  2  5  4  6  1        2 -.397762445498D-03 0.100000000000D+01
  </mgrwgt>
  </event>
  <event>
  6     66 -.18204334E-05 0.22407274E+03 0.75467711E-02 0.92353965E-01
        2 -1    0    0  501    0 0.00000000E+00 0.00000000E+00 0.38084828E+03 0.38084842E+03 0.32000000E+00 0.0000E+00 0.9000E+01
        2 -1    0    0  502    0 -.00000000E+00 -.00000000E+00 -.14733486E+04 0.14733487E+04 0.32000000E+00 0.0000E+00 0.9000E+01
       25  1    1    2    0    0 -.21083628E+03 -.41450555E+03 -.32818518E+03 0.58274978E+03 0.12500000E+03 0.0000E+00 0.9000E+01
        2  1    1    2  501    0 -.20358952E+03 0.10525399E+03 0.11072738E+03 0.25453438E+03 0.32000000E+00 0.0000E+00 0.9000E+01
        2  1    1    2  503    0 0.37565657E+03 0.28241749E+03 -.81175040E+03 0.93798524E+03 0.32000000E+00 0.0000E+00 0.9000E+01
       21  1    1    2  502  503 0.38769231E+02 0.26834078E+02 -.63292149E+02 0.78927686E+02 0.75000000E+00 0.0000E+00 0.9000E+01
#aMCatNLO 2  0  0  5  2 0.87999958D+01 0.00000000D+00  -5  6  0 0.00000000D+00 0.00000000D+00 0.00000000D+00 0.00000000D+00 0.00000000D+00
  <mgrwgt>
 -.1189726686D-02    6    2    0
 0.749081071539064D+03 0.000000000000000D+00 0.000000000000000D+00 0.749081071539064D+03
 0.749081071539064D+03 -.000000000000000D+00 -.000000000000000D+00 -.749081071539064D+03
 0.482184329212398D+03 -.211099489684147D+03 -.414672964895185D+03 0.189753782080867D+02
 0.395811743718801D+03 -.203683325235196D+03 0.105117796001245D+03 0.322692250372846D+03
 0.620166070146930D+03 0.414782814919343D+03 0.309555168893939D+03 -.341667628580933D+03
 0.000000000000000D+00 0.000000000000000D+00 0.000000000000000D+00 0.000000000000000D+00
 0.749081071539064D+03 0.000000000000000D+00 0.000000000000000D+00 0.749081071539064D+03
 0.749081071539064D+03 -.000000000000000D+00 -.000000000000000D+00 -.749081071539064D+03
 0.481986125422962D+03 -.210921223982924D+03 -.414539924018695D+03 0.188285360121154D+02
 0.395667203991644D+03 -.203536988507144D+03 0.105227008073053D+03 0.322571708920670D+03
 0.569184451043415D+03 0.375819513893641D+03 0.282575874390388D+03 -.320751473104722D+03
 0.513243626201074D+02 0.386386985964267D+02 0.267370415552534D+02 -.206487718280632D+02
-.239778392115D-03 0.000000000000D+00 0.000000000000D+00 0.103720663341D-07 0.000000000000D+00  6 2 2 25 2 2 21 2 0.58592056D-01 0.22666903D+00 0.37695669D+06 0.37695669D+06 0.37695669D+06 0.10772902D+01  1  2 13  3  6  5        2 -.498490495630D-02 0.100000000000D+01
-.192762102913D-06 0.000000000000D+00 0.000000000000D+00 0.103720663341D-07 0.000000000000D+00  6 2 2 25 2 2 21 2 0.58592056D-01 0.22666903D+00 0.37695669D+06 0.37695669D+06 0.37695669D+06 0.10772902D+01  1  2 13  3  6  5        2 -.400745352290D-05 0.100000000000D+01
-.405332062636D-04 0.000000000000D+00 0.000000000000D+00 0.103720663341D-07 0.000000000000D+00  6 2 2 25 2 2 21 2 0.58592056D-01 0.22666903D+00 0.37735243D+06 0.37735243D+06 0.37735243D+06 0.10772572D+01  1  2  8  3  6  5        2 -.842585027656D-03 0.100000000000D+01
-.487870633576D-04 0.000000000000D+00 0.000000000000D+00 0.103720663341D-07 0.000000000000D+00  6 2 2 25 2 2 21 2 0.58592056D-01 0.22666903D+00 0.37735243D+06 0.37735243D+06 0.37735243D+06 0.10772572D+01  1  2  9  3  6  5        2 -.101416228613D-02 0.100000000000D+01
0.529910863612D-04 0.000000000000D+00 0.000000000000D+00 0.103720663341D-07 0.000000000000D+00  6 2 2 25 2 2 21 2 0.58592056D-01 0.22666903D+00 0.37735243D+06 0.37735243D+06 0.37735243D+06 0.10772572D+01  1  2 10  3  6  5        2 0.110155351829D-02 0.100000000000D+01
0.219069733068D-03 0.000000000000D+00 0.000000000000D+00 0.103720663341D-07 0.523683673637D-09  6 2 2 25 2 2 21 2 0.58592056D-01 0.22666903D+00 0.37695669D+06 0.37695669D+06 0.37695669D+06 0.10772902D+01  1  2  1  3  6  5        2 0.455437951899D-02 0.100000000000D+01
  </mgrwgt>
  </event>
  <event>
  5     66 -.18204334E-05 0.23151063E+03 0.75467711E-02 0.92848998E-01
        2 -1    0    0  501    0 0.00000000E+00 0.00000000E+00 0.20721904E+04 0.20721904E+04 0.32000000E+00 0.0000E+00 0.9000E+01
        2 -1    0    0  502    0 0.00000000E+00 0.00000000E+00 -.65797276E+03 0.65797284E+03 0.32000000E+00 0.0000E+00 0.9000E+01
       25  1    1    2    0    0 0.47440267E+03 0.26097943E+03 0.50751819E+03 0.75257417E+03 0.12500000E+03 0.0000E+00 0.9000E+01
        2  1    1    2  501    0 -.37043596E+03 -.54159571E+02 0.13911671E+04 0.14406603E+04 0.32000000E+00 0.0000E+00 0.9000E+01
        2  1    1    2  502    0 -.10396671E+03 -.20681986E+03 -.48446766E+03 0.53692881E+03 0.32000000E+00 0.0000E+00 0.9000E+01
#aMCatNLO 1  0  0  2  5 0.15172688D+02 0.00000000D+00  -5  6  0 0.00000000D+00 0.00000000D+00 0.00000000D+00 0.00000000D+00 0.00000000D+00
  <mgrwgt>
 -.8869094484D-02   11    2    0
 0.116766647267451D+04 0.000000000000000D+00 0.000000000000000D+00 0.116766647267451D+04
 0.116766647267451D+04 0.000000000000000D+00 0.000000000000000D+00 -.116766647267451D+04
 0.572492781597200D+03 0.474384651085981D+03 0.260999695393954D+03 0.137700206242381D+03
 0.841698659162450D+03 -.370402418528238D+03 -.541546662374327D+02 0.753873963808945D+03
 0.921141504589369D+03 -.103982232557743D+03 -.206845029156522D+03 -.891574170051326D+03
 0.000000000000000D+00 0.000000000000000D+00 -.000000000000000D+00 -.000000000000000D+00
 0.116809776216494D+04 0.000000000000000D+00 0.000000000000000D+00 0.116809776216494D+04
 0.130922132538191D+04 0.000000000000000D+00 0.000000000000000D+00 -.130922132538191D+04
 0.573724191836470D+03 0.473831829737418D+03 0.264681881939258D+03 0.137700206242381D+03
 0.841725773997259D+03 -.371214335457504D+03 -.487467173573467D+02 0.753873963808945D+03
 0.919932267570751D+03 -.104870183887307D+03 -.200930636655029D+03 -.891574170051326D+03
 0.141936854142365D+03 0.225268960739281D+01 -.150045279268821D+02 -.141123563216974D+03
0.762438414391D-05 0.000000000000D+00 0.000000000000D+00 0.823302727348D-06 0.000000000000D+00  6 2 2 25 2 2 21 0 0.31879853D+00 0.10122659D+00 0.33729187D+06 0.33729187D+06 0.33729187D+06 0.10808072D+01  1  2  2  2  6  2        2 0.344699084621D-04 0.100000000000D+01
0.826600730860D-06 0.000000000000D+00 -.292796426591D-07 0.823302727348D-06 0.000000000000D+00  6 2 2 25 2 2 21 2 0.31879853D+00 0.10122659D+00 0.33729187D+06 0.33729187D+06 0.33729187D+06 0.10808072D+01  1  2  3  2  6  2        2 0.436543542369D-05 0.100000000000D+01
-.522258814945D-05 0.000000000000D+00 0.000000000000D+00 0.823302727348D-06 0.000000000000D+00  6 2 2 25 2 2 21 2 0.31879853D+00 0.10122659D+00 0.33729187D+06 0.33729187D+06 0.33729187D+06 0.10808072D+01  1  2 15  2  6  2        2 -.275814797396D-04 0.100000000000D+01
0.232602005473D-02 0.000000000000D+00 0.000000000000D+00 0.823302727348D-06 0.000000000000D+00  6 2 2 25 2 2 21 2 0.31879853D+00 0.11503584D+00 0.34408767D+06 0.34408767D+06 0.34408767D+06 0.10801736D+01  1  2 12  2  6  2        2 0.104725707083D-01 0.100000000000D+01
0.211777977387D-08 0.000000000000D+00 0.000000000000D+00 0.823302727348D-06 0.000000000000D+00  6 2 2 25 2 2 21 2 0.31879853D+00 0.11352469D+00 0.34408767D+06 0.34408767D+06 0.34408767D+06 0.10801736D+01  1  2 12  2  6  2        2 0.969418875927D-08 0.100000000000D+01
-.399617565595D-02 0.000000000000D+00 0.000000000000D+00 0.823302727348D-06 0.000000000000D+00  6 2 2 25 2 2 21 2 0.31879853D+00 0.10122659D+00 0.33729187D+06 0.33729187D+06 0.33729187D+06 0.10808072D+01  1  2  4  2  6  2        2 -.211045624768D-01 0.100000000000D+01
-.267817429302D-02 0.000000000000D+00 -.169505940737D-04 0.823302727348D-06 0.000000000000D+00  6 2 2 25 2 2 21 2 0.31879853D+00 0.11351584D+00 0.33729187D+06 0.33729187D+06 0.33729187D+06 0.10808072D+01  1  2  5  2  6  2        2 -.122903674427D-01 0.100000000000D+01
0.266272882948D-02 0.000000000000D+00 0.168399290798D-04 0.823302727348D-06 0.000000000000D+00  6 2 2 25 2 2 21 2 0.31879853D+00 0.10122659D+00 0.33729187D+06 0.33729187D+06 0.33729187D+06 0.10808072D+01  1  2  6  2  6  2        2 0.140623765766D-01 0.100000000000D+01
0.465457036782D-04 0.000000000000D+00 0.000000000000D+00 0.823302727348D-06 0.000000000000D+00  6 2 21 25 2 2 -2 2 0.31879853D+00 0.11503584D+00 0.34408767D+06 0.34408767D+06 0.34408767D+06 0.10801736D+01  1  2 12  5  6  2        2 0.225794345171D-03 0.100000000000D+01
0.386677603191D-10 0.000000000000D+00 0.000000000000D+00 0.823302727348D-06 0.000000000000D+00  6 2 21 25 2 2 -2 2 0.31879853D+00 0.11352469D+00 0.34408767D+06 0.34408767D+06 0.34408767D+06 0.10801736D+01  1  2 12  5  6  2        2 0.194388291425D-09 0.100000000000D+01
-.487996435645D-04 0.000000000000D+00 -.309316421162D-06 0.823302727348D-06 0.000000000000D+00  6 2 21 25 2 2 -2 2 0.31879853D+00 0.11351584D+00 0.33729187D+06 0.33729187D+06 0.33729187D+06 0.10808072D+01  1  2  5  5  6  2        2 -.246169947208D-03 0.100000000000D+01
  </mgrwgt>
  </event>
  <event>
  5     66 0.18204334E-05 0.21032941E+02 0.75467711E-02 0.93864883E-01
        2 -1    0    0  501    0 0.00000000E+00 0.00000000E+00 0.55299031E+03 0.55299041E+03 0.32000000E+00 0.0000E+00 0.9000E+01
        2 -1    0    0  502    0 0.00000000E+00 0.00000000E+00 -.90574965E+03 0.90574971E+03 0.32000000E+00 0.0000E+00 0.9000E+01
       25  1    1    2    0    0 -.51681962E+03 -.22327645E+02 -.13775714E+03 0.54973000E+03 0.12500000E+03 0.0000E+00 0.9000E+01
        2  1    1    2  501    0 0.51679666E+03 0.12973070E+01 0.15411947E+03 0.53928970E+03 0.32000000E+00 0.0000E+00 0.9000E+01
        2  1    1    2  502    0 0.22957922E-01 0.21030338E+02 -.36912167E+03 0.36972041E+03 0.32000000E+00 0.0000E+00 0.9000E+01
#aMCatNLO 1  0  0  1  4 0.56941998D+01 0.00000000D+00  -5  6  0 0.00000000D+00 0.00000000D+00 0.00000000D+00 0.00000000D+00 0.00000000D+00
  <mgrwgt>
 0.2767511608D-02    7    2    0
 0.707722328693153D+03 0.000000000000000D+00 0.000000000000000D+00 0.707722328693153D+03
 0.707722328693153D+03 0.000000000000000D+00 0.000000000000000D+00 -.707722328693153D+03
 0.532191552931646D+03 -.516797962754733D+03 -.223301796676919D+02 -.490691148923383D+01
 0.594170013742523D+03 0.516774713571563D+03 0.129725192413779D+01 0.293223835629478D+03
 0.289083090712137D+03 0.232491831696962D-01 0.210329277435541D+02 -.288316924140244D+03
 0.000000000000000D+00 -.000000000000000D+00 0.000000000000000D+00 0.000000000000000D+00
 0.123466138290705D+04 0.000000000000000D+00 0.000000000000000D+00 0.123466138290705D+04
 0.757843326521683D+03 0.000000000000000D+00 0.000000000000000D+00 -.757843326521683D+03
 0.442016132869763D+03 -.423080589804831D+03 -.270554701894783D+02 -.490691148923383D+01
 0.705642649246936D+03 0.641814815264233D+03 -.500735082745052D+01 0.293223835629478D+03
 0.294295936768627D+03 0.561434694261365D+02 0.182033099635464D+02 -.288316924140244D+03
 0.550549990543410D+03 -.274877694885539D+03 0.138595110533824D+02 0.476818056385371D+03
0.679999221042D-04 0.000000000000D+00 0.000000000000D+00 0.899879158830D-06 0.000000000000D+00  6 2 2 25 2 2 21 0 0.85075444D-01 0.13934611D+00 0.28621334D+06 0.28621334D+06 0.28621334D+06 0.10860667D+01  1  2  2  1  6  1        2 0.174404870742D-02 0.100000000000D+01
0.412560698093D-04 0.000000000000D+00 -.261137605671D-06 0.899879158830D-06 0.000000000000D+00  6 2 2 25 2 2 21 2 0.85075444D-01 0.13934611D+00 0.28621334D+06 0.28621334D+06 0.28621334D+06 0.10860667D+01  1  2  3  1  6  1        2 0.124810480035D-02 0.100000000000D+01
-.420749496293D-04 0.000000000000D+00 0.000000000000D+00 0.899879158830D-06 0.000000000000D+00  6 2 2 25 2 2 21 2 0.85075444D-01 0.13934611D+00 0.28621334D+06 0.28621334D+06 0.28621334D+06 0.10860667D+01  1  2 15  1  6  1        2 -.127287807223D-02 0.100000000000D+01
-.597172967157D-04 0.000000000000D+00 0.000000000000D+00 0.899879158830D-06 0.000000000000D+00  6 2 2 25 2 2 21 2 0.85075444D-01 0.13934611D+00 0.28621334D+06 0.28621334D+06 0.28621334D+06 0.10860667D+01  1  2  4  1  6  1        2 -.180660555014D-02 0.100000000000D+01
-.189348615082D-03 0.000000000000D+00 -.430188537835D-04 0.899879158830D-06 0.000000000000D+00  6 2 2 25 2 2 21 2 0.15333715D+00 0.13934611D+00 0.28621334D+06 0.28621334D+06 0.28621334D+06 0.10860667D+01  1  2  5  1  6  1        2 -.272298107616D-02 0.100000000000D+01
0.187689215907D-03 0.000000000000D+00 0.365000729352D-04 0.899879158830D-06 0.000000000000D+00  6 2 2 25 2 2 21 2 0.85075444D-01 0.13934611D+00 0.28621334D+06 0.28621334D+06 0.28621334D+06 0.10860667D+01  1  2  6  1  6  1        2 0.567809324614D-02 0.100000000000D+01
-.993861187470D-05 0.000000000000D+00 -.277861606325D-05 0.899879158830D-06 0.000000000000D+00  6 21 2 25 2 2 -2 2 0.15333715D+00 0.13934611D+00 0.28621334D+06 0.28621334D+06 0.28621334D+06 0.10860667D+01  1  2  5  4  6  1        2 -.100270447187D-03 0.100000000000D+01
  </mgrwgt>
  </event>
  <event>
  5     66 0.18204334E-05 0.55756991E+02 0.75467711E-02 0.87549129E-01
        2 -1    0    0  501    0 0.00000000E+00 0.00000000E+00 0.51657371E+04 0.51657371E+04 0.32000000E+00 0.0000E+00 0.9000E+01
        2 -1    0    0  502    0 0.00000000E+00 0.00000000E+00 -.22721576E+04 0.22721576E+04 0.32000000E+00 0.0000E+00 0.9000E+01
       25  1    1    2    0    0 0.28842170E+03 0.35608852E+03 0.51893243E+03 0.70349270E+03 0.12500000E+03 0.0000E+00 0.9000E+01
        2  1    1    2  501    0 -.23583223E+03 -.37460715E+03 0.45434098E+04 0.45649228E+04 0.32000000E+00 0.0000E+00 0.9000E+01
        2  1    1    2  502    0 -.52589469E+02 0.18518624E+02 -.21687627E+04 0.21694793E+04 0.32000000E+00 0.0000E+00 0.9000E+01
#aMCatNLO 1  0  0  5  2 0.20693728D+02 0.00000000D+00  -5  6  0 0.00000000D+00 0.00000000D+00 0.00000000D+00 0.00000000D+00 0.00000000D+00
  <mgrwgt>
 0.3686070810D-02    6    2    0
 0.342598440038481D+04 0.000000000000000D+00 0.000000000000000D+00 0.342598440038481D+04
 0.342598440038481D+04 -.000000000000000D+00 -.000000000000000D+00 -.342598440038481D+04
 0.544523370497676D+03 0.288421409940654D+03 0.356083964093638D+03 0.266266786928742D+03
 0.303657027583549D+04 -.235829816360517D+03 -.374603314101564D+03 0.300413310205575D+04
 0.327087515443647D+04 -.525915935801285D+02 0.185193500079228D+02 -.327039988898449D+04
 0.000000000000000D+00 0.000000000000000D+00 0.000000000000000D+00 -.000000000000000D+00
 0.342598440038481D+04 0.000000000000000D+00 0.000000000000000D+00 0.342598440038481D+04
 0.342598440038481D+04 -.000000000000000D+00 -.000000000000000D+00 -.342598440038481D+04
 0.533043810947747D+03 0.288034166112981D+03 0.356220326266656D+03 0.242186091045242D+03
 0.290534481746565D+04 -.237965154169665D+03 -.373851386548493D+03 0.287134745973929D+04
 0.278124749465268D+04 -.363422159818004D+03 0.407884457864671D+03 -.272706659788452D+04
 0.632332677703558D+03 0.313353147874697D+03 -.390253397582837D+03 -.386466952900014D+03
0.161744658771D+01 0.000000000000D+00 0.000000000000D+00 0.379842679829D-02 0.000000000000D+00  6 2 2 25 2 2 21 0 0.79472879D+00 0.34956271D+00 0.23687381D+06 0.23687381D+06 0.23687381D+06 0.10922256D+01  1  2  2  3  6  5        2 0.270216872894D-02 0.100000000000D+01
0.798457374981D+00 0.000000000000D+00 -.621142078026D-02 0.379842679829D-02 0.000000000000D+00  6 2 2 25 2 2 21 2 0.79472879D+00 0.34956271D+00 0.23687381D+06 0.23687381D+06 0.23687381D+06 0.10922256D+01  1  2  3  3  6  5        2 0.159132524309D-02 0.100000000000D+01
-.102771084802D+01 0.000000000000D+00 0.000000000000D+00 0.379842679829D-02 0.000000000000D+00  6 2 2 25 2 2 21 2 0.79472879D+00 0.34956271D+00 0.23687381D+06 0.23687381D+06 0.23687381D+06 0.10922256D+01  1  2 15  3  6  5        2 -.204822732722D-02 0.100000000000D+01
-.534752565202D-02 0.000000000000D+00 0.000000000000D+00 0.379842679829D-02 0.000000000000D+00  6 2 2 25 2 2 21 2 0.79472879D+00 0.34956271D+00 0.23687381D+06 0.23687381D+06 0.23687381D+06 0.10922256D+01  1  2  4  3  6  5        2 -.106576165801D-04 0.100000000000D+01
-.344200763793D+01 0.000000000000D+00 0.000000000000D+00 0.379842679829D-02 0.000000000000D+00  6 2 2 25 2 2 21 2 0.79472879D+00 0.34956271D+00 0.23687381D+06 0.23687381D+06 0.23687381D+06 0.10922256D+01  1  2  5  3  6  5        2 -.685991990653D-02 0.100000000000D+01
0.417028764828D+01 0.000000000000D+00 -.000000000000D+00 0.379842679829D-02 0.000000000000D+00  6 2 2 25 2 2 21 2 0.79472879D+00 0.34956271D+00 0.23687381D+06 0.23687381D+06 0.23687381D+06 0.10922256D+01  1  2  6  3  6  5        2 0.831138168872D-02 0.100000000000D+01
  </mgrwgt>
  </event>
  <event>
  5     66 -.18204334E-05 0.70498770E+02 0.75467711E-02 0.92837980E-01
        2 -1    0    0  501    0 0.00000000E+00 0.00000000E+00 0.73013474E+03 0.73013481E+03 0.32000000E+00 0.0000E+00 0.9000E+01
        2 -1    0    0  502    0 0.00000000E+00 0.00000000E+00 -.62893680E+03 0.62893688E+03 0.32000000E+00 0.0000E+00 0.9000E+01
       25  1    1    2    0    0 0.28861327E+03 0.51017198E+03 0.27233053E+03 0.65830235E+03 0.12500000E+03 0.0000E+00 0.9000E+01
        2  1    1    2  501    0 -.40673942E+02 -.57782393E+02 0.96495659E+02 0.11960221E+03 0.32000000E+00 0.0000E+00 0.9000E+01
        2  1    1    2  502    0 -.24793932E+03 -.45238959E+03 -.26762825E+03 0.58116713E+03 0.32000000E+00 0.0000E+00 0.9000E+01
#aMCatNLO 1  0  0  5  1 0.21368490D+03 0.00000000D+00  -5  6  0 0.00000000D+00 0.00000000D+00 0.00000000D+00 0.00000000D+00 0.00000000D+00
  <mgrwgt>
 -.5229197925D-02    6    2    0
 0.677649399863253D+03 0.000000000000000D+00 0.000000000000000D+00 0.677649399863253D+03
 0.677649399863253D+03 -.000000000000000D+00 -.000000000000000D+00 -.677649399863253D+03
 0.639893125284017D+03 0.288603758948412D+03 0.510182134571782D+03 0.224188027491151D+03
 0.112468494963856D+03 -.405797560731187D+02 -.576485900786217D+02 0.876303932344720D+02
 0.602937179478632D+03 -.248024002875293D+03 -.452533544493161D+03 -.311818420725623D+03
 0.000000000000000D+00 0.000000000000000D+00 0.000000000000000D+00 -.000000000000000D+00
 0.677649399863253D+03 0.000000000000000D+00 0.000000000000000D+00 0.677649399863253D+03
 0.677649399863253D+03 -.000000000000000D+00 -.000000000000000D+00 -.677649399863253D+03
 0.632825855289395D+03 0.285590288040302D+03 0.504683889823432D+03 0.220399459737320D+03
 0.112644502869710D+03 -.411127657008239D+02 -.586210956961353D+02 0.869602878478326D+02
 0.431967151228654D+03 -.179961466552886D+03 -.354316500062219D+03 -.169320134893616D+03
 0.177861290338746D+03 -.645160557865917D+02 -.917462940650773D+02 -.138039612691537D+03
0.146172633838D-04 0.000000000000D+00 0.000000000000D+00 0.128943651691D-07 0.000000000000D+00  6 2 2 25 2 2 21 0 0.11232843D+00 0.96759519D-01 0.35157740D+06 0.35157740D+06 0.35157740D+06 0.10794909D+01  1  2  2  3  6  5        2 0.423902240130D-03 0.100000000000D+01
0.228266180198D-05 0.000000000000D+00 -.561341402077D-07 0.128943651691D-07 0.000000000000D+00  6 2 2 25 2 2 21 2 0.11232843D+00 0.96759519D-01 0.35157740D+06 0.35157740D+06 0.35157740D+06 0.10794909D+01  1  2  3  3  6  5        2 0.771399161108D-04 0.100000000000D+01
-.876259815382D-05 0.000000000000D+00 0.000000000000D+00 0.128943651691D-07 0.000000000000D+00  6 2 2 25 2 2 21 2 0.11232843D+00 0.96759519D-01 0.35157740D+06 0.35157740D+06 0.35157740D+06 0.10794909D+01  1  2 15  3  6  5        2 -.296121872242D-03 0.100000000000D+01
-.189210501082D-03 0.000000000000D+00 0.000000000000D+00 0.128943651691D-07 0.000000000000D+00  6 2 2 25 2 2 21 2 0.11232843D+00 0.96759519D-01 0.35157740D+06 0.35157740D+06 0.35157740D+06 0.10794909D+01  1  2  4  3  6  5        2 -.639415009620D-02 0.100000000000D+01
-.845560503388D-04 0.000000000000D+00 0.000000000000D+00 0.128943651691D-07 0.000000000000D+00  6 2 2 25 2 2 21 2 0.11232843D+00 0.96759519D-01 0.35157740D+06 0.35157740D+06 0.35157740D+06 0.10794909D+01  1  2  5  3  6  5        2 -.285747394736D-02 0.100000000000D+01
0.112964534916D-03 0.000000000000D+00 -.000000000000D+00 0.128943651691D-07 0.000000000000D+00  6 2 2 25 2 2 21 2 0.11232843D+00 0.96759519D-01 0.35157740D+06 0.35157740D+06 0.35157740D+06 0.10794909D+01  1  2  6  3  6  5        2 0.381750583435D-02 0.100000000000D+01
  </mgrwgt>
  </event>
  <event>
  5     66 0.18204334E-05 0.20002537E+02 0.75467711E-02 0.94969774E-01
        2 -1    0    0  501    0 0.00000000E+00 0.00000000E+00 0.18376656E+04 0.18376656E+04 0.32000000E+00 0.0000E+00 0.9000E+01
        2 -1    0    0  502    0 0.00000000E+00 0.00000000E+00 -.10629396E+04 0.10629396E+04 0.32000000E+00 0.0000E+00 0.9000E+01
       25  1    1    2    0    0 0.16841186E+03 0.45774710E+03 0.73297992E+03 0.88925785E+03 0.12500000E+03 0.0000E+00 0.9000E+01
        2  1    1    2  501    0 0.25826272E+01 0.19839101E+02 0.96111089E+03 0.96131914E+03 0.32000000E+00 0.0000E+00 0.9000E+01
        2  1    1    2  502    0 -.17099448E+03 -.47758620E+03 -.91936476E+03 0.10500283E+04 0.32000000E+00 0.0000E+00 0.9000E+01
#aMCatNLO 1  0  0  5  2 0.41311404D+03 0.00000000D+00  -5  6  0 0.00000000D+00 0.00000000D+00 0.00000000D+00 0.00000000D+00 0.00000000D+00
  <mgrwgt>
 0.1472815405D-01    4    2    0
 0.139761496934724D+04 0.000000000000000D+00 0.000000000000000D+00 0.139761496934724D+04
 0.139761496934724D+04 -.000000000000000D+00 -.000000000000000D+00 -.139761496934724D+04
 0.719763507639068D+03 0.168431041276540D+03 0.457802893926176D+03 0.514278136397236D+03
 0.731032888682168D+03 0.258211605680351D+01 0.198351744152409D+02 0.730759182540720D+03
 0.134443354237324D+04 -.171013157333343D+03 -.477638068341417D+03 -.124503731893796D+04
 0.000000000000000D+00 0.000000000000000D+00 0.000000000000000D+00 -.000000000000000D+00
 0.139761496934724D+04 0.000000000000000D+00 0.000000000000000D+00 0.139761496934724D+04
 0.139761496934724D+04 -.000000000000000D+00 -.000000000000000D+00 -.139761496934724D+04
 0.636823363513522D+03 0.156786766051779D+03 0.425280547620685D+03 0.429503622945313D+03
 0.644971420593610D+03 -.922882891721814D+01 -.131526788625171D+02 0.644771253343459D+03
 0.451195163752434D+03 -.180486429936668D+03 -.413333183459554D+03 -.125460692447129D+02
 0.106223999083491D+04 0.329284928021068D+02 0.120531470138513D+01 -.106172880704406D+04
0.546796719146D-02 0.000000000000D+00 0.000000000000D+00 0.641034086658D-04 0.000000000000D+00  6 2 2 25 2 2 21 0 0.28271779D+00 0.16352917D+00 0.26568728D+06 0.26568728D+06 0.26568728D+06 0.10884763D+01  1  2  2  3  6  5        2 0.179095197855D-01 0.100000000000D+01
0.381305340445D-02 0.000000000000D+00 -.209984337640D-04 0.641034086658D-04 0.000000000000D+00  6 2 2 25 2 2 21 2 0.28271779D+00 0.16352917D+00 0.26568728D+06 0.26568728D+06 0.26568728D+06 0.10884763D+01  1  2  3  3  6  5        2 0.147968364301D-01 0.100000000000D+01
-.361708481867D-02 0.000000000000D+00 0.000000000000D+00 0.641034086658D-04 0.000000000000D+00  6 2 2 25 2 2 21 2 0.28271779D+00 0.16352917D+00 0.26568728D+06 0.26568728D+06 0.26568728D+06 0.10884763D+01  1  2 15  3  6  5        2 -.140363658042D-01 0.100000000000D+01
-.101578689638D-02 0.000000000000D+00 0.000000000000D+00 0.641034086658D-04 0.000000000000D+00  6 2 2 25 2 2 21 2 0.28271779D+00 0.16352917D+00 0.26568728D+06 0.26568728D+06 0.26568728D+06 0.10884763D+01  1  2  5  3  6  5        2 -.394183636034D-02 0.100000000000D+01
  </mgrwgt>
  </event>
  <event>
  5     66 0.18204334E-05 0.69036720E+02 0.75467711E-02 0.91870254E-01
        2 -1    0    0  501    0 0.00000000E+00 0.00000000E+00 0.12441359E+04 0.12441359E+04 0.32000000E+00 0.0000E+00 0.9000E+01
        2 -1    0    0  502    0 -.00000000E+00 -.00000000E+00 -.14289751E+04 0.14289751E+04 0.32000000E+00 0.0000E+00 0.9000E+01
       25  1    1    2    0    0 -.35529579E+03 0.45157751E+03 0.47407971E+03 0.75533696E+03 0.12500000E+03 0.0000E+00 0.9000E+01
        2  1    1    2  501    0 0.61240704E+01 0.68784397E+02 0.55094248E+03 0.55525356E+03 0.32000000E+00 0.0000E+00 0.9000E+01
        2  1    1    2  502    0 0.34917172E+03 -.52036191E+03 -.12098614E+04 0.13625205E+04 0.32000000E+00 0.0000E+00 0.9000E+01
#aMCatNLO 1  0  0  5  2 0.23832222D+02 0.00000000D+00  -5  6  0 0.00000000D+00 0.00000000D+00 0.00000000D+00 0.00000000D+00 0.00000000D+00
  <mgrwgt>
 0.2554485221D-02    8    2    0
 0.133335637408826D+04 0.000000000000000D+00 0.000000000000000D+00 0.133335637408826D+04
 0.133335637408826D+04 -.000000000000000D+00 -.000000000000000D+00 -.133335637408826D+04
 0.790167141677391D+03 -.355334884179154D+03 0.451654608790647D+03 0.527716160667998D+03
 0.594603252207738D+03 0.612231799987928D+01 0.687647146256716D+02 0.590581881520909D+03
 0.128194235429139D+04 0.349212566179275D+03 -.520419323416319D+03 -.111829804218891D+04
 0.000000000000000D+00 0.000000000000000D+00 0.000000000000000D+00 0.000000000000000D+00
 0.133335637408826D+04 0.000000000000000D+00 0.000000000000000D+00 0.133335637408826D+04
 0.133335637408826D+04 -.000000000000000D+00 -.000000000000000D+00 -.133335637408826D+04
 0.789916955024207D+03 -.355262158522988D+03 0.451546228278482D+03 0.527483268250073D+03
 0.594420321779029D+03 0.617704452981243D+01 0.686831575843762D+02 0.590406628459573D+03
 0.723474102228341D+03 0.174343553582511D+03 -.292759277723337D+03 -.638209297351767D+03
 0.558901369144945D+03 0.174741560410665D+03 -.227470108139522D+03 -.479680599357879D+03
0.139913336882D-04 0.000000000000D+00 0.000000000000D+00 0.418915252787D-05 0.000000000000D+00  6 2 2 25 2 2 21 0 0.19140552D+00 0.21984232D+00 0.41208589D+06 0.41208589D+06 0.41208589D+06 0.10744969D+01  1  2  2  3  6  5        2 0.583417210483D-04 0.100000000000D+01
0.392761079121D-05 0.000000000000D+00 -.537304053655D-07 0.418915252787D-05 0.000000000000D+00  6 2 2 25 2 2 21 2 0.19140552D+00 0.21984232D+00 0.41208589D+06 0.41208589D+06 0.41208589D+06 0.10744969D+01  1  2  3  3  6  5        2 0.189085797821D-04 0.100000000000D+01
-.968159743498D-05 0.000000000000D+00 0.000000000000D+00 0.418915252787D-05 0.000000000000D+00  6 2 2 25 2 2 21 2 0.19140552D+00 0.21984232D+00 0.41208589D+06 0.41208589D+06 0.41208589D+06 0.10744969D+01  1  2 15  3  6  5        2 -.466098264948D-04 0.100000000000D+01
0.204213742823D-02 0.000000000000D+00 0.000000000000D+00 0.418915252787D-05 0.000000000000D+00  6 2 2 25 2 2 21 2 0.19140552D+00 0.21984232D+00 0.41250346D+06 0.41250346D+06 0.41250346D+06 0.10744653D+01  1  2 12  3  6  5        2 0.983020293996D-02 0.100000000000D+01
0.267335303650D-09 0.000000000000D+00 0.000000000000D+00 0.418915252787D-05 0.000000000000D+00  6 2 2 25 2 2 21 2 0.19140552D+00 0.21984232D+00 0.41250346D+06 0.41250346D+06 0.41250346D+06 0.10744653D+01  1  2 12  3  6  5        2 0.128686750047D-08 0.100000000000D+01
-.257918318286D-02 0.000000000000D+00 0.000000000000D+00 0.418915252787D-05 0.000000000000D+00  6 2 2 25 2 2 21 2 0.19140552D+00 0.21984232D+00 0.41208589D+06 0.41208589D+06 0.41208589D+06 0.10744969D+01  1  2  4  3  6  5        2 -.124168848642D-01 0.100000000000D+01
-.205201518220D-02 0.000000000000D+00 0.000000000000D+00 0.418915252787D-05 0.000000000000D+00  6 2 2 25 2 2 21 2 0.19140552D+00 0.21984232D+00 0.41208589D+06 0.41208589D+06 0.41208589D+06 0.10744969D+01  1  2  5  3  6  5        2 -.987895564233D-02 0.100000000000D+01
0.311355205475D-02 0.000000000000D+00 -.000000000000D+00 0.418915252787D-05 0.000000000000D+00  6 2 2 25 2 2 21 2 0.19140552D+00 0.21984232D+00 0.41208589D+06 0.41208589D+06 0.41208589D+06 0.10744969D+01  1  2  6  3  6  5        2 0.149894810261D-01 0.100000000000D+01
  </mgrwgt>
  </event>
  <event>
  5     66 -.18204334E-05 0.14322850E+02 0.75467711E-02 0.91191136E-01
        2 -1    0    0  501    0 0.00000000E+00 0.00000000E+00 0.12672357E+04 0.12672357E+04 0.32000000E+00 0.0000E+00 0.9000E+01
        2 -1    0    0  502    0 0.00000000E+00 0.00000000E+00 -.51333031E+03 0.51333041E+03 0.32000000E+00 0.0000E+00 0.9000E+01
       25  1    1    2    0    0 -.21005931E+03 0.62207495E+03 0.76469887E+03 0.10156237E+04 0.12500000E+03 0.0000E+00 0.9000E+01
        2  1    1    2  501    0 -.74643466E+01 0.12312643E+02 0.86133829E+02 0.87329586E+02 0.32000000E+00 0.0000E+00 0.9000E+01
        2  1    1    2  502    0 0.21752366E+03 -.63438759E+03 -.96927319E+02 0.67761285E+03 0.32000000E+00 0.0000E+00 0.9000E+01
#aMCatNLO 1  0  0  2  5 0.15959730D+02 0.00000000D+00  -5  6  0 0.00000000D+00 0.00000000D+00 0.00000000D+00 0.00000000D+00 0.00000000D+00
  <mgrwgt>
 -.1218056234D-01    7    2    0
 0.806542381881797D+03 0.000000000000000D+00 0.000000000000000D+00 0.806542381881797D+03
 0.806542381881797D+03 0.000000000000000D+00 0.000000000000000D+00 -.806542381881797D+03
 0.763928399609574D+03 -.210131989751653D+03 0.622249889434161D+03 0.369609553058670D+03
 0.558444936721626D+02 -.742511385551468D+01 0.122479271207739D+02 0.539765082140097D+02
 0.793311870481857D+03 0.217557103607168D+03 -.634497816554935D+03 -.423586061272679D+03
 0.000000000000000D+00 -.000000000000000D+00 0.000000000000000D+00 -.000000000000000D+00
 0.806699517475634D+03 0.000000000000000D+00 0.000000000000000D+00 0.806699517475634D+03
 0.134778513463262D+04 0.000000000000000D+00 0.000000000000000D+00 -.134778513463262D+04
 0.757991446880950D+03 -.205111865666179D+03 0.616639225475792D+03 0.369609553058670D+03
 0.557079336416193D+02 -.705715293533721D+01 0.118366812954164D+02 0.539765082140097D+02
 0.799464333444991D+03 0.222810950715175D+03 -.640369697430743D+03 -.423586061272679D+03
 0.541320938140691D+03 -.106419321136588D+02 0.118937906595344D+02 -.541085617156983D+03
0.132678481574D-05 0.000000000000D+00 0.000000000000D+00 0.120918040996D-06 0.000000000000D+00  6 2 2 25 2 2 21 0 0.19495935D+00 0.78973905D-01 0.45808851D+06 0.45808851D+06 0.45808851D+06 0.10712079D+01  1  2  2  2  6  2        2 0.220248161664D-04 0.100000000000D+01
0.630939738590D-06 0.000000000000D+00 -.509520304289D-08 0.120918040996D-06 0.000000000000D+00  6 2 2 25 2 2 21 2 0.19495935D+00 0.78973905D-01 0.45808851D+06 0.45808851D+06 0.45808851D+06 0.10712079D+01  1  2  3  2  6  2        2 0.120184156331D-04 0.100000000000D+01
-.903574766990D-06 0.000000000000D+00 0.000000000000D+00 0.120918040996D-06 0.000000000000D+00  6 2 2 25 2 2 21 2 0.19495935D+00 0.78973905D-01 0.45808851D+06 0.45808851D+06 0.45808851D+06 0.10712079D+01  1  2 15  2  6  2        2 -.172116866970D-04 0.100000000000D+01
-.104675574613D-02 0.000000000000D+00 0.000000000000D+00 0.120918040996D-06 0.000000000000D+00  6 2 2 25 2 2 21 2 0.19495935D+00 0.78973905D-01 0.45808851D+06 0.45808851D+06 0.45808851D+06 0.10712079D+01  1  2  4  2  6  2        2 -.199390605060D-01 0.100000000000D+01
-.126508655406D-02 0.000000000000D+00 -.918596593870D-06 0.120918040996D-06 0.000000000000D+00  6 2 2 25 2 2 21 2 0.19495935D+00 0.13197894D+00 0.45808851D+06 0.45808851D+06 0.45808851D+06 0.10712079D+01  1  2  5  2  6  2        2 -.128614735194D-01 0.100000000000D+01
0.111534452302D-02 0.000000000000D+00 0.809495210150D-06 0.120918040996D-06 0.000000000000D+00  6 2 2 25 2 2 21 2 0.19495935D+00 0.78973905D-01 0.45808851D+06 0.45808851D+06 0.45808851D+06 0.10712079D+01  1  2  6  2  6  2        2 0.212455694766D-01 0.100000000000D+01
-.728210713150D-04 0.000000000000D+00 -.529073628152D-07 0.120918040996D-06 0.000000000000D+00  6 2 21 25 2 2 -2 2 0.19495935D+00 0.13197894D+00 0.45808851D+06 0.45808851D+06 0.45808851D+06 0.10712079D+01  1  2  5  5  6  2        2 -.642429338961D-03 0.100000000000D+01
  </mgrwgt>
  </event>
  <event>
  5     66 0.18204334E-05 0.17306807E+03 0.75467711E-02 0.92873701E-01
        2 -1    0    0  501    0 0.00000000E+00 0.00000000E+00 0.27730885E+04 0.27730886E+04 0.32000000E+00 0.0000E+00 0.9000E+01
        2 -1    0    0  502    0 0.00000000E+00 0.00000000E+00 -.17054952E+04 0.17054952E+04 0.32000000E+00 0.0000E+00 0.9000E+01
       25  1    1    2    0    0 -.12839703E+03 0.52205404E+03 0.71942993E+03 0.90676934E+03 0.12500000E+03 0.0000E+00 0.9000E+01
        2  1    1    2  501    0 0.12658155E+03 -.11803893E+03 0.19307391E+04 0.19384813E+04 0.32000000E+00 0.0000E+00 0.9000E+01
        2  1    1    2  502    0 0.18154834E+01 -.40401511E+03 -.15825756E+04 0.16333332E+04 0.32000000E+00 0.0000E+00 0.9000E+01
#aMCatNLO 1  0  0  2  5 0.26076733D+02 0.00000000D+00  -5  6  0 0.00000000D+00 0.00000000D+00 0.00000000D+00 0.00000000D+00 0.00000000D+00
  <mgrwgt>
 0.1127861847D-01   11    2    0
 0.217473889609365D+04 0.000000000000000D+00 0.000000000000000D+00 0.217473889609365D+04
 0.217473889609365D+04 0.000000000000000D+00 0.000000000000000D+00 -.217473889609365D+04
 0.757176955334425D+03 -.128390213070656D+03 0.522075396108049D+03 0.518309922397600D+03
 0.152202583334861D+04 0.126574114858007D+03 -.118031995558175D+03 0.151215411875013D+04
 0.207027500350427D+04 0.181609821264973D+01 -.404043400549873D+03 -.203046404114773D+04
 0.000000000000000D+00 -.000000000000000D+00 0.000000000000000D+00 -.000000000000000D+00
 0.217555389989358D+04 0.000000000000000D+00 0.000000000000000D+00 0.217555389989358D+04
 0.239387165830265D+04 0.000000000000000D+00 0.000000000000000D+00 -.239387165830265D+04
 0.754085729078950D+03 -.126166443990296D+03 0.518128497146769D+03 0.518309922397600D+03
 0.152304221282821D+04 0.131054823763560D+03 -.125984667209793D+03 0.151215411875013D+04
 0.207242801942049D+04 0.791193779534426D+01 -.414862717685610D+03 -.203046404114773D+04
 0.219869596868581D+03 -.128003175686086D+02 0.227188877486334D+02 -.218317758409068D+03
0.191657414341D-03 0.000000000000D+00 0.000000000000D+00 0.394584543691D-04 0.000000000000D+00  6 2 2 25 2 2 21 0 0.42662901D+00 0.26238388D+00 0.31870900D+06 0.31870900D+06 0.31870900D+06 0.10826134D+01  1  2  2  2  6  2        2 0.790553722519D-04 0.100000000000D+01
0.282076840492D-04 0.000000000000D+00 -.736014935624D-06 0.394584543691D-04 0.000000000000D+00  6 2 2 25 2 2 21 2 0.42662901D+00 0.26238388D+00 0.31870900D+06 0.31870900D+06 0.31870900D+06 0.10826134D+01  1  2  3  2  6  2        2 0.136370362281D-04 0.100000000000D+01
-.130131785189D-03 0.000000000000D+00 0.000000000000D+00 0.394584543691D-04 0.000000000000D+00  6 2 2 25 2 2 21 2 0.42662901D+00 0.26238388D+00 0.31870900D+06 0.31870900D+06 0.31870900D+06 0.10826134D+01  1  2 15  2  6  2        2 -.629123562912D-04 0.100000000000D+01
0.430310521850D-01 0.000000000000D+00 0.000000000000D+00 0.394584543691D-04 0.000000000000D+00  6 2 2 25 2 2 21 2 0.42662901D+00 0.29434076D+00 0.34253352D+06 0.34253352D+06 0.34253352D+06 0.10803172D+01  1  2 12  2  6  2        2 0.158386566763D-01 0.100000000000D+01
0.610136342674D-10 0.000000000000D+00 0.000000000000D+00 0.394584543691D-04 0.000000000000D+00  6 2 2 25 2 2 21 2 0.42662901D+00 0.28889106D+00 0.34253352D+06 0.34253352D+06 0.34253352D+06 0.10803172D+01  1  2 12  2  6  2        2 0.234824595711D-10 0.100000000000D+01
-.196084825512D-01 0.000000000000D+00 0.000000000000D+00 0.394584543691D-04 0.000000000000D+00  6 2 2 25 2 2 21 2 0.42662901D+00 0.26238388D+00 0.31870900D+06 0.31870900D+06 0.31870900D+06 0.10826134D+01  1  2  4  2  6  2        2 -.947974269924D-02 0.100000000000D+01
-.532202372646D-01 0.000000000000D+00 -.412248514782D-03 0.394584543691D-04 0.000000000000D+00  6 2 2 25 2 2 21 2 0.42662901D+00 0.28885919D+00 0.31870900D+06 0.31870900D+06 0.31870900D+06 0.10826134D+01  1  2  5  2  6  2        2 -.207302719479D-01 0.100000000000D+01
0.530166095447D-01 0.000000000000D+00 0.410351003967D-03 0.394584543691D-04 0.000000000000D+00  6 2 2 25 2 2 21 2 0.42662901D+00 0.26238388D+00 0.31870900D+06 0.31870900D+06 0.31870900D+06 0.10826134D+01  1  2  6  2  6  2        2 0.256309388530D-01 0.100000000000D+01
0.793407507036D-03 0.000000000000D+00 0.000000000000D+00 0.394584543691D-04 0.000000000000D+00  6 2 21 25 2 2 -2 2 0.42662901D+00 0.29434076D+00 0.34253352D+06 0.34253352D+06 0.34253352D+06 0.10803172D+01  1  2 12  5  6  2        2 0.632062906992D-04 0.100000000000D+01
0.966143760312D-12 0.000000000000D+00 0.000000000000D+00 0.394584543691D-04 0.000000000000D+00  6 2 21 25 2 2 -2 2 0.42662901D+00 0.28889106D+00 0.34253352D+06 0.34253352D+06 0.34253352D+06 0.10803172D+01  1  2 12  5  6  2        2 0.836626054661D-13 0.100000000000D+01
-.840569107196D-03 0.000000000000D+00 -.647085939176D-05 0.394584543691D-04 0.000000000000D+00  6 2 21 25 2 2 -2 2 0.42662901D+00 0.28885919D+00 0.31870900D+06 0.31870900D+06 0.31870900D+06 0.10826134D+01  1  2  5  5  6  2        2 -.739487824648D-04 0.100000000000D+01
  </mgrwgt>
  </event>
  <event>
  5     66 -.18204334E-05 0.65407246E+02 0.75467711E-02 0.89049107E-01
        2 -1    0    0  501    0 0.00000000E+00 0.00000000E+00 0.86098630E+03 0.86098636E+03 0.32000000E+00 0.0000E+00 0.9000E+01
        2 -1    0    0  502    0 0.00000000E+00 0.00000000E+00 -.16817614E+04 0.16817615E+04 0.32000000E+00 0.0000E+00 0.9000E+01
       25  1    1    2    0    0 0.49120018E+03 -.59402103E+03 -.64569880E+03 0.10132574E+04 0.12500000E+03 0.0000E+00 0.9000E+01
        2  1    1    2  501    0 0.38327255E+02 -.53017669E+02 0.46933630E+03 0.47387395E+03 0.32000000E+00 0.0000E+00 0.9000E+01
        2  1    1    2  502    0 -.52952744E+03 0.64703870E+03 -.64441263E+03 0.10556165E+04 0.32000000E+00 0.0000E+00 0.9000E+01
#aMCatNLO 1  0  0  1  4 0.61255722D+01 0.00000000D+00  -5  6  0 0.00000000D+00 0.00000000D+00 0.00000000D+00 0.00000000D+00 0.00000000D+00
  <mgrwgt>
 -.2380311316D-01   13    2    0
 0.120331776981825D+04 0.000000000000000D+00 0.000000000000000D+00 0.120331776981825D+04
 0.120331776981825D+04 0.000000000000000D+00 0.000000000000000D+00 -.120331776981825D+04
 0.850428891925421D+03 0.491267884904788D+03 -.594103945524476D+03 -.336601644967646D+03
 0.660605773724590D+03 0.383194456512546D+02 -.530068669185481D+02 0.657359780046455D+03
 0.895600873986499D+03 -.529587330556042D+03 0.647110812443024D+03 -.320758135078809D+03
 0.000000000000000D+00 0.000000000000000D+00 -.000000000000000D+00 0.000000000000000D+00
 0.147751201995386D+04 0.000000000000000D+00 0.000000000000000D+00 0.147751201995386D+04
 0.120335587985605D+04 0.000000000000000D+00 0.000000000000000D+00 -.120335587985605D+04
 0.848544764293349D+03 0.489485706505365D+03 -.592879661264977D+03 -.336601644967646D+03
 0.660451127420644D+03 0.369336919257556D+02 -.520549103275469D+02 0.657359780046455D+03
 0.897647443572006D+03 -.531468400580087D+03 0.648403031236720D+03 -.320758135078809D+03
 0.274224564523919D+03 0.504900214896657D+01 -.346845964419622D+01 0.274156140097808D+03
0.203183882913D-05 0.000000000000D+00 0.000000000000D+00 0.282951752620D-06 0.000000000000D+00  6 2 2 25 2 2 21 0 0.13245944D+00 0.25873253D+00 0.70776666D+06 0.70776666D+06 0.70776666D+06 0.10580049D+01  1  2  2  1  6  1        2 0.102586865574D-04 0.100000000000D+01
0.865744890118D-06 0.000000000000D+00 -.780279609933D-08 0.282951752620D-06 0.000000000000D+00  6 2 2 25 2 2 21 2 0.13245944D+00 0.25873253D+00 0.70776666D+06 0.70776666D+06 0.70776666D+06 0.10580049D+01  1  2  3  1  6  1        2 0.489291617519D-05 0.100000000000D+01
-.131913575525D-05 0.000000000000D+00 0.000000000000D+00 0.282951752620D-06 0.000000000000D+00  6 2 2 25 2 2 21 2 0.13245944D+00 0.25873253D+00 0.70776666D+06 0.70776666D+06 0.70776666D+06 0.10580049D+01  1  2 15  1  6  1        2 -.745533788051D-05 0.100000000000D+01
0.633975240996D-02 0.000000000000D+00 0.000000000000D+00 0.282951752620D-06 0.000000000000D+00  6 2 2 25 2 2 21 2 0.16433833D+00 0.25873253D+00 0.71171295D+06 0.71171295D+06 0.71171295D+06 0.10578393D+01  1  2 12  1  6  1        2 0.263471945257D-01 0.100000000000D+01
0.295359567089D-07 0.000000000000D+00 0.000000000000D+00 0.282951752620D-06 0.000000000000D+00  6 2 2 25 2 2 21 2 0.16264638D+00 0.25873253D+00 0.71171295D+06 0.71171295D+06 0.71171295D+06 0.10578393D+01  1  2 12  1  6  1        2 0.124674118155D-06 0.100000000000D+01
-.126111434674D-01 0.000000000000D+00 0.000000000000D+00 0.282951752620D-06 0.000000000000D+00  6 2 2 25 2 2 21 2 0.13245944D+00 0.25873253D+00 0.70776666D+06 0.70776666D+06 0.70776666D+06 0.10580049D+01  1  2  4  1  6  1        2 -.712741923904D-01 0.100000000000D+01
-.827270957101D-02 0.000000000000D+00 -.253306654857D-05 0.282951752620D-06 0.000000000000D+00  6 2 2 25 2 2 21 2 0.16264427D+00 0.25873253D+00 0.70776666D+06 0.70776666D+06 0.70776666D+06 0.10580049D+01  1  2  5  1  6  1        2 -.349434339386D-01 0.100000000000D+01
0.810195893171D-02 0.000000000000D+00 0.248061181254D-05 0.282951752620D-06 0.000000000000D+00  6 2 2 25 2 2 21 2 0.13245944D+00 0.25873253D+00 0.70776666D+06 0.70776666D+06 0.70776666D+06 0.10580049D+01  1  2  6  1  6  1        2 0.457897082157D-01 0.100000000000D+01
0.243860579481D-02 0.000000000000D+00 0.000000000000D+00 0.282951752620D-06 0.800093379288D-07  6 2 2 25 2 2 21 2 0.16264233D+00 0.25874073D+00 0.71171295D+06 0.71171295D+06 0.71171295D+06 0.10578393D+01  1  2 11  1  6  1        2 0.102932761812D-01 0.100000000000D+01
0.192138458733D-03 0.000000000000D+00 0.000000000000D+00 0.282951752620D-06 0.000000000000D+00  6 21 2 25 2 2 -2 2 0.16433833D+00 0.25873253D+00 0.71171295D+06 0.71171295D+06 0.71171295D+06 0.10578393D+01  1  2 12  4  6  1        2 0.481964781132D-03 0.100000000000D+01
0.862315406981D-09 0.000000000000D+00 0.000000000000D+00 0.282951752620D-06 0.000000000000D+00  6 21 2 25 2 2 -2 2 0.16264638D+00 0.25873253D+00 0.71171295D+06 0.71171295D+06 0.71171295D+06 0.10578393D+01  1  2 12  4  6  1        2 0.223426065483D-08 0.100000000000D+01
-.241483277344D-03 0.000000000000D+00 -.739504374693D-07 0.282951752620D-06 0.000000000000D+00  6 21 2 25 2 2 -2 2 0.16264427D+00 0.25873253D+00 0.70776666D+06 0.70776666D+06 0.70776666D+06 0.10580049D+01  1  2  5  4  6  1        2 -.626262486634D-03 0.100000000000D+01
0.466258213319D-04 0.000000000000D+00 0.000000000000D+00 0.282951752620D-06 0.141541854328D-08  6 21 2 25 2 2 -2 2 0.16264233D+00 0.25874073D+00 0.71171295D+06 0.71171295D+06 0.71171295D+06 0.10578393D+01  1  2 11  4  6  1        2 0.120808778523D-03 0.100000000000D+01
  </mgrwgt>
  </event>
  <event>
  5     66 0.18204334E-05 0.24086175E+02 0.75467711E-02 0.93116135E-01
        2 -1    0    0  501    0 0.00000000E+00 0.00000000E+00 0.11399964E+04 0.11399965E+04 0.32000000E+00 0.0000E+00 0.9000E+01
        2 -1    0    0  502    0 0.00000000E+00 0.00000000E+00 -.25089309E+04 0.25089309E+04 0.32000000E+00 0.0000E+00 0.9000E+01
       25  1    1    2    0    0 0.23567066E+03 -.48334839E+03 -.21656949E+03 0.59303767E+03 0.12500000E+03 0.0000E+00 0.9000E+01
        2  1    1    2  501    0 -.21575176E+02 -.10709831E+02 0.91715379E+03 0.91747009E+03 0.32000000E+00 0.0000E+00 0.9000E+01
        2  1    1    2  502    0 -.21409548E+03 0.49405823E+03 -.20695188E+04 0.21384196E+04 0.32000000E+00 0.0000E+00 0.9000E+01
#aMCatNLO 1  0  0  2  4 0.19049129D+03 0.00000000D+00  -5  6  0 0.00000000D+00 0.00000000D+00 0.00000000D+00 0.00000000D+00 0.00000000D+00
  <mgrwgt>
 0.4393716844D-01    7    2    0
 0.169120441659224D+04 0.000000000000000D+00 0.000000000000000D+00 0.169120441659224D+04
 0.169120441659224D+04 0.000000000000000D+00 0.000000000000000D+00 -.169120441659224D+04
 0.552158842725309D+03 0.235687517583568D+03 -.483388534250476D+03 0.642702187830366D+01
 0.136090208978935D+04 -.215743420454502D+02 -.107094170828124D+02 0.136068892629582D+04
 0.146934790066982D+04 -.214113175538118D+03 0.494097951333288D+03 -.136711594817413D+04
 0.000000000000000D+00 -.000000000000000D+00 0.000000000000000D+00 -.000000000000000D+00
 0.169848817573727D+04 0.000000000000000D+00 0.000000000000000D+00 0.169848817573727D+04
 0.174177173542920D+04 0.000000000000000D+00 0.000000000000000D+00 -.174177173542920D+04
 0.558153994504556D+03 0.239354596581609D+03 -.488445444309211D+03 0.642702187830366D+01
 0.136094328313618D+04 -.125847837261267D+02 -.231060379117774D+02 0.136068892629582D+04
 0.146352567899984D+04 -.204426645087159D+03 0.480740204391413D+03 -.136711594817413D+04
 0.576369545258934D+02 -.223431677683233D+02 0.308112778295763D+02 -.432835596919329D+02
0.609616404306D-02 0.000000000000D+00 0.000000000000D+00 0.125748391551D-03 0.000000000000D+00  6 2 2 25 2 2 21 0 0.17538407D+00 0.38598938D+00 0.31064067D+06 0.31064067D+06 0.31064067D+06 0.10834337D+01  1  2  2  2  6  2        2 0.749232562432D-02 0.100000000000D+01
0.511705612532D-02 0.000000000000D+00 -.234108750822D-04 0.125748391551D-03 0.000000000000D+00  6 2 2 25 2 2 21 2 0.17538407D+00 0.38598938D+00 0.31064067D+06 0.31064067D+06 0.31064067D+06 0.10834337D+01  1  2  3  2  6  2        2 0.738218435695D-02 0.100000000000D+01
-.424552382740D-02 0.000000000000D+00 0.000000000000D+00 0.125748391551D-03 0.000000000000D+00  6 2 2 25 2 2 21 2 0.17538407D+00 0.38598938D+00 0.31064067D+06 0.31064067D+06 0.31064067D+06 0.10834337D+01  1  2 15  2  6  2        2 -.612485749973D-02 0.100000000000D+01
-.258904802753D-02 0.000000000000D+00 0.000000000000D+00 0.125748391551D-03 0.000000000000D+00  6 2 2 25 2 2 21 2 0.17538407D+00 0.38598938D+00 0.31064067D+06 0.31064067D+06 0.31064067D+06 0.10834337D+01  1  2  4  2  6  2        2 -.373512218356D-02 0.100000000000D+01
-.261521761973D+00 0.000000000000D+00 -.328040593683D-01 0.125748391551D-03 0.000000000000D+00  6 2 2 25 2 2 21 2 0.17538407D+00 0.39807964D+00 0.31064067D+06 0.31064067D+06 0.31064067D+06 0.10834337D+01  1  2  5  2  6  2        2 -.339469539628D+00 0.100000000000D+01
0.262424284135D+00 0.000000000000D+00 0.327884632226D-01 0.125748391551D-03 0.000000000000D+00  6 2 2 25 2 2 21 2 0.17538407D+00 0.38598938D+00 0.31064067D+06 0.31064067D+06 0.31064067D+06 0.10834337D+01  1  2  6  2  6  2        2 0.378589641735D+00 0.100000000000D+01
-.143351742243D-02 0.000000000000D+00 -.181225541626D-03 0.125748391551D-03 0.000000000000D+00  6 2 21 25 2 2 -2 2 0.17538407D+00 0.39807964D+00 0.31064067D+06 0.31064067D+06 0.31064067D+06 0.10834337D+01  1  2  5  5  6  2        2 -.197463964105D-03 0.100000000000D+01
  </mgrwgt>
  </event>
  <event>
  5     66 0.18204334E-05 0.13150866E+02 0.75467711E-02 0.91362267E-01
        2 -1    0    0  501    0 0.00000000E+00 0.00000000E+00 0.98521327E+03 0.98521332E+03 0.32000000E+00 0.0000E+00 0.9000E+01
        2 -1    0    0  502    0 0.00000000E+00 0.00000000E+00 -.14428337E+04 0.14428338E+04 0.32000000E+00 0.0000E+00 0.9000E+01
       25  1    1    2    0    0 0.10144953E+03 0.44765180E+03 -.14360894E+03 0.49692320E+03 0.12500000E+03 0.0000E+00 0.9000E+01
        2  1    1    2  501    0 -.11223951E+03 -.44013584E+03 0.74472020E+03 0.87231046E+03 0.32000000E+00 0.0000E+00 0.9000E+01
        2  1    1    2  502    0 0.10789982E+02 -.75159578E+01 -.10587317E+04 0.10588134E+04 0.32000000E+00 0.0000E+00 0.9000E+01
#aMCatNLO 1  0  0  2  5 0.37270945D+02 0.00000000D+00  -5  6  0 0.00000000D+00 0.00000000D+00 0.00000000D+00 0.00000000D+00 0.00000000D+00
  <mgrwgt>
 0.2187988810D-01    7    2    0
 0.119226634220379D+04 0.000000000000000D+00 0.000000000000000D+00 0.119226634220379D+04
 0.119226634220379D+04 0.000000000000000D+00 0.000000000000000D+00 -.119226634220379D+04
 0.478412148377094D+03 0.101445538007590D+03 0.447640644776999D+03 -.507921221920293D+02
 0.103112171509701D+04 -.112236476684590D+03 -.440123936259614D+03 0.925692111545390D+03
 0.874998820933478D+03 0.107909386769999D+02 -.751670851738515D+01 -.874899989353361D+03
 0.000000000000000D+00 -.000000000000000D+00 0.000000000000000D+00 -.000000000000000D+00
 0.125843846824103D+04 0.000000000000000D+00 0.000000000000000D+00 0.125843846824103D+04
 0.156129478669026D+04 0.000000000000000D+00 0.000000000000000D+00 -.156129478669026D+04
 0.486065968284714D+03 0.158835074339728D+03 0.439120376442815D+03 -.507921221920293D+02
 0.103301044494066D+04 0.105859964709666D+02 -.458358626686404D+03 0.925692111545390D+03
 0.882776630614918D+03 0.115384206681389D+03 -.230450219748968D+02 -.874899989353361D+03
 0.417880211091006D+03 -.284805277492084D+03 0.422832722184860D+02 -.302856318449225D+03
0.125349877725D-02 0.000000000000D+00 0.000000000000D+00 0.574875345495D-04 0.000000000000D+00  6 2 2 25 2 2 21 0 0.15157128D+00 0.22197443D+00 0.22234452D+06 0.22234452D+06 0.22234452D+06 0.10943101D+01  1  2  2  2  6  2        2 0.760166279289D-02 0.100000000000D+01
0.127603230376D-02 0.000000000000D+00 -.481376535845D-05 0.574875345495D-04 0.000000000000D+00  6 2 2 25 2 2 21 2 0.15157128D+00 0.22197443D+00 0.22234452D+06 0.22234452D+06 0.22234452D+06 0.10943101D+01  1  2  3  2  6  2        2 0.926674434314D-02 0.100000000000D+01
-.916889248588D-03 0.000000000000D+00 0.000000000000D+00 0.574875345495D-04 0.000000000000D+00  6 2 2 25 2 2 21 2 0.15157128D+00 0.22197443D+00 0.22234452D+06 0.22234452D+06 0.22234452D+06 0.10943101D+01  1  2 15  2  6  2        2 -.665859181824D-02 0.100000000000D+01
-.151069023476D-04 0.000000000000D+00 0.000000000000D+00 0.574875345495D-04 0.000000000000D+00  6 2 2 25 2 2 21 2 0.15157128D+00 0.22197443D+00 0.22234452D+06 0.22234452D+06 0.22234452D+06 0.10943101D+01  1  2  4  2  6  2        2 -.109708666042D-03 0.100000000000D+01
-.311081839340D-02 0.000000000000D+00 -.107252199487D-02 0.574875345495D-04 0.000000000000D+00  6 2 2 25 2 2 21 2 0.15157128D+00 0.29683880D+00 0.22234452D+06 0.22234452D+06 0.22234452D+06 0.10943101D+01  1  2  5  2  6  2        2 -.122846654993D-01 0.100000000000D+01
0.332486883071D-02 0.000000000000D+00 0.102876833518D-02 0.574875345495D-04 0.000000000000D+00  6 2 2 25 2 2 21 2 0.15157128D+00 0.22197443D+00 0.22234452D+06 0.22234452D+06 0.22234452D+06 0.10943101D+01  1  2  6  2  6  2        2 0.241457127205D-01 0.100000000000D+01
-.946336800402D-04 0.000000000000D+00 -.405175036964D-04 0.574875345495D-04 0.000000000000D+00  6 2 21 25 2 2 -2 2 0.15157128D+00 0.29683880D+00 0.22234452D+06 0.22234452D+06 0.22234452D+06 0.10943101D+01  1  2  5  5  6  2        2 -.812657773794D-04 0.100000000000D+01
  </mgrwgt>
  </event>
  <event>
  5     66 -.18204334E-05 0.66811043E+02 0.75467711E-02 0.94504434E-01
        2 -1    0    0  501    0 0.00000000E+00 0.00000000E+00 0.39966285E+04 0.39966285E+04 0.32000000E+00 0.0000E+00 0.9000E+01
        2 -1    0    0  502    0 0.00000000E+00 0.00000000E+00 -.34969920E+03 0.34969934E+03 0.32000000E+00 0.0000E+00 0.9000E+01
       25  1    1    2    0    0 -.43905505E+03 -.10776894E+03 0.13411756E+04 0.14208309E+04 0.12500000E+03 0.0000E+00 0.9000E+01
        2  1    1    2  501    0 0.43447198E+03 0.17441474E+03 0.25907826E+04 0.26327440E+04 0.32000000E+00 0.0000E+00 0.9000E+01
        2  1    1    2  502    0 0.45830766E+01 -.66645797E+02 -.28502893E+03 0.29275290E+03 0.32000000E+00 0.0000E+00 0.9000E+01
#aMCatNLO 1  0  0  5  1 0.19890655D+02 0.00000000D+00  -5  6  0 0.00000000D+00 0.00000000D+00 0.00000000D+00 0.00000000D+00 0.00000000D+00
  <mgrwgt>
 -.8378636353D-02    5    2    0
 0.118220899996389D+04 0.000000000000000D+00 0.000000000000000D+00 0.118220899996389D+04
 0.118220899996389D+04 -.000000000000000D+00 -.000000000000000D+00 -.118220899996389D+04
 0.543169861767495D+03 -.439015239526916D+03 -.107744818769930D+03 0.273980240571979D+03
 0.843413020455185D+03 0.434431335535429D+03 0.174398425547353D+03 0.701569759143627D+03
 0.977835117705108D+03 0.458390399148708D+01 -.666536067774237D+02 -.975549999715606D+03
 0.000000000000000D+00 0.000000000000000D+00 0.000000000000000D+00 -.000000000000000D+00
 0.118220899996389D+04 0.000000000000000D+00 0.000000000000000D+00 0.118220899996389D+04
 0.118220899996389D+04 -.000000000000000D+00 -.000000000000000D+00 -.118220899996389D+04
 0.543061350412269D+03 -.439014208443301D+03 -.107759811545072D+03 0.273760804558047D+03
 0.843125643524859D+03 0.434432936449086D+03 0.174375146990566D+03 0.701229051458544D+03
 0.296949898931974D+03 0.177138826961082D+02 -.315277654497329D+02 -.294739649252158D+03
 0.681281107058687D+03 -.131326107018929D+02 -.350875699957613D+02 -.680250206764434D+03
0.289624205140D-03 0.000000000000D+00 0.000000000000D+00 0.111212833644D-04 0.000000000000D+00  6 2 2 25 2 2 21 0 0.61486594D+00 0.53799889D-01 0.25197816D+06 0.25197816D+06 0.25197816D+06 0.10902017D+01  1  2  2  3  6  5        2 0.152346741260D-03 0.100000000000D+01
0.107904907522D-03 0.000000000000D+00 -.111223320754D-05 0.111212833644D-04 0.000000000000D+00  6 2 2 25 2 2 21 2 0.61486594D+00 0.53799889D-01 0.25197816D+06 0.25197816D+06 0.25197816D+06 0.10902017D+01  1  2  3  3  6  5        2 0.674610690062D-04 0.100000000000D+01
-.159022927889D-03 0.000000000000D+00 0.000000000000D+00 0.111212833644D-04 0.000000000000D+00  6 2 2 25 2 2 21 2 0.61486594D+00 0.53799889D-01 0.25197816D+06 0.25197816D+06 0.25197816D+06 0.10902017D+01  1  2 15  3  6  5        2 -.994195440989D-04 0.100000000000D+01
0.786547997588D-09 0.000000000000D+00 0.000000000000D+00 0.111212833644D-04 0.000000000000D+00  6 2 2 25 2 2 21 2 0.61486594D+00 0.53799889D-01 0.25540932D+06 0.25540932D+06 0.25540932D+06 0.10897604D+01  1  2 12  3  6  5        2 0.490736603739D-09 0.100000000000D+01
-.135943075325D-01 0.000000000000D+00 0.000000000000D+00 0.111212833644D-04 0.000000000000D+00  6 2 2 25 2 2 21 2 0.61486594D+00 0.53799889D-01 0.25197816D+06 0.25197816D+06 0.25197816D+06 0.10902017D+01  1  2  5  3  6  5        2 -.849902511012D-02 0.100000000000D+01
  </mgrwgt>
  </event>
  <event>
  5     66 0.18204334E-05 0.32365966E+02 0.75467711E-02 0.94549735E-01
        2 -1    0    0  501    0 0.00000000E+00 0.00000000E+00 0.10785220E+04 0.10785220E+04 0.32000000E+00 0.0000E+00 0.9000E+01
        2 -1    0    0  502    0 0.00000000E+00 0.00000000E+00 -.18249319E+04 0.18249319E+04 0.32000000E+00 0.0000E+00 0.9000E+01
       25  1    1    2    0    0 -.46832556E+03 -.50588629E+02 -.15124839E+03 0.51028336E+03 0.12500000E+03 0.0000E+00 0.9000E+01
        2  1    1    2  501    0 0.32329631E+02 0.15636448E+01 0.86648790E+03 0.86709229E+03 0.32000000E+00 0.0000E+00 0.9000E+01
        2  1    1    2  502    0 0.43599593E+03 0.49024985E+02 -.14616494E+04 0.15260783E+04 0.32000000E+00 0.0000E+00 0.9000E+01
#aMCatNLO 1  0  0  1  4 0.24066676D+02 0.00000000D+00  -5  6  0 0.00000000D+00 0.00000000D+00 0.00000000D+00 0.00000000D+00 0.00000000D+00
  <mgrwgt>
 0.2082198216D-01    6    2    0
 0.140293595246804D+04 0.000000000000000D+00 0.000000000000000D+00 0.140293595246804D+04
 0.140293595246804D+04 0.000000000000000D+00 0.000000000000000D+00 -.140293595246804D+04
 0.487832319611502D+03 -.468365846554045D+03 -.505932096447370D+02 -.207155250258156D+02
 0.112769766118271D+04 0.323281762629797D+02 0.156357442912702D+01 0.112723309891587D+04
 0.119034192414187D+04 0.436037670291065D+03 0.490296352156099D+02 -.110651757389005D+04
 0.000000000000000D+00 -.000000000000000D+00 0.000000000000000D+00 -.000000000000000D+00
 0.140589641325239D+04 0.000000000000000D+00 0.000000000000000D+00 0.140589641325239D+04
 0.151568886075338D+04 0.000000000000000D+00 0.000000000000000D+00 -.151568886075338D+04
 0.485495261857296D+03 -.465312102136122D+03 -.560014635027739D+02 -.207155250258156D+02
 0.112797498565594D+04 0.394051849546982D+02 -.109699759674664D+02 0.112723309891587D+04
 0.119263016388902D+04 0.443514071710727D+03 0.357887508165063D+02 -.110651757389005D+04
 0.115484862603515D+03 -.176071545293030D+02 0.311826886537341D+02 -.109792447500993D+03
0.698909833603D-02 0.000000000000D+00 0.000000000000D+00 0.107897884660D-03 0.000000000000D+00  6 2 2 25 2 2 21 0 0.16592647D+00 0.28075876D+00 0.22970155D+06 0.22970155D+06 0.22970155D+06 0.10932366D+01  1  2  2  1  6  1        2 0.229871449642D-01 0.100000000000D+01
0.445037041239D-02 0.000000000000D+00 -.268399778822D-04 0.107897884660D-03 0.000000000000D+00  6 2 2 25 2 2 21 2 0.16592647D+00 0.28075876D+00 0.22970155D+06 0.22970155D+06 0.22970155D+06 0.10932366D+01  1  2  3  1  6  1        2 0.174939693561D-01 0.100000000000D+01
-.449536678711D-02 0.000000000000D+00 0.000000000000D+00 0.107897884660D-03 0.000000000000D+00  6 2 2 25 2 2 21 2 0.16592647D+00 0.28075876D+00 0.22970155D+06 0.22970155D+06 0.22970155D+06 0.10932366D+01  1  2 15  1  6  1        2 -.176708456894D-01 0.100000000000D+01
-.462004404159D-03 0.000000000000D+00 0.000000000000D+00 0.107897884660D-03 0.000000000000D+00  6 2 2 25 2 2 21 2 0.16592647D+00 0.28075876D+00 0.22970155D+06 0.22970155D+06 0.22970155D+06 0.10932366D+01  1  2  4  1  6  1        2 -.181609397417D-02 0.100000000000D+01
0.347438468053D-03 0.000000000000D+00 0.000000000000D+00 0.107897884660D-03 0.000000000000D+00  6 2 2 25 2 2 21 2 0.18174625D+00 0.28075876D+00 0.22970155D+06 0.22970155D+06 0.22970155D+06 0.10932366D+01  1  2  5  1  6  1        2 0.118791034619D-02 0.100000000000D+01
-.346002748025D-03 0.000000000000D+00 0.000000000000D+00 0.107897884660D-03 0.000000000000D+00  6 2 2 25 2 2 21 2 0.16592647D+00 0.28075876D+00 0.22970155D+06 0.22970155D+06 0.22970155D+06 0.10932366D+01  1  2  6  1  6  1        2 -.136010284767D-02 0.100000000000D+01
  </mgrwgt>
  </event>
  <event>
  5     66 0.18204334E-05 0.24305203E+02 0.75467711E-02 0.88343520E-01
        2 -1    0    0  501    0 0.00000000E+00 0.00000000E+00 0.50920902E+03 0.50920912E+03 0.32000000E+00 0.0000E+00 0.9000E+01
        2 -1    0    0  502    0 0.00000000E+00 0.00000000E+00 -.27914207E+04 0.27914207E+04 0.32000000E+00 0.0000E+00 0.9000E+01
       25  1    1    2    0    0 0.48397805E+02 0.48099136E+03 -.21367825E+02 0.49977657E+03 0.12500000E+03 0.0000E+00 0.9000E+01
        2  1    1    2  501    0 -.18434800E+02 -.15849790E+02 0.24794438E+03 0.24913365E+03 0.32000000E+00 0.0000E+00 0.9000E+01
        2  1    1    2  502    0 -.29963005E+02 -.46514157E+03 -.25087882E+04 0.25517196E+04 0.32000000E+00 0.0000E+00 0.9000E+01
#aMCatNLO 1  0  0  2  1 0.69874112D+03 0.00000000D+00  -5  6  0 0.00000000D+00 0.00000000D+00 0.00000000D+00 0.00000000D+00 0.00000000D+00
  <mgrwgt>
 0.6372597031D-02    6    2    0
 0.119223184821991D+04 0.000000000000000D+00 0.000000000000000D+00 0.119223184821991D+04
 0.119223184821991D+04 0.000000000000000D+00 0.000000000000000D+00 -.119223184821991D+04
 0.671488790453917D+03 0.483973442955365D+02 0.481047438051731D+03 0.448913416055111D+03
 0.582013304851315D+03 -.184298903937884D+02 -.158455684836044D+02 0.581505583914251D+03
 0.113096160113458D+04 -.299674539017482D+02 -.465201869568127D+03 -.103041899996936D+04
 0.000000000000000D+00 -.000000000000000D+00 0.000000000000000D+00 -.000000000000000D+00
 0.131380096278708D+04 0.000000000000000D+00 0.000000000000000D+00 0.131380096278708D+04
 0.224921123150880D+04 0.000000000000000D+00 0.000000000000000D+00 -.224921123150880D+04
 0.676221409029586D+03 0.208544678865473D+03 0.443436867922126D+03 0.448913416055111D+03
 0.596070171553227D+03 0.121560835148971D+03 -.487223629345348D+02 0.581505583914251D+03
 0.118429987783766D+04 0.245153232156689D+03 -.529813908756247D+03 -.103041899996936D+04
 0.110642073587541D+04 -.575258746171133D+03 0.135099403768656D+03 -.935410268721724D+03
0.129332431535D-02 0.000000000000D+00 0.000000000000D+00 0.371562442501D-04 0.000000000000D+00  6 2 2 25 2 2 21 0 0.78339858D-01 0.42944934D+00 0.24494820D+06 0.24494820D+06 0.24494820D+06 0.10911267D+01  1  2  2  2  6  2        2 0.310659563106D-02 0.100000000000D+01
0.745520951812D-03 0.000000000000D+00 -.496670591105D-05 0.371562442501D-04 0.000000000000D+00  6 2 2 25 2 2 21 2 0.78339858D-01 0.42944934D+00 0.24494820D+06 0.24494820D+06 0.24494820D+06 0.10911267D+01  1  2  3  2  6  2        2 0.213200149683D-02 0.100000000000D+01
-.853463508938D-03 0.000000000000D+00 0.000000000000D+00 0.371562442501D-04 0.000000000000D+00  6 2 2 25 2 2 21 2 0.78339858D-01 0.42944934D+00 0.24494820D+06 0.24494820D+06 0.24494820D+06 0.10911267D+01  1  2 15  2  6  2        2 -.244068992847D-02 0.100000000000D+01
-.111222001477D-02 0.000000000000D+00 -.502766790608D-03 0.371562442501D-04 0.000000000000D+00  6 2 2 25 2 2 21 2 0.78339858D-01 0.81601521D+00 0.24494820D+06 0.24494820D+06 0.24494820D+06 0.10911267D+01  1  2  5  2  6  2        2 -.160313583901D-04 0.100000000000D+01
0.125560906286D-02 0.000000000000D+00 0.414410484095D-03 0.371562442501D-04 0.000000000000D+00  6 2 2 25 2 2 21 2 0.78339858D-01 0.42944934D+00 0.24494820D+06 0.24494820D+06 0.24494820D+06 0.10911267D+01  1  2  6  2  6  2        2 0.359072457313D-02 0.100000000000D+01
-.488654391321D-04 0.000000000000D+00 -.350680268847D-04 0.371562442501D-04 0.000000000000D+00  6 2 21 25 2 2 -2 2 0.78339858D-01 0.81601521D+00 0.24494820D+06 0.24494820D+06 0.24494820D+06 0.10911267D+01  1  2  5  5  6  2        2 -.338288390234D-08 0.100000000000D+01
  </mgrwgt>
  </event>
  <event>
  5     66 0.18204334E-05 0.23191682E+02 0.75467711E-02 0.90217913E-01
        2 -1    0    0  501    0 0.00000000E+00 0.00000000E+00 0.10795600E+04 0.10795601E+04 0.32000000E+00 0.0000E+00 0.9000E+01
        2 -1    0    0  502    0 0.00000000E+00 0.00000000E+00 -.80605264E+03 0.80605270E+03 0.32000000E+00 0.0000E+00 0.9000E+01
       25  1    1    2    0    0 0.28532831E+03 -.68632732E+03 -.98215895E+01 0.75377643E+03 0.12500000E+03 0.0000E+00 0.9000E+01
        2  1    1    2  501    0 -.26877861E+03 0.67008361E+03 0.52270910E+03 0.89133545E+03 0.32000000E+00 0.0000E+00 0.9000E+01
        2  1    1    2  502    0 -.16549699E+02 0.16243710E+02 -.23938011E+03 0.24050091E+03 0.32000000E+00 0.0000E+00 0.9000E+01
#aMCatNLO 1  0  0  1  2 0.44234222D+01 0.00000000D+00  -5  6  0 0.00000000D+00 0.00000000D+00 0.00000000D+00 0.00000000D+00 0.00000000D+00
  <mgrwgt>
 0.1063687015D-02    9    2    0
 0.932835635648183D+03 0.000000000000000D+00 0.000000000000000D+00 0.932835635648183D+03
 0.932835635648183D+03 0.000000000000000D+00 0.000000000000000D+00 -.932835635648183D+03
 0.763253720968108D+03 0.285324310120305D+03 -.686315233306017D+03 -.120385552115452D+03
 0.824216522746038D+03 -.268773103061107D+03 0.670069875948187D+03 0.397618229945832D+03
 0.278201027582220D+03 -.165512070591982D+02 0.162453573578304D+02 -.277232677830380D+03
 0.000000000000000D+00 -.000000000000000D+00 -.000000000000000D+00 0.000000000000000D+00
 0.935269008459102D+03 0.000000000000000D+00 0.000000000000000D+00 0.935269008459102D+03
 0.934850667034004D+03 0.000000000000000D+00 0.000000000000000D+00 -.934850667034004D+03
 0.761754787064226D+03 0.285607669085252D+03 -.684529717263474D+03 -.120385552115452D+03
 0.825688028322407D+03 -.268466537397119D+03 0.672001623232927D+03 0.397618229945832D+03
 0.278233699769420D+03 -.164478169682102D+02 0.168968443017271D+02 -.277232677830380D+03
 0.444316033705257D+01 -.693314719922768D+00 -.436875027118083D+01 0.418341425097905D+00
0.175346204915D-04 0.000000000000D+00 0.000000000000D+00 0.503286108803D-06 0.000000000000D+00  6 2 2 25 2 2 21 0 0.16608617D+00 0.12400811D+00 0.56164234D+06 0.56164234D+06 0.56164234D+06 0.10649602D+01  1  2  2  1  6  1        2 0.215678014848D-03 0.100000000000D+01
0.106730711963D-04 0.000000000000D+00 -.673375596589D-07 0.503286108803D-06 0.000000000000D+00  6 2 2 25 2 2 21 2 0.16608617D+00 0.12400811D+00 0.56164234D+06 0.56164234D+06 0.56164234D+06 0.10649602D+01  1  2  3  1  6  1        2 0.148890058087D-03 0.100000000000D+01
-.116347664372D-04 0.000000000000D+00 0.000000000000D+00 0.503286108803D-06 0.000000000000D+00  6 2 2 25 2 2 21 2 0.16608617D+00 0.12400811D+00 0.56164234D+06 0.56164234D+06 0.56164234D+06 0.10649602D+01  1  2 15  1  6  1        2 -.162305771114D-03 0.100000000000D+01
-.385831238047D-04 0.000000000000D+00 0.000000000000D+00 0.503286108803D-06 0.000000000000D+00  6 2 2 25 2 2 21 2 0.16608617D+00 0.12400811D+00 0.56164234D+06 0.56164234D+06 0.56164234D+06 0.10649602D+01  1  2  4  1  6  1        2 -.538237161431D-03 0.100000000000D+01
-.102188599707D-01 0.000000000000D+00 -.932085429546D-03 0.503286108803D-06 0.000000000000D+00  6 2 2 25 2 2 21 2 0.16676947D+00 0.12400811D+00 0.56164234D+06 0.56164234D+06 0.56164234D+06 0.10649602D+01  1  2  5  1  6  1        2 -.141669858965D+00 0.100000000000D+01
0.102226085236D-01 0.000000000000D+00 0.932077573651D-03 0.503286108803D-06 0.000000000000D+00  6 2 2 25 2 2 21 2 0.16608617D+00 0.12400811D+00 0.56164234D+06 0.56164234D+06 0.56164234D+06 0.10649602D+01  1  2  6  1  6  1        2 0.142606073630D+00 0.100000000000D+01
0.376941401794D-04 0.000000000000D+00 0.000000000000D+00 0.503286108803D-06 0.254643398146D-07  6 2 2 25 2 2 21 2 0.16651942D+00 0.12427598D+00 0.56537588D+06 0.56537588D+06 0.56537588D+06 0.10647590D+01  1  2 11  1  6  1        2 0.521949709779D-03 0.100000000000D+01
-.781256903332D-05 0.000000000000D+00 -.713136832731D-06 0.503286108803D-06 0.000000000000D+00  6 21 2 25 2 2 -2 2 0.16676947D+00 0.12400811D+00 0.56164234D+06 0.56164234D+06 0.56164234D+06 0.10649602D+01  1  2  5  4  6  1        2 -.644720341128D-04 0.100000000000D+01
0.722678735313D-06 0.000000000000D+00 0.000000000000D+00 0.503286108803D-06 0.745162559654D-10  6 21 2 25 2 2 -2 2 0.16651942D+00 0.12427598D+00 0.56537588D+06 0.56537588D+06 0.56537588D+06 0.10647590D+01  1  2 11  4  6  1        2 0.596953430008D-05 0.100000000000D+01
  </mgrwgt>
  </event>
  <event>
  5     66 0.18204334E-05 0.27594130E+02 0.75467711E-02 0.93051894E-01
        2 -1    0    0  501    0 0.00000000E+00 0.00000000E+00 0.22529181E+03 0.22529204E+03 0.32000000E+00 0.0000E+00 0.9000E+01
        2 -1    0    0  502    0 -.00000000E+00 -.00000000E+00 -.27126460E+04 0.27126460E+04 0.32000000E+00 0.0000E+00 0.9000E+01
       25  1    1    2    0    0 0.34715064E+03 -.41478124E+03 -.76702672E+03 0.94684320E+03 0.12500000E+03 0.0000E+00 0.9000E+01
        2  1    1    2  501    0 -.35946030E+03 0.43947379E+03 -.46068324E+03 0.73114846E+03 0.32000000E+00 0.0000E+00 0.9000E+01
        2  1    1    2  502    0 0.12309659E+02 -.24692556E+02 -.12596442E+04 0.12599464E+04 0.32000000E+00 0.0000E+00 0.9000E+01
#aMCatNLO 1  0  0  5  5 0.64494891D+00 0.00000000D+00  -5  6  0 0.00000000D+00 0.00000000D+00 0.00000000D+00 0.00000000D+00 0.00000000D+00
  <mgrwgt>
 0.1168646903D-02    7    2    0
 0.781752704594406D+03 0.000000000000000D+00 0.000000000000000D+00 0.781752704594406D+03
 0.781752704594406D+03 -.000000000000000D+00 -.000000000000000D+00 -.781752704594406D+03
 0.558911851863613D+03 0.347129709260630D+03 -.414754361927202D+03 0.650941039158234D+02
 0.640952077784220D+03 -.359440811158100D+03 0.439449964398918D+03 0.297498904333621D+03
 0.363641479540979D+03 0.123111018974704D+02 -.246956024717164D+02 -.362593008249444D+03
 0.000000000000000D+00 0.000000000000000D+00 0.000000000000000D+00 -.000000000000000D+00
 0.781752704594406D+03 0.000000000000000D+00 0.000000000000000D+00 0.781752704594406D+03
 0.781752704594406D+03 -.000000000000000D+00 -.000000000000000D+00 -.781752704594406D+03
 0.558906787031952D+03 0.347133553355489D+03 -.414762073035379D+03 0.649808856246710D+02
 0.640883291498419D+03 -.359436403021948D+03 0.439441121845347D+03 0.297369073603484D+03
 0.362900790570652D+03 0.126584634585369D+02 -.251695677438855D+02 -.361805527817444D+03
 0.814540087789014D+00 -.355613792077828D+00 0.490518933917631D+00 -.544431410709992D+00
0.327930497926D-03 0.000000000000D+00 0.000000000000D+00 0.853412321244D-06 0.000000000000D+00  6 2 2 25 2 2 21 0 0.34660298D-01 0.41733017D+00 0.33087197D+06 0.33087197D+06 0.33087197D+06 0.10814186D+01  1  2  2  3  6  5        2 0.214031827315D-02 0.100000000000D+01
0.185319720435D-03 0.000000000000D+00 -.125933945812D-05 0.853412321244D-06 0.000000000000D+00  6 2 2 25 2 2 21 2 0.34660298D-01 0.41733017D+00 0.33087197D+06 0.33087197D+06 0.33087197D+06 0.10814186D+01  1  2  3  3  6  5        2 0.141450953009D-02 0.100000000000D+01
-.240622621688D-03 0.000000000000D+00 0.000000000000D+00 0.853412321244D-06 0.000000000000D+00  6 2 2 25 2 2 21 2 0.34660298D-01 0.41733017D+00 0.33087197D+06 0.33087197D+06 0.33087197D+06 0.10814186D+01  1  2 15  3  6  5        2 -.183662586330D-02 0.100000000000D+01
-.127949967327D-01 0.000000000000D+00 0.000000000000D+00 0.853412321244D-06 0.000000000000D+00  6 2 2 25 2 2 21 2 0.34660298D-01 0.41733017D+00 0.33087197D+06 0.33087197D+06 0.33087197D+06 0.10814186D+01  1  2  4  3  6  5        2 -.976617316999D-01 0.100000000000D+01
-.103633689719D+00 0.000000000000D+00 0.000000000000D+00 0.853412321244D-06 0.000000000000D+00  6 2 2 25 2 2 21 2 0.34660298D-01 0.41733017D+00 0.33087197D+06 0.33087197D+06 0.33087197D+06 0.10814186D+01  1  2  5  3  6  5        2 -.791015880024D+00 0.100000000000D+01
0.103882887395D+00 0.000000000000D+00 -.000000000000D+00 0.853412321244D-06 0.000000000000D+00  6 2 2 25 2 2 21 2 0.34660298D-01 0.41733017D+00 0.33087197D+06 0.33087197D+06 0.33087197D+06 0.10814186D+01  1  2  6  3  6  5        2 0.792917957610D+00 0.100000000000D+01
0.124767641593D-01 0.000000000000D+00 0.000000000000D+00 0.853412321244D-06 0.202358914916D-05  6 2 2 25 2 2 21 2 0.34660298D-01 0.41733017D+00 0.33155322D+06 0.33155322D+06 0.33155322D+06 0.10813531D+01  1  2 11  3  6  5        2 0.952100990763D-01 0.100000000000D+01
  </mgrwgt>
  </event>
  <event>
  6     66 0.18204334E-05 0.10634188E+02 0.75467711E-02 0.95215486E-01
        2 -1    0    0  501    0 0.00000000E+00 0.00000000E+00 0.22559141E+04 0.22559141E+04 0.32000000E+00 0.0000E+00 0.9000E+01
        2 -1    0    0  502    0 0.00000000E+00 0.00000000E+00 -.14957582E+04 0.14957583E+04 0.32000000E+00 0.0000E+00 0.9000E+01
       25  1    1    2    0    0 0.12527341E+02 -.45214696E+03 0.53963949E+03 0.71514306E+03 0.12500000E+03 0.0000E+00 0.9000E+01
        2  1    1    2  501    0 0.17813867E+02 0.17058645E+01 0.15903923E+04 0.15904930E+04 0.32000000E+00 0.0000E+00 0.9000E+01
        2  1    1    2  503    0 -.12381481E+02 0.44263167E+03 -.13260186E+04 0.13979992E+04 0.32000000E+00 0.0000E+00 0.9000E+01
       21  1    1    2  502  503 -.17959727E+02 0.78094220E+01 -.43857312E+02 0.48037123E+02 0.75000000E+00 0.0000E+00 0.9000E+01
#aMCatNLO 2  0  0  5  1 0.43046212D+03 0.00000000D+00  -5  6  0 0.00000000D+00 0.00000000D+00 0.00000000D+00 0.00000000D+00 0.00000000D+00
  <mgrwgt>
 0.7766374172D-01    4    2    0
 0.183692735920303D+04 0.000000000000000D+00 0.000000000000000D+00 0.183692735920303D+04
 0.183692735920303D+04 -.000000000000000D+00 -.000000000000000D+00 -.183692735920303D+04
 0.619114752086274D+03 0.125389014235465D+02 -.452306357254205D+03 0.403658037687063D+03
 0.129607786587826D+04 0.178313635111919D+02 0.143213171026196D+01 0.129595440733602D+04
 0.175866210044152D+04 -.303702649347384D+02 0.450874225543944D+03 -.169961244502308D+04
 0.000000000000000D+00 0.000000000000000D+00 0.000000000000000D+00 -.000000000000000D+00
 0.183692735920303D+04 0.000000000000000D+00 0.000000000000000D+00 0.183692735920303D+04
 0.183692735920303D+04 -.000000000000000D+00 -.000000000000000D+00 -.183692735920303D+04
 0.618697705075235D+03 0.125300928886172D+02 -.452175586535775D+03 0.403165085267304D+03
 0.129504614039298D+04 0.178129245253961D+02 0.170587523730550D+01 0.129492250557950D+04
 0.170204776360911D+04 -.123782743143631D+02 0.442678743700675D+03 -.164342596359172D+04
 0.580631093287297D+02 -.179647430996502D+02 0.779096759779462D+01 -.546616272550837D+02
-.229623916839D+00 0.000000000000D+00 0.000000000000D+00 0.451980420863D-03 0.000000000000D+00  6 2 2 25 2 2 21 2 0.34706371D+00 0.23011665D+00 0.22053043D+06 0.22053043D+06 0.22053043D+06 0.10945808D+01  1  2  8  3  6  5        2 -.305209315836D+00 0.100000000000D+01
-.305811755410D+00 0.000000000000D+00 0.000000000000D+00 0.451980420863D-03 0.000000000000D+00  6 2 2 25 2 2 21 2 0.34706371D+00 0.23011665D+00 0.22053043D+06 0.22053043D+06 0.22053043D+06 0.10945808D+01  1  2  9  3  6  5        2 -.406475936514D+00 0.100000000000D+01
0.316074860629D+00 0.000000000000D+00 0.000000000000D+00 0.451980420863D-03 0.000000000000D+00  6 2 2 25 2 2 21 2 0.34706371D+00 0.23011665D+00 0.22053043D+06 0.22053043D+06 0.22053043D+06 0.10945808D+01  1  2 10  3  6  5        2 0.420117352293D+00 0.100000000000D+01
0.278691853915D+00 0.000000000000D+00 0.000000000000D+00 0.451980420863D-03 0.453223809375D-05  6 2 2 25 2 2 21 2 0.34706371D+00 0.23011665D+00 0.22544929D+06 0.22544929D+06 0.22544929D+06 0.10938524D+01  1  2  1  3  6  5        2 0.369231641773D+00 0.100000000000D+01
  </mgrwgt>
  </event>
  <event>
  5     66 0.18204334E-05 0.14645820E+03 0.75467711E-02 0.95474327E-01
        2 -1    0    0  501    0 0.00000000E+00 0.00000000E+00 0.18563977E+04 0.18563977E+04 0.32000000E+00 0.0000E+00 0.9000E+01
        2 -1    0    0  502    0 0.00000000E+00 0.00000000E+00 -.16174952E+04 0.16174952E+04 0.32000000E+00 0.0000E+00 0.9000E+01
       25  1    1    2    0    0 0.36733855E+03 -.26656115E+03 -.42100915E+03 0.63155852E+03 0.12500000E+03 0.0000E+00 0.9000E+01
        2  1    1    2  501    0 -.11201973E+03 0.94349632E+02 0.17262309E+04 0.17324329E+04 0.32000000E+00 0.0000E+00 0.9000E+01
        2  1    1    2  502    0 -.25531883E+03 0.17221152E+03 -.10663193E+04 0.11099016E+04 0.32000000E+00 0.0000E+00 0.9000E+01
#aMCatNLO 1  0  0  5  2 0.49057110D+01 0.00000000D+00  -5  6  0 0.00000000D+00 0.00000000D+00 0.00000000D+00 0.00000000D+00 0.00000000D+00
  <mgrwgt>
 0.3142631675D-02    7    2    0
 0.173283422067967D+04 0.000000000000000D+00 0.000000000000000D+00 0.173283422067967D+04
 0.173283422067967D+04 -.000000000000000D+00 -.000000000000000D+00 -.173283422067967D+04
 0.662073009723492D+03 0.367350496870005D+03 -.266569252768767D+03 -.465521337998576D+03
 0.161753799012581D+04 -.112019030888200D+03 0.943490436892540D+02 0.161089389600123D+04
 0.118605744151005D+04 -.255331465981805D+03 0.172220209079513D+03 -.114537255800265D+04
 0.000000000000000D+00 0.000000000000000D+00 0.000000000000000D+00 0.000000000000000D+00
 0.173283422067967D+04 0.000000000000000D+00 0.000000000000000D+00 0.173283422067967D+04
 0.173283422067967D+04 -.000000000000000D+00 -.000000000000000D+00 -.173283422067967D+04
 0.662369211376437D+03 0.367223329994982D+03 -.266483479142237D+03 -.466091786487478D+03
 0.161618471366958D+04 -.112329518129078D+03 0.945584662817068D+02 0.160950110422782D+04
 0.118166759688096D+04 -.256370855931097D+03 0.167101783303265D+03 -.114135414651389D+04
 0.544691943235984D+01 0.147704406519377D+01 0.482322955726468D+01 -.205517122644888D+01
0.240088280298D-02 0.000000000000D+00 0.000000000000D+00 0.596707755686D-04 0.000000000000D+00  6 2 2 25 2 2 21 0 0.28559965D+00 0.24884542D+00 0.21400729D+06 0.21400729D+06 0.21400729D+06 0.10955746D+01  1  2  2  3  6  5        2 0.379643755350D-02 0.100000000000D+01
0.414274091296D-03 0.000000000000D+00 -.922002213039D-05 0.596707755686D-04 0.000000000000D+00  6 2 2 25 2 2 21 2 0.28559965D+00 0.24884542D+00 0.21400729D+06 0.21400729D+06 0.21400729D+06 0.10955746D+01  1  2  3  3  6  5        2 0.786279568104D-03 0.100000000000D+01
-.166104696754D-02 0.000000000000D+00 0.000000000000D+00 0.596707755686D-04 0.000000000000D+00  6 2 2 25 2 2 21 2 0.28559965D+00 0.24884542D+00 0.21400729D+06 0.21400729D+06 0.21400729D+06 0.10955746D+01  1  2 15  3  6  5        2 -.315261639499D-02 0.100000000000D+01
-.503804059246D-02 0.000000000000D+00 0.000000000000D+00 0.596707755686D-04 0.000000000000D+00  6 2 2 25 2 2 21 2 0.28559965D+00 0.24884542D+00 0.21400729D+06 0.21400729D+06 0.21400729D+06 0.10955746D+01  1  2  4  3  6  5        2 -.956204711895D-02 0.100000000000D+01
-.253379739449D+00 0.000000000000D+00 0.000000000000D+00 0.596707755686D-04 0.000000000000D+00  6 2 2 25 2 2 21 2 0.28559965D+00 0.24884542D+00 0.21400729D+06 0.21400729D+06 0.21400729D+06 0.10955746D+01  1  2  5  3  6  5        2 -.480907004049D+00 0.100000000000D+01
0.254546047302D+00 0.000000000000D+00 -.000000000000D+00 0.596707755686D-04 0.000000000000D+00  6 2 2 25 2 2 21 2 0.28559965D+00 0.24884542D+00 0.21400729D+06 0.21400729D+06 0.21400729D+06 0.10955746D+01  1  2  6  3  6  5        2 0.483120620721D+00 0.100000000000D+01
0.477883670215D-02 0.000000000000D+00 0.000000000000D+00 0.596707755686D-04 0.602160829366D-06  6 2 2 25 2 2 21 2 0.28559965D+00 0.24884542D+00 0.21553964D+06 0.21553964D+06 0.21553964D+06 0.10953382D+01  1  2 11  3  6  5        2 0.906096139528D-02 0.100000000000D+01
  </mgrwgt>
  </event>
  <event>
  6     66 0.18204334E-05 0.33673050E+03 0.75467711E-02 0.89834194E-01
        2 -1    0    0  501    0 0.00000000E+00 0.00000000E+00 0.13930532E+04 0.13930532E+04 0.32000000E+00 0.0000E+00 0.9000E+01
        2 -1    0    0  503    0 0.00000000E+00 0.00000000E+00 -.13306593E+04 0.13306593E+04 0.32000000E+00 0.0000E+00 0.9000E+01
       25  1    1    2    0    0 -.44818477E+03 0.12093266E+03 0.44245234E+03 0.65336312E+03 0.12500000E+03 0.0000E+00 0.9000E+01
        2  1    1    2  501    0 -.23896053E+03 -.27807993E+03 0.67405644E+03 0.76732181E+03 0.32000000E+00 0.0000E+00 0.9000E+01
        2  1    1    2  502    0 0.64361289E+03 0.11630952E+03 -.75893432E+03 0.10018717E+04 0.32000000E+00 0.0000E+00 0.9000E+01
       21  1    1    2  503  502 0.43532412E+02 0.40837754E+02 -.29518056E+03 0.30115597E+03 0.75000000E+00 0.0000E+00 0.9000E+01
#aMCatNLO 2  0  0  2  5 0.59689137D+02 0.00000000D+00  -5  6  0 0.00000000D+00 0.00000000D+00 0.00000000D+00 0.00000000D+00 0.00000000D+00
  <mgrwgt>
 0.1175387661D-03    3    2    0
 0.119763916401803D+04 0.000000000000000D+00 0.000000000000000D+00 0.119763916401803D+04
 0.119763916401803D+04 0.000000000000000D+00 0.000000000000000D+00 -.119763916401803D+04
 0.588789081528135D+03 -.437548746997815D+03 0.130964371595371D+03 0.349924291668951D+03
 0.666218966768088D+03 -.226726376590522D+03 -.266592382986259D+03 0.566896254329995D+03
 0.114027027973983D+04 0.664275123588337D+03 0.135628011390889D+03 -.916820545998947D+03
 0.000000000000000D+00 0.000000000000000D+00 0.000000000000000D+00 -.000000000000000D+00
 0.120058547676693D+04 0.000000000000000D+00 0.000000000000000D+00 0.120058547676693D+04
 0.154397842247069D+04 0.000000000000000D+00 0.000000000000000D+00 -.154397842247069D+04
 0.594691144305290D+03 -.448301516933445D+03 0.120877198554111D+03 0.349924291668951D+03
 0.675091580063388D+03 -.238913148627340D+03 -.278024793340583D+03 0.566896254329995D+03
 0.112623919996179D+04 0.643682253120227D+03 0.116309840438514D+03 -.916820545998947D+03
 0.348541974907158D+03 0.435324124405588D+02 0.408377543479578D+02 -.343392945703756D+03
-.752536500524D-04 0.000000000000D+00 0.000000000000D+00 0.132896074399D-07 0.000000000000D+00  6 2 2 25 2 2 21 2 0.21378987D+00 0.20698532D+00 0.60934721D+06 0.60934721D+06 0.60934721D+06 0.10624922D+01  1  2 13  2  6  2        2 -.318311717385D-03 0.100000000000D+01
-.510848806102D-08 0.000000000000D+00 0.000000000000D+00 0.132896074399D-07 0.000000000000D+00  6 2 2 25 2 2 21 2 0.21378987D+00 0.20507974D+00 0.60934721D+06 0.60934721D+06 0.60934721D+06 0.10624922D+01  1  2 13  2  6  2        2 -.219620510895D-07 0.100000000000D+01
0.101522938783D-03 0.000000000000D+00 0.000000000000D+00 0.132896074399D-07 0.318079755504D-10  6 2 2 25 2 2 21 2 0.21431581D+00 0.20471675D+00 0.60934721D+06 0.60934721D+06 0.60934721D+06 0.10624922D+01  1  2  1  2  6  2        2 0.435872445545D-03 0.100000000000D+01
  </mgrwgt>
  </event>
  <event>
  5     66 0.18204334E-05 0.20086955E+03 0.75467711E-02 0.94424764E-01
        2 -1    0    0  501    0 0.00000000E+00 0.00000000E+00 0.18597775E+04 0.18597776E+04 0.32000000E+00 0.0000E+00 0.9000E+01
        2 -1    0    0  502    0 0.00000000E+00 0.00000000E+00 -.91689893E+03 0.91689899E+03 0.32000000E+00 0.0000E+00 0.9000E+01
       25  1    1    2    0    0 0.29691591E+03 0.36643521E+03 0.29548206E+03 0.57041079E+03 0.12500000E+03 0.0000E+00 0.9000E+01
        2  1    1    2  501    0 -.10462185E+03 -.30844456E+03 0.13948115E+04 0.14323348E+04 0.32000000E+00 0.0000E+00 0.9000E+01
        2  1    1    2  502    0 -.19229406E+03 -.57990651E+02 -.74741495E+03 0.77393095E+03 0.32000000E+00 0.0000E+00 0.9000E+01
#aMCatNLO 1  0  0  5  2 0.19377510D+02 0.00000000D+00  -5  6  0 0.00000000D+00 0.00000000D+00 0.00000000D+00 0.00000000D+00 0.00000000D+00
  <mgrwgt>
 0.9065613331D-02    8    2    0
 0.130584384259697D+04 0.000000000000000D+00 0.000000000000000D+00 0.130584384259697D+04
 0.130584384259697D+04 -.000000000000000D+00 -.000000000000000D+00 -.130584384259697D+04
 0.499790140450079D+03 0.296930258141193D+03 0.366425195931776D+03 0.108305965106611D+03
 0.101920374432106D+04 -.104615936392188D+03 -.308427122198123D+03 0.965766270162427D+03
 0.109269380042280D+04 -.192314321749004D+03 -.579980737336529D+02 -.107407223526904D+04
 0.000000000000000D+00 0.000000000000000D+00 0.000000000000000D+00 -.000000000000000D+00
 0.130584384259697D+04 0.000000000000000D+00 0.000000000000000D+00 0.130584384259697D+04
 0.130584384259697D+04 -.000000000000000D+00 -.000000000000000D+00 -.130584384259697D+04
 0.499655409467589D+03 0.296863678944383D+03 0.366405117005097D+03 0.107934121418166D+03
 0.101851174048287D+04 -.104751681116167D+03 -.308468060035922D+03 0.965008138174212D+03
 0.987517425082836D+03 -.192775776580575D+03 -.538670664157673D+02 -.967019391719603D+03
 0.106003110160647D+03 0.663778752359136D+00 -.406999055340717D+01 -.105922867872775D+03
0.339067835857D-04 0.000000000000D+00 0.000000000000D+00 0.595532590602D-05 0.000000000000D+00  6 2 2 25 2 2 21 0 0.28611963D+00 0.14106138D+00 0.25728740D+06 0.25728740D+06 0.25728740D+06 0.10895216D+01  1  2  2  3  6  5        2 0.133504425492D-03 0.100000000000D+01
0.433511290772D-05 0.000000000000D+00 -.130210976830D-06 0.595532590602D-05 0.000000000000D+00  6 2 2 25 2 2 21 2 0.28611963D+00 0.14106138D+00 0.25728740D+06 0.25728740D+06 0.25728740D+06 0.10895216D+01  1  2  3  3  6  5        2 0.202619465560D-04 0.100000000000D+01
-.238803495616D-04 0.000000000000D+00 0.000000000000D+00 0.595532590602D-05 0.000000000000D+00  6 2 2 25 2 2 21 2 0.28611963D+00 0.14106138D+00 0.25728740D+06 0.25728740D+06 0.25728740D+06 0.10895216D+01  1  2 15  3  6  5        2 -.111614709203D-03 0.100000000000D+01
0.256890458330D-02 0.000000000000D+00 0.000000000000D+00 0.595532590602D-05 0.000000000000D+00  6 2 2 25 2 2 21 2 0.28611963D+00 0.14106138D+00 0.25903594D+06 0.25903594D+06 0.25903594D+06 0.10893010D+01  1  2 12  3  6  5        2 0.119967563364D-01 0.100000000000D+01
0.247089509709D-09 0.000000000000D+00 0.000000000000D+00 0.595532590602D-05 0.000000000000D+00  6 2 2 25 2 2 21 2 0.28611963D+00 0.14106138D+00 0.25903594D+06 0.25903594D+06 0.25903594D+06 0.10893010D+01  1  2 12  3  6  5        2 0.115390531066D-08 0.100000000000D+01
-.104889320863D-02 0.000000000000D+00 0.000000000000D+00 0.595532590602D-05 0.000000000000D+00  6 2 2 25 2 2 21 2 0.28611963D+00 0.14106138D+00 0.25728740D+06 0.25728740D+06 0.25728740D+06 0.10895216D+01  1  2  4  3  6  5        2 -.490243705036D-02 0.100000000000D+01
-.405879048876D-02 0.000000000000D+00 0.000000000000D+00 0.595532590602D-05 0.000000000000D+00  6 2 2 25 2 2 21 2 0.28611963D+00 0.14106138D+00 0.25728740D+06 0.25728740D+06 0.25728740D+06 0.10895216D+01  1  2  5  3  6  5        2 -.189704392286D-01 0.100000000000D+01
0.447153686606D-02 0.000000000000D+00 -.000000000000D+00 0.595532590602D-05 0.000000000000D+00  6 2 2 25 2 2 21 2 0.28611963D+00 0.14106138D+00 0.25728740D+06 0.25728740D+06 0.25728740D+06 0.10895216D+01  1  2  6  3  6  5        2 0.208995804566D-01 0.100000000000D+01
  </mgrwgt>
  </event>
  <event>
  6     66 0.18204334E-05 0.14265726E+02 0.75467711E-02 0.93878564E-01
        2 -1    0    0  501    0 0.00000000E+00 0.00000000E+00 0.20798916E+04 0.20798916E+04 0.32000000E+00 0.0000E+00 0.9000E+01
        2 -1    0    0  503    0 0.00000000E+00 0.00000000E+00 -.63806983E+03 0.63806991E+03 0.32000000E+00 0.0000E+00 0.9000E+01
       25  1    1    2    0    0 -.27275367E+03 -.42860948E+03 0.57540970E+03 0.77770301E+03 0.12500000E+03 0.0000E+00 0.9000E+01
        2  1    1    2  501    0 -.11034749E+02 -.25657836E+01 0.11504656E+04 0.11505214E+04 0.32000000E+00 0.0000E+00 0.9000E+01
        2  1    1    2  502    0 0.26589195E+03 0.43994293E+03 -.91717133E+01 0.51413279E+03 0.32000000E+00 0.0000E+00 0.9000E+01
       21  1    1    2  503  502 0.17896471E+02 -.87676620E+01 -.27488182E+03 0.27560431E+03 0.75000000E+00 0.0000E+00 0.9000E+01
#aMCatNLO 2  0  0  2  5 0.11831114D+02 0.00000000D+00  -5  6  0 0.00000000D+00 0.00000000D+00 0.00000000D+00 0.00000000D+00 0.00000000D+00
  <mgrwgt>
 0.5287573962D-01    1    2    0
 0.868567852040179D+03 0.000000000000000D+00 0.000000000000000D+00 0.868567852040179D+03
 0.868567852040179D+03 0.000000000000000D+00 0.000000000000000D+00 -.868567852040179D+03
 0.524230412216510D+03 -.267398422274057D+03 -.431331497686402D+03 0.405431617124579D+02
 0.480432433433814D+03 -.608203623776145D+01 -.499002508394878D+01 0.480368016816274D+03
 0.732472858430034D+03 0.273480458511819D+03 0.436321522770351D+03 -.520911178528732D+03
 0.000000000000000D+00 0.000000000000000D+00 -.000000000000000D+00 -.000000000000000D+00
 0.868775685427858D+03 0.000000000000000D+00 0.000000000000000D+00 0.868775685427858D+03
 0.152756987553120D+04 0.000000000000000D+00 0.000000000000000D+00 -.152756987553120D+04
 0.524842709703699D+03 -.272802170711462D+03 -.428684146689136D+03 0.405431617124579D+02
 0.480501520815978D+03 -.110317821088803D+02 -.256509453436652D+01 0.480368016816274D+03
 0.731905783137114D+03 0.265937482115995D+03 0.440016903174371D+03 -.520911178528732D+03
 0.659095547302268D+03 0.178964707043470D+02 -.876766195086805D+01 -.658794190103344D+03
0.955253002753D-02 0.000000000000D+00 0.000000000000D+00 0.530741604445D-05 0.956609904025D-07  6 2 2 25 2 2 21 2 0.31998325D+00 0.98164573D-01 0.28551229D+06 0.28551229D+06 0.28551229D+06 0.10861459D+01  1  2  1  2  6  2        2 0.528757396154D-01 0.100000000000D+01
  </mgrwgt>
  </event>
  <event>
  6     66 -.18204334E-05 0.14336942E+02 0.75467711E-02 0.92462973E-01
        2 -1    0    0  501    0 0.00000000E+00 0.00000000E+00 0.74032845E+03 0.74032852E+03 0.32000000E+00 0.0000E+00 0.9000E+01
        2 -1    0    0  503    0 0.00000000E+00 0.00000000E+00 -.20559269E+04 0.20559269E+04 0.32000000E+00 0.0000E+00 0.9000E+01
       25  1    1    2    0    0 0.41448291E+03 -.39651488E+03 0.76328859E+02 0.59200611E+03 0.12500000E+03 0.0000E+00 0.9000E+01
        2  1    1    2  501    0 0.11738292E+02 -.16660313E+02 0.35380588E+03 0.35439252E+03 0.32000000E+00 0.0000E+00 0.9000E+01
        2  1    1    2  502    0 -.43607149E+03 0.40619039E+03 -.16696358E+04 0.17728036E+04 0.32000000E+00 0.0000E+00 0.9000E+01
       21  1    1    2  503  502 0.98502859E+01 0.69848123E+01 -.76097388E+02 0.77053168E+02 0.75000000E+00 0.0000E+00 0.9000E+01
#aMCatNLO 2  0  0  2  5 0.12075419D+02 0.00000000D+00  -5  6  0 0.00000000D+00 0.00000000D+00 0.00000000D+00 0.00000000D+00 0.00000000D+00
  <mgrwgt>
 -.3069037615D-02    6    2    0
 0.121011902741701D+04 0.000000000000000D+00 0.000000000000000D+00 0.121011902741701D+04
 0.121011902741701D+04 0.000000000000000D+00 0.000000000000000D+00 -.121011902741701D+04
 0.704907976233836D+03 0.417408025300799D+03 -.394537008738700D+03 0.389077555389782D+03
 0.579208871164332D+03 0.140924142969106D+02 -.149841798460481D+02 0.578843497544099D+03
 0.113612120743586D+04 -.431500439597710D+03 0.409521188584748D+03 -.967921052933881D+03
 0.000000000000000D+00 0.000000000000000D+00 0.000000000000000D+00 -.000000000000000D+00
 0.121091279579823D+04 0.000000000000000D+00 0.000000000000000D+00 0.121091279579823D+04
 0.125694754355288D+04 0.000000000000000D+00 0.000000000000000D+00 -.125694754355288D+04
 0.704356548353223D+03 0.414540213997793D+03 -.396570566329174D+03 0.389077555389782D+03
 0.579201969157662D+03 0.117350827644401D+02 -.166557575492577D+02 0.578843497544099D+03
 0.113670966139042D+04 -.436125582671792D+03 0.406241511572712D+03 -.967921052933881D+03
 0.475921604498114D+02 0.985028590955889D+01 0.698481230571884D+01 -.460347477546518D+02
-.329658224006D-02 0.000000000000D+00 0.000000000000D+00 0.143537547220D-04 0.000000000000D+00  6 2 2 25 2 2 21 2 0.11382175D+00 0.31774936D+00 0.36942764D+06 0.36942764D+06 0.36942764D+06 0.10779258D+01  1  2 13  2  6  2        2 -.150417214421D-01 0.100000000000D+01
-.193676158596D-09 0.000000000000D+00 0.000000000000D+00 0.143537547220D-04 0.000000000000D+00  6 2 2 25 2 2 21 2 0.11382175D+00 0.31650428D+00 0.36942764D+06 0.36942764D+06 0.36942764D+06 0.10779258D+01  1  2 13  2  6  2        2 -.892862362870D-09 0.100000000000D+01
-.660331845319D-02 0.000000000000D+00 0.000000000000D+00 0.143537547220D-04 0.000000000000D+00  6 2 2 25 2 2 21 2 0.11382175D+00 0.30451185D+00 0.36196430D+06 0.36196430D+06 0.36196430D+06 0.10785699D+01  1  2  8  2  6  2        2 -.336900390270D-01 0.100000000000D+01
-.777684785069D-02 0.000000000000D+00 0.000000000000D+00 0.143537547220D-04 0.000000000000D+00  6 2 2 25 2 2 21 2 0.11382175D+00 0.31636617D+00 0.36196430D+06 0.36196430D+06 0.36196430D+06 0.10785699D+01  1  2  9  2  6  2        2 -.359817643945D-01 0.100000000000D+01
0.777118002775D-02 0.000000000000D+00 0.000000000000D+00 0.143537547220D-04 0.000000000000D+00  6 2 2 25 2 2 21 2 0.11382175D+00 0.30451185D+00 0.36196430D+06 0.36196430D+06 0.36196430D+06 0.10785699D+01  1  2 10  2  6  2        2 0.396484525586D-01 0.100000000000D+01
0.910137564642D-02 0.000000000000D+00 0.000000000000D+00 0.143537547220D-04 0.439009740483D-06  6 2 2 25 2 2 21 2 0.11389641D+00 0.31629568D+00 0.36942764D+06 0.36942764D+06 0.36942764D+06 0.10779258D+01  1  2  1  2  6  2        2 0.419960355826D-01 0.100000000000D+01
  </mgrwgt>
  </event>
  <event>
  5     66 0.18204334E-05 0.73159514E+02 0.75467711E-02 0.90041262E-01
        2 -1    0    0  501    0 0.00000000E+00 0.00000000E+00 0.73698007E+03 0.73698013E+03 0.32000000E+00 0.0000E+00 0.9000E+01
        2 -1    0    0  502    0 -.00000000E+00 -.00000000E+00 -.21806705E+04 0.21806705E+04 0.32000000E+00 0.0000E+00 0.9000E+01
       25  1    1    2    0    0 0.45550592E+03 -.10896949E+03 -.33973061E+03 0.59194753E+03 0.12500000E+03 0.0000E+00 0.9000E+01
        2  1    1    2  501    0 -.40163282E+03 0.15845724E+03 0.53366130E+03 0.68644891E+03 0.32000000E+00 0.0000E+00 0.9000E+01
        2  1    1    2  502    0 -.53873098E+02 -.49487743E+02 -.16376211E+04 0.16392542E+04 0.32000000E+00 0.0000E+00 0.9000E+01
#aMCatNLO 1  0  0  5  2 0.13267817D+02 0.00000000D+00  -5  6  0 0.00000000D+00 0.00000000D+00 0.00000000D+00 0.00000000D+00 0.00000000D+00
  <mgrwgt>
 0.6499906099D-02    6    2    0
 0.126771874198482D+04 0.000000000000000D+00 0.000000000000000D+00 0.126771874198482D+04
 0.126771874198482D+04 -.000000000000000D+00 -.000000000000000D+00 -.126771874198482D+04
 0.487723235092623D+03 0.455500162648558D+03 -.108960982726407D+03 -.538150547676691D+02
 0.109376972680660D+04 -.401621976266942D+03 0.158452957365794D+03 0.100495008023287D+04
 0.953944522070418D+03 -.538781863816157D+02 -.494919746393865D+02 -.951135025465197D+03
 0.000000000000000D+00 -.000000000000000D+00 0.000000000000000D+00 0.000000000000000D+00
 0.126771874198482D+04 0.000000000000000D+00 0.000000000000000D+00 0.126771874198482D+04
 0.126771874198482D+04 -.000000000000000D+00 -.000000000000000D+00 -.126771874198482D+04
 0.494444658745090D+03 0.452431425809500D+03 -.111779894349338D+03 -.107988799052413D+03
 0.990888919770769D+03 -.408135392991059D+03 0.152469796517682D+03 0.889965905786493D+03
 0.697464914326132D+03 0.264835137931937D+03 -.122733848530931D+03 -.633447755428430D+03
 0.352638991127646D+03 -.309131170750379D+03 0.820439463625871D+02 -.148529351305650D+03
0.235371047072D-02 0.000000000000D+00 0.000000000000D+00 0.286917524728D-04 0.000000000000D+00  6 2 2 25 2 2 21 0 0.11338156D+00 0.33548777D+00 0.24485381D+06 0.24485381D+06 0.24485381D+06 0.10911393D+01  1  2  2  3  6  5        2 0.823313495110D-02 0.100000000000D+01
0.775511431055D-03 0.000000000000D+00 -.903886795378D-05 0.286917524728D-04 0.000000000000D+00  6 2 2 25 2 2 21 2 0.11338156D+00 0.33548777D+00 0.24485381D+06 0.24485381D+06 0.24485381D+06 0.10911393D+01  1  2  3  3  6  5        2 0.322968978113D-02 0.100000000000D+01
-.166483233569D-02 0.000000000000D+00 0.000000000000D+00 0.286917524728D-04 0.000000000000D+00  6 2 2 25 2 2 21 2 0.11338156D+00 0.33548777D+00 0.24485381D+06 0.24485381D+06 0.24485381D+06 0.10911393D+01  1  2 15  3  6  5        2 -.693334974387D-02 0.100000000000D+01
-.632692334366D-04 0.000000000000D+00 0.000000000000D+00 0.286917524728D-04 0.000000000000D+00  6 2 2 25 2 2 21 2 0.11338156D+00 0.33548777D+00 0.24485381D+06 0.24485381D+06 0.24485381D+06 0.10911393D+01  1  2  4  3  6  5        2 -.263490631482D-03 0.100000000000D+01
-.124367804572D-02 0.000000000000D+00 0.000000000000D+00 0.286917524728D-04 0.000000000000D+00  6 2 2 25 2 2 21 2 0.11338156D+00 0.33548777D+00 0.24485381D+06 0.24485381D+06 0.24485381D+06 0.10911393D+01  1  2  5  3  6  5        2 -.517941337086D-02 0.100000000000D+01
0.178008617302D-02 0.000000000000D+00 -.000000000000D+00 0.286917524728D-04 0.000000000000D+00  6 2 2 25 2 2 21 2 0.11338156D+00 0.33548777D+00 0.24485381D+06 0.24485381D+06 0.24485381D+06 0.10911393D+01  1  2  6  3  6  5        2 0.741333511321D-02 0.100000000000D+01
  </mgrwgt>
  </event>
  <event>
  5     66 0.18204334E-05 0.17020967E+03 0.75467711E-02 0.91113457E-01
        2 -1    0    0  501    0 0.00000000E+00 0.00000000E+00 0.19025047E+04 0.19025047E+04 0.32000000E+00 0.0000E+00 0.9000E+01
        2 -1    0    0  502    0 0.00000000E+00 0.00000000E+00 -.12230353E+04 0.12230353E+04 0.32000000E+00 0.0000E+00 0.9000E+01
       25  1    1    2    0    0 0.14765726E+03 0.46542619E+03 -.45502916E+03 0.67904399E+03 0.12500000E+03 0.0000E+00 0.9000E+01
        2  1    1    2  501    0 -.21152852E+03 -.62322618E+03 0.17174290E+04 0.18392166E+04 0.32000000E+00 0.0000E+00 0.9000E+01
        2  1    1    2  502    0 0.63871258E+02 0.15779999E+03 -.58293044E+03 0.60727948E+03 0.32000000E+00 0.0000E+00 0.9000E+01
#aMCatNLO 1  0  0  5  1 0.67547000D+02 0.00000000D+00  -5  6  0 0.00000000D+00 0.00000000D+00 0.00000000D+00 0.00000000D+00 0.00000000D+00
  <mgrwgt>
 0.2160908878D-02    7    2    0
 0.152539519047116D+04 0.000000000000000D+00 0.000000000000000D+00 0.152539519047116D+04
 0.152539519047116D+04 -.000000000000000D+00 -.000000000000000D+00 -.152539519047116D+04
 0.797154230637413D+03 0.147669038484265D+03 0.465454102788866D+03 -.617556637640040D+03
 0.150178479023961D+04 -.211529721607415D+03 -.623229720755439D+03 0.134988793914118D+04
 0.751851360065301D+03 0.638606831231499D+02 0.157775617966573D+03 -.732331301501140D+03
 0.000000000000000D+00 0.000000000000000D+00 0.000000000000000D+00 0.000000000000000D+00
 0.152539519047116D+04 0.000000000000000D+00 0.000000000000000D+00 0.152539519047116D+04
 0.152539519047116D+04 -.000000000000000D+00 -.000000000000000D+00 -.152539519047116D+04
 0.800649733985327D+03 0.148001384544034D+03 0.466275204324183D+03 -.621367862490704D+03
 0.149463446798678D+04 -.210906461084887D+03 -.621689879505913D+03 0.134274061206426D+04
 0.219949845435713D+03 -.392619282628948D+02 0.990375347534250D+01 -.216190543649284D+03
 0.535556333534505D+03 0.102167004803748D+03 0.145510921706388D+03 -.505182205924269D+03
0.452507138288D-03 0.000000000000D+00 0.000000000000D+00 0.583122363839D-06 0.000000000000D+00  6 2 2 25 2 2 21 0 0.29269303D+00 0.18815928D+00 0.44383632D+06 0.44383632D+06 0.44383632D+06 0.10721869D+01  1  2  2  3  6  5        2 0.105983889565D-02 0.100000000000D+01
0.427122566512D-04 0.000000000000D+00 -.173774655889D-05 0.583122363839D-06 0.000000000000D+00  6 2 2 25 2 2 21 2 0.29269303D+00 0.18815928D+00 0.44383632D+06 0.44383632D+06 0.44383632D+06 0.10721869D+01  1  2  3  3  6  5        2 0.115002679419D-03 0.100000000000D+01
-.279311035523D-03 0.000000000000D+00 0.000000000000D+00 0.583122363839D-06 0.000000000000D+00  6 2 2 25 2 2 21 2 0.29269303D+00 0.18815928D+00 0.44383632D+06 0.44383632D+06 0.44383632D+06 0.10721869D+01  1  2 15  3  6  5        2 -.752044494833D-03 0.100000000000D+01
0.512608769375D-09 0.000000000000D+00 0.000000000000D+00 0.583122363839D-06 0.000000000000D+00  6 2 2 25 2 2 21 2 0.29269303D+00 0.18815928D+00 0.47589055D+06 0.47589055D+06 0.47589055D+06 0.10700306D+01  1  2 12  3  6  5        2 0.136790519605D-08 0.100000000000D+01
-.226423945101D-03 0.000000000000D+00 0.000000000000D+00 0.583122363839D-06 0.000000000000D+00  6 2 2 25 2 2 21 2 0.29269303D+00 0.18815928D+00 0.44383632D+06 0.44383632D+06 0.44383632D+06 0.10721869D+01  1  2  4  3  6  5        2 -.609646092546D-03 0.100000000000D+01
-.100691497485D-02 0.000000000000D+00 0.000000000000D+00 0.583122363839D-06 0.000000000000D+00  6 2 2 25 2 2 21 2 0.29269303D+00 0.18815928D+00 0.44383632D+06 0.44383632D+06 0.44383632D+06 0.10721869D+01  1  2  5  3  6  5        2 -.271111688151D-02 0.100000000000D+01
0.187887708617D-02 0.000000000000D+00 -.000000000000D+00 0.583122363839D-06 0.000000000000D+00  6 2 2 25 2 2 21 2 0.29269303D+00 0.18815928D+00 0.44383632D+06 0.44383632D+06 0.44383632D+06 0.10721869D+01  1  2  6  3  6  5        2 0.505887340424D-02 0.100000000000D+01
  </mgrwgt>
  </event>
  <event>
  5     66 -.18204334E-05 0.32452369E+02 0.75467711E-02 0.94556528E-01
        2 -1    0    0  501    0 0.00000000E+00 0.00000000E+00 0.89566204E+03 0.89566210E+03 0.32000000E+00 0.0000E+00 0.9000E+01
        2 -1    0    0  502    0 -.00000000E+00 -.00000000E+00 -.24809589E+04 0.24809589E+04 0.32000000E+00 0.0000E+00 0.9000E+01
       25  1    1    2    0    0 0.23465968E+03 -.39772947E+03 -.13129668E+03 0.49610252E+03 0.12500000E+03 0.0000E+00 0.9000E+01
        2  1    1    2  501    0 0.30356139E+00 -.32452777E+02 0.68515485E+03 0.68592313E+03 0.32000000E+00 0.0000E+00 0.9000E+01
        2  1    1    2  502    0 -.23496324E+03 0.43018224E+03 -.21391550E+04 0.21945953E+04 0.32000000E+00 0.0000E+00 0.9000E+01
#aMCatNLO 1  0  0  5  1 0.43703513D+02 0.00000000D+00  -5  6  0 0.00000000D+00 0.00000000D+00 0.00000000D+00 0.00000000D+00 0.00000000D+00
  <mgrwgt>
 -.7343413572D-01    6    2    0
 0.149067126628510D+04 0.000000000000000D+00 0.000000000000000D+00 0.149067126628510D+04
 0.149067126628510D+04 -.000000000000000D+00 -.000000000000000D+00 -.149067126628510D+04
 0.492118937130445D+03 0.234681639048507D+03 -.397770847366673D+03 0.115147425334239D+03
 0.114112500655013D+04 0.303544289740963D+00 -.324509493649212D+02 0.114066345795779D+04
 0.134809858888962D+04 -.234985183338248D+03 0.430221796731595D+03 -.125581088329203D+04
 0.000000000000000D+00 0.000000000000000D+00 0.000000000000000D+00 -.000000000000000D+00
 0.149067126628510D+04 0.000000000000000D+00 0.000000000000000D+00 0.149067126628510D+04
 0.149067126628510D+04 -.000000000000000D+00 -.000000000000000D+00 -.149067126628510D+04
 0.491856649161140D+03 0.234599809395232D+03 -.397621029833681D+03 0.114710110233354D+03
 0.114010168757050D+04 0.113832276535843D+00 -.321036157925522D+02 0.113964959654112D+04
 0.713661393213637D+03 -.167178011460134D+03 0.226126818083395D+03 -.655919780759312D+03
 0.635722802624921D+03 -.675356302116342D+02 0.203597827542839D+03 -.598439926015167D+03
0.575720843734D-03 0.000000000000D+00 0.000000000000D+00 0.102373760035D-03 0.000000000000D+00  6 2 2 25 2 2 21 0 0.13779417D+00 0.38168599D+00 0.25056206D+06 0.25056206D+06 0.25056206D+06 0.10903857D+01  1  2  2  3  6  5        2 0.105782331536D-02 0.100000000000D+01
0.364745238959D-03 0.000000000000D+00 -.221091963072D-05 0.102373760035D-03 0.000000000000D+00  6 2 2 25 2 2 21 2 0.13779417D+00 0.38168599D+00 0.25056206D+06 0.25056206D+06 0.25056206D+06 0.10903857D+01  1  2  3  3  6  5        2 0.796803335121D-03 0.100000000000D+01
-.434629903635D-03 0.000000000000D+00 0.000000000000D+00 0.102373760035D-03 0.000000000000D+00  6 2 2 25 2 2 21 2 0.13779417D+00 0.38168599D+00 0.25056206D+06 0.25056206D+06 0.25056206D+06 0.10903857D+01  1  2 15  3  6  5        2 -.949469711375D-03 0.100000000000D+01
-.484625354422D-01 0.000000000000D+00 0.000000000000D+00 0.102373760035D-03 0.000000000000D+00  6 2 2 25 2 2 21 2 0.13779417D+00 0.38168599D+00 0.25056206D+06 0.25056206D+06 0.25056206D+06 0.10903857D+01  1  2  4  3  6  5        2 -.105868715323D+00 0.100000000000D+01
-.256161738841D-01 0.000000000000D+00 0.000000000000D+00 0.102373760035D-03 0.000000000000D+00  6 2 2 25 2 2 21 2 0.13779417D+00 0.38168599D+00 0.25056206D+06 0.25056206D+06 0.25056206D+06 0.10903857D+01  1  2  5  3  6  5        2 -.559597510912D-01 0.100000000000D+01
0.400491039374D-01 0.000000000000D+00 -.000000000000D+00 0.102373760035D-03 0.000000000000D+00  6 2 2 25 2 2 21 2 0.13779417D+00 0.38168599D+00 0.25056206D+06 0.25056206D+06 0.25056206D+06 0.10903857D+01  1  2  6  3  6  5        2 0.874891737503D-01 0.100000000000D+01
  </mgrwgt>
  </event>
  <event>
  5     66 0.18204334E-05 0.14618649E+03 0.75467711E-02 0.94326981E-01
        2 -1    0    0  501    0 0.00000000E+00 0.00000000E+00 0.24977953E+04 0.24977954E+04 0.32000000E+00 0.0000E+00 0.9000E+01
        2 -1    0    0  502    0 0.00000000E+00 0.00000000E+00 -.51412967E+03 0.51412977E+03 0.32000000E+00 0.0000E+00 0.9000E+01
       25  1    1    2    0    0 -.40073621E+03 -.21239382E+03 0.18145364E+03 0.50423315E+03 0.12500000E+03 0.0000E+00 0.9000E+01
        2  1    1    2  501    0 0.11873439E+03 -.85291160E+02 0.20322644E+04 0.20375159E+04 0.32000000E+00 0.0000E+00 0.9000E+01
        2  1    1    2  502    0 0.28200182E+03 0.29768498E+03 -.23005235E+03 0.47017609E+03 0.32000000E+00 0.0000E+00 0.9000E+01
#aMCatNLO 1  0  0  2  4 0.79340088D+02 0.00000000D+00  -5  6  0 0.00000000D+00 0.00000000D+00 0.00000000D+00 0.00000000D+00 0.00000000D+00
  <mgrwgt>
 0.3715120243D-02    5    2    0
 0.113322145963534D+04 0.000000000000000D+00 0.000000000000000D+00 0.113322145963534D+04
 0.113322145963534D+04 0.000000000000000D+00 0.000000000000000D+00 -.113322145963534D+04
 0.511292442673499D+03 -.400765678467727D+03 -.212426353193127D+03 -.200142142904499D+03
 0.928951800270884D+03 0.118728982153509D+03 -.852872749189045D+02 0.917377216176757D+03
 0.826198676326299D+03 0.282036696314218D+03 0.297713628112032D+03 -.717235073272258D+03
 0.000000000000000D+00 -.000000000000000D+00 -.000000000000000D+00 -.000000000000000D+00
 0.267463091928290D+04 0.000000000000000D+00 0.000000000000000D+00 0.267463091928290D+04
 0.341442136147770D+04 0.000000000000000D+00 0.000000000000000D+00 -.341442136147770D+04
 0.262877112351787D+03 -.746173113013510D+02 -.886270595595197D+02 -.200142142904499D+03
 0.149363219869445D+04 0.113933462397589D+04 0.302113890488836D+03 0.917377216176757D+03
 0.166487954920680D+04 0.133149813595298D+04 0.696067868091135D+03 -.717235073272258D+03
 0.266766342050757D+04 -.239621544862752D+04 -.909554699020451D+03 -.739790442194794D+03
0.348236855016D-02 0.000000000000D+00 0.000000000000D+00 0.273476747250D-05 0.000000000000D+00  6 2 2 25 2 2 21 0 0.38427621D+00 0.79096882D-01 0.26356627D+06 0.26356627D+06 0.26356627D+06 0.10887368D+01  1  2  2  2  6  2        2 0.122774722922D-01 0.100000000000D+01
0.576408330561D-03 0.000000000000D+00 -.133732121613D-04 0.273476747250D-05 0.000000000000D+00  6 2 2 25 2 2 21 2 0.38427621D+00 0.79096882D-01 0.26356627D+06 0.26356627D+06 0.26356627D+06 0.10887368D+01  1  2  3  2  6  2        2 0.240885288411D-02 0.100000000000D+01
-.264239882587D-02 0.000000000000D+00 0.000000000000D+00 0.273476747250D-05 0.000000000000D+00  6 2 2 25 2 2 21 2 0.38427621D+00 0.79096882D-01 0.26356627D+06 0.26356627D+06 0.26356627D+06 0.10887368D+01  1  2 15  2  6  2        2 -.110427793895D-01 0.100000000000D+01
0.175956827973D-01 0.000000000000D+00 -.452791536532D-02 0.273476747250D-05 0.000000000000D+00  6 2 2 25 2 2 21 2 0.38427621D+00 0.74156141D+00 0.26356627D+06 0.26356627D+06 0.26356627D+06 0.10887368D+01  1  2  5  2  6  2        2 0.714408000189D-04 0.100000000000D+01
0.404547019369D-02 0.000000000000D+00 -.121397733949D-02 0.273476747250D-05 0.000000000000D+00  6 2 21 25 2 2 -2 2 0.38427621D+00 0.74156141D+00 0.26356627D+06 0.26356627D+06 0.26356627D+06 0.10887368D+01  1  2  5  5  6  2        2 0.133656589937D-06 0.100000000000D+01
  </mgrwgt>
  </event>
  <event>
  6     66 0.18204334E-05 0.92664457E+02 0.75467711E-02 0.91749574E-01
        2 -1    0    0  501    0 0.00000000E+00 0.00000000E+00 0.82968309E+03 0.82968315E+03 0.32000000E+00 0.0000E+00 0.9000E+01
        2 -1    0    0  502    0 -.00000000E+00 -.00000000E+00 -.26850724E+04 0.26850724E+04 0.32000000E+00 0.0000E+00 0.9000E+01
       25  1    1    2    0    0 0.52331427E+03 -.14647552E+03 -.10081109E+04 0.11520528E+04 0.12500000E+03 0.0000E+00 0.9000E+01
        2  1    1    2  501    0 0.10137215E+03 0.87793301E+01 0.68959230E+03 0.69705884E+03 0.32000000E+00 0.0000E+00 0.9000E+01
        2  1    1    2  503    0 -.56654447E+03 0.12221062E+03 -.13450041E+04 0.14645628E+04 0.32000000E+00 0.0000E+00 0.9000E+01
       21  1    1    2  502  503 -.58141954E+02 0.15485567E+02 -.19186648E+03 0.20108107E+03 0.75000000E+00 0.0000E+00 0.9000E+01
#aMCatNLO 2  0  0  5  2 0.18142006D+02 0.00000000D+00  -5  6  0 0.00000000D+00 0.00000000D+00 0.00000000D+00 0.00000000D+00 0.00000000D+00
  <mgrwgt>
 0.3384358628D-01    6    2    0
 0.149256800840531D+04 0.000000000000000D+00 0.000000000000000D+00 0.149256800840531D+04
 0.149256800840531D+04 -.000000000000000D+00 -.000000000000000D+00 -.149256800840531D+04
 0.729867332244829D+03 0.523574549993358D+03 -.146533148596236D+03 -.470615607093422D+03
 0.124987327066343D+04 0.101786103849403D+03 0.868774140454313D+01 0.124569149669224D+04
 0.100539541390235D+04 -.625360653842762D+03 0.137845407191693D+03 -.775075889598815D+03
 0.000000000000000D+00 0.000000000000000D+00 0.000000000000000D+00 -.000000000000000D+00
 0.149256800840531D+04 0.000000000000000D+00 0.000000000000000D+00 0.149256800840531D+04
 0.149256800840531D+04 -.000000000000000D+00 -.000000000000000D+00 -.149256800840531D+04
 0.729876546333799D+03 0.523331969845770D+03 -.146479677756624D+03 -.470916262439319D+03
 0.124932711957632D+04 0.101370786882903D+03 0.877928783620469D+01 0.124517675025704D+04
 0.888464074965562D+03 -.566591331240096D+03 0.122219495656418D+03 -.673353600086520D+03
 0.117468275934932D+03 -.581114254885763D+02 0.154808942640018D+02 -.100906887731204D+03
-.317933362298D-01 0.000000000000D+00 0.000000000000D+00 0.281527285448D-05 0.000000000000D+00  6 2 2 25 2 2 21 2 0.12764356D+00 0.41308806D+00 0.42194612D+06 0.42194612D+06 0.42194612D+06 0.10737594D+01  1  2 13  3  6  5        2 -.543395602660D-01 0.100000000000D+01
-.322753165988D-08 0.000000000000D+00 0.000000000000D+00 0.281527285448D-05 0.000000000000D+00  6 2 2 25 2 2 21 2 0.12764356D+00 0.41308806D+00 0.42194612D+06 0.42194612D+06 0.42194612D+06 0.10737594D+01  1  2 13  3  6  5        2 -.551633367050D-08 0.100000000000D+01
-.453718307018D-02 0.000000000000D+00 0.000000000000D+00 0.281527285448D-05 0.000000000000D+00  6 2 2 25 2 2 21 2 0.12764356D+00 0.41308806D+00 0.42276423D+06 0.42276423D+06 0.42276423D+06 0.10736990D+01  1  2  8  3  6  5        2 -.775267052120D-02 0.100000000000D+01
-.228518518678D-02 0.000000000000D+00 0.000000000000D+00 0.281527285448D-05 0.000000000000D+00  6 2 2 25 2 2 21 2 0.12764356D+00 0.41308806D+00 0.42276423D+06 0.42276423D+06 0.42276423D+06 0.10736990D+01  1  2  9  3  6  5        2 -.390468878134D-02 0.100000000000D+01
0.256765940996D-02 0.000000000000D+00 0.000000000000D+00 0.281527285448D-05 0.000000000000D+00  6 2 2 25 2 2 21 2 0.12764356D+00 0.41308806D+00 0.42276423D+06 0.42276423D+06 0.42276423D+06 0.10736990D+01  1  2 10  3  6  5        2 0.438735160300D-02 0.100000000000D+01
0.558483430453D-01 0.000000000000D+00 0.000000000000D+00 0.281527285448D-05 0.675192200603D-07  6 2 2 25 2 2 21 2 0.12764356D+00 0.41308806D+00 0.42194612D+06 0.42194612D+06 0.42194612D+06 0.10737594D+01  1  2  1  3  6  5        2 0.954531597669D-01 0.100000000000D+01
  </mgrwgt>
  </event>
  <event>
  5     66 0.18204334E-05 0.11493932E+02 0.75467711E-02 0.90613130E-01
        2 -1    0    0  501    0 0.00000000E+00 0.00000000E+00 0.11744662E+04 0.11744662E+04 0.32000000E+00 0.0000E+00 0.9000E+01
        2 -1    0    0  502    0 -.00000000E+00 -.00000000E+00 -.41301611E+04 0.41301611E+04 0.32000000E+00 0.0000E+00 0.9000E+01
       25  1    1    2    0    0 0.44308910E+03 -.51449941E+03 -.24479219E+04 0.25434198E+04 0.12500000E+03 0.0000E+00 0.9000E+01
        2  1    1    2  501    0 -.10537256E+02 -.45912808E+01 0.10568531E+04 0.10569156E+04 0.32000000E+00 0.0000E+00 0.9000E+01
        2  1    1    2  502    0 -.43255184E+03 0.51909070E+03 -.15646261E+04 0.17042920E+04 0.32000000E+00 0.0000E+00 0.9000E+01
#aMCatNLO 1  0  0  5  1 0.38211698D+03 0.00000000D+00  -5  6  0 0.00000000D+00 0.00000000D+00 0.00000000D+00 0.00000000D+00 0.00000000D+00
  <mgrwgt>
 0.8440467785D-02    4    2    0
 0.220243836658920D+04 0.000000000000000D+00 0.000000000000000D+00 0.220243836658920D+04
 0.220243836658920D+04 -.000000000000000D+00 -.000000000000000D+00 -.220243836658920D+04
 0.142038508687792D+04 0.443112944163247D+03 -.514527568712534D+03 -.124128203675673D+04
 0.198193391818740D+04 -.105371302587213D+02 -.459122612782340D+01 0.198190058922999D+04
 0.100255772811308D+04 -.432575813904526D+03 0.519118794840357D+03 -.740618552473263D+03
 0.000000000000000D+00 0.000000000000000D+00 0.000000000000000D+00 0.000000000000000D+00
 0.220243836658920D+04 0.000000000000000D+00 0.000000000000000D+00 0.220243836658920D+04
 0.220243836658920D+04 -.000000000000000D+00 -.000000000000000D+00 -.220243836658920D+04
 0.142939567757792D+04 0.431399449289814D+03 -.500470621591103D+03 -.126133686030144D+04
 0.195443792678461D+04 -.267168560822317D+02 0.148254853487963D+02 0.195419907487425D+04
 0.958804090040954D+03 -.453287050185847D+03 0.516216280321370D+03 -.668847430393691D+03
 0.622390387749079D+02 0.486044569782651D+02 -.305711440790624D+02 -.240147841791192D+02
0.573039548636D-01 0.000000000000D+00 0.000000000000D+00 0.201962113596D-04 0.000000000000D+00  6 2 2 25 2 2 21 0 0.18068711D+00 0.63540941D+00 0.47448964D+06 0.47448964D+06 0.47448964D+06 0.10701215D+01  1  2  2  3  6  5        2 0.481884788356D-02 0.100000000000D+01
0.799966261600D-01 0.000000000000D+00 -.220062275154D-03 0.201962113596D-04 0.000000000000D+00  6 2 2 25 2 2 21 2 0.18068711D+00 0.63540941D+00 0.47448964D+06 0.47448964D+06 0.47448964D+06 0.10701215D+01  1  2  3  3  6  5        2 0.770364856080D-02 0.100000000000D+01
-.384261243791D-01 0.000000000000D+00 0.000000000000D+00 0.201962113596D-04 0.000000000000D+00  6 2 2 25 2 2 21 2 0.18068711D+00 0.63540941D+00 0.47448964D+06 0.47448964D+06 0.47448964D+06 0.10701215D+01  1  2 15  3  6  5        2 -.370042303007D-02 0.100000000000D+01
-.396268893356D-02 0.000000000000D+00 0.000000000000D+00 0.201962113596D-04 0.000000000000D+00  6 2 2 25 2 2 21 2 0.18068711D+00 0.63540941D+00 0.47448964D+06 0.47448964D+06 0.47448964D+06 0.10701215D+01  1  2  4  3  6  5        2 -.381605629703D-03 0.100000000000D+01
  </mgrwgt>
  </event>
  <event>
  5     66 -.18204334E-05 0.11682994E+03 0.75467711E-02 0.92995717E-01
        2 -1    0    0  501    0 0.00000000E+00 0.00000000E+00 0.10996672E+04 0.10996672E+04 0.32000000E+00 0.0000E+00 0.9000E+01
        2 -1    0    0  502    0 -.00000000E+00 -.00000000E+00 -.22702674E+04 0.22702674E+04 0.32000000E+00 0.0000E+00 0.9000E+01
       25  1    1    2    0    0 0.47495754E+03 0.72329868E+01 -.62286973E+03 0.79323936E+03 0.12500000E+03 0.0000E+00 0.9000E+01
        2  1    1    2  501    0 -.50216244E+03 -.12084860E+03 0.94631312E+03 0.10780910E+04 0.32000000E+00 0.0000E+00 0.9000E+01
        2  1    1    2  502    0 0.27204894E+02 0.11361561E+03 -.14940436E+04 0.14986044E+04 0.32000000E+00 0.0000E+00 0.9000E+01
#aMCatNLO 1  0  0  5  1 0.36606027D+02 0.00000000D+00  -5  6  0 0.00000000D+00 0.00000000D+00 0.00000000D+00 0.00000000D+00 0.00000000D+00
  <mgrwgt>
 -.1311878432D-01    5    2    0
 0.158004389820400D+04 0.000000000000000D+00 0.000000000000000D+00 0.158004389820400D+04
 0.158004389820400D+04 -.000000000000000D+00 -.000000000000000D+00 -.158004389820400D+04
 0.615170013096249D+03 0.474956102795822D+03 0.723002141828227D+01 -.370369507681363D+03
 0.150022379993023D+04 -.502161226775893D+03 -.120848307827831D+03 0.140851029058902D+04
 0.104469398338152D+04 0.272051239800711D+02 0.113618286409547D+03 -.103814078290766D+04
 0.000000000000000D+00 0.000000000000000D+00 0.000000000000000D+00 0.000000000000000D+00
 0.158004389820400D+04 0.000000000000000D+00 0.000000000000000D+00 0.158004389820400D+04
 0.158004389820400D+04 -.000000000000000D+00 -.000000000000000D+00 -.158004389820400D+04
 0.615708312986525D+03 0.474978708747223D+03 0.732443192208045D+01 -.371232145179472D+03
 0.149821405274784D+04 -.502106158343100D+03 -.120618322440746D+03 0.140640889285323D+04
 0.184068784822870D+03 0.336982280053370D+02 -.265546869912313D+01 -.180938374761841D+03
 0.862096645850750D+03 -.657077840946052D+01 0.115949359217787D+03 -.854238372911913D+03
0.112960515303D-02 0.000000000000D+00 0.000000000000D+00 0.118645296554D-04 0.000000000000D+00  6 2 2 25 2 2 21 0 0.16917957D+00 0.34927192D+00 0.31613113D+06 0.31613113D+06 0.31613113D+06 0.10828730D+01  1  2  2  3  6  5        2 0.200501700816D-02 0.100000000000D+01
0.225891452124D-03 0.000000000000D+00 -.433798121950D-05 0.118645296554D-04 0.000000000000D+00  6 2 2 25 2 2 21 2 0.16917957D+00 0.34927192D+00 0.31613113D+06 0.31613113D+06 0.31613113D+06 0.10828730D+01  1  2  3  3  6  5        2 0.470160628627D-03 0.100000000000D+01
-.821407254406D-03 0.000000000000D+00 0.000000000000D+00 0.118645296554D-04 0.000000000000D+00  6 2 2 25 2 2 21 2 0.16917957D+00 0.34927192D+00 0.31613113D+06 0.31613113D+06 0.31613113D+06 0.10828730D+01  1  2 15  3  6  5        2 -.170964127885D-02 0.100000000000D+01
0.102351212497D-09 0.000000000000D+00 0.000000000000D+00 0.118645296554D-04 0.000000000000D+00  6 2 2 25 2 2 21 2 0.16917957D+00 0.34927192D+00 0.33497176D+06 0.33497176D+06 0.33497176D+06 0.10810267D+01  1  2 12  3  6  5        2 0.211368588958D-09 0.100000000000D+01
-.667080401133D-02 0.000000000000D+00 0.000000000000D+00 0.118645296554D-04 0.000000000000D+00  6 2 2 25 2 2 21 2 0.16917957D+00 0.34927192D+00 0.31613113D+06 0.31613113D+06 0.31613113D+06 0.10828730D+01  1  2  5  3  6  5        2 -.138843208892D-01 0.100000000000D+01
  </mgrwgt>
  </event>
  <event>
  6     66 -.18204334E-05 0.87016713E+02 0.75467711E-02 0.95322355E-01
        2 -1    0    0  501    0 0.00000000E+00 0.00000000E+00 0.15632257E+04 0.15632257E+04 0.32000000E+00 0.0000E+00 0.9000E+01
        2 -1    0    0  502    0 0.00000000E+00 0.00000000E+00 -.47008377E+03 0.47008388E+03 0.32000000E+00 0.0000E+00 0.9000E+01
       25  1    1    2    0    0 0.62445245E+02 -.45715083E+03 -.19302151E+02 0.47841808E+03 0.12500000E+03 0.0000E+00 0.9000E+01
        2  1    1    2  501    0 0.10294146E+01 0.10099384E+03 0.11808930E+04 0.11852042E+04 0.32000000E+00 0.0000E+00 0.9000E+01
        2  1    1    2  503    0 -.24641386E+02 0.14842101E+03 -.45090884E+02 0.15706459E+03 0.32000000E+00 0.0000E+00 0.9000E+01
       21  1    1    2  502  503 -.38833274E+02 0.20773598E+03 -.23357990E+02 0.21262271E+03 0.75000000E+00 0.0000E+00 0.9000E+01
#aMCatNLO 2  0  0  5  2 0.16511251D+02 0.00000000D+00  -5  6  0 0.00000000D+00 0.00000000D+00 0.00000000D+00 0.00000000D+00 0.00000000D+00
  <mgrwgt>
 -.7815517403D-03    3    2    0
 0.857232280245301D+03 0.000000000000000D+00 0.000000000000000D+00 0.857232280245301D+03
 0.857232280245301D+03 -.000000000000000D+00 -.000000000000000D+00 -.857232280245301D+03
 0.579789310448688D+03 0.624990383962384D+02 -.457452907200908D+03 -.327660422394202D+03
 0.652903709245020D+03 0.108709685316483D+01 0.100667741216341D+03 0.645095401971474D+03
 0.481771540796894D+03 -.635861352494033D+02 0.356785165984568D+03 -.317434979577271D+03
 0.000000000000000D+00 -.000000000000000D+00 0.000000000000000D+00 0.000000000000000D+00
 0.857232280245301D+03 0.000000000000000D+00 0.000000000000000D+00 0.857232280245301D+03
 0.857232280245301D+03 -.000000000000000D+00 -.000000000000000D+00 -.857232280245301D+03
 0.579701754757271D+03 0.624478728937238D+02 -.457165814861741D+03 -.327915851037287D+03
 0.652669389338671D+03 0.102948510809573D+01 0.100991003763223D+03 0.644807792368410D+03
 0.214745240760564D+03 -.246083110494511D+02 0.148227478766474D+03 -.153422827490372D+03
 0.267348175634096D+03 -.388690469523685D+02 0.207947332332044D+03 -.163469113840751D+03
-.360285962308D-03 0.000000000000D+00 0.000000000000D+00 0.106649683222D-05 0.000000000000D+00  6 2 2 25 2 2 21 2 0.24049627D+00 0.72320591D-01 0.22129713D+06 0.22129713D+06 0.22129713D+06 0.10944661D+01  1  2 13  3  6  5        2 -.557762018879D-02 0.100000000000D+01
-.110360261125D-08 0.000000000000D+00 0.000000000000D+00 0.106649683222D-05 0.000000000000D+00  6 2 2 25 2 2 21 2 0.24049627D+00 0.72320591D-01 0.22129713D+06 0.22129713D+06 0.22129713D+06 0.10944661D+01  1  2 13  3  6  5        2 -.170849737400D-07 0.100000000000D+01
0.309802789228D-03 0.000000000000D+00 0.000000000000D+00 0.106649683222D-05 0.572789140122D-08  6 2 2 25 2 2 21 2 0.24049627D+00 0.72320591D-01 0.22129713D+06 0.22129713D+06 0.22129713D+06 0.10944661D+01  1  2  1  3  6  5        2 0.479608553348D-02 0.100000000000D+01
  </mgrwgt>
  </event>
  <event>
  5     66 -.18204334E-05 0.16358026E+02 0.75467711E-02 0.91619707E-01
        2 -1    0    0  501    0 0.00000000E+00 0.00000000E+00 0.52474478E+03 0.52474488E+03 0.32000000E+00 0.0000E+00 0.9000E+01
        2 -1    0    0  502    0 0.00000000E+00 0.00000000E+00 -.20919147E+04 0.20919147E+04 0.32000000E+00 0.0000E+00 0.9000E+01
       25  1    1    2    0    0 -.38433876E+03 -.51670690E+03 0.80564082E+02 0.66092199E+03 0.12500000E+03 0.0000E+00 0.9000E+01
        2  1    1    2  501    0 0.66635884E+01 0.14962329E+02 0.98582215E+02 0.99934129E+02 0.32000000E+00 0.0000E+00 0.9000E+01
        2  1    1    2  502    0 0.37767517E+03 0.50174457E+03 -.17463162E+04 0.18558035E+04 0.32000000E+00 0.0000E+00 0.9000E+01
#aMCatNLO 1  0  0  2  4 0.17149948D+02 0.00000000D+00  -5  6  0 0.00000000D+00 0.00000000D+00 0.00000000D+00 0.00000000D+00 0.00000000D+00
  <mgrwgt>
 -.3144950024D-02    7    2    0
 0.104772203976460D+04 0.000000000000000D+00 0.000000000000000D+00 0.104772203976460D+04
 0.104772203976460D+04 0.000000000000000D+00 0.000000000000000D+00 -.104772203976460D+04
 0.885783769983242D+03 -.384388761373046D+03 -.516766596673177D+03 0.595134818220747D+03
 0.198264931242548D+03 0.665501735857818D+01 0.149430838904313D+02 0.197588962111786D+03
 0.101139537830341D+04 0.377733744014468D+03 0.501823512782746D+03 -.792723780332533D+03
 0.000000000000000D+00 0.000000000000000D+00 0.000000000000000D+00 -.000000000000000D+00
 0.104834760698063D+04 0.000000000000000D+00 0.000000000000000D+00 0.104834760698063D+04
 0.117228381190386D+04 0.000000000000000D+00 0.000000000000000D+00 -.117228381190386D+04
 0.890979788466432D+03 -.389799496183740D+03 -.521623316553188D+03 0.595134818220747D+03
 0.198149343910720D+03 0.544782661683449D+01 0.138594995937470D+02 0.197588962111786D+03
 0.100638512697600D+04 0.371589046162953D+03 0.496307981666135D+03 -.792723780332533D+03
 0.125117159531338D+03 0.127626234039533D+02 0.114558352933059D+02 -.123936204923226D+03
0.237082544288D-05 0.000000000000D+00 0.000000000000D+00 0.217318984458D-05 0.000000000000D+00  6 2 2 25 2 2 21 0 0.80729976D-01 0.32183304D+00 0.42284309D+06 0.42284309D+06 0.42284309D+06 0.10736932D+01  1  2  2  2  6  2        2 0.134542070714D-04 0.100000000000D+01
0.131428183190D-05 0.000000000000D+00 -.910459395334D-08 0.217318984458D-05 0.000000000000D+00  6 2 2 25 2 2 21 2 0.80729976D-01 0.32183304D+00 0.42284309D+06 0.42284309D+06 0.42284309D+06 0.10736932D+01  1  2  3  2  6  2        2 0.859819784967D-05 0.100000000000D+01
-.161669104099D-05 0.000000000000D+00 0.000000000000D+00 0.217318984458D-05 0.000000000000D+00  6 2 2 25 2 2 21 2 0.80729976D-01 0.32183304D+00 0.42284309D+06 0.42284309D+06 0.42284309D+06 0.10736932D+01  1  2 15  2  6  2        2 -.105765971155D-04 0.100000000000D+01
-.588498436501D-03 0.000000000000D+00 0.000000000000D+00 0.217318984458D-05 0.000000000000D+00  6 2 2 25 2 2 21 2 0.80729976D-01 0.32183304D+00 0.42284309D+06 0.42284309D+06 0.42284309D+06 0.10736932D+01  1  2  4  2  6  2        2 -.385003114890D-02 0.100000000000D+01
-.394441127107D-03 0.000000000000D+00 -.404502467696D-05 0.217318984458D-05 0.000000000000D+00  6 2 2 25 2 2 21 2 0.80729976D-01 0.36016037D+00 0.42284309D+06 0.42284309D+06 0.42284309D+06 0.10736932D+01  1  2  5  2  6  2        2 -.186920983766D-02 0.100000000000D+01
0.392435001286D-03 0.000000000000D+00 0.401955411629D-05 0.217318984458D-05 0.000000000000D+00  6 2 2 25 2 2 21 2 0.80729976D-01 0.32183304D+00 0.42284309D+06 0.42284309D+06 0.42284309D+06 0.10736932D+01  1  2  6  2  6  2        2 0.256735937627D-02 0.100000000000D+01
-.707106086866D-05 0.000000000000D+00 -.726846445240D-07 0.217318984458D-05 0.000000000000D+00  6 2 21 25 2 2 -2 2 0.80729976D-01 0.36016037D+00 0.42284309D+06 0.42284309D+06 0.42284309D+06 0.10736932D+01  1  2  5  5  6  2        2 -.454422164472D-05 0.100000000000D+01
  </mgrwgt>
  </event>
  <event>
  5     66 -.18204334E-05 0.64498132E+02 0.75467711E-02 0.95318806E-01
        2 -1    0    0  501    0 0.00000000E+00 0.00000000E+00 0.95718106E+03 0.95718111E+03 0.32000000E+00 0.0000E+00 0.9000E+01
        2 -1    0    0  502    0 -.00000000E+00 -.00000000E+00 -.14005848E+04 0.14005848E+04 0.32000000E+00 0.0000E+00 0.9000E+01
       25  1    1    2    0    0 -.29593894E+03 -.35420335E+03 -.95649458E+03 0.10693675E+04 0.12500000E+03 0.0000E+00 0.9000E+01
        2  1    1    2  501    0 0.24634467E+03 0.31295035E+03 0.85354147E+03 0.94189000E+03 0.32000000E+00 0.0000E+00 0.9000E+01
        2  1    1    2  502    0 0.49594271E+02 0.41252998E+02 -.34045063E+03 0.34650850E+03 0.32000000E+00 0.0000E+00 0.9000E+01
#aMCatNLO 1  0  0  5  2 0.27763268D+01 0.00000000D+00  -5  6  0 0.00000000D+00 0.00000000D+00 0.00000000D+00 0.00000000D+00 0.00000000D+00
  <mgrwgt>
 -.1242644990D-01    9    2    0
 0.115784858856283D+04 0.000000000000000D+00 0.000000000000000D+00 0.115784858856283D+04
 0.115784858856283D+04 -.000000000000000D+00 -.000000000000000D+00 -.115784858856283D+04
 0.905701299961878D+03 -.295932678437487D+03 -.354198326041200D+03 -.769179589182567D+03
 0.112244295760532D+04 0.246346420290163D+03 0.312952574136717D+03 0.104940569877869D+04
 0.287552919558468D+03 0.495862581473240D+02 0.412457519044834D+02 -.280226109596125D+03
 0.000000000000000D+00 0.000000000000000D+00 0.000000000000000D+00 -.000000000000000D+00
 0.115784858856283D+04 0.000000000000000D+00 0.000000000000000D+00 0.115784858856283D+04
 0.115784858856283D+04 -.000000000000000D+00 -.000000000000000D+00 -.115784858856283D+04
 0.905717357898236D+03 -.295928806655974D+03 -.354195105500960D+03 -.769201469725908D+03
 0.112241977182379D+04 0.246351218528260D+03 0.312956565301719D+03 0.104937858256454D+04
 0.106840180727889D+03 0.179363880398293D+02 0.180358219646510D+02 -.103768103616247D+03
 0.180719866675745D+03 0.316412000878849D+02 0.232027182345898D+02 -.176409009222386D+03
0.140700964927D-04 0.000000000000D+00 0.000000000000D+00 0.464928345648D-05 0.000000000000D+00  6 2 2 25 2 2 21 0 0.14725863D+00 0.21547459D+00 0.22135064D+06 0.22135064D+06 0.22135064D+06 0.10944581D+01  1  2  2  3  6  5        2 0.937754976273D-04 0.100000000000D+01
0.170457324214D-05 0.000000000000D+00 -.540328752734D-07 0.464928345648D-05 0.000000000000D+00  6 2 2 25 2 2 21 2 0.14725863D+00 0.21547459D+00 0.22135064D+06 0.22135064D+06 0.22135064D+06 0.10944581D+01  1  2  3  3  6  5        2 0.136083745956D-04 0.100000000000D+01
-.993050655873D-05 0.000000000000D+00 0.000000000000D+00 0.464928345648D-05 0.000000000000D+00  6 2 2 25 2 2 21 2 0.14725863D+00 0.21547459D+00 0.22135064D+06 0.22135064D+06 0.22135064D+06 0.10944581D+01  1  2 15  3  6  5        2 -.792796987742D-04 0.100000000000D+01
0.402770266948D-04 0.000000000000D+00 0.000000000000D+00 0.464928345648D-05 0.000000000000D+00  6 2 2 25 2 2 21 2 0.14725863D+00 0.21547459D+00 0.22143362D+06 0.22143362D+06 0.22143362D+06 0.10944457D+01  1  2 12  3  6  5        2 0.321535741137D-03 0.100000000000D+01
0.134542344171D-10 0.000000000000D+00 0.000000000000D+00 0.464928345648D-05 0.000000000000D+00  6 2 2 25 2 2 21 2 0.14725863D+00 0.21547459D+00 0.22143362D+06 0.22143362D+06 0.22143362D+06 0.10944457D+01  1  2 12  3  6  5        2 0.107406568700D-09 0.100000000000D+01
-.122987654965D-01 0.000000000000D+00 0.000000000000D+00 0.464928345648D-05 0.000000000000D+00  6 2 2 25 2 2 21 2 0.14725863D+00 0.21547459D+00 0.22135064D+06 0.22135064D+06 0.22135064D+06 0.10944581D+01  1  2  4  3  6  5        2 -.981865746818D-01 0.100000000000D+01
-.412971910590D-02 0.000000000000D+00 0.000000000000D+00 0.464928345648D-05 0.000000000000D+00  6 2 2 25 2 2 21 2 0.14725863D+00 0.21547459D+00 0.22135064D+06 0.22135064D+06 0.22135064D+06 0.10944581D+01  1  2  5  3  6  5        2 -.329694044107D-01 0.100000000000D+01
0.104494663322D-01 0.000000000000D+00 -.000000000000D+00 0.464928345648D-05 0.000000000000D+00  6 2 2 25 2 2 21 2 0.14725863D+00 0.21547459D+00 0.22135064D+06 0.22135064D+06 0.22135064D+06 0.10944581D+01  1  2  6  3  6  5        2 0.834227879789D-01 0.100000000000D+01
0.437888519905D-02 0.000000000000D+00 0.000000000000D+00 0.464928345648D-05 0.872363342155D-06  6 2 2 25 2 2 21 2 0.14725863D+00 0.21547459D+00 0.22143362D+06 0.22143362D+06 0.22143362D+06 0.10944457D+01  1  2 11  3  6  5        2 0.349571011907D-01 0.100000000000D+01
  </mgrwgt>
  </event>
  <event>
  6     66 0.18204334E-05 0.35126586E+02 0.75467711E-02 0.93137325E-01
        2 -1    0    0  501    0 0.00000000E+00 0.00000000E+00 0.94310241E+03 0.94310247E+03 0.32000000E+00 0.0000E+00 0.9000E+01
        2 -1    0    0  502    0 -.00000000E+00 -.00000000E+00 -.21171469E+04 0.21171469E+04 0.32000000E+00 0.0000E+00 0.9000E+01
       25  1    1    2    0    0 -.53603261E+03 -.64961518E+01 -.51773606E+02 0.55288214E+03 0.12500000E+03 0.0000E+00 0.9000E+01
        2  1    1    2  501    0 0.33842434E+00 0.38402365E+02 0.64882442E+03 0.64996007E+03 0.32000000E+00 0.0000E+00 0.9000E+01
        2  1    1    2  503    0 0.49765249E+03 0.91870658E+01 -.16596734E+04 0.17327026E+04 0.32000000E+00 0.0000E+00 0.9000E+01
       21  1    1    2  502  503 0.38041689E+02 -.41093279E+02 -.11142190E+03 0.12470457E+03 0.75000000E+00 0.0000E+00 0.9000E+01
#aMCatNLO 2  0  0  5  1 0.39479267D+02 0.00000000D+00  -5  6  0 0.00000000D+00 0.00000000D+00 0.00000000D+00 0.00000000D+00 0.00000000D+00
  <mgrwgt>
 0.5844081521D-02    2    2    0
 0.141304155422982D+04 0.000000000000000D+00 0.000000000000000D+00 0.141304155422982D+04
 0.141304155422982D+04 -.000000000000000D+00 -.000000000000000D+00 -.141304155422982D+04
 0.578593639558713D+03 -.536933417745519D+03 -.644068885228630D+01 0.175518153400217D+03
 0.976396388244524D+03 -.111174954167927D+01 0.384861604999496D+02 0.975636964469817D+03
 0.127109308065641D+04 0.538045167287198D+03 -.320454716476632D+02 -.115115511787003D+04
 0.000000000000000D+00 0.000000000000000D+00 -.000000000000000D+00 0.000000000000000D+00
 0.141304155422982D+04 0.000000000000000D+00 0.000000000000000D+00 0.141304155422982D+04
 0.141304155422982D+04 -.000000000000000D+00 -.000000000000000D+00 -.141304155422982D+04
 0.577239752761327D+03 -.536073291448806D+03 -.649191717758413D+01 0.173677901226839D+03
 0.973290640545786D+03 0.339131783401733D+00 0.383997473525154D+02 0.972532783697764D+03
 0.118678488349687D+04 0.497681739164628D+03 0.920386897417582D+01 -.107735163015362D+04
 0.887678316556603D+02 0.380524205007759D+02 -.411116991491071D+02 -.688590547709819D+02
-.658472020972D-03 0.000000000000D+00 0.000000000000D+00 0.417378219191D-04 0.000000000000D+00  6 2 2 25 2 2 21 2 0.14509268D+00 0.32571491D+00 0.31856436D+06 0.31856436D+06 0.31856436D+06 0.10826279D+01  1  2  8  3  6  5        2 -.208222999043D-02 0.100000000000D+01
0.251441399265D-02 0.000000000000D+00 0.000000000000D+00 0.417378219191D-04 0.571475589848D-07  6 2 2 25 2 2 21 2 0.14509268D+00 0.32571491D+00 0.32642917D+06 0.32642917D+06 0.32642917D+06 0.10818494D+01  1  2  1  3  6  5        2 0.792631151152D-02 0.100000000000D+01
  </mgrwgt>
  </event>
  <event>
  6     66 -.18204334E-05 0.14312574E+03 0.75467711E-02 0.95253022E-01
        2 -1    0    0  503    0 0.00000000E+00 0.00000000E+00 0.10478202E+04 0.10478202E+04 0.32000000E+00 0.0000E+00 0.9000E+01
        2 -1    0    0  502    0 0.00000000E+00 0.00000000E+00 -.13419358E+04 0.13419359E+04 0.32000000E+00 0.0000E+00 0.9000E+01
       25  1    1    2    0    0 -.80445154E+01 0.45913494E+03 0.44966960E+03 0.65474984E+03 0.12500000E+03 0.0000E+00 0.9000E+01
        2  1    1    2  501    0 0.17819161E+02 -.14592444E+03 0.28538088E+03 0.32101995E+03 0.32000000E+00 0.0000E+00 0.9000E+01
        2  1    1    2  502    0 -.17010494E+02 -.31558641E+03 -.12010480E+04 0.12419342E+04 0.32000000E+00 0.0000E+00 0.9000E+01
       21  1    1    2  503  501 0.72358482E+01 0.23759083E+01 0.17188186E+03 0.17205214E+03 0.75000000E+00 0.0000E+00 0.9000E+01
#aMCatNLO 2  0  0  1  4 0.76159332D+01 0.00000000D+00  -5  6  0 0.00000000D+00 0.00000000D+00 0.00000000D+00 0.00000000D+00 0.00000000D+00
  <mgrwgt>
 -.1253504982D-02    3    2    0
 0.108408938662925D+04 0.000000000000000D+00 0.000000000000000D+00 0.108408938662925D+04
 0.108408938662925D+04 0.000000000000000D+00 0.000000000000000D+00 -.108408938662925D+04
 0.766980425936356D+03 -.547496316714851D+01 0.459949721260083D+03 0.600874572985581D+03
 0.389389878430876D+03 0.191097774942384D+02 -.145423561702588D+03 0.360709414252341D+03
 0.101180846889127D+04 -.136348143270899D+02 -.314526159557495D+03 -.961583987237922D+03
 0.000000000000000D+00 0.000000000000000D+00 0.000000000000000D+00 0.000000000000000D+00
 0.129694914945189D+04 0.000000000000000D+00 0.000000000000000D+00 0.129694914945189D+04
 0.108416419950218D+04 0.000000000000000D+00 0.000000000000000D+00 -.108416419950218D+04
 0.766499412386718D+03 -.803379115828561D+01 0.459109523891854D+03 0.600874572985581D+03
 0.389487862047086D+03 0.178101098271446D+02 -.145850310728801D+03 0.360709414252341D+03
 0.101220487462673D+04 -.170121668480675D+02 -.315635121437517D+03 -.961583987237922D+03
 0.212921199893529D+03 0.723584817920847D+01 0.237590827446382D+01 0.212784949949706D+03
-.302741711284D-02 0.000000000000D+00 0.000000000000D+00 0.142020679897D-05 0.000000000000D+00  6 2 2 25 2 2 21 2 0.16158402D+00 0.20643730D+00 0.22398103D+06 0.22398103D+06 0.22398103D+06 0.10940680D+01  1  2 13  1  6  1        2 -.227970635773D-01 0.100000000000D+01
-.313252978786D-08 0.000000000000D+00 0.000000000000D+00 0.142020679897D-05 0.000000000000D+00  6 2 2 25 2 2 21 2 0.16120758D+00 0.20643730D+00 0.22398103D+06 0.22398103D+06 0.22398103D+06 0.10940680D+01  1  2 13  1  6  1        2 -.236692099322D-07 0.100000000000D+01
0.285143290594D-02 0.000000000000D+00 0.000000000000D+00 0.142020679897D-05 0.147861177583D-06  6 2 2 25 2 2 21 2 0.16120301D+00 0.20645155D+00 0.22398103D+06 0.22398103D+06 0.22398103D+06 0.10940680D+01  1  2  1  1  6  1        2 0.215435822647D-01 0.100000000000D+01
  </mgrwgt>
  </event>
  <event>
  5     66 -.18204334E-05 0.26048040E+02 0.75467711E-02 0.93579528E-01
        2 -1    0    0  501    0 0.00000000E+00 0.00000000E+00 0.95568294E+03 0.95568299E+03 0.32000000E+00 0.0000E+00 0.9000E+01
        2 -1    0    0  502    0 -.00000000E+00 -.00000000E+00 -.17368844E+04 0.17368844E+04 0.32000000E+00 0.0000E+00 0.9000E+01
       25  1    1    2    0    0 0.48498465E+03 0.21510257E+03 -.41462757E+03 0.68485053E+03 0.12500000E+03 0.0000E+00 0.9000E+01
        2  1    1    2  501    0 -.19951590E+02 0.16748190E+02 0.76347737E+03 0.76392170E+03 0.32000000E+00 0.0000E+00 0.9000E+01
        2  1    1    2  502    0 -.46503306E+03 -.23185076E+03 -.11300513E+04 0.12437952E+04 0.32000000E+00 0.0000E+00 0.9000E+01
#aMCatNLO 1  0  0  5  2 0.64817309D+03 0.00000000D+00  -5  6  0 0.00000000D+00 0.00000000D+00 0.00000000D+00 0.00000000D+00 0.00000000D+00
  <mgrwgt>
 -.3309113841D-01    6    2    0
 0.128837528850565D+04 0.000000000000000D+00 0.000000000000000D+00 0.128837528850565D+04
 0.128837528850565D+04 -.000000000000000D+00 -.000000000000000D+00 -.128837528850565D+04
 0.589960626977762D+03 0.485031689570158D+03 0.215126167393591D+03 -.225595952089696D+03
 0.102967215530978D+04 -.199505985962716D+02 0.167473580663459D+02 0.102934262859056D+04
 0.957117794723758D+03 -.465081090973887D+03 -.231873525459937D+03 -.803746676500867D+03
 0.000000000000000D+00 0.000000000000000D+00 0.000000000000000D+00 -.000000000000000D+00
 0.128837528850565D+04 0.000000000000000D+00 0.000000000000000D+00 0.128837528850565D+04
 0.128837528850565D+04 -.000000000000000D+00 -.000000000000000D+00 -.128837528850565D+04
 0.589337211438355D+03 0.483179751794684D+03 0.214202854557904D+03 -.228796445210169D+03
 0.102414298138338D+04 -.231758549408366D+02 0.151393555617497D+02 0.102376878540898D+04
 0.649559494377078D+03 -.342920356141782D+03 -.224378277515380D+03 -.503971779624842D+03
 0.313710889812481D+03 -.117083540712065D+03 -.496393260427317D+01 -.291000560573971D+03
0.578867059543D-03 0.000000000000D+00 0.000000000000D+00 0.256045746660D-04 0.000000000000D+00  6 2 2 25 2 2 21 0 0.14702815D+00 0.26721299D+00 0.29748865D+06 0.29748865D+06 0.29748865D+06 0.10848221D+01  1  2  2  3  6  5        2 0.248764464009D-02 0.100000000000D+01
0.450166640894D-03 0.000000000000D+00 -.222300192784D-05 0.256045746660D-04 0.000000000000D+00  6 2 2 25 2 2 21 2 0.14702815D+00 0.26721299D+00 0.29748865D+06 0.29748865D+06 0.29748865D+06 0.10848221D+01  1  2  3  3  6  5        2 0.227666872975D-02 0.100000000000D+01
-.390334187642D-03 0.000000000000D+00 0.000000000000D+00 0.256045746660D-04 0.000000000000D+00  6 2 2 25 2 2 21 2 0.14702815D+00 0.26721299D+00 0.29748865D+06 0.29748865D+06 0.29748865D+06 0.10848221D+01  1  2 15  3  6  5        2 -.197407261763D-02 0.100000000000D+01
-.881889482497D-02 0.000000000000D+00 0.000000000000D+00 0.256045746660D-04 0.000000000000D+00  6 2 2 25 2 2 21 2 0.14702815D+00 0.26721299D+00 0.29748865D+06 0.29748865D+06 0.29748865D+06 0.10848221D+01  1  2  4  3  6  5        2 -.446005995449D-01 0.100000000000D+01
-.456694842467D-02 0.000000000000D+00 0.000000000000D+00 0.256045746660D-04 0.000000000000D+00  6 2 2 25 2 2 21 2 0.14702815D+00 0.26721299D+00 0.29748865D+06 0.29748865D+06 0.29748865D+06 0.10848221D+01  1  2  5  3  6  5        2 -.230968439780D-01 0.100000000000D+01
0.629100344325D-02 0.000000000000D+00 -.000000000000D+00 0.256045746660D-04 0.000000000000D+00  6 2 2 25 2 2 21 2 0.14702815D+00 0.26721299D+00 0.29748865D+06 0.29748865D+06 0.29748865D+06 0.10848221D+01  1  2  6  3  6  5        2 0.318160643569D-01 0.100000000000D+01
  </mgrwgt>
  </event>
  <event>
  5     66 -.18204334E-05 0.24208300E+02 0.75467711E-02 0.95507254E-01
        2 -1    0    0  501    0 0.00000000E+00 0.00000000E+00 0.18853283E+04 0.18853284E+04 0.32000000E+00 0.0000E+00 0.9000E+01
        2 -1    0    0  502    0 0.00000000E+00 0.00000000E+00 -.11210512E+04 0.11210513E+04 0.32000000E+00 0.0000E+00 0.9000E+01
       25  1    1    2    0    0 0.11839694E+03 -.43864119E+03 0.11654421E+04 0.12571015E+04 0.12500000E+03 0.0000E+00 0.9000E+01
        2  1    1    2  501    0 -.29009197E+01 0.24044281E+02 0.63074697E+03 0.63121184E+03 0.32000000E+00 0.0000E+00 0.9000E+01
        2  1    1    2  502    0 -.11549602E+03 0.41459690E+03 -.10319119E+04 0.11180663E+04 0.32000000E+00 0.0000E+00 0.9000E+01
#aMCatNLO 1  0  0  5  2 0.22992438D+02 0.00000000D+00  -5  6  0 0.00000000D+00 0.00000000D+00 0.00000000D+00 0.00000000D+00 0.00000000D+00
  <mgrwgt>
 -.2366460986D-01    8    2    0
 0.145380526572960D+04 0.000000000000000D+00 0.000000000000000D+00 0.145380526572960D+04
 0.145380526572960D+04 -.000000000000000D+00 -.000000000000000D+00 -.145380526572960D+04
 0.993659959402603D+03 0.118408251059974D+03 -.438676213723394D+03 0.874801566364744D+03
 0.486651134714369D+03 -.289968050807802D+01 0.240340104502891D+02 0.486048644801536D+03
 0.142729943734222D+04 -.115508570551896D+03 0.414642203273104D+03 -.136085021116628D+04
 0.000000000000000D+00 0.000000000000000D+00 0.000000000000000D+00 -.000000000000000D+00
 0.145380526572960D+04 0.000000000000000D+00 0.000000000000000D+00 0.145380526572960D+04
 0.145380526572960D+04 -.000000000000000D+00 -.000000000000000D+00 -.145380526572960D+04
 0.993238796585911D+03 0.118373374864619D+03 -.438551018316551D+03 0.874390676700126D+03
 0.486453281847204D+03 -.291676148899425D+01 0.240953262083089D+02 0.485847407297031D+03
 0.117213721041370D+04 -.959179684920879D+02 0.362394291359574D+03 -.111057451841232D+04
 0.255781242612379D+03 -.195386448835364D+02 0.520614007486676D+02 -.249663565584837D+03
0.253296825040D-04 0.000000000000D+00 0.000000000000D+00 0.807514697719D-04 0.000000000000D+00  6 2 2 25 2 2 21 0 0.29005052D+00 0.17246943D+00 0.21432034D+06 0.21432034D+06 0.21432034D+06 0.10955262D+01  1  2  2  3  6  5        2 0.732355458751D-04 0.100000000000D+01
0.103799729089D-04 0.000000000000D+00 -.972726502741D-07 0.807514697719D-04 0.000000000000D+00  6 2 2 25 2 2 21 2 0.29005052D+00 0.17246943D+00 0.21432034D+06 0.21432034D+06 0.21432034D+06 0.10955262D+01  1  2  3  3  6  5        2 0.360191869280D-04 0.100000000000D+01
-.167923945730D-04 0.000000000000D+00 0.000000000000D+00 0.807514697719D-04 0.000000000000D+00  6 2 2 25 2 2 21 2 0.29005052D+00 0.17246943D+00 0.21432034D+06 0.21432034D+06 0.21432034D+06 0.10955262D+01  1  2 15  3  6  5        2 -.582707107624D-04 0.100000000000D+01
0.516931385591D-02 0.000000000000D+00 0.000000000000D+00 0.807514697719D-04 0.000000000000D+00  6 2 2 25 2 2 21 2 0.29005052D+00 0.17246943D+00 0.21431450D+06 0.21431450D+06 0.21431450D+06 0.10955271D+01  1  2 12  3  6  5        2 0.179379217623D-01 0.100000000000D+01
0.315768754141D-10 0.000000000000D+00 0.000000000000D+00 0.807514697719D-04 0.000000000000D+00  6 2 2 25 2 2 21 2 0.29005052D+00 0.17246943D+00 0.21431450D+06 0.21431450D+06 0.21431450D+06 0.10955271D+01  1  2 12  3  6  5        2 0.109574217481D-09 0.100000000000D+01
-.130681953917D-01 0.000000000000D+00 0.000000000000D+00 0.807514697719D-04 0.000000000000D+00  6 2 2 25 2 2 21 2 0.29005052D+00 0.17246943D+00 0.21432034D+06 0.21432034D+06 0.21432034D+06 0.10955262D+01  1  2  4  3  6  5        2 -.453474952929D-01 0.100000000000D+01
-.546035209012D-02 0.000000000000D+00 0.000000000000D+00 0.807514697719D-04 0.000000000000D+00  6 2 2 25 2 2 21 2 0.29005052D+00 0.17246943D+00 0.21432034D+06 0.21432034D+06 0.21432034D+06 0.10955262D+01  1  2  5  3  6  5        2 -.189477799560D-01 0.100000000000D+01
0.652487938286D-02 0.000000000000D+00 -.000000000000D+00 0.807514697719D-04 0.000000000000D+00  6 2 2 25 2 2 21 2 0.29005052D+00 0.17246943D+00 0.21432034D+06 0.21432034D+06 0.21432034D+06 0.10955262D+01  1  2  6  3  6  5        2 0.226417594956D-01 0.100000000000D+01
  </mgrwgt>
  </event>
  <event>
  6     66 0.18204334E-05 0.22158248E+02 0.75467711E-02 0.87439168E-01
        2 -1    0    0  501    0 0.00000000E+00 0.00000000E+00 0.42709603E+04 0.42709603E+04 0.32000000E+00 0.0000E+00 0.9000E+01
        2 -1    0    0  502    0 0.00000000E+00 0.00000000E+00 -.13586623E+04 0.13586623E+04 0.32000000E+00 0.0000E+00 0.9000E+01
       25  1    1    2    0    0 -.31361795E+03 0.92811449E+03 0.34184053E+04 0.35582120E+04 0.12500000E+03 0.0000E+00 0.9000E+01
        2  1    1    2  501    0 0.20342046E+02 0.51856709E+01 0.59635545E+03 0.59672490E+03 0.32000000E+00 0.0000E+00 0.9000E+01
        2  1    1    2  503    0 0.20809223E+03 -.62672698E+03 -.77269545E+03 0.10164386E+04 0.32000000E+00 0.0000E+00 0.9000E+01
       21  1    1    2  502  503 0.85183675E+02 -.30657319E+03 -.32976732E+03 0.45824712E+03 0.75000000E+00 0.0000E+00 0.9000E+01
#aMCatNLO 2  0  0  5  1 0.22554621D+02 0.00000000D+00  -5  6  0 0.00000000D+00 0.00000000D+00 0.00000000D+00 0.00000000D+00 0.00000000D+00
  <mgrwgt>
 0.2064833043D-02    1    2    0
 0.240889867379058D+04 0.000000000000000D+00 0.000000000000000D+00 0.240889867379058D+04
 0.240889867379058D+04 -.000000000000000D+00 -.000000000000000D+00 -.240889867379058D+04
 0.209186425942343D+04 -.313646402241234D+03 0.928258244539553D+03 0.184397224644478D+04
 0.336545010061483D+03 0.203216956932270D+02 0.519413072970940D+01 0.335890746355714D+03
 0.238938807809624D+04 0.293324706548007D+03 -.933452375269263D+03 -.217986299280050D+04
 0.000000000000000D+00 0.000000000000000D+00 -.000000000000000D+00 0.000000000000000D+00
 0.240889867379058D+04 0.000000000000000D+00 0.000000000000000D+00 0.240889867379058D+04
 0.240889867379058D+04 -.000000000000000D+00 -.000000000000000D+00 -.240889867379058D+04
 0.209166404180600D+04 -.313621723574830D+03 0.928179709185187D+03 0.184378884521603D+04
 0.336515606203854D+03 0.203256660831043D+02 0.518149568813618D+01 0.335861240126721D+03
 0.165471767497309D+04 0.208095899870690D+03 -.626730292075961D+03 -.151723294893030D+04
 0.734900024598219D+03 0.852001576210357D+02 -.306630912797362D+03 -.662417136412449D+03
0.416067837213D-01 0.000000000000D+00 0.000000000000D+00 0.762982206621D-05 0.432313896309D-07  6 2 2 25 2 2 21 2 0.65707082D+00 0.20902497D+00 0.98731322D+06 0.98731322D+06 0.98731322D+06 0.10482333D+01  1  2  1  3  6  5        2 0.206483304281D-02 0.100000000000D+01
  </mgrwgt>
  </event>
  <event>
  5     66 0.18204334E-05 0.35782570E+02 0.75467711E-02 0.91661302E-01
        2 -1    0    0  501    0 0.00000000E+00 0.00000000E+00 0.23865351E+04 0.23865351E+04 0.32000000E+00 0.0000E+00 0.9000E+01
        2 -1    0    0  502    0 0.00000000E+00 0.00000000E+00 -.16483825E+04 0.16483825E+04 0.32000000E+00 0.0000E+00 0.9000E+01
       25  1    1    2    0    0 -.50799682E+03 0.27857997E+03 0.59617624E+03 0.84066561E+03 0.12500000E+03 0.0000E+00 0.9000E+01
        2  1    1    2  501    0 0.33942040E+02 -.11336327E+02 0.16193977E+04 0.16197931E+04 0.32000000E+00 0.0000E+00 0.9000E+01
        2  1    1    2  502    0 0.47405478E+03 -.26724364E+03 -.14774214E+04 0.15744590E+04 0.32000000E+00 0.0000E+00 0.9000E+01
#aMCatNLO 1  0  0  1  5 0.30466488D+02 0.00000000D+00  -5  6  0 0.00000000D+00 0.00000000D+00 0.00000000D+00 0.00000000D+00 0.00000000D+00
  <mgrwgt>
 0.5941011058D-02    7    2    0
 0.198341191881287D+04 0.000000000000000D+00 0.000000000000000D+00 0.198341191881287D+04
 0.198341191881287D+04 0.000000000000000D+00 0.000000000000000D+00 -.198341191881287D+04
 0.744245429570928D+03 -.508030563474010D+03 0.278599476942573D+03 0.450070591641823D+03
 0.134616245261915D+04 0.339396271884867D+02 -.113355214460432D+02 0.134568679732747D+04
 0.187641595543567D+04 0.474090936285523D+03 -.267263955496530D+03 -.179575738896929D+04
 0.000000000000000D+00 -.000000000000000D+00 -.000000000000000D+00 0.000000000000000D+00
 0.212397181452314D+04 0.000000000000000D+00 0.000000000000000D+00 0.212397181452314D+04
 0.200292712020697D+04 0.000000000000000D+00 0.000000000000000D+00 -.200292712020697D+04
 0.740248955374223D+03 -.494401064349770D+03 0.292143057493452D+03 0.450070591641823D+03
 0.134703002518654D+04 0.586664735072877D+02 0.132354500794097D+02 0.134568679732747D+04
 0.188087421100173D+04 0.508587518793557D+03 -.232984834916327D+03 -.179575738896929D+04
 0.158745743167618D+03 -.728529279510747D+02 -.723936726565349D+02 0.121044694316163D+03
0.170592991260D-02 0.000000000000D+00 0.000000000000D+00 0.201580148519D-03 0.000000000000D+00  6 2 2 25 2 2 21 0 0.36715925D+00 0.25359731D+00 0.34383887D+06 0.34383887D+06 0.34383887D+06 0.10801965D+01  1  2  2  1  6  1        2 0.126633315128D-02 0.100000000000D+01
0.104609520453D-02 0.000000000000D+00 -.655122004606D-05 0.201580148519D-03 0.000000000000D+00  6 2 2 25 2 2 21 2 0.36715925D+00 0.25359731D+00 0.34383887D+06 0.34383887D+06 0.34383887D+06 0.10801965D+01  1  2  3  1  6  1        2 0.906073741438D-03 0.100000000000D+01
-.111517909138D-02 0.000000000000D+00 0.000000000000D+00 0.201580148519D-03 0.000000000000D+00  6 2 2 25 2 2 21 2 0.36715925D+00 0.25359731D+00 0.34383887D+06 0.34383887D+06 0.34383887D+06 0.10801965D+01  1  2 15  1  6  1        2 -.965910643055D-03 0.100000000000D+01
-.253137527580D-04 0.000000000000D+00 0.000000000000D+00 0.201580148519D-03 0.000000000000D+00  6 2 2 25 2 2 21 2 0.36715925D+00 0.25359731D+00 0.34383887D+06 0.34383887D+06 0.34383887D+06 0.10801965D+01  1  2  4  1  6  1        2 -.219254677509D-04 0.100000000000D+01
-.251182470600D-01 0.000000000000D+00 -.409138919292D-02 0.201580148519D-03 0.000000000000D+00  6 2 2 25 2 2 21 2 0.39440974D+00 0.25359731D+00 0.34383887D+06 0.34383887D+06 0.34383887D+06 0.10801965D+01  1  2  5  1  6  1        2 -.171841813218D-01 0.100000000000D+01
0.253566179200D-01 0.000000000000D+00 0.408092573420D-02 0.201580148519D-03 0.000000000000D+00  6 2 2 25 2 2 21 2 0.36715925D+00 0.25359731D+00 0.34383887D+06 0.34383887D+06 0.34383887D+06 0.10801965D+01  1  2  6  1  6  1        2 0.219625953446D-01 0.100000000000D+01
-.296628201188D-03 0.000000000000D+00 -.494856513606D-04 0.201580148519D-03 0.000000000000D+00  6 21 2 25 2 2 -2 2 0.39440974D+00 0.25359731D+00 0.34383887D+06 0.34383887D+06 0.34383887D+06 0.10801965D+01  1  2  5  4  6  1        2 -.219737464726D-04 0.100000000000D+01
  </mgrwgt>
  </event>
  <event>
  6     66 0.18204334E-05 0.37135298E+02 0.75467711E-02 0.93151800E-01
        2 -1    0    0  501    0 0.00000000E+00 0.00000000E+00 0.84625804E+03 0.84625810E+03 0.32000000E+00 0.0000E+00 0.9000E+01
        2 -1    0    0  502    0 0.00000000E+00 0.00000000E+00 -.53033522E+03 0.53033532E+03 0.32000000E+00 0.0000E+00 0.9000E+01
       25  1    1    2    0    0 -.35722125E+03 -.35619622E+03 -.19296095E+02 0.52007703E+03 0.12500000E+03 0.0000E+00 0.9000E+01
        2  1    1    2  501    0 0.36396640E+03 0.30825287E+03 0.43307054E+03 0.64423720E+03 0.32000000E+00 0.0000E+00 0.9000E+01
        2  1    1    2  503    0 -.61827088E+02 -.11550795E+02 -.11344284E+03 0.12971272E+03 0.32000000E+00 0.0000E+00 0.9000E+01
       21  1    1    2  502  503 0.55081941E+02 0.59494148E+02 0.15591202E+02 0.82566470E+02 0.75000000E+00 0.0000E+00 0.9000E+01
#aMCatNLO 2  0  0  5  2 0.79124516D+02 0.00000000D+00  -5  6  0 0.00000000D+00 0.00000000D+00 0.00000000D+00 0.00000000D+00 0.00000000D+00
  <mgrwgt>
 0.1177982817D-02    1    2    0
 0.669925781777973D+03 0.000000000000000D+00 0.000000000000000D+00 0.669925781777973D+03
 0.669925781777973D+03 -.000000000000000D+00 -.000000000000000D+00 -.669925781777973D+03
 0.537290489052841D+03 -.355783573537198D+03 -.366624927360319D+03 -.109819310987560D+03
 0.573843484304475D+03 0.365538820192950D+03 0.297294330603489D+03 0.327557317734881D+03
 0.228717590198631D+03 -.975524665575108D+01 0.693305967568297D+02 -.217738006747321D+03
 0.000000000000000D+00 0.000000000000000D+00 0.000000000000000D+00 0.000000000000000D+00
 0.669925781777973D+03 0.000000000000000D+00 0.000000000000000D+00 0.669925781777973D+03
 0.669925781777973D+03 -.000000000000000D+00 -.000000000000000D+00 -.669925781777973D+03
 0.538944550211326D+03 -.357253740037068D+03 -.356176445188139D+03 -.142633563108956D+03
 0.559805784852100D+03 0.363990224284704D+03 0.308300211053531D+03 0.292992513971593D+03
 0.159666680893712D+03 -.619618375665394D+02 -.118579664370928D+02 -.146675043224705D+03
 0.814345475988087D+02 0.552253533189034D+02 0.597342005717002D+02 -.368390763793189D+01
0.342752793568D-04 0.000000000000D+00 0.000000000000D+00 0.164397293073D-06 0.849809858389D-10  6 2 2 25 2 2 21 2 0.13019356D+00 0.81590046D-01 0.32556982D+06 0.32556982D+06 0.32556982D+06 0.10819335D+01  1  2  1  3  6  5        2 0.117798281699D-02 0.100000000000D+01
  </mgrwgt>
  </event>
  <event>
  6     66 0.18204334E-05 0.44091978E+02 0.75467711E-02 0.94678983E-01
        2 -1    0    0  503    0 0.00000000E+00 0.00000000E+00 0.62760369E+03 0.62760378E+03 0.32000000E+00 0.0000E+00 0.9000E+01
        2 -1    0    0  502    0 0.00000000E+00 0.00000000E+00 -.10248205E+04 0.10248205E+04 0.32000000E+00 0.0000E+00 0.9000E+01
       25  1    1    2    0    0 0.40512129E+03 0.20384349E+03 -.88394312E+02 0.47865853E+03 0.12500000E+03 0.0000E+00 0.9000E+01
        2  1    1    2  501    0 -.36545799E+02 -.22187940E+02 0.48288478E+02 0.64496353E+02 0.32000000E+00 0.0000E+00 0.9000E+01
        2  1    1    2  502    0 -.39798989E+03 -.12322259E+03 -.67035002E+03 0.78927119E+03 0.32000000E+00 0.0000E+00 0.9000E+01
       21  1    1    2  503  501 0.29414402E+02 -.58432964E+02 0.31323905E+03 0.31999825E+03 0.75000000E+00 0.0000E+00 0.9000E+01
#aMCatNLO 2  0  0  1  2 0.65418792D+02 0.00000000D+00  -5  6  0 0.00000000D+00 0.00000000D+00 0.00000000D+00 0.00000000D+00 0.00000000D+00
  <mgrwgt>
 0.5468525918D-02    1    2    0
 0.562657109612219D+03 0.000000000000000D+00 0.000000000000000D+00 0.562657109612219D+03
 0.562657109612219D+03 0.000000000000000D+00 0.000000000000000D+00 -.562657109612219D+03
 0.511083613258472D+03 0.418505187080695D+03 0.177350977107969D+03 0.197437329415531D+03
 0.106798418990494D+03 -.336757107484992D+02 -.276670726381637D+02 0.975006763878446D+02
 0.507432186975472D+03 -.384829476332196D+03 -.149683904469805D+03 -.294938005803376D+03
 0.000000000000000D+00 0.000000000000000D+00 -.000000000000000D+00 0.000000000000000D+00
 0.113742347644324D+04 0.000000000000000D+00 0.000000000000000D+00 0.113742347644324D+04
 0.565471610072579D+03 0.000000000000000D+00 0.000000000000000D+00 -.565471610072579D+03
 0.510216371447136D+03 0.405168650018329D+03 0.203844577284434D+03 0.197437329415531D+03
 0.106422337373948D+03 -.364600312834102D+02 -.221359010401624D+02 0.975006763878446D+02
 0.510575428039920D+03 -.398123020335662D+03 -.123275711840107D+03 -.294938005803376D+03
 0.575680949654816D+03 0.294144016007435D+02 -.584329644041644D+02 0.571951866370661D+03
0.245776546565D-03 0.000000000000D+00 0.000000000000D+00 0.120934529180D-06 0.365747495599D-09  6 2 2 25 2 2 21 2 0.96554383D-01 0.15766463D+00 0.24766120D+06 0.24766120D+06 0.24766120D+06 0.10907663D+01  1  2  1  1  6  1        2 0.546852591816D-02 0.100000000000D+01
  </mgrwgt>
  </event>
  <event>
  5     66 -.18204334E-05 0.14882641E+03 0.75467711E-02 0.94975272E-01
        2 -1    0    0  501    0 0.00000000E+00 0.00000000E+00 0.21906954E+04 0.21906954E+04 0.32000000E+00 0.0000E+00 0.9000E+01
        2 -1    0    0  502    0 0.00000000E+00 0.00000000E+00 -.57217394E+03 0.57217402E+03 0.32000000E+00 0.0000E+00 0.9000E+01
       25  1    1    2    0    0 0.34205302E+03 0.32828182E+03 0.73775365E+03 0.88581865E+03 0.12500000E+03 0.0000E+00 0.9000E+01
        2  1    1    2  501    0 -.22662778E+03 -.23436567E+03 0.13479120E+04 0.13867784E+04 0.32000000E+00 0.0000E+00 0.9000E+01
        2  1    1    2  502    0 -.11542524E+03 -.93916150E+02 -.46714420E+03 0.49027241E+03 0.32000000E+00 0.0000E+00 0.9000E+01
#aMCatNLO 1  0  0  5  2 0.18923852D+02 0.00000000D+00  -5  6  0 0.00000000D+00 0.00000000D+00 0.00000000D+00 0.00000000D+00 0.00000000D+00
  <mgrwgt>
 -.2635070872D-02    8    2    0
 0.111957982194380D+04 0.000000000000000D+00 0.000000000000000D+00 0.111957982194380D+04
 0.111957982194380D+04 -.000000000000000D+00 -.000000000000000D+00 -.111957982194380D+04
 0.559778978578844D+03 0.342038941797799D+03 0.328263977024291D+03 0.270147420015094D+03
 0.736725499689386D+03 -.226597972556900D+03 -.234334844696301D+03 0.660685251301131D+03
 0.942655165619361D+03 -.115440969240899D+03 -.939291323279907D+02 -.930832671316224D+03
 0.000000000000000D+00 0.000000000000000D+00 0.000000000000000D+00 -.000000000000000D+00
 0.111957982194380D+04 0.000000000000000D+00 0.000000000000000D+00 0.111957982194380D+04
 0.111957982194380D+04 -.000000000000000D+00 -.000000000000000D+00 -.111957982194380D+04
 0.559606876215461D+03 0.342004370477248D+03 0.328235847893324D+03 0.269868661833564D+03
 0.736422309233962D+03 -.226643469527317D+03 -.234371863537904D+03 0.660318396563258D+03
 0.740909697343930D+03 -.109451106742909D+03 -.724181784851042D+02 -.729193556112453D+03
 0.202220761094238D+03 -.590979420702111D+01 -.214458058703153D+02 -.200993502284369D+03
0.123435393544D-04 0.000000000000D+00 0.000000000000D+00 0.482670009806D-05 0.000000000000D+00  6 2 2 25 2 2 21 0 0.33703007D+00 0.88026768D-01 0.23284456D+06 0.23284456D+06 0.23284456D+06 0.10927894D+01  1  2  2  3  6  5        2 0.578766292401D-04 0.100000000000D+01
0.195527770407D-05 0.000000000000D+00 -.474024412493D-07 0.482670009806D-05 0.000000000000D+00  6 2 2 25 2 2 21 2 0.33703007D+00 0.88026768D-01 0.23284456D+06 0.23284456D+06 0.23284456D+06 0.10927894D+01  1  2  3  3  6  5        2 0.109482547527D-04 0.100000000000D+01
-.817996046018D-05 0.000000000000D+00 0.000000000000D+00 0.482670009806D-05 0.000000000000D+00  6 2 2 25 2 2 21 2 0.33703007D+00 0.88026768D-01 0.23284456D+06 0.23284456D+06 0.23284456D+06 0.10927894D+01  1  2 15  3  6  5        2 -.458023383577D-04 0.100000000000D+01
0.146640466471D-02 0.000000000000D+00 0.000000000000D+00 0.482670009806D-05 0.000000000000D+00  6 2 2 25 2 2 21 2 0.33703007D+00 0.88026768D-01 0.23510545D+06 0.23510545D+06 0.23510545D+06 0.10924717D+01  1  2 12  3  6  5        2 0.820128535033D-02 0.100000000000D+01
0.297659234280D-09 0.000000000000D+00 0.000000000000D+00 0.482670009806D-05 0.000000000000D+00  6 2 2 25 2 2 21 2 0.33703007D+00 0.88026768D-01 0.23510545D+06 0.23510545D+06 0.23510545D+06 0.10924717D+01  1  2 12  3  6  5        2 0.166474396614D-08 0.100000000000D+01
-.236933354898D-02 0.000000000000D+00 0.000000000000D+00 0.482670009806D-05 0.000000000000D+00  6 2 2 25 2 2 21 2 0.33703007D+00 0.88026768D-01 0.23284456D+06 0.23284456D+06 0.23284456D+06 0.10927894D+01  1  2  4  3  6  5        2 -.132666921095D-01 0.100000000000D+01
-.181498015692D-02 0.000000000000D+00 0.000000000000D+00 0.482670009806D-05 0.000000000000D+00  6 2 2 25 2 2 21 2 0.33703007D+00 0.88026768D-01 0.23284456D+06 0.23284456D+06 0.23284456D+06 0.10927894D+01  1  2  5  3  6  5        2 -.101626817959D-01 0.100000000000D+01
0.224490830108D-02 0.000000000000D+00 -.000000000000D+00 0.482670009806D-05 0.000000000000D+00  6 2 2 25 2 2 21 2 0.33703007D+00 0.88026768D-01 0.23284456D+06 0.23284456D+06 0.23284456D+06 0.10927894D+01  1  2  6  3  6  5        2 0.125699934723D-01 0.100000000000D+01
  </mgrwgt>
  </event>
  <event>
  5     66 0.18204334E-05 0.95919964E+02 0.75467711E-02 0.91636064E-01
        2 -1    0    0  501    0 0.00000000E+00 0.00000000E+00 0.27458065E+04 0.27458065E+04 0.32000000E+00 0.0000E+00 0.9000E+01
        2 -1    0    0  502    0 0.00000000E+00 0.00000000E+00 -.61595271E+03 0.61595280E+03 0.32000000E+00 0.0000E+00 0.9000E+01
       25  1    1    2    0    0 -.58435520E+03 -.17706409E+03 0.72717346E+03 0.95772070E+03 0.12500000E+03 0.0000E+00 0.9000E+01
        2  1    1    2  501    0 0.48845330E+03 0.17587941E+03 0.18629231E+04 0.19339087E+04 0.32000000E+00 0.0000E+00 0.9000E+01
        2  1    1    2  502    0 0.95901905E+02 0.11846842E+01 -.46024281E+03 0.47012991E+03 0.32000000E+00 0.0000E+00 0.9000E+01
#aMCatNLO 1  0  0  1  4 0.66722608D+02 0.00000000D+00  -5  6  0 0.00000000D+00 0.00000000D+00 0.00000000D+00 0.00000000D+00 0.00000000D+00
  <mgrwgt>
 0.2775998939D-02   11    2    0
 0.130049495507585D+04 0.000000000000000D+00 0.000000000000000D+00 0.130049495507585D+04
 0.130049495507585D+04 0.000000000000000D+00 0.000000000000000D+00 -.130049495507585D+04
 0.642395910751686D+03 -.584331749472520D+03 -.177052095415567D+03 0.155744881835099D+03
 0.974015404669876D+03 0.488419105477221D+03 0.175867095316047D+03 0.824150199128866D+03
 0.984578594730142D+03 0.959126439952989D+02 0.118500009951970D+01 -.979895080963965D+03
 0.000000000000000D+00 -.000000000000000D+00 0.000000000000000D+00 0.000000000000000D+00
 0.146838587305508D+04 0.000000000000000D+00 0.000000000000000D+00 0.146838587305508D+04
 0.130756889100836D+04 0.000000000000000D+00 0.000000000000000D+00 -.130756889100836D+04
 0.643256173346377D+03 -.580208540524679D+03 -.193015765761808D+03 0.155744881835099D+03
 0.973101035773210D+03 0.494663693751938D+03 0.151690161785241D+03 0.824150199128866D+03
 0.985488370305125D+03 0.102230836792986D+03 -.232769052470631D+02 -.979895080963965D+03
 0.174109184638727D+03 -.166859900202453D+02 0.646025092236301D+02 0.160816982046728D+03
0.229008822344D-03 0.000000000000D+00 0.000000000000D+00 0.513146076072D-05 0.000000000000D+00  6 2 2 25 2 2 21 0 0.42243177D+00 0.94761964D-01 0.38332647D+06 0.38332647D+06 0.38332647D+06 0.10767632D+01  1  2  2  1  6  1        2 0.455194454392D-03 0.100000000000D+01
0.708050432977D-04 0.000000000000D+00 -.879454177208D-06 0.513146076072D-05 0.000000000000D+00  6 2 2 25 2 2 21 2 0.42243177D+00 0.94761964D-01 0.38332647D+06 0.38332647D+06 0.38332647D+06 0.10767632D+01  1  2  3  1  6  1        2 0.163173388043D-03 0.100000000000D+01
-.172321126305D-03 0.000000000000D+00 0.000000000000D+00 0.513146076072D-05 0.000000000000D+00  6 2 2 25 2 2 21 2 0.42243177D+00 0.94761964D-01 0.38332647D+06 0.38332647D+06 0.38332647D+06 0.10767632D+01  1  2 15  1  6  1        2 -.397121740218D-03 0.100000000000D+01
0.259459565005D-02 0.000000000000D+00 0.000000000000D+00 0.513146076072D-05 0.000000000000D+00  6 2 2 25 2 2 21 2 0.49709871D+00 0.94761964D-01 0.43104888D+06 0.43104888D+06 0.43104888D+06 0.10730949D+01  1  2 12  1  6  1        2 0.289462325798D-02 0.100000000000D+01
0.305569735727D-09 0.000000000000D+00 0.000000000000D+00 0.513146076072D-05 0.000000000000D+00  6 2 2 25 2 2 21 2 0.47841811D+00 0.94761964D-01 0.43104888D+06 0.43104888D+06 0.43104888D+06 0.10730949D+01  1  2 12  1  6  1        2 0.409927434212D-09 0.100000000000D+01
-.182346979399D-02 0.000000000000D+00 0.000000000000D+00 0.513146076072D-05 0.000000000000D+00  6 2 2 25 2 2 21 2 0.42243177D+00 0.94761964D-01 0.38332647D+06 0.38332647D+06 0.38332647D+06 0.10767632D+01  1  2  4  1  6  1        2 -.420226766937D-02 0.100000000000D+01
-.413504888946D-02 0.000000000000D+00 -.301230156298D-03 0.513146076072D-05 0.000000000000D+00  6 2 2 25 2 2 21 2 0.47761833D+00 0.94761964D-01 0.38332647D+06 0.38332647D+06 0.38332647D+06 0.10767632D+01  1  2  5  1  6  1        2 -.568258979460D-02 0.100000000000D+01
0.414302244356D-02 0.000000000000D+00 0.298973673454D-03 0.513146076072D-05 0.000000000000D+00  6 2 2 25 2 2 21 2 0.42243177D+00 0.94761964D-01 0.38332647D+06 0.38332647D+06 0.38332647D+06 0.10767632D+01  1  2  6  1  6  1        2 0.954778045981D-02 0.100000000000D+01
0.631981108777D-04 0.000000000000D+00 0.000000000000D+00 0.513146076072D-05 0.000000000000D+00  6 21 2 25 2 2 -2 2 0.49709871D+00 0.94761964D-01 0.43104888D+06 0.43104888D+06 0.43104888D+06 0.10730949D+01  1  2 12  4  6  1        2 0.347886469571D-05 0.100000000000D+01
0.597781347447D-11 0.000000000000D+00 0.000000000000D+00 0.513146076072D-05 0.000000000000D+00  6 21 2 25 2 2 -2 2 0.47841811D+00 0.94761964D-01 0.43104888D+06 0.43104888D+06 0.43104888D+06 0.10730949D+01  1  2 12  4  6  1        2 0.460208068939D-12 0.100000000000D+01
-.785291205368D-04 0.000000000000D+00 -.582655223376D-05 0.513146076072D-05 0.000000000000D+00  6 21 2 25 2 2 -2 2 0.47761833D+00 0.94761964D-01 0.38332647D+06 0.38332647D+06 0.38332647D+06 0.10767632D+01  1  2  5  4  6  1        2 -.627269238855D-05 0.100000000000D+01
  </mgrwgt>
  </event>
  <event>
  5     66 0.18204334E-05 0.56827612E+02 0.75467711E-02 0.93204238E-01
        2 -1    0    0  501    0 0.00000000E+00 0.00000000E+00 0.23730025E+04 0.23730026E+04 0.32000000E+00 0.0000E+00 0.9000E+01
        2 -1    0    0  502    0 0.00000000E+00 0.00000000E+00 -.84077188E+03 0.84077194E+03 0.32000000E+00 0.0000E+00 0.9000E+01
       25  1    1    2    0    0 -.51472647E+03 0.21198966E+03 -.34239636E+03 0.66538952E+03 0.12500000E+03 0.0000E+00 0.9000E+01
        2  1    1    2  501    0 0.47871672E+03 -.16802461E+03 0.21797497E+04 0.22380149E+04 0.32000000E+00 0.0000E+00 0.9000E+01
        2  1    1    2  502    0 0.36009744E+02 -.43965046E+02 -.30512268E+03 0.31037006E+03 0.32000000E+00 0.0000E+00 0.9000E+01
#aMCatNLO 1  0  0  5  2 0.73379777D+01 0.00000000D+00  -5  6  0 0.00000000D+00 0.00000000D+00 0.00000000D+00 0.00000000D+00 0.00000000D+00
  <mgrwgt>
 0.3575186626D-02    9    2    0
 0.141249918369312D+04 0.000000000000000D+00 0.000000000000000D+00 0.141249918369312D+04
 0.141249918369312D+04 -.000000000000000D+00 -.000000000000000D+00 -.141249918369312D+04
 0.942692128554624D+03 -.514726196018091D+03 0.211988400177290D+03 -.750440744204276D+03
 0.136375484086759D+04 0.478717879653964D+03 -.168025021280203D+03 0.126586889128107D+04
 0.518551397964030D+03 0.360083163641266D+02 -.439633788970869D+02 -.515428147076798D+03
 0.000000000000000D+00 0.000000000000000D+00 -.000000000000000D+00 0.000000000000000D+00
 0.141249918369312D+04 0.000000000000000D+00 0.000000000000000D+00 0.141249918369312D+04
 0.141249918369312D+04 -.000000000000000D+00 -.000000000000000D+00 -.141249918369312D+04
 0.942745307307740D+03 -.514721167112068D+03 0.211982260270645D+03 -.750512728678270D+03
 0.136366183324400D+04 0.478725154317062D+03 -.168033903083142D+03 0.126576476072181D+04
 0.312966481731607D+03 0.228952552455599D+02 -.193018105598209D+02 -.311530521913686D+03
 0.205624745102891D+03 0.131007575494466D+02 -.246465466276825D+02 -.203721510129856D+03
0.624319662428D-05 0.000000000000D+00 0.000000000000D+00 0.131008184337D-04 0.000000000000D+00  6 2 2 25 2 2 21 0 0.36507732D+00 0.12934953D+00 0.32189121D+06 0.32189121D+06 0.32189121D+06 0.10822961D+01  1  2  2  3  6  5        2 0.141199784065D-04 0.100000000000D+01
0.158118916790D-05 0.000000000000D+00 -.239755189087D-07 0.131008184337D-04 0.000000000000D+00  6 2 2 25 2 2 21 2 0.36507732D+00 0.12934953D+00 0.32189121D+06 0.32189121D+06 0.32189121D+06 0.10822961D+01  1  2  3  3  6  5        2 0.418892913731D-05 0.100000000000D+01
-.474326995682D-05 0.000000000000D+00 0.000000000000D+00 0.131008184337D-04 0.000000000000D+00  6 2 2 25 2 2 21 2 0.36507732D+00 0.12934953D+00 0.32189121D+06 0.32189121D+06 0.32189121D+06 0.10822961D+01  1  2 15  3  6  5        2 -.125659991427D-04 0.100000000000D+01
0.160745624193D-02 0.000000000000D+00 0.000000000000D+00 0.131008184337D-04 0.000000000000D+00  6 2 2 25 2 2 21 2 0.36507732D+00 0.12934953D+00 0.32247770D+06 0.32247770D+06 0.32247770D+06 0.10822380D+01  1  2 12  3  6  5        2 0.425750407547D-02 0.100000000000D+01
0.619356933918D-10 0.000000000000D+00 0.000000000000D+00 0.131008184337D-04 0.000000000000D+00  6 2 2 25 2 2 21 2 0.36507732D+00 0.12934953D+00 0.32247770D+06 0.32247770D+06 0.32247770D+06 0.10822380D+01  1  2 12  3  6  5        2 0.164042703095D-09 0.100000000000D+01
-.138134823103D-02 0.000000000000D+00 0.000000000000D+00 0.131008184337D-04 0.000000000000D+00  6 2 2 25 2 2 21 2 0.36507732D+00 0.12934953D+00 0.32189121D+06 0.32189121D+06 0.32189121D+06 0.10822961D+01  1  2  4  3  6  5        2 -.365950511882D-02 0.100000000000D+01
-.170217937259D-02 0.000000000000D+00 0.000000000000D+00 0.131008184337D-04 0.000000000000D+00  6 2 2 25 2 2 21 2 0.36507732D+00 0.12934953D+00 0.32189121D+06 0.32189121D+06 0.32189121D+06 0.10822961D+01  1  2  5  3  6  5        2 -.450945966209D-02 0.100000000000D+01
0.280126790335D-02 0.000000000000D+00 -.000000000000D+00 0.131008184337D-04 0.000000000000D+00  6 2 2 25 2 2 21 2 0.36507732D+00 0.12934953D+00 0.32189121D+06 0.32189121D+06 0.32189121D+06 0.10822961D+01  1  2  6  3  6  5        2 0.742119474381D-02 0.100000000000D+01
0.225438266117D-04 0.000000000000D+00 0.000000000000D+00 0.131008184337D-04 0.372091236540D-06  6 2 2 25 2 2 21 2 0.36507732D+00 0.12934953D+00 0.32247770D+06 0.32247770D+06 0.32247770D+06 0.10822380D+01  1  2 11  3  6  5        2 0.597095156760D-04 0.100000000000D+01
  </mgrwgt>
  </event>
  <event>
  6     66 0.18204334E-05 0.79590348E+01 0.75467711E-02 0.92880549E-01
        2 -1    0    0  501    0 0.00000000E+00 0.00000000E+00 0.22597237E+04 0.22597237E+04 0.32000000E+00 0.0000E+00 0.9000E+01
        2 -1    0    0  502    0 0.00000000E+00 0.00000000E+00 -.10856937E+04 0.10856937E+04 0.32000000E+00 0.0000E+00 0.9000E+01
       25  1    1    2    0    0 0.32316200E+03 -.47094681E+03 -.52015921E+03 0.78256960E+03 0.12500000E+03 0.0000E+00 0.9000E+01
        2  1    1    2  501    0 -.32717206E+03 0.45228125E+03 0.20914493E+04 0.21646616E+04 0.32000000E+00 0.0000E+00 0.9000E+01
        2  1    1    2  503    0 -.74687679E+01 0.10200081E+02 -.21158928E+03 0.21196686E+03 0.32000000E+00 0.0000E+00 0.9000E+01
       21  1    1    2  502  503 0.11478823E+02 0.84654816E+01 -.18567077E+03 0.18621929E+03 0.75000000E+00 0.0000E+00 0.9000E+01
#aMCatNLO 2  0  0  5  1 0.95940753D+01 0.00000000D+00  -5  6  0 0.00000000D+00 0.00000000D+00 0.00000000D+00 0.00000000D+00 0.00000000D+00
  <mgrwgt>
 0.3828065130D-02    2    2    0
 0.156632300569846D+04 0.000000000000000D+00 0.000000000000000D+00 0.156632300569846D+04
 0.156632300569846D+04 -.000000000000000D+00 -.000000000000000D+00 -.156632300569846D+04
 0.103091032836931D+04 0.323172101428610D+03 -.470952944462693D+03 -.849066677062912D+03
 0.152804888261081D+04 -.327180563957100D+03 0.452286355712812D+03 0.142243569930345D+04
 0.573686800416803D+03 0.400846252849042D+01 0.186665887498825D+02 -.573369022240537D+03
 0.000000000000000D+00 0.000000000000000D+00 0.000000000000000D+00 0.000000000000000D+00
 0.156632300569846D+04 0.000000000000000D+00 0.000000000000000D+00 0.156632300569846D+04
 0.156632300569846D+04 -.000000000000000D+00 -.000000000000000D+00 -.156632300569846D+04
 0.103099627609261D+04 0.323172842374392D+03 -.470949494029991D+03 -.849172661678044D+03
 0.152790393927925D+04 -.327179465800982D+03 0.452291469600865D+03 0.142227861945173D+04
 0.304765939891565D+03 -.746195621274426D+01 0.101720015602164D+02 -.304504725269949D+03
 0.268979856133507D+03 0.114685796393351D+02 0.848602286891113D+01 -.268601232503737D+03
-.399091540626D-10 0.000000000000D+00 0.000000000000D+00 0.483966739426D-04 0.000000000000D+00  6 2 2 25 2 2 21 2 0.34764980D+00 0.16702980D+00 0.34210415D+06 0.34210415D+06 0.34210415D+06 0.10803571D+01  1  2 13  3  6  5        2 -.849396140965D-10 0.100000000000D+01
0.179862889691D-02 0.000000000000D+00 0.000000000000D+00 0.483966739426D-04 0.394114243969D-06  6 2 2 25 2 2 21 2 0.34764980D+00 0.16702980D+00 0.34210415D+06 0.34210415D+06 0.34210415D+06 0.10803571D+01  1  2  1  3  6  5        2 0.382806521448D-02 0.100000000000D+01
  </mgrwgt>
  </event>
  <event>
  5     66 0.18204334E-05 0.10581960E+03 0.75467711E-02 0.91732357E-01
        2 -1    0    0  501    0 0.00000000E+00 0.00000000E+00 0.24501331E+04 0.24501331E+04 0.32000000E+00 0.0000E+00 0.9000E+01
        2 -1    0    0  502    0 0.00000000E+00 0.00000000E+00 -.66417332E+03 0.66417340E+03 0.32000000E+00 0.0000E+00 0.9000E+01
       25  1    1    2    0    0 -.46470838E+03 -.39945659E+03 0.34915441E+03 0.71627735E+03 0.12500000E+03 0.0000E+00 0.9000E+01
        2  1    1    2  501    0 0.36517153E+03 0.43534594E+03 0.18687939E+04 0.19532709E+04 0.32000000E+00 0.0000E+00 0.9000E+01
        2  1    1    2  502    0 0.99536852E+02 -.35889351E+02 -.43198861E+03 0.44475824E+03 0.32000000E+00 0.0000E+00 0.9000E+01
#aMCatNLO 1  0  0  5  2 0.22275057D+02 0.00000000D+00  -5  6  0 0.00000000D+00 0.00000000D+00 0.00000000D+00 0.00000000D+00 0.00000000D+00
  <mgrwgt>
 0.2458826813D-02    8    2    0
 0.127566185869836D+04 0.000000000000000D+00 0.000000000000000D+00 0.127566185869836D+04
 0.127566185869836D+04 -.000000000000000D+00 -.000000000000000D+00 -.127566185869836D+04
 0.629897260661337D+03 -.464706003824513D+03 -.399439304935090D+03 -.751141176549447D+02
 0.107606934783267D+04 0.365159273022065D+03 0.435331326012961D+03 0.913821964751792D+03
 0.845357108902704D+03 0.995467308024478D+02 -.358920210778710D+02 -.838707847096847D+03
 0.000000000000000D+00 0.000000000000000D+00 0.000000000000000D+00 0.000000000000000D+00
 0.127566185869836D+04 0.000000000000000D+00 0.000000000000000D+00 0.127566185869836D+04
 0.127566185869836D+04 -.000000000000000D+00 -.000000000000000D+00 -.127566185869836D+04
 0.629915361514854D+03 -.464669632183819D+03 -.399452418893568D+03 -.754205584613485D+02
 0.107563693694907D+04 0.365221394234769D+03 0.435308927930595D+03 0.913298576910263D+03
 0.527340616389103D+03 0.400812432517489D+02 -.251420202494616D+02 -.525213764529081D+03
 0.318430802543683D+03 0.593669946973008D+02 -.107144887875649D+02 -.312664253919833D+03
0.112796927284D-04 0.000000000000D+00 0.000000000000D+00 0.276736457687D-05 0.000000000000D+00  6 2 2 25 2 2 21 0 0.37694356D+00 0.10218052D+00 0.42212648D+06 0.42212648D+06 0.42212648D+06 0.10737460D+01  1  2  2  3  6  5        2 0.304154574979D-04 0.100000000000D+01
0.298747232871D-05 0.000000000000D+00 -.433169900883D-07 0.276736457687D-05 0.000000000000D+00  6 2 2 25 2 2 21 2 0.37694356D+00 0.10218052D+00 0.42212648D+06 0.42212648D+06 0.42212648D+06 0.10737460D+01  1  2  3  3  6  5        2 0.928761333335D-05 0.100000000000D+01
-.856329888331D-05 0.000000000000D+00 0.000000000000D+00 0.276736457687D-05 0.000000000000D+00  6 2 2 25 2 2 21 2 0.37694356D+00 0.10218052D+00 0.42212648D+06 0.42212648D+06 0.42212648D+06 0.10737460D+01  1  2 15  3  6  5        2 -.266220403522D-04 0.100000000000D+01
0.750897448103D-03 0.000000000000D+00 0.000000000000D+00 0.276736457687D-05 0.000000000000D+00  6 2 2 25 2 2 21 2 0.37694356D+00 0.10218052D+00 0.42331288D+06 0.42331288D+06 0.42331288D+06 0.10736586D+01  1  2 12  3  6  5        2 0.233359760661D-02 0.100000000000D+01
0.161851774051D-09 0.000000000000D+00 0.000000000000D+00 0.276736457687D-05 0.000000000000D+00  6 2 2 25 2 2 21 2 0.37694356D+00 0.10218052D+00 0.42331288D+06 0.42331288D+06 0.42331288D+06 0.10736586D+01  1  2 12  3  6  5        2 0.502994002051D-09 0.100000000000D+01
-.366989638831D-03 0.000000000000D+00 0.000000000000D+00 0.276736457687D-05 0.000000000000D+00  6 2 2 25 2 2 21 2 0.37694356D+00 0.10218052D+00 0.42212648D+06 0.42212648D+06 0.42212648D+06 0.10737460D+01  1  2  4  3  6  5        2 -.114091696517D-02 0.100000000000D+01
-.915268634405D-03 0.000000000000D+00 0.000000000000D+00 0.276736457687D-05 0.000000000000D+00  6 2 2 25 2 2 21 2 0.37694356D+00 0.10218052D+00 0.42212648D+06 0.42212648D+06 0.42212648D+06 0.10737460D+01  1  2  5  3  6  5        2 -.284543595293D-02 0.100000000000D+01
0.131833191857D-02 0.000000000000D+00 -.000000000000D+00 0.276736457687D-05 0.000000000000D+00  6 2 2 25 2 2 21 2 0.37694356D+00 0.10218052D+00 0.42212648D+06 0.42212648D+06 0.42212648D+06 0.10737460D+01  1  2  6  3  6  5        2 0.409850059096D-02 0.100000000000D+01
  </mgrwgt>
  </event>
  <event>
  5     66 0.18204334E-05 0.67296002E+02 0.75467711E-02 0.92035751E-01
        2 -1    0    0  501    0 0.00000000E+00 0.00000000E+00 0.24952931E+04 0.24952931E+04 0.32000000E+00 0.0000E+00 0.9000E+01
        2 -1    0    0  502    0 0.00000000E+00 0.00000000E+00 -.47621498E+03 0.47621509E+03 0.32000000E+00 0.0000E+00 0.9000E+01
       25  1    1    2    0    0 0.48808452E+03 -.27249029E+03 0.16841444E+03 0.59704764E+03 0.12500000E+03 0.0000E+00 0.9000E+01
        2  1    1    2  501    0 -.55318776E+03 0.28952921E+03 0.20610629E+04 0.21535608E+04 0.32000000E+00 0.0000E+00 0.9000E+01
        2  1    1    2  502    0 0.65103245E+02 -.17038915E+02 -.21039923E+03 0.22089974E+03 0.32000000E+00 0.0000E+00 0.9000E+01
#aMCatNLO 1  0  0  5  2 0.41460718D+01 0.00000000D+00  -5  6  0 0.00000000D+00 0.00000000D+00 0.00000000D+00 0.00000000D+00 0.00000000D+00
  <mgrwgt>
 0.3117675627D-02    7    2    0
 0.109008996640796D+04 0.000000000000000D+00 0.000000000000000D+00 0.109008996640796D+04
 0.109008996640796D+04 -.000000000000000D+00 -.000000000000000D+00 -.109008996640796D+04
 0.657784266793563D+03 0.488084379234149D+03 -.272490273442149D+03 -.323384958320859D+03
 0.102646385420130D+04 -.553187602128777D+03 0.289529120505031D+03 0.814729654064705D+03
 0.495931811821054D+03 0.651032228946282D+02 -.170388470628817D+02 -.491344695743847D+03
 0.000000000000000D+00 0.000000000000000D+00 -.000000000000000D+00 0.000000000000000D+00
 0.109008996640796D+04 0.000000000000000D+00 0.000000000000000D+00 0.109008996640796D+04
 0.109008996640796D+04 -.000000000000000D+00 -.000000000000000D+00 -.109008996640796D+04
 0.657998005819954D+03 0.488131229718756D+03 -.272502535173697D+03 -.323738546608523D+03
 0.102598133248724D+04 -.553114521609585D+03 0.289509993836113D+03 0.814178103406066D+03
 0.488239094188716D+03 0.611715063609289D+02 -.138707571410938D+02 -.484193207304775D+03
 0.796150032001626D+01 0.381178552990039D+01 -.313670152132222D+01 -.624634949276743D+01
0.361071133051D-03 0.000000000000D+00 0.000000000000D+00 0.175921778325D-05 0.000000000000D+00  6 2 2 25 2 2 21 0 0.38389125D+00 0.73263853D-01 0.39972284D+06 0.39972284D+06 0.39972284D+06 0.10754493D+01  1  2  2  3  6  5        2 0.135639881824D-02 0.100000000000D+01
0.105428393705D-03 0.000000000000D+00 -.138660822313D-05 0.175921778325D-05 0.000000000000D+00  6 2 2 25 2 2 21 2 0.38389125D+00 0.73263853D-01 0.39972284D+06 0.39972284D+06 0.39972284D+06 0.10754493D+01  1  2  3  3  6  5        2 0.458070290884D-03 0.100000000000D+01
-.248674412925D-03 0.000000000000D+00 0.000000000000D+00 0.175921778325D-05 0.000000000000D+00  6 2 2 25 2 2 21 2 0.38389125D+00 0.73263853D-01 0.39972284D+06 0.39972284D+06 0.39972284D+06 0.10754493D+01  1  2 15  3  6  5        2 -.108045239675D-02 0.100000000000D+01
-.153672836753D-02 0.000000000000D+00 0.000000000000D+00 0.175921778325D-05 0.000000000000D+00  6 2 2 25 2 2 21 2 0.38389125D+00 0.73263853D-01 0.39972284D+06 0.39972284D+06 0.39972284D+06 0.10754493D+01  1  2  4  3  6  5        2 -.667685037769D-02 0.100000000000D+01
-.406882528717D-01 0.000000000000D+00 0.000000000000D+00 0.175921778325D-05 0.000000000000D+00  6 2 2 25 2 2 21 2 0.38389125D+00 0.73263853D-01 0.39972284D+06 0.39972284D+06 0.39972284D+06 0.10754493D+01  1  2  5  3  6  5        2 -.176784253023D+00 0.100000000000D+01
0.414093681121D-01 0.000000000000D+00 -.000000000000D+00 0.175921778325D-05 0.000000000000D+00  6 2 2 25 2 2 21 2 0.38389125D+00 0.73263853D-01 0.39972284D+06 0.39972284D+06 0.39972284D+06 0.10754493D+01  1  2  6  3  6  5        2 0.179917388759D+00 0.100000000000D+01
0.136431921827D-02 0.000000000000D+00 0.000000000000D+00 0.175921778325D-05 0.260333934291D-07  6 2 2 25 2 2 21 2 0.38389125D+00 0.73263853D-01 0.39993593D+06 0.39993593D+06 0.39993593D+06 0.10754326D+01  1  2 11  3  6  5        2 0.592737355623D-02 0.100000000000D+01
  </mgrwgt>
  </event>
  <event>
  6     66 0.18204334E-05 0.42139181E+02 0.75467711E-02 0.93156145E-01
        2 -1    0    0  501    0 0.00000000E+00 0.00000000E+00 0.24739544E+04 0.24739544E+04 0.32000000E+00 0.0000E+00 0.9000E+01
        2 -1    0    0  502    0 0.00000000E+00 0.00000000E+00 -.74678585E+03 0.74678592E+03 0.32000000E+00 0.0000E+00 0.9000E+01
       25  1    1    2    0    0 0.46232475E+03 0.30915026E+03 0.88284569E+03 0.10508851E+04 0.12500000E+03 0.0000E+00 0.9000E+01
        2  1    1    2  501    0 -.60212489E+02 -.70147635E+01 0.14081899E+04 0.14094941E+04 0.32000000E+00 0.0000E+00 0.9000E+01
        2  1    1    2  503    0 -.14255794E+03 -.15912540E+03 -.22840522E+03 0.31275023E+03 0.32000000E+00 0.0000E+00 0.9000E+01
       21  1    1    2  502  503 -.25955432E+03 -.14301010E+03 -.33546179E+03 0.44761089E+03 0.75000000E+00 0.0000E+00 0.9000E+01
#aMCatNLO 2  0  0  5  1 0.27100786D+02 0.00000000D+00  -5  6  0 0.00000000D+00 0.00000000D+00 0.00000000D+00 0.00000000D+00 0.00000000D+00
  <mgrwgt>
 0.3734581296D-02    1    2    0
 0.135923297979390D+04 0.000000000000000D+00 0.000000000000000D+00 0.135923297979390D+04
 0.135923297979390D+04 -.000000000000000D+00 -.000000000000000D+00 -.135923297979390D+04
 0.684831233074819D+03 0.462587174062768D+03 0.309351977023420D+03 0.379055772280413D+03
 0.775846780414003D+03 -.599417549425761D+02 -.681669368128831D+01 0.773497734567099D+03
 0.125778794609897D+04 -.402645419120192D+03 -.302535283342132D+03 -.115255350684751D+04
 0.000000000000000D+00 0.000000000000000D+00 0.000000000000000D+00 -.000000000000000D+00
 0.135923297979390D+04 0.000000000000000D+00 0.000000000000000D+00 0.135923297979390D+04
 0.135923297979390D+04 -.000000000000000D+00 -.000000000000000D+00 -.135923297979390D+04
 0.684229719554180D+03 0.462355711560098D+03 0.309178063275732D+03 0.378393221791848D+03
 0.775120552137703D+03 -.602039717413703D+02 -.701371525350342D+01 0.772747151357522D+03
 0.515385442973117D+03 -.142492702834818D+03 -.159061527675483D+03 -.469060139940462D+03
 0.743730244922796D+03 -.259659036983909D+03 -.143102820346746D+03 -.682080233208908D+03
0.138544800303D-02 0.000000000000D+00 0.000000000000D+00 0.212625722563D-04 0.180701104456D-07  6 2 2 25 2 2 21 2 0.38060838D+00 0.11489014D+00 0.32531235D+06 0.32531235D+06 0.32531235D+06 0.10819587D+01  1  2  1  3  6  5        2 0.373458129574D-02 0.100000000000D+01
  </mgrwgt>
  </event>
  <event>
  5     66 0.18204334E-05 0.23691016E+03 0.75467711E-02 0.79146648E-01
        2 -1    0    0  501    0 0.00000000E+00 0.00000000E+00 0.73029851E+03 0.73029858E+03 0.32000000E+00 0.0000E+00 0.9000E+01
        2 -1    0    0  502    0 0.00000000E+00 0.00000000E+00 -.23903711E+04 0.23903711E+04 0.32000000E+00 0.0000E+00 0.9000E+01
       25  1    1    2    0    0 0.36341286E+03 0.29391948E+03 -.78016102E+02 0.49007048E+03 0.12500000E+03 0.0000E+00 0.9000E+01
        2  1    1    2  501    0 -.22614226E+03 -.10086364E+03 0.48789691E+03 0.54713553E+03 0.32000000E+00 0.0000E+00 0.9000E+01
        2  1    1    2  502    0 -.13727060E+03 -.19305583E+03 -.20699534E+04 0.20834637E+04 0.32000000E+00 0.0000E+00 0.9000E+01
#aMCatNLO 1  0  0  2  4 0.56727143D+02 0.00000000D+00  -5  6  0 0.00000000D+00 0.00000000D+00 0.00000000D+00 0.00000000D+00 0.00000000D+00
  <mgrwgt>
 0.9499302536D-02    5    2    0
 0.132124357485091D+04 0.000000000000000D+00 0.000000000000000D+00 0.132124357485091D+04
 0.132124357485091D+04 0.000000000000000D+00 0.000000000000000D+00 -.132124357485091D+04
 0.529788591315779D+03 0.363410484396064D+03 0.293932565015438D+03 0.215841188244554D+03
 0.952575251986981D+03 -.226123795043459D+03 -.100855409068343D+03 0.919834673446735D+03
 0.116012330639905D+04 -.137286689352605D+03 -.193077155947095D+03 -.113567586169129D+04
 0.000000000000000D+00 0.000000000000000D+00 -.000000000000000D+00 -.000000000000000D+00
 0.296362422640437D+04 0.000000000000000D+00 0.000000000000000D+00 0.296362422640437D+04
 0.305891448181700D+04 0.000000000000000D+00 0.000000000000000D+00 -.305891448181700D+04
 0.653136974509835D+03 0.212200064621097D+02 0.603262132289760D+03 0.215841188244554D+03
 0.138630151533533D+04 -.902701748855837D+03 0.510750053899924D+03 0.919834673446735D+03
 0.155079419197672D+04 -.921486626532320D+03 0.515815238397001D+03 -.113567586169129D+04
 0.243230602639950D+04 0.180296836892605D+04 -.162982742458668D+04 -.952902554126317D+02
0.908316258991D-02 0.000000000000D+00 0.000000000000D+00 0.899754265089D-05 0.000000000000D+00  6 2 2 25 2 2 21 0 0.11235362D+00 0.36774940D+00 0.23441726D+06 0.23441726D+06 0.23441726D+06 0.10925681D+01  1  2  2  2  6  2        2 0.245788907939D-01 0.100000000000D+01
0.105307580974D-02 0.000000000000D+00 -.348817359969D-04 0.899754265089D-05 0.000000000000D+00  6 2 2 25 2 2 21 2 0.11235362D+00 0.36774940D+00 0.23441726D+06 0.23441726D+06 0.23441726D+06 0.10925681D+01  1  2  3  2  6  2        2 0.340158890741D-02 0.100000000000D+01
-.572263975119D-02 0.000000000000D+00 0.000000000000D+00 0.899754265089D-05 0.000000000000D+00  6 2 2 25 2 2 21 2 0.11235362D+00 0.36774940D+00 0.23441726D+06 0.23441726D+06 0.23441726D+06 0.10925681D+01  1  2 15  2  6  2        2 -.184849634934D-01 0.100000000000D+01
0.677890620464D-02 0.000000000000D+00 -.368970313704D-02 0.899754265089D-05 0.000000000000D+00  6 2 2 25 2 2 21 2 0.11235362D+00 0.90505271D+00 0.23441726D+06 0.23441726D+06 0.23441726D+06 0.10925681D+01  1  2  5  2  6  2        2 0.378510297977D-05 0.100000000000D+01
0.900145162512D-03 0.000000000000D+00 -.364883994114D-03 0.899754265089D-05 0.000000000000D+00  6 2 21 25 2 2 -2 2 0.11235362D+00 0.90505271D+00 0.23441726D+06 0.23441726D+06 0.23441726D+06 0.10925681D+01  1  2  5  5  6  2        2 0.122462760439D-08 0.100000000000D+01
  </mgrwgt>
  </event>
  <event>
  6     66 0.18204334E-05 0.16060319E+03 0.75467711E-02 0.90344443E-01
        2 -1    0    0  501    0 0.00000000E+00 0.00000000E+00 0.23917652E+04 0.23917652E+04 0.32000000E+00 0.0000E+00 0.9000E+01
        2 -1    0    0  502    0 0.00000000E+00 0.00000000E+00 -.84602920E+03 0.84602926E+03 0.32000000E+00 0.0000E+00 0.9000E+01
       25  1    1    2    0    0 0.47634028E+03 -.53019893E+03 0.77429979E+03 0.10598000E+04 0.12500000E+03 0.0000E+00 0.9000E+01
        2  1    1    2  501    0 -.32960775E+02 -.23083128E+01 0.12851949E+04 0.12856196E+04 0.32000000E+00 0.0000E+00 0.9000E+01
        2  1    1    2  503    0 -.37010801E+03 0.27537487E+03 -.34716280E+03 0.57735030E+03 0.32000000E+00 0.0000E+00 0.9000E+01
       21  1    1    2  502  503 -.73271490E+02 0.25713237E+03 -.16659582E+03 0.31502460E+03 0.75000000E+00 0.0000E+00 0.9000E+01
#aMCatNLO 2  0  0  5  2 0.71831185D+02 0.00000000D+00  -5  6  0 0.00000000D+00 0.00000000D+00 0.00000000D+00 0.00000000D+00 0.00000000D+00
  <mgrwgt>
 0.1555206139D-02    1    2    0
 0.142249898137579D+04 0.000000000000000D+00 0.000000000000000D+00 0.142249898137579D+04
 0.142249898137579D+04 -.000000000000000D+00 -.000000000000000D+00 -.142249898137579D+04
 0.790166584472128D+03 0.478344242246581D+03 -.532610646595918D+03 0.310243317830653D+03
 0.769274067721142D+03 -.310416782591820D+02 -.460659750239402D+01 0.768633712985930D+03
 0.128555731055830D+04 -.447302563987399D+03 0.537217244098312D+03 -.107887703081658D+04
 0.000000000000000D+00 0.000000000000000D+00 0.000000000000000D+00 0.000000000000000D+00
 0.142249898137579D+04 0.000000000000000D+00 0.000000000000000D+00 0.142249898137579D+04
 0.142249898137579D+04 -.000000000000000D+00 -.000000000000000D+00 -.142249898137579D+04
 0.785528406473277D+03 0.476377718737141D+03 -.530248821680857D+03 0.305500136781157D+03
 0.764729970470695D+03 -.329561699736416D+02 -.230726357163646D+01 0.764016030677099D+03
 0.845494476614001D+03 -.370082600928440D+03 0.275303341537927D+03 -.708595687690008D+03
 0.449245109193598D+03 -.733389478350591D+02 0.257252743714566D+03 -.360920479768248D+03
0.650709016983D-03 0.000000000000D+00 0.000000000000D+00 0.116880842913D-04 0.211808349392D-08  6 2 2 25 2 2 21 2 0.36796389D+00 0.13015835D+00 0.55166203D+06 0.55166203D+06 0.55166203D+06 0.10655054D+01  1  2  1  3  6  5        2 0.155520613908D-02 0.100000000000D+01
  </mgrwgt>
  </event>
  <event>
  5     66 -.18204334E-05 0.25637655E+03 0.75467711E-02 0.93936520E-01
        2 -1    0    0  501    0 0.00000000E+00 0.00000000E+00 0.78982632E+03 0.78982639E+03 0.32000000E+00 0.0000E+00 0.9000E+01
        2 -1    0    0  502    0 0.00000000E+00 0.00000000E+00 -.85121615E+03 0.85121621E+03 0.32000000E+00 0.0000E+00 0.9000E+01
       25  1    1    2    0    0 0.51054372E+03 0.96422051E+01 0.30511137E+03 0.60783699E+03 0.12500000E+03 0.0000E+00 0.9000E+01
        2  1    1    2  501    0 -.25879293E+03 0.38544240E+02 0.25226414E+03 0.36345115E+03 0.32000000E+00 0.0000E+00 0.9000E+01
        2  1    1    2  502    0 -.25175079E+03 -.48186445E+02 -.61876534E+03 0.66975446E+03 0.32000000E+00 0.0000E+00 0.9000E+01
#aMCatNLO 1  0  0  1  4 0.22636477D+02 0.00000000D+00  -5  6  0 0.00000000D+00 0.00000000D+00 0.00000000D+00 0.00000000D+00 0.00000000D+00
  <mgrwgt>
 -.1362421042D-02   11    2    0
 0.819946966105007D+03 0.000000000000000D+00 0.000000000000000D+00 0.819946966105007D+03
 0.819946966105007D+03 0.000000000000000D+00 0.000000000000000D+00 -.819946966105007D+03
 0.619745192733306D+03 0.510486379907028D+03 0.966665670191113D+01 0.328282371737605D+03
 0.372986874459335D+03 -.258680381087790D+03 0.385274763652591D+02 0.265931010835788D+03
 0.647161865017372D+03 -.251805998819238D+03 -.481941330671703D+02 -.594213382573393D+03
 0.000000000000000D+00 -.000000000000000D+00 0.000000000000000D+00 0.000000000000000D+00
 0.115396946453610D+04 0.000000000000000D+00 0.000000000000000D+00 0.115396946453610D+04
 0.820408683077646D+03 0.000000000000000D+00 0.000000000000000D+00 -.820408683077646D+03
 0.624570711725154D+03 0.516412957438434D+03 0.345191843587940D+01 0.328282371737605D+03
 0.370173272306603D+03 -.255140768508478D+03 0.348157615303467D+02 0.265931010835788D+03
 0.645306173425133D+03 -.245650076509439D+03 -.546493672624025D+02 -.594213382573393D+03
 0.334327990156856D+03 -.156221124205167D+02 0.163816872961764D+02 0.333560781458453D+03
0.145487664494D-05 0.000000000000D+00 0.000000000000D+00 0.904587386672D-07 0.000000000000D+00  6 2 2 25 2 2 21 0 0.12151175D+00 0.13095634D+00 0.27225794D+06 0.27225794D+06 0.27225794D+06 0.10876835D+01  1  2  2  1  6  1        2 0.264154078942D-04 0.100000000000D+01
0.931365074238D-07 0.000000000000D+00 -.558710939440D-08 0.904587386672D-07 0.000000000000D+00  6 2 2 25 2 2 21 2 0.12151175D+00 0.13095634D+00 0.27225794D+06 0.27225794D+06 0.27225794D+06 0.10876835D+01  1  2  3  1  6  1        2 0.200058101289D-05 0.100000000000D+01
-.792594187153D-06 0.000000000000D+00 0.000000000000D+00 0.904587386672D-07 0.000000000000D+00  6 2 2 25 2 2 21 2 0.12151175D+00 0.13095634D+00 0.27225794D+06 0.27225794D+06 0.27225794D+06 0.10876835D+01  1  2 15  1  6  1        2 -.170249983127D-04 0.100000000000D+01
0.373413124018D-03 0.000000000000D+00 0.000000000000D+00 0.904587386672D-07 0.000000000000D+00  6 2 2 25 2 2 21 2 0.17160640D+00 0.13095634D+00 0.28256374D+06 0.28256374D+06 0.28256374D+06 0.10864811D+01  1  2 12  1  6  1        2 0.494922836617D-02 0.100000000000D+01
0.177343104765D-07 0.000000000000D+00 0.000000000000D+00 0.904587386672D-07 0.000000000000D+00  6 2 2 25 2 2 21 2 0.17104864D+00 0.13095634D+00 0.28256374D+06 0.28256374D+06 0.28256374D+06 0.10864811D+01  1  2 12  1  6  1        2 0.236220078250D-06 0.100000000000D+01
-.416627708368D-03 0.000000000000D+00 0.000000000000D+00 0.904587386672D-07 0.000000000000D+00  6 2 2 25 2 2 21 2 0.12151175D+00 0.13095634D+00 0.27225794D+06 0.27225794D+06 0.27225794D+06 0.10876835D+01  1  2  4  1  6  1        2 -.894920269030D-02 0.100000000000D+01
-.378952234302D-03 0.000000000000D+00 -.122070141468D-05 0.904587386672D-07 0.000000000000D+00  6 2 2 25 2 2 21 2 0.17104541D+00 0.13095634D+00 0.27225794D+06 0.27225794D+06 0.27225794D+06 0.10876835D+01  1  2  5  1  6  1        2 -.506745126998D-02 0.100000000000D+01
0.358289375107D-03 0.000000000000D+00 0.115266459697D-05 0.904587386672D-07 0.000000000000D+00  6 2 2 25 2 2 21 2 0.12151175D+00 0.13095634D+00 0.27225794D+06 0.27225794D+06 0.27225794D+06 0.10876835D+01  1  2  6  1  6  1        2 0.769608975884D-02 0.100000000000D+01
0.159708391363D-04 0.000000000000D+00 0.000000000000D+00 0.904587386672D-07 0.000000000000D+00  6 21 2 25 2 2 -2 2 0.17160640D+00 0.13095634D+00 0.28256374D+06 0.28256374D+06 0.28256374D+06 0.10864811D+01  1  2 12  4  6  1        2 0.123926954296D-03 0.100000000000D+01
0.753330781447D-09 0.000000000000D+00 0.000000000000D+00 0.904587386672D-07 0.000000000000D+00  6 21 2 25 2 2 -2 2 0.17104864D+00 0.13095634D+00 0.28256374D+06 0.28256374D+06 0.28256374D+06 0.10864811D+01  1  2 12  4  6  1        2 0.590591402158D-08 0.100000000000D+01
-.160634037963D-04 0.000000000000D+00 -.518517664661D-07 0.904587386672D-07 0.000000000000D+00  6 21 2 25 2 2 -2 2 0.17104541D+00 0.13095634D+00 0.27225794D+06 0.27225794D+06 0.27225794D+06 0.10876835D+01  1  2  5  4  6  1        2 -.126645277357D-03 0.100000000000D+01
  </mgrwgt>
  </event>
  <event>
  5     66 0.18204334E-05 0.53022293E+02 0.75467711E-02 0.90464896E-01
        2 -1    0    0  501    0 0.00000000E+00 0.00000000E+00 0.17556523E+04 0.17556523E+04 0.32000000E+00 0.0000E+00 0.9000E+01
        2 -1    0    0  502    0 0.00000000E+00 0.00000000E+00 -.10796742E+04 0.10796743E+04 0.32000000E+00 0.0000E+00 0.9000E+01
       25  1    1    2    0    0 0.66585660E+03 -.11800061E+03 0.83807077E+02 0.69277542E+03 0.12500000E+03 0.0000E+00 0.9000E+01
        2  1    1    2  501    0 -.71349937E+03 0.14126204E+03 0.12695260E+04 0.14631243E+04 0.32000000E+00 0.0000E+00 0.9000E+01
        2  1    1    2  502    0 0.47642773E+02 -.23261434E+02 -.67735505E+03 0.67942689E+03 0.32000000E+00 0.0000E+00 0.9000E+01
#aMCatNLO 1  0  0  1  1 0.28472049D+00 0.00000000D+00  -5  6  0 0.00000000D+00 0.00000000D+00 0.00000000D+00 0.00000000D+00 0.00000000D+00
  <mgrwgt>
 0.9878149546D-02    9    2    0
 0.137678344760259D+04 0.000000000000000D+00 0.000000000000000D+00 0.137678344760259D+04
 0.137678344760259D+04 0.000000000000000D+00 0.000000000000000D+00 -.137678344760259D+04
 0.692740427293172D+03 0.665835605696401D+03 -.117995309053257D+03 -.836920117732818D+02
 0.119488053812683D+04 -.713482037251675D+03 0.141258608388945D+03 0.948013126739008D+03
 0.865945929785186D+03 0.476464315552739D+02 -.232632993356878D+02 -.864321114965727D+03
 0.000000000000000D+00 0.000000000000000D+00 -.000000000000000D+00 0.000000000000000D+00
 0.137731798157835D+04 0.000000000000000D+00 0.000000000000000D+00 0.137731798157835D+04
 0.137682136970478D+04 0.000000000000000D+00 0.000000000000000D+00 -.137682136970478D+04
 0.692675869594838D+03 0.665775282568427D+03 -.117956689531523D+03 -.836920117732818D+02
 0.119495055207592D+04 -.713586094123977D+03 0.141325226728817D+03 0.948013126739008D+03
 0.865940488254566D+03 0.475710225924473D+02 -.232150216986245D+02 -.864321114965727D+03
 0.572441357807287D+00 0.239788963102078D+00 -.153515498669046D+00 0.496611873570371D+00
0.227688134273D-03 0.000000000000D+00 0.000000000000D+00 0.537335353469D-05 0.000000000000D+00  6 2 2 25 2 2 21 0 0.27010036D+00 0.16610374D+00 0.53877050D+06 0.53877050D+06 0.53877050D+06 0.10662257D+01  1  2  2  1  6  1        2 0.770997145207D-03 0.100000000000D+01
0.116680497726D-03 0.000000000000D+00 -.874382387273D-06 0.537335353469D-05 0.000000000000D+00  6 2 2 25 2 2 21 2 0.27010036D+00 0.16610374D+00 0.53877050D+06 0.53877050D+06 0.53877050D+06 0.10662257D+01  1  2  3  1  6  1        2 0.449168110173D-03 0.100000000000D+01
-.159315261109D-03 0.000000000000D+00 0.000000000000D+00 0.537335353469D-05 0.000000000000D+00  6 2 2 25 2 2 21 2 0.27010036D+00 0.16610374D+00 0.53877050D+06 0.53877050D+06 0.53877050D+06 0.10662257D+01  1  2 15  1  6  1        2 -.613293019390D-03 0.100000000000D+01
-.240660579729D+00 0.000000000000D+00 0.000000000000D+00 0.537335353469D-05 0.000000000000D+00  6 2 2 25 2 2 21 2 0.27010036D+00 0.16610374D+00 0.53877050D+06 0.53877050D+06 0.53877050D+06 0.10662257D+01  1  2  4  1  6  1        2 -.926436378803D+00 0.100000000000D+01
-.231300278650D+01 0.000000000000D+00 -.108850523844D+00 0.537335353469D-05 0.000000000000D+00  6 2 2 25 2 2 21 2 0.27020810D+00 0.16610374D+00 0.53877050D+06 0.53877050D+06 0.53877050D+06 0.10662257D+01  1  2  5  1  6  1        2 -.889614311458D+01 0.100000000000D+01
0.231304602421D+01 0.000000000000D+00 0.108850515186D+00 0.537335353469D-05 0.000000000000D+00  6 2 2 25 2 2 21 2 0.27010036D+00 0.16610374D+00 0.53877050D+06 0.53877050D+06 0.53877050D+06 0.10662257D+01  1  2  6  1  6  1        2 0.890420020216D+01 0.100000000000D+01
0.241231272972D+00 0.000000000000D+00 0.000000000000D+00 0.537335353469D-05 0.130943240126D-03  6 2 2 25 2 2 21 2 0.27020522D+00 0.16610831D+00 0.53895090D+06 0.53895090D+06 0.53895090D+06 0.10662155D+01  1  2 11  1  6  1        2 0.927755902517D+00 0.100000000000D+01
-.172858518317D-03 0.000000000000D+00 -.813507306858D-05 0.537335353469D-05 0.000000000000D+00  6 21 2 25 2 2 -2 2 0.27020810D+00 0.16610374D+00 0.53877050D+06 0.53877050D+06 0.53877050D+06 0.10662257D+01  1  2  5  4  6  1        2 -.167477821686D-03 0.100000000000D+01
0.641438241060D-04 0.000000000000D+00 0.000000000000D+00 0.537335353469D-05 0.293025075578D-07  6 21 2 25 2 2 -2 2 0.27020522D+00 0.16610831D+00 0.53895090D+06 0.53895090D+06 0.53895090D+06 0.10662155D+01  1  2 11  4  6  1        2 0.621438379768D-04 0.100000000000D+01
  </mgrwgt>
  </event>
  <event>
  5     66 0.18204334E-05 0.24515401E+02 0.75467711E-02 0.89584509E-01
        2 -1    0    0  501    0 0.00000000E+00 0.00000000E+00 0.10931740E+04 0.10931741E+04 0.32000000E+00 0.0000E+00 0.9000E+01
        2 -1    0    0  502    0 0.00000000E+00 0.00000000E+00 -.13315096E+04 0.13315096E+04 0.32000000E+00 0.0000E+00 0.9000E+01
       25  1    1    2    0    0 0.67022678E+03 -.38124420E+03 0.31400124E+03 0.84188649E+03 0.12500000E+03 0.0000E+00 0.9000E+01
        2  1    1    2  501    0 -.69473208E+03 0.38064598E+03 0.21041988E+03 0.81964667E+03 0.32000000E+00 0.0000E+00 0.9000E+01
        2  1    1    2  502    0 0.24505302E+02 0.59822115E+00 -.76275666E+03 0.76315051E+03 0.32000000E+00 0.0000E+00 0.9000E+01
#aMCatNLO 1  0  0  2  4 0.31065334D+01 0.00000000D+00  -5  6  0 0.00000000D+00 0.00000000D+00 0.00000000D+00 0.00000000D+00 0.00000000D+00
  <mgrwgt>
 0.2246745204D-01   11    2    0
 0.120647078592190D+04 0.000000000000000D+00 0.000000000000000D+00 0.120647078592190D+04
 0.120647078592190D+04 0.000000000000000D+00 0.000000000000000D+00 -.120647078592190D+04
 0.876984829293231D+03 0.670155076520325D+03 -.381206567053640D+03 0.398812133039723D+03
 0.844335477780280D+03 -.694663175035592D+03 0.380608225024978D+03 0.292374505268945D+03
 0.691621264770289D+03 0.245080985152666D+02 0.598342028662671D+00 -.691186638308668D+03
 0.000000000000000D+00 0.000000000000000D+00 -.000000000000000D+00 -.000000000000000D+00
 0.120649872290636D+04 0.000000000000000D+00 0.000000000000000D+00 0.120649872290636D+04
 0.129603734753819D+04 0.000000000000000D+00 0.000000000000000D+00 -.129603734753819D+04
 0.875993272153177D+03 0.669188827646865D+03 -.380623709653709D+03 0.398812133039723D+03
 0.845355081532150D+03 -.695594539550690D+03 0.381170039599431D+03 0.292374505268945D+03
 0.691595217905585D+03 0.237456637951558D+02 0.105825533959897D+01 -.691186638308668D+03
 0.895924988536384D+02 0.266004810866886D+01 -.160458528532113D+01 -.895386246318364D+02
0.704601796622D-05 0.000000000000D+00 0.000000000000D+00 0.861213352703D-06 0.000000000000D+00  6 2 2 25 2 2 21 0 0.16818062D+00 0.20484763D+00 0.63813846D+06 0.63813846D+06 0.63813846D+06 0.10611024D+01  1  2  2  2  6  2        2 0.399191865467D-04 0.100000000000D+01
0.586877970128D-05 0.000000000000D+00 -.270585642494D-07 0.861213352703D-06 0.000000000000D+00  6 2 2 25 2 2 21 2 0.16818062D+00 0.20484763D+00 0.63813846D+06 0.63813846D+06 0.63813846D+06 0.10611024D+01  1  2  3  2  6  2        2 0.374369375254D-04 0.100000000000D+01
-.435218486297D-05 0.000000000000D+00 0.000000000000D+00 0.861213352703D-06 0.000000000000D+00  6 2 2 25 2 2 21 2 0.16818062D+00 0.20484763D+00 0.63813846D+06 0.63813846D+06 0.63813846D+06 0.10611024D+01  1  2 15  2  6  2        2 -.277625811680D-04 0.100000000000D+01
0.778239428876D-09 0.000000000000D+00 0.000000000000D+00 0.861213352703D-06 0.000000000000D+00  6 2 2 25 2 2 21 2 0.16818062D+00 0.22006024D+00 0.64000400D+06 0.64000400D+06 0.64000400D+06 0.10610147D+01  1  2 12  2  6  2        2 0.436238731849D-08 0.100000000000D+01
-.726903544643D-02 0.000000000000D+00 0.000000000000D+00 0.861213352703D-06 0.000000000000D+00  6 2 2 25 2 2 21 2 0.16818062D+00 0.20484763D+00 0.63813846D+06 0.63813846D+06 0.63813846D+06 0.10611024D+01  1  2  4  2  6  2        2 -.463691669699D-01 0.100000000000D+01
-.334424168355D-01 0.000000000000D+00 -.216213103594D-04 0.861213352703D-06 0.000000000000D+00  6 2 2 25 2 2 21 2 0.16818062D+00 0.22005713D+00 0.63813846D+06 0.63813846D+06 0.63813846D+06 0.10611024D+01  1  2  5  2  6  2        2 -.187526953720D+00 0.100000000000D+01
0.333584276077D-01 0.000000000000D+00 0.215659750594D-04 0.861213352703D-06 0.000000000000D+00  6 2 2 25 2 2 21 2 0.16818062D+00 0.20484763D+00 0.63813846D+06 0.63813846D+06 0.63813846D+06 0.10611024D+01  1  2  6  2  6  2        2 0.212793363163D+00 0.100000000000D+01
0.775880249559D-02 0.000000000000D+00 0.000000000000D+00 0.861213352703D-06 0.182908995979D-05  6 2 2 25 2 2 21 2 0.16818452D+00 0.22005521D+00 0.64000400D+06 0.64000400D+06 0.64000400D+06 0.10610147D+01  1  2 11  2  6  2        2 0.434919333001D-01 0.100000000000D+01
0.112956359695D-10 0.000000000000D+00 0.000000000000D+00 0.861213352703D-06 0.000000000000D+00  6 2 21 25 2 2 -2 2 0.16818062D+00 0.22006024D+00 0.64000400D+06 0.64000400D+06 0.64000400D+06 0.10610147D+01  1  2 12  5  6  2        2 0.233131633476D-10 0.100000000000D+01
-.405931852045D-03 0.000000000000D+00 -.261597023374D-06 0.861213352703D-06 0.000000000000D+00  6 2 21 25 2 2 -2 2 0.16818062D+00 0.22005713D+00 0.63813846D+06 0.63813846D+06 0.63813846D+06 0.10611024D+01  1  2  5  5  6  2        2 -.838233502210D-03 0.100000000000D+01
0.420013734400D-03 0.000000000000D+00 0.000000000000D+00 0.861213352703D-06 0.720517169677D-08  6 2 21 25 2 2 -2 2 0.16818452D+00 0.22005521D+00 0.64000400D+06 0.64000400D+06 0.64000400D+06 0.10610147D+01  1  2 11  5  6  2        2 0.866911842203D-03 0.100000000000D+01
  </mgrwgt>
  </event>
  <event>
  5     66 -.18204334E-05 0.43083121E+02 0.75467711E-02 0.92413731E-01
        2 -1    0    0  501    0 0.00000000E+00 0.00000000E+00 0.28020416E+04 0.28020417E+04 0.32000000E+00 0.0000E+00 0.9000E+01
        2 -1    0    0  502    0 0.00000000E+00 0.00000000E+00 -.24861091E+03 0.24861112E+03 0.32000000E+00 0.0000E+00 0.9000E+01
       25  1    1    2    0    0 0.47390856E+03 0.29122344E+03 0.68290203E+03 0.88959574E+03 0.12500000E+03 0.0000E+00 0.9000E+01
        2  1    1    2  501    0 -.25108824E+02 0.35026324E+02 0.14845088E+04 0.14851343E+04 0.32000000E+00 0.0000E+00 0.9000E+01
        2  1    1    2  502    0 -.44879973E+03 -.32624976E+03 0.38601986E+03 0.67592273E+03 0.32000000E+00 0.0000E+00 0.9000E+01
#aMCatNLO 1  0  0  2  4 0.31065334D+01 0.00000000D+00  -5  6  0 0.00000000D+00 0.00000000D+00 0.00000000D+00 0.00000000D+00 0.00000000D+00
  <mgrwgt>
 -.1114636687D-01    7    2    0
 0.834636731007933D+03 0.000000000000000D+00 0.000000000000000D+00 0.834636731007933D+03
 0.834636731007933D+03 0.000000000000000D+00 0.000000000000000D+00 -.834636731007933D+03
 0.581231918815814D+03 0.473985796391821D+03 0.291285615390733D+03 -.112675190417258D+03
 0.443193428745574D+03 -.251011098180943D+02 0.350155628758406D+02 0.441094388907461D+03
 0.644848114454477D+03 -.448884686573727D+03 -.326301178266574D+03 -.328419198490203D+03
 0.000000000000000D+00 0.000000000000000D+00 -.000000000000000D+00 -.000000000000000D+00
 0.843513486217323D+03 0.000000000000000D+00 0.000000000000000D+00 0.843513486217323D+03
 0.891328615651171D+03 0.000000000000000D+00 0.000000000000000D+00 -.891328615651171D+03
 0.587706876707981D+03 0.472307020736511D+03 0.306601944803496D+03 -.112675190417258D+03
 0.444337332174723D+03 -.263757403124178D+02 0.466446691646123D+02 0.441094388907461D+03
 0.637809409657832D+03 -.450726779790092D+03 -.309494819166943D+03 -.328419198490203D+03
 0.649884833279576D+02 0.479549936599969D+01 -.437517948011649D+02 -.478151294338484D+02
0.359960618843D-03 0.000000000000D+00 0.000000000000D+00 0.871378104817D-06 0.000000000000D+00  6 2 2 25 2 2 21 0 0.43108335D+00 0.38247850D-01 0.34119586D+06 0.34119586D+06 0.34119586D+06 0.10804415D+01  1  2  2  2  6  2        2 0.185254703877D-02 0.100000000000D+01
0.159604532138D-03 0.000000000000D+00 -.138234355616D-05 0.871378104817D-06 0.000000000000D+00  6 2 2 25 2 2 21 2 0.43108335D+00 0.38247850D-01 0.34119586D+06 0.34119586D+06 0.34119586D+06 0.10804415D+01  1  2  3  2  6  2        2 0.958874963840D-03 0.100000000000D+01
-.238355820321D-03 0.000000000000D+00 0.000000000000D+00 0.871378104817D-06 0.000000000000D+00  6 2 2 25 2 2 21 2 0.43108335D+00 0.38247850D-01 0.34119586D+06 0.34119586D+06 0.34119586D+06 0.10804415D+01  1  2 15  2  6  2        2 -.143199836202D-02 0.100000000000D+01
-.251549465144D-02 0.000000000000D+00 0.000000000000D+00 0.871378104817D-06 0.000000000000D+00  6 2 2 25 2 2 21 2 0.43108335D+00 0.38247850D-01 0.34119586D+06 0.34119586D+06 0.34119586D+06 0.10804415D+01  1  2  4  2  6  2        2 -.151126337745D-01 0.100000000000D+01
-.925686176567D-02 0.000000000000D+00 -.125979428408D-02 0.871378104817D-06 0.000000000000D+00  6 2 2 25 2 2 21 2 0.43108335D+00 0.41274127D-01 0.34119586D+06 0.34119586D+06 0.34119586D+06 0.10804415D+01  1  2  5  2  6  2        2 -.510639632869D-01 0.100000000000D+01
0.932937521582D-02 0.000000000000D+00 0.125615057117D-02 0.871378104817D-06 0.000000000000D+00  6 2 2 25 2 2 21 2 0.43108335D+00 0.38247850D-01 0.34119586D+06 0.34119586D+06 0.34119586D+06 0.10804415D+01  1  2  6  2  6  2        2 0.560491873439D-01 0.100000000000D+01
-.115839411264D-03 0.000000000000D+00 -.161032405881D-04 0.871378104817D-06 0.000000000000D+00  6 2 21 25 2 2 -2 2 0.43108335D+00 0.41274127D-01 0.34119586D+06 0.34119586D+06 0.34119586D+06 0.10804415D+01  1  2  5  5  6  2        2 -.239838079333D-02 0.100000000000D+01
  </mgrwgt>
  </event>
  <event>
  5     66 -.18204334E-05 0.20233648E+02 0.75467711E-02 0.95538223E-01
        2 -1    0    0  501    0 0.00000000E+00 0.00000000E+00 0.14754814E+04 0.14754814E+04 0.32000000E+00 0.0000E+00 0.9000E+01
        2 -1    0    0  502    0 0.00000000E+00 0.00000000E+00 -.28546119E+03 0.28546137E+03 0.32000000E+00 0.0000E+00 0.9000E+01
       25  1    1    2    0    0 -.37233738E+03 -.25483664E+03 0.82123274E+03 0.94531744E+03 0.12500000E+03 0.0000E+00 0.9000E+01
        2  1    1    2  501    0 0.82883927E+01 0.18488237E+02 0.38087653E+03 0.38141519E+03 0.32000000E+00 0.0000E+00 0.9000E+01
        2  1    1    2  502    0 0.36404899E+03 0.23634840E+03 -.12089058E+02 0.43421018E+03 0.32000000E+00 0.0000E+00 0.9000E+01
#aMCatNLO 1  0  0  5  5 0.46994962D+00 0.00000000D+00  -5  6  0 0.00000000D+00 0.00000000D+00 0.00000000D+00 0.00000000D+00 0.00000000D+00
  <mgrwgt>
 -.4090057764D-02    6    2    0
 0.648993732050397D+03 0.000000000000000D+00 0.000000000000000D+00 0.648993732050397D+03
 0.648993732050397D+03 -.000000000000000D+00 -.000000000000000D+00 -.648993732050397D+03
 0.529730573885642D+03 -.372417344003059D+03 -.254874819636574D+03 0.247656272099340D+03
 0.168031827512592D+03 0.827716079143552D+01 0.184631833470889D+02 0.166809156005136D+03
 0.600225062702561D+03 0.364140183211624D+03 0.236411636289485D+03 -.414465428104476D+03
 0.000000000000000D+00 0.000000000000000D+00 0.000000000000000D+00 0.000000000000000D+00
 0.648993732050397D+03 0.000000000000000D+00 0.000000000000000D+00 0.648993732050397D+03
 0.648993732050397D+03 -.000000000000000D+00 -.000000000000000D+00 -.648993732050397D+03
 0.529305236828578D+03 -.372142479988332D+03 -.254696368989063D+03 0.247343421068922D+03
 0.167943853159924D+03 0.836436050980778D+01 0.185197962370000D+02 0.166709905029078D+03
 0.313708327959614D+03 0.177445592592506D+03 0.136021038474530D+03 -.220055115352999D+03
 0.287030046152678D+03 0.186332526886018D+03 0.100155534277533D+03 -.193998210745001D+03
0.323591659893D-05 0.000000000000D+00 0.000000000000D+00 0.132701920668D-05 0.000000000000D+00  6 2 2 25 2 2 21 0 0.22699715D+00 0.43917123D-01 0.21282567D+06 0.21282567D+06 0.21282567D+06 0.10957582D+01  1  2  2  3  6  5        2 0.812201854152D-04 0.100000000000D+01
0.144085855917D-05 0.000000000000D+00 -.124267717763D-07 0.132701920668D-05 0.000000000000D+00  6 2 2 25 2 2 21 2 0.22699715D+00 0.43917123D-01 0.21282567D+06 0.21282567D+06 0.21282567D+06 0.10957582D+01  1  2  3  3  6  5        2 0.434227620004D-04 0.100000000000D+01
-.251354679457D-05 0.000000000000D+00 0.000000000000D+00 0.132701920668D-05 0.000000000000D+00  6 2 2 25 2 2 21 2 0.22699715D+00 0.43917123D-01 0.21282567D+06 0.21282567D+06 0.21282567D+06 0.10957582D+01  1  2 15  3  6  5        2 -.757500752193D-04 0.100000000000D+01
-.229556475983D-03 0.000000000000D+00 0.000000000000D+00 0.132701920668D-05 0.000000000000D+00  6 2 2 25 2 2 21 2 0.22699715D+00 0.43917123D-01 0.21282567D+06 0.21282567D+06 0.21282567D+06 0.10957582D+01  1  2  4  3  6  5        2 -.691808100024D-02 0.100000000000D+01
-.161221441625D-03 0.000000000000D+00 0.000000000000D+00 0.132701920668D-05 0.000000000000D+00  6 2 2 25 2 2 21 2 0.22699715D+00 0.43917123D-01 0.21282567D+06 0.21282567D+06 0.21282567D+06 0.10957582D+01  1  2  5  3  6  5        2 -.485868667987D-02 0.100000000000D+01
0.253438831468D-03 0.000000000000D+00 -.000000000000D+00 0.132701920668D-05 0.000000000000D+00  6 2 2 25 2 2 21 2 0.22699715D+00 0.43917123D-01 0.21282567D+06 0.21282567D+06 0.21282567D+06 0.10957582D+01  1  2  6  3  6  5        2 0.763781704348D-02 0.100000000000D+01
  </mgrwgt>
  </event>
  <event>
  5     66 0.18204334E-05 0.17616134E+03 0.75467711E-02 0.93252447E-01
        2 -1    0    0  501    0 0.00000000E+00 0.00000000E+00 0.93552577E+03 0.93552582E+03 0.32000000E+00 0.0000E+00 0.9000E+01
        2 -1    0    0  502    0 0.00000000E+00 0.00000000E+00 -.17889995E+04 0.17889995E+04 0.32000000E+00 0.0000E+00 0.9000E+01
       25  1    1    2    0    0 0.32849573E+03 0.41386467E+03 0.28274448E+03 0.61217877E+03 0.12500000E+03 0.0000E+00 0.9000E+01
        2  1    1    2  501    0 -.26308227E+03 -.25032189E+03 0.41483329E+03 0.55132576E+03 0.32000000E+00 0.0000E+00 0.9000E+01
        2  1    1    2  502    0 -.65413455E+02 -.16354278E+03 -.15510515E+04 0.15610208E+04 0.32000000E+00 0.0000E+00 0.9000E+01
#aMCatNLO 1  0  0  2  5 0.35846659D+02 0.00000000D+00  -5  6  0 0.00000000D+00 0.00000000D+00 0.00000000D+00 0.00000000D+00 0.00000000D+00
  <mgrwgt>
 0.1847086473D-02   11    2    0
 0.129369827046006D+04 0.000000000000000D+00 0.000000000000000D+00 0.129369827046006D+04
 0.129369827046006D+04 0.000000000000000D+00 0.000000000000000D+00 -.129369827046006D+04
 0.737968749675053D+03 0.328455312645683D+03 0.413838076850473D+03 0.499827999656372D+03
 0.717247869684192D+03 -.263033311857226D+03 -.250275303943702D+03 0.618563057137926D+03
 0.113217992156087D+04 -.654220007884564D+02 -.163562772906770D+03 -.111839105679430D+04
 0.000000000000000D+00 0.000000000000000D+00 0.000000000000000D+00 -.000000000000000D+00
 0.129415421711333D+04 0.000000000000000D+00 0.000000000000000D+00 0.129415421711333D+04
 0.226202874329421D+04 0.000000000000000D+00 0.000000000000000D+00 -.226202874329421D+04
 0.731349229631244D+03 0.319437935794713D+03 0.409118652247654D+03 0.499827999656372D+03
 0.722153226374337D+03 -.271867085285213D+03 -.254898636021398D+03 0.618563057137926D+03
 0.113414238880850D+04 -.793306867408388D+02 -.170842161997567D+03 -.111839105679430D+04
 0.968538115593464D+03 0.317598362313378D+02 0.166221457713106D+02 -.967874526180876D+03
0.292511325469D-05 0.000000000000D+00 0.000000000000D+00 0.212037795595D-05 0.000000000000D+00  6 2 2 25 2 2 21 0 0.14392705D+00 0.27523069D+00 0.29277003D+06 0.29277003D+06 0.29277003D+06 0.10853366D+01  1  2  2  2  6  2        2 0.121417962624D-04 0.100000000000D+01
0.409551368508D-06 0.000000000000D+00 -.112332050980D-07 0.212037795595D-05 0.000000000000D+00  6 2 2 25 2 2 21 2 0.14392705D+00 0.27523069D+00 0.29277003D+06 0.29277003D+06 0.29277003D+06 0.10853366D+01  1  2  3  2  6  2        2 0.200252300605D-05 0.100000000000D+01
-.163481572189D-05 0.000000000000D+00 0.000000000000D+00 0.212037795595D-05 0.000000000000D+00  6 2 2 25 2 2 21 2 0.14392705D+00 0.27523069D+00 0.29277003D+06 0.29277003D+06 0.29277003D+06 0.10853366D+01  1  2 15  2  6  2        2 -.799351765242D-05 0.100000000000D+01
0.119795252319D-02 0.000000000000D+00 0.000000000000D+00 0.212037795595D-05 0.000000000000D+00  6 2 2 25 2 2 21 2 0.14392705D+00 0.49250796D+00 0.31966399D+06 0.31966399D+06 0.31966399D+06 0.10825178D+01  1  2 12  2  6  2        2 0.858907383419D-03 0.100000000000D+01
0.309967126865D-09 0.000000000000D+00 0.000000000000D+00 0.212037795595D-05 0.000000000000D+00  6 2 2 25 2 2 21 2 0.14392705D+00 0.48131362D+00 0.31966399D+06 0.31966399D+06 0.31966399D+06 0.10825178D+01  1  2 12  2  6  2        2 0.248056900697D-09 0.100000000000D+01
-.686963666960D-03 0.000000000000D+00 0.000000000000D+00 0.212037795595D-05 0.000000000000D+00  6 2 2 25 2 2 21 2 0.14392705D+00 0.27523069D+00 0.29277003D+06 0.29277003D+06 0.29277003D+06 0.10853366D+01  1  2  4  2  6  2        2 -.335894506328D-02 0.100000000000D+01
-.127453635415D-02 0.000000000000D+00 -.152856350783D-05 0.212037795595D-05 0.000000000000D+00  6 2 2 25 2 2 21 2 0.14392705D+00 0.48127233D+00 0.29277003D+06 0.29277003D+06 0.29277003D+06 0.10853366D+01  1  2  5  2  6  2        2 -.103391158380D-02 0.100000000000D+01
0.109942169633D-02 0.000000000000D+00 0.131744566111D-05 0.212037795595D-05 0.000000000000D+00  6 2 2 25 2 2 21 2 0.14392705D+00 0.27523069D+00 0.29277003D+06 0.29277003D+06 0.29277003D+06 0.10853366D+01  1  2  6  2  6  2        2 0.537568034083D-02 0.100000000000D+01
0.765564889731D-04 0.000000000000D+00 0.000000000000D+00 0.212037795595D-05 0.000000000000D+00  6 2 21 25 2 2 -2 2 0.14392705D+00 0.49250796D+00 0.31966399D+06 0.31966399D+06 0.31966399D+06 0.10825178D+01  1  2 12  5  6  2        2 0.285558799058D-05 0.100000000000D+01
0.191396849169D-10 0.000000000000D+00 0.000000000000D+00 0.212037795595D-05 0.000000000000D+00  6 2 21 25 2 2 -2 2 0.14392705D+00 0.48131362D+00 0.31966399D+06 0.31966399D+06 0.31966399D+06 0.10825178D+01  1  2 12  5  6  2        2 0.872539455995D-12 0.100000000000D+01
-.786117049537D-04 0.000000000000D+00 -.943727277252D-07 0.212037795595D-05 0.000000000000D+00  6 2 21 25 2 2 -2 2 0.14392705D+00 0.48127233D+00 0.29277003D+06 0.29277003D+06 0.29277003D+06 0.10853366D+01  1  2  5  5  6  2        2 -.365124262191D-05 0.100000000000D+01
  </mgrwgt>
  </event>
  <event>
  5     66 0.18204334E-05 0.12592942E+03 0.75467711E-02 0.91858807E-01
        2 -1    0    0  501    0 0.00000000E+00 0.00000000E+00 0.15139823E+04 0.15139824E+04 0.32000000E+00 0.0000E+00 0.9000E+01
        2 -1    0    0  502    0 -.00000000E+00 -.00000000E+00 -.23767770E+04 0.23767770E+04 0.32000000E+00 0.0000E+00 0.9000E+01
       25  1    1    2    0    0 -.50113896E+03 -.82292430E+02 -.50534363E+03 0.72726163E+03 0.12500000E+03 0.0000E+00 0.9000E+01
        2  1    1    2  501    0 0.40579997E+03 0.29075805E-01 0.13713427E+04 0.14301239E+04 0.32000000E+00 0.0000E+00 0.9000E+01
        2  1    1    2  502    0 0.95338992E+02 0.82263354E+02 -.17287938E+04 0.17333738E+04 0.32000000E+00 0.0000E+00 0.9000E+01
#aMCatNLO 1  0  0  5  1 0.10938603D+02 0.00000000D+00  -5  6  0 0.00000000D+00 0.00000000D+00 0.00000000D+00 0.00000000D+00 0.00000000D+00
  <mgrwgt>
 0.1355627268D-01    6    2    0
 0.189694450958313D+04 0.000000000000000D+00 0.000000000000000D+00 0.189694450958313D+04
 0.189694450958313D+04 -.000000000000000D+00 -.000000000000000D+00 -.189694450958313D+04
 0.630888495996225D+03 -.501141241993466D+03 -.822959439345898D+02 -.352817413920487D+03
 0.177849649672449D+04 0.405797747850168D+03 0.290756457070854D-01 0.173158250622245D+04
 0.138450402644555D+04 0.953434941432962D+02 0.822668682888820D+02 -.137876509230196D+04
 0.000000000000000D+00 0.000000000000000D+00 0.000000000000000D+00 -.000000000000000D+00
 0.189694450958313D+04 0.000000000000000D+00 0.000000000000000D+00 0.189694450958313D+04
 0.189694450958313D+04 -.000000000000000D+00 -.000000000000000D+00 -.189694450958313D+04
 0.634819594606797D+03 -.500598896465559D+03 -.818279826068425D+02 -.360660288660530D+03
 0.175752191277604D+04 0.407312902715043D+03 0.133642279955242D+01 0.170967180685180D+04
 0.100046428194951D+04 0.191842743430782D+03 -.445630373233130D+02 -.980886984802131D+03
 0.401083229833918D+03 -.985567496802673D+02 0.125054597130602D+03 -.368124533389139D+03
0.697245008493D-02 0.000000000000D+00 0.000000000000D+00 0.644145175707D-04 0.000000000000D+00  6 2 2 25 2 2 21 0 0.23292036D+00 0.36565801D+00 0.27811798D+06 0.27811798D+06 0.27811798D+06 0.10869938D+01  1  2  2  3  6  5        2 0.633120221441D-02 0.100000000000D+01
0.142537651728D-02 0.000000000000D+00 -.267760442144D-04 0.644145175707D-04 0.000000000000D+00  6 2 2 25 2 2 21 2 0.23292036D+00 0.36565801D+00 0.27811798D+06 0.27811798D+06 0.27811798D+06 0.10869938D+01  1  2  3  3  6  5        2 0.152927116396D-02 0.100000000000D+01
-.426492581969D-02 0.000000000000D+00 0.000000000000D+00 0.644145175707D-04 0.000000000000D+00  6 2 2 25 2 2 21 2 0.23292036D+00 0.36565801D+00 0.27811798D+06 0.27811798D+06 0.27811798D+06 0.10869938D+01  1  2 15  3  6  5        2 -.457579312792D-02 0.100000000000D+01
-.680608582260D-03 0.000000000000D+00 0.000000000000D+00 0.644145175707D-04 0.000000000000D+00  6 2 2 25 2 2 21 2 0.23292036D+00 0.36565801D+00 0.27811798D+06 0.27811798D+06 0.27811798D+06 0.10869938D+01  1  2  4  3  6  5        2 -.730217641567D-03 0.100000000000D+01
-.311384683095D-01 0.000000000000D+00 0.000000000000D+00 0.644145175707D-04 0.000000000000D+00  6 2 2 25 2 2 21 2 0.23292036D+00 0.36565801D+00 0.27811798D+06 0.27811798D+06 0.27811798D+06 0.10869938D+01  1  2  5  3  6  5        2 -.334081283774D-01 0.100000000000D+01
0.413928444394D-01 0.000000000000D+00 -.000000000000D+00 0.644145175707D-04 0.000000000000D+00  6 2 2 25 2 2 21 2 0.23292036D+00 0.36565801D+00 0.27811798D+06 0.27811798D+06 0.27811798D+06 0.10869938D+01  1  2  6  3  6  5        2 0.444099384464D-01 0.100000000000D+01
  </mgrwgt>
  </event>
  <event>
  5     66 0.18204334E-05 0.13386010E+02 0.75467711E-02 0.83785738E-01
        2 -1    0    0  501    0 0.00000000E+00 0.00000000E+00 0.26027915E+03 0.26027935E+03 0.32000000E+00 0.0000E+00 0.9000E+01
        2 -1    0    0  502    0 0.00000000E+00 0.00000000E+00 -.25348326E+04 0.25348326E+04 0.32000000E+00 0.0000E+00 0.9000E+01
       25  1    1    2    0    0 0.62555688E+03 -.38203164E+03 -.16969021E+04 0.18526660E+04 0.12500000E+03 0.0000E+00 0.9000E+01
        2  1    1    2  501    0 -.61369021E+03 0.37580230E+03 -.53212317E+03 0.89498504E+03 0.32000000E+00 0.0000E+00 0.9000E+01
        2  1    1    2  502    0 -.11866665E+02 0.62293433E+01 -.45528155E+02 0.47460908E+02 0.32000000E+00 0.0000E+00 0.9000E+01
#aMCatNLO 1  0  0  2  5 0.12065333D+02 0.00000000D+00  -5  6  0 0.00000000D+00 0.00000000D+00 0.00000000D+00 0.00000000D+00 0.00000000D+00
  <mgrwgt>
 0.3123481374D-03    3    2    0
 0.812258811116809D+03 0.000000000000000D+00 0.000000000000000D+00 0.812258811116809D+03
 0.812258811116809D+03 0.000000000000000D+00 0.000000000000000D+00 -.812258811116809D+03
 0.811774961037733D+03 0.625557443391532D+03 -.382032994957211D+03 -.325702722047708D+03
 0.794864912703405D+03 -.613705127506736D+03 0.375811430233539D+03 0.337552980767101D+03
 0.178777484924800D+02 -.118523158847955D+02 0.622156472367215D+01 -.118502587193938D+02
 0.000000000000000D+00 0.000000000000000D+00 0.000000000000000D+00 0.000000000000000D+00
 0.409499789578795D+04 0.000000000000000D+00 0.000000000000000D+00 0.409499789578795D+04
 0.108274959386380D+04 0.000000000000000D+00 0.000000000000000D+00 -.108274959386380D+04
 0.733040123547651D+03 0.206541950343423D+03 -.610721689748942D+03 -.325702722047708D+03
 0.120774052948329D+04 -.115689163255300D+04 0.793531490280514D+02 0.337552980767101D+03
 0.267242107943222D+02 -.239501469766553D+02 -.381143882834200D+00 -.118502587193938D+02
 0.321024262582649D+04 0.974299829186231D+03 0.531749684603725D+03 0.301224830192415D+04
0.465258316244D-04 0.000000000000D+00 0.000000000000D+00 0.473139681956D-08 0.000000000000D+00  6 2 2 25 2 2 21 0 0.40042963D-01 0.38997426D+00 0.54507700D+06 0.54507700D+06 0.54507700D+06 0.10658710D+01  1  2  2  2  6  2        2 0.319845953060D-03 0.100000000000D+01
0.255961458016D-04 0.000000000000D+00 -.178671443971D-06 0.473139681956D-08 0.000000000000D+00  6 2 2 25 2 2 21 2 0.40042963D-01 0.38997426D+00 0.54507700D+06 0.54507700D+06 0.54507700D+06 0.10658710D+01  1  2  3  2  6  2        2 0.199908188343D-03 0.100000000000D+01
-.265561624175D-04 0.000000000000D+00 0.000000000000D+00 0.473139681956D-08 0.000000000000D+00  6 2 2 25 2 2 21 2 0.40042963D-01 0.38997426D+00 0.54507700D+06 0.54507700D+06 0.54507700D+06 0.10658710D+01  1  2 15  2  6  2        2 -.207406003989D-03 0.100000000000D+01
  </mgrwgt>
  </event>
  <event>
  5     66 0.18204334E-05 0.46415687E+02 0.75467711E-02 0.82458210E-01
        2 -1    0    0  501    0 0.00000000E+00 0.00000000E+00 0.78913689E+03 0.78913695E+03 0.32000000E+00 0.0000E+00 0.9000E+01
        2 -1    0    0  502    0 0.00000000E+00 0.00000000E+00 -.20277092E+04 0.20277092E+04 0.32000000E+00 0.0000E+00 0.9000E+01
       25  1    1    2    0    0 -.12144022E+03 0.46694510E+03 0.94936202E+02 0.50736903E+03 0.12500000E+03 0.0000E+00 0.9000E+01
        2  1    1    2  501    0 -.46203498E+02 0.45166877E+01 0.45240924E+03 0.45478499E+03 0.32000000E+00 0.0000E+00 0.9000E+01
        2  1    1    2  502    0 0.16764371E+03 -.47146179E+03 -.17859177E+04 0.18546921E+04 0.32000000E+00 0.0000E+00 0.9000E+01
#aMCatNLO 1  0  0  1  2 0.10544526D+03 0.00000000D+00  -5  6  0 0.00000000D+00 0.00000000D+00 0.00000000D+00 0.00000000D+00 0.00000000D+00
  <mgrwgt>
 0.1680020122D-01    3    2    0
 0.126496649993565D+04 0.000000000000000D+00 0.000000000000000D+00 0.126496649993565D+04
 0.126496649993565D+04 0.000000000000000D+00 0.000000000000000D+00 -.126496649993565D+04
 0.611499912195017D+03 -.121466798499226D+03 0.467001844387893D+03 0.354206488951244D+03
 0.727719387583054D+03 -.461954823537722D+02 0.451590411919646D+01 0.726237627147164D+03
 0.119071370009322D+04 0.167662280852998D+03 -.471517748507090D+03 -.108044411609841D+04
 0.000000000000000D+00 0.000000000000000D+00 -.000000000000000D+00 -.000000000000000D+00
 0.219429950714639D+04 0.000000000000000D+00 0.000000000000000D+00 0.219429950714639D+04
 0.262085875286994D+04 0.000000000000000D+00 0.000000000000000D+00 -.262085875286994D+04
 0.106396209426109D+04 -.239216966637109D+03 0.966283262859404D+03 0.354206488951244D+03
 0.888400609797805D+03 -.159775140196987D+03 0.486113625585421D+03 0.726237627147164D+03
 0.110094890844762D+04 0.660601313031222D+01 0.211389147287308D+03 -.108044411609841D+04
 0.176184664750982D+04 0.392386093703784D+03 -.166378603573213D+04 -.426559245723548D+03
0.692742242432D-02 0.000000000000D+00 0.000000000000D+00 0.257700944292D-04 0.000000000000D+00  6 2 2 25 2 2 21 0 0.12140568D+00 0.31195527D+00 0.27317488D+06 0.27317488D+06 0.27317488D+06 0.10875745D+01  1  2  2  1  6  1        2 0.268096955930D-01 0.100000000000D+01
0.284691387698D-02 0.000000000000D+00 -.266031261416D-04 0.257700944292D-04 0.000000000000D+00  6 2 2 25 2 2 21 2 0.12140568D+00 0.31195527D+00 0.27317488D+06 0.27317488D+06 0.27317488D+06 0.10875745D+01  1  2  3  1  6  1        2 0.130320445790D-01 0.100000000000D+01
-.503353687867D-02 0.000000000000D+00 0.000000000000D+00 0.257700944292D-04 0.000000000000D+00  6 2 2 25 2 2 21 2 0.12140568D+00 0.31195527D+00 0.27317488D+06 0.27317488D+06 0.27317488D+06 0.10875745D+01  1  2 15  1  6  1        2 -.230415389532D-01 0.100000000000D+01
  </mgrwgt>
  </event>
  <event>
  5     66 0.18204334E-05 0.19613572E+03 0.75467711E-02 0.91928161E-01
        2 -1    0    0  501    0 0.00000000E+00 0.00000000E+00 0.11195148E+04 0.11195148E+04 0.32000000E+00 0.0000E+00 0.9000E+01
        2 -1    0    0  502    0 -.00000000E+00 -.00000000E+00 -.19328933E+04 0.19328934E+04 0.32000000E+00 0.0000E+00 0.9000E+01
       25  1    1    2    0    0 -.29057320E+03 0.38702153E+03 -.16360022E+03 0.52593582E+03 0.12500000E+03 0.0000E+00 0.9000E+01
        2  1    1    2  501    0 0.45849338E+02 -.50219426E+03 0.85767816E+03 0.99494380E+03 0.32000000E+00 0.0000E+00 0.9000E+01
        2  1    1    2  502    0 0.24472387E+03 0.11517272E+03 -.15074565E+04 0.15315286E+04 0.32000000E+00 0.0000E+00 0.9000E+01
#aMCatNLO 1  0  0  5  2 0.26895506D+02 0.00000000D+00  -5  6  0 0.00000000D+00 0.00000000D+00 0.00000000D+00 0.00000000D+00 0.00000000D+00
  <mgrwgt>
 0.1062036869D-02    8    2    0
 0.147102098855131D+04 0.000000000000000D+00 0.000000000000000D+00 0.147102098855131D+04
 0.147102098855131D+04 -.000000000000000D+00 -.000000000000000D+00 -.147102098855131D+04
 0.500428959773993D+03 -.290592070244065D+03 0.387003039919861D+03 -.242701377115056D+02
 0.126935598653018D+04 0.458481971750587D+02 -.502181764502993D+03 0.116489314478044D+04
 0.117225703079845D+04 0.244743873069006D+03 0.115178724583132D+03 -.114062300706893D+04
 0.000000000000000D+00 0.000000000000000D+00 0.000000000000000D+00 0.000000000000000D+00
 0.147102098855131D+04 0.000000000000000D+00 0.000000000000000D+00 0.147102098855131D+04
 0.147102098855131D+04 -.000000000000000D+00 -.000000000000000D+00 -.147102098855131D+04
 0.500429652020511D+03 -.290527723345635D+03 0.387033322163903D+03 -.245700249032197D+02
 0.126863366053368D+04 0.460113688359845D+02 -.502104974413999D+03 0.116413268713049D+04
 0.917002454907115D+03 0.182975997719794D+03 0.648798616554016D+02 -.896216430398203D+03
 0.255976209641306D+03 0.615403567898554D+02 0.501917905946945D+02 -.243346231829066D+03
0.540416633837D-05 0.000000000000D+00 0.000000000000D+00 0.703081813719D-06 0.000000000000D+00  6 2 2 25 2 2 21 0 0.17223305D+00 0.29736821D+00 0.40615258D+06 0.40615258D+06 0.40615258D+06 0.10749501D+01  1  2  2  3  6  5        2 0.141026909218D-04 0.100000000000D+01
0.512634542961D-06 0.000000000000D+00 -.207534216890D-07 0.703081813719D-06 0.000000000000D+00  6 2 2 25 2 2 21 2 0.17223305D+00 0.29736821D+00 0.40615258D+06 0.40615258D+06 0.40615258D+06 0.10749501D+01  1  2  3  3  6  5        2 0.154581571850D-05 0.100000000000D+01
-.391534246726D-05 0.000000000000D+00 0.000000000000D+00 0.703081813719D-06 0.000000000000D+00  6 2 2 25 2 2 21 2 0.17223305D+00 0.29736821D+00 0.40615258D+06 0.40615258D+06 0.40615258D+06 0.10749501D+01  1  2 15  3  6  5        2 -.118064574702D-04 0.100000000000D+01
0.544719171501D-03 0.000000000000D+00 0.000000000000D+00 0.703081813719D-06 0.000000000000D+00  6 2 2 25 2 2 21 2 0.17223305D+00 0.29736821D+00 0.40805651D+06 0.40805651D+06 0.40805651D+06 0.10748039D+01  1  2 12  3  6  5        2 0.164157793407D-02 0.100000000000D+01
0.196598218661D-09 0.000000000000D+00 0.000000000000D+00 0.703081813719D-06 0.000000000000D+00  6 2 2 25 2 2 21 2 0.17223305D+00 0.29736821D+00 0.40805651D+06 0.40805651D+06 0.40805651D+06 0.10748039D+01  1  2 12  3  6  5        2 0.592472808956D-09 0.100000000000D+01
-.340971910805D-03 0.000000000000D+00 0.000000000000D+00 0.703081813719D-06 0.000000000000D+00  6 2 2 25 2 2 21 2 0.17223305D+00 0.29736821D+00 0.40615258D+06 0.40615258D+06 0.40615258D+06 0.10749501D+01  1  2  4  3  6  5        2 -.102817835147D-02 0.100000000000D+01
-.610798142980D-03 0.000000000000D+00 0.000000000000D+00 0.703081813719D-06 0.000000000000D+00  6 2 2 25 2 2 21 2 0.17223305D+00 0.29736821D+00 0.40615258D+06 0.40615258D+06 0.40615258D+06 0.10749501D+01  1  2  5  3  6  5        2 -.184182159243D-02 0.100000000000D+01
0.758304146874D-03 0.000000000000D+00 -.000000000000D+00 0.703081813719D-06 0.000000000000D+00  6 2 2 25 2 2 21 2 0.17223305D+00 0.29736821D+00 0.40615258D+06 0.40615258D+06 0.40615258D+06 0.10749501D+01  1  2  6  3  6  5        2 0.228661623712D-02 0.100000000000D+01
  </mgrwgt>
  </event>
  <event>
  5     66 0.18204334E-05 0.11469136E+03 0.75467711E-02 0.93555211E-01
        2 -1    0    0  501    0 0.00000000E+00 0.00000000E+00 0.54382869E+03 0.54382879E+03 0.32000000E+00 0.0000E+00 0.9000E+01
        2 -1    0    0  502    0 -.00000000E+00 -.00000000E+00 -.18174377E+04 0.18174378E+04 0.32000000E+00 0.0000E+00 0.9000E+01
       25  1    1    2    0    0 0.46093798E+03 0.22913608E+03 -.45084762E+03 0.69559740E+03 0.12500000E+03 0.0000E+00 0.9000E+01
        2  1    1    2  501    0 -.43755525E+03 -.11686733E+03 0.29600097E+03 0.54104458E+03 0.32000000E+00 0.0000E+00 0.9000E+01
        2  1    1    2  502    0 -.23382733E+02 -.11226875E+03 -.11187624E+04 0.11246246E+04 0.32000000E+00 0.0000E+00 0.9000E+01
#aMCatNLO 1  0  0  5  2 0.16904965D+02 0.00000000D+00  -5  6  0 0.00000000D+00 0.00000000D+00 0.00000000D+00 0.00000000D+00 0.00000000D+00
  <mgrwgt>
 0.9495316551D-02    8    2    0
 0.994170474190042D+03 0.000000000000000D+00 0.000000000000000D+00 0.994170474190042D+03
 0.994170474190042D+03 -.000000000000000D+00 -.000000000000000D+00 -.994170474190042D+03
 0.537253300942822D+03 0.460924191151366D+03 0.229144152080375D+03 -.897661236368305D+02
 0.832086659456358D+03 -.437537295424744D+03 -.116862535074904D+03 0.698049046882458D+03
 0.619000987980906D+03 -.233868957266229D+02 -.112281617005471D+03 -.608282923245627D+03
 0.000000000000000D+00 0.000000000000000D+00 -.000000000000000D+00 0.000000000000000D+00
 0.994170474190042D+03 0.000000000000000D+00 0.000000000000000D+00 0.994170474190042D+03
 0.994170474190042D+03 -.000000000000000D+00 -.000000000000000D+00 -.994170474190042D+03
 0.537268416083561D+03 0.460913744818688D+03 0.229093998732164D+03 -.900378281782661D+02
 0.831753167451367D+03 -.437553471016247D+03 -.116940194871708D+03 0.697628326826243D+03
 0.406006852338844D+03 -.261479980365359D+02 -.607429522488237D+02 -.400584747708739D+03
 0.213312512506313D+03 0.278772423409496D+01 -.514108516116328D+02 -.207005750939237D+03
0.185367212965D-04 0.000000000000D+00 0.000000000000D+00 0.160478221728D-05 0.000000000000D+00  6 2 2 25 2 2 21 0 0.83665962D-01 0.27960581D+00 0.30099890D+06 0.30099890D+06 0.30099890D+06 0.10844451D+01  1  2  2  3  6  5        2 0.145520249926D-03 0.100000000000D+01
0.352550689517D-05 0.000000000000D+00 -.711858906094D-07 0.160478221728D-05 0.000000000000D+00  6 2 2 25 2 2 21 2 0.83665962D-01 0.27960581D+00 0.30099890D+06 0.30099890D+06 0.30099890D+06 0.10844451D+01  1  2  3  3  6  5        2 0.325482168739D-04 0.100000000000D+01
-.133409657911D-04 0.000000000000D+00 0.000000000000D+00 0.160478221728D-05 0.000000000000D+00  6 2 2 25 2 2 21 2 0.83665962D-01 0.27960581D+00 0.30099890D+06 0.30099890D+06 0.30099890D+06 0.10844451D+01  1  2 15  3  6  5        2 -.123166585909D-03 0.100000000000D+01
0.132460791588D-02 0.000000000000D+00 0.000000000000D+00 0.160478221728D-05 0.000000000000D+00  6 2 2 25 2 2 21 2 0.83665962D-01 0.27960581D+00 0.30260952D+06 0.30260952D+06 0.30260952D+06 0.10842737D+01  1  2 12  3  6  5        2 0.122217646047D-01 0.100000000000D+01
0.128459013604D-08 0.000000000000D+00 0.000000000000D+00 0.160478221728D-05 0.000000000000D+00  6 2 2 25 2 2 21 2 0.83665962D-01 0.27960581D+00 0.30260952D+06 0.30260952D+06 0.30260952D+06 0.10842737D+01  1  2 12  3  6  5        2 0.118525324120D-07 0.100000000000D+01
-.882979530629D-03 0.000000000000D+00 0.000000000000D+00 0.160478221728D-05 0.000000000000D+00  6 2 2 25 2 2 21 2 0.83665962D-01 0.27960581D+00 0.30099890D+06 0.30099890D+06 0.30099890D+06 0.10844451D+01  1  2  4  3  6  5        2 -.815185166637D-02 0.100000000000D+01
-.145773431530D-02 0.000000000000D+00 0.000000000000D+00 0.160478221728D-05 0.000000000000D+00  6 2 2 25 2 2 21 2 0.83665962D-01 0.27960581D+00 0.30099890D+06 0.30099890D+06 0.30099890D+06 0.10844451D+01  1  2  5  3  6  5        2 -.134581080253D-01 0.100000000000D+01
0.203944664606D-02 0.000000000000D+00 -.000000000000D+00 0.160478221728D-05 0.000000000000D+00  6 2 2 25 2 2 21 2 0.83665962D-01 0.27960581D+00 0.30099890D+06 0.30099890D+06 0.30099890D+06 0.10844451D+01  1  2  6  3  6  5        2 0.188285979045D-01 0.100000000000D+01
  </mgrwgt>
  </event>
  <event>
  5     66 0.18204334E-05 0.14681734E+02 0.75467711E-02 0.82004373E-01
        2 -1    0    0  501    0 0.00000000E+00 0.00000000E+00 0.23089568E+04 0.23089569E+04 0.32000000E+00 0.0000E+00 0.9000E+01
        2 -1    0    0  502    0 0.00000000E+00 0.00000000E+00 -.27008303E+04 0.27008303E+04 0.32000000E+00 0.0000E+00 0.9000E+01
       25  1    1    2    0    0 0.87106905E+03 -.54787463E+03 0.33615835E+03 0.10897501E+04 0.12500000E+03 0.0000E+00 0.9000E+01
        2  1    1    2  501    0 0.11084135E+02 0.96293685E+01 0.14810885E+04 0.14811613E+04 0.32000000E+00 0.0000E+00 0.9000E+01
        2  1    1    2  502    0 -.88215319E+03 0.53824527E+03 -.22091203E+04 0.24388757E+04 0.32000000E+00 0.0000E+00 0.9000E+01
#aMCatNLO 1  0  0  2  5 0.11656031D+03 0.00000000D+00  -5  6  0 0.00000000D+00 0.00000000D+00 0.00000000D+00 0.00000000D+00 0.00000000D+00
  <mgrwgt>
 0.1065020341D-01    4    2    0
 0.249721858401304D+04 0.000000000000000D+00 0.000000000000000D+00 0.249721858401304D+04
 0.249721858401304D+04 0.000000000000000D+00 0.000000000000000D+00 -.249721858401304D+04
 0.111956915016247D+04 0.871123736660840D+03 -.547907173561191D+03 0.422789837368121D+03
 0.160181321151192D+04 0.110833774493241D+02 0.962871068259740D+01 0.160174592593490D+04
 0.227305480635168D+04 -.882207114110164D+03 0.538278462878594D+03 -.202453576330302D+04
 0.000000000000000D+00 0.000000000000000D+00 -.000000000000000D+00 0.000000000000000D+00
 0.304229859051339D+04 0.000000000000000D+00 0.000000000000000D+00 0.304229859051339D+04
 0.303135346407069D+04 0.000000000000000D+00 0.000000000000000D+00 -.303135346407069D+04
 0.963311620620696D+03 0.772197390061273D+03 -.370545844159217D+03 0.422789837368121D+03
 0.163315382336190D+04 -.142561264442382D+03 0.285092415530690D+03 0.160174592593490D+04
 0.249384361175695D+04 -.110861078143935D+04 0.944189090322726D+03 -.202453576330302D+04
 0.983342998844525D+03 0.478974655820455D+03 -.858735661694199D+03 0.109451264427027D+02
0.326354321034D-01 0.000000000000D+00 0.000000000000D+00 0.428550884894D-04 0.000000000000D+00  6 2 2 25 2 2 21 0 0.35522413D+00 0.41551235D+00 0.10866063D+07 0.10866063D+07 0.10866063D+07 0.10454712D+01  1  2  2  2  6  2        2 0.604587570069D-02 0.100000000000D+01
0.435893881835D-01 0.000000000000D+00 -.125328652384D-03 0.428550884894D-04 0.000000000000D+00  6 2 2 25 2 2 21 2 0.35522413D+00 0.41551235D+00 0.10866063D+07 0.10866063D+07 0.10866063D+07 0.10454712D+01  1  2  3  2  6  2        2 0.882621969398D-02 0.100000000000D+01
-.204870407603D-01 0.000000000000D+00 0.000000000000D+00 0.428550884894D-04 0.000000000000D+00  6 2 2 25 2 2 21 2 0.35522413D+00 0.41551235D+00 0.10866063D+07 0.10866063D+07 0.10866063D+07 0.10454712D+01  1  2 15  2  6  2        2 -.414832898935D-02 0.100000000000D+01
-.363300053149D-03 0.000000000000D+00 0.000000000000D+00 0.428550884894D-04 0.000000000000D+00  6 2 2 25 2 2 21 2 0.35522413D+00 0.41551235D+00 0.10866063D+07 0.10866063D+07 0.10866063D+07 0.10454712D+01  1  2  4  2  6  2        2 -.735629981873D-04 0.100000000000D+01
  </mgrwgt>
  </event>
  <event>
  5     66 0.18204334E-05 0.11027893E+03 0.75467711E-02 0.93721437E-01
        2 -1    0    0  501    0 0.00000000E+00 0.00000000E+00 0.13842593E+04 0.13842594E+04 0.32000000E+00 0.0000E+00 0.9000E+01
        2 -1    0    0  502    0 0.00000000E+00 0.00000000E+00 -.11432851E+04 0.11432852E+04 0.32000000E+00 0.0000E+00 0.9000E+01
       25  1    1    2    0    0 0.11254275E+03 -.47355255E+03 -.67564498E+03 0.84204455E+03 0.12500000E+03 0.0000E+00 0.9000E+01
        2  1    1    2  501    0 -.20995850E+03 0.42183803E+03 0.12491968E+04 0.13351114E+04 0.32000000E+00 0.0000E+00 0.9000E+01
        2  1    1    2  502    0 0.97415754E+02 0.51714524E+02 -.33257754E+03 0.35038856E+03 0.32000000E+00 0.0000E+00 0.9000E+01
#aMCatNLO 1  0  0  5  1 0.14098155D+01 0.00000000D+00  -5  6  0 0.00000000D+00 0.00000000D+00 0.00000000D+00 0.00000000D+00 0.00000000D+00
  <mgrwgt>
 0.2413240629D-03    7    2    0
 0.125801558173049D+04 0.000000000000000D+00 0.000000000000000D+00 0.125801558173049D+04
 0.125801558173049D+04 -.000000000000000D+00 -.000000000000000D+00 -.125801558173049D+04
 0.910651867692968D+03 0.112553047596913D+03 -.473545226278528D+03 -.759439631753674D+03
 0.122158539530018D+04 -.209959711528255D+03 0.421840450606495D+03 0.112704854898881D+04
 0.383793900467836D+03 0.974066639313424D+02 0.517047756720330D+02 -.367608917235132D+03
 0.000000000000000D+00 0.000000000000000D+00 0.000000000000000D+00 0.000000000000000D+00
 0.125801558173049D+04 0.000000000000000D+00 0.000000000000000D+00 0.125801558173049D+04
 0.125801558173049D+04 -.000000000000000D+00 -.000000000000000D+00 -.125801558173049D+04
 0.910861789547585D+03 0.112623135502426D+03 -.473508022669600D+03 -.759704140751488D+03
 0.122125919956412D+04 -.209865716152229D+03 0.421890344624373D+03 0.112669381413791D+04
 0.382222777638045D+03 0.960054851514573D+02 0.505821692333957D+02 -.366495078714326D+03
 0.168739671123215D+01 0.123709549834652D+01 0.103550881183149D+01 -.494594672097437D+00
0.559870247376D-04 0.000000000000D+00 0.000000000000D+00 0.111811073209D-05 0.000000000000D+00  6 2 2 25 2 2 21 0 0.21296298D+00 0.17589002D+00 0.29377158D+06 0.29377158D+06 0.29377158D+06 0.10852266D+01  1  2  2  3  6  5        2 0.288942654346D-03 0.100000000000D+01
0.445557545949D-05 0.000000000000D+00 -.215004916714D-06 0.111811073209D-05 0.000000000000D+00  6 2 2 25 2 2 21 2 0.21296298D+00 0.17589002D+00 0.29377158D+06 0.29377158D+06 0.29377158D+06 0.10852266D+01  1  2  3  3  6  5        2 0.270812649970D-04 0.100000000000D+01
-.438005850805D-04 0.000000000000D+00 0.000000000000D+00 0.111811073209D-05 0.000000000000D+00  6 2 2 25 2 2 21 2 0.21296298D+00 0.17589002D+00 0.29377158D+06 0.29377158D+06 0.29377158D+06 0.10852266D+01  1  2 15  3  6  5        2 -.266222682653D-03 0.100000000000D+01
-.552330141067D-03 0.000000000000D+00 0.000000000000D+00 0.111811073209D-05 0.000000000000D+00  6 2 2 25 2 2 21 2 0.21296298D+00 0.17589002D+00 0.29377158D+06 0.29377158D+06 0.29377158D+06 0.10852266D+01  1  2  4  3  6  5        2 -.335709697929D-02 0.100000000000D+01
-.774607134187D-02 0.000000000000D+00 0.000000000000D+00 0.111811073209D-05 0.000000000000D+00  6 2 2 25 2 2 21 2 0.21296298D+00 0.17589002D+00 0.29377158D+06 0.29377158D+06 0.29377158D+06 0.10852266D+01  1  2  5  3  6  5        2 -.470811037995D-01 0.100000000000D+01
0.779710211969D-02 0.000000000000D+00 -.000000000000D+00 0.111811073209D-05 0.000000000000D+00  6 2 2 25 2 2 21 2 0.21296298D+00 0.17589002D+00 0.29377158D+06 0.29377158D+06 0.29377158D+06 0.10852266D+01  1  2  6  3  6  5        2 0.473912720437D-01 0.100000000000D+01
0.532790378386D-03 0.000000000000D+00 0.000000000000D+00 0.111811073209D-05 0.217279153384D-06  6 2 2 25 2 2 21 2 0.21296298D+00 0.17589002D+00 0.29368122D+06 0.29368122D+06 0.29368122D+06 0.10852365D+01  1  2 11  3  6  5        2 0.323845156130D-02 0.100000000000D+01
  </mgrwgt>
  </event>
  <event>
  5     66 0.18204334E-05 0.11882189E+03 0.75467711E-02 0.91975535E-01
        2 -1    0    0  501    0 0.00000000E+00 0.00000000E+00 0.23081301E+04 0.23081302E+04 0.32000000E+00 0.0000E+00 0.9000E+01
        2 -1    0    0  502    0 0.00000000E+00 0.00000000E+00 -.14980477E+04 0.14980477E+04 0.32000000E+00 0.0000E+00 0.9000E+01
       25  1    1    2    0    0 -.46095853E+03 -.15518879E+03 0.36723311E+03 0.62213462E+03 0.12500000E+03 0.0000E+00 0.9000E+01
        2  1    1    2  501    0 0.34950966E+03 0.11401095E+03 0.17921766E+04 0.18294952E+04 0.32000000E+00 0.0000E+00 0.9000E+01
        2  1    1    2  502    0 0.11144887E+03 0.41177835E+02 -.13493272E+04 0.13545481E+04 0.32000000E+00 0.0000E+00 0.9000E+01
#aMCatNLO 1  0  0  5  2 0.18597442D+01 0.00000000D+00  -5  6  0 0.00000000D+00 0.00000000D+00 0.00000000D+00 0.00000000D+00 0.00000000D+00
  <mgrwgt>
 0.5750404104D-02    4    2    0
 0.185948624508485D+04 0.000000000000000D+00 0.000000000000000D+00 0.185948624508485D+04
 0.185948624508485D+04 -.000000000000000D+00 -.000000000000000D+00 -.185948624508485D+04
 0.556760860849094D+03 -.460953902291220D+03 -.155187639288859D+03 0.240407888281295D+03
 0.148195893837662D+04 0.349496440341004D+03 0.114006638320316D+03 0.143563819245735D+04
 0.168025269094399D+04 0.111457461950214D+03 0.411810009685421D+02 -.167604608073865D+04
 0.000000000000000D+00 -.000000000000000D+00 0.000000000000000D+00 0.000000000000000D+00
 0.185948624508485D+04 0.000000000000000D+00 0.000000000000000D+00 0.185948624508485D+04
 0.185948624508485D+04 -.000000000000000D+00 -.000000000000000D+00 -.185948624508485D+04
 0.544274320850538D+03 -.459206968093022D+03 -.154542186775862D+03 0.214138294797225D+03
 0.141635403862293D+04 0.354094987363622D+03 0.115705697011217D+03 0.136648735608003D+04
 0.158634658262549D+04 0.203182476580356D+03 -.102059664282341D+03 -.156996693797825D+04
 0.171997548070744D+03 -.980704958509576D+02 0.140896154046986D+03 -.106587128990061D+02
0.118942084309D-01 0.000000000000D+00 0.000000000000D+00 0.104811359708D-03 0.000000000000D+00  6 2 2 25 2 2 21 0 0.35509695D+00 0.23046888D+00 0.24434481D+06 0.24434481D+06 0.24434481D+06 0.10912074D+01  1  2  2  3  6  5        2 0.121904554858D-01 0.100000000000D+01
0.289947286324D-02 0.000000000000D+00 -.456768921918D-04 0.104811359708D-03 0.000000000000D+00  6 2 2 25 2 2 21 2 0.35509695D+00 0.23046888D+00 0.24434481D+06 0.24434481D+06 0.24434481D+06 0.10912074D+01  1  2  3  3  6  5        2 0.353849084555D-02 0.100000000000D+01
-.791450393288D-02 0.000000000000D+00 0.000000000000D+00 0.104811359708D-03 0.000000000000D+00  6 2 2 25 2 2 21 2 0.35509695D+00 0.23046888D+00 0.24434481D+06 0.24434481D+06 0.24434481D+06 0.10912074D+01  1  2 15  3  6  5        2 -.965879007480D-02 0.100000000000D+01
-.262007937613D-03 0.000000000000D+00 0.000000000000D+00 0.104811359708D-03 0.000000000000D+00  6 2 2 25 2 2 21 2 0.35509695D+00 0.23046888D+00 0.24434481D+06 0.24434481D+06 0.24434481D+06 0.10912074D+01  1  2  4  3  6  5        2 -.319752152352D-03 0.100000000000D+01
  </mgrwgt>
  </event>
  <event>
  5     66 0.18204334E-05 0.61070785E+02 0.75467711E-02 0.89625914E-01
        2 -1    0    0  501    0 0.00000000E+00 0.00000000E+00 0.92541057E+03 0.92541063E+03 0.32000000E+00 0.0000E+00 0.9000E+01
        2 -1    0    0  502    0 -.00000000E+00 -.00000000E+00 -.14527008E+04 0.14527008E+04 0.32000000E+00 0.0000E+00 0.9000E+01
       25  1    1    2    0    0 0.30221954E+02 0.52640994E+03 0.84485512E+01 0.54195680E+03 0.12500000E+03 0.0000E+00 0.9000E+01
        2  1    1    2  501    0 -.58786106E+02 -.47243925E+03 0.56209857E+03 0.73662036E+03 0.32000000E+00 0.0000E+00 0.9000E+01
        2  1    1    2  502    0 0.28564152E+02 -.53970699E+02 -.10978373E+04 0.10995343E+04 0.32000000E+00 0.0000E+00 0.9000E+01
#aMCatNLO 1  0  0  5  2 0.18597442D+01 0.00000000D+00  -5  6  0 0.00000000D+00 0.00000000D+00 0.00000000D+00 0.00000000D+00 0.00000000D+00
  <mgrwgt>
 0.8714606415D-02    3    2    0
 0.115945882847426D+04 0.000000000000000D+00 0.000000000000000D+00 0.115945882847426D+04
 0.115945882847426D+04 -.000000000000000D+00 -.000000000000000D+00 -.115945882847426D+04
 0.557713284231262D+03 0.302145392726072D+02 0.526383166219742D+03 0.132011178863927D+03
 0.883174853712248D+03 -.587819586614081D+02 -.472405918186736D+03 0.743891895390537D+03
 0.878029519005013D+03 0.285674193888009D+02 -.539772480330056D+02 -.875903074254465D+03
 0.000000000000000D+00 0.000000000000000D+00 0.000000000000000D+00 0.000000000000000D+00
 0.115945882847426D+04 0.000000000000000D+00 0.000000000000000D+00 0.115945882847426D+04
 0.115945882847426D+04 -.000000000000000D+00 -.000000000000000D+00 -.115945882847426D+04
 0.535966129229314D+03 0.337963783574153D+02 0.519615392972054D+03 0.221887331200833D+02
 0.755846802219241D+03 -.534141042830520D+02 -.482548311632998D+03 0.579308595507468D+03
 0.298563200623047D+03 -.212644829498286D+03 -.197492215332107D+03 0.701354841513126D+02
 0.728541524876920D+03 0.232262555423922D+03 0.160425133993051D+03 -.671632812778864D+03
0.204590582446D-02 0.000000000000D+00 0.000000000000D+00 0.114759652144D-04 0.000000000000D+00  6 2 2 25 2 2 21 0 0.14237086D+00 0.22349244D+00 0.29105179D+06 0.29105179D+06 0.29105179D+06 0.10855262D+01  1  2  2  3  6  5        2 0.131681249669D-01 0.100000000000D+01
0.837464633397D-03 0.000000000000D+00 -.785681706530D-05 0.114759652144D-04 0.000000000000D+00  6 2 2 25 2 2 21 2 0.14237086D+00 0.22349244D+00 0.29105179D+06 0.29105179D+06 0.29105179D+06 0.10855262D+01  1  2  3  3  6  5        2 0.635163270795D-02 0.100000000000D+01
-.142466235918D-02 0.000000000000D+00 0.000000000000D+00 0.114759652144D-04 0.000000000000D+00  6 2 2 25 2 2 21 2 0.14237086D+00 0.22349244D+00 0.29105179D+06 0.29105179D+06 0.29105179D+06 0.10855262D+01  1  2 15  3  6  5        2 -.108051512595D-01 0.100000000000D+01
  </mgrwgt>
  </event>
  <event>
  5     66 0.18204334E-05 0.37171986E+02 0.75467711E-02 0.87165769E-01
        2 -1    0    0  501    0 0.00000000E+00 0.00000000E+00 0.10477434E+04 0.10477435E+04 0.32000000E+00 0.0000E+00 0.9000E+01
        2 -1    0    0  502    0 0.00000000E+00 0.00000000E+00 -.18221887E+04 0.18221887E+04 0.32000000E+00 0.0000E+00 0.9000E+01
       25  1    1    2    0    0 0.41102356E+03 -.37371011E+03 0.17290834E+03 0.59508143E+03 0.12500000E+03 0.0000E+00 0.9000E+01
        2  1    1    2  501    0 0.35957263E+02 -.94477633E+01 0.60937974E+03 0.61051286E+03 0.32000000E+00 0.0000E+00 0.9000E+01
        2  1    1    2  502    0 -.44698082E+03 0.38315788E+03 -.15567333E+04 0.16643379E+04 0.32000000E+00 0.0000E+00 0.9000E+01
#aMCatNLO 1  0  0  2  5 0.14464184D+02 0.00000000D+00  -5  6  0 0.00000000D+00 0.00000000D+00 0.00000000D+00 0.00000000D+00 0.00000000D+00
  <mgrwgt>
 0.1135142175D-01    7    2    0
 0.138173307264284D+04 0.000000000000000D+00 0.000000000000000D+00 0.138173307264284D+04
 0.138173307264284D+04 0.000000000000000D+00 0.000000000000000D+00 -.138173307264284D+04
 0.666576496012444D+03 0.411076799122767D+03 -.373753129983588D+03 0.346444350634672D+03
 0.804683929822844D+03 0.359516891775639D+02 -.944629890905902D+01 0.803824900334231D+03
 0.129220571945039D+04 -.447028488300331D+03 0.383199428892647D+03 -.115026925096890D+04
 0.000000000000000D+00 0.000000000000000D+00 -.000000000000000D+00 -.000000000000000D+00
 0.150371788227073D+04 0.000000000000000D+00 0.000000000000000D+00 0.150371788227073D+04
 0.238827855356219D+04 0.000000000000000D+00 0.000000000000000D+00 -.238827855356219D+04
 0.584156907189531D+03 0.279227537755428D+03 -.357243035326932D+03 0.346444350634672D+03
 0.815137768914787D+03 -.134805959077918D+03 0.119358833406496D+02 0.803824900334231D+03
 0.142726672679327D+04 -.733708633268167D+03 0.419097364766675D+03 -.115026925096890D+04
 0.106543503293533D+04 0.589287054590658D+03 -.737902127803923D+02 -.884560671291464D+03
0.160954337391D-02 0.000000000000D+00 0.000000000000D+00 0.240397006384D-04 0.000000000000D+00  6 2 2 25 2 2 21 0 0.16119130D+00 0.28033672D+00 0.35726807D+06 0.35726807D+06 0.35726807D+06 0.10789827D+01  1  2  2  2  6  2        2 0.538329569293D-02 0.100000000000D+01
0.878104883277D-03 0.000000000000D+00 -.618107035831D-05 0.240397006384D-04 0.000000000000D+00  6 2 2 25 2 2 21 2 0.16119130D+00 0.28033672D+00 0.35726807D+06 0.35726807D+06 0.35726807D+06 0.10789827D+01  1  2  3  2  6  2        2 0.341917161672D-02 0.100000000000D+01
-.969349630681D-03 0.000000000000D+00 0.000000000000D+00 0.240397006384D-04 0.000000000000D+00  6 2 2 25 2 2 21 2 0.16119130D+00 0.28033672D+00 0.35726807D+06 0.35726807D+06 0.35726807D+06 0.10789827D+01  1  2 15  2  6  2        2 -.377446112306D-02 0.100000000000D+01
-.342359421553D-03 0.000000000000D+00 0.000000000000D+00 0.240397006384D-04 0.000000000000D+00  6 2 2 25 2 2 21 2 0.16119130D+00 0.28033672D+00 0.35726807D+06 0.35726807D+06 0.35726807D+06 0.10789827D+01  1  2  4  2  6  2        2 -.133308177552D-02 0.100000000000D+01
-.206955586575D-02 0.000000000000D+00 -.829993748937D-03 0.240397006384D-04 0.000000000000D+00  6 2 2 25 2 2 21 2 0.16119130D+00 0.49395625D+00 0.35726807D+06 0.35726807D+06 0.35726807D+06 0.10789827D+01  1  2  5  2  6  2        2 -.122359242300D-02 0.100000000000D+01
0.228123931321D-02 0.000000000000D+00 0.712580442235D-03 0.240397006384D-04 0.000000000000D+00  6 2 2 25 2 2 21 2 0.16119130D+00 0.28033672D+00 0.35726807D+06 0.35726807D+06 0.35726807D+06 0.10789827D+01  1  2  6  2  6  2        2 0.888270736129D-02 0.100000000000D+01
-.866024871040D-04 0.000000000000D+00 -.518343437143D-04 0.240397006384D-04 0.000000000000D+00  6 2 21 25 2 2 -2 2 0.16119130D+00 0.49395625D+00 0.35726807D+06 0.35726807D+06 0.35726807D+06 0.10789827D+01  1  2  5  5  6  2        2 -.261759543530D-05 0.100000000000D+01
  </mgrwgt>
  </event>
  <event>
  6     66 0.18204334E-05 0.19839705E+03 0.75467711E-02 0.92644892E-01
        2 -1    0    0  501    0 0.00000000E+00 0.00000000E+00 0.22858374E+04 0.22858375E+04 0.32000000E+00 0.0000E+00 0.9000E+01
        2 -1    0    0  502    0 0.00000000E+00 0.00000000E+00 -.72120510E+03 0.72120517E+03 0.32000000E+00 0.0000E+00 0.9000E+01
       25  1    1    2    0    0 0.37889689E+03 0.35655159E+03 0.50153946E+02 0.53743122E+03 0.12500000E+03 0.0000E+00 0.9000E+01
        2  1    1    2  501    0 -.18201277E+03 -.18392205E+03 0.18966698E+04 0.19142394E+04 0.32000000E+00 0.0000E+00 0.9000E+01
        2  1    1    2  503    0 0.73330139E+02 -.96117888E+02 -.95709086E+02 0.15419562E+03 0.32000000E+00 0.0000E+00 0.9000E+01
       21  1    1    2  502  503 -.27021426E+03 -.76511656E+02 -.28648236E+03 0.40117638E+03 0.75000000E+00 0.0000E+00 0.9000E+01
#aMCatNLO 2  0  0  5  1 0.13332867D+03 0.00000000D+00  -5  6  0 0.00000000D+00 0.00000000D+00 0.00000000D+00 0.00000000D+00 0.00000000D+00
  <mgrwgt>
 0.2159276091D-03    2    2    0
 0.128396174200743D+04 0.000000000000000D+00 0.000000000000000D+00 0.128396174200743D+04
 0.128396174200743D+04 -.000000000000000D+00 -.000000000000000D+00 -.128396174200743D+04
 0.596960030512138D+03 0.381961815436904D+03 0.359238985970783D+03 -.256493275810264D+03
 0.110602001673082D+04 -.176394079726686D+03 -.178995566630122D+03 0.107709145070109D+04
 0.864943436771903D+03 -.205567735710218D+03 -.180243419340661D+03 -.820598174890824D+03
 0.000000000000000D+00 -.000000000000000D+00 0.000000000000000D+00 0.000000000000000D+00
 0.128396174200743D+04 0.000000000000000D+00 0.000000000000000D+00 0.128396174200743D+04
 0.128396174200743D+04 -.000000000000000D+00 -.000000000000000D+00 -.128396174200743D+04
 0.598772237936138D+03 0.378901463970234D+03 0.356555645558285D+03 -.268709778654925D+03
 0.108597175285175D+04 -.182004253010441D+03 -.183914611013541D+03 0.105469640927318D+04
 0.238326820227992D+03 0.732635244371916D+02 -.959220178604832D+02 -.205502057694320D+03
 0.644852672998979D+03 -.270160735396984D+03 -.767190166842608D+02 -.580484572923940D+03
-.513822320149D-10 0.000000000000D+00 0.000000000000D+00 0.337919339214D-05 0.000000000000D+00  6 2 2 25 2 2 21 2 0.35166730D+00 0.11095464D+00 0.35723461D+06 0.35723461D+06 0.35723461D+06 0.10789857D+01  1  2 13  3  6  5        2 -.183036920141D-09 0.100000000000D+01
0.606153769662D-04 0.000000000000D+00 0.000000000000D+00 0.337919339214D-05 0.341006299954D-10  6 2 2 25 2 2 21 2 0.35166730D+00 0.11095464D+00 0.35723461D+06 0.35723461D+06 0.35723461D+06 0.10789857D+01  1  2  1  3  6  5        2 0.215927792118D-03 0.100000000000D+01
  </mgrwgt>
  </event>
  <event>
  5     66 -.18204334E-05 0.18490425E+03 0.75467711E-02 0.91317634E-01
        2 -1    0    0  501    0 0.00000000E+00 0.00000000E+00 0.11497528E+04 0.11497529E+04 0.32000000E+00 0.0000E+00 0.9000E+01
        2 -1    0    0  502    0 -.00000000E+00 -.00000000E+00 -.33685774E+04 0.33685774E+04 0.32000000E+00 0.0000E+00 0.9000E+01
       25  1    1    2    0    0 0.55420334E+03 0.16175915E+03 -.86485741E+03 0.10473350E+04 0.12500000E+03 0.0000E+00 0.9000E+01
        2  1    1    2  501    0 -.91187369E+02 0.16973903E+03 0.10157264E+04 0.10338407E+04 0.32000000E+00 0.0000E+00 0.9000E+01
        2  1    1    2  502    0 -.46301597E+03 -.33149818E+03 -.23696935E+04 0.24371545E+04 0.32000000E+00 0.0000E+00 0.9000E+01
#aMCatNLO 1  0  0  5  2 0.31425495D+02 0.00000000D+00  -5  6  0 0.00000000D+00 0.00000000D+00 0.00000000D+00 0.00000000D+00 0.00000000D+00
  <mgrwgt>
 -.8680580800D-02    8    2    0
 0.196800190883511D+04 0.000000000000000D+00 0.000000000000000D+00 0.196800190883511D+04
 0.196800190883511D+04 -.000000000000000D+00 -.000000000000000D+00 -.196800190883511D+04
 0.714759080668099D+03 0.554231634314580D+03 0.161778057597661D+03 -.402381285601634D+03
 0.175936203840129D+04 -.911860985928103D+02 0.169736663259924D+03 0.174877938652546D+04
 0.146188269860082D+04 -.463045535721770D+03 -.331514720857584D+03 -.134639810092382D+04
 0.000000000000000D+00 0.000000000000000D+00 0.000000000000000D+00 -.000000000000000D+00
 0.196800190883511D+04 0.000000000000000D+00 0.000000000000000D+00 0.196800190883511D+04
 0.196800190883511D+04 -.000000000000000D+00 -.000000000000000D+00 -.196800190883511D+04
 0.714856442224175D+03 0.554092623125548D+03 0.161678533356581D+03 -.402785488615119D+03
 0.175836758647654D+04 -.915281512426422D+02 0.169491772682260D+03 0.174778479959476D+04
 0.121608204206871D+04 -.400287219618800D+03 -.300698450510210D+03 -.110824461050465D+04
 0.246697746900785D+03 -.622772522641062D+02 -.304718555286313D+02 -.236754700474983D+03
0.150391754927D-03 0.000000000000D+00 0.000000000000D+00 0.417066164211D-05 0.000000000000D+00  6 2 2 25 2 2 21 0 0.17688506D+00 0.51824268D+00 0.45758551D+06 0.45758551D+06 0.45758551D+06 0.10712419D+01  1  2  2  3  6  5        2 0.506118959853D-04 0.100000000000D+01
0.271316853362D-04 0.000000000000D+00 -.577543937980D-06 0.417066164211D-05 0.000000000000D+00  6 2 2 25 2 2 21 2 0.17688506D+00 0.51824268D+00 0.45758551D+06 0.45758551D+06 0.45758551D+06 0.10712419D+01  1  2  3  3  6  5        2 0.104780494989D-04 0.100000000000D+01
-.106112913438D-03 0.000000000000D+00 0.000000000000D+00 0.417066164211D-05 0.000000000000D+00  6 2 2 25 2 2 21 2 0.17688506D+00 0.51824268D+00 0.45758551D+06 0.45758551D+06 0.45758551D+06 0.10712419D+01  1  2 15  3  6  5        2 -.409799961079D-04 0.100000000000D+01
0.169603787622D-01 0.000000000000D+00 0.000000000000D+00 0.417066164211D-05 0.000000000000D+00  6 2 2 25 2 2 21 2 0.17688506D+00 0.51824268D+00 0.45777857D+06 0.45777857D+06 0.45777857D+06 0.10712288D+01  1  2 12  3  6  5        2 0.654953860908D-02 0.100000000000D+01
0.303866394882D-09 0.000000000000D+00 0.000000000000D+00 0.417066164211D-05 0.000000000000D+00  6 2 2 25 2 2 21 2 0.17688506D+00 0.51824268D+00 0.45777857D+06 0.45777857D+06 0.45777857D+06 0.10712288D+01  1  2 12  3  6  5        2 0.117343174535D-09 0.100000000000D+01
-.427310707760D-01 0.000000000000D+00 0.000000000000D+00 0.417066164211D-05 0.000000000000D+00  6 2 2 25 2 2 21 2 0.17688506D+00 0.51824268D+00 0.45758551D+06 0.45758551D+06 0.45758551D+06 0.10712419D+01  1  2  4  3  6  5        2 -.165024129237D-01 0.100000000000D+01
-.177419325394D-01 0.000000000000D+00 0.000000000000D+00 0.417066164211D-05 0.000000000000D+00  6 2 2 25 2 2 21 2 0.17688506D+00 0.51824268D+00 0.45758551D+06 0.45758551D+06 0.45758551D+06 0.10712419D+01  1  2  5  3  6  5        2 -.685179873826D-02 0.100000000000D+01
0.209843153218D-01 0.000000000000D+00 -.000000000000D+00 0.417066164211D-05 0.000000000000D+00  6 2 2 25 2 2 21 2 0.17688506D+00 0.51824268D+00 0.45758551D+06 0.45758551D+06 0.45758551D+06 0.10712419D+01  1  2  6  3  6  5        2 0.810398218607D-02 0.100000000000D+01
  </mgrwgt>
  </event>
  <event>
  5     66 0.18204334E-05 0.39940544E+02 0.75467711E-02 0.90851450E-01
        2 -1    0    0  501    0 0.00000000E+00 0.00000000E+00 0.12265699E+04 0.12265700E+04 0.32000000E+00 0.0000E+00 0.9000E+01
        2 -1    0    0  502    0 -.00000000E+00 -.00000000E+00 -.24923228E+04 0.24923229E+04 0.32000000E+00 0.0000E+00 0.9000E+01
       25  1    1    2    0    0 0.57420189E+03 -.11329906E+03 -.33175477E+03 0.68427386E+03 0.12500000E+03 0.0000E+00 0.9000E+01
        2  1    1    2  501    0 0.35096706E+02 0.19067696E+02 0.10020116E+04 0.10028074E+04 0.32000000E+00 0.0000E+00 0.9000E+01
        2  1    1    2  502    0 -.60929860E+03 0.94231363E+02 -.19360097E+04 0.20318115E+04 0.32000000E+00 0.0000E+00 0.9000E+01
#aMCatNLO 1  0  0  5  5 0.30018609D+03 0.00000000D+00  -5  6  0 0.00000000D+00 0.00000000D+00 0.00000000D+00 0.00000000D+00 0.00000000D+00
  <mgrwgt>
 0.1073209893D-01    6    2    0
 0.174843024982276D+04 0.000000000000000D+00 0.000000000000000D+00 0.174843024982276D+04
 0.174843024982276D+04 -.000000000000000D+00 -.000000000000000D+00 -.174843024982276D+04
 0.607676861394731D+03 0.574249437529188D+03 -.113306156888952D+03 -.105097412827426D+03
 0.142912819871070D+04 0.350955100271155D+02 0.190670466015793D+02 0.142856997072595D+04
 0.146005543954009D+04 -.609344947556304D+03 0.942391102873725D+02 -.132347255789852D+04
 0.000000000000000D+00 0.000000000000000D+00 0.000000000000000D+00 -.000000000000000D+00
 0.174843024982276D+04 0.000000000000000D+00 0.000000000000000D+00 0.174843024982276D+04
 0.174843024982276D+04 -.000000000000000D+00 -.000000000000000D+00 -.174843024982276D+04
 0.602376717828562D+03 0.564708955749678D+03 -.111830660098145D+03 -.125818953023909D+03
 0.138069706753739D+04 0.129418738439529D+02 0.224932487419335D+02 0.138045316978476D+04
 0.896695121741001D+03 -.517178519273305D+03 0.287997543108338D+03 -.673532431082528D+03
 0.617091592538569D+03 -.604723103203261D+02 -.198660131752127D+03 -.581101785678324D+03
0.735554727452D-02 0.000000000000D+00 0.000000000000D+00 0.571748654992D-04 0.000000000000D+00  6 2 2 25 2 2 21 0 0.18870307D+00 0.38343429D+00 0.39378723D+06 0.39378723D+06 0.39378723D+06 0.10759181D+01  1  2  2  3  6  5        2 0.806591766641D-02 0.100000000000D+01
0.487747953861D-02 0.000000000000D+00 -.282472382942D-04 0.571748654992D-04 0.000000000000D+00  6 2 2 25 2 2 21 2 0.18870307D+00 0.38343429D+00 0.39378723D+06 0.39378723D+06 0.39378723D+06 0.10759181D+01  1  2  3  3  6  5        2 0.619145383563D-02 0.100000000000D+01
-.514136331848D-02 0.000000000000D+00 0.000000000000D+00 0.571748654992D-04 0.000000000000D+00  6 2 2 25 2 2 21 2 0.18870307D+00 0.38343429D+00 0.39378723D+06 0.39378723D+06 0.39378723D+06 0.10759181D+01  1  2 15  3  6  5        2 -.652642689458D-02 0.100000000000D+01
-.237042762381D-02 0.000000000000D+00 0.000000000000D+00 0.571748654992D-04 0.000000000000D+00  6 2 2 25 2 2 21 2 0.18870307D+00 0.38343429D+00 0.39378723D+06 0.39378723D+06 0.39378723D+06 0.10759181D+01  1  2  4  3  6  5        2 -.300901174210D-02 0.100000000000D+01
-.946933822974D-02 0.000000000000D+00 0.000000000000D+00 0.571748654992D-04 0.000000000000D+00  6 2 2 25 2 2 21 2 0.18870307D+00 0.38343429D+00 0.39378723D+06 0.39378723D+06 0.39378723D+06 0.10759181D+01  1  2  5  3  6  5        2 -.120203416620D-01 0.100000000000D+01
0.142040035874D-01 0.000000000000D+00 -.000000000000D+00 0.571748654992D-04 0.000000000000D+00  6 2 2 25 2 2 21 2 0.18870307D+00 0.38343429D+00 0.39378723D+06 0.39378723D+06 0.39378723D+06 0.10759181D+01  1  2  6  3  6  5        2 0.180305077236D-01 0.100000000000D+01
  </mgrwgt>
  </event>
  <event>
  6     66 0.18204334E-05 0.49661406E+02 0.75467711E-02 0.93281263E-01
        2 -1    0    0  501    0 0.00000000E+00 0.00000000E+00 0.91949294E+03 0.91949300E+03 0.32000000E+00 0.0000E+00 0.9000E+01
        2 -1    0    0  502    0 0.00000000E+00 0.00000000E+00 -.81102732E+03 0.81102738E+03 0.32000000E+00 0.0000E+00 0.9000E+01
       25  1    1    2    0    0 0.54668693E+03 -.25507714E+02 0.15673313E+03 0.58284433E+03 0.12500000E+03 0.0000E+00 0.9000E+01
        2  1    1    2  501    0 0.18402348E+01 0.89749373E+01 0.41335497E+03 0.41345661E+03 0.32000000E+00 0.0000E+00 0.9000E+01
        2  1    1    2  503    0 -.49540993E+03 0.43942744E+02 -.35186067E+03 0.60923558E+03 0.32000000E+00 0.0000E+00 0.9000E+01
       21  1    1    2  502  503 -.53117235E+02 -.27409967E+02 -.10976181E+03 0.12498386E+03 0.75000000E+00 0.0000E+00 0.9000E+01
#aMCatNLO 2  0  0  5  2 0.18317277D+02 0.00000000D+00  -5  6  0 0.00000000D+00 0.00000000D+00 0.00000000D+00 0.00000000D+00 0.00000000D+00
  <mgrwgt>
 0.1751014999D-01    1    2    0
 0.863558916003190D+03 0.000000000000000D+00 0.000000000000000D+00 0.863558916003190D+03
 0.863558916003190D+03 -.000000000000000D+00 -.000000000000000D+00 -.863558916003190D+03
 0.578891547832185D+03 0.550806001102956D+03 -.256298245906269D+02 0.124283085703435D+03
 0.390720755887443D+03 0.456510861368611D+01 0.888959821124411D+01 0.390592938886819D+03
 0.757505528286753D+03 -.555371109716642D+03 0.167402263793827D+02 -.514876024590255D+03
 0.000000000000000D+00 0.000000000000000D+00 0.000000000000000D+00 -.000000000000000D+00
 0.863558916003190D+03 0.000000000000000D+00 0.000000000000000D+00 0.863558916003190D+03
 0.863558916003190D+03 -.000000000000000D+00 -.000000000000000D+00 -.863558916003190D+03
 0.574247658521338D+03 0.546767763916782D+03 -.255081023701378D+02 0.120539298040748D+03
 0.388172227595342D+03 0.183746342339163D+01 0.897181602410704D+01 0.388064180931102D+03
 0.632473007635291D+03 -.495428998245289D+03 0.439648272658096D+02 -.390690807478737D+03
 0.132224938254410D+03 -.531762290948849D+02 -.274285409197789D+02 -.117912671493113D+03
0.949732926529D-03 0.000000000000D+00 0.000000000000D+00 0.326134982154D-05 0.115434216552D-07  6 2 2 25 2 2 21 2 0.14146046D+00 0.12477344D+00 0.31799528D+06 0.31799528D+06 0.31799528D+06 0.10826851D+01  1  2  1  3  6  5        2 0.175101499897D-01 0.100000000000D+01
  </mgrwgt>
  </event>
  <event>
  5     66 -.18204334E-05 0.46168689E+02 0.75467711E-02 0.94644985E-01
        2 -1    0    0  501    0 0.00000000E+00 0.00000000E+00 0.86717263E+03 0.86717269E+03 0.32000000E+00 0.0000E+00 0.9000E+01
        2 -1    0    0  502    0 0.00000000E+00 0.00000000E+00 -.18092261E+04 0.18092261E+04 0.32000000E+00 0.0000E+00 0.9000E+01
       25  1    1    2    0    0 -.15024707E+03 0.44761016E+03 -.62737943E+02 0.49243283E+03 0.12500000E+03 0.0000E+00 0.9000E+01
        2  1    1    2  501    0 -.25842115E+02 -.38263678E+02 0.61903554E+03 0.62075520E+03 0.32000000E+00 0.0000E+00 0.9000E+01
        2  1    1    2  502    0 0.17608919E+03 -.40934649E+03 -.14983510E+04 0.15632108E+04 0.32000000E+00 0.0000E+00 0.9000E+01
#aMCatNLO 1  0  0  2  5 0.35246458D+02 0.00000000D+00  -5  6  0 0.00000000D+00 0.00000000D+00 0.00000000D+00 0.00000000D+00 0.00000000D+00
  <mgrwgt>
 -.1841635914D-01   11    2    0
 0.125256195594350D+04 0.000000000000000D+00 0.000000000000000D+00 0.125256195594350D+04
 0.125256195594350D+04 0.000000000000000D+00 0.000000000000000D+00 -.125256195594350D+04
 0.502570660700507D+03 -.150268554920174D+03 0.447654001923066D+03 0.118226583141907D+03
 0.895905739947189D+03 -.258398350102998D+02 -.382603025618381D+02 0.894715344142949D+03
 0.110664751123930D+04 0.176108389930474D+03 -.409393699361228D+03 -.101294192728486D+04
 0.000000000000000D+00 0.000000000000000D+00 -.000000000000000D+00 -.000000000000000D+00
 0.125359087009259D+04 0.000000000000000D+00 0.000000000000000D+00 0.125359087009259D+04
 0.159588782607462D+04 0.000000000000000D+00 0.000000000000000D+00 -.159588782607462D+04
 0.508994934706976D+03 -.150540334286957D+03 0.454764693384083D+03 0.118226583141907D+03
 0.895470376897560D+03 -.263211276411660D+02 -.256680169845627D+02 0.894715344142949D+03
 0.110090654236815D+04 0.175515281934755D+03 -.393875935777744D+03 -.101294192728486D+04
 0.344106842194522D+03 0.134617999336866D+01 -.352207406217765D+02 -.342296955982031D+03
0.358214084696D-04 0.000000000000D+00 0.000000000000D+00 0.458560716071D-04 0.000000000000D+00  6 2 2 25 2 2 21 0 0.13341118D+00 0.27834248D+00 0.24024727D+06 0.24024727D+06 0.24024727D+06 0.10917616D+01  1  2  2  2  6  2        2 0.162640098752D-03 0.100000000000D+01
0.166268622916D-04 0.000000000000D+00 -.137563640517D-06 0.458560716071D-04 0.000000000000D+00  6 2 2 25 2 2 21 2 0.13341118D+00 0.27834248D+00 0.24024727D+06 0.24024727D+06 0.24024727D+06 0.10917616D+01  1  2  3  2  6  2        2 0.899810142281D-04 0.100000000000D+01
-.223268029869D-04 0.000000000000D+00 0.000000000000D+00 0.458560716071D-04 0.000000000000D+00  6 2 2 25 2 2 21 2 0.13341118D+00 0.27834248D+00 0.24024727D+06 0.24024727D+06 0.24024727D+06 0.10917616D+01  1  2 15  2  6  2        2 -.120827871308D-03 0.100000000000D+01
0.468735486316D-02 0.000000000000D+00 0.000000000000D+00 0.458560716071D-04 0.000000000000D+00  6 2 2 25 2 2 21 2 0.13341118D+00 0.35799313D+00 0.24914941D+06 0.24914941D+06 0.24914941D+06 0.10905705D+01  1  2 12  2  6  2        2 0.130961963175D-01 0.100000000000D+01
0.482489181134D-10 0.000000000000D+00 0.000000000000D+00 0.458560716071D-04 0.000000000000D+00  6 2 2 25 2 2 21 2 0.13341118D+00 0.35477989D+00 0.24914941D+06 0.24914941D+06 0.24914941D+06 0.10905705D+01  1  2 12  2  6  2        2 0.138507167687D-09 0.100000000000D+01
-.801116980701D-02 0.000000000000D+00 0.000000000000D+00 0.458560716071D-04 0.000000000000D+00  6 2 2 25 2 2 21 2 0.13341118D+00 0.27834248D+00 0.24024727D+06 0.24024727D+06 0.24024727D+06 0.10917616D+01  1  2  4  2  6  2        2 -.433547335477D-01 0.100000000000D+01
-.492236541433D-02 0.000000000000D+00 -.328849549502D-04 0.458560716071D-04 0.000000000000D+00  6 2 2 25 2 2 21 2 0.13341118D+00 0.35471879D+00 0.24024727D+06 0.24024727D+06 0.24024727D+06 0.10917616D+01  1  2  5  2  6  2        2 -.142060052892D-01 0.100000000000D+01
0.478978807029D-02 0.000000000000D+00 0.319413779929D-04 0.458560716071D-04 0.000000000000D+00  6 2 2 25 2 2 21 2 0.13341118D+00 0.27834248D+00 0.24024727D+06 0.24024727D+06 0.24024727D+06 0.10917616D+01  1  2  6  2  6  2        2 0.259213061937D-01 0.100000000000D+01
0.159411940445D-03 0.000000000000D+00 0.000000000000D+00 0.458560716071D-04 0.000000000000D+00  6 2 21 25 2 2 -2 2 0.13341118D+00 0.35799313D+00 0.24914941D+06 0.24914941D+06 0.24914941D+06 0.10905705D+01  1  2 12  5  6  2        2 0.630999355031D-04 0.100000000000D+01
0.159724182114D-11 0.000000000000D+00 0.000000000000D+00 0.458560716071D-04 0.000000000000D+00  6 2 21 25 2 2 -2 2 0.13341118D+00 0.35477989D+00 0.24914941D+06 0.24914941D+06 0.24914941D+06 0.10905705D+01  1  2 12  5  6  2        2 0.664038352049D-12 0.100000000000D+01
-.162341144624D-03 0.000000000000D+00 -.108805734390D-05 0.458560716071D-04 0.000000000000D+00  6 2 21 25 2 2 -2 2 0.13341118D+00 0.35471879D+00 0.24024727D+06 0.24024727D+06 0.24024727D+06 0.10917616D+01  1  2  5  5  6  2        2 -.680161328374D-04 0.100000000000D+01
  </mgrwgt>
  </event>
  <event>
  5     66 0.18204334E-05 0.21596140E+02 0.75467711E-02 0.94311886E-01
        2 -1    0    0  501    0 0.00000000E+00 0.00000000E+00 0.99207100E+03 0.99207106E+03 0.32000000E+00 0.0000E+00 0.9000E+01
        2 -1    0    0  502    0 0.00000000E+00 0.00000000E+00 -.19084231E+04 0.19084231E+04 0.32000000E+00 0.0000E+00 0.9000E+01
       25  1    1    2    0    0 0.59716485E+02 -.47065327E+03 -.31947302E+03 0.58546441E+03 0.12500000E+03 0.0000E+00 0.9000E+01
        2  1    1    2  501    0 -.12757463E+02 0.17426258E+02 0.82328009E+03 0.82356338E+03 0.32000000E+00 0.0000E+00 0.9000E+01
        2  1    1    2  502    0 -.46959022E+02 0.45322701E+03 -.14201591E+04 0.14914664E+04 0.32000000E+00 0.0000E+00 0.9000E+01
#aMCatNLO 1  0  0  1  2 0.20588785D+01 0.00000000D+00  -5  6  0 0.00000000D+00 0.00000000D+00 0.00000000D+00 0.00000000D+00 0.00000000D+00
  <mgrwgt>
 0.2213345564D-01    7    2    0
 0.137596921972066D+04 0.000000000000000D+00 0.000000000000000D+00 0.137596921972066D+04
 0.137596921972066D+04 0.000000000000000D+00 0.000000000000000D+00 -.137596921972066D+04
 0.510717748868886D+03 0.597206567604072D+02 -.470694572127784D+03 -.141731019664893D+03
 0.114211866635584D+04 -.127569972414506D+02 0.174256213253948D+02 0.114191446911809D+04
 0.109910202421659D+04 -.469636595189566D+02 0.453268950802390D+03 -.100018344945320D+04
 0.000000000000000D+00 -.000000000000000D+00 -.000000000000000D+00 0.000000000000000D+00
 0.151898870174646D+04 0.000000000000000D+00 0.000000000000000D+00 0.151898870174646D+04
 0.137891221494008D+04 0.000000000000000D+00 0.000000000000000D+00 -.137891221494008D+04
 0.504664176779342D+03 0.622927534359644D+02 -.463781049913088D+03 -.141731019664893D+03
 0.114241190007465D+04 -.696997924684406D+01 0.329805100054216D+02 0.114191446911809D+04
 0.110515285261027D+04 -.413799904604913D+02 0.468277259176666D+03 -.100018344945320D+04
 0.145671987222284D+03 -.139427837286290D+02 -.374767192689990D+02 0.140076486806382D+03
0.670431579339D-03 0.000000000000D+00 0.000000000000D+00 0.851176005665D-04 0.000000000000D+00  6 2 2 25 2 2 21 0 0.15262631D+00 0.29360355D+00 0.23423143D+06 0.23423143D+06 0.23423143D+06 0.10925941D+01  1  2  2  1  6  1        2 0.223984608341D-02 0.100000000000D+01
0.558806121916D-03 0.000000000000D+00 -.257463379335D-05 0.851176005665D-04 0.000000000000D+00  6 2 2 25 2 2 21 2 0.15262631D+00 0.29360355D+00 0.23423143D+06 0.23423143D+06 0.23423143D+06 0.10925941D+01  1  2  3  1  6  1        2 0.222865369135D-02 0.100000000000D+01
-.536664999010D-03 0.000000000000D+00 0.000000000000D+00 0.851176005665D-04 0.000000000000D+00  6 2 2 25 2 2 21 2 0.15262631D+00 0.29360355D+00 0.23423143D+06 0.23423143D+06 0.23423143D+06 0.10925941D+01  1  2 15  1  6  1        2 -.214034954908D-02 0.100000000000D+01
-.828342076080D-04 0.000000000000D+00 0.000000000000D+00 0.851176005665D-04 0.000000000000D+00  6 2 2 25 2 2 21 2 0.15262631D+00 0.29360355D+00 0.23423143D+06 0.23423143D+06 0.23423143D+06 0.10925941D+01  1  2  4  1  6  1        2 -.330362813355D-03 0.100000000000D+01
-.400075227409D-01 0.000000000000D+00 -.157047391410D-02 0.851176005665D-04 0.000000000000D+00  6 2 2 25 2 2 21 2 0.16863818D+00 0.29360355D+00 0.23423143D+06 0.23423143D+06 0.23423143D+06 0.10925941D+01  1  2  5  1  6  1        2 -.137937171453D+00 0.100000000000D+01
0.399728976796D-01 0.000000000000D+00 0.156269100759D-02 0.851176005665D-04 0.000000000000D+00  6 2 2 25 2 2 21 2 0.15262631D+00 0.29360355D+00 0.23423143D+06 0.23423143D+06 0.23423143D+06 0.10925941D+01  1  2  6  1  6  1        2 0.159421564070D+00 0.100000000000D+01
-.643976362997D-03 0.000000000000D+00 -.254558541624D-04 0.851176005665D-04 0.000000000000D+00  6 21 2 25 2 2 -2 2 0.16863818D+00 0.29360355D+00 0.23423143D+06 0.23423143D+06 0.23423143D+06 0.10925941D+01  1  2  5  4  6  1        2 -.134872439102D-02 0.100000000000D+01
  </mgrwgt>
  </event>
  <event>
  5     66 0.18204334E-05 0.10970850E+03 0.75467711E-02 0.95154325E-01
        2 -1    0    0  501    0 0.00000000E+00 0.00000000E+00 0.21978702E+04 0.21978702E+04 0.32000000E+00 0.0000E+00 0.9000E+01
        2 -1    0    0  502    0 0.00000000E+00 0.00000000E+00 -.13420567E+04 0.13420568E+04 0.32000000E+00 0.0000E+00 0.9000E+01
       25  1    1    2    0    0 0.12132811E+03 -.44241353E+03 0.16097379E+03 0.50198387E+03 0.12500000E+03 0.0000E+00 0.9000E+01
        2  1    1    2  501    0 -.15164080E+03 0.33698443E+03 0.18454658E+04 0.18820993E+04 0.32000000E+00 0.0000E+00 0.9000E+01
        2  1    1    2  502    0 0.30312687E+02 0.10542911E+03 -.11506262E+04 0.11558438E+04 0.32000000E+00 0.0000E+00 0.9000E+01
#aMCatNLO 1  0  0  1  5 0.17631923D+03 0.00000000D+00  -5  6  0 0.00000000D+00 0.00000000D+00 0.00000000D+00 0.00000000D+00 0.00000000D+00
  <mgrwgt>
 0.4326872018D-01    3    2    0
 0.171745932985161D+04 0.000000000000000D+00 0.000000000000000D+00 0.171745932985161D+04
 0.171745932985161D+04 0.000000000000000D+00 0.000000000000000D+00 -.171745932985161D+04
 0.477227257173983D+03 0.121322559804448D+03 -.442413758173368D+03 0.408871379680191D+02
 0.147980306811950D+04 -.151637328471141D+03 0.336976721274548D+03 0.143292356053945D+04
 0.147788833440974D+04 0.303147686666934D+02 0.105437036898820D+03 -.147381069850747D+04
 0.000000000000000D+00 0.000000000000000D+00 -.000000000000000D+00 -.000000000000000D+00
 0.173134123690898D+04 0.000000000000000D+00 0.000000000000000D+00 0.173134123690898D+04
 0.655725888361588D+04 0.000000000000000D+00 0.000000000000000D+00 -.655725888361588D+04
 0.449083554797116D+03 0.814921628442798D+02 -.421590213990980D+03 0.408871379680191D+02
 0.151504475421184D+04 -.280412655345414D+03 0.404301149686587D+03 0.143292356053945D+04
 0.148700192963514D+04 -.971724145056099D+02 0.172088016906162D+03 -.147381069850747D+04
 0.483746988188075D+04 0.296092907006744D+03 -.154798952601769D+03 -.482591764670690D+04
0.800153847241D-01 0.000000000000D+00 0.000000000000D+00 0.102980006750D-03 0.000000000000D+00  6 2 2 25 2 2 21 0 0.33813388D+00 0.20647027D+00 0.22786489D+06 0.22786489D+06 0.22786489D+06 0.10935010D+01  1  2  2  1  6  1        2 0.115979846129D+00 0.100000000000D+01
0.199270663426D-01 0.000000000000D+00 -.307280145875D-03 0.102980006750D-03 0.000000000000D+00  6 2 2 25 2 2 21 2 0.33813388D+00 0.20647027D+00 0.22786489D+06 0.22786489D+06 0.22786489D+06 0.10935010D+01  1  2  3  1  6  1        2 0.345374918389D-01 0.100000000000D+01
-.618791408399D-01 0.000000000000D+00 0.000000000000D+00 0.102980006750D-03 0.000000000000D+00  6 2 2 25 2 2 21 2 0.33813388D+00 0.20647027D+00 0.22786489D+06 0.22786489D+06 0.22786489D+06 0.10935010D+01  1  2 15  1  6  1        2 -.107248617785D+00 0.100000000000D+01
  </mgrwgt>
  </event>
  <event>
  6     66 0.18204334E-05 0.98064472E+01 0.75467711E-02 0.92848121E-01
        2 -1    0    0  501    0 0.00000000E+00 0.00000000E+00 0.81857287E+03 0.81857293E+03 0.32000000E+00 0.0000E+00 0.9000E+01
        2 -1    0    0  502    0 0.00000000E+00 0.00000000E+00 -.58679303E+03 0.58679311E+03 0.32000000E+00 0.0000E+00 0.9000E+01
       25  1    1    2    0    0 0.40304418E+03 0.41454350E+03 0.26884889E+03 0.64976584E+03 0.12500000E+03 0.0000E+00 0.9000E+01
        2  1    1    2  501    0 -.19051337E+02 -.41334865E+01 0.15821514E+03 0.15941196E+03 0.32000000E+00 0.0000E+00 0.9000E+01
        2  1    1    2  503    0 -.30171268E+03 -.32387486E+03 -.13727464E+03 0.46343273E+03 0.32000000E+00 0.0000E+00 0.9000E+01
       21  1    1    2  502  503 -.82280171E+02 -.86535151E+02 -.58009543E+02 0.13275552E+03 0.75000000E+00 0.0000E+00 0.9000E+01
#aMCatNLO 2  0  0  5  4 0.10154955D+03 0.00000000D+00  -5  6  0 0.00000000D+00 0.00000000D+00 0.00000000D+00 0.00000000D+00 0.00000000D+00
  <mgrwgt>
 0.7860106717D-02    1    2    0
 0.693060572554497D+03 0.000000000000000D+00 0.000000000000000D+00 0.693060572554497D+03
 0.693060572554497D+03 -.000000000000000D+00 -.000000000000000D+00 -.693060572554497D+03
 0.614450550681803D+03 0.403403856979078D+03 0.414946742542594D+03 0.164344176230449D+03
 0.134970118003890D+03 -.189524078914847D+02 -.405629010733736D+01 0.133571274979555D+03
 0.636700476423302D+03 -.384451449087593D+03 -.410890452435256D+03 -.297915451210004D+03
 0.000000000000000D+00 0.000000000000000D+00 0.000000000000000D+00 -.000000000000000D+00
 0.693060572554497D+03 0.000000000000000D+00 0.000000000000000D+00 0.693060572554497D+03
 0.693060572554497D+03 -.000000000000000D+00 -.000000000000000D+00 -.693060572554497D+03
 0.613978113582187D+03 0.403105881370707D+03 0.414628274936790D+03 0.164113271813186D+03
 0.134931245104309D+03 -.190178769131805D+02 -.412626148085913D+01 0.133520542349505D+03
 0.492851671519018D+03 -.301764088802884D+03 -.323923535596728D+03 -.216598125371782D+03
 0.144360114903481D+03 -.823239156546419D+02 -.865784778592033D+02 -.810356887909086D+02
0.247379613239D-03 0.000000000000D+00 0.000000000000D+00 0.278932683255D-06 0.518300054132D-08  6 2 2 25 2 2 21 2 0.12593430D+00 0.90275862D-01 0.34414296D+06 0.34414296D+06 0.34414296D+06 0.10801685D+01  1  2  1  3  6  5        2 0.786010671718D-02 0.100000000000D+01
  </mgrwgt>
  </event>
  <event>
  5     66 -.18204334E-05 0.74356102E+02 0.75467711E-02 0.92611920E-01
        2 -1    0    0  501    0 0.00000000E+00 0.00000000E+00 0.11861748E+04 0.11861749E+04 0.32000000E+00 0.0000E+00 0.9000E+01
        2 -1    0    0  502    0 -.00000000E+00 -.00000000E+00 -.12167301E+04 0.12167302E+04 0.32000000E+00 0.0000E+00 0.9000E+01
       25  1    1    2    0    0 0.59067343E+03 -.63717774E+01 -.94585551E+03 0.11221423E+04 0.12500000E+03 0.0000E+00 0.9000E+01
        2  1    1    2  501    0 -.54062660E+03 0.61384206E+02 0.10178103E+04 0.11541157E+04 0.32000000E+00 0.0000E+00 0.9000E+01
        2  1    1    2  502    0 -.50046829E+02 -.55012429E+02 -.10251007E+03 0.12664703E+03 0.32000000E+00 0.0000E+00 0.9000E+01
#aMCatNLO 1  0  0  5  2 0.50246425D+02 0.00000000D+00  -5  6  0 0.00000000D+00 0.00000000D+00 0.00000000D+00 0.00000000D+00 0.00000000D+00
  <mgrwgt>
 -.6605110942D-03    6    2    0
 0.120135538152589D+04 0.000000000000000D+00 0.000000000000000D+00 0.120135538152589D+04
 0.120135538152589D+04 -.000000000000000D+00 -.000000000000000D+00 -.120135538152589D+04
 0.111023375993372D+04 0.590662448903074D+03 -.637904319094412D+01 -.931703376059334D+03
 0.116716047634883D+04 -.540630302824885D+03 0.613846266448444D+02 0.103257657383362D+04
 0.125316526769228D+03 -.500321460781888D+02 -.550055834539003D+02 -.100873197774283D+03
 0.000000000000000D+00 0.000000000000000D+00 0.000000000000000D+00 0.000000000000000D+00
 0.120135538152589D+04 0.000000000000000D+00 0.000000000000000D+00 0.120135538152589D+04
 0.120135538152589D+04 -.000000000000000D+00 -.000000000000000D+00 -.120135538152589D+04
 0.112394217556967D+04 0.579156434465954D+03 -.190288111292146D+02 -.954901430927807D+03
 0.115097653550024D+04 -.552568717119704D+03 0.482594762110674D+02 0.100850672833087D+04
 0.768380001312400D+02 0.494157598360206D+01 0.353489146776846D+01 -.765974127061601D+02
 0.509540518506332D+02 -.315292933298523D+02 -.327655565496214D+02 0.229921153030928D+02
0.698872474005D-04 0.000000000000D+00 0.000000000000D+00 0.794267540706D-07 0.000000000000D+00  6 2 2 25 2 2 21 0 0.18248844D+00 0.18718926D+00 0.37346649D+06 0.37346649D+06 0.37346649D+06 0.10775831D+01  1  2  2  3  6  5        2 0.417986329452D-03 0.100000000000D+01
0.855810258313D-05 0.000000000000D+00 -.268385431753D-06 0.794267540706D-07 0.000000000000D+00  6 2 2 25 2 2 21 2 0.18248844D+00 0.18718926D+00 0.37346649D+06 0.37346649D+06 0.37346649D+06 0.10775831D+01  1  2  3  3  6  5        2 0.594351232864D-04 0.100000000000D+01
-.420150396966D-04 0.000000000000D+00 0.000000000000D+00 0.794267540706D-07 0.000000000000D+00  6 2 2 25 2 2 21 2 0.18248844D+00 0.18718926D+00 0.37346649D+06 0.37346649D+06 0.37346649D+06 0.10775831D+01  1  2 15  3  6  5        2 -.291790036400D-03 0.100000000000D+01
0.136584732681D-04 0.000000000000D+00 0.000000000000D+00 0.794267540706D-07 0.000000000000D+00  6 2 2 25 2 2 21 2 0.18248844D+00 0.18718926D+00 0.35941070D+06 0.35941070D+06 0.35941070D+06 0.10787936D+01  1  2 12  3  6  5        2 0.952733065936D-04 0.100000000000D+01
0.856398877075D-09 0.000000000000D+00 0.000000000000D+00 0.794267540706D-07 0.000000000000D+00  6 2 2 25 2 2 21 2 0.18248844D+00 0.18718926D+00 0.35941070D+06 0.35941070D+06 0.35941070D+06 0.10787936D+01  1  2 12  3  6  5        2 0.597372423550D-08 0.100000000000D+01
-.135555944275D-03 0.000000000000D+00 0.000000000000D+00 0.794267540706D-07 0.000000000000D+00  6 2 2 25 2 2 21 2 0.18248844D+00 0.18718926D+00 0.37346649D+06 0.37346649D+06 0.37346649D+06 0.10775831D+01  1  2  4  3  6  5        2 -.941421790860D-03 0.100000000000D+01
  </mgrwgt>
  </event>
  <event>
  6     66 0.18204334E-05 0.83490170E+01 0.75467711E-02 0.93922832E-01
        2 -1    0    0  501    0 0.00000000E+00 0.00000000E+00 0.21707578E+03 0.21707601E+03 0.32000000E+00 0.0000E+00 0.9000E+01
        2 -1    0    0  502    0 -.00000000E+00 -.00000000E+00 -.23694861E+04 0.23694861E+04 0.32000000E+00 0.0000E+00 0.9000E+01
       25  1    1    2    0    0 -.41236074E+03 0.30337037E+03 -.16205954E+04 0.17041213E+04 0.12500000E+03 0.0000E+00 0.9000E+01
        2  1    1    2  501    0 0.41834759E+03 -.30334091E+03 -.21340350E+03 0.55908100E+03 0.32000000E+00 0.0000E+00 0.9000E+01
        2  1    1    2  503    0 0.42794772E+01 0.68299827E+01 -.30503109E+03 0.30513772E+03 0.32000000E+00 0.0000E+00 0.9000E+01
       21  1    1    2  502  503 -.10266323E+02 -.68594453E+01 -.13380357E+02 0.18222125E+02 0.75000000E+00 0.0000E+00 0.9000E+01
#aMCatNLO 2  0  0  5  1 0.21392333D+03 0.00000000D+00  -5  6  0 0.00000000D+00 0.00000000D+00 0.00000000D+00 0.00000000D+00 0.00000000D+00
  <mgrwgt>
 0.2090999515D-02    1    2    0
 0.717187816789323D+03 0.000000000000000D+00 0.000000000000000D+00 0.717187816789323D+03
 0.717187816789323D+03 -.000000000000000D+00 -.000000000000000D+00 -.717187816789323D+03
 0.637071598300327D+03 -.411953070324561D+03 0.303415128390616D+03 -.358425932480906D+03
 0.693513064099600D+03 0.418922707526189D+03 -.303374670895578D+03 0.461982623325536D+03
 0.103790971178718D+03 -.696963720162819D+01 -.404574950383677D-01 -.103556690844630D+03
 0.000000000000000D+00 0.000000000000000D+00 0.000000000000000D+00 0.000000000000000D+00
 0.717187816789323D+03 0.000000000000000D+00 0.000000000000000D+00 0.717187816789323D+03
 0.717187816789323D+03 -.000000000000000D+00 -.000000000000000D+00 -.717187816789323D+03
 0.641493834349904D+03 -.412441342922452D+03 0.303412294055681D+03 -.365680814335583D+03
 0.687996328669664D+03 0.418395121559141D+03 -.303377733437576D+03 0.454143613158577D+03
 0.920510285070015D+02 0.436903329305318D+01 0.687546839530044D+01 -.916898649340604D+02
 0.128344420520763D+02 -.103228119297415D+02 -.691002901340508D+01 0.322706611106639D+01
0.162769494360D-03 0.000000000000D+00 0.000000000000D+00 0.845902455096D-06 0.552086098840D-08  6 2 2 25 2 2 21 2 0.33396293D-01 0.36453634D+00 0.28325702D+06 0.28325702D+06 0.28325702D+06 0.10864019D+01  1  2  1  3  6  5        2 0.209099951542D-02 0.100000000000D+01
  </mgrwgt>
  </event>
  <event>
  6     66 0.18204334E-05 0.24825204E+03 0.75467711E-02 0.90607343E-01
        2 -1    0    0  503    0 0.00000000E+00 0.00000000E+00 0.12334368E+04 0.12334369E+04 0.32000000E+00 0.0000E+00 0.9000E+01
        2 -1    0    0  502    0 0.00000000E+00 0.00000000E+00 -.84915125E+03 0.84915131E+03 0.32000000E+00 0.0000E+00 0.9000E+01
       25  1    1    2    0    0 -.78708947E+02 0.66922068E+03 0.82328732E+02 0.69025679E+03 0.12500000E+03 0.0000E+00 0.9000E+01
        2  1    1    2  501    0 -.14123148E+03 -.20825028E+03 0.63223858E+03 0.68047059E+03 0.32000000E+00 0.0000E+00 0.9000E+01
        2  1    1    2  502    0 0.21514080E+03 -.45637807E+03 -.39873409E+03 0.64308279E+03 0.32000000E+00 0.0000E+00 0.9000E+01
       21  1    1    2  503  501 0.47996241E+01 -.45923302E+01 0.68452368E+02 0.68778013E+02 0.75000000E+00 0.0000E+00 0.9000E+01
#aMCatNLO 2  0  0  1  4 0.66427320D+01 0.00000000D+00  -5  6  0 0.00000000D+00 0.00000000D+00 0.00000000D+00 0.00000000D+00 0.00000000D+00
  <mgrwgt>
 0.9045806078D-04    6    2    0
 0.994439122333069D+03 0.000000000000000D+00 0.000000000000000D+00 0.994439122333069D+03
 0.994439122333069D+03 0.000000000000000D+00 0.000000000000000D+00 -.994439122333069D+03
 0.684143694945998D+03 -.771043719528709D+02 0.667682548733775D+03 -.261251847168043D+02
 0.588623613713513D+03 -.139782914536975D+03 -.209567580492675D+03 0.531996169752330D+03
 0.716110936006626D+03 0.216887286489846D+03 -.458114968241100D+03 -.505870985035526D+03
 0.000000000000000D+00 0.000000000000000D+00 -.000000000000000D+00 0.000000000000000D+00
 0.105302106733704D+04 0.000000000000000D+00 0.000000000000000D+00 0.105302106733704D+04
 0.994632995122371D+03 0.000000000000000D+00 0.000000000000000D+00 -.994632995122371D+03
 0.685875264003662D+03 -.787574539500350D+02 0.669264234770478D+03 -.261251847168043D+02
 0.588480332740684D+03 -.141203222869179D+03 -.208208614718010D+03 0.531996169752330D+03
 0.714533741050548D+03 0.215161052743566D+03 -.456463289850518D+03 -.505870985035526D+03
 0.587647246645165D+02 0.479962407564805D+01 -.459233020195023D+01 0.583880722146669D+02
-.141905443843D-03 0.000000000000D+00 0.000000000000D+00 0.278994981748D-07 0.000000000000D+00  6 2 2 25 2 2 21 2 0.19038700D+00 0.13061288D+00 0.52433907D+06 0.52433907D+06 0.52433907D+06 0.10670546D+01  1  2 13  1  6  1        2 -.150036027825D-02 0.100000000000D+01
-.979498503361D-08 0.000000000000D+00 0.000000000000D+00 0.278994981748D-07 0.000000000000D+00  6 2 2 25 2 2 21 2 0.18978725D+00 0.13061288D+00 0.52433907D+06 0.52433907D+06 0.52433907D+06 0.10670546D+01  1  2 13  1  6  1        2 -.104103107875D-06 0.100000000000D+01
-.926454356685D-04 0.000000000000D+00 0.000000000000D+00 0.278994981748D-07 0.000000000000D+00  6 2 2 25 2 2 21 2 0.17920234D+00 0.13061288D+00 0.52014055D+06 0.52014055D+06 0.52014055D+06 0.10673004D+01  1  2  8  1  6  1        2 -.108133805455D-02 0.100000000000D+01
-.941975477650D-04 0.000000000000D+00 0.000000000000D+00 0.278994981748D-07 0.000000000000D+00  6 2 2 25 2 2 21 2 0.18977369D+00 0.13061288D+00 0.52014055D+06 0.52014055D+06 0.52014055D+06 0.10673004D+01  1  2  9  1  6  1        2 -.100210891613D-02 0.100000000000D+01
0.940430300672D-04 0.000000000000D+00 0.000000000000D+00 0.278994981748D-07 0.000000000000D+00  6 2 2 25 2 2 21 2 0.17920234D+00 0.13061288D+00 0.52014055D+06 0.52014055D+06 0.52014055D+06 0.10673004D+01  1  2 10  1  6  1        2 0.109765048265D-02 0.100000000000D+01
0.242445105682D-03 0.000000000000D+00 0.000000000000D+00 0.278994981748D-07 0.396526341881D-08  6 2 2 25 2 2 21 2 0.18975907D+00 0.13063835D+00 0.52433907D+06 0.52433907D+06 0.52433907D+06 0.10670546D+01  1  2  1  1  6  1        2 0.257671893016D-02 0.100000000000D+01
  </mgrwgt>
  </event>
  <event>
  5     66 -.18204334E-05 0.32487829E+02 0.75467711E-02 0.94515947E-01
        2 -1    0    0  501    0 0.00000000E+00 0.00000000E+00 0.18348471E+03 0.18348499E+03 0.32000000E+00 0.0000E+00 0.9000E+01
        2 -1    0    0  502    0 0.00000000E+00 0.00000000E+00 -.27054269E+04 0.27054270E+04 0.32000000E+00 0.0000E+00 0.9000E+01
       25  1    1    2    0    0 -.44396415E+02 0.48700093E+03 -.18644472E+04 0.19315614E+04 0.12500000E+03 0.0000E+00 0.9000E+01
        2  1    1    2  501    0 0.38460402E+02 -.45505324E+03 -.19974479E+03 0.49844833E+03 0.32000000E+00 0.0000E+00 0.9000E+01
        2  1    1    2  502    0 0.59360126E+01 -.31947688E+02 -.45775021E+03 0.45890222E+03 0.32000000E+00 0.0000E+00 0.9000E+01
#aMCatNLO 1  0  0  1  4 0.18062369D+02 0.00000000D+00  -5  6  0 0.00000000D+00 0.00000000D+00 0.00000000D+00 0.00000000D+00 0.00000000D+00
  <mgrwgt>
 -.9490451179D-02   11    2    0
 0.704560076827579D+03 0.000000000000000D+00 0.000000000000000D+00 0.704560076827579D+03
 0.704560076827579D+03 0.000000000000000D+00 0.000000000000000D+00 -.704560076827579D+03
 0.623170740525748D+03 -.443959206654899D+02 0.487002062146780D+03 -.365478816814951D+03
 0.664417586834603D+03 0.384610518919885D+02 -.455060923096394D+03 0.482587850503033D+03
 0.121531826294807D+03 0.593486877350142D+01 -.319411390503860D+02 -.117109033688082D+03
 0.000000000000000D+00 0.000000000000000D+00 -.000000000000000D+00 0.000000000000000D+00
 0.944470516731719D+03 0.000000000000000D+00 0.000000000000000D+00 0.944470516731719D+03
 0.704958007972012D+03 0.000000000000000D+00 0.000000000000000D+00 -.704958007972012D+03
 0.629474268651642D+03 -.456943652694721D+02 0.494924352135439D+03 -.365478816814951D+03
 0.658636174656505D+03 0.370896242290829D+02 -.446693336515737D+03 0.482587850503033D+03
 0.121125469028860D+03 0.568333936698837D+01 -.304064652622549D+02 -.117109033688082D+03
 0.240192612366724D+03 0.292140167340081D+01 -.178245503574465D+02 0.239512508759707D+03
0.135449380797D-04 0.000000000000D+00 0.000000000000D+00 0.494987484742D-06 0.000000000000D+00  6 2 2 25 2 2 21 0 0.28228440D-01 0.41621955D+00 0.24696710D+06 0.24696710D+06 0.24696710D+06 0.10908581D+01  1  2  2  1  6  1        2 0.114758660753D-03 0.100000000000D+01
0.360006722136D-05 0.000000000000D+00 -.520161286903D-07 0.494987484742D-06 0.000000000000D+00  6 2 2 25 2 2 21 2 0.28228440D-01 0.41621955D+00 0.24696710D+06 0.24696710D+06 0.24696710D+06 0.10908581D+01  1  2  3  1  6  1        2 0.362957347422D-04 0.100000000000D+01
-.779031088695D-05 0.000000000000D+00 0.000000000000D+00 0.494987484742D-06 0.000000000000D+00  6 2 2 25 2 2 21 2 0.28228440D-01 0.41621955D+00 0.24696710D+06 0.24696710D+06 0.24696710D+06 0.10908581D+01  1  2 15  1  6  1        2 -.785416049552D-04 0.100000000000D+01
0.369576661178D-02 0.000000000000D+00 0.000000000000D+00 0.494987484742D-06 0.000000000000D+00  6 2 2 25 2 2 21 2 0.37908061D-01 0.41621955D+00 0.25488997D+06 0.25488997D+06 0.25488997D+06 0.10898268D+01  1  2 12  1  6  1        2 0.265540176641D-01 0.100000000000D+01
0.126605140937D-06 0.000000000000D+00 0.000000000000D+00 0.494987484742D-06 0.000000000000D+00  6 2 2 25 2 2 21 2 0.37891269D-01 0.41621955D+00 0.25488997D+06 0.25488997D+06 0.25488997D+06 0.10898268D+01  1  2 12  1  6  1        2 0.910108196576D-06 0.100000000000D+01
-.448538260481D-02 0.000000000000D+00 0.000000000000D+00 0.494987484742D-06 0.000000000000D+00  6 2 2 25 2 2 21 2 0.28228440D-01 0.41621955D+00 0.24696710D+06 0.24696710D+06 0.24696710D+06 0.10908581D+01  1  2  4  1  6  1        2 -.452214492761D-01 0.100000000000D+01
-.373557964325D-02 0.000000000000D+00 -.141099164691D-04 0.494987484742D-06 0.000000000000D+00  6 2 2 25 2 2 21 2 0.37849515D-01 0.41621955D+00 0.24696710D+06 0.24696710D+06 0.24696710D+06 0.10908581D+01  1  2  5  1  6  1        2 -.269874851170D-01 0.100000000000D+01
0.358500778365D-02 0.000000000000D+00 0.135240781764D-04 0.494987484742D-06 0.000000000000D+00  6 2 2 25 2 2 21 2 0.28228440D-01 0.41621955D+00 0.24696710D+06 0.24696710D+06 0.24696710D+06 0.10908581D+01  1  2  6  1  6  1        2 0.361439060894D-01 0.100000000000D+01
0.141077864963D-03 0.000000000000D+00 0.000000000000D+00 0.494987484742D-06 0.000000000000D+00  6 21 2 25 2 2 -2 2 0.37908061D-01 0.41621955D+00 0.25488997D+06 0.25488997D+06 0.25488997D+06 0.10898268D+01  1  2 12  4  6  1        2 0.416386796016D-02 0.100000000000D+01
0.482762076029D-08 0.000000000000D+00 0.000000000000D+00 0.494987484742D-06 0.000000000000D+00  6 21 2 25 2 2 -2 2 0.37891269D-01 0.41621955D+00 0.25488997D+06 0.25488997D+06 0.25488997D+06 0.10898268D+01  1  2 12  4  6  1        2 0.142615365006D-06 0.100000000000D+01
-.141750912975D-03 0.000000000000D+00 -.536570785009D-06 0.494987484742D-06 0.000000000000D+00  6 21 2 25 2 2 -2 2 0.37849515D-01 0.41621955D+00 0.24696710D+06 0.24696710D+06 0.24696710D+06 0.10908581D+01  1  2  5  4  6  1        2 -.421687401351D-02 0.100000000000D+01
  </mgrwgt>
  </event>
  <event>
  5     66 0.18204334E-05 0.14739548E+03 0.75467711E-02 0.93333694E-01
        2 -1    0    0  501    0 0.00000000E+00 0.00000000E+00 0.28426013E+04 0.28426013E+04 0.32000000E+00 0.0000E+00 0.9000E+01
        2 -1    0    0  502    0 0.00000000E+00 0.00000000E+00 -.24504626E+04 0.24504626E+04 0.32000000E+00 0.0000E+00 0.9000E+01
       25  1    1    2    0    0 0.48870219E+03 0.13510886E+03 0.33499160E+03 0.62042615E+03 0.12500000E+03 0.0000E+00 0.9000E+01
        2  1    1    2  501    0 -.34240445E+03 -.15299847E+03 0.23476405E+04 0.23774073E+04 0.32000000E+00 0.0000E+00 0.9000E+01
        2  1    1    2  502    0 -.14629774E+03 0.17889612E+02 -.22904934E+04 0.22952305E+04 0.32000000E+00 0.0000E+00 0.9000E+01
#aMCatNLO 1  0  0  5  1 0.81715855D+02 0.00000000D+00  -5  6  0 0.00000000D+00 0.00000000D+00 0.00000000D+00 0.00000000D+00 0.00000000D+00
  <mgrwgt>
 0.4753310657D-02    7    2    0
 0.263925903107866D+04 0.000000000000000D+00 0.000000000000000D+00 0.263925903107866D+04
 0.263925903107866D+04 -.000000000000000D+00 -.000000000000000D+00 -.263925903107866D+04
 0.597278776431916D+03 0.488703079828779D+03 0.135104803693639D+03 0.289884336521958D+03
 0.220950786795410D+04 -.342397384875411D+03 -.152995312784084D+03 0.217744838828563D+04
 0.247173141777130D+04 -.146305694953366D+03 0.178905090904452D+02 -.246733272480758D+04
 0.000000000000000D+00 0.000000000000000D+00 0.000000000000000D+00 0.000000000000000D+00
 0.263925903107866D+04 0.000000000000000D+00 0.000000000000000D+00 0.263925903107866D+04
 0.263925903107866D+04 -.000000000000000D+00 -.000000000000000D+00 -.263925903107866D+04
 0.596752498249137D+03 0.488644378768213D+03 0.135111981759113D+03 0.288894388401606D+03
 0.220593218001412D+04 -.342614457090501D+03 -.152968768824612D+03 0.217378763276883D+04
 0.200152266553802D+04 -.117451552739872D+03 -.672330421140022D+02 -.199694212021018D+04
 0.474310718356035D+03 -.285783689378374D+02 0.850898291795009D+02 -.465739900960261D+03
0.309340599620D-02 0.000000000000D+00 0.000000000000D+00 0.279985483489D-03 0.000000000000D+00  6 2 2 25 2 2 21 0 0.43732328D+00 0.37699425D+00 0.27281592D+06 0.27281592D+06 0.27281592D+06 0.10876171D+01  1  2  2  3  6  5        2 0.455086136149D-03 0.100000000000D+01
0.677913689925D-03 0.000000000000D+00 -.118794935379D-04 0.279985483489D-03 0.000000000000D+00  6 2 2 25 2 2 21 2 0.43732328D+00 0.37699425D+00 0.27281592D+06 0.27281592D+06 0.27281592D+06 0.10876171D+01  1  2  3  3  6  5        2 0.117973138918D-03 0.100000000000D+01
-.230141127577D-02 0.000000000000D+00 0.000000000000D+00 0.279985483489D-03 0.000000000000D+00  6 2 2 25 2 2 21 2 0.43732328D+00 0.37699425D+00 0.27281592D+06 0.27281592D+06 0.27281592D+06 0.10876171D+01  1  2 15  3  6  5        2 -.400500412041D-03 0.100000000000D+01
0.103701156326D-10 0.000000000000D+00 0.000000000000D+00 0.279985483489D-03 0.000000000000D+00  6 2 2 25 2 2 21 2 0.43732328D+00 0.37699425D+00 0.31498404D+06 0.31498404D+06 0.31498404D+06 0.10829893D+01  1  2 12  3  6  5        2 0.175873660084D-11 0.100000000000D+01
-.765853034567D-02 0.000000000000D+00 0.000000000000D+00 0.279985483489D-03 0.000000000000D+00  6 2 2 25 2 2 21 2 0.43732328D+00 0.37699425D+00 0.27281592D+06 0.27281592D+06 0.27281592D+06 0.10876171D+01  1  2  4  3  6  5        2 -.133276680764D-02 0.100000000000D+01
-.161895134290D+00 0.000000000000D+00 0.000000000000D+00 0.279985483489D-03 0.000000000000D+00  6 2 2 25 2 2 21 2 0.43732328D+00 0.37699425D+00 0.27281592D+06 0.27281592D+06 0.27281592D+06 0.10876171D+01  1  2  5  3  6  5        2 -.281736118501D-01 0.100000000000D+01
0.195876218895D+00 0.000000000000D+00 -.000000000000D+00 0.279985483489D-03 0.000000000000D+00  6 2 2 25 2 2 21 2 0.43732328D+00 0.37699425D+00 0.27281592D+06 0.27281592D+06 0.27281592D+06 0.10876171D+01  1  2  6  3  6  5        2 0.340871304502D-01 0.100000000000D+01
  </mgrwgt>
  </event>
  <event>
  5     66 0.18204334E-05 0.19629879E+02 0.75467711E-02 0.83433879E-01
        2 -1    0    0  501    0 0.00000000E+00 0.00000000E+00 0.34129796E+04 0.34129796E+04 0.32000000E+00 0.0000E+00 0.9000E+01
        2 -1    0    0  502    0 0.00000000E+00 0.00000000E+00 -.14496584E+04 0.14496584E+04 0.32000000E+00 0.0000E+00 0.9000E+01
       25  1    1    2    0    0 0.56256407E+03 -.28303214E+03 0.30894920E+03 0.71250273E+03 0.12500000E+03 0.0000E+00 0.9000E+01
        2  1    1    2  501    0 -.57860987E+03 0.27172636E+03 0.28669744E+04 0.29373741E+04 0.32000000E+00 0.0000E+00 0.9000E+01
        2  1    1    2  502    0 0.16045791E+02 0.11305776E+02 -.12126023E+04 0.12127612E+04 0.32000000E+00 0.0000E+00 0.9000E+01
#aMCatNLO 1  0  0  1  5 0.40457724D+02 0.00000000D+00  -5  6  0 0.00000000D+00 0.00000000D+00 0.00000000D+00 0.00000000D+00 0.00000000D+00
  <mgrwgt>
 0.5592973866D-01    7    2    0
 0.222433238418074D+04 0.000000000000000D+00 0.000000000000000D+00 0.222433238418074D+04
 0.222433238418074D+04 0.000000000000000D+00 0.000000000000000D+00 -.222433238418074D+04
 0.642448869469394D+03 0.562553651496472D+03 -.283028338537208D+03 0.233216349203118D+02
 0.194540458020050D+04 -.578600345251498D+03 0.271721890543781D+03 0.183738614214303D+04
 0.186081131869158D+04 0.160466937550257D+02 0.113064479934267D+02 -.186070777706334D+04
 0.000000000000000D+00 0.000000000000000D+00 0.000000000000000D+00 0.000000000000000D+00
 0.344964865835677D+04 0.000000000000000D+00 0.000000000000000D+00 0.344964865835677D+04
 0.258261661875019D+04 0.000000000000000D+00 0.000000000000000D+00 -.258261661875019D+04
 0.680864967187499D+03 0.503597116371696D+03 -.440225112039273D+03 0.233216349203118D+02
 0.199584299085690D+04 -.754191572685123D+03 -.196459869958518D+03 0.183738614214303D+04
 0.191751125238206D+04 -.152285867428640D+03 -.437521412012393D+03 -.186070777706334D+04
 0.143804606668049D+04 0.402880323742067D+03 0.107420639401018D+04 0.867032039606582D+03
0.154391040776D+00 0.000000000000D+00 0.000000000000D+00 0.220777679496D-03 0.000000000000D+00  6 2 2 25 2 2 21 0 0.52507379D+00 0.22302437D+00 0.42307369D+06 0.42307369D+06 0.42307369D+06 0.10736762D+01  1  2  2  1  6  1        2 0.328687599825D-01 0.100000000000D+01
0.161035776592D+00 0.000000000000D+00 -.592902248676D-03 0.220777679496D-03 0.000000000000D+00  6 2 2 25 2 2 21 2 0.52507379D+00 0.22302437D+00 0.42307369D+06 0.42307369D+06 0.42307369D+06 0.10736762D+01  1  2  3  1  6  1        2 0.395212123669D-01 0.100000000000D+01
-.109645617095D+00 0.000000000000D+00 0.000000000000D+00 0.220777679496D-03 0.000000000000D+00  6 2 2 25 2 2 21 2 0.52507379D+00 0.22302437D+00 0.42307369D+06 0.42307369D+06 0.42307369D+06 0.10736762D+01  1  2 15  1  6  1        2 -.269090993940D-01 0.100000000000D+01
-.443028311477D-02 0.000000000000D+00 0.000000000000D+00 0.220777679496D-03 0.000000000000D+00  6 2 2 25 2 2 21 2 0.52507379D+00 0.22302437D+00 0.42307369D+06 0.42307369D+06 0.42307369D+06 0.10736762D+01  1  2  4  1  6  1        2 -.108727491201D-02 0.100000000000D+01
-.196874216327D-01 0.000000000000D+00 -.581744918082D-01 0.220777679496D-03 0.000000000000D+00  6 2 2 25 2 2 21 2 0.82469586D+00 0.22302437D+00 0.42307369D+06 0.42307369D+06 0.42307369D+06 0.10736762D+01  1  2  5  1  6  1        2 -.481007210112D-04 0.100000000000D+01
0.472018675027D-01 0.000000000000D+00 0.547851673603D-01 0.220777679496D-03 0.000000000000D+00  6 2 2 25 2 2 21 2 0.52507379D+00 0.22302437D+00 0.42307369D+06 0.42307369D+06 0.42307369D+06 0.10736762D+01  1  2  6  1  6  1        2 0.115842272392D-01 0.100000000000D+01
0.129884843967D-02 0.000000000000D+00 -.303056661212D-02 0.220777679496D-03 0.000000000000D+00  6 21 2 25 2 2 -2 2 0.82469586D+00 0.22302437D+00 0.42307369D+06 0.42307369D+06 0.42307369D+06 0.10736762D+01  1  2  5  4  6  1        2 0.141004206912D-07 0.100000000000D+01
  </mgrwgt>
  </event>
  <event>
  6     66 0.18204334E-05 0.13678137E+02 0.75467711E-02 0.92510605E-01
        2 -1    0    0  503    0 0.00000000E+00 0.00000000E+00 0.25192804E+04 0.25192804E+04 0.32000000E+00 0.0000E+00 0.9000E+01
        2 -1    0    0  502    0 0.00000000E+00 0.00000000E+00 -.93618904E+03 0.93618909E+03 0.32000000E+00 0.0000E+00 0.9000E+01
       25  1    1    2    0    0 -.43973135E+03 0.37726480E+03 0.63031293E+03 0.86522354E+03 0.12500000E+03 0.0000E+00 0.9000E+01
        2  1    1    2  501    0 0.44625350E+03 -.39486838E+03 0.14384610E+04 0.15569950E+04 0.32000000E+00 0.0000E+00 0.9000E+01
        2  1    1    2  502    0 -.52383186E+01 0.12794059E+01 -.75921181E+03 0.75923103E+03 0.32000000E+00 0.0000E+00 0.9000E+01
       21  1    1    2  503  501 -.12838326E+01 0.16324181E+02 0.27352925E+03 0.27401996E+03 0.75000000E+00 0.0000E+00 0.9000E+01
#aMCatNLO 2  0  0  1  2 0.49834543D+01 0.00000000D+00  -5  6  0 0.00000000D+00 0.00000000D+00 0.00000000D+00 0.00000000D+00 0.00000000D+00
  <mgrwgt>
 0.7994425156D-01    1    2    0
 0.144968963939548D+04 0.000000000000000D+00 0.000000000000000D+00 0.144968963939548D+04
 0.144968963939548D+04 0.000000000000000D+00 0.000000000000000D+00 -.144968963939548D+04
 0.667040680729909D+03 -.439993446097112D+03 0.380984861665877D+03 0.300956097000278D+03
 0.105626291541206D+04 0.445753032627147D+03 -.388886139008790D+03 0.875078940019309D+03
 0.117607568264900D+04 -.575958653003482D+01 0.790127734291309D+01 -.117603503701959D+04
 0.000000000000000D+00 -.000000000000000D+00 0.000000000000000D+00 0.000000000000000D+00
 0.162646248442195D+04 0.000000000000000D+00 0.000000000000000D+00 0.162646248442195D+04
 0.145009200541134D+04 0.000000000000000D+00 0.000000000000000D+00 -.145009200541134D+04
 0.664711457755188D+03 -.439698601408535D+03 0.377235854166547D+03 0.300956097000278D+03
 0.105866665741325D+04 0.446221269721155D+03 -.394839864630808D+03 0.875078940019309D+03
 0.117604740196194D+04 -.523883572488355D+01 0.127982968105039D+01 -.117603503701959D+04
 0.177128972702905D+03 -.128383258773663D+01 0.163241807832105D+02 0.176370479010605D+03
0.430900163574D-01 0.000000000000D+00 0.000000000000D+00 0.275345661158D-04 0.522164223047D-06  6 2 2 25 2 2 21 2 0.38758139D+00 0.14402901D+00 0.36619072D+06 0.36619072D+06 0.36619072D+06 0.10782034D+01  1  2  1  1  6  1        2 0.799442515607D-01 0.100000000000D+01
  </mgrwgt>
  </event>
  <event>
  6     66 -.18204334E-05 0.20947927E+02 0.75467711E-02 0.94450721E-01
        2 -1    0    0  503    0 0.00000000E+00 0.00000000E+00 0.47153481E+03 0.47153492E+03 0.32000000E+00 0.0000E+00 0.9000E+01
        2 -1    0    0  502    0 0.00000000E+00 0.00000000E+00 -.34206728E+04 0.34206728E+04 0.32000000E+00 0.0000E+00 0.9000E+01
       25  1    1    2    0    0 0.45798414E+03 -.96586941E+02 -.97825983E+03 0.10916482E+04 0.12500000E+03 0.0000E+00 0.9000E+01
        2  1    1    2  501    0 -.48535349E+03 0.10913045E+03 0.25095170E+03 0.55718428E+03 0.32000000E+00 0.0000E+00 0.9000E+01
        2  1    1    2  502    0 0.24779327E+02 -.44804518E+01 -.22308428E+04 0.22309850E+04 0.32000000E+00 0.0000E+00 0.9000E+01
       21  1    1    2  503  501 0.25900273E+01 -.80630532E+01 0.90130194E+01 0.12390242E+02 0.75000000E+00 0.0000E+00 0.9000E+01
#aMCatNLO 2  0  0  1  4 0.84688293D+01 0.00000000D+00  -5  6  0 0.00000000D+00 0.00000000D+00 0.00000000D+00 0.00000000D+00 0.00000000D+00
  <mgrwgt>
 -.8076029368D-02    6    2    0
 0.125521458711527D+04 0.000000000000000D+00 0.000000000000000D+00 0.125521458711527D+04
 0.125521458711527D+04 0.000000000000000D+00 0.000000000000000D+00 -.125521458711527D+04
 0.535153662209929D+03 0.458530546725351D+03 -.983033220671280D+02 -.225500857574901D+03
 0.115596352270127D+04 -.484156321995569D+03 0.105415423498901D+03 0.104438111347161D+04
 0.819311989319349D+03 0.256257752702183D+02 -.711210143177290D+01 -.818880255896705D+03
 0.000000000000000D+00 0.000000000000000D+00 -.000000000000000D+00 0.000000000000000D+00
 0.128436609699574D+04 0.000000000000000D+00 0.000000000000000D+00 0.128436609699574D+04
 0.125583695178884D+04 0.000000000000000D+00 0.000000000000000D+00 -.125583695178884D+04
 0.534367905286956D+03 0.457978831864156D+03 -.965857701636036D+02 -.225500857574901D+03
 0.115680818334246D+04 -.485349369952295D+03 0.109129519190706D+03 0.104438111347161D+04
 0.819267370183571D+03 0.247805107974307D+02 -.448069577945237D+01 -.818880255896705D+03
 0.297595899716001D+02 0.259002729070785D+01 -.806305324764997D+01 0.285291452069057D+02
-.280095643151D-01 0.000000000000D+00 0.000000000000D+00 0.453017008445D-04 0.000000000000D+00  6 2 2 25 2 2 21 2 0.72940937D-01 0.52599458D+00 0.25784807D+06 0.25784807D+06 0.25784807D+06 0.10894507D+01  1  2 13  1  6  1        2 -.338606924701D-01 0.100000000000D+01
-.362680343709D-09 0.000000000000D+00 0.000000000000D+00 0.453017008445D-04 0.000000000000D+00  6 2 2 25 2 2 21 2 0.72570375D-01 0.52599458D+00 0.25784807D+06 0.25784807D+06 0.25784807D+06 0.10894507D+01  1  2 13  1  6  1        2 -.440962029187D-09 0.100000000000D+01
-.164462798862D+00 0.000000000000D+00 0.000000000000D+00 0.453017008445D-04 0.000000000000D+00  6 2 2 25 2 2 21 2 0.70897019D-01 0.52599458D+00 0.25372241D+06 0.25372241D+06 0.25372241D+06 0.10899766D+01  1  2  8  1  6  1        2 -.205740916609D+00 0.100000000000D+01
-.244687835908D+00 0.000000000000D+00 0.000000000000D+00 0.453017008445D-04 0.000000000000D+00  6 2 2 25 2 2 21 2 0.72561311D-01 0.52599458D+00 0.25372241D+06 0.25372241D+06 0.25372241D+06 0.10899766D+01  1  2  9  1  6  1        2 -.298231918561D+00 0.100000000000D+01
0.244621980501D+00 0.000000000000D+00 0.000000000000D+00 0.453017008445D-04 0.000000000000D+00  6 2 2 25 2 2 21 2 0.70897019D-01 0.52599458D+00 0.25372241D+06 0.25372241D+06 0.25372241D+06 0.10899766D+01  1  2 10  1  6  1        2 0.306019056219D+00 0.100000000000D+01
0.184442187698D+00 0.000000000000D+00 0.000000000000D+00 0.453017008445D-04 0.197588635927D-05  6 2 2 25 2 2 21 2 0.72543554D-01 0.52625538D+00 0.25784807D+06 0.25784807D+06 0.25784807D+06 0.10894507D+01  1  2  1  1  6  1        2 0.223738442494D+00 0.100000000000D+01
  </mgrwgt>
  </event>
  <event>
  5     66 0.18204334E-05 0.39542371E+02 0.75467711E-02 0.85120527E-01
        2 -1    0    0  501    0 0.00000000E+00 0.00000000E+00 0.17582139E+04 0.17582140E+04 0.32000000E+00 0.0000E+00 0.9000E+01
        2 -1    0    0  502    0 0.00000000E+00 0.00000000E+00 -.12375401E+04 0.12375401E+04 0.32000000E+00 0.0000E+00 0.9000E+01
       25  1    1    2    0    0 -.84364806E+03 -.16458260E+03 0.23274110E+03 0.89923462E+03 0.12500000E+03 0.0000E+00 0.9000E+01
        2  1    1    2  501    0 0.85235988E+03 0.20314978E+03 0.10306305E+04 0.13527699E+04 0.32000000E+00 0.0000E+00 0.9000E+01
        2  1    1    2  502    0 -.87118194E+01 -.38567182E+02 -.74269773E+03 0.74374952E+03 0.32000000E+00 0.0000E+00 0.9000E+01
#aMCatNLO 1  0  0  1  5 0.10086913D+03 0.00000000D+00  -5  6  0 0.00000000D+00 0.00000000D+00 0.00000000D+00 0.00000000D+00 0.00000000D+00
  <mgrwgt>
 0.8243198616D-02    3    2    0
 0.147507976882542D+04 0.000000000000000D+00 0.000000000000000D+00 0.147507976882542D+04
 0.147507976882542D+04 0.000000000000000D+00 0.000000000000000D+00 -.147507976882542D+04
 0.872028226468750D+03 -.843611684457686D+03 -.164570643002976D+03 0.777435339194524D+02
 0.119173085298431D+04 0.852324132112310D+03 0.203141258228826D+03 0.807774491413852D+03
 0.886400458197778D+03 -.871244765462382D+01 -.385706152258497D+02 -.885518025333305D+03
 0.000000000000000D+00 -.000000000000000D+00 0.000000000000000D+00 -.000000000000000D+00
 0.155371018640202D+04 0.000000000000000D+00 0.000000000000000D+00 0.155371018640202D+04
 0.290500547252404D+04 0.000000000000000D+00 0.000000000000000D+00 -.290500547252404D+04
 0.817352805543671D+03 -.750263037091730D+03 -.288966999565210D+03 0.777435339194524D+02
 0.127692929083511D+04 0.988732722516145D+03 0.213632450616478D+02 0.807774491413852D+03
 0.906311541038089D+03 0.903458684234496D+02 -.170575673199473D+03 -.885518025333305D+03
 0.145812202150919D+04 -.328815553847865D+03 0.438179427703035D+03 -.135129528612203D+04
0.277038505655D-02 0.000000000000D+00 0.000000000000D+00 0.291555997184D-05 0.000000000000D+00  6 2 2 25 2 2 21 0 0.27049446D+00 0.19039079D+00 0.79592813D+06 0.79592813D+06 0.79592813D+06 0.10545269D+01  1  2  2  1  6  1        2 0.734010090544D-02 0.100000000000D+01
0.192266960413D-02 0.000000000000D+00 -.106390080763D-04 0.291555997184D-05 0.000000000000D+00  6 2 2 25 2 2 21 2 0.27049446D+00 0.19039079D+00 0.79592813D+06 0.79592813D+06 0.79592813D+06 0.10545269D+01  1  2  3  1  6  1        2 0.566476460214D-02 0.100000000000D+01
-.161615050947D-02 0.000000000000D+00 0.000000000000D+00 0.291555997184D-05 0.000000000000D+00  6 2 2 25 2 2 21 2 0.27049446D+00 0.19039079D+00 0.79592813D+06 0.79592813D+06 0.79592813D+06 0.10545269D+01  1  2 15  1  6  1        2 -.476166689174D-02 0.100000000000D+01
  </mgrwgt>
  </event>
  <event>
  5     66 0.18204334E-05 0.23003725E+02 0.75467711E-02 0.92837117E-01
        2 -1    0    0  501    0 0.00000000E+00 0.00000000E+00 0.88759502E+03 0.88759508E+03 0.32000000E+00 0.0000E+00 0.9000E+01
        2 -1    0    0  502    0 0.00000000E+00 0.00000000E+00 -.90940404E+03 0.90940409E+03 0.32000000E+00 0.0000E+00 0.9000E+01
       25  1    1    2    0    0 -.13519244E+03 0.55360699E+03 0.11220707E+03 0.59411541E+03 0.12500000E+03 0.0000E+00 0.9000E+01
        2  1    1    2  501    0 0.11738012E+03 -.53905583E+03 0.39174065E+03 0.67662406E+03 0.32000000E+00 0.0000E+00 0.9000E+01
        2  1    1    2  502    0 0.17812325E+02 -.14551165E+02 -.52575674E+03 0.52625970E+03 0.32000000E+00 0.0000E+00 0.9000E+01
#aMCatNLO 1  0  0  2  4 0.21272171D+02 0.00000000D+00  -5  6  0 0.00000000D+00 0.00000000D+00 0.00000000D+00 0.00000000D+00 0.00000000D+00
  <mgrwgt>
 0.1041458938D-01    9    2    0
 0.898433413436067D+03 0.000000000000000D+00 0.000000000000000D+00 0.898433413436067D+03
 0.898433413436067D+03 0.000000000000000D+00 0.000000000000000D+00 -.898433413436067D+03
 0.595500835076530D+03 -.135184828323442D+03 0.553562468929563D+03 0.119540368748861D+03
 0.681369379927740D+03 0.117369940047111D+03 -.539009080339067D+03 0.399947171997107D+03
 0.519996611867864D+03 0.178148882763311D+02 -.145533885904956D+02 -.519487540745968D+03
 0.000000000000000D+00 0.000000000000000D+00 -.000000000000000D+00 -.000000000000000D+00
 0.898861118301628D+03 0.000000000000000D+00 0.000000000000000D+00 0.898861118301628D+03
 0.120864429407699D+04 0.000000000000000D+00 0.000000000000000D+00 -.120864429407699D+04
 0.597701711444038D+03 -.142221161327793D+03 0.554171072299062D+03 0.119540368748861D+03
 0.679482940209412D+03 0.109344973856625D+03 -.538314965739797D+03 0.399947171997107D+03
 0.519808085882752D+03 0.116831446472236D+02 -.140230271321519D+02 -.519487540745968D+03
 0.310512674842415D+03 0.211930428239448D+02 -.183307942711291D+01 -.309783175775360D+03
0.917859479417D-05 0.000000000000D+00 0.000000000000D+00 0.232109660360D-05 0.000000000000D+00  6 2 2 25 2 2 21 0 0.13655309D+00 0.13990832D+00 0.33525420D+06 0.33525420D+06 0.33525420D+06 0.10809999D+01  1  2  2  2  6  2        2 0.129830147067D-03 0.100000000000D+01
0.666209297281D-05 0.000000000000D+00 -.352482207891D-07 0.232109660360D-05 0.000000000000D+00  6 2 2 25 2 2 21 2 0.13655309D+00 0.13990832D+00 0.33525420D+06 0.33525420D+06 0.33525420D+06 0.10809999D+01  1  2  3  2  6  2        2 0.110118759231D-03 0.100000000000D+01
-.547651625052D-05 0.000000000000D+00 0.000000000000D+00 0.232109660360D-05 0.000000000000D+00  6 2 2 25 2 2 21 2 0.13655309D+00 0.13990832D+00 0.33525420D+06 0.33525420D+06 0.33525420D+06 0.10809999D+01  1  2 15  2  6  2        2 -.905221792724D-04 0.100000000000D+01
0.336701394315D-08 0.000000000000D+00 0.000000000000D+00 0.232109660360D-05 0.000000000000D+00  6 2 2 25 2 2 21 2 0.13655309D+00 0.18826612D+00 0.34483793D+06 0.34483793D+06 0.34483793D+06 0.10801044D+01  1  2 12  2  6  2        2 0.357106402923D-07 0.100000000000D+01
-.199554257894D-03 0.000000000000D+00 0.000000000000D+00 0.232109660360D-05 0.000000000000D+00  6 2 2 25 2 2 21 2 0.13655309D+00 0.13990832D+00 0.33525420D+06 0.33525420D+06 0.33525420D+06 0.10809999D+01  1  2  4  2  6  2        2 -.329846301578D-02 0.100000000000D+01
-.271200206577D-02 0.000000000000D+00 -.854198665988D-05 0.232109660360D-05 0.000000000000D+00  6 2 2 25 2 2 21 2 0.13655309D+00 0.18824696D+00 0.33525420D+06 0.33525420D+06 0.33525420D+06 0.10809999D+01  1  2  5  2  6  2        2 -.288552636570D-01 0.100000000000D+01
0.259958347424D-02 0.000000000000D+00 0.817916254737D-05 0.232109660360D-05 0.000000000000D+00  6 2 2 25 2 2 21 2 0.13655309D+00 0.13990832D+00 0.33525420D+06 0.33525420D+06 0.33525420D+06 0.10809999D+01  1  2  6  2  6  2        2 0.429689150043D-01 0.100000000000D+01
0.129169554107D-09 0.000000000000D+00 0.000000000000D+00 0.232109660360D-05 0.000000000000D+00  6 2 21 25 2 2 -2 2 0.13655309D+00 0.18826612D+00 0.34483793D+06 0.34483793D+06 0.34483793D+06 0.10801044D+01  1  2 12  5  6  2        2 0.681174149322D-09 0.100000000000D+01
-.103827065282D-03 0.000000000000D+00 -.327617041808D-06 0.232109660360D-05 0.000000000000D+00  6 2 21 25 2 2 -2 2 0.13655309D+00 0.18824696D+00 0.33525420D+06 0.33525420D+06 0.33525420D+06 0.10809999D+01  1  2  5  5  6  2        2 -.550062071307D-03 0.100000000000D+01
  </mgrwgt>
  </event>
  <event>
  5     66 0.18204334E-05 0.17136679E+03 0.75467711E-02 0.89594257E-01
        2 -1    0    0  501    0 0.00000000E+00 0.00000000E+00 0.72862658E+03 0.72862665E+03 0.32000000E+00 0.0000E+00 0.9000E+01
        2 -1    0    0  502    0 0.00000000E+00 0.00000000E+00 -.21780828E+04 0.21780829E+04 0.32000000E+00 0.0000E+00 0.9000E+01
       25  1    1    2    0    0 -.68998053E+03 0.51926575E+02 -.93965334E+03 0.11736025E+04 0.12500000E+03 0.0000E+00 0.9000E+01
        2  1    1    2  501    0 0.12414642E+02 0.17093397E+03 0.48193801E+03 0.51150454E+03 0.32000000E+00 0.0000E+00 0.9000E+01
        2  1    1    2  502    0 0.67756588E+03 -.22286055E+03 -.99174094E+03 0.12216024E+04 0.32000000E+00 0.0000E+00 0.9000E+01
#aMCatNLO 1  0  0  2  5 0.10510780D+02 0.00000000D+00  -5  6  0 0.00000000D+00 0.00000000D+00 0.00000000D+00 0.00000000D+00 0.00000000D+00
  <mgrwgt>
 0.7915859634D-03   11    2    0
 0.125976552777690D+04 0.000000000000000D+00 0.000000000000000D+00 0.125976552777690D+04
 0.125976552777690D+04 0.000000000000000D+00 0.000000000000000D+00 -.125976552777690D+04
 0.813426546366121D+03 -.690057956128494D+03 0.519512587259594D+02 -.408850620928560D+03
 0.867272882341172D+03 0.124133808527327D+02 0.170916601401870D+03 0.850173909141773D+03
 0.838831626846501D+03 0.677644575275761D+03 -.222867860127829D+03 -.441323288213213D+03
 0.000000000000000D+00 -.000000000000000D+00 0.000000000000000D+00 -.000000000000000D+00
 0.126091343302623D+04 0.000000000000000D+00 0.000000000000000D+00 0.126091343302623D+04
 0.128406892615332D+04 0.000000000000000D+00 0.000000000000000D+00 -.128406892615332D+04
 0.810547671750602D+03 -.686687656117200D+03 0.516116351506056D+02 -.408850620928560D+03
 0.867260464932105D+03 0.160131287395460D+02 0.170553856470085D+03 0.850173909141773D+03
 0.841744842794034D+03 0.681132344251046D+03 -.223219320996424D+03 -.441323288213213D+03
 0.254293797028011D+02 -.104578168733920D+02 0.105382937573358D+01 -.231554931270891D+02
0.189375240110D-04 0.000000000000D+00 0.000000000000D+00 0.773944243856D-07 0.000000000000D+00  6 2 2 25 2 2 21 0 0.11209640D+00 0.33508968D+00 0.63037990D+06 0.63037990D+06 0.63037990D+06 0.10614701D+01  1  2  2  2  6  2        2 0.633995050945D-04 0.100000000000D+01
0.336175560606D-05 0.000000000000D+00 -.727250785668D-07 0.773944243856D-07 0.000000000000D+00  6 2 2 25 2 2 21 2 0.11209640D+00 0.33508968D+00 0.63037990D+06 0.63037990D+06 0.63037990D+06 0.10614701D+01  1  2  3  2  6  2        2 0.126807323710D-04 0.100000000000D+01
-.126868076560D-04 0.000000000000D+00 0.000000000000D+00 0.773944243856D-07 0.000000000000D+00  6 2 2 25 2 2 21 2 0.11209640D+00 0.33508968D+00 0.63037990D+06 0.63037990D+06 0.63037990D+06 0.10614701D+01  1  2 15  2  6  2        2 -.478553563614D-04 0.100000000000D+01
0.100128749226D-03 0.000000000000D+00 0.000000000000D+00 0.773944243856D-07 0.000000000000D+00  6 2 2 25 2 2 21 2 0.11209640D+00 0.34252538D+00 0.63877543D+06 0.63877543D+06 0.63877543D+06 0.10610724D+01  1  2 12  2  6  2        2 0.354124463589D-03 0.100000000000D+01
0.114764748666D-08 0.000000000000D+00 0.000000000000D+00 0.773944243856D-07 0.000000000000D+00  6 2 2 25 2 2 21 2 0.11209640D+00 0.34177721D+00 0.63877543D+06 0.63877543D+06 0.63877543D+06 0.10610724D+01  1  2 12  2  6  2        2 0.408467689341D-08 0.100000000000D+01
-.552206606772D-04 0.000000000000D+00 0.000000000000D+00 0.773944243856D-07 0.000000000000D+00  6 2 2 25 2 2 21 2 0.11209640D+00 0.33508968D+00 0.63037990D+06 0.63037990D+06 0.63037990D+06 0.10614701D+01  1  2  4  2  6  2        2 -.208295456735D-03 0.100000000000D+01
-.298973477845D-02 0.000000000000D+00 -.174260321907D-03 0.773944243856D-07 0.000000000000D+00  6 2 2 25 2 2 21 2 0.11209640D+00 0.34165894D+00 0.63037990D+06 0.63037990D+06 0.63037990D+06 0.10614701D+01  1  2  5  2  6  2        2 -.106686372252D-01 0.100000000000D+01
0.299258682305D-02 0.000000000000D+00 0.174227484694D-03 0.773944243856D-07 0.000000000000D+00  6 2 2 25 2 2 21 2 0.11209640D+00 0.33508968D+00 0.63037990D+06 0.63037990D+06 0.63037990D+06 0.10614701D+01  1  2  6  2  6  2        2 0.112882068321D-01 0.100000000000D+01
0.692547432166D-05 0.000000000000D+00 0.000000000000D+00 0.773944243856D-07 0.000000000000D+00  6 2 21 25 2 2 -2 2 0.11209640D+00 0.34252538D+00 0.63877543D+06 0.63877543D+06 0.63877543D+06 0.10610724D+01  1  2 12  5  6  2        2 0.367045392675D-05 0.100000000000D+01
0.717003910579D-10 0.000000000000D+00 0.000000000000D+00 0.773944243856D-07 0.000000000000D+00  6 2 21 25 2 2 -2 2 0.11209640D+00 0.34177721D+00 0.63877543D+06 0.63877543D+06 0.63877543D+06 0.10610724D+01  1  2 12  5  6  2        2 0.384402487312D-10 0.100000000000D+01
-.106113024129D-04 0.000000000000D+00 -.616278503598D-06 0.773944243856D-07 0.000000000000D+00  6 2 21 25 2 2 -2 2 0.11209640D+00 0.34165894D+00 0.63037990D+06 0.63037990D+06 0.63037990D+06 0.10614701D+01  1  2  5  5  6  2        2 -.571210851501D-05 0.100000000000D+01
  </mgrwgt>
  </event>
  <event>
  6     66 -.18204334E-05 0.33506194E+02 0.75467711E-02 0.93075377E-01
        2 -1    0    0  501    0 0.00000000E+00 0.00000000E+00 0.87526528E+03 0.87526534E+03 0.32000000E+00 0.0000E+00 0.9000E+01
        2 -1    0    0  502    0 -.00000000E+00 -.00000000E+00 -.21013668E+04 0.21013668E+04 0.32000000E+00 0.0000E+00 0.9000E+01
       25  1    1    2    0    0 -.54652826E+03 -.12115095E+03 0.51393521E+03 0.77014615E+03 0.12500000E+03 0.0000E+00 0.9000E+01
        2  1    1    2  501    0 0.37514952E+02 -.25377536E+02 0.19454992E+03 0.19975276E+03 0.32000000E+00 0.0000E+00 0.9000E+01
        2  1    1    2  503    0 0.44636946E+03 0.12028236E+03 -.17505099E+04 0.18105244E+04 0.32000000E+00 0.0000E+00 0.9000E+01
       21  1    1    2  502  503 0.62643851E+02 0.26246123E+02 -.18407674E+03 0.19620887E+03 0.75000000E+00 0.0000E+00 0.9000E+01
#aMCatNLO 2  0  0  5  2 0.18382223D+02 0.00000000D+00  -5  6  0 0.00000000D+00 0.00000000D+00 0.00000000D+00 0.00000000D+00 0.00000000D+00
  <mgrwgt>
 -.1883469562D-02    6    2    0
 0.135619081351392D+04 0.000000000000000D+00 0.000000000000000D+00 0.135619081351392D+04
 0.135619081351392D+04 -.000000000000000D+00 -.000000000000000D+00 -.135619081351392D+04
 0.107826755259069D+04 -.546776614504471D+03 -.121248544704721D+03 0.912891033589400D+03
 0.307061851784553D+03 0.374241520897736D+02 -.253758916314839D+02 0.303714467527688D+03
 0.132705222265259D+04 0.509352462414698D+03 0.146624436336205D+03 -.121660550111709D+04
 0.000000000000000D+00 0.000000000000000D+00 0.000000000000000D+00 0.000000000000000D+00
 0.135619081351392D+04 0.000000000000000D+00 0.000000000000000D+00 0.135619081351392D+04
 0.135619081351392D+04 -.000000000000000D+00 -.000000000000000D+00 -.135619081351392D+04
 0.107770969980966D+04 -.546558842205287D+03 -.121185855814465D+03 0.912370877122652D+03
 0.306921429107203D+03 0.374861696971449D+02 -.253580389707141D+02 0.303566336384989D+03
 0.119572119629650D+04 0.446450472915724D+03 0.120300099990921D+03 -.110270532802206D+04
 0.132029301814472D+03 0.626221995924184D+02 0.262437947942588D+02 -.113231885485587D+03
-.134286545707D-02 0.000000000000D+00 0.000000000000D+00 0.572785437440D-05 0.000000000000D+00  6 2 2 25 2 2 21 2 0.13465620D+00 0.32328720D+00 0.33013584D+06 0.33013584D+06 0.33013584D+06 0.10814896D+01  1  2 13  3  6  5        2 -.477513062529D-02 0.100000000000D+01
-.230149443051D-09 0.000000000000D+00 0.000000000000D+00 0.572785437440D-05 0.000000000000D+00  6 2 2 25 2 2 21 2 0.13465620D+00 0.32328720D+00 0.33013584D+06 0.33013584D+06 0.33013584D+06 0.10814896D+01  1  2 13  3  6  5        2 -.818394462471D-09 0.100000000000D+01
-.630155129558D-06 0.000000000000D+00 0.000000000000D+00 0.572785437440D-05 0.000000000000D+00  6 2 2 25 2 2 21 2 0.13465620D+00 0.32328720D+00 0.33010274D+06 0.33010274D+06 0.33010274D+06 0.10814928D+01  1  2  8  3  6  5        2 -.224081351453D-05 0.100000000000D+01
-.103658629061D-05 0.000000000000D+00 0.000000000000D+00 0.572785437440D-05 0.000000000000D+00  6 2 2 25 2 2 21 2 0.13465620D+00 0.32328720D+00 0.33010274D+06 0.33010274D+06 0.33010274D+06 0.10814928D+01  1  2  9  3  6  5        2 -.368607103237D-05 0.100000000000D+01
0.114481917170D-05 0.000000000000D+00 0.000000000000D+00 0.572785437440D-05 0.000000000000D+00  6 2 2 25 2 2 21 2 0.13465620D+00 0.32328720D+00 0.33010274D+06 0.33010274D+06 0.33010274D+06 0.10814928D+01  1  2 10  3  6  5        2 0.407094404425D-05 0.100000000000D+01
0.813717034608D-03 0.000000000000D+00 0.000000000000D+00 0.572785437440D-05 0.500566219751D-07  6 2 2 25 2 2 21 2 0.13465620D+00 0.32328720D+00 0.33013584D+06 0.33013584D+06 0.33013584D+06 0.10814896D+01  1  2  1  3  6  5        2 0.289351782179D-02 0.100000000000D+01
  </mgrwgt>
  </event>
  <event>
  5     66 -.18204334E-05 0.89602259E+02 0.75467711E-02 0.90127383E-01
        2 -1    0    0  501    0 0.00000000E+00 0.00000000E+00 0.20273194E+04 0.20273195E+04 0.32000000E+00 0.0000E+00 0.9000E+01
        2 -1    0    0  502    0 0.00000000E+00 0.00000000E+00 -.16654254E+04 0.16654254E+04 0.32000000E+00 0.0000E+00 0.9000E+01
       25  1    1    2    0    0 0.62713810E+03 0.41043727E+03 -.68719925E+02 0.76296027E+03 0.12500000E+03 0.0000E+00 0.9000E+01
        2  1    1    2  501    0 -.56266012E+03 -.34822792E+03 0.16132907E+04 0.17437190E+04 0.32000000E+00 0.0000E+00 0.9000E+01
        2  1    1    2  502    0 -.64477976E+02 -.62209348E+02 -.11826767E+04 0.11860656E+04 0.32000000E+00 0.0000E+00 0.9000E+01
#aMCatNLO 1  0  0  1  4 0.83835404D+01 0.00000000D+00  -5  6  0 0.00000000D+00 0.00000000D+00 0.00000000D+00 0.00000000D+00 0.00000000D+00
  <mgrwgt>
 -.1829062530D-02   13    2    0
 0.183748452582003D+04 0.000000000000000D+00 0.000000000000000D+00 0.183748452582003D+04
 0.183748452582003D+04 0.000000000000000D+00 0.000000000000000D+00 -.183748452582003D+04
 0.773395025838822D+03 0.627131212574130D+03 0.410434535383557D+03 -.144099966592700D+03
 0.159325116923394D+04 -.562648561699807D+03 -.348220770744640D+03 0.144935095097926D+04
 0.130832285656729D+04 -.644826508743229D+02 -.622137646389179D+02 -.130525098438656D+04
 0.000000000000000D+00 -.000000000000000D+00 0.000000000000000D+00 0.000000000000000D+00
 0.219667435146484D+04 0.000000000000000D+00 0.000000000000000D+00 0.219667435146484D+04
 0.183753822596207D+04 0.000000000000000D+00 0.000000000000000D+00 -.183753822596207D+04
 0.774397436811407D+03 0.628779548877742D+03 0.409802231181290D+03 -.144099966592700D+03
 0.159234142821318D+04 -.559256034566100D+03 -.349522149084878D+03 0.144935095097926D+04
 0.130823974909850D+04 -.616961176422082D+02 -.632826828375663D+02 -.130525098438656D+04
 0.359233963303821D+03 -.782739666943347D+01 0.300260074115383D+01 0.359136125502768D+03
0.579584047628D-05 0.000000000000D+00 0.000000000000D+00 0.139714880169D-04 0.000000000000D+00  6 2 2 25 2 2 21 0 0.31189530D+00 0.25621929D+00 0.57088779D+06 0.57088779D+06 0.57088779D+06 0.10644645D+01  1  2  2  1  6  1        2 0.641298084202D-05 0.100000000000D+01
0.222566797975D-05 0.000000000000D+00 -.222575535088D-07 0.139714880169D-04 0.000000000000D+00  6 2 2 25 2 2 21 2 0.31189530D+00 0.25621929D+00 0.57088779D+06 0.57088779D+06 0.57088779D+06 0.10644645D+01  1  2  3  1  6  1        2 0.279039890888D-05 0.100000000000D+01
-.383438210250D-05 0.000000000000D+00 0.000000000000D+00 0.139714880169D-04 0.000000000000D+00  6 2 2 25 2 2 21 2 0.31189530D+00 0.25621929D+00 0.57088779D+06 0.57088779D+06 0.57088779D+06 0.10644645D+01  1  2 15  1  6  1        2 -.480730087884D-05 0.100000000000D+01
0.197989980667D-01 0.000000000000D+00 0.000000000000D+00 0.139714880169D-04 0.000000000000D+00  6 2 2 25 2 2 21 2 0.37299006D+00 0.25621929D+00 0.57542147D+06 0.57542147D+06 0.57542147D+06 0.10642246D+01  1  2 12  1  6  1        2 0.147799377452D-01 0.100000000000D+01
0.140992512488D-09 0.000000000000D+00 0.000000000000D+00 0.139714880169D-04 0.000000000000D+00  6 2 2 25 2 2 21 2 0.37287033D+00 0.25621929D+00 0.57542147D+06 0.57542147D+06 0.57542147D+06 0.10642246D+01  1  2 12  1  6  1        2 0.105360028101D-09 0.100000000000D+01
-.209804395777D-01 0.000000000000D+00 0.000000000000D+00 0.139714880169D-04 0.000000000000D+00  6 2 2 25 2 2 21 2 0.31189530D+00 0.25621929D+00 0.57088779D+06 0.57088779D+06 0.57088779D+06 0.10644645D+01  1  2  4  1  6  1        2 -.263039214466D-01 0.100000000000D+01
-.198837675951D-01 0.000000000000D+00 -.647158176322D-05 0.139714880169D-04 0.000000000000D+00  6 2 2 25 2 2 21 2 0.37286743D+00 0.25621929D+00 0.57088779D+06 0.57088779D+06 0.57088779D+06 0.10644645D+01  1  2  5  1  6  1        2 -.148764876755D-01 0.100000000000D+01
0.195721945524D-01 0.000000000000D+00 0.636977110686D-05 0.139714880169D-04 0.000000000000D+00  6 2 2 25 2 2 21 2 0.31189530D+00 0.25621929D+00 0.57088779D+06 0.57088779D+06 0.57088779D+06 0.10644645D+01  1  2  6  1  6  1        2 0.245383546964D-01 0.100000000000D+01
0.386298451077D-04 0.000000000000D+00 0.000000000000D+00 0.139714880169D-04 0.134385707116D-05  6 2 2 25 2 2 21 2 0.37286432D+00 0.25622678D+00 0.57542147D+06 0.57542147D+06 0.57542147D+06 0.10642246D+01  1  2 11  1  6  1        2 0.288667950370D-04 0.100000000000D+01
0.519640440886D-03 0.000000000000D+00 0.000000000000D+00 0.139714880169D-04 0.000000000000D+00  6 21 2 25 2 2 -2 2 0.37299006D+00 0.25621929D+00 0.57542147D+06 0.57542147D+06 0.57542147D+06 0.10642246D+01  1  2 12  4  6  1        2 0.473937934911D-04 0.100000000000D+01
0.369525572334D-11 0.000000000000D+00 0.000000000000D+00 0.139714880169D-04 0.000000000000D+00  6 21 2 25 2 2 -2 2 0.37287033D+00 0.25621929D+00 0.57542147D+06 0.57542147D+06 0.57542147D+06 0.10642246D+01  1  2 12  4  6  1        2 0.337653653890D-12 0.100000000000D+01
-.521052298061D-03 0.000000000000D+00 -.169607123861D-06 0.139714880169D-04 0.000000000000D+00  6 21 2 25 2 2 -2 2 0.37286743D+00 0.25621929D+00 0.57088779D+06 0.57088779D+06 0.57088779D+06 0.10644645D+01  1  2  5  4  6  1        2 -.476893428596D-04 0.100000000000D+01
0.949032579935D-06 0.000000000000D+00 0.000000000000D+00 0.139714880169D-04 0.330055775297D-07  6 21 2 25 2 2 -2 2 0.37286432D+00 0.25622678D+00 0.57542147D+06 0.57542147D+06 0.57542147D+06 0.10642246D+01  1  2 11  4  6  1        2 0.867205085703D-07 0.100000000000D+01
  </mgrwgt>
  </event>
  <event>
  5     66 0.18204334E-05 0.92273615E+02 0.75467711E-02 0.83893484E-01
        2 -1    0    0  501    0 0.00000000E+00 0.00000000E+00 0.35031652E+04 0.35031652E+04 0.32000000E+00 0.0000E+00 0.9000E+01
        2 -1    0    0  502    0 0.00000000E+00 0.00000000E+00 -.86242521E+03 0.86242527E+03 0.32000000E+00 0.0000E+00 0.9000E+01
       25  1    1    2    0    0 0.14929681E+03 -.96982322E+03 0.17598378E+04 0.20187869E+04 0.12500000E+03 0.0000E+00 0.9000E+01
        2  1    1    2  501    0 0.58337963E+02 0.71526989E+02 0.13216646E+04 0.13248838E+04 0.32000000E+00 0.0000E+00 0.9000E+01
        2  1    1    2  502    0 -.20763477E+03 0.89829623E+03 -.44076249E+03 0.10219198E+04 0.32000000E+00 0.0000E+00 0.9000E+01
#aMCatNLO 1  0  0  1  4 0.83835404D+01 0.00000000D+00  -5  6  0 0.00000000D+00 0.00000000D+00 0.00000000D+00 0.00000000D+00 0.00000000D+00
  <mgrwgt>
 0.4627062108D-03    7    2    0
 0.173816516137618D+04 0.000000000000000D+00 0.000000000000000D+00 0.173816516137618D+04
 0.173816516137618D+04 0.000000000000000D+00 0.000000000000000D+00 -.173816516137618D+04
 0.119852432309821D+04 0.149329731710148D+03 -.969887013549646D+03 0.676650105470427D+03
 0.659618766177767D+03 0.583208140996827D+02 0.715059630419645D+02 0.653132832267733D+03
 0.161818723347638D+04 -.207650545809830D+03 0.898381050507681D+03 -.132978293773816D+04
 0.000000000000000D+00 -.000000000000000D+00 0.000000000000000D+00 0.000000000000000D+00
 0.243055243857440D+04 0.000000000000000D+00 0.000000000000000D+00 0.243055243857440D+04
 0.199834747529092D+04 0.000000000000000D+00 0.000000000000000D+00 -.199834747529092D+04
 0.129659555439147D+04 0.413260452513512D+03 -.101828064148491D+04 0.676650105470427D+03
 0.684731059110944D+03 0.200524490003745D+03 0.454318790483275D+02 0.653132832267733D+03
 0.157635435045209D+04 0.130264145379611D+03 0.836421920515137D+03 -.132978293773816D+04
 0.871218949910811D+03 -.744049087896869D+03 0.136426841921445D+03 0.432204963283482D+03
0.719537229075D-03 0.000000000000D+00 0.000000000000D+00 0.687134381760D-06 0.000000000000D+00  6 2 2 25 2 2 21 0 0.53894849D+00 0.13268081D+00 0.10035884D+07 0.10035884D+07 0.10035884D+07 0.10477604D+01  1  2  2  1  6  1        2 0.274127804261D-03 0.100000000000D+01
0.213481541667D-03 0.000000000000D+00 -.276321241815D-05 0.687134381760D-06 0.000000000000D+00  6 2 2 25 2 2 21 2 0.53894849D+00 0.13268081D+00 0.10035884D+07 0.10035884D+07 0.10035884D+07 0.10477604D+01  1  2  3  1  6  1        2 0.892861558091D-04 0.100000000000D+01
-.439242237783D-03 0.000000000000D+00 0.000000000000D+00 0.687134381760D-06 0.000000000000D+00  6 2 2 25 2 2 21 2 0.53894849D+00 0.13268081D+00 0.10035884D+07 0.10035884D+07 0.10035884D+07 0.10477604D+01  1  2 15  1  6  1        2 -.183707924228D-03 0.100000000000D+01
-.749980293879D-05 0.000000000000D+00 0.000000000000D+00 0.687134381760D-06 0.000000000000D+00  6 2 2 25 2 2 21 2 0.53894849D+00 0.13268081D+00 0.10035884D+07 0.10035884D+07 0.10035884D+07 0.10477604D+01  1  2  4  1  6  1        2 -.313670478722D-05 0.100000000000D+01
-.602886404575D-03 0.000000000000D+00 -.310199374348D-03 0.687134381760D-06 0.000000000000D+00  6 2 2 25 2 2 21 2 0.76643312D+00 0.13268081D+00 0.10035884D+07 0.10035884D+07 0.10035884D+07 0.10477604D+01  1  2  5  1  6  1        2 -.102127740771D-04 0.100000000000D+01
0.708571163528D-03 0.000000000000D+00 0.307154207467D-03 0.687134381760D-06 0.000000000000D+00  6 2 2 25 2 2 21 2 0.53894849D+00 0.13268081D+00 0.10035884D+07 0.10035884D+07 0.10035884D+07 0.10477604D+01  1  2  6  1  6  1        2 0.296351594684D-03 0.100000000000D+01
-.173077795061D-04 0.000000000000D+00 -.134589426174D-04 0.687134381760D-06 0.000000000000D+00  6 21 2 25 2 2 -2 2 0.76643312D+00 0.13268081D+00 0.10035884D+07 0.10035884D+07 0.10035884D+07 0.10477604D+01  1  2  5  4  6  1        2 -.194083217221D-08 0.100000000000D+01
  </mgrwgt>
  </event>
  <event>
  5     66 -.18204334E-05 0.12754152E+02 0.75467711E-02 0.90676424E-01
        2 -1    0    0  501    0 0.00000000E+00 0.00000000E+00 0.96406066E+03 0.96406072E+03 0.32000000E+00 0.0000E+00 0.9000E+01
        2 -1    0    0  502    0 -.00000000E+00 -.00000000E+00 -.11864584E+04 0.11864585E+04 0.32000000E+00 0.0000E+00 0.9000E+01
       25  1    1    2    0    0 -.69005812E+03 -.12890297E+03 -.62416382E+03 0.94762949E+03 0.12500000E+03 0.0000E+00 0.9000E+01
        2  1    1    2  501    0 0.69942444E+03 0.13756284E+03 0.64380041E+03 0.96051921E+03 0.32000000E+00 0.0000E+00 0.9000E+01
        2  1    1    2  502    0 -.93663256E+01 -.86598696E+01 -.24203434E+03 0.24237047E+03 0.32000000E+00 0.0000E+00 0.9000E+01
#aMCatNLO 1  0  0  5  2 0.75341357D+01 0.00000000D+00  -5  6  0 0.00000000D+00 0.00000000D+00 0.00000000D+00 0.00000000D+00 0.00000000D+00
  <mgrwgt>
 -.1593755294D-02    1    2    0
 0.106949427046192D+04 0.000000000000000D+00 0.000000000000000D+00 0.106949427046192D+04
 0.106949427046192D+04 -.000000000000000D+00 -.000000000000000D+00 -.106949427046192D+04
 0.887876581136848D+03 -.690065348742290D+03 -.128905305622935D+03 -.529049203740727D+03
 0.103264330018565D+04 0.699429997466563D+03 0.137563929025065D+03 0.747145253276380D+03
 0.218468659601342D+03 -.936464872427278D+01 -.865862340212924D+01 -.218096049535653D+03
 0.000000000000000D+00 0.000000000000000D+00 0.000000000000000D+00 -.000000000000000D+00
 0.106949427046192D+04 0.000000000000000D+00 0.000000000000000D+00 0.106949427046192D+04
 0.106949427046192D+04 -.000000000000000D+00 -.000000000000000D+00 -.106949427046192D+04
 0.889990681138912D+03 -.690208051794783D+03 -.129037249919646D+03 -.532372656965897D+03
 0.102972448212595D+04 0.699264458573901D+03 0.137410870541808D+03 0.743289969474800D+03
 0.171580644515765D+03 -.293131803946276D+02 -.155525937926940D+02 -.168341236344268D+03
 0.476927331432159D+02 0.202567736155096D+02 0.717897317053209D+01 -.425760761646347D+02
-.167318806388D-03 0.000000000000D+00 0.000000000000D+00 0.165432009811D-05 0.000000000000D+00  6 2 2 25 2 2 21 2 0.14831703D+00 0.18253207D+00 0.51741252D+06 0.51741252D+06 0.51741252D+06 0.10674613D+01  1  2 14  3  6  5        2 -.159375529415D-02 0.100000000000D+01
  </mgrwgt>
  </event>
  <event>
  5     66 0.18204334E-05 0.45243028E+02 0.75467711E-02 0.83610818E-01
        2 -1    0    0  501    0 0.00000000E+00 0.00000000E+00 0.74662461E+03 0.74662468E+03 0.32000000E+00 0.0000E+00 0.9000E+01
        2 -1    0    0  502    0 0.00000000E+00 0.00000000E+00 -.27796750E+04 0.27796750E+04 0.32000000E+00 0.0000E+00 0.9000E+01
       25  1    1    2    0    0 0.26903692E+03 0.54334357E+03 -.40800245E+03 0.74141358E+03 0.12500000E+03 0.0000E+00 0.9000E+01
        2  1    1    2  501    0 -.27953645E+03 -.58734758E+03 0.39718264E+03 0.76214956E+03 0.32000000E+00 0.0000E+00 0.9000E+01
        2  1    1    2  502    0 0.10499522E+02 0.44004011E+02 -.20222306E+04 0.20227366E+04 0.32000000E+00 0.0000E+00 0.9000E+01
#aMCatNLO 1  0  0  2  2 0.63928580D+02 0.00000000D+00  -5  6  0 0.00000000D+00 0.00000000D+00 0.00000000D+00 0.00000000D+00 0.00000000D+00
  <mgrwgt>
 0.7991106635D-02    3    2    0
 0.144061581434462D+04 0.000000000000000D+00 0.000000000000000D+00 0.144061581434462D+04
 0.144061581434462D+04 0.000000000000000D+00 0.000000000000000D+00 -.144061581434462D+04
 0.619491620608818D+03 0.269027263351745D+03 0.543321375091133D+03 0.238973418415201D+02
 0.121300543128720D+04 -.279527619994067D+03 -.587329034357022D+03 0.102386087501864D+04
 0.104873457679323D+04 0.105003566423221D+02 0.440076592658888D+02 -.104775821686016D+04
 0.000000000000000D+00 -.000000000000000D+00 0.000000000000000D+00 0.000000000000000D+00
 0.287403654340589D+04 0.000000000000000D+00 0.000000000000000D+00 0.287403654340589D+04
 0.180388986269363D+04 0.000000000000000D+00 0.000000000000000D+00 -.180388986269363D+04
 0.736554025483723D+03 0.526753555416595D+03 0.498845107588680D+03 0.238973418415201D+02
 0.123639139082763D+04 0.185997978335241D+03 -.667665583937010D+03 0.102386087501864D+04
 0.113091671402687D+04 0.424758863939718D+03 -.274816406348370D+02 -.104775821686016D+04
 0.157406427576130D+04 -.113751039769155D+04 0.196302116983167D+03 0.107014668071226D+04
0.631757234563D-02 0.000000000000D+00 0.000000000000D+00 0.151092418863D-04 0.000000000000D+00  6 2 2 25 2 2 21 0 0.11486533D+00 0.42764231D+00 0.43212747D+06 0.43212747D+06 0.43212747D+06 0.10730172D+01  1  2  2  2  6  2        2 0.938439638587D-02 0.100000000000D+01
0.368612077536D-02 0.000000000000D+00 -.242611412622D-04 0.151092418863D-04 0.000000000000D+00  6 2 2 25 2 2 21 2 0.11486533D+00 0.42764231D+00 0.43212747D+06 0.43212747D+06 0.43212747D+06 0.10730172D+01  1  2  3  2  6  2        2 0.630433184887D-02 0.100000000000D+01
-.450077241779D-02 0.000000000000D+00 0.000000000000D+00 0.151092418863D-04 0.000000000000D+00  6 2 2 25 2 2 21 2 0.11486533D+00 0.42764231D+00 0.43212747D+06 0.43212747D+06 0.43212747D+06 0.10730172D+01  1  2 15  2  6  2        2 -.769762159928D-02 0.100000000000D+01
  </mgrwgt>
  </event>
  <event>
  6     66 0.18204334E-05 0.91252494E+02 0.75467711E-02 0.91414690E-01
        2 -1    0    0  503    0 0.00000000E+00 0.00000000E+00 0.12126092E+04 0.12126092E+04 0.32000000E+00 0.0000E+00 0.9000E+01
        2 -1    0    0  502    0 0.00000000E+00 0.00000000E+00 -.90345153E+03 0.90345158E+03 0.32000000E+00 0.0000E+00 0.9000E+01
       25  1    1    2    0    0 -.86241973E+02 0.55840112E+03 0.63257523E+03 0.85733652E+03 0.12500000E+03 0.0000E+00 0.9000E+01
        2  1    1    2  501    0 0.28612023E+03 -.44793954E+03 -.21537569E+03 0.57349927E+03 0.32000000E+00 0.0000E+00 0.9000E+01
        2  1    1    2  502    0 -.11187217E+03 -.80353939E+02 -.37660854E+03 0.40100652E+03 0.32000000E+00 0.0000E+00 0.9000E+01
       21  1    1    2  503  501 -.88006094E+02 -.30107636E+02 0.26856667E+03 0.28421851E+03 0.75000000E+00 0.0000E+00 0.9000E+01
#aMCatNLO 2  0  0  1  4 0.93013667D+02 0.00000000D+00  -5  6  0 0.00000000D+00 0.00000000D+00 0.00000000D+00 0.00000000D+00 0.00000000D+00
  <mgrwgt>
 0.5714983970D-03    3    2    0
 0.914514498810846D+03 0.000000000000000D+00 0.000000000000000D+00 0.914514498810846D+03
 0.914514498810846D+03 0.000000000000000D+00 0.000000000000000D+00 -.914514498810846D+03
 0.839569854621668D+03 -.126641925771842D+03 0.544490568974175D+03 0.613795066552695D+03
 0.572662718544164D+03 0.258395525649758D+03 -.457324504150374D+03 -.228097872498172D+03
 0.416796424455860D+03 -.131753599877916D+03 -.871660648238009D+02 -.385697194054523D+03
 0.000000000000000D+00 -.000000000000000D+00 -.000000000000000D+00 0.000000000000000D+00
 0.118603012856066D+04 0.000000000000000D+00 0.000000000000000D+00 0.118603012856066D+04
 0.923697061529011D+03 0.000000000000000D+00 0.000000000000000D+00 -.923697061529011D+03
 0.843524093411461D+03 -.861759514727530D+02 0.558334324423070D+03 0.613795066552695D+03
 0.578307752381655D+03 0.286067861795891D+03 -.447857561590799D+03 -.228097872498172D+03
 0.409560688982432D+03 -.111885816648500D+03 -.803691264798283D+02 -.385697194054523D+03
 0.278334655314118D+03 -.880060936746375D+02 -.301076363524421D+02 0.262333067031644D+03
-.182333471572D-03 0.000000000000D+00 0.000000000000D+00 0.160484408364D-08 0.000000000000D+00  6 2 2 25 2 2 21 2 0.18816009D+00 0.13761074D+00 0.44944010D+06 0.44944010D+06 0.44944010D+06 0.10717980D+01  1  2 13  1  6  1        2 -.186209274586D-02 0.100000000000D+01
-.146737371321D-05 0.000000000000D+00 0.000000000000D+00 0.160484408364D-08 0.000000000000D+00  6 2 2 25 2 2 21 2 0.18815614D+00 0.13761074D+00 0.44944010D+06 0.44944010D+06 0.44944010D+06 0.10717980D+01  1  2 13  1  6  1        2 -.149861661834D-04 0.100000000000D+01
0.239678291806D-03 0.000000000000D+00 0.000000000000D+00 0.160484408364D-08 0.153905881094D-11  6 2 2 25 2 2 21 2 0.18655517D+00 0.13899247D+00 0.44944010D+06 0.44944010D+06 0.44944010D+06 0.10717980D+01  1  2  1  1  6  1        2 0.244857730902D-02 0.100000000000D+01
  </mgrwgt>
  </event>
  <event>
  5     66 -.18204334E-05 0.37388190E+02 0.75467711E-02 0.92419347E-01
        2 -1    0    0  501    0 0.00000000E+00 0.00000000E+00 0.74993952E+03 0.74993959E+03 0.32000000E+00 0.0000E+00 0.9000E+01
        2 -1    0    0  502    0 -.00000000E+00 -.00000000E+00 -.26346588E+04 0.26346588E+04 0.32000000E+00 0.0000E+00 0.9000E+01
       25  1    1    2    0    0 -.35490700E+03 -.44199374E+03 -.16123585E+04 0.17136635E+04 0.12500000E+03 0.0000E+00 0.9000E+01
        2  1    1    2  501    0 0.38593674E+03 0.46286398E+03 0.56895149E+03 0.82879197E+03 0.32000000E+00 0.0000E+00 0.9000E+01
        2  1    1    2  502    0 -.31029743E+02 -.20870238E+02 -.84131219E+03 0.84214293E+03 0.32000000E+00 0.0000E+00 0.9000E+01
#aMCatNLO 1  0  0  5  2 0.61094191D+00 0.00000000D+00  -5  6  0 0.00000000D+00 0.00000000D+00 0.00000000D+00 0.00000000D+00 0.00000000D+00
  <mgrwgt>
 -.6539245391D-01    9    2    0
 0.140564393684590D+04 0.000000000000000D+00 0.000000000000000D+00 0.140564393684590D+04
 0.140564393684590D+04 -.000000000000000D+00 -.000000000000000D+00 -.140564393684590D+04
 0.982288691799547D+03 -.354915411167265D+03 -.442000546780301D+03 -.792424533693368D+03
 0.137924898197702D+04 0.385939160544908D+03 0.462866876789539D+03 0.124061798028790D+04
 0.449750199915231D+03 -.310237493776428D+02 -.208663300092387D+02 -.448193446594536D+03
 0.000000000000000D+00 0.000000000000000D+00 0.000000000000000D+00 -.000000000000000D+00
 0.140564393684590D+04 0.000000000000000D+00 0.000000000000000D+00 0.140564393684590D+04
 0.140564393684590D+04 -.000000000000000D+00 -.000000000000000D+00 -.140564393684590D+04
 0.982289418172183D+03 -.354915470133910D+03 -.442000586440803D+03 -.792425385571827D+03
 0.137924786421002D+04 0.385939077748859D+03 0.462866821101568D+03 0.124061678415117D+04
 0.352393440011743D+03 -.248946049189333D+02 -.165133355149156D+02 -.351124913612538D+03
 0.973571512978522D+02 -.612900269601628D+01 -.435289914584974D+01 -.970664849668060D+02
0.836517628737D-05 0.000000000000D+00 0.000000000000D+00 0.107690392821D-04 0.000000000000D+00  6 2 2 25 2 2 21 0 0.11537532D+00 0.40533212D+00 0.37241873D+06 0.37241873D+06 0.37241873D+06 0.10776716D+01  1  2  2  3  6  5        2 0.152776642901D-04 0.100000000000D+01
0.300817953803D-05 0.000000000000D+00 -.321244795450D-07 0.107690392821D-04 0.000000000000D+00  6 2 2 25 2 2 21 2 0.11537532D+00 0.40533212D+00 0.37241873D+06 0.37241873D+06 0.37241873D+06 0.10776716D+01  1  2  3  3  6  5        2 0.638055559588D-05 0.100000000000D+01
-.555672358361D-05 0.000000000000D+00 0.000000000000D+00 0.107690392821D-04 0.000000000000D+00  6 2 2 25 2 2 21 2 0.11537532D+00 0.40533212D+00 0.37241873D+06 0.37241873D+06 0.37241873D+06 0.10776716D+01  1  2 15  3  6  5        2 -.117861927149D-04 0.100000000000D+01
0.438843141426D-08 0.000000000000D+00 0.000000000000D+00 0.107690392821D-04 0.000000000000D+00  6 2 2 25 2 2 21 2 0.11537532D+00 0.40533212D+00 0.37242046D+06 0.37242046D+06 0.37242046D+06 0.10776715D+01  1  2 12  3  6  5        2 0.930815891679D-08 0.100000000000D+01
0.240169415618D-15 0.000000000000D+00 0.000000000000D+00 0.107690392821D-04 0.000000000000D+00  6 2 2 25 2 2 21 2 0.11537532D+00 0.40533212D+00 0.37242046D+06 0.37242046D+06 0.37242046D+06 0.10776715D+01  1  2 12  3  6  5        2 0.509415523793D-15 0.100000000000D+01
-.442930215037D+00 0.000000000000D+00 0.000000000000D+00 0.107690392821D-04 0.000000000000D+00  6 2 2 25 2 2 21 2 0.11537532D+00 0.40533212D+00 0.37241873D+06 0.37241873D+06 0.37241873D+06 0.10776716D+01  1  2  4  3  6  5        2 -.939485435098D+00 0.100000000000D+01
-.269459522580D+00 0.000000000000D+00 0.000000000000D+00 0.107690392821D-04 0.000000000000D+00  6 2 2 25 2 2 21 2 0.11537532D+00 0.40533212D+00 0.37241873D+06 0.37241873D+06 0.37241873D+06 0.10776716D+01  1  2  5  3  6  5        2 -.571542171246D+00 0.100000000000D+01
0.366187341448D+00 0.000000000000D+00 -.000000000000D+00 0.107690392821D-04 0.000000000000D+00  6 2 2 25 2 2 21 2 0.11537532D+00 0.40533212D+00 0.37241873D+06 0.37241873D+06 0.37241873D+06 0.10776716D+01  1  2  6  3  6  5        2 0.776708524567D+00 0.100000000000D+01
0.315367978809D+00 0.000000000000D+00 0.000000000000D+00 0.107690392821D-04 0.132263016526D-03  6 2 2 25 2 2 21 2 0.11537532D+00 0.40533212D+00 0.37242046D+06 0.37242046D+06 0.37242046D+06 0.10776715D+01  1  2 11  3  6  5        2 0.668916746535D+00 0.100000000000D+01
  </mgrwgt>
  </event>
  <event>
  5     66 0.18204334E-05 0.26851736E+02 0.75467711E-02 0.83692486E-01
        2 -1    0    0  501    0 0.00000000E+00 0.00000000E+00 0.73989945E+03 0.73989952E+03 0.32000000E+00 0.0000E+00 0.9000E+01
        2 -1    0    0  502    0 0.00000000E+00 0.00000000E+00 -.23675431E+04 0.23675432E+04 0.32000000E+00 0.0000E+00 0.9000E+01
       25  1    1    2    0    0 -.70595521E+03 -.50133308E+03 -.89600883E+03 0.12522637E+04 0.12500000E+03 0.0000E+00 0.9000E+01
        2  1    1    2  501    0 0.68324720E+03 0.51565980E+03 0.23539689E+03 0.88777450E+03 0.32000000E+00 0.0000E+00 0.9000E+01
        2  1    1    2  502    0 0.22708002E+02 -.14326716E+02 -.96703175E+03 0.96740447E+03 0.32000000E+00 0.0000E+00 0.9000E+01
#aMCatNLO 1  0  0  2  5 0.28629692D+03 0.00000000D+00  -5  6  0 0.00000000D+00 0.00000000D+00 0.00000000D+00 0.00000000D+00 0.00000000D+00
  <mgrwgt>
 0.2686232952D-02    3    2    0
 0.132353467151619D+04 0.000000000000000D+00 0.000000000000000D+00 0.132353467151619D+04
 0.132353467151619D+04 0.000000000000000D+00 0.000000000000000D+00 -.132353467151619D+04
 0.919081335964462D+03 -.705946194037622D+03 -.501324014023885D+03 -.281779534751896D+03
 0.118689782233155D+04 0.683236398261461D+03 0.515651640825347D+03 0.822203046734936D+03
 0.541090184736371D+03 0.227097957761615D+02 -.143276268014615D+02 -.540423511983040D+03
 0.000000000000000D+00 0.000000000000000D+00 0.000000000000000D+00 0.000000000000000D+00
 0.196047869440003D+04 0.000000000000000D+00 0.000000000000000D+00 0.196047869440003D+04
 0.190967527787695D+04 0.000000000000000D+00 0.000000000000000D+00 -.190967527787695D+04
 0.131943792799606D+04 -.107827410862586D+04 -.695137890131629D+03 -.281779534751896D+03
 0.945294422245547D+03 0.328593619570324D+03 0.331043694768535D+03 0.822203046734936D+03
 0.575269242238902D+03 -.162971776890416D+03 -.110983461376988D+03 -.540423511983040D+03
 0.103015237979647D+04 0.912652265945948D+03 0.475077656740081D+03 0.508034165230818D+02
0.915002318773D-03 0.000000000000D+00 0.000000000000D+00 0.229210914378D-05 0.000000000000D+00  6 2 2 25 2 2 21 0 0.11383069D+00 0.36423741D+00 0.77233880D+06 0.77233880D+06 0.77233880D+06 0.10554149D+01  1  2  2  2  6  2        2 0.231247194679D-02 0.100000000000D+01
0.657280795706D-03 0.000000000000D+00 -.351384982973D-05 0.229210914378D-05 0.000000000000D+00  6 2 2 25 2 2 21 2 0.11383069D+00 0.36423741D+00 0.77233880D+06 0.77233880D+06 0.77233880D+06 0.10554149D+01  1  2  3  2  6  2        2 0.185034043569D-02 0.100000000000D+01
-.524512832573D-03 0.000000000000D+00 0.000000000000D+00 0.229210914378D-05 0.000000000000D+00  6 2 2 25 2 2 21 2 0.11383069D+00 0.36423741D+00 0.77233880D+06 0.77233880D+06 0.77233880D+06 0.10554149D+01  1  2 15  2  6  2        2 -.147657943072D-02 0.100000000000D+01
  </mgrwgt>
  </event>
  <event>
  5     66 0.18204334E-05 0.12201473E+03 0.75467711E-02 0.92775482E-01
        2 -1    0    0  501    0 0.00000000E+00 0.00000000E+00 0.57463449E+03 0.57463458E+03 0.32000000E+00 0.0000E+00 0.9000E+01
        2 -1    0    0  502    0 -.00000000E+00 -.00000000E+00 -.22721578E+04 0.22721578E+04 0.32000000E+00 0.0000E+00 0.9000E+01
       25  1    1    2    0    0 0.36995597E+03 0.28339788E+03 0.15555035E+03 0.50695432E+03 0.12500000E+03 0.0000E+00 0.9000E+01
        2  1    1    2  501    0 0.50106194E+02 0.11131567E+03 0.18509756E+03 0.22172736E+03 0.32000000E+00 0.0000E+00 0.9000E+01
        2  1    1    2  502    0 -.42006216E+03 -.39471355E+03 -.20381712E+04 0.21181107E+04 0.32000000E+00 0.0000E+00 0.9000E+01
#aMCatNLO 1  0  0  5  1 0.44152571D+03 0.00000000D+00  -5  6  0 0.00000000D+00 0.00000000D+00 0.00000000D+00 0.00000000D+00 0.00000000D+00
  <mgrwgt>
 0.1586833213D-02    3    2    0
 0.114265496774991D+04 0.000000000000000D+00 0.000000000000000D+00 0.114265496774991D+04
 0.114265496774991D+04 -.000000000000000D+00 -.000000000000000D+00 -.114265496774991D+04
 0.747243873172104D+03 0.370034009654945D+03 0.283497621267186D+03 0.570484299895956D+03
 0.413496567184818D+03 0.500822880852488D+02 0.111262562592351D+03 0.395084570262062D+03
 0.112456949514291D+04 -.420116297740194D+03 -.394760183859538D+03 -.965568870158018D+03
 0.000000000000000D+00 0.000000000000000D+00 0.000000000000000D+00 0.000000000000000D+00
 0.114265496774991D+04 0.000000000000000D+00 0.000000000000000D+00 0.114265496774991D+04
 0.114265496774991D+04 -.000000000000000D+00 -.000000000000000D+00 -.114265496774991D+04
 0.612676258649015D+03 0.318088872915424D+03 0.234687632604039D+03 0.451096865365147D+03
 0.340194093626321D+03 0.212934176809945D+02 0.842112441002515D+02 0.328918041567782D+03
 0.473902080566443D+03 -.241362074236627D+03 0.335080168012222D+03 -.232484003944997D+03
 0.858537502658051D+03 -.980202163597914D+02 -.653979044716513D+03 -.547530902987932D+03
0.148779211512D-02 0.000000000000D+00 0.000000000000D+00 0.388825009157D-06 0.000000000000D+00  6 2 2 25 2 2 21 0 0.88405315D-01 0.34956274D+00 0.34875950D+06 0.34875950D+06 0.34875950D+06 0.10797458D+01  1  2  2  3  6  5        2 0.609594496521D-02 0.100000000000D+01
0.142209196190D-03 0.000000000000D+00 -.571351346673D-05 0.388825009157D-06 0.000000000000D+00  6 2 2 25 2 2 21 2 0.88405315D-01 0.34956274D+00 0.34875950D+06 0.34875950D+06 0.34875950D+06 0.10797458D+01  1  2  3  3  6  5        2 0.679312414806D-03 0.100000000000D+01
-.108615949624D-02 0.000000000000D+00 0.000000000000D+00 0.388825009157D-06 0.000000000000D+00  6 2 2 25 2 2 21 2 0.88405315D-01 0.34956274D+00 0.34875950D+06 0.34875950D+06 0.34875950D+06 0.10797458D+01  1  2 15  3  6  5        2 -.518842416683D-02 0.100000000000D+01
  </mgrwgt>
  </event>
  <event>
  5     66 0.18204334E-05 0.19243617E+03 0.75467711E-02 0.94798367E-01
        2 -1    0    0  501    0 0.00000000E+00 0.00000000E+00 0.19730919E+04 0.19730919E+04 0.32000000E+00 0.0000E+00 0.9000E+01
        2 -1    0    0  502    0 0.00000000E+00 0.00000000E+00 -.12849164E+04 0.12849165E+04 0.32000000E+00 0.0000E+00 0.9000E+01
       25  1    1    2    0    0 -.11681387E+03 0.44087656E+03 0.18283691E+03 0.50702264E+03 0.12500000E+03 0.0000E+00 0.9000E+01
        2  1    1    2  501    0 -.38097250E+02 -.24103047E+03 0.16045841E+04 0.16230333E+04 0.32000000E+00 0.0000E+00 0.9000E+01
        2  1    1    2  502    0 0.15491112E+03 -.19984609E+03 -.10992455E+04 0.11279524E+04 0.32000000E+00 0.0000E+00 0.9000E+01
#aMCatNLO 1  0  0  2  5 0.98007227D+01 0.00000000D+00  -5  6  0 0.00000000D+00 0.00000000D+00 0.00000000D+00 0.00000000D+00 0.00000000D+00
  <mgrwgt>
 0.4502771759D-01   13    2    0
 0.159224945881283D+04 0.000000000000000D+00 0.000000000000000D+00 0.159224945881283D+04
 0.159224945881283D+04 0.000000000000000D+00 0.000000000000000D+00 -.159224945881283D+04
 0.479237457713381D+03 -.116827796252634D+03 0.440885910681689D+03 0.775526960248033D+02
 0.131370022513114D+04 -.380959400825752D+02 -.241022182361193D+03 0.129083898626772D+04
 0.139156123478114D+04 0.154923736335209D+03 -.199863728320496D+03 -.136839168229253D+04
 0.000000000000000D+00 -.000000000000000D+00 0.000000000000000D+00 -.000000000000000D+00
 0.159233050861639D+04 0.000000000000000D+00 0.000000000000000D+00 0.159233050861639D+04
 0.191893157487483D+04 0.000000000000000D+00 0.000000000000000D+00 -.191893157487483D+04
 0.478054155210614D+03 -.115746721497309D+03 0.439885270401321D+03 0.775526960248033D+02
 0.131412427635884D+04 -.351283232230597D+02 -.243769001627579D+03 0.129083898626772D+04
 0.139233556754013D+04 0.158067606514148D+03 -.202773687249607D+03 -.136839168229253D+04
 0.326748084381638D+03 -.719256179377978D+01 0.665741847586529D+01 -.326601066258440D+03
0.303558001986D-04 0.000000000000D+00 0.000000000000D+00 0.237646664514D-04 0.000000000000D+00  6 2 2 25 2 2 21 0 0.30355260D+00 0.19767946D+00 0.23513400D+06 0.23513400D+06 0.23513400D+06 0.10924677D+01  1  2  2  2  6  2        2 0.628238349018D-04 0.100000000000D+01
0.385322847183D-05 0.000000000000D+00 -.116574265628D-06 0.237646664514D-04 0.000000000000D+00  6 2 2 25 2 2 21 2 0.30355260D+00 0.19767946D+00 0.23513400D+06 0.23513400D+06 0.23513400D+06 0.10924677D+01  1  2  3  2  6  2        2 0.951754100118D-05 0.100000000000D+01
-.207780001259D-04 0.000000000000D+00 0.000000000000D+00 0.237646664514D-04 0.000000000000D+00  6 2 2 25 2 2 21 2 0.30355260D+00 0.19767946D+00 0.23513400D+06 0.23513400D+06 0.23513400D+06 0.10924677D+01  1  2 15  2  6  2        2 -.513220198508D-04 0.100000000000D+01
0.699531005555D-01 0.000000000000D+00 0.000000000000D+00 0.237646664514D-04 0.000000000000D+00  6 2 2 25 2 2 21 2 0.30355260D+00 0.23898972D+00 0.24251371D+06 0.24251371D+06 0.24251371D+06 0.10914538D+01  1  2 12  2  6  2        2 0.122129645863D+00 0.100000000000D+01
0.440507842147D-09 0.000000000000D+00 0.000000000000D+00 0.237646664514D-04 0.000000000000D+00  6 2 2 25 2 2 21 2 0.30355260D+00 0.23824299D+00 0.24251371D+06 0.24251371D+06 0.24251371D+06 0.10914538D+01  1  2 12  2  6  2        2 0.773781734668D-09 0.100000000000D+01
-.504007346950D-01 0.000000000000D+00 0.000000000000D+00 0.237646664514D-04 0.000000000000D+00  6 2 2 25 2 2 21 2 0.30355260D+00 0.19767946D+00 0.23513400D+06 0.23513400D+06 0.23513400D+06 0.10924677D+01  1  2  4  2  6  2        2 -.124490686824D+00 0.100000000000D+01
-.714266011970D-01 0.000000000000D+00 -.387223225048D-04 0.237646664514D-04 0.000000000000D+00  6 2 2 25 2 2 21 2 0.30355260D+00 0.23824158D+00 0.23513400D+06 0.23513400D+06 0.23513400D+06 0.10924677D+01  1  2  5  2  6  2        2 -.126018803530D+00 0.100000000000D+01
0.702081283823D-01 0.000000000000D+00 0.380575499866D-04 0.237646664514D-04 0.000000000000D+00  6 2 2 25 2 2 21 2 0.30355260D+00 0.19767946D+00 0.23513400D+06 0.23513400D+06 0.23513400D+06 0.10924677D+01  1  2  6  2  6  2        2 0.173415291977D+00 0.100000000000D+01
0.106347550425D-07 0.000000000000D+00 0.000000000000D+00 0.237646664514D-04 0.113475883119D-05  6 2 2 25 2 2 21 2 0.30356806D+00 0.23823739D+00 0.24251371D+06 0.24251371D+06 0.24251371D+06 0.10914538D+01  1  2 11  2  6  2        2 0.186791611060D-07 0.100000000000D+01
0.192246773212D-02 0.000000000000D+00 0.000000000000D+00 0.237646664514D-04 0.000000000000D+00  6 2 21 25 2 2 -2 2 0.30355260D+00 0.23898972D+00 0.24251371D+06 0.24251371D+06 0.24251371D+06 0.10914538D+01  1  2 12  5  6  2        2 0.111241867347D-02 0.100000000000D+01
0.119509642708D-10 0.000000000000D+00 0.000000000000D+00 0.237646664514D-04 0.000000000000D+00  6 2 21 25 2 2 -2 2 0.30355260D+00 0.23824299D+00 0.24251371D+06 0.24251371D+06 0.24251371D+06 0.10914538D+01  1  2 12  5  6  2        2 0.699815462567D-11 0.100000000000D+01
-.193735827712D-02 0.000000000000D+00 -.105050963598D-05 0.237646664514D-04 0.000000000000D+00  6 2 21 25 2 2 -2 2 0.30355260D+00 0.23824158D+00 0.23513400D+06 0.23513400D+06 0.23513400D+06 0.10924677D+01  1  2  5  5  6  2        2 -.114118761393D-02 0.100000000000D+01
0.390706333871D-09 0.000000000000D+00 0.000000000000D+00 0.237646664514D-04 0.415265407557D-07  6 2 21 25 2 2 -2 2 0.30356806D+00 0.23823739D+00 0.24251371D+06 0.24251371D+06 0.24251371D+06 0.10914538D+01  1  2 11  5  6  2        2 0.228778385839D-09 0.100000000000D+01
  </mgrwgt>
  </event>
  <event>
  5     66 0.18204334E-05 0.14209661E+02 0.75467711E-02 0.91366550E-01
        2 -1    0    0  501    0 0.00000000E+00 0.00000000E+00 0.92274197E+03 0.92274202E+03 0.32000000E+00 0.0000E+00 0.9000E+01
        2 -1    0    0  502    0 0.00000000E+00 0.00000000E+00 -.22154289E+04 0.22154289E+04 0.32000000E+00 0.0000E+00 0.9000E+01
       25  1    1    2    0    0 -.32427986E+03 0.34631839E+03 -.34811428E+03 0.60158325E+03 0.12500000E+03 0.0000E+00 0.9000E+01
        2  1    1    2  501    0 -.95732812E+01 0.10501510E+02 0.76164409E+03 0.76177671E+03 0.32000000E+00 0.0000E+00 0.9000E+01
        2  1    1    2  502    0 0.33385314E+03 -.35681990E+03 -.17062167E+04 0.17748110E+04 0.32000000E+00 0.0000E+00 0.9000E+01
#aMCatNLO 1  0  0  2  4 0.43338948D+02 0.00000000D+00  -5  6  0 0.00000000D+00 0.00000000D+00 0.00000000D+00 0.00000000D+00 0.00000000D+00
  <mgrwgt>
 0.6499089743D-01    7    2    0
 0.142977947526979D+04 0.000000000000000D+00 0.000000000000000D+00 0.142977947526979D+04
 0.142977947526979D+04 0.000000000000000D+00 0.000000000000000D+00 -.142977947526979D+04
 0.502862577214818D+03 -.324309908038768D+03 0.346350505288057D+03 -.110046274801658D+03
 0.118026164239357D+04 -.957292652677774D+01 0.105011213064539D+02 0.118017610128090D+04
 0.117643473093120D+04 0.333882834565546D+03 -.356851626594511D+03 -.107012982647924D+04
 0.000000000000000D+00 -.000000000000000D+00 -.000000000000000D+00 -.000000000000000D+00
 0.151156283247870D+04 0.000000000000000D+00 0.000000000000000D+00 0.151156283247870D+04
 0.163120427246752D+04 0.000000000000000D+00 0.000000000000000D+00 -.163120427246752D+04
 0.496890888878577D+03 -.288058879702824D+03 0.369035844705055D+03 -.110046274801658D+03
 0.118437045642695D+04 0.761685568745086D+02 0.641568310162523D+02 0.118017610128090D+04
 0.118878084856064D+04 0.419645474957097D+03 -.303182677163600D+03 -.107012982647924D+04
 0.272724911080060D+03 -.207755152128782D+03 -.130009998557707D+03 -.119641439988820D+03
0.894878755113D-02 0.000000000000D+00 0.000000000000D+00 0.886110482160D-04 0.000000000000D+00  6 2 2 25 2 2 21 0 0.14196031D+00 0.34083522D+00 0.24679844D+06 0.24679844D+06 0.24679844D+06 0.10908805D+01  1  2  2  2  6  2        2 0.223438055057D-01 0.100000000000D+01
0.948969758124D-02 0.000000000000D+00 -.343657004662D-04 0.886110482160D-04 0.000000000000D+00  6 2 2 25 2 2 21 2 0.14196031D+00 0.34083522D+00 0.24679844D+06 0.24679844D+06 0.24679844D+06 0.10908805D+01  1  2  3  2  6  2        2 0.281967883420D-01 0.100000000000D+01
-.691200441031D-02 0.000000000000D+00 0.000000000000D+00 0.886110482160D-04 0.000000000000D+00  6 2 2 25 2 2 21 2 0.14196031D+00 0.34083522D+00 0.24679844D+06 0.24679844D+06 0.24679844D+06 0.10908805D+01  1  2 15  2  6  2        2 -.205376750637D-01 0.100000000000D+01
-.901694454529D-03 0.000000000000D+00 0.000000000000D+00 0.886110482160D-04 0.000000000000D+00  6 2 2 25 2 2 21 2 0.14196031D+00 0.34083522D+00 0.24679844D+06 0.24679844D+06 0.24679844D+06 0.10908805D+01  1  2  4  2  6  2        2 -.267920947594D-02 0.100000000000D+01
-.295816739594D-01 0.000000000000D+00 -.112418926929D-01 0.886110482160D-04 0.000000000000D+00  6 2 2 25 2 2 21 2 0.14196031D+00 0.39688159D+00 0.24679844D+06 0.24679844D+06 0.24679844D+06 0.10908805D+01  1  2  5  2  6  2        2 -.545056106204D-01 0.100000000000D+01
0.310615082585D-01 0.000000000000D+00 0.111128642279D-01 0.886110482160D-04 0.000000000000D+00  6 2 2 25 2 2 21 2 0.14196031D+00 0.34083522D+00 0.24679844D+06 0.24679844D+06 0.24679844D+06 0.10908805D+01  1  2  6  2  6  2        2 0.922932228819D-01 0.100000000000D+01
-.602790185225D-03 0.000000000000D+00 -.259528258494D-03 0.886110482160D-04 0.000000000000D+00  6 2 21 25 2 2 -2 2 0.14196031D+00 0.39688159D+00 0.24679844D+06 0.24679844D+06 0.24679844D+06 0.10908805D+01  1  2  5  5  6  2        2 -.120424137589D-03 0.100000000000D+01
  </mgrwgt>
  </event>
  <event>
  6     66 0.18204334E-05 0.95277319E+02 0.75467711E-02 0.94238908E-01
        2 -1    0    0  501    0 0.00000000E+00 0.00000000E+00 0.19792702E+04 0.19792702E+04 0.32000000E+00 0.0000E+00 0.9000E+01
        2 -1    0    0  503    0 0.00000000E+00 0.00000000E+00 -.87128466E+03 0.87128472E+03 0.32000000E+00 0.0000E+00 0.9000E+01
       25  1    1    2    0    0 -.40450858E+03 0.20111772E+03 -.21018889E+03 0.51369241E+03 0.12500000E+03 0.0000E+00 0.9000E+01
        2  1    1    2  501    0 0.32935726E+03 -.26513973E+03 0.17910669E+04 0.18402978E+04 0.32000000E+00 0.0000E+00 0.9000E+01
        2  1    1    2  502    0 0.61301510E+02 0.92884124E+02 -.28490946E+03 0.30587389E+03 0.32000000E+00 0.0000E+00 0.9000E+01
       21  1    1    2  503  502 0.13849804E+02 -.28862119E+02 -.18798298E+03 0.19069086E+03 0.75000000E+00 0.0000E+00 0.9000E+01
#aMCatNLO 2  0  0  2  5 0.16458418D+03 0.00000000D+00  -5  6  0 0.00000000D+00 0.00000000D+00 0.00000000D+00 0.00000000D+00 0.00000000D+00
  <mgrwgt>
 0.1093323194D-01    1    2    0
 0.116128352858270D+04 0.000000000000000D+00 0.000000000000000D+00 0.116128352858270D+04
 0.116128352858270D+04 0.000000000000000D+00 0.000000000000000D+00 -.116128352858270D+04
 0.700687454023184D+03 -.400313324647497D+03 0.192385770979782D+03 -.527328043498232D+03
 0.111342302214452D+04 0.335981731296424D+03 -.278943073933879D+03 0.102421573117231D+04
 0.508456580997692D+03 0.643315933510738D+02 0.865573029540974D+02 -.496887687674073D+03
 0.000000000000000D+00 0.000000000000000D+00 -.000000000000000D+00 -.000000000000000D+00
 0.116218840750413D+04 0.000000000000000D+00 0.000000000000000D+00 0.116218840750413D+04
 0.148384425988078D+04 0.000000000000000D+00 0.000000000000000D+00 -.148384425988078D+04
 0.705531880344478D+03 -.404505870434895D+03 0.201122772222463D+03 -.527328043498232D+03
 0.110805890118148D+04 0.329358536427888D+03 -.265140753164750D+03 0.102421573117231D+04
 0.509196891514844D+03 0.612975298341393D+02 0.928801001427445D+02 -.496887687674073D+03
 0.323244994344101D+03 0.138498041728680D+02 -.288621192004575D+02 -.321655852376651D+03
0.254987541033D-02 0.000000000000D+00 0.000000000000D+00 0.294774375459D-05 0.972892047909D-08  6 2 2 25 2 2 21 2 0.30450300D+00 0.13404375D+00 0.26772290D+06 0.26772290D+06 0.26772290D+06 0.10882284D+01  1  2  1  2  6  2        2 0.109332319365D-01 0.100000000000D+01
  </mgrwgt>
  </event>
  <event>
  5     66 0.18204334E-05 0.12120767E+03 0.75467711E-02 0.86700521E-01
        2 -1    0    0  501    0 0.00000000E+00 0.00000000E+00 0.34650404E+04 0.34650404E+04 0.32000000E+00 0.0000E+00 0.9000E+01
        2 -1    0    0  502    0 0.00000000E+00 0.00000000E+00 -.87195980E+03 0.87195986E+03 0.32000000E+00 0.0000E+00 0.9000E+01
       25  1    1    2    0    0 -.78861146E+03 0.26639304E+03 0.72767039E+03 0.11126556E+04 0.12500000E+03 0.0000E+00 0.9000E+01
        2  1    1    2  501    0 -.90382533E+02 0.80778223E+02 0.22137908E+04 0.22171071E+04 0.32000000E+00 0.0000E+00 0.9000E+01
        2  1    1    2  502    0 0.87899400E+03 -.34717126E+03 -.34838060E+03 0.10072375E+04 0.32000000E+00 0.0000E+00 0.9000E+01
#aMCatNLO 1  0  0  1  5 0.18524314D+03 0.00000000D+00  -5  6  0 0.00000000D+00 0.00000000D+00 0.00000000D+00 0.00000000D+00 0.00000000D+00
  <mgrwgt>
 0.1737506056D-02    7    2    0
 0.173821058825231D+04 0.000000000000000D+00 0.000000000000000D+00 0.173821058825231D+04
 0.173821058825231D+04 0.000000000000000D+00 0.000000000000000D+00 -.173821058825231D+04
 0.845409254455232D+03 -.788691894764156D+03 0.266426974210202D+03 0.779331127639207D+02
 0.111456102995349D+04 -.903738474048932D+02 0.807704607730475D+02 0.110795080660773D+04
 0.151645089209590D+04 0.879065742169049D+03 -.347197434983250D+03 -.118588391937165D+04
 0.000000000000000D+00 -.000000000000000D+00 -.000000000000000D+00 0.000000000000000D+00
 0.228760711503343D+04 0.000000000000000D+00 0.000000000000000D+00 0.228760711503343D+04
 0.175944814606592D+04 0.000000000000000D+00 0.000000000000000D+00 -.175944814606592D+04
 0.850743460201311D+03 -.776910231722125D+03 0.313809427608063D+03 0.779331127639207D+02
 0.111966956617490D+04 -.748546363018347D+02 0.143184255348475D+03 0.110795080660773D+04
 0.151177423917209D+04 0.900100126516471D+03 -.262603203036636D+03 -.118588391937165D+04
 0.564867995551042D+03 -.483352584925119D+02 -.194390479919902D+03 0.528158968967511D+03
0.609995504651D-03 0.000000000000D+00 0.000000000000D+00 0.828620440895D-06 0.000000000000D+00  6 2 2 25 2 2 21 0 0.53308314D+00 0.13414767D+00 0.91027252D+06 0.91027252D+06 0.91027252D+06 0.10505926D+01  1  2  2  1  6  1        2 0.246007300904D-03 0.100000000000D+01
0.196493463687D-03 0.000000000000D+00 -.234254335336D-05 0.828620440895D-06 0.000000000000D+00  6 2 2 25 2 2 21 2 0.53308314D+00 0.13414767D+00 0.91027252D+06 0.91027252D+06 0.91027252D+06 0.10505926D+01  1  2  3  1  6  1        2 0.874657805736D-04 0.100000000000D+01
-.385993821441D-03 0.000000000000D+00 0.000000000000D+00 0.828620440895D-06 0.000000000000D+00  6 2 2 25 2 2 21 2 0.53308314D+00 0.13414767D+00 0.91027252D+06 0.91027252D+06 0.91027252D+06 0.10505926D+01  1  2 15  1  6  1        2 -.171818696945D-03 0.100000000000D+01
-.965595456686D-04 0.000000000000D+00 0.000000000000D+00 0.828620440895D-06 0.000000000000D+00  6 2 2 25 2 2 21 2 0.53308314D+00 0.13414767D+00 0.91027252D+06 0.91027252D+06 0.91027252D+06 0.10505926D+01  1  2  4  1  6  1        2 -.429818675658D-04 0.100000000000D+01
-.402810228213D-02 0.000000000000D+00 -.320015946255D-03 0.828620440895D-06 0.000000000000D+00  6 2 2 25 2 2 21 2 0.70269459D+00 0.13414767D+00 0.91027252D+06 0.91027252D+06 0.91027252D+06 0.10505926D+01  1  2  5  1  6  1        2 -.206688126631D-03 0.100000000000D+01
0.410123322121D-02 0.000000000000D+00 0.319088293348D-03 0.828620440895D-06 0.000000000000D+00  6 2 2 25 2 2 21 2 0.53308314D+00 0.13414767D+00 0.91027252D+06 0.91027252D+06 0.91027252D+06 0.10505926D+01  1  2  6  1  6  1        2 0.182559540799D-02 0.100000000000D+01
-.140365144229D-03 0.000000000000D+00 -.116521117986D-04 0.828620440895D-06 0.000000000000D+00  6 21 2 25 2 2 -2 2 0.70269459D+00 0.13414767D+00 0.91027252D+06 0.91027252D+06 0.91027252D+06 0.10505926D+01  1  2  5  4  6  1        2 -.737423846325D-07 0.100000000000D+01
  </mgrwgt>
  </event>
  <event>
  5     66 0.18204334E-05 0.11818691E+02 0.75467711E-02 0.91869098E-01
        2 -1    0    0  501    0 0.00000000E+00 0.00000000E+00 0.58458931E+03 0.58458939E+03 0.32000000E+00 0.0000E+00 0.9000E+01
        2 -1    0    0  502    0 0.00000000E+00 0.00000000E+00 -.22556613E+04 0.22556613E+04 0.32000000E+00 0.0000E+00 0.9000E+01
       25  1    1    2    0    0 -.34602796E+03 -.32074365E+03 -.53917118E+03 0.72728427E+03 0.12500000E+03 0.0000E+00 0.9000E+01
        2  1    1    2  501    0 -.83736363E+01 0.83415286E+01 0.45606246E+03 0.45621571E+03 0.32000000E+00 0.0000E+00 0.9000E+01
        2  1    1    2  502    0 0.35440160E+03 0.31240213E+03 -.15879633E+04 0.16567507E+04 0.32000000E+00 0.0000E+00 0.9000E+01
#aMCatNLO 1  0  0  1  5 0.18524314D+03 0.00000000D+00  -5  6  0 0.00000000D+00 0.00000000D+00 0.00000000D+00 0.00000000D+00 0.00000000D+00
  <mgrwgt>
 0.2050140270D-01    7    2    0
 0.114831861190467D+04 0.000000000000000D+00 0.000000000000000D+00 0.114831861190467D+04
 0.114831861190467D+04 0.000000000000000D+00 0.000000000000000D+00 -.114831861190467D+04
 0.507160611051880D+03 -.346068476976828D+03 -.320779121041626D+03 -.137565439515953D+03
 0.895984652259661D+03 -.837311398003025D+01 0.834100832255909D+01 0.895906700291557D+03
 0.893491960497807D+03 0.354441590956858D+03 0.312438112719066D+03 -.758341260775604D+03
 0.000000000000000D+00 0.000000000000000D+00 -.000000000000000D+00 0.000000000000000D+00
 0.134066213352847D+04 0.000000000000000D+00 0.000000000000000D+00 0.134066213352847D+04
 0.121287439959001D+04 0.000000000000000D+00 0.000000000000000D+00 -.121287439959001D+04
 0.495199803242967D+03 -.364727607609360D+03 -.278652771797103D+03 -.137565439515953D+03
 0.900793729092535D+03 -.418204868583244D+02 0.838544788551108D+02 0.895906700291557D+03
 0.910368939093021D+03 0.320862375648299D+03 0.388249241292176D+03 -.758341260775604D+03
 0.247174061689951D+03 0.856857188193857D+02 -.193450948350183D+03 0.127787733938463D+03
0.193715119257D-02 0.000000000000D+00 0.000000000000D+00 0.310553004056D-04 0.000000000000D+00  6 2 2 25 2 2 21 0 0.89936825D-01 0.34702482D+00 0.23641739D+06 0.23641739D+06 0.23641739D+06 0.10922889D+01  1  2  2  1  6  1        2 0.814368292932D-02 0.100000000000D+01
0.216495517650D-02 0.000000000000D+00 -.743917064307D-05 0.310553004056D-04 0.000000000000D+00  6 2 2 25 2 2 21 2 0.89936825D-01 0.34702482D+00 0.23641739D+06 0.23641739D+06 0.23641739D+06 0.10922889D+01  1  2  3  1  6  1        2 0.108587869189D-01 0.100000000000D+01
-.139622570928D-02 0.000000000000D+00 0.000000000000D+00 0.310553004056D-04 0.000000000000D+00  6 2 2 25 2 2 21 2 0.89936825D-01 0.34702482D+00 0.23641739D+06 0.23641739D+06 0.23641739D+06 0.10922889D+01  1  2 15  1  6  1        2 -.700306298825D-02 0.100000000000D+01
-.583994054695D-04 0.000000000000D+00 0.000000000000D+00 0.310553004056D-04 0.000000000000D+00  6 2 2 25 2 2 21 2 0.89936825D-01 0.34702482D+00 0.23641739D+06 0.23641739D+06 0.23641739D+06 0.10922889D+01  1  2  4  1  6  1        2 -.292914470963D-03 0.100000000000D+01
-.705472090695D-02 0.000000000000D+00 -.260025559665D-02 0.310553004056D-04 0.000000000000D+00  6 2 2 25 2 2 21 2 0.10975877D+00 0.34702482D+00 0.23641739D+06 0.23641739D+06 0.23641739D+06 0.10922889D+01  1  2  5  1  6  1        2 -.279013227407D-01 0.100000000000D+01
0.747461638719D-02 0.000000000000D+00 0.254951640494D-02 0.310553004056D-04 0.000000000000D+00  6 2 2 25 2 2 21 2 0.89936825D-01 0.34702482D+00 0.23641739D+06 0.23641739D+06 0.23641739D+06 0.10922889D+01  1  2  6  1  6  1        2 0.374905067458D-01 0.100000000000D+01
-.171511787112D-03 0.000000000000D+00 -.741761252275D-04 0.310553004056D-04 0.000000000000D+00  6 21 2 25 2 2 -2 2 0.10975877D+00 0.34702482D+00 0.23641739D+06 0.23641739D+06 0.23641739D+06 0.10922889D+01  1  2  5  4  6  1        2 -.794273698618D-03 0.100000000000D+01
  </mgrwgt>
  </event>
  <event>
  5     66 0.18204334E-05 0.34031188E+02 0.75467711E-02 0.94603207E-01
        2 -1    0    0  501    0 0.00000000E+00 0.00000000E+00 0.80887621E+03 0.80887627E+03 0.32000000E+00 0.0000E+00 0.9000E+01
        2 -1    0    0  502    0 0.00000000E+00 0.00000000E+00 -.17380258E+04 0.17380259E+04 0.32000000E+00 0.0000E+00 0.9000E+01
       25  1    1    2    0    0 -.39573870E+02 0.47200969E+03 -.17944887E+03 0.52171461E+03 0.12500000E+03 0.0000E+00 0.9000E+01
        2  1    1    2  501    0 0.55909635E+01 -.47375730E+03 0.54949311E+03 0.72554808E+03 0.32000000E+00 0.0000E+00 0.9000E+01
        2  1    1    2  502    0 0.33982907E+02 0.17476120E+01 -.12991939E+04 0.12996395E+04 0.32000000E+00 0.0000E+00 0.9000E+01
#aMCatNLO 1  0  0  2  2 0.47353049D+01 0.00000000D+00  -5  6  0 0.00000000D+00 0.00000000D+00 0.00000000D+00 0.00000000D+00 0.00000000D+00
  <mgrwgt>
 0.2446634494D-01   10    2    0
 0.118568455909605D+04 0.000000000000000D+00 0.000000000000000D+00 0.118568455909605D+04
 0.118568455909605D+04 0.000000000000000D+00 0.000000000000000D+00 -.118568455909605D+04
 0.490006646216960D+03 -.395770412740422D+02 0.471992212521578D+03 0.117695564814887D+02
 0.994520145513673D+03 0.559075768059499D+01 -.473739861950094D+03 0.874419582615005D+03
 0.886842326461477D+03 0.339862835934472D+02 0.174764942851567D+01 -.886189139096494D+03
 0.000000000000000D+00 0.000000000000000D+00 0.000000000000000D+00 -.000000000000000D+00
 0.118670227482842D+04 0.000000000000000D+00 0.000000000000000D+00 0.118670227482842D+04
 0.119120794348060D+04 0.000000000000000D+00 0.000000000000000D+00 -.119120794348060D+04
 0.489364116775472D+03 -.402355655403158D+02 0.471269366279327D+03 0.117695564814887D+02
 0.995213918969405D+03 0.425286991183031D+01 -.475208429162777D+03 0.874419582615005D+03
 0.886795810325636D+03 0.327936977038155D+02 0.438576592429295D+00 -.886189139096494D+03
 0.653637223850837D+01 0.318899792466997D+01 0.350048629102137D+01 -.450566865217194D+01
0.688375347174D-03 0.000000000000D+00 0.000000000000D+00 0.325039907369D-04 0.000000000000D+00  6 2 2 25 2 2 21 0 0.12444250D+00 0.26738860D+00 0.24883602D+06 0.24883602D+06 0.24883602D+06 0.10906116D+01  1  2  2  2  6  2        2 0.373323454175D-02 0.100000000000D+01
0.413195451850D-03 0.000000000000D+00 -.264354258654D-05 0.325039907369D-04 0.000000000000D+00  6 2 2 25 2 2 21 2 0.12444250D+00 0.26738860D+00 0.24883602D+06 0.24883602D+06 0.24883602D+06 0.10906116D+01  1  2  3  2  6  2        2 0.266535913749D-02 0.100000000000D+01
-.555260954252D-03 0.000000000000D+00 0.000000000000D+00 0.325039907369D-04 0.000000000000D+00  6 2 2 25 2 2 21 2 0.12444250D+00 0.26738860D+00 0.24883602D+06 0.24883602D+06 0.24883602D+06 0.10906116D+01  1  2 15  2  6  2        2 -.358176705838D-02 0.100000000000D+01
-.307148896747D-03 0.000000000000D+00 0.000000000000D+00 0.325039907369D-04 0.000000000000D+00  6 2 2 25 2 2 21 2 0.12444250D+00 0.26738860D+00 0.24883602D+06 0.24883602D+06 0.24883602D+06 0.10906116D+01  1  2  4  2  6  2        2 -.198129508651D-02 0.100000000000D+01
-.305448071317D+00 0.000000000000D+00 -.268491231975D-01 0.325039907369D-04 0.000000000000D+00  6 2 2 25 2 2 21 2 0.12444250D+00 0.26873151D+00 0.24883602D+06 0.24883602D+06 0.24883602D+06 0.10906116D+01  1  2  5  2  6  2        2 -.194895567501D+01 0.100000000000D+01
0.305579080975D+00 0.000000000000D+00 0.268487862768D-01 0.325039907369D-04 0.000000000000D+00  6 2 2 25 2 2 21 2 0.12444250D+00 0.26738860D+00 0.24883602D+06 0.24883602D+06 0.24883602D+06 0.10906116D+01  1  2  6  2  6  2        2 0.197116883077D+01 0.100000000000D+01
0.295786870463D-03 0.000000000000D+00 0.000000000000D+00 0.325039907369D-04 0.108479318624D-06  6 2 2 25 2 2 21 2 0.12454931D+00 0.26863420D+00 0.25099196D+06 0.25099196D+06 0.25099196D+06 0.10903298D+01  1  2 11  2  6  2        2 0.188478752264D-02 0.100000000000D+01
0.462796979416D-12 0.000000000000D+00 0.000000000000D+00 0.325039907369D-04 0.000000000000D+00  6 2 21 25 2 2 -2 2 0.12444250D+00 0.26877953D+00 0.25099196D+06 0.25099196D+06 0.25099196D+06 0.10903298D+01  1  2 12  5  6  2        2 0.779532345752D-12 0.100000000000D+01
-.284520774602D-03 0.000000000000D+00 -.250316706144D-04 0.325039907369D-04 0.000000000000D+00  6 2 21 25 2 2 -2 2 0.12444250D+00 0.26873151D+00 0.24883602D+06 0.24883602D+06 0.24883602D+06 0.10906116D+01  1  2  5  5  6  2        2 -.480301475267D-03 0.100000000000D+01
0.781085375659D-05 0.000000000000D+00 0.000000000000D+00 0.325039907369D-04 0.711078941381D-08  6 2 21 25 2 2 -2 2 0.12454931D+00 0.26863420D+00 0.25099196D+06 0.25099196D+06 0.25099196D+06 0.10903298D+01  1  2 11  5  6  2        2 0.131715921243D-04 0.100000000000D+01
  </mgrwgt>
  </event>
  <event>
  5     66 0.18204334E-05 0.15841480E+03 0.75467711E-02 0.94303563E-01
        2 -1    0    0  501    0 0.00000000E+00 0.00000000E+00 0.86319668E+03 0.86319673E+03 0.32000000E+00 0.0000E+00 0.9000E+01
        2 -1    0    0  502    0 -.00000000E+00 -.00000000E+00 -.12478738E+04 0.12478738E+04 0.32000000E+00 0.0000E+00 0.9000E+01
       25  1    1    2    0    0 -.38159839E+03 -.27620378E+03 -.26387402E+03 0.55422050E+03 0.12500000E+03 0.0000E+00 0.9000E+01
        2  1    1    2  501    0 0.36382464E+03 0.11880564E+03 0.65848129E+03 0.76163040E+03 0.32000000E+00 0.0000E+00 0.9000E+01
        2  1    1    2  502    0 0.17773755E+02 0.15739813E+03 -.77928439E+03 0.79521968E+03 0.32000000E+00 0.0000E+00 0.9000E+01
#aMCatNLO 1  0  0  5  2 0.54967185D+01 0.00000000D+00  -5  6  0 0.00000000D+00 0.00000000D+00 0.00000000D+00 0.00000000D+00 0.00000000D+00
  <mgrwgt>
 0.8647226062D-02    9    2    0
 0.103786348754139D+04 0.000000000000000D+00 0.000000000000000D+00 0.103786348754139D+04
 0.103786348754139D+04 -.000000000000000D+00 -.000000000000000D+00 -.103786348754139D+04
 0.514736533173615D+03 -.381591988625737D+03 -.276216326059709D+03 -.165592252289545D+03
 0.896603738435617D+03 0.363814177482016D+03 0.118802227820292D+03 0.810816587586086D+03
 0.664386703473551D+03 0.177778111437216D+02 0.157414098239416D+03 -.645224335296540D+03
 0.000000000000000D+00 0.000000000000000D+00 0.000000000000000D+00 0.000000000000000D+00
 0.103786348754139D+04 0.000000000000000D+00 0.000000000000000D+00 0.103786348754139D+04
 0.103786348754139D+04 -.000000000000000D+00 -.000000000000000D+00 -.103786348754139D+04
 0.514744975548304D+03 -.381590623605931D+03 -.276204239455788D+03 -.165641794046400D+03
 0.896529459330009D+03 0.363816555050053D+03 0.118823280059263D+03 0.810730296605492D+03
 0.580280577521496D+03 0.192970161784174D+02 0.133572110664495D+03 -.564368377097728D+03
 0.841719626829744D+02 -.152294762253906D+01 0.238088487320302D+02 -.807201254613640D+02
0.496215645998D-05 0.000000000000D+00 0.000000000000D+00 0.172128298396D-05 0.000000000000D+00  6 2 2 25 2 2 21 0 0.13279950D+00 0.19198059D+00 0.26445740D+06 0.26445740D+06 0.26445740D+06 0.10886271D+01  1  2  2  3  6  5        2 0.459405356885D-04 0.100000000000D+01
0.614859406869D-06 0.000000000000D+00 -.190559873721D-07 0.172128298396D-05 0.000000000000D+00  6 2 2 25 2 2 21 2 0.13279950D+00 0.19198059D+00 0.26445740D+06 0.26445740D+06 0.26445740D+06 0.10886271D+01  1  2  3  3  6  5        2 0.674620720382D-05 0.100000000000D+01
-.348148625393D-05 0.000000000000D+00 0.000000000000D+00 0.172128298396D-05 0.000000000000D+00  6 2 2 25 2 2 21 2 0.13279950D+00 0.19198059D+00 0.26445740D+06 0.26445740D+06 0.26445740D+06 0.10886271D+01  1  2 15  3  6  5        2 -.381986961310D-04 0.100000000000D+01
0.189970965342D-02 0.000000000000D+00 0.000000000000D+00 0.172128298396D-05 0.000000000000D+00  6 2 2 25 2 2 21 2 0.13279950D+00 0.19198059D+00 0.26466438D+06 0.26466438D+06 0.26466438D+06 0.10886016D+01  1  2 12  3  6  5        2 0.208417509418D-01 0.100000000000D+01
0.123959165566D-08 0.000000000000D+00 0.000000000000D+00 0.172128298396D-05 0.000000000000D+00  6 2 2 25 2 2 21 2 0.13279950D+00 0.19198059D+00 0.26466438D+06 0.26466438D+06 0.26466438D+06 0.10886016D+01  1  2 12  3  6  5        2 0.135995837629D-07 0.100000000000D+01
-.249377100983D-02 0.000000000000D+00 0.000000000000D+00 0.172128298396D-05 0.000000000000D+00  6 2 2 25 2 2 21 2 0.13279950D+00 0.19198059D+00 0.26445740D+06 0.26445740D+06 0.26445740D+06 0.10886271D+01  1  2  4  3  6  5        2 -.273615329996D-01 0.100000000000D+01
-.331305073726D-02 0.000000000000D+00 0.000000000000D+00 0.172128298396D-05 0.000000000000D+00  6 2 2 25 2 2 21 2 0.13279950D+00 0.19198059D+00 0.26445740D+06 0.26445740D+06 0.26445740D+06 0.10886271D+01  1  2  5  3  6  5        2 -.363506299174D-01 0.100000000000D+01
0.375913140449D-02 0.000000000000D+00 -.000000000000D+00 0.172128298396D-05 0.000000000000D+00  6 2 2 25 2 2 21 2 0.13279950D+00 0.19198059D+00 0.26445740D+06 0.26445740D+06 0.26445740D+06 0.10886271D+01  1  2  6  3  6  5        2 0.412450050820D-01 0.100000000000D+01
0.935020820821D-03 0.000000000000D+00 0.000000000000D+00 0.172128298396D-05 0.191901988303D-06  6 2 2 25 2 2 21 2 0.13279950D+00 0.19198059D+00 0.26466438D+06 0.26466438D+06 0.26466438D+06 0.10886016D+01  1  2 11  3  6  5        2 0.102581313086D-01 0.100000000000D+01
  </mgrwgt>
  </event>
  <event>
  6     66 0.18204334E-05 0.28649943E+02 0.75467711E-02 0.94172526E-01
        2 -1    0    0  501    0 0.00000000E+00 0.00000000E+00 0.31426898E+04 0.31426898E+04 0.32000000E+00 0.0000E+00 0.9000E+01
        2 -1    0    0  503    0 0.00000000E+00 0.00000000E+00 -.13111732E+04 0.13111733E+04 0.32000000E+00 0.0000E+00 0.9000E+01
       25  1    1    2    0    0 -.23727222E+03 0.41617462E+03 -.37316646E+03 0.61998195E+03 0.12500000E+03 0.0000E+00 0.9000E+01
        2  1    1    2  501    0 0.25655616E+03 -.43999406E+03 0.29973231E+04 0.30402898E+04 0.32000000E+00 0.0000E+00 0.9000E+01
        2  1    1    2  502    0 0.42041402E+01 0.31679137E+01 -.46956906E+02 0.47252131E+02 0.32000000E+00 0.0000E+00 0.9000E+01
       21  1    1    2  503  502 -.23488088E+02 0.20651521E+02 -.74568321E+03 0.74633919E+03 0.75000000E+00 0.0000E+00 0.9000E+01
#aMCatNLO 2  0  0  2  5 0.96083335D+01 0.00000000D+00  -5  6  0 0.00000000D+00 0.00000000D+00 0.00000000D+00 0.00000000D+00 0.00000000D+00
  <mgrwgt>
 0.3209677211D-01    1    2    0
 0.133255359189331D+04 0.000000000000000D+00 0.000000000000000D+00 0.133255359189331D+04
 0.133255359189331D+04 0.000000000000000D+00 0.000000000000000D+00 -.133255359189331D+04
 0.122896849169211D+04 -.248072475796627D+03 0.425689161857516D+03 -.111892240025891D+04
 0.132533916430657D+04 0.244854225201612D+03 -.429707574545679D+03 0.122960225651380D+04
 0.110799527787928D+03 0.321825059501506D+01 0.401841268816247D+01 -.110679856254890D+03
 0.000000000000000D+00 -.000000000000000D+00 0.000000000000000D+00 -.000000000000000D+00
 0.133278436400708D+04 0.000000000000000D+00 0.000000000000000D+00 0.133278436400708D+04
 0.309173065893248D+04 0.000000000000000D+00 0.000000000000000D+00 -.309173065893248D+04
 0.122356820220890D+04 -.237265515617481D+03 0.416187316907084D+03 -.111892240025891D+04
 0.133091810853666D+04 0.256558868253262D+03 -.439998692643027D+03 0.122960225651380D+04
 0.110804381971714D+03 0.419473532377415D+01 0.315985428364111D+01 -.110679856254890D+03
 0.175922433022229D+04 -.234880879595555D+02 0.206515214523019D+02 -.175894629492539D+04
0.668699706718D-01 0.000000000000D+00 0.000000000000D+00 0.113515959556D-04 0.143949459487D-05  6 2 2 25 2 2 21 2 0.48349071D+00 0.20171895D+00 0.27090441D+06 0.27090441D+06 0.27090441D+06 0.10878451D+01  1  2  1  2  6  2        2 0.320967721117D-01 0.100000000000D+01
  </mgrwgt>
  </event>
  <event>
  5     66 0.18204334E-05 0.11792048E+03 0.75467711E-02 0.89504358E-01
        2 -1    0    0  501    0 0.00000000E+00 0.00000000E+00 0.74754844E+03 0.74754851E+03 0.32000000E+00 0.0000E+00 0.9000E+01
        2 -1    0    0  502    0 -.00000000E+00 -.00000000E+00 -.28274604E+04 0.28274605E+04 0.32000000E+00 0.0000E+00 0.9000E+01
       25  1    1    2    0    0 -.68807803E+02 0.75895225E+03 -.26622428E+03 0.81684968E+03 0.12500000E+03 0.0000E+00 0.9000E+01
        2  1    1    2  501    0 0.11209228E+03 -.36676123E+02 0.40638206E+03 0.42315044E+03 0.32000000E+00 0.0000E+00 0.9000E+01
        2  1    1    2  502    0 -.43284474E+02 -.72227613E+03 -.22200698E+04 0.23350088E+04 0.32000000E+00 0.0000E+00 0.9000E+01
#aMCatNLO 1  0  0  5  2 0.52762261D+02 0.00000000D+00  -5  6  0 0.00000000D+00 0.00000000D+00 0.00000000D+00 0.00000000D+00 0.00000000D+00
  <mgrwgt>
 0.4322185708D-03    8    2    0
 0.145384448977406D+04 0.000000000000000D+00 0.000000000000000D+00 0.145384448977406D+04
 0.145384448977406D+04 -.000000000000000D+00 -.000000000000000D+00 -.145384448977406D+04
 0.813986192134855D+03 -.687900225563562D+02 0.759023557719163D+03 0.257098604839157D+03
 0.810821703279280D+03 0.112073830924242D+03 -.366700878002107D+02 0.802201094234732D+03
 0.128288108413399D+04 -.432838083678862D+02 -.722353469918952D+03 -.105929969907389D+04
 0.000000000000000D+00 0.000000000000000D+00 -.000000000000000D+00 0.000000000000000D+00
 0.145384448977406D+04 0.000000000000000D+00 0.000000000000000D+00 0.145384448977406D+04
 0.145384448977406D+04 -.000000000000000D+00 -.000000000000000D+00 -.145384448977406D+04
 0.812771419381550D+03 -.688423916325460D+02 0.758149582315228D+03 0.255816958220238D+03
 0.809591330834696D+03 0.112021666094620D+03 -.375406545804152D+02 0.800924446213096D+03
 0.940668075265876D+03 -.486895797454085D+02 -.487242226008461D+03 -.803169201253972D+03
 0.344658154066006D+03 0.551030528333497D+01 -.233366701726352D+03 -.253572203179362D+03
0.145467495806D-04 0.000000000000D+00 0.000000000000D+00 0.956779657294D-06 0.000000000000D+00  6 2 2 25 2 2 21 0 0.11500746D+00 0.43499392D+00 0.65115762D+06 0.65115762D+06 0.65115762D+06 0.10604961D+01  1  2  2  3  6  5        2 0.195382455717D-04 0.100000000000D+01
0.370107650446D-05 0.000000000000D+00 -.558633486366D-07 0.956779657294D-06 0.000000000000D+00  6 2 2 25 2 2 21 2 0.11500746D+00 0.43499392D+00 0.65115762D+06 0.65115762D+06 0.65115762D+06 0.10604961D+01  1  2  3  3  6  5        2 0.559069521663D-05 0.100000000000D+01
-.966236513709D-05 0.000000000000D+00 0.000000000000D+00 0.956779657294D-06 0.000000000000D+00  6 2 2 25 2 2 21 2 0.11500746D+00 0.43499392D+00 0.65115762D+06 0.65115762D+06 0.65115762D+06 0.10604961D+01  1  2 15  3  6  5        2 -.145955746897D-04 0.100000000000D+01
0.507445576051D-03 0.000000000000D+00 0.000000000000D+00 0.956779657294D-06 0.000000000000D+00  6 2 2 25 2 2 21 2 0.11500746D+00 0.43499392D+00 0.65020697D+06 0.65020697D+06 0.65020697D+06 0.10605399D+01  1  2 12  3  6  5        2 0.766674935065D-03 0.100000000000D+01
0.184858165210D-09 0.000000000000D+00 0.000000000000D+00 0.956779657294D-06 0.000000000000D+00  6 2 2 25 2 2 21 2 0.11500746D+00 0.43499392D+00 0.65020697D+06 0.65020697D+06 0.65020697D+06 0.10605399D+01  1  2 12  3  6  5        2 0.279293245419D-09 0.100000000000D+01
-.387525092254D-03 0.000000000000D+00 0.000000000000D+00 0.956779657294D-06 0.000000000000D+00  6 2 2 25 2 2 21 2 0.11500746D+00 0.43499392D+00 0.65115762D+06 0.65115762D+06 0.65115762D+06 0.10604961D+01  1  2  4  3  6  5        2 -.585379598875D-03 0.100000000000D+01
-.525123828577D-03 0.000000000000D+00 0.000000000000D+00 0.956779657294D-06 0.000000000000D+00  6 2 2 25 2 2 21 2 0.11500746D+00 0.43499392D+00 0.65115762D+06 0.65115762D+06 0.65115762D+06 0.10604961D+01  1  2  5  3  6  5        2 -.793230637904D-03 0.100000000000D+01
0.684263296254D-03 0.000000000000D+00 -.000000000000D+00 0.956779657294D-06 0.000000000000D+00  6 2 2 25 2 2 21 2 0.11500746D+00 0.43499392D+00 0.65115762D+06 0.65115762D+06 0.65115762D+06 0.10604961D+01  1  2  6  3  6  5        2 0.103362022716D-02 0.100000000000D+01
  </mgrwgt>
  </event>
  <event>
  5     66 0.18204334E-05 0.20060118E+02 0.75467711E-02 0.92165876E-01
        2 -1    0    0  501    0 0.00000000E+00 0.00000000E+00 0.12558537E+04 0.12558537E+04 0.32000000E+00 0.0000E+00 0.9000E+01
        2 -1    0    0  502    0 0.00000000E+00 0.00000000E+00 -.15484592E+04 0.15484592E+04 0.32000000E+00 0.0000E+00 0.9000E+01
       25  1    1    2    0    0 -.20036185E+03 -.55043495E+03 0.27066990E+01 0.59896229E+03 0.12500000E+03 0.0000E+00 0.9000E+01
        2  1    1    2  501    0 0.15844039E+02 -.12306237E+02 0.88477279E+03 0.88500027E+03 0.32000000E+00 0.0000E+00 0.9000E+01
        2  1    1    2  502    0 0.18451781E+03 0.56274118E+03 -.11800850E+04 0.13203504E+04 0.32000000E+00 0.0000E+00 0.9000E+01
#aMCatNLO 1  0  0  1  2 0.49946600D+02 0.00000000D+00  -5  6  0 0.00000000D+00 0.00000000D+00 0.00000000D+00 0.00000000D+00 0.00000000D+00
  <mgrwgt>
 0.1152482813D-01    7    2    0
 0.139450287466445D+04 0.000000000000000D+00 0.000000000000000D+00 0.139450287466445D+04
 0.139450287466445D+04 0.000000000000000D+00 0.000000000000000D+00 -.139450287466445D+04
 0.602600842971561D+03 -.200380128499397D+03 -.550493708785778D+03 0.656296932788849D+02
 0.982598531972126D+03 0.158426865223416D+02 -.123051860900164D+02 0.982393743217465D+03
 0.120380637438521D+04 0.184537441977055D+03 0.562798894875795D+03 -.104802343649635D+04
 0.000000000000000D+00 0.000000000000000D+00 -.000000000000000D+00 0.000000000000000D+00
 0.182866312376678D+04 0.000000000000000D+00 0.000000000000000D+00 0.182866312376678D+04
 0.139616370005426D+04 0.000000000000000D+00 0.000000000000000D+00 -.139616370005426D+04
 0.604037311680851D+03 -.210920901206988D+03 -.548125159700575D+03 0.656296932788849D+02
 0.982430957124873D+03 -.132313003038721D+01 -.844796610998220D+01 0.982393743217465D+03
 0.120298467623590D+04 0.163512549533992D+03 0.567523262922042D+03 -.104802343649635D+04
 0.435373878779407D+03 0.487314817033835D+02 -.109501371114841D+02 0.432499423712516D+03
0.732915316599D-04 0.000000000000D+00 0.000000000000D+00 0.324464814856D-04 0.000000000000D+00  6 2 2 25 2 2 21 0 0.19320827D+00 0.23822449D+00 0.36684663D+06 0.36684663D+06 0.36684663D+06 0.10781469D+01  1  2  2  1  6  1        2 0.260293186992D-03 0.100000000000D+01
0.664967382715D-04 0.000000000000D+00 -.281458779678D-06 0.324464814856D-04 0.000000000000D+00  6 2 2 25 2 2 21 2 0.19320827D+00 0.23822449D+00 0.36684663D+06 0.36684663D+06 0.36684663D+06 0.10781469D+01  1  2  3  1  6  1        2 0.274514469611D-03 0.100000000000D+01
-.472963176494D-04 0.000000000000D+00 0.000000000000D+00 0.324464814856D-04 0.000000000000D+00  6 2 2 25 2 2 21 2 0.19320827D+00 0.23822449D+00 0.36684663D+06 0.36684663D+06 0.36684663D+06 0.10781469D+01  1  2 15  1  6  1        2 -.195250532456D-03 0.100000000000D+01
-.677041014942D-04 0.000000000000D+00 0.000000000000D+00 0.324464814856D-04 0.000000000000D+00  6 2 2 25 2 2 21 2 0.19320827D+00 0.23822449D+00 0.36684663D+06 0.36684663D+06 0.36684663D+06 0.10781469D+01  1  2  4  1  6  1        2 -.279498754304D-03 0.100000000000D+01
-.781299130573D-02 0.000000000000D+00 -.673744067256D-04 0.324464814856D-04 0.000000000000D+00  6 2 2 25 2 2 21 2 0.25345926D+00 0.23822449D+00 0.36684663D+06 0.36684663D+06 0.36684663D+06 0.10781469D+01  1  2  5  1  6  1        2 -.195157202146D-01 0.100000000000D+01
0.755370844399D-02 0.000000000000D+00 0.649664230431D-04 0.324464814856D-04 0.000000000000D+00  6 2 2 25 2 2 21 2 0.19320827D+00 0.23822449D+00 0.36684663D+06 0.36684663D+06 0.36684663D+06 0.10781469D+01  1  2  6  1  6  1        2 0.311835184852D-01 0.100000000000D+01
-.279570399138D-03 0.000000000000D+00 -.242196744350D-05 0.324464814856D-04 0.000000000000D+00  6 21 2 25 2 2 -2 2 0.25345926D+00 0.23822449D+00 0.36684663D+06 0.36684663D+06 0.36684663D+06 0.10781469D+01  1  2  5  4  6  1        2 -.203028512663D-03 0.100000000000D+01
  </mgrwgt>
  </event>
  <event>
  5     66 -.18204334E-05 0.12093216E+02 0.75467711E-02 0.92736383E-01
        2 -1    0    0  501    0 0.00000000E+00 0.00000000E+00 0.82290816E+03 0.82290822E+03 0.32000000E+00 0.0000E+00 0.9000E+01
        2 -1    0    0  502    0 0.00000000E+00 0.00000000E+00 -.11942754E+04 0.11942754E+04 0.32000000E+00 0.0000E+00 0.9000E+01
       25  1    1    2    0    0 0.44250460E+03 -.36644947E+03 0.35321725E+03 0.68591760E+03 0.12500000E+03 0.0000E+00 0.9000E+01
        2  1    1    2  501    0 0.11915579E+02 -.21253611E+01 0.21989954E+03 0.22023262E+03 0.32000000E+00 0.0000E+00 0.9000E+01
        2  1    1    2  502    0 -.45442017E+03 0.36857483E+03 -.94448399E+03 0.11110334E+04 0.32000000E+00 0.0000E+00 0.9000E+01
#aMCatNLO 1  0  0  2  2 0.11882108D+04 0.00000000D+00  -5  6  0 0.00000000D+00 0.00000000D+00 0.00000000D+00 0.00000000D+00 0.00000000D+00
  <mgrwgt>
 -.3712651140D-03    1    2    0
 0.991352128066026D+03 0.000000000000000D+00 0.000000000000000D+00 0.991352128066026D+03
 0.991352128066026D+03 0.000000000000000D+00 0.000000000000000D+00 -.991352128066026D+03
 0.764204137142474D+03 0.442585529210110D+03 -.366509681971027D+03 0.488028345058948D+03
 0.265021713664986D+03 0.119053137803170D+02 -.212353012605737D+01 0.264745656881320D+03
 0.953478405324593D+03 -.454490842990427D+03 0.368633212097085D+03 -.752774001940268D+03
 0.000000000000000D+00 -.000000000000000D+00 -.000000000000000D+00 0.000000000000000D+00
 0.106093370009771D+04 0.000000000000000D+00 0.000000000000000D+00 0.106093370009771D+04
 0.101410690673546D+04 0.000000000000000D+00 0.000000000000000D+00 -.101410690673546D+04
 0.765992470232123D+03 0.462930939916896D+03 -.344445559906051D+03 0.488028345058948D+03
 0.265481140677027D+03 0.189588508230038D+02 0.552586582581517D+01 0.264745656881320D+03
 0.952756700439209D+03 -.429145644900491D+03 0.396119486642078D+03 -.752774001940268D+03
 0.908102954848040D+02 -.527441458394089D+02 -.571997925618414D+02 0.468267933622504D+02
-.305009898371D-04 0.000000000000D+00 0.000000000000D+00 0.403822695812D-05 0.000000000000D+00  6 2 2 25 2 2 21 2 0.12660126D+00 0.18373468D+00 0.35127314D+06 0.35127314D+06 0.35127314D+06 0.10795183D+01  1  2 14  2  6  2        2 -.371265113965D-03 0.100000000000D+01
  </mgrwgt>
  </event>
  <event>
  6     66 0.18204334E-05 0.22327204E+02 0.75467711E-02 0.94528822E-01
        2 -1    0    0  503    0 0.00000000E+00 0.00000000E+00 0.11782463E+04 0.11782463E+04 0.32000000E+00 0.0000E+00 0.9000E+01
        2 -1    0    0  502    0 0.00000000E+00 0.00000000E+00 -.20728907E+04 0.20728907E+04 0.32000000E+00 0.0000E+00 0.9000E+01
       25  1    1    2    0    0 -.10399678E+03 0.47589941E+03 -.14912374E+04 0.15737565E+04 0.12500000E+03 0.0000E+00 0.9000E+01
        2  1    1    2  501    0 0.88556169E+02 -.45712665E+03 0.99007487E+03 0.10941002E+04 0.32000000E+00 0.0000E+00 0.9000E+01
        2  1    1    2  502    0 -.99337029E+01 -.63958104E+01 -.48620650E+03 0.48635013E+03 0.32000000E+00 0.0000E+00 0.9000E+01
       21  1    1    2  503  501 0.25374316E+02 -.12376941E+02 0.92724624E+02 0.96930196E+02 0.75000000E+00 0.0000E+00 0.9000E+01
#aMCatNLO 2  0  0  1  2 0.85370215D+03 0.00000000D+00  -5  6  0 0.00000000D+00 0.00000000D+00 0.00000000D+00 0.00000000D+00 0.00000000D+00
  <mgrwgt>
 0.5706179886D-01    4    2    0
 0.149777553718004D+04 0.000000000000000D+00 0.000000000000000D+00 0.149777553718004D+04
 0.149777553718004D+04 0.000000000000000D+00 0.000000000000000D+00 -.149777553718004D+04
 0.116292264079811D+04 -.941397158479640D+02 0.471089884657635D+03 -.105165398442366D+04
 0.148103738408333D+04 0.101090422880810D+03 -.463243403539677D+03 0.140308873865167D+04
 0.351591049478638D+03 -.695070703284591D+01 -.784648111795804D+01 -.351434754228006D+03
 0.000000000000000D+00 0.000000000000000D+00 -.000000000000000D+00 0.000000000000000D+00
 0.162894114571644D+04 0.000000000000000D+00 0.000000000000000D+00 0.162894114571644D+04
 0.149936198249290D+04 0.000000000000000D+00 0.000000000000000D+00 -.149936198249290D+04
 0.116571815051406D+04 -.104002067437543D+03 0.475900486921856D+03 -.105165398442366D+04
 0.147833283776051D+04 0.885567810583166D+02 -.457129814383727D+03 0.140308873865167D+04
 0.351633121188782D+03 -.992902985673842D+01 -.639373159974609D+01 -.351434754228006D+03
 0.132619018745988D+03 0.253743162359648D+02 -.123769409383829D+02 0.129579163223543D+03
-.126489516684D-02 0.000000000000D+00 0.000000000000D+00 0.586608831831D-04 0.000000000000D+00  6 2 2 25 2 2 21 2 0.16667243D+00 0.31856861D+00 0.24060379D+06 0.24060379D+06 0.24060379D+06 0.10917130D+01  1  2  8  1  6  1        2 -.360613525657D-02 0.100000000000D+01
-.119298307407D-02 0.000000000000D+00 0.000000000000D+00 0.586608831831D-04 0.000000000000D+00  6 2 2 25 2 2 21 2 0.18134532D+00 0.31856861D+00 0.24060379D+06 0.24060379D+06 0.24060379D+06 0.10917130D+01  1  2  9  1  6  1        2 -.298815478834D-02 0.100000000000D+01
0.118874936223D-02 0.000000000000D+00 0.000000000000D+00 0.586608831831D-04 0.000000000000D+00  6 2 2 25 2 2 21 2 0.16667243D+00 0.31856861D+00 0.24060379D+06 0.24060379D+06 0.24060379D+06 0.10917130D+01  1  2 10  1  6  1        2 0.338904843558D-02 0.100000000000D+01
0.242931603573D-01 0.000000000000D+00 0.000000000000D+00 0.586608831831D-04 0.708628123520D-06  6 2 2 25 2 2 21 2 0.18126854D+00 0.31890604D+00 0.25431058D+06 0.25431058D+06 0.25431058D+06 0.10899010D+01  1  2  1  1  6  1        2 0.602670404678D-01 0.100000000000D+01
  </mgrwgt>
  </event>
  <event>
  5     66 0.18204334E-05 0.58960741E+02 0.75467711E-02 0.91908102E-01
        2 -1    0    0  501    0 0.00000000E+00 0.00000000E+00 0.25220414E+04 0.25220415E+04 0.32000000E+00 0.0000E+00 0.9000E+01
        2 -1    0    0  502    0 0.00000000E+00 0.00000000E+00 -.85948390E+03 0.85948396E+03 0.32000000E+00 0.0000E+00 0.9000E+01
       25  1    1    2    0    0 0.25183715E+03 0.37707378E+03 0.65020342E+03 0.80249366E+03 0.12500000E+03 0.0000E+00 0.9000E+01
        2  1    1    2  501    0 -.22497698E+03 -.32459317E+03 0.17728230E+04 0.18162810E+04 0.32000000E+00 0.0000E+00 0.9000E+01
        2  1    1    2  502    0 -.26860174E+02 -.52480616E+02 -.76046886E+03 0.76275073E+03 0.32000000E+00 0.0000E+00 0.9000E+01
#aMCatNLO 1  0  0  5  1 0.12357119D+03 0.00000000D+00  -5  6  0 0.00000000D+00 0.00000000D+00 0.00000000D+00 0.00000000D+00 0.00000000D+00
  <mgrwgt>
 0.6822954263D-02    6    2    0
 0.147229553648270D+04 0.000000000000000D+00 0.000000000000000D+00 0.147229553648270D+04
 0.147229553648270D+04 -.000000000000000D+00 -.000000000000000D+00 -.147229553648270D+04
 0.554496003920638D+03 0.251824523125878D+03 0.377056884017307D+03 0.293689179459408D+03
 0.108475606293356D+04 -.224961688508615D+03 -.324571104397720D+03 0.101031755055751D+04
 0.130533900611119D+04 -.268628346172622D+02 -.524857796195861D+02 -.130400673001692D+04
 0.000000000000000D+00 0.000000000000000D+00 0.000000000000000D+00 -.000000000000000D+00
 0.147229553648270D+04 0.000000000000000D+00 0.000000000000000D+00 0.147229553648270D+04
 0.147229553648270D+04 -.000000000000000D+00 -.000000000000000D+00 -.147229553648270D+04
 0.547614984404876D+03 0.251570814749281D+03 0.376561177509359D+03 0.281373374546883D+03
 0.106284026187826D+04 -.225456069912053D+03 -.325537048377891D+03 0.986318717729044D+03
 0.788037486448504D+03 -.207653380821549D+03 -.935414935501424D+02 -.754409134664914D+03
 0.546098340233759D+03 0.181538635984322D+03 0.425173644186746D+02 -.513282957611012D+03
0.173362836024D-02 0.000000000000D+00 0.000000000000D+00 0.885897767415D-04 0.000000000000D+00  6 2 2 25 2 2 21 0 0.38800638D+00 0.13222830D+00 0.21353797D+06 0.21353797D+06 0.21353797D+06 0.10956474D+01  1  2  2  3  6  5        2 0.322563033842D-02 0.100000000000D+01
0.721933677107D-03 0.000000000000D+00 -.665758937814D-05 0.885897767415D-04 0.000000000000D+00  6 2 2 25 2 2 21 2 0.38800638D+00 0.13222830D+00 0.21353797D+06 0.21353797D+06 0.21353797D+06 0.10956474D+01  1  2  3  3  6  5        2 0.161249176889D-02 0.100000000000D+01
-.101229778466D-02 0.000000000000D+00 0.000000000000D+00 0.885897767415D-04 0.000000000000D+00  6 2 2 25 2 2 21 2 0.38800638D+00 0.13222830D+00 0.21353797D+06 0.21353797D+06 0.21353797D+06 0.10956474D+01  1  2 15  3  6  5        2 -.226104128010D-02 0.100000000000D+01
-.273447575361D-04 0.000000000000D+00 0.000000000000D+00 0.885897767415D-04 0.000000000000D+00  6 2 2 25 2 2 21 2 0.38800638D+00 0.13222830D+00 0.21353797D+06 0.21353797D+06 0.21353797D+06 0.10956474D+01  1  2  4  3  6  5        2 -.610765196963D-04 0.100000000000D+01
-.390004689031D-02 0.000000000000D+00 0.000000000000D+00 0.885897767415D-04 0.000000000000D+00  6 2 2 25 2 2 21 2 0.38800638D+00 0.13222830D+00 0.21353797D+06 0.21353797D+06 0.21353797D+06 0.10956474D+01  1  2  5  3  6  5        2 -.871104051289D-02 0.100000000000D+01
0.582832477566D-02 0.000000000000D+00 -.000000000000D+00 0.885897767415D-04 0.000000000000D+00  6 2 2 25 2 2 21 2 0.38800638D+00 0.13222830D+00 0.21353797D+06 0.21353797D+06 0.21353797D+06 0.10956474D+01  1  2  6  3  6  5        2 0.130179904681D-01 0.100000000000D+01
  </mgrwgt>
  </event>
  <event>
  5     66 0.18204334E-05 0.11769104E+03 0.75467711E-02 0.84360720E-01
        2 -1    0    0  501    0 0.00000000E+00 0.00000000E+00 0.26778316E+04 0.26778316E+04 0.32000000E+00 0.0000E+00 0.9000E+01
        2 -1    0    0  502    0 0.00000000E+00 0.00000000E+00 -.38014996E+03 0.38015009E+03 0.32000000E+00 0.0000E+00 0.9000E+01
       25  1    1    2    0    0 0.56188191E+03 -.18205110E+03 0.12683347E+04 0.14046892E+04 0.12500000E+03 0.0000E+00 0.9000E+01
        2  1    1    2  501    0 -.51007345E+03 0.28770706E+03 0.12627314E+04 0.13919199E+04 0.32000000E+00 0.0000E+00 0.9000E+01
        2  1    1    2  502    0 -.51808463E+02 -.10565596E+03 -.23338439E+03 0.26137267E+03 0.32000000E+00 0.0000E+00 0.9000E+01
#aMCatNLO 1  0  0  1  5 0.81817959D+02 0.00000000D+00  -5  6  0 0.00000000D+00 0.00000000D+00 0.00000000D+00 0.00000000D+00 0.00000000D+00
  <mgrwgt>
 0.1935529940D-02    3    2    0
 0.100894886796158D+04 0.000000000000000D+00 0.000000000000000D+00 0.100894886796158D+04
 0.100894886796158D+04 0.000000000000000D+00 0.000000000000000D+00 -.100894886796158D+04
 0.684516363408964D+03 0.561820153060349D+03 -.181997243265275D+03 0.322758068580352D+03
 0.671452845493795D+03 -.510002886134587D+03 0.287667257479523D+03 0.328623688784475D+03
 0.661928527020393D+03 -.518172669257623D+02 -.105670014214248D+03 -.651381757364828D+03
 0.000000000000000D+00 -.000000000000000D+00 -.000000000000000D+00 -.000000000000000D+00
 0.128694213992699D+04 0.000000000000000D+00 0.000000000000000D+00 0.128694213992699D+04
 0.319413327026926D+04 0.000000000000000D+00 0.000000000000000D+00 -.319413327026926D+04
 0.766840252343896D+03 0.663420629068149D+03 0.167688015993846D+03 0.322758068580352D+03
 0.833399959723137D+03 -.404657473661717D+03 0.650241718936834D+03 0.328623688784475D+03
 0.688782870447283D+03 0.427376615062757D+02 0.219766105400451D+03 -.651381757364828D+03
 0.219205232768193D+04 -.301500816912708D+03 -.103769584033113D+04 -.190719113034227D+04
0.917794476975D-03 0.000000000000D+00 0.000000000000D+00 0.183185556848D-06 0.000000000000D+00  6 2 2 25 2 2 21 0 0.41197411D+00 0.58484621D-01 0.42698170D+06 0.42698170D+06 0.42698170D+06 0.10733899D+01  1  2  2  1  6  1        2 0.344944331788D-02 0.100000000000D+01
0.196197174764D-03 0.000000000000D+00 -.352457245242D-05 0.183185556848D-06 0.000000000000D+00  6 2 2 25 2 2 21 2 0.41197411D+00 0.58484621D-01 0.42698170D+06 0.42698170D+06 0.42698170D+06 0.10733899D+01  1  2  3  1  6  1        2 0.849593788101D-03 0.100000000000D+01
-.545806048827D-03 0.000000000000D+00 0.000000000000D+00 0.183185556848D-06 0.000000000000D+00  6 2 2 25 2 2 21 2 0.41197411D+00 0.58484621D-01 0.42698170D+06 0.42698170D+06 0.42698170D+06 0.10733899D+01  1  2 15  1  6  1        2 -.236350716645D-02 0.100000000000D+01
  </mgrwgt>
  </event>
  <event>
  5     66 0.18204334E-05 0.79632864E+02 0.75467711E-02 0.88830416E-01
        2 -1    0    0  501    0 0.00000000E+00 0.00000000E+00 0.71308832E+03 0.71308840E+03 0.32000000E+00 0.0000E+00 0.9000E+01
        2 -1    0    0  502    0 0.00000000E+00 0.00000000E+00 -.13604775E+04 0.13604776E+04 0.32000000E+00 0.0000E+00 0.9000E+01
       25  1    1    2    0    0 0.39192156E+02 0.64574599E+03 -.37751083E+03 0.75938352E+03 0.12500000E+03 0.0000E+00 0.9000E+01
        2  1    1    2  501    0 0.10385455E+02 -.58344055E+03 0.35580495E+03 0.68345300E+03 0.32000000E+00 0.0000E+00 0.9000E+01
        2  1    1    2  502    0 -.49577611E+02 -.62305438E+02 -.62568331E+03 0.63072943E+03 0.32000000E+00 0.0000E+00 0.9000E+01
#aMCatNLO 1  0  0  1  5 0.81817959D+02 0.00000000D+00  -5  6  0 0.00000000D+00 0.00000000D+00 0.00000000D+00 0.00000000D+00 0.00000000D+00
  <mgrwgt>
 0.1414130960D-02    4    2    0
 0.984957230521218D+03 0.000000000000000D+00 0.000000000000000D+00 0.984957230521218D+03
 0.984957230521218D+03 0.000000000000000D+00 0.000000000000000D+00 -.984957230521218D+03
 0.675245966561230D+03 0.391977681589185D+02 0.645732940405031D+03 -.147731580931237D+03
 0.836315640043210D+03 0.103850845327339D+02 -.583419748992973D+03 0.599113842508340D+03
 0.458352854437995D+03 -.495828526916525D+02 -.623131914120576D+02 -.451382261577103D+03
 0.000000000000000D+00 0.000000000000000D+00 -.000000000000000D+00 -.000000000000000D+00
 0.110369477916920D+04 0.000000000000000D+00 0.000000000000000D+00 0.110369477916920D+04
 0.125930964502993D+04 0.000000000000000D+00 0.000000000000000D+00 -.125930964502993D+04
 0.690419197535764D+03 -.739190229281246D+02 0.658608401381912D+03 -.147731580931237D+03
 0.835210673852927D+03 -.128065904638178D+03 -.567660635857338D+03 0.599113842508340D+03
 0.471856212314128D+03 -.126631215231271D+03 -.535432008944863D+02 -.451382261577103D+03
 0.365518340496310D+03 0.328616142797574D+03 -.374045646300871D+02 -.155614865860736D+03
0.282538495875D-03 0.000000000000D+00 0.000000000000D+00 0.646027485738D-06 0.000000000000D+00  6 2 2 25 2 2 21 0 0.10970590D+00 0.20930424D+00 0.43694238D+06 0.43694238D+06 0.43694238D+06 0.10726729D+01  1  2  2  1  6  1        2 0.281491223940D-02 0.100000000000D+01
0.755405345403D-04 0.000000000000D+00 -.108502221825D-05 0.646027485738D-06 0.000000000000D+00  6 2 2 25 2 2 21 2 0.10970590D+00 0.20930424D+00 0.43694238D+06 0.43694238D+06 0.43694238D+06 0.10726729D+01  1  2  3  1  6  1        2 0.865968052381D-03 0.100000000000D+01
-.194407529164D-03 0.000000000000D+00 0.000000000000D+00 0.646027485738D-06 0.000000000000D+00  6 2 2 25 2 2 21 2 0.10970590D+00 0.20930424D+00 0.43694238D+06 0.43694238D+06 0.43694238D+06 0.10726729D+01  1  2 15  1  6  1        2 -.222861421914D-02 0.100000000000D+01
-.332662016429D-05 0.000000000000D+00 0.000000000000D+00 0.646027485738D-06 0.000000000000D+00  6 2 2 25 2 2 21 2 0.10970590D+00 0.20930424D+00 0.43694238D+06 0.43694238D+06 0.43694238D+06 0.10726729D+01  1  2  4  1  6  1        2 -.381351125222D-04 0.100000000000D+01
  </mgrwgt>
  </event>
  <event>
  6     66 0.18204334E-05 0.46545579E+02 0.75467711E-02 0.93571750E-01
        2 -1    0    0  501    0 0.00000000E+00 0.00000000E+00 0.10230806E+04 0.10230807E+04 0.32000000E+00 0.0000E+00 0.9000E+01
        2 -1    0    0  502    0 -.00000000E+00 -.00000000E+00 -.33995677E+04 0.33995677E+04 0.32000000E+00 0.0000E+00 0.9000E+01
       25  1    1    2    0    0 0.41225468E+02 0.51168178E+03 0.28505430E+03 0.60033219E+03 0.12500000E+03 0.0000E+00 0.9000E+01
        2  1    1    2  501    0 0.90929131E+01 -.51932996E+03 0.46390071E+03 0.69641242E+03 0.32000000E+00 0.0000E+00 0.9000E+01
        2  1    1    2  503    0 -.39629420E+02 0.57075730E+01 -.19484579E+04 0.19488692E+04 0.32000000E+00 0.0000E+00 0.9000E+01
       21  1    1    2  502  503 -.10688961E+02 0.19406071E+01 -.11769842E+04 0.11770346E+04 0.75000000E+00 0.0000E+00 0.9000E+01
#aMCatNLO 2  0  0  5  2 0.83113294D+01 0.00000000D+00  -5  6  0 0.00000000D+00 0.00000000D+00 0.00000000D+00 0.00000000D+00 0.00000000D+00
  <mgrwgt>
 0.5381481208D-01    3    2    0
 0.186494827429748D+04 0.000000000000000D+00 0.000000000000000D+00 0.186494827429748D+04
 0.186494827429748D+04 -.000000000000000D+00 -.000000000000000D+00 -.186494827429748D+04
 0.893542842594389D+03 0.412305337947256D+02 0.511632342376926D+03 0.720642908012397D+03
 0.112124627317246D+04 0.909281423021876D+01 -.519281130177255D+03 0.993709028677080D+03
 0.171510743282810D+04 -.503233480249428D+02 0.764878780032848D+01 -.171435193668948D+04
 0.000000000000000D+00 0.000000000000000D+00 0.000000000000000D+00 -.000000000000000D+00
 0.186494827429748D+04 0.000000000000000D+00 0.000000000000000D+00 0.186494827429748D+04
 0.186494827429748D+04 -.000000000000000D+00 -.000000000000000D+00 -.186494827429748D+04
 0.893526304525541D+03 0.412299309595819D+02 0.511632434003542D+03 0.720622371390000D+03
 0.112122337509522D+04 0.909205777403193D+01 -.519281015201342D+03 0.993683258688003D+03
 0.106893892578311D+04 -.396174951523313D+02 0.570566858129152D+01 -.106818927465045D+04
 0.646207943191084D+03 -.107044935812809D+02 0.194291261650843D+01 -.646116355427553D+03
-.109358097150D+00 0.000000000000D+00 0.000000000000D+00 0.507097016511D-04 0.000000000000D+00  6 2 2 25 2 2 21 2 0.15739703D+00 0.52301042D+00 0.30170767D+06 0.30170767D+06 0.30170767D+06 0.10843695D+01  1  2 13  3  6  5        2 -.511802036040D-01 0.100000000000D+01
-.272892133232D-09 0.000000000000D+00 0.000000000000D+00 0.507097016511D-04 0.000000000000D+00  6 2 2 25 2 2 21 2 0.15739703D+00 0.52301042D+00 0.30170767D+06 0.30170767D+06 0.30170767D+06 0.10843695D+01  1  2 13  3  6  5        2 -.127715050872D-09 0.100000000000D+01
0.224345632316D+00 0.000000000000D+00 0.000000000000D+00 0.507097016511D-04 0.623504211139D-05  6 2 2 25 2 2 21 2 0.15739703D+00 0.52301042D+00 0.30170767D+06 0.30170767D+06 0.30170767D+06 0.10843695D+01  1  2  1  3  6  5        2 0.104995015814D+00 0.100000000000D+01
  </mgrwgt>
  </event>
  <event>
  5     66 0.18204334E-05 0.49020064E+02 0.75467711E-02 0.92115232E-01
        2 -1    0    0  501    0 0.00000000E+00 0.00000000E+00 0.74055296E+03 0.74055303E+03 0.32000000E+00 0.0000E+00 0.9000E+01
        2 -1    0    0  502    0 -.00000000E+00 -.00000000E+00 -.25053177E+04 0.25053177E+04 0.32000000E+00 0.0000E+00 0.9000E+01
       25  1    1    2    0    0 0.36326827E+03 0.46247965E+03 0.59676131E+02 0.60418334E+03 0.12500000E+03 0.0000E+00 0.9000E+01
        2  1    1    2  501    0 -.28534327E+02 0.39872872E+02 0.36616271E+03 0.36943104E+03 0.32000000E+00 0.0000E+00 0.9000E+01
        2  1    1    2  502    0 -.33473394E+03 -.50235252E+03 -.21906036E+04 0.22722563E+04 0.32000000E+00 0.0000E+00 0.9000E+01
#aMCatNLO 1  0  0  5  2 0.40878277D+02 0.00000000D+00  -5  6  0 0.00000000D+00 0.00000000D+00 0.00000000D+00 0.00000000D+00 0.00000000D+00
  <mgrwgt>
 0.6903788930D-02    8    2    0
 0.136210152469291D+04 0.000000000000000D+00 0.000000000000000D+00 0.136210152469291D+04
 0.136210152469291D+04 -.000000000000000D+00 -.000000000000000D+00 -.136210152469291D+04
 0.758676534419197D+03 0.363300650641081D+03 0.462543883071872D+03 0.462634712656633D+03
 0.677225195381535D+03 -.285278748686402D+02 0.398638561547171D+02 0.675448738682302D+03
 0.128830131958510D+04 -.334772775772441D+03 -.502407739226589D+03 -.113808345133894D+04
 0.000000000000000D+00 0.000000000000000D+00 -.000000000000000D+00 0.000000000000000D+00
 0.136210152469291D+04 0.000000000000000D+00 0.000000000000000D+00 0.136210152469291D+04
 0.136210152469291D+04 -.000000000000000D+00 -.000000000000000D+00 -.136210152469291D+04
 0.757082313638905D+03 0.362840691341424D+03 0.461853602593287D+03 0.461071048867002D+03
 0.675814453903120D+03 -.289384567829672D+02 0.392476784178376D+02 0.674052936765505D+03
 0.113987524643332D+04 -.301992907978531D+03 -.406624316111441D+03 -.102116234091793D+04
 0.151431035410484D+03 -.319093265799252D+02 -.944769648996836D+02 -.113961644714575D+03
0.113453013193D-03 0.000000000000D+00 0.000000000000D+00 0.118297780024D-04 0.000000000000D+00  6 2 2 25 2 2 21 0 0.11393123D+00 0.38543349D+00 0.39315724D+06 0.39315724D+06 0.39315724D+06 0.10759683D+01  1  2  2  3  6  5        2 0.249764188139D-03 0.100000000000D+01
0.465734461840D-04 0.000000000000D+00 -.435689443526D-06 0.118297780024D-04 0.000000000000D+00  6 2 2 25 2 2 21 2 0.11393123D+00 0.38543349D+00 0.39315724D+06 0.39315724D+06 0.39315724D+06 0.10759683D+01  1  2  3  3  6  5        2 0.118700192470D-03 0.100000000000D+01
-.819285739064D-04 0.000000000000D+00 0.000000000000D+00 0.118297780024D-04 0.000000000000D+00  6 2 2 25 2 2 21 2 0.11393123D+00 0.38543349D+00 0.39315724D+06 0.39315724D+06 0.39315724D+06 0.10759683D+01  1  2 15  3  6  5        2 -.208808629988D-03 0.100000000000D+01
0.427916858092D-02 0.000000000000D+00 0.000000000000D+00 0.118297780024D-04 0.000000000000D+00  6 2 2 25 2 2 21 2 0.11393123D+00 0.38543349D+00 0.39405300D+06 0.39405300D+06 0.39405300D+06 0.10758969D+01  1  2 12  3  6  5        2 0.109029366795D-01 0.100000000000D+01
0.191576013465D-09 0.000000000000D+00 0.000000000000D+00 0.118297780024D-04 0.000000000000D+00  6 2 2 25 2 2 21 2 0.11393123D+00 0.38543349D+00 0.39405300D+06 0.39405300D+06 0.39405300D+06 0.10758969D+01  1  2 12  3  6  5        2 0.488118452130D-09 0.100000000000D+01
-.225576714071D-02 0.000000000000D+00 0.000000000000D+00 0.118297780024D-04 0.000000000000D+00  6 2 2 25 2 2 21 2 0.11393123D+00 0.38543349D+00 0.39315724D+06 0.39315724D+06 0.39315724D+06 0.10759683D+01  1  2  4  3  6  5        2 -.574919864664D-02 0.100000000000D+01
-.501625303772D-02 0.000000000000D+00 0.000000000000D+00 0.118297780024D-04 0.000000000000D+00  6 2 2 25 2 2 21 2 0.11393123D+00 0.38543349D+00 0.39315724D+06 0.39315724D+06 0.39315724D+06 0.10759683D+01  1  2  5  3  6  5        2 -.127847571920D-01 0.100000000000D+01
0.564026348361D-02 0.000000000000D+00 -.000000000000D+00 0.118297780024D-04 0.000000000000D+00  6 2 2 25 2 2 21 2 0.11393123D+00 0.38543349D+00 0.39315724D+06 0.39315724D+06 0.39315724D+06 0.10759683D+01  1  2  6  3  6  5        2 0.143751518503D-01 0.100000000000D+01
  </mgrwgt>
  </event>
  <event>
  5     66 0.18204334E-05 0.34487798E+02 0.75467711E-02 0.86299090E-01
        2 -1    0    0  501    0 0.00000000E+00 0.00000000E+00 0.31129539E+04 0.31129539E+04 0.32000000E+00 0.0000E+00 0.9000E+01
        2 -1    0    0  502    0 0.00000000E+00 0.00000000E+00 -.90122231E+03 0.90122237E+03 0.32000000E+00 0.0000E+00 0.9000E+01
       25  1    1    2    0    0 0.15318673E+03 0.76517467E+03 0.84935988E+03 0.11601705E+04 0.12500000E+03 0.0000E+00 0.9000E+01
        2  1    1    2  501    0 -.15097542E+03 -.73076086E+03 0.20417088E+04 0.21737939E+04 0.32000000E+00 0.0000E+00 0.9000E+01
        2  1    1    2  502    0 -.22113075E+01 -.34413809E+02 -.67933709E+03 0.68021186E+03 0.32000000E+00 0.0000E+00 0.9000E+01
#aMCatNLO 1  0  0  5  2 0.36408941D+01 0.00000000D+00  -5  6  0 0.00000000D+00 0.00000000D+00 0.00000000D+00 0.00000000D+00 0.00000000D+00
  <mgrwgt>
 0.2940784570D-02    6    2    0
 0.167495182959439D+04 0.000000000000000D+00 0.000000000000000D+00 0.167495182959439D+04
 0.167495182959439D+04 -.000000000000000D+00 -.000000000000000D+00 -.167495182959439D+04
 0.829450202359034D+03 0.153178458691752D+03 0.765136657766008D+03 0.251922394655424D+03
 0.125676556248220D+04 -.150966947606349D+03 -.730719838968126D+03 0.101129480207801D+04
 0.126368789434754D+04 -.221151108540309D+01 -.344168187978826D+02 -.126321719673344D+04
 0.000000000000000D+00 0.000000000000000D+00 -.000000000000000D+00 0.000000000000000D+00
 0.167495182959439D+04 0.000000000000000D+00 0.000000000000000D+00 0.167495182959439D+04
 0.167495182959439D+04 -.000000000000000D+00 -.000000000000000D+00 -.167495182959439D+04
 0.811030341924181D+03 0.153069052745122D+03 0.763434018938905D+03 0.189429615794777D+03
 0.118479935893828D+04 -.151129778992809D+03 -.733253915491369D+03 0.918285362106318D+03
 0.899878192799182D+03 -.244584622853307D+03 0.237767369271087D+03 -.832721923723120D+03
 0.454195765527126D+03 0.242645349100995D+03 -.267947472718624D+03 -.274993054177975D+03
0.311536325291D-02 0.000000000000D+00 0.000000000000D+00 0.137960530347D-04 0.000000000000D+00  6 2 2 25 2 2 21 0 0.47891598D+00 0.13864959D+00 0.61693729D+06 0.61693729D+06 0.61693729D+06 0.10621190D+01  1  2  2  3  6  5        2 0.216308069967D-02 0.100000000000D+01
0.247010037385D-02 0.000000000000D+00 -.119638151852D-04 0.137960530347D-04 0.000000000000D+00  6 2 2 25 2 2 21 2 0.47891598D+00 0.13864959D+00 0.61693729D+06 0.61693729D+06 0.61693729D+06 0.10621190D+01  1  2  3  3  6  5        2 0.193475066442D-02 0.100000000000D+01
-.227205894593D-02 0.000000000000D+00 0.000000000000D+00 0.137960530347D-04 0.000000000000D+00  6 2 2 25 2 2 21 2 0.47891598D+00 0.13864959D+00 0.61693729D+06 0.61693729D+06 0.61693729D+06 0.10621190D+01  1  2 15  3  6  5        2 -.177963114446D-02 0.100000000000D+01
-.161141007186D-03 0.000000000000D+00 0.000000000000D+00 0.137960530347D-04 0.000000000000D+00  6 2 2 25 2 2 21 2 0.47891598D+00 0.13864959D+00 0.61693729D+06 0.61693729D+06 0.61693729D+06 0.10621190D+01  1  2  4  3  6  5        2 -.126216599948D-03 0.100000000000D+01
-.228654562877D-02 0.000000000000D+00 0.000000000000D+00 0.137960530347D-04 0.000000000000D+00  6 2 2 25 2 2 21 2 0.47891598D+00 0.13864959D+00 0.61693729D+06 0.61693729D+06 0.61693729D+06 0.10621190D+01  1  2  5  3  6  5        2 -.179097810005D-02 0.100000000000D+01
0.324254142804D-02 0.000000000000D+00 -.000000000000D+00 0.137960530347D-04 0.000000000000D+00  6 2 2 25 2 2 21 2 0.47891598D+00 0.13864959D+00 0.61693729D+06 0.61693729D+06 0.61693729D+06 0.10621190D+01  1  2  6  3  6  5        2 0.253977905057D-02 0.100000000000D+01
  </mgrwgt>
  </event>
  <event>
  6     66 0.18204334E-05 0.15224853E+03 0.75467711E-02 0.93599305E-01
       21 -1    0    0  501  503 0.00000000E+00 0.00000000E+00 0.11576271E+04 0.11576273E+04 0.75000000E+00 0.0000E+00 0.9000E+01
        2 -1    0    0  502    0 0.00000000E+00 0.00000000E+00 -.10612090E+04 0.10612091E+04 0.32000000E+00 0.0000E+00 0.9000E+01
       25  1    1    2    0    0 -.43164406E+03 0.14608856E+03 -.10810448E+03 0.48473708E+03 0.12500000E+03 0.0000E+00 0.9000E+01
        2  1    1    2  501    0 0.19221690E+03 0.33617644E+02 0.22380436E+03 0.29692756E+03 0.32000000E+00 0.0000E+00 0.9000E+01
        2  1    1    2  502    0 -.38898641E+02 0.52781279E+02 -.68016963E+03 0.68332261E+03 0.32000000E+00 0.0000E+00 0.9000E+01
       -2  1    1    2    0  503 0.27832579E+03 -.23248749E+03 0.66088780E+03 0.75384910E+03 0.32000000E+00 0.0000E+00 0.9000E+01
#aMCatNLO 2  0  0  1  4 0.19364686D+03 0.00000000D+00  -5  6  0 0.00000000D+00 0.00000000D+00 0.00000000D+00 0.00000000D+00 0.00000000D+00
  <mgrwgt>
 0.6466290856D-03    1    2    0
 0.651161631996010D+03 0.000000000000000D+00 0.000000000000000D+00 0.651161631996010D+03
 0.651161631996010D+03 0.000000000000000D+00 0.000000000000000D+00 -.651161631996010D+03
 0.380098381200445D+03 -.341406688411856D+03 0.707358593196566D+02 0.853679723617638D+02
 0.466030460605228D+03 0.284593490914703D+03 -.435728943041664D+02 0.366459190119257D+03
 0.456194422186346D+03 0.568131974971528D+02 -.271629650154902D+02 -.451827162481021D+03
 0.000000000000000D+00 0.000000000000000D+00 -.000000000000000D+00 0.000000000000000D+00
 0.173785107156966D+04 0.000000000000000D+00 0.000000000000000D+00 0.173785107156966D+04
 0.706898607069732D+03 0.000000000000000D+00 0.000000000000000D+00 -.706898607069732D+03
 0.480151418465885D+03 -.431614665408174D+03 0.146087215574231D+03 0.853679723617638D+02
 0.415161361769021D+03 0.192189480273941D+03 0.336128242651308D+02 0.366459190119257D+03
 0.456560572860798D+03 -.389006075260215D+02 0.527874480292054D+02 -.451827162481021D+03
 0.109287632554369D+04 0.278325792660254D+03 -.232487487868567D+03 0.103095246449993D+04
0.128799811843D-03 0.000000000000D+00 0.000000000000D+00 0.484154336019D-05 0.466598750168D-10  6 21 2 25 2 2 -2 2 0.17809649D+00 0.16326294D+00 0.30021181D+06 0.30021181D+06 0.30021181D+06 0.10845292D+01  1  2  1  4  6  1        2 0.646629085644D-03 0.100000000000D+01
  </mgrwgt>
  </event>
  <event>
  6     66 0.18204334E-05 0.78857112E+02 0.75467711E-02 0.94440856E-01
        2 -1    0    0  503    0 0.00000000E+00 0.00000000E+00 0.91335568E+03 0.91335573E+03 0.32000000E+00 0.0000E+00 0.9000E+01
        2 -1    0    0  502    0 0.00000000E+00 0.00000000E+00 -.19652171E+04 0.19652171E+04 0.32000000E+00 0.0000E+00 0.9000E+01
       25  1    1    2    0    0 -.16487530E+03 0.43170664E+03 -.65758019E+03 0.81338256E+03 0.12500000E+03 0.0000E+00 0.9000E+01
        2  1    1    2  501    0 0.20464915E+03 -.30922028E+03 0.55718504E+03 0.66929345E+03 0.32000000E+00 0.0000E+00 0.9000E+01
        2  1    1    2  502    0 -.75700942E+02 -.68597809E+02 -.11666818E+04 0.11711459E+04 0.32000000E+00 0.0000E+00 0.9000E+01
       21  1    1    2  503  501 0.35927091E+02 -.53888550E+02 0.21521547E+03 0.22475096E+03 0.75000000E+00 0.0000E+00 0.9000E+01
#aMCatNLO 2  0  0  1  2 0.42697530D+02 0.00000000D+00  -5  6  0 0.00000000D+00 0.00000000D+00 0.00000000D+00 0.00000000D+00 0.00000000D+00
  <mgrwgt>
 0.5983158981D-01    1    2    0
 0.116544971629944D+04 0.000000000000000D+00 0.000000000000000D+00 0.116544971629944D+04
 0.116544971629944D+04 0.000000000000000D+00 0.000000000000000D+00 -.116544971629944D+04
 0.556068471445074D+03 -.156206632077440D+03 0.418712904054894D+03 -.306375810089833D+03
 0.107519827869799D+04 0.221134343116589D+03 -.333947091422848D+03 0.997812748435167D+03
 0.699632682455819D+03 -.649277110391493D+02 -.847658126320458D+02 -.691436938345334D+03
 0.000000000000000D+00 0.000000000000000D+00 -.000000000000000D+00 0.000000000000000D+00
 0.153579880352662D+04 0.000000000000000D+00 0.000000000000000D+00 0.153579880352662D+04
 0.116873458433462D+04 0.000000000000000D+00 0.000000000000000D+00 -.116873458433462D+04
 0.568371078766210D+03 -.164870679784805D+03 0.431708472371068D+03 -.306375810089833D+03
 0.106448423812219D+04 0.204647630779887D+03 -.309217980536421D+03 0.997812748435167D+03
 0.698943751768925D+03 -.757040421867351D+02 -.686019418459790D+02 -.691436938345334D+03
 0.372734319203914D+03 0.359270911916525D+02 -.538885499886677D+02 0.367064219191998D+03
0.145419979177D-01 0.000000000000D+00 0.000000000000D+00 0.847730827334D-05 0.582392976574D-07  6 2 2 25 2 2 21 2 0.14051622D+00 0.30234100D+00 0.25829879D+06 0.25829879D+06 0.25829879D+06 0.10893938D+01  1  2  1  1  6  1        2 0.598315898070D-01 0.100000000000D+01
  </mgrwgt>
  </event>
  <event>
  5     66 0.18204334E-05 0.25970170E+03 0.75467711E-02 0.93954878E-01
        2 -1    0    0  501    0 0.00000000E+00 0.00000000E+00 0.30705933E+04 0.30705933E+04 0.32000000E+00 0.0000E+00 0.9000E+01
        2 -1    0    0  502    0 0.00000000E+00 0.00000000E+00 -.54321371E+03 0.54321380E+03 0.32000000E+00 0.0000E+00 0.9000E+01
       25  1    1    2    0    0 -.50435341E+03 0.12173296E+03 -.97632705E+01 0.53377111E+03 0.12500000E+03 0.0000E+00 0.9000E+01
        2  1    1    2  501    0 0.26756541E+03 -.15123901E+02 0.27384085E+04 0.27514907E+04 0.32000000E+00 0.0000E+00 0.9000E+01
        2  1    1    2  502    0 0.23678800E+03 -.10660906E+03 -.20126563E+03 0.32854529E+03 0.32000000E+00 0.0000E+00 0.9000E+01
#aMCatNLO 1  0  0  5  2 0.23806194D+02 0.00000000D+00  -5  6  0 0.00000000D+00 0.00000000D+00 0.00000000D+00 0.00000000D+00 0.00000000D+00
  <mgrwgt>
 0.4962791742D-03    1    2    0
 0.129150632181960D+04 0.000000000000000D+00 0.000000000000000D+00 0.129150632181960D+04
 0.129150632181960D+04 -.000000000000000D+00 -.000000000000000D+00 -.129150632181960D+04
 0.756316765192155D+03 -.504369687084960D+03 0.121740083981222D+03 -.535892358606455D+03
 0.117007533359465D+04 0.267561912799827D+03 -.151237032222891D+02 0.113897242403246D+04
 0.656620544852386D+03 0.236807774285133D+03 -.106616380758933D+03 -.603080065426003D+03
 0.000000000000000D+00 0.000000000000000D+00 0.000000000000000D+00 -.000000000000000D+00
 0.129150632181960D+04 0.000000000000000D+00 0.000000000000000D+00 0.129150632181960D+04
 0.129150632181960D+04 -.000000000000000D+00 -.000000000000000D+00 -.129150632181960D+04
 0.764421340140272D+03 -.496980517459669D+03 0.118413307549829D+03 -.554710410144320D+03
 0.114497391249687D+04 0.278810589682645D+03 -.201881197989539D+02 0.111032533754670D+04
 0.587428865180984D+03 0.251337721105547D+03 -.227572175292903D+02 -.530456530403400D+03
 0.861885258210626D+02 -.331677933285236D+02 -.754679702215844D+02 -.251583969989816D+02
0.284175279223D-03 0.000000000000D+00 0.000000000000D+00 0.162090419492D-05 0.000000000000D+00  6 2 2 25 2 2 21 2 0.47239898D+00 0.83571348D-01 0.28163693D+06 0.28163693D+06 0.28163693D+06 0.10865872D+01  1  2 14  3  6  5        2 0.496279174206D-03 0.100000000000D+01
  </mgrwgt>
  </event>
  <event>
  5     66 0.18204334E-05 0.31184091E+02 0.75467711E-02 0.89231395E-01
        2 -1    0    0  501    0 0.00000000E+00 0.00000000E+00 0.36302284E+04 0.36302284E+04 0.32000000E+00 0.0000E+00 0.9000E+01
        2 -1    0    0  502    0 0.00000000E+00 0.00000000E+00 -.10803243E+04 0.10803243E+04 0.32000000E+00 0.0000E+00 0.9000E+01
       25  1    1    2    0    0 0.44544241E+03 -.33373899E+03 0.12292592E+04 0.13551767E+04 0.12500000E+03 0.0000E+00 0.9000E+01
        2  1    1    2  501    0 -.47651893E+01 -.30820793E+02 0.22575149E+04 0.22577304E+04 0.32000000E+00 0.0000E+00 0.9000E+01
        2  1    1    2  502    0 -.44067722E+03 0.36455978E+03 -.93687007E+03 0.10976456E+04 0.32000000E+00 0.0000E+00 0.9000E+01
#aMCatNLO 1  0  0  5  1 0.37877989D+03 0.00000000D+00  -5  6  0 0.00000000D+00 0.00000000D+00 0.00000000D+00 0.00000000D+00 0.00000000D+00
  <mgrwgt>
 0.1963443932D-01    6    2    0
 0.198035954216153D+04 0.000000000000000D+00 0.000000000000000D+00 0.198035954216153D+04
 0.198035954216153D+04 -.000000000000000D+00 -.000000000000000D+00 -.198035954216153D+04
 0.820448386611699D+03 0.445475893290385D+03 -.333769572089254D+03 0.589626709315503D+03
 0.123165962662716D+04 -.476474657110717D+01 -.308179288194314D+02 0.123126479212100D+04
 0.190861107108419D+04 -.440711146719278D+03 0.364587500908685D+03 -.182089150143650D+04
 0.000000000000000D+00 0.000000000000000D+00 0.000000000000000D+00 -.000000000000000D+00
 0.198035954216153D+04 0.000000000000000D+00 0.000000000000000D+00 0.198035954216153D+04
 0.198035954216153D+04 -.000000000000000D+00 -.000000000000000D+00 -.198035954216153D+04
 0.776615043857974D+03 0.434000275595173D+03 -.324276127668739D+03 0.542212762809955D+03
 0.116057016219683D+04 -.219539915139768D+02 -.165977669222784D+02 0.116024378376761D+04
 0.155419122950314D+04 -.714919203641656D+03 0.235453604574039D+03 -.135976560855978D+04
 0.469342648765109D+03 0.302872919560460D+03 0.105420290016978D+03 -.342690938017783D+03
0.556954056477D-01 0.000000000000D+00 0.000000000000D+00 0.170314710609D-03 0.000000000000D+00  6 2 2 25 2 2 21 0 0.55849668D+00 0.16620374D+00 0.34436924D+06 0.34436924D+06 0.34436924D+06 0.10801476D+01  1  2  2  3  6  5        2 0.138158309722D-01 0.100000000000D+01
0.351142075162D-01 0.000000000000D+00 -.213885022624D-03 0.170314710609D-03 0.000000000000D+00  6 2 2 25 2 2 21 2 0.55849668D+00 0.16620374D+00 0.34436924D+06 0.34436924D+06 0.34436924D+06 0.10801476D+01  1  2  3  3  6  5        2 0.101626442255D-01 0.100000000000D+01
-.335642966283D-01 0.000000000000D+00 0.000000000000D+00 0.170314710609D-03 0.000000000000D+00  6 2 2 25 2 2 21 2 0.55849668D+00 0.16620374D+00 0.34436924D+06 0.34436924D+06 0.34436924D+06 0.10801476D+01  1  2 15  3  6  5        2 -.971407385904D-02 0.100000000000D+01
-.313948849563D-02 0.000000000000D+00 0.000000000000D+00 0.170314710609D-03 0.000000000000D+00  6 2 2 25 2 2 21 2 0.55849668D+00 0.16620374D+00 0.34436924D+06 0.34436924D+06 0.34436924D+06 0.10801476D+01  1  2  4  3  6  5        2 -.908620951122D-03 0.100000000000D+01
-.788942708627D-01 0.000000000000D+00 0.000000000000D+00 0.170314710609D-03 0.000000000000D+00  6 2 2 25 2 2 21 2 0.55849668D+00 0.16620374D+00 0.34436924D+06 0.34436924D+06 0.34436924D+06 0.10801476D+01  1  2  5  3  6  5        2 -.228333333692D-01 0.100000000000D+01
0.100588440971D+00 0.000000000000D+00 -.000000000000D+00 0.170314710609D-03 0.000000000000D+00  6 2 2 25 2 2 21 2 0.55849668D+00 0.16620374D+00 0.34436924D+06 0.34436924D+06 0.34436924D+06 0.10801476D+01  1  2  6  3  6  5        2 0.291119922989D-01 0.100000000000D+01
  </mgrwgt>
  </event>
  <event>
  5     66 0.18204334E-05 0.13911077E+03 0.75467711E-02 0.92436445E-01
        2 -1    0    0  501    0 0.00000000E+00 0.00000000E+00 0.19508714E+04 0.19508714E+04 0.32000000E+00 0.0000E+00 0.9000E+01
        2 -1    0    0  502    0 0.00000000E+00 0.00000000E+00 -.91531315E+03 0.91531320E+03 0.32000000E+00 0.0000E+00 0.9000E+01
       25  1    1    2    0    0 0.17224190E+03 0.57083889E+03 0.38224762E+03 0.71920968E+03 0.12500000E+03 0.0000E+00 0.9000E+01
        2  1    1    2  501    0 -.18519978E+03 -.43234823E+03 0.13536084E+04 0.14329968E+04 0.32000000E+00 0.0000E+00 0.9000E+01
        2  1    1    2  502    0 0.12957881E+02 -.13849066E+03 -.70029784E+03 0.71397811E+03 0.32000000E+00 0.0000E+00 0.9000E+01
#aMCatNLO 1  0  0  5  2 0.72974997D+01 0.00000000D+00  -5  6  0 0.00000000D+00 0.00000000D+00 0.00000000D+00 0.00000000D+00 0.00000000D+00
  <mgrwgt>
 0.3957216865D-02    9    2    0
 0.133628526927021D+04 0.000000000000000D+00 0.000000000000000D+00 0.133628526927021D+04
 0.133628526927021D+04 -.000000000000000D+00 -.000000000000000D+00 -.133628526927021D+04
 0.623209402574876D+03 0.172228940365679D+03 0.570826063834390D+03 0.131376392116644D+03
 0.101225295869357D+04 -.185187771071976D+03 -.432320196020735D+03 0.896359743597331D+03
 0.103710817727197D+04 0.129588307062970D+02 -.138505867813656D+03 -.102773613571397D+04
 0.000000000000000D+00 0.000000000000000D+00 0.000000000000000D+00 -.000000000000000D+00
 0.133628526927021D+04 0.000000000000000D+00 0.000000000000000D+00 0.133628526927021D+04
 0.133628526927021D+04 -.000000000000000D+00 -.000000000000000D+00 -.133628526927021D+04
 0.623170656149897D+03 0.172230417815909D+03 0.570810272631401D+03 0.131259218814211D+03
 0.101209495740587D+04 -.185185371424074D+03 -.432345843806609D+03 0.896169432841841D+03
 0.981582055025650D+03 0.129263417681343D+02 -.138287949085574D+03 -.971706068507642D+03
 0.557228699589955D+02 0.286118400311832D-01 -.176479739220138D+00 -.557225831484092D+02
0.829631568906D-05 0.000000000000D+00 0.000000000000D+00 0.356835866722D-05 0.000000000000D+00  6 2 2 25 2 2 21 0 0.30013406D+00 0.14081741D+00 0.37126437D+06 0.37126437D+06 0.37126437D+06 0.10777694D+01  1  2  2  3  6  5        2 0.285127507845D-04 0.100000000000D+01
0.177764551165D-05 0.000000000000D+00 -.318600367161D-07 0.356835866722D-05 0.000000000000D+00  6 2 2 25 2 2 21 2 0.30013406D+00 0.14081741D+00 0.37126437D+06 0.37126437D+06 0.37126437D+06 0.10777694D+01  1  2  3  3  6  5        2 0.709660668235D-05 0.100000000000D+01
-.527614870907D-05 0.000000000000D+00 0.000000000000D+00 0.356835866722D-05 0.000000000000D+00  6 2 2 25 2 2 21 2 0.30013406D+00 0.14081741D+00 0.37126437D+06 0.37126437D+06 0.37126437D+06 0.10777694D+01  1  2 15  3  6  5        2 -.210631151940D-04 0.100000000000D+01
0.967895830469D-03 0.000000000000D+00 0.000000000000D+00 0.356835866722D-05 0.000000000000D+00  6 2 2 25 2 2 21 2 0.30013406D+00 0.14081741D+00 0.37124428D+06 0.37124428D+06 0.37124428D+06 0.10777711D+01  1  2 12  3  6  5        2 0.386399986135D-02 0.100000000000D+01
0.145734925375D-09 0.000000000000D+00 0.000000000000D+00 0.356835866722D-05 0.000000000000D+00  6 2 2 25 2 2 21 2 0.30013406D+00 0.14081741D+00 0.37124428D+06 0.37124428D+06 0.37124428D+06 0.10777711D+01  1  2 12  3  6  5        2 0.581797868858D-09 0.100000000000D+01
-.663398660373D-04 0.000000000000D+00 0.000000000000D+00 0.356835866722D-05 0.000000000000D+00  6 2 2 25 2 2 21 2 0.30013406D+00 0.14081741D+00 0.37126437D+06 0.37126437D+06 0.37126437D+06 0.10777694D+01  1  2  4  3  6  5        2 -.264837918214D-03 0.100000000000D+01
-.149578259128D-02 0.000000000000D+00 0.000000000000D+00 0.356835866722D-05 0.000000000000D+00  6 2 2 25 2 2 21 2 0.30013406D+00 0.14081741D+00 0.37126437D+06 0.37126437D+06 0.37126437D+06 0.10777694D+01  1  2  5  3  6  5        2 -.597137093031D-02 0.100000000000D+01
0.157830535124D-02 0.000000000000D+00 -.000000000000D+00 0.356835866722D-05 0.000000000000D+00  6 2 2 25 2 2 21 2 0.30013406D+00 0.14081741D+00 0.37126437D+06 0.37126437D+06 0.37126437D+06 0.10777694D+01  1  2  6  3  6  5        2 0.630081319870D-02 0.100000000000D+01
0.352335864358D-05 0.000000000000D+00 0.000000000000D+00 0.356835866722D-05 0.645511557432D-03  6 2 2 25 2 2 21 2 0.30013406D+00 0.14081741D+00 0.37124428D+06 0.37124428D+06 0.37124428D+06 0.10777711D+01  1  2 11  3  6  5        2 0.140658290714D-04 0.100000000000D+01
  </mgrwgt>
  </event>
  <event>
  5     66 0.18204334E-05 0.14042495E+02 0.75467711E-02 0.95245608E-01
        2 -1    0    0  501    0 0.00000000E+00 0.00000000E+00 0.11653564E+04 0.11653565E+04 0.32000000E+00 0.0000E+00 0.9000E+01
        2 -1    0    0  502    0 -.00000000E+00 -.00000000E+00 -.12254648E+04 0.12254648E+04 0.32000000E+00 0.0000E+00 0.9000E+01
       25  1    1    2    0    0 0.32389234E+03 0.31654783E+03 0.23045913E+02 0.47038802E+03 0.12500000E+03 0.0000E+00 0.9000E+01
        2  1    1    2  501    0 0.14042157E+02 0.20068906E+00 0.86504311E+03 0.86515716E+03 0.32000000E+00 0.0000E+00 0.9000E+01
        2  1    1    2  502    0 -.33793450E+03 -.31674851E+03 -.94819737E+03 0.10552761E+04 0.32000000E+00 0.0000E+00 0.9000E+01
#aMCatNLO 1  0  0  5  2 0.32728280D+02 0.00000000D+00  -5  6  0 0.00000000D+00 0.00000000D+00 0.00000000D+00 0.00000000D+00 0.00000000D+00
  <mgrwgt>
 0.5339349720D-01    6    2    0
 0.119503279143478D+04 0.000000000000000D+00 0.000000000000000D+00 0.119503279143478D+04
 0.119503279143478D+04 -.000000000000000D+00 -.000000000000000D+00 -.119503279143478D+04
 0.471172273734341D+03 0.323931845363605D+03 0.316584283779229D+03 0.349408408500954D+02
 0.887116553396874D+03 0.140410607065890D+02 0.200673383519325D+00 0.887005404524220D+03
 0.103177675573834D+04 -.337972906070194D+03 -.316784957162748D+03 -.921946245374315D+03
 0.000000000000000D+00 -.000000000000000D+00 0.000000000000000D+00 0.000000000000000D+00
 0.119503279143478D+04 0.000000000000000D+00 0.000000000000000D+00 0.119503279143478D+04
 0.119503279143478D+04 -.000000000000000D+00 -.000000000000000D+00 -.119503279143478D+04
 0.447490883551407D+03 0.306837408244095D+03 0.300561518541649D+03 -.116905660942416D+02
 0.801988903842775D+03 -.173897273880539D+02 -.292596788557366D+02 0.801266291854066D+03
 0.720668426635224D+03 0.978126462400978D+02 -.324288215676269D+03 -.636107554237411D+03
 0.419917368840148D+03 -.387260327096139D+03 0.529863759903560D+02 -.153468171522414D+03
0.505234379812D-02 0.000000000000D+00 0.000000000000D+00 0.535510487169D-04 0.000000000000D+00  6 2 2 25 2 2 21 0 0.17928561D+00 0.18853305D+00 0.22427020D+06 0.22427020D+06 0.22427020D+06 0.10940254D+01  1  2  2  3  6  5        2 0.316055603667D-01 0.100000000000D+01
0.500223936323D-02 0.000000000000D+00 -.194023304974D-04 0.535510487169D-04 0.000000000000D+00  6 2 2 25 2 2 21 2 0.17928561D+00 0.18853305D+00 0.22427020D+06 0.22427020D+06 0.22427020D+06 0.10940254D+01  1  2  3  3  6  5        2 0.374532828044D-01 0.100000000000D+01
-.327243245836D-02 0.000000000000D+00 0.000000000000D+00 0.535510487169D-04 0.000000000000D+00  6 2 2 25 2 2 21 2 0.17928561D+00 0.18853305D+00 0.22427020D+06 0.22427020D+06 0.22427020D+06 0.10940254D+01  1  2 15  3  6  5        2 -.245016940257D-01 0.100000000000D+01
-.117582558723D-03 0.000000000000D+00 0.000000000000D+00 0.535510487169D-04 0.000000000000D+00  6 2 2 25 2 2 21 2 0.17928561D+00 0.18853305D+00 0.22427020D+06 0.22427020D+06 0.22427020D+06 0.10940254D+01  1  2  4  3  6  5        2 -.880376268491D-03 0.100000000000D+01
-.270561608029D-02 0.000000000000D+00 0.000000000000D+00 0.535510487169D-04 0.000000000000D+00  6 2 2 25 2 2 21 2 0.17928561D+00 0.18853305D+00 0.22427020D+06 0.22427020D+06 0.22427020D+06 0.10940254D+01  1  2  5  3  6  5        2 -.202577679429D-01 0.100000000000D+01
0.400337631015D-02 0.000000000000D+00 -.000000000000D+00 0.535510487169D-04 0.000000000000D+00  6 2 2 25 2 2 21 2 0.17928561D+00 0.18853305D+00 0.22427020D+06 0.22427020D+06 0.22427020D+06 0.10940254D+01  1  2  6  3  6  5        2 0.299744922681D-01 0.100000000000D+01
  </mgrwgt>
  </event>
  <event>
  5     66 0.18204334E-05 0.16337926E+03 0.75467711E-02 0.89199309E-01
        2 -1    0    0  501    0 0.00000000E+00 0.00000000E+00 0.13768050E+04 0.13768050E+04 0.32000000E+00 0.0000E+00 0.9000E+01
        2 -1    0    0  502    0 0.00000000E+00 0.00000000E+00 -.85434703E+03 0.85434709E+03 0.32000000E+00 0.0000E+00 0.9000E+01
       25  1    1    2    0    0 -.17180349E+03 -.50521323E+03 0.46058766E+03 0.71590700E+03 0.12500000E+03 0.0000E+00 0.9000E+01
        2  1    1    2  501    0 0.84737748E+01 0.50219980E+03 0.69718235E+03 0.85926700E+03 0.32000000E+00 0.0000E+00 0.9000E+01
        2  1    1    2  502    0 0.16332972E+03 0.30134265E+01 -.63531209E+03 0.65597807E+03 0.32000000E+00 0.0000E+00 0.9000E+01
#aMCatNLO 1  0  0  2  5 0.50184100D+03 0.00000000D+00  -5  6  0 0.00000000D+00 0.00000000D+00 0.00000000D+00 0.00000000D+00 0.00000000D+00
  <mgrwgt>
 0.9700050562D-03    4    2    0
 0.108455950866183D+04 0.000000000000000D+00 0.000000000000000D+00 0.108455950866183D+04
 0.108455950866183D+04 0.000000000000000D+00 0.000000000000000D+00 -.108455950866183D+04
 0.625463862373957D+03 -.171824061701217D+03 -.505148740595986D+03 0.301465229886523D+03
 0.715820073471925D+03 0.847264077862505D+01 0.502132594696626D+03 0.510087687840848D+03
 0.827835081477782D+03 0.163351420922592D+03 0.301614589936042D+01 -.811552917727371D+03
 0.000000000000000D+00 0.000000000000000D+00 0.000000000000000D+00 0.000000000000000D+00
 0.176239649494703D+04 0.000000000000000D+00 0.000000000000000D+00 0.176239649494703D+04
 0.121019146755590D+04 0.000000000000000D+00 0.000000000000000D+00 -.121019146755590D+04
 0.687955442979464D+03 -.321561709056607D+03 -.513200227945322D+03 0.301465229886523D+03
 0.726532876790987D+03 -.155964212363532D+03 0.493290721819485D+03 0.510087687840848D+03
 0.811926218810829D+03 -.235911634667576D+02 -.703587428291554D+01 -.811552917727371D+03
 0.746173423921645D+03 0.501117084886898D+03 0.269453804087528D+02 0.552205027391128D+03
0.247033883814D-03 0.000000000000D+00 0.000000000000D+00 0.350591271494D-06 0.000000000000D+00  6 2 2 25 2 2 21 0 0.21181615D+00 0.13143801D+00 0.36820707D+06 0.36820707D+06 0.36820707D+06 0.10780301D+01  1  2  2  2  6  2        2 0.192786711537D-02 0.100000000000D+01
0.378413707179D-04 0.000000000000D+00 -.948675159363D-06 0.350591271494D-06 0.000000000000D+00  6 2 2 25 2 2 21 2 0.21181615D+00 0.13143801D+00 0.36820707D+06 0.36820707D+06 0.36820707D+06 0.10780301D+01  1  2  3  2  6  2        2 0.343201551805D-03 0.100000000000D+01
-.134805325188D-03 0.000000000000D+00 0.000000000000D+00 0.350591271494D-06 0.000000000000D+00  6 2 2 25 2 2 21 2 0.21181615D+00 0.13143801D+00 0.36820707D+06 0.36820707D+06 0.36820707D+06 0.10780301D+01  1  2 15  2  6  2        2 -.122261418967D-02 0.100000000000D+01
-.864982578723D-05 0.000000000000D+00 0.000000000000D+00 0.350591271494D-06 0.000000000000D+00  6 2 2 25 2 2 21 2 0.21181615D+00 0.13143801D+00 0.36820707D+06 0.36820707D+06 0.36820707D+06 0.10780301D+01  1  2  4  2  6  2        2 -.784494212738D-04 0.100000000000D+01
  </mgrwgt>
  </event>
  <event>
  5     66 0.18204334E-05 0.43418327E+02 0.75467711E-02 0.80872458E-01
        2 -1    0    0  501    0 0.00000000E+00 0.00000000E+00 0.25089450E+04 0.25089450E+04 0.32000000E+00 0.0000E+00 0.9000E+01
        2 -1    0    0  502    0 0.00000000E+00 0.00000000E+00 -.36740700E+04 0.36740701E+04 0.32000000E+00 0.0000E+00 0.9000E+01
       25  1    1    2    0    0 -.13783165E+03 0.93944157E+03 0.55945941E+03 0.11091293E+04 0.12500000E+03 0.0000E+00 0.9000E+01
        2  1    1    2  501    0 0.16590801E+03 -.97255776E+03 0.15291802E+04 0.18198314E+04 0.32000000E+00 0.0000E+00 0.9000E+01
        2  1    1    2  502    0 -.28076352E+02 0.33116194E+02 -.32537647E+04 0.32540544E+04 0.32000000E+00 0.0000E+00 0.9000E+01
#aMCatNLO 1  0  0  1  5 0.17907617D+03 0.00000000D+00  -5  6  0 0.00000000D+00 0.00000000D+00 0.00000000D+00 0.00000000D+00 0.00000000D+00
  <mgrwgt>
 0.6413792267D-02    7    2    0
 0.303612247491595D+04 0.000000000000000D+00 0.000000000000000D+00 0.303612247491595D+04
 0.303612247491595D+04 0.000000000000000D+00 0.000000000000000D+00 -.303612247491595D+04
 0.123675461627363D+04 -.137823370225767D+03 0.939399604193492D+03 0.782604678707491D+03
 0.214635453217737D+04 0.165901126480035D+03 -.972517435489663D+03 0.190618058737875D+04
 0.268913580138090D+04 -.280777562542682D+02 0.331178312961714D+02 -.268878526608624D+04
 0.000000000000000D+00 -.000000000000000D+00 -.000000000000000D+00 0.000000000000000D+00
 0.486524409882322D+04 0.000000000000000D+00 0.000000000000000D+00 0.486524409882322D+04
 0.351809064004084D+04 0.000000000000000D+00 0.000000000000000D+00 -.351809064004084D+04
 0.152620575198748D+04 -.115379619432124D+03 0.129919069334895D+04 0.782604678707491D+03
 0.196576950209776D+04 0.199304242977108D+03 -.437039039914519D+03 0.190618058737875D+04
 0.279058657329610D+04 0.164344722989782D+02 0.746684085847757D+03 -.268878526608624D+04
 0.210077291148272D+04 -.100359095843962D+03 -.160883573928218D+04 0.134715345878238D+04
0.129195506001D+00 0.000000000000D+00 0.000000000000D+00 0.500525760712D-04 0.000000000000D+00  6 2 2 25 2 2 21 0 0.38599154D+00 0.56524155D+00 0.98767215D+06 0.98767215D+06 0.98767215D+06 0.10482228D+01  1  2  2  1  6  1        2 0.409007473365D-02 0.100000000000D+01
0.111254659686D+00 0.000000000000D+00 -.496144761003D-03 0.500525760712D-04 0.000000000000D+00  6 2 2 25 2 2 21 2 0.38599154D+00 0.56524155D+00 0.98767215D+06 0.98767215D+06 0.98767215D+06 0.10482228D+01  1  2  3  1  6  1        2 0.386998436587D-02 0.100000000000D+01
-.922854036273D-01 0.000000000000D+00 0.000000000000D+00 0.500525760712D-04 0.000000000000D+00  6 2 2 25 2 2 21 2 0.38599154D+00 0.56524155D+00 0.98767215D+06 0.98767215D+06 0.98767215D+06 0.10482228D+01  1  2 15  1  6  1        2 -.321014032349D-02 0.100000000000D+01
-.799957631979D-02 0.000000000000D+00 0.000000000000D+00 0.500525760712D-04 0.000000000000D+00  6 2 2 25 2 2 21 2 0.38599154D+00 0.56524155D+00 0.98767215D+06 0.98767215D+06 0.98767215D+06 0.10482228D+01  1  2  4  1  6  1        2 -.278264617217D-03 0.100000000000D+01
-.289342014694D-01 0.000000000000D+00 -.594718129407D-01 0.500525760712D-04 0.000000000000D+00  6 2 2 25 2 2 21 2 0.63543857D+00 0.56524155D+00 0.98767215D+06 0.98767215D+06 0.98767215D+06 0.10482228D+01  1  2  5  1  6  1        2 -.729109158914D-04 0.100000000000D+01
0.579275998419D-01 0.000000000000D+00 0.527772519541D-01 0.500525760712D-04 0.000000000000D+00  6 2 2 25 2 2 21 2 0.38599154D+00 0.56524155D+00 0.98767215D+06 0.98767215D+06 0.98767215D+06 0.10482228D+01  1  2  6  1  6  1        2 0.201500688936D-02 0.100000000000D+01
0.104584679436D-02 0.000000000000D+00 -.334520469202D-02 0.500525760712D-04 0.000000000000D+00  6 21 2 25 2 2 -2 2 0.63543857D+00 0.56524155D+00 0.98767215D+06 0.98767215D+06 0.98767215D+06 0.10482228D+01  1  2  5  4  6  1        2 0.421349893350D-07 0.100000000000D+01
  </mgrwgt>
  </event>
  <event>
  5     66 0.18204334E-05 0.19139224E+03 0.75467711E-02 0.88458562E-01
        2 -1    0    0  501    0 0.00000000E+00 0.00000000E+00 0.58147922E+03 0.58147931E+03 0.32000000E+00 0.0000E+00 0.9000E+01
        2 -1    0    0  502    0 0.00000000E+00 0.00000000E+00 -.14491623E+04 0.14491624E+04 0.32000000E+00 0.0000E+00 0.9000E+01
       25  1    1    2    0    0 0.41164198E+03 0.20640560E+03 -.23375755E+03 0.53133792E+03 0.12500000E+03 0.0000E+00 0.9000E+01
        2  1    1    2  501    0 -.59245718E+03 -.14370200E+03 0.20162775E+03 0.64211340E+03 0.32000000E+00 0.0000E+00 0.9000E+01
        2  1    1    2  502    0 0.18081519E+03 -.62703601E+02 -.83555331E+03 0.85719036E+03 0.32000000E+00 0.0000E+00 0.9000E+01
#aMCatNLO 1  0  0  2  2 0.69642789D+03 0.00000000D+00  -5  6  0 0.00000000D+00 0.00000000D+00 0.00000000D+00 0.00000000D+00 0.00000000D+00
  <mgrwgt>
 0.5163961102D-03    4    2    0
 0.917964006056195D+03 0.000000000000000D+00 0.000000000000000D+00 0.917964006056195D+03
 0.917964006056195D+03 0.000000000000000D+00 0.000000000000000D+00 -.917964006056195D+03
 0.477192068507114D+03 0.411616458646304D+03 0.206408975706906D+03 -.738213825391560D+01
 0.805487417678348D+03 -.592443471958713D+03 -.143698673517524D+03 0.526470705548698D+03
 0.553248525926928D+03 0.180827013312409D+03 -.627103021893818D+02 -.519088567294782D+03
 0.000000000000000D+00 -.000000000000000D+00 0.000000000000000D+00 0.000000000000000D+00
 0.150532706824686D+04 0.000000000000000D+00 0.000000000000000D+00 0.150532706824686D+04
 0.101450789901821D+04 0.000000000000000D+00 0.000000000000000D+00 -.101450789901821D+04
 0.468944485648821D+03 0.439299892447638D+03 0.106042628931625D+03 -.738213825391560D+01
 0.821000789409267D+03 -.544853323991403D+03 -.316236853869400D+03 0.526470705548698D+03
 0.590990697768114D+03 0.214306821975241D+03 -.184091418070385D+03 -.519088567294782D+03
 0.638898994438872D+03 -.108753390431477D+03 0.394285643008159D+03 0.490819169228650D+03
0.127078770456D-03 0.000000000000D+00 0.000000000000D+00 0.570837208171D-07 0.000000000000D+00  6 2 2 25 2 2 21 0 0.89458352D-01 0.22294806D+00 0.40841614D+06 0.40841614D+06 0.40841614D+06 0.10747763D+01  1  2  2  2  6  2        2 0.144795436579D-02 0.100000000000D+01
0.119739701666D-04 0.000000000000D+00 -.488015939161D-06 0.570837208171D-07 0.000000000000D+00  6 2 2 25 2 2 21 2 0.89458352D-01 0.22294806D+00 0.40841614D+06 0.40841614D+06 0.40841614D+06 0.10747763D+01  1  2  3  2  6  2        2 0.157600007227D-03 0.100000000000D+01
-.759516093996D-04 0.000000000000D+00 0.000000000000D+00 0.570837208171D-07 0.000000000000D+00  6 2 2 25 2 2 21 2 0.89458352D-01 0.22294806D+00 0.40841614D+06 0.40841614D+06 0.40841614D+06 0.10747763D+01  1  2 15  2  6  2        2 -.999666278078D-03 0.100000000000D+01
-.679932935725D-05 0.000000000000D+00 0.000000000000D+00 0.570837208171D-07 0.000000000000D+00  6 2 2 25 2 2 21 2 0.89458352D-01 0.22294806D+00 0.40841614D+06 0.40841614D+06 0.40841614D+06 0.10747763D+01  1  2  4  2  6  2        2 -.894919847745D-04 0.100000000000D+01
  </mgrwgt>
  </event>
  <event>
  5     66 0.18204334E-05 0.39270403E+02 0.75467711E-02 0.91972170E-01
        2 -1    0    0  501    0 0.00000000E+00 0.00000000E+00 0.79020500E+03 0.79020507E+03 0.32000000E+00 0.0000E+00 0.9000E+01
        2 -1    0    0  502    0 -.00000000E+00 -.00000000E+00 -.11872498E+04 0.11872498E+04 0.32000000E+00 0.0000E+00 0.9000E+01
       25  1    1    2    0    0 -.34436863E+03 -.42263806E+03 -.38135388E+03 0.67695529E+03 0.12500000E+03 0.0000E+00 0.9000E+01
        2  1    1    2  501    0 -.21506389E+02 0.32864232E+02 0.53299595E+03 0.53444117E+03 0.32000000E+00 0.0000E+00 0.9000E+01
        2  1    1    2  502    0 0.36587502E+03 0.38977383E+03 -.54868686E+03 0.76605845E+03 0.32000000E+00 0.0000E+00 0.9000E+01
#aMCatNLO 1  0  0  5  2 0.73708421D+01 0.00000000D+00  -5  6  0 0.00000000D+00 0.00000000D+00 0.00000000D+00 0.00000000D+00 0.00000000D+00
  <mgrwgt>
 0.6858652351D-02    4    2    0
 0.968592192513650D+03 0.000000000000000D+00 0.000000000000000D+00 0.968592192513650D+03
 0.968592192513650D+03 -.000000000000000D+00 -.000000000000000D+00 -.968592192513650D+03
 0.612911942591439D+03 -.344422132642750D+03 -.422694055629623D+03 -.250477901724706D+03
 0.654705153489946D+03 -.215034752297323D+02 0.328597798384091D+02 0.653526337210911D+03
 0.669567288945916D+03 0.365925607872482D+03 0.389834275791214D+03 -.403048435486204D+03
 0.000000000000000D+00 -.000000000000000D+00 0.000000000000000D+00 0.000000000000000D+00
 0.968592192513650D+03 0.000000000000000D+00 0.000000000000000D+00 0.968592192513650D+03
 0.968592192513650D+03 -.000000000000000D+00 -.000000000000000D+00 -.968592192513650D+03
 0.572381668410394D+03 -.287772117959925D+03 -.362342670068390D+03 -.312875010035694D+03
 0.596760344948960D+03 0.383091637683733D+02 0.965804277114962D+02 0.587645759159406D+03
 0.504619636299278D+03 0.439604411223134D+03 0.228263785869384D+03 -.963565412027261D+02
 0.263422735368668D+03 -.190141457031583D+03 0.374984564875093D+02 -.178414207920985D+03
0.819730016822D-03 0.000000000000D+00 0.000000000000D+00 0.247169672480D-05 0.000000000000D+00  6 2 2 25 2 2 21 0 0.12157001D+00 0.18265382D+00 0.32111199D+06 0.32111199D+06 0.32111199D+06 0.10823735D+01  1  2  2  3  6  5        2 0.914536404311D-02 0.100000000000D+01
0.444734877601D-03 0.000000000000D+00 -.314797910447D-05 0.247169672480D-05 0.000000000000D+00  6 2 2 25 2 2 21 2 0.12157001D+00 0.18265382D+00 0.32111199D+06 0.32111199D+06 0.32111199D+06 0.10823735D+01  1  2  3  3  6  5        2 0.581280316712D-02 0.100000000000D+01
-.569740507515D-03 0.000000000000D+00 0.000000000000D+00 0.247169672480D-05 0.000000000000D+00  6 2 2 25 2 2 21 2 0.12157001D+00 0.18265382D+00 0.32111199D+06 0.32111199D+06 0.32111199D+06 0.10823735D+01  1  2 15  3  6  5        2 -.744666000649D-02 0.100000000000D+01
-.499496223688D-04 0.000000000000D+00 0.000000000000D+00 0.247169672480D-05 0.000000000000D+00  6 2 2 25 2 2 21 2 0.12157001D+00 0.18265382D+00 0.32111199D+06 0.32111199D+06 0.32111199D+06 0.10823735D+01  1  2  4  3  6  5        2 -.652854852914D-03 0.100000000000D+01
  </mgrwgt>
  </event>
  <event>
  5     66 0.18204334E-05 0.16602399E+02 0.75467711E-02 0.91740074E-01
        2 -1    0    0  501    0 0.00000000E+00 0.00000000E+00 0.54643706E+03 0.54643716E+03 0.32000000E+00 0.0000E+00 0.9000E+01
        2 -1    0    0  502    0 0.00000000E+00 0.00000000E+00 -.11716725E+04 0.11716725E+04 0.32000000E+00 0.0000E+00 0.9000E+01
       25  1    1    2    0    0 -.28680402E+03 0.55223770E+03 -.41945515E+03 0.76078292E+03 0.12500000E+03 0.0000E+00 0.9000E+01
        2  1    1    2  501    0 0.14653114E+02 0.78270630E+01 0.20866597E+03 0.20932646E+03 0.32000000E+00 0.0000E+00 0.9000E+01
        2  1    1    2  502    0 0.27215091E+03 -.56006477E+03 -.41444623E+03 0.74800029E+03 0.32000000E+00 0.0000E+00 0.9000E+01
#aMCatNLO 1  0  0  1  2 0.26142352D+02 0.00000000D+00  -5  6  0 0.00000000D+00 0.00000000D+00 0.00000000D+00 0.00000000D+00 0.00000000D+00
  <mgrwgt>
 0.1174229861D-02    7    2    0
 0.800153350493585D+03 0.000000000000000D+00 0.000000000000000D+00 0.800153350493585D+03
 0.800153350493585D+03 0.000000000000000D+00 0.000000000000000D+00 -.800153350493585D+03
 0.652998787565482D+03 -.286853488064160D+03 0.552347667815004D+03 -.153001786939694D+03
 0.306073553186338D+03 0.146441645986068D+02 0.782228244965579D+01 0.305622938112631D+03
 0.641234360235350D+03 0.272209323465553D+03 -.560169950264660D+03 -.152621151172937D+03
 0.000000000000000D+00 0.000000000000000D+00 -.000000000000000D+00 0.000000000000000D+00
 0.952799285871277D+03 0.000000000000000D+00 0.000000000000000D+00 0.952799285871277D+03
 0.801380184808998D+03 0.000000000000000D+00 0.000000000000000D+00 -.801380184808998D+03
 0.663008975921316D+03 -.293766472520009D+03 0.560577929434118D+03 -.153001786939694D+03
 0.306058375069027D+03 0.114286375915727D+02 0.116505318374905D+02 0.305622938112631D+03
 0.631452864377494D+03 0.265523901658013D+03 -.552210613619020D+03 -.152621151172937D+03
 0.153659255312438D+03 0.168139332704232D+02 -.200178476525881D+02 0.151419101062279D+03
0.447205441459D-05 0.000000000000D+00 0.000000000000D+00 0.357025268491D-06 0.000000000000D+00  6 2 2 25 2 2 21 0 0.84067251D-01 0.18025731D+00 0.40591572D+06 0.40591572D+06 0.40591572D+06 0.10749683D+01  1  2  2  1  6  1        2 0.788586200582D-04 0.100000000000D+01
0.336655685786D-05 0.000000000000D+00 -.171738664710D-07 0.357025268491D-06 0.000000000000D+00  6 2 2 25 2 2 21 2 0.84067251D-01 0.18025731D+00 0.40591572D+06 0.40591572D+06 0.40591572D+06 0.10749683D+01  1  2  3  1  6  1        2 0.685992482856D-04 0.100000000000D+01
-.283849544710D-05 0.000000000000D+00 0.000000000000D+00 0.357025268491D-06 0.000000000000D+00  6 2 2 25 2 2 21 2 0.84067251D-01 0.18025731D+00 0.40591572D+06 0.40591572D+06 0.40591572D+06 0.10749683D+01  1  2 15  1  6  1        2 -.578391104486D-04 0.100000000000D+01
-.664450392018D-05 0.000000000000D+00 0.000000000000D+00 0.357025268491D-06 0.000000000000D+00  6 2 2 25 2 2 21 2 0.84067251D-01 0.18025731D+00 0.40591572D+06 0.40591572D+06 0.40591572D+06 0.10749683D+01  1  2  4  1  6  1        2 -.135392923215D-03 0.100000000000D+01
-.406039320930D-03 0.000000000000D+00 -.675737832229D-05 0.357025268491D-06 0.000000000000D+00  6 2 2 25 2 2 21 2 0.10016978D+00 0.18025731D+00 0.40591572D+06 0.40591572D+06 0.40591572D+06 0.10749683D+01  1  2  5  1  6  1        2 -.672875487584D-02 0.100000000000D+01
0.401150083646D-03 0.000000000000D+00 0.665492222761D-05 0.357025268491D-06 0.000000000000D+00  6 2 2 25 2 2 21 2 0.84067251D-01 0.18025731D+00 0.40591572D+06 0.40591572D+06 0.40591572D+06 0.10749683D+01  1  2  6  1  6  1        2 0.817410646833D-02 0.100000000000D+01
-.104246461787D-04 0.000000000000D+00 -.174518018646D-06 0.357025268491D-06 0.000000000000D+00  6 21 2 25 2 2 -2 2 0.10016978D+00 0.18025731D+00 0.40591572D+06 0.40591572D+06 0.40591572D+06 0.10749683D+01  1  2  5  4  6  1        2 -.225347566538D-03 0.100000000000D+01
  </mgrwgt>
  </event>
  <event>
  5     66 -.18204334E-05 0.46450797E+02 0.75467711E-02 0.92874492E-01
        2 -1    0    0  501    0 0.00000000E+00 0.00000000E+00 0.11627439E+04 0.11627439E+04 0.32000000E+00 0.0000E+00 0.9000E+01
        2 -1    0    0  502    0 -.00000000E+00 -.00000000E+00 -.16149786E+04 0.16149786E+04 0.32000000E+00 0.0000E+00 0.9000E+01
       25  1    1    2    0    0 -.76694967E+02 0.52593215E+03 0.60438839E+03 0.81449191E+03 0.12500000E+03 0.0000E+00 0.9000E+01
        2  1    1    2  501    0 -.12817582E+00 0.46470867E+02 0.39667191E+03 0.39938486E+03 0.32000000E+00 0.0000E+00 0.9000E+01
        2  1    1    2  502    0 0.76823143E+02 -.57240302E+03 -.14532950E+04 0.15638457E+04 0.32000000E+00 0.0000E+00 0.9000E+01
#aMCatNLO 1  0  0  5  2 0.11982210D+02 0.00000000D+00  -5  6  0 0.00000000D+00 0.00000000D+00 0.00000000D+00 0.00000000D+00 0.00000000D+00
  <mgrwgt>
 -.1320597332D-01    8    2    0
 0.137033080423654D+04 0.000000000000000D+00 0.000000000000000D+00 0.137033080423654D+04
 0.137033080423654D+04 -.000000000000000D+00 -.000000000000000D+00 -.137033080423654D+04
 0.925431918892521D+03 -.767038220915452D+02 0.526016152129122D+03 0.747143070556713D+03
 0.470035149322964D+03 -.128119974671776D+00 0.464506199055982D+02 0.467734288987582D+03
 0.134519454025759D+04 0.768319420662169D+02 -.572466772034720D+03 -.121487735954430D+04
 0.000000000000000D+00 0.000000000000000D+00 0.000000000000000D+00 -.000000000000000D+00
 0.137033080423654D+04 0.000000000000000D+00 0.000000000000000D+00 0.137033080423654D+04
 0.137033080423654D+04 -.000000000000000D+00 -.000000000000000D+00 -.137033080423654D+04
 0.925258757710202D+03 -.766936860766398D+02 0.525940629741192D+03 0.746982798478547D+03
 0.469950352754920D+03 -.122971784766084D+00 0.464122612805540D+02 0.467652885092394D+03
 0.119093230842509D+04 0.765850792066456D+02 -.514148493605280D+03 -.107149699739059D+04
 0.154520189582866D+03 0.231578654760295D+00 -.582043974164652D+02 -.143138686180354D+03
0.134570080409D-04 0.000000000000D+00 0.000000000000D+00 0.936245678074D-05 0.000000000000D+00  6 2 2 25 2 2 21 0 0.17888368D+00 0.24845825D+00 0.34230030D+06 0.34230030D+06 0.34230030D+06 0.10803389D+01  1  2  2  3  6  5        2 0.499859096228D-04 0.100000000000D+01
0.400388105282D-05 0.000000000000D+00 -.516784541885D-07 0.936245678074D-05 0.000000000000D+00  6 2 2 25 2 2 21 2 0.17888368D+00 0.24845825D+00 0.34230030D+06 0.34230030D+06 0.34230030D+06 0.10803389D+01  1  2  3  3  6  5        2 0.173580229652D-04 0.100000000000D+01
-.103763901512D-04 0.000000000000D+00 0.000000000000D+00 0.936245678074D-05 0.000000000000D+00  6 2 2 25 2 2 21 2 0.17888368D+00 0.24845825D+00 0.34230030D+06 0.34230030D+06 0.34230030D+06 0.10803389D+01  1  2 15  3  6  5        2 -.449847575801D-04 0.100000000000D+01
0.741156951028D-02 0.000000000000D+00 0.000000000000D+00 0.936245678074D-05 0.000000000000D+00  6 2 2 25 2 2 21 2 0.17888368D+00 0.24845825D+00 0.34248388D+06 0.34248388D+06 0.34248388D+06 0.10803218D+01  1  2 12  3  6  5        2 0.321292556472D-01 0.100000000000D+01
0.491513913898D-09 0.000000000000D+00 0.000000000000D+00 0.936245678074D-05 0.000000000000D+00  6 2 2 25 2 2 21 2 0.17888368D+00 0.24845825D+00 0.34248388D+06 0.34248388D+06 0.34248388D+06 0.10803218D+01  1  2 12  3  6  5        2 0.213071956916D-08 0.100000000000D+01
-.113773778903D-01 0.000000000000D+00 0.000000000000D+00 0.936245678074D-05 0.000000000000D+00  6 2 2 25 2 2 21 2 0.17888368D+00 0.24845825D+00 0.34230030D+06 0.34230030D+06 0.34230030D+06 0.10803389D+01  1  2  4  3  6  5        2 -.493243390845D-01 0.100000000000D+01
-.753592722805D-02 0.000000000000D+00 0.000000000000D+00 0.936245678074D-05 0.000000000000D+00  6 2 2 25 2 2 21 2 0.17888368D+00 0.24845825D+00 0.34230030D+06 0.34230030D+06 0.34230030D+06 0.10803389D+01  1  2  5  3  6  5        2 -.326705004876D-01 0.100000000000D+01
0.845091567124D-02 0.000000000000D+00 -.000000000000D+00 0.936245678074D-05 0.000000000000D+00  6 2 2 25 2 2 21 2 0.17888368D+00 0.24845825D+00 0.34230030D+06 0.34230030D+06 0.34230030D+06 0.10803389D+01  1  2  6  3  6  5        2 0.366372492996D-01 0.100000000000D+01
  </mgrwgt>
  </event>
  <event>
  5     66 0.18204334E-05 0.22285490E+02 0.75467711E-02 0.94259377E-01
        2 -1    0    0  501    0 0.00000000E+00 0.00000000E+00 0.61835307E+03 0.61835315E+03 0.32000000E+00 0.0000E+00 0.9000E+01
        2 -1    0    0  502    0 0.00000000E+00 0.00000000E+00 -.10079611E+04 0.10079612E+04 0.32000000E+00 0.0000E+00 0.9000E+01
       25  1    1    2    0    0 -.46410431E+03 -.13101443E+03 -.37212007E+03 0.62181665E+03 0.12500000E+03 0.0000E+00 0.9000E+01
        2  1    1    2  501    0 0.46184405E+03 0.15318477E+03 0.37316911E+03 0.61320534E+03 0.32000000E+00 0.0000E+00 0.9000E+01
        2  1    1    2  502    0 0.22602586E+01 -.22170337E+02 -.39065708E+03 0.39129234E+03 0.32000000E+00 0.0000E+00 0.9000E+01
#aMCatNLO 1  0  0  2  2 0.30852582D+02 0.00000000D+00  -5  6  0 0.00000000D+00 0.00000000D+00 0.00000000D+00 0.00000000D+00 0.00000000D+00
  <mgrwgt>
 0.4785604019D-02    7    2    0
 0.789478284743954D+03 0.000000000000000D+00 0.000000000000000D+00 0.789478284743954D+03
 0.789478284743954D+03 0.000000000000000D+00 0.000000000000000D+00 -.789478284743954D+03
 0.548643118590391D+03 -.464103720844307D+03 -.131013935717357D+03 -.229842025145332D+03
 0.723675395962440D+03 0.461843171512951D+03 0.153184478368832D+03 0.535669188245060D+03
 0.306638054935078D+03 0.226054933135595D+01 -.221705426514751D+02 -.305827163099728D+03
 0.000000000000000D+00 0.000000000000000D+00 -.000000000000000D+00 -.000000000000000D+00
 0.792058409763286D+03 0.000000000000000D+00 0.000000000000000D+00 0.792058409763286D+03
 0.887582363236366D+03 0.000000000000000D+00 0.000000000000000D+00 -.887582363236366D+03
 0.554795471505369D+03 -.473007593211657D+03 -.124937886343865D+03 -.229842025145332D+03
 0.718046580467781D+03 0.450209621098312D+03 0.161123274410829D+03 0.535669188245060D+03
 0.306415916232253D+03 -.268630893748264D+01 -.187947805285418D+02 -.305827163099728D+03
 0.100382804794248D+03 0.254842810508279D+02 -.173906075384224D+02 -.955239534730798D+02
0.298428626500D-04 0.000000000000D+00 0.000000000000D+00 0.328664658917D-05 0.000000000000D+00  6 2 2 25 2 2 21 0 0.95131252D-01 0.15507095D+00 0.25353678D+06 0.25353678D+06 0.25353678D+06 0.10900004D+01  1  2  2  2  6  2        2 0.581207087592D-03 0.100000000000D+01
0.163462566129D-04 0.000000000000D+00 -.114604450382D-06 0.328664658917D-05 0.000000000000D+00  6 2 2 25 2 2 21 2 0.95131252D-01 0.15507095D+00 0.25353678D+06 0.25353678D+06 0.25353678D+06 0.10900004D+01  1  2  3  2  6  2        2 0.378235313424D-03 0.100000000000D+01
-.175427057723D-04 0.000000000000D+00 0.000000000000D+00 0.328664658917D-05 0.000000000000D+00  6 2 2 25 2 2 21 2 0.95131252D-01 0.15507095D+00 0.25353678D+06 0.25353678D+06 0.25353678D+06 0.10900004D+01  1  2 15  2  6  2        2 -.405919897944D-03 0.100000000000D+01
-.105854528471D-04 0.000000000000D+00 0.000000000000D+00 0.328664658917D-05 0.000000000000D+00  6 2 2 25 2 2 21 2 0.95131252D-01 0.15507095D+00 0.25353678D+06 0.25353678D+06 0.25353678D+06 0.10900004D+01  1  2  4  2  6  2        2 -.244936328247D-03 0.100000000000D+01
-.127933075649D-02 0.000000000000D+00 -.604720686675D-04 0.328664658917D-05 0.000000000000D+00  6 2 2 25 2 2 21 2 0.95131252D-01 0.17457285D+00 0.25353678D+06 0.25353678D+06 0.25353678D+06 0.10900004D+01  1  2  5  2  6  2        2 -.248296223804D-01 0.100000000000D+01
0.127793915289D-02 0.000000000000D+00 0.600502443656D-04 0.328664658917D-05 0.000000000000D+00  6 2 2 25 2 2 21 2 0.95131252D-01 0.15507095D+00 0.25353678D+06 0.25353678D+06 0.25353678D+06 0.10900004D+01  1  2  6  2  6  2        2 0.295701778991D-01 0.100000000000D+01
-.237380472429D-04 0.000000000000D+00 -.113497176880D-05 0.328664658917D-05 0.000000000000D+00  6 2 21 25 2 2 -2 2 0.95131252D-01 0.17457285D+00 0.25353678D+06 0.25353678D+06 0.25353678D+06 0.10900004D+01  1  2  5  5  6  2        2 -.263537674387D-03 0.100000000000D+01
  </mgrwgt>
  </event>
  <event>
  5     66 0.18204334E-05 0.23780831E+03 0.75467711E-02 0.92104223E-01
        2 -1    0    0  501    0 0.00000000E+00 0.00000000E+00 0.10166146E+04 0.10166147E+04 0.32000000E+00 0.0000E+00 0.9000E+01
        2 -1    0    0  502    0 0.00000000E+00 0.00000000E+00 -.13957408E+04 0.13957409E+04 0.32000000E+00 0.0000E+00 0.9000E+01
       25  1    1    2    0    0 0.55427561E+03 -.57127789E+02 -.68171741E+03 0.88929672E+03 0.12500000E+03 0.0000E+00 0.9000E+01
        2  1    1    2  501    0 -.23361788E+03 0.44479799E+02 0.85321927E+03 0.88574206E+03 0.32000000E+00 0.0000E+00 0.9000E+01
        2  1    1    2  502    0 -.32065772E+03 0.12647990E+02 -.55062806E+03 0.63731681E+03 0.32000000E+00 0.0000E+00 0.9000E+01
#aMCatNLO 1  0  0  2  1 0.16343622D+03 0.00000000D+00  -5  6  0 0.00000000D+00 0.00000000D+00 0.00000000D+00 0.00000000D+00 0.00000000D+00
  <mgrwgt>
 0.7621711038D-03    4    2    0
 0.119118877568210D+04 0.000000000000000D+00 0.000000000000000D+00 0.119118877568210D+04
 0.119118877568210D+04 0.000000000000000D+00 0.000000000000000D+00 -.119118877568210D+04
 0.791984758716096D+03 0.554305936561425D+03 -.571292267194769D+02 -.548722186708164D+03
 0.103263972677132D+04 -.233611733778093D+03 0.444786279734383D+02 0.100488408028047D+04
 0.557753065876778D+03 -.320694202783332D+03 0.126505987460385D+02 -.456161893572311D+03
 0.000000000000000D+00 -.000000000000000D+00 -.000000000000000D+00 0.000000000000000D+00
 0.137952896764419D+04 0.000000000000000D+00 0.000000000000000D+00 0.137952896764419D+04
 0.122997984159107D+04 0.000000000000000D+00 0.000000000000000D+00 -.122997984159107D+04
 0.825917453926266D+03 0.603656902074050D+03 -.318896079094369D+02 -.548722186708164D+03
 0.102218769724135D+04 -.170933213071192D+03 0.765343730594118D+02 0.100488408028047D+04
 0.539871857668307D+03 -.287213285751144D+03 0.297737811301158D+02 -.456161893572311D+03
 0.221531800399337D+03 -.145510403251714D+03 -.744185462800907D+02 0.149549126053125D+03
0.322958021961D-03 0.000000000000D+00 0.000000000000D+00 0.466497694562D-06 0.000000000000D+00  6 2 2 25 2 2 21 0 0.15640226D+00 0.21472937D+00 0.31913571D+06 0.31913571D+06 0.31913571D+06 0.10825707D+01  1  2  2  2  6  2        2 0.194857819945D-02 0.100000000000D+01
0.291599226174D-04 0.000000000000D+00 -.124024384113D-05 0.466497694562D-06 0.000000000000D+00  6 2 2 25 2 2 21 2 0.15640226D+00 0.21472937D+00 0.31913571D+06 0.31913571D+06 0.31913571D+06 0.10825707D+01  1  2  3  2  6  2        2 0.206191438925D-03 0.100000000000D+01
-.191813528330D-03 0.000000000000D+00 0.000000000000D+00 0.466497694562D-06 0.000000000000D+00  6 2 2 25 2 2 21 2 0.15640226D+00 0.21472937D+00 0.31913571D+06 0.31913571D+06 0.31913571D+06 0.10825707D+01  1  2 15  2  6  2        2 -.135632415526D-02 0.100000000000D+01
-.512998066529D-05 0.000000000000D+00 0.000000000000D+00 0.466497694562D-06 0.000000000000D+00  6 2 2 25 2 2 21 2 0.15640226D+00 0.21472937D+00 0.31913571D+06 0.31913571D+06 0.31913571D+06 0.10825707D+01  1  2  4  2  6  2        2 -.362743793565D-04 0.100000000000D+01
  </mgrwgt>
  </event>
  <event>
  5     66 0.18204334E-05 0.22996730E+03 0.75467711E-02 0.92933388E-01
        2 -1    0    0  501    0 0.00000000E+00 0.00000000E+00 0.51463209E+03 0.51463219E+03 0.32000000E+00 0.0000E+00 0.9000E+01
        2 -1    0    0  502    0 0.00000000E+00 0.00000000E+00 -.23312320E+04 0.23312321E+04 0.32000000E+00 0.0000E+00 0.9000E+01
       25  1    1    2    0    0 -.37389246E+03 0.29136567E+03 -.13104516E+03 0.50743212E+03 0.12500000E+03 0.0000E+00 0.9000E+01
        2  1    1    2  501    0 0.42298808E+03 -.66730506E+02 0.17581997E+03 0.46290889E+03 0.32000000E+00 0.0000E+00 0.9000E+01
        2  1    1    2  502    0 -.49095619E+02 -.22463517E+03 -.18613748E+04 0.18755232E+04 0.32000000E+00 0.0000E+00 0.9000E+01
#aMCatNLO 1  0  0  1  4 0.14572127D+02 0.00000000D+00  -5  6  0 0.00000000D+00 0.00000000D+00 0.00000000D+00 0.00000000D+00 0.00000000D+00
  <mgrwgt>
 0.2177735637D-02   11    2    0
 0.109532049642265D+04 0.000000000000000D+00 0.000000000000000D+00 0.109532049642265D+04
 0.109532049642265D+04 0.000000000000000D+00 0.000000000000000D+00 -.109532049642265D+04
 0.550567714336716D+03 -.373839792890683D+03 0.291387527837566D+03 0.250672946171138D+03
 0.747076526076100D+03 0.422937993881019D+03 -.667226047259879D+02 0.612204935592986D+03
 0.892996752432483D+03 -.490982009903369D+02 -.224664923111578D+03 -.862877881764124D+03
 0.000000000000000D+00 -.000000000000000D+00 0.000000000000000D+00 0.000000000000000D+00
 0.114367874520362D+04 0.000000000000000D+00 0.000000000000000D+00 0.114367874520362D+04
 0.109644305995749D+04 0.000000000000000D+00 0.000000000000000D+00 -.109644305995749D+04
 0.547963914846409D+03 -.370195028745388D+03 0.291132558680552D+03 0.250672946171138D+03
 0.749930549004868D+03 0.427904840139752D+03 -.670700600216193D+02 0.612204935592986D+03
 0.892794995293101D+03 -.431732102480011D+02 -.225079405320761D+03 -.862877881764124D+03
 0.494323460167371D+02 -.145366011463628D+02 0.101690666182899D+01 0.472356852461263D+02
0.197890919842D-04 0.000000000000D+00 0.000000000000D+00 0.329880505844D-06 0.000000000000D+00  6 2 2 25 2 2 21 0 0.79174177D-01 0.35865109D+00 0.32966413D+06 0.32966413D+06 0.32966413D+06 0.10815351D+01  1  2  2  1  6  1        2 0.855622345239D-04 0.100000000000D+01
0.183450095373D-05 0.000000000000D+00 -.759953238071D-07 0.329880505844D-06 0.000000000000D+00  6 2 2 25 2 2 21 2 0.79174177D-01 0.35865109D+00 0.32966413D+06 0.32966413D+06 0.32966413D+06 0.10815351D+01  1  2  3  1  6  1        2 0.927802291208D-05 0.100000000000D+01
-.132161950309D-04 0.000000000000D+00 0.000000000000D+00 0.329880505844D-06 0.000000000000D+00  6 2 2 25 2 2 21 2 0.79174177D-01 0.35865109D+00 0.32966413D+06 0.32966413D+06 0.32966413D+06 0.10815351D+01  1  2 15  1  6  1        2 -.668411537524D-04 0.100000000000D+01
0.754468475267D-03 0.000000000000D+00 0.000000000000D+00 0.329880505844D-06 0.000000000000D+00  6 2 2 25 2 2 21 2 0.83335705D-01 0.35865109D+00 0.33881092D+06 0.33881092D+06 0.33881092D+06 0.10806643D+01  1  2 12  1  6  1        2 0.358613345702D-02 0.100000000000D+01
0.255692069045D-08 0.000000000000D+00 0.000000000000D+00 0.329880505844D-06 0.000000000000D+00  6 2 2 25 2 2 21 2 0.82719556D-01 0.35865109D+00 0.33881092D+06 0.33881092D+06 0.33881092D+06 0.10806643D+01  1  2 12  1  6  1        2 0.122578077680D-07 0.100000000000D+01
-.378450782424D-03 0.000000000000D+00 0.000000000000D+00 0.329880505844D-06 0.000000000000D+00  6 2 2 25 2 2 21 2 0.79174177D-01 0.35865109D+00 0.32966413D+06 0.32966413D+06 0.32966413D+06 0.10815351D+01  1  2  4  1  6  1        2 -.191402191604D-02 0.100000000000D+01
-.200981417161D-02 0.000000000000D+00 -.111413645041D-03 0.329880505844D-06 0.000000000000D+00  6 2 2 25 2 2 21 2 0.82710653D-01 0.35865109D+00 0.32966413D+06 0.32966413D+06 0.32966413D+06 0.10815351D+01  1  2  5  1  6  1        2 -.966809804952D-02 0.100000000000D+01
0.201286691369D-02 0.000000000000D+00 0.111307355557D-03 0.329880505844D-06 0.000000000000D+00  6 2 2 25 2 2 21 2 0.79174177D-01 0.35865109D+00 0.32966413D+06 0.32966413D+06 0.32966413D+06 0.10815351D+01  1  2  6  1  6  1        2 0.101801120933D-01 0.100000000000D+01
0.182802532690D-04 0.000000000000D+00 0.000000000000D+00 0.329880505844D-06 0.000000000000D+00  6 21 2 25 2 2 -2 2 0.83335705D-01 0.35865109D+00 0.33881092D+06 0.33881092D+06 0.33881092D+06 0.10806643D+01  1  2 12  4  6  1        2 0.146387541774D-03 0.100000000000D+01
0.535474608730D-10 0.000000000000D+00 0.000000000000D+00 0.329880505844D-06 0.000000000000D+00  6 21 2 25 2 2 -2 2 0.82719556D-01 0.35865109D+00 0.33881092D+06 0.33881092D+06 0.33881092D+06 0.10806643D+01  1  2 12  4  6  1        2 0.436696220473D-09 0.100000000000D+01
-.220661597401D-04 0.000000000000D+00 -.855898235187D-06 0.329880505844D-06 0.000000000000D+00  6 21 2 25 2 2 -2 2 0.82710653D-01 0.35865109D+00 0.32966413D+06 0.32966413D+06 0.32966413D+06 0.10815351D+01  1  2  5  4  6  1        2 -.180789287910D-03 0.100000000000D+01
  </mgrwgt>
  </event>
  <event>
  5     66 0.18204334E-05 0.10382531E+03 0.75467711E-02 0.89160998E-01
        2 -1    0    0  501    0 0.00000000E+00 0.00000000E+00 0.12865053E+04 0.12865054E+04 0.32000000E+00 0.0000E+00 0.9000E+01
        2 -1    0    0  502    0 -.00000000E+00 -.00000000E+00 -.31814879E+04 0.31814880E+04 0.32000000E+00 0.0000E+00 0.9000E+01
       25  1    1    2    0    0 -.38942314E+03 -.61873552E+03 -.55894068E+03 0.92872155E+03 0.12500000E+03 0.0000E+00 0.9000E+01
        2  1    1    2  501    0 0.63786296E+01 -.10363268E+03 0.10303687E+04 0.10355869E+04 0.32000000E+00 0.0000E+00 0.9000E+01
        2  1    1    2  502    0 0.38304451E+03 0.72236820E+03 -.23664106E+04 0.25036849E+04 0.32000000E+00 0.0000E+00 0.9000E+01
#aMCatNLO 1  0  0  5  2 0.15201749D+02 0.00000000D+00  -5  6  0 0.00000000D+00 0.00000000D+00 0.00000000D+00 0.00000000D+00 0.00000000D+00
  <mgrwgt>
 0.1814501379D-02    8    2    0
 0.202311674046380D+04 0.000000000000000D+00 0.000000000000000D+00 0.202311674046380D+04
 0.202311674046380D+04 -.000000000000000D+00 -.000000000000000D+00 -.202311674046380D+04
 0.763803848739009D+03 -.389449708332390D+03 -.618786296318671D+03 -.182218998780480D+03
 0.162603197094425D+04 0.637841549521222D+01 -.103629199101931D+03 0.162271386123435D+04
 0.165639766124434D+04 0.383071292837178D+03 0.722415495420602D+03 -.144049486245387D+04
 0.000000000000000D+00 0.000000000000000D+00 0.000000000000000D+00 -.000000000000000D+00
 0.202311674046380D+04 0.000000000000000D+00 0.000000000000000D+00 0.202311674046380D+04
 0.202311674046380D+04 -.000000000000000D+00 -.000000000000000D+00 -.202311674046380D+04
 0.763585208123156D+03 -.389257646563297D+03 -.618424096381832D+03 -.182941224634586D+03
 0.162445078707098D+04 0.678714794363894D+01 -.102858390482894D+03 0.162117687059296D+04
 0.162932886530404D+04 0.363692744734164D+03 0.718278757162244D+03 -.141651536022386D+04
 0.288686204294318D+02 0.187777538854937D+02 0.300372970248057D+01 -.217202857345126D+02
0.138748131220D-02 0.000000000000D+00 0.000000000000D+00 0.660473265630D-05 0.000000000000D+00  6 2 2 25 2 2 21 0 0.19792390D+00 0.48945969D+00 0.69161810D+06 0.69161810D+06 0.69161810D+06 0.10586928D+01  1  2  2  3  6  5        2 0.499569309501D-03 0.100000000000D+01
0.544023425883D-03 0.000000000000D+00 -.532829357106D-05 0.660473265630D-05 0.000000000000D+00  6 2 2 25 2 2 21 2 0.19792390D+00 0.48945969D+00 0.69161810D+06 0.69161810D+06 0.69161810D+06 0.10586928D+01  1  2  3  3  6  5        2 0.219546309411D-03 0.100000000000D+01
-.982985559957D-03 0.000000000000D+00 0.000000000000D+00 0.660473265630D-05 0.000000000000D+00  6 2 2 25 2 2 21 2 0.19792390D+00 0.48945969D+00 0.69161810D+06 0.69161810D+06 0.69161810D+06 0.10586928D+01  1  2 15  3  6  5        2 -.396694042251D-03 0.100000000000D+01
0.265503350867D-02 0.000000000000D+00 0.000000000000D+00 0.660473265630D-05 0.000000000000D+00  6 2 2 25 2 2 21 2 0.19792390D+00 0.48945969D+00 0.69601637D+06 0.69601637D+06 0.69601637D+06 0.10585037D+01  1  2 12  3  6  5        2 0.107043098983D-02 0.100000000000D+01
0.398839192958D-10 0.000000000000D+00 0.000000000000D+00 0.660473265630D-05 0.000000000000D+00  6 2 2 25 2 2 21 2 0.19792390D+00 0.48945969D+00 0.69601637D+06 0.69601637D+06 0.69601637D+06 0.10585037D+01  1  2 12  3  6  5        2 0.160800167194D-10 0.100000000000D+01
-.141705727168D-02 0.000000000000D+00 0.000000000000D+00 0.660473265630D-05 0.000000000000D+00  6 2 2 25 2 2 21 2 0.19792390D+00 0.48945969D+00 0.69161810D+06 0.69161810D+06 0.69161810D+06 0.10586928D+01  1  2  4  3  6  5        2 -.571868194308D-03 0.100000000000D+01
-.140035371764D+00 0.000000000000D+00 0.000000000000D+00 0.660473265630D-05 0.000000000000D+00  6 2 2 25 2 2 21 2 0.19792390D+00 0.48945969D+00 0.69161810D+06 0.69161810D+06 0.69161810D+06 0.10586928D+01  1  2  5  3  6  5        2 -.565127301417D-01 0.100000000000D+01
0.142497251076D+00 0.000000000000D+00 -.000000000000D+00 0.660473265630D-05 0.000000000000D+00  6 2 2 25 2 2 21 2 0.19792390D+00 0.48945969D+00 0.69161810D+06 0.69161810D+06 0.69161810D+06 0.10586928D+01  1  2  6  3  6  5        2 0.575062471329D-01 0.100000000000D+01
  </mgrwgt>
  </event>
  <event>
  5     66 0.18204334E-05 0.16798163E+02 0.75467711E-02 0.93679493E-01
        2 -1    0    0  501    0 0.00000000E+00 0.00000000E+00 0.94520320E+03 0.94520325E+03 0.32000000E+00 0.0000E+00 0.9000E+01
        2 -1    0    0  502    0 0.00000000E+00 0.00000000E+00 -.58104489E+03 0.58104498E+03 0.32000000E+00 0.0000E+00 0.9000E+01
       25  1    1    2    0    0 -.20717375E+03 0.49053678E+03 0.21126134E+03 0.58634772E+03 0.12500000E+03 0.0000E+00 0.9000E+01
        2  1    1    2  501    0 0.16629882E+02 -.24450279E+01 0.37170302E+03 0.37208301E+03 0.32000000E+00 0.0000E+00 0.9000E+01
        2  1    1    2  502    0 0.19054387E+03 -.48809175E+03 -.21880605E+03 0.56781750E+03 0.32000000E+00 0.0000E+00 0.9000E+01
#aMCatNLO 1  0  0  5  1 0.14434681D+03 0.00000000D+00  -5  6  0 0.00000000D+00 0.00000000D+00 0.00000000D+00 0.00000000D+00 0.00000000D+00
  <mgrwgt>
 0.7091553543D-02    3    2    0
 0.741084068537513D+03 0.000000000000000D+00 0.000000000000000D+00 0.741084068537513D+03
 0.741084068537513D+03 -.000000000000000D+00 -.000000000000000D+00 -.741084068537513D+03
 0.552000047194647D+03 -.207207169770065D+03 0.490637349728141D+03 0.736154328284333D+02
 0.291641573090692D+03 0.166194941413737D+02 -.244350057022167D+01 0.291157395362477D+03
 0.638526516789686D+03 0.190587675628692D+03 -.488193849157920D+03 -.364772828190911D+03
 0.000000000000000D+00 0.000000000000000D+00 0.000000000000000D+00 0.000000000000000D+00
 0.741084068537513D+03 0.000000000000000D+00 0.000000000000000D+00 0.741084068537513D+03
 0.741084068537513D+03 -.000000000000000D+00 -.000000000000000D+00 -.741084068537513D+03
 0.345312787582602D+03 -.126838665493839D+03 0.284771942512016D+03 -.802048312867921D+02
 0.244163297065141D+03 0.646092635165455D+02 -.125370180662116D+03 0.199307994075295D+03
 0.446895074252852D+03 0.167906272364106D+03 0.197946787762428D+03 -.363785321730810D+03
 0.445796978174430D+03 -.105676870386812D+03 -.357348549612327D+03 0.244682158942307D+03
0.275261086428D-03 0.000000000000D+00 0.000000000000D+00 0.132564882187D-05 0.000000000000D+00  6 2 2 25 2 2 21 0 0.14541589D+00 0.89391533D-01 0.29590589D+06 0.29590589D+06 0.29590589D+06 0.10849937D+01  1  2  2  3  6  5        2 0.628052575150D-02 0.100000000000D+01
0.192359877241D-03 0.000000000000D+00 -.105707504979D-05 0.132564882187D-05 0.000000000000D+00  6 2 2 25 2 2 21 2 0.14541589D+00 0.89391533D-01 0.29590589D+06 0.29590589D+06 0.29590589D+06 0.10849937D+01  1  2  3  3  6  5        2 0.516678117838D-02 0.100000000000D+01
-.162165216183D-03 0.000000000000D+00 0.000000000000D+00 0.132564882187D-05 0.000000000000D+00  6 2 2 25 2 2 21 2 0.14541589D+00 0.89391533D-01 0.29590589D+06 0.29590589D+06 0.29590589D+06 0.10849937D+01  1  2 15  3  6  5        2 -.435575338673D-02 0.100000000000D+01
  </mgrwgt>
  </event>
  <event>
  6     66 -.18204334E-05 0.98226006E+02 0.75467711E-02 0.92886382E-01
        2 -1    0    0  501    0 0.00000000E+00 0.00000000E+00 0.14028447E+04 0.14028448E+04 0.32000000E+00 0.0000E+00 0.9000E+01
        2 -1    0    0  502    0 -.00000000E+00 -.00000000E+00 -.28129892E+04 0.28129892E+04 0.32000000E+00 0.0000E+00 0.9000E+01
       25  1    1    2    0    0 0.49682607E+03 -.31371306E+02 -.47116359E+03 0.69673555E+03 0.12500000E+03 0.0000E+00 0.9000E+01
        2  1    1    2  501    0 -.55124671E+03 -.53961098E+02 0.12293364E+04 0.13483518E+04 0.32000000E+00 0.0000E+00 0.9000E+01
        2  1    1    2  503    0 0.45615736E+02 0.78750801E+02 -.19995312E+04 0.20016013E+04 0.32000000E+00 0.0000E+00 0.9000E+01
       21  1    1    2  502  503 0.88049004E+01 0.65816030E+01 -.16878604E+03 0.16914530E+03 0.75000000E+00 0.0000E+00 0.9000E+01
#aMCatNLO 2  0  0  5  2 0.45774286D+01 0.00000000D+00  -5  6  0 0.00000000D+00 0.00000000D+00 0.00000000D+00 0.00000000D+00 0.00000000D+00
  <mgrwgt>
 -.1825810488D-01    6    2    0
 0.198650123094404D+04 0.000000000000000D+00 0.000000000000000D+00 0.198650123094404D+04
 0.198650123094404D+04 -.000000000000000D+00 -.000000000000000D+00 -.198650123094404D+04
 0.572112850335464D+03 0.496832677569228D+03 -.313670248081202D+02 -.252708357149200D+03
 0.186715080231246D+04 -.551252125197734D+03 -.539639988505578D+02 0.178310434351697D+04
 0.153373880924016D+04 0.544194476285075D+02 0.853310236586805D+02 -.153039598636777D+04
 0.000000000000000D+00 0.000000000000000D+00 0.000000000000000D+00 0.000000000000000D+00
 0.198650123094404D+04 0.000000000000000D+00 0.000000000000000D+00 0.198650123094404D+04
 0.198650123094404D+04 -.000000000000000D+00 -.000000000000000D+00 -.198650123094404D+04
 0.572119374568867D+03 0.496833171657043D+03 -.313662500663535D+02 -.252722251998217D+03
 0.186710694788537D+04 -.551250512718020D+03 -.539614704429639D+02 0.178305899699858D+04
 0.141642023314059D+04 0.456823532738917D+02 0.788699154132164D+02 -.141348467833653D+04
 0.117355906293246D+03 0.873498778708697D+01 0.645780509610355D+01 -.116852066663835D+03
-.664400087046D-01 0.000000000000D+00 0.000000000000D+00 0.473506720245D-04 0.000000000000D+00  6 2 2 25 2 2 21 2 0.21582227D+00 0.43276757D+00 0.34173885D+06 0.34173885D+06 0.34173885D+06 0.10803910D+01  1  2 13  3  6  5        2 -.440754104757D-01 0.100000000000D+01
-.100589864574D-09 0.000000000000D+00 0.000000000000D+00 0.473506720245D-04 0.000000000000D+00  6 2 2 25 2 2 21 2 0.21582227D+00 0.43276757D+00 0.34173885D+06 0.34173885D+06 0.34173885D+06 0.10803910D+01  1  2 13  3  6  5        2 -.667299667358D-10 0.100000000000D+01
-.181328953757D-01 0.000000000000D+00 0.000000000000D+00 0.473506720245D-04 0.000000000000D+00  6 2 2 25 2 2 21 2 0.21582227D+00 0.43276757D+00 0.34127186D+06 0.34127186D+06 0.34127186D+06 0.10804344D+01  1  2  8  3  6  5        2 -.120316415418D-01 0.100000000000D+01
-.370324492799D-01 0.000000000000D+00 0.000000000000D+00 0.473506720245D-04 0.000000000000D+00  6 2 2 25 2 2 21 2 0.21582227D+00 0.43276757D+00 0.34127186D+06 0.34127186D+06 0.34127186D+06 0.10804344D+01  1  2  9  3  6  5        2 -.245719806968D-01 0.100000000000D+01
0.399740975542D-01 0.000000000000D+00 0.000000000000D+00 0.473506720245D-04 0.000000000000D+00  6 2 2 25 2 2 21 2 0.21582227D+00 0.43276757D+00 0.34127186D+06 0.34127186D+06 0.34127186D+06 0.10804344D+01  1  2 10  3  6  5        2 0.265238398371D-01 0.100000000000D+01
0.541118691311D-01 0.000000000000D+00 0.000000000000D+00 0.473506720245D-04 0.602579468832D-05  6 2 2 25 2 2 21 2 0.21582227D+00 0.43276757D+00 0.34173885D+06 0.34173885D+06 0.34173885D+06 0.10803910D+01  1  2  1  3  6  5        2 0.358970880658D-01 0.100000000000D+01
  </mgrwgt>
  </event>
  <event>
  6     66 0.18204334E-05 0.51039175E+02 0.75467711E-02 0.94828859E-01
        2 -1    0    0  501    0 0.00000000E+00 0.00000000E+00 0.16881457E+04 0.16881457E+04 0.32000000E+00 0.0000E+00 0.9000E+01
        2 -1    0    0  502    0 0.00000000E+00 0.00000000E+00 -.10978475E+04 0.10978475E+04 0.32000000E+00 0.0000E+00 0.9000E+01
       25  1    1    2    0    0 -.39626524E+02 -.46729841E+03 0.13022863E+02 0.48552308E+03 0.12500000E+03 0.0000E+00 0.9000E+01
        2  1    1    2  501    0 -.13590390E+02 0.39795550E+03 0.14081075E+04 0.14633250E+04 0.32000000E+00 0.0000E+00 0.9000E+01
        2  1    1    2  503    0 -.21512940E+01 0.31745141E+02 -.38556052E+03 0.38687130E+03 0.32000000E+00 0.0000E+00 0.9000E+01
       21  1    1    2  502  503 0.55368208E+02 0.37597760E+02 -.44527159E+03 0.45027389E+03 0.75000000E+00 0.0000E+00 0.9000E+01
#aMCatNLO 2  0  0  5  1 0.26787447D+02 0.00000000D+00  -5  6  0 0.00000000D+00 0.00000000D+00 0.00000000D+00 0.00000000D+00 0.00000000D+00
  <mgrwgt>
 0.5629354068D-02    2    2    0
 0.136136938526294D+04 0.000000000000000D+00 0.000000000000000D+00 0.136136938526294D+04
 0.136136938526294D+04 -.000000000000000D+00 -.000000000000000D+00 -.136136938526294D+04
 0.493952440473070D+03 -.396388418339959D+02 -.467316405658208D+03 -.916959795741026D+02
 0.119260320792893D+04 -.136218246760584D+02 0.397916028633635D+03 0.112417956377587D+04
 0.103618312212387D+04 0.532606665100552D+02 0.694003770245744D+02 -.103248358420177D+04
 0.000000000000000D+00 0.000000000000000D+00 0.000000000000000D+00 0.000000000000000D+00
 0.136136938526294D+04 0.000000000000000D+00 0.000000000000000D+00 0.136136938526294D+04
 0.136136938526294D+04 -.000000000000000D+00 -.000000000000000D+00 -.136136938526294D+04
 0.493982207377196D+03 -.396258463736469D+02 -.467299472151609D+03 -.919479028104916D+02
 0.119204331519196D+04 -.135904566302014D+02 0.397956902215429D+03 0.112357147915099D+04
 0.479197682290227D+03 -.215626233340003D+01 0.317283116163854D+02 -.478141279840016D+03
 0.557515565666483D+03 0.553725653372492D+02 0.376142583197958D+02 -.553482296500478D+03
-.245344086351D-10 0.000000000000D+00 0.000000000000D+00 0.401222005430D-04 0.000000000000D+00  6 2 2 25 2 2 21 2 0.25971473D+00 0.16889962D+00 0.24121834D+06 0.24121834D+06 0.24121834D+06 0.10916293D+01  1  2 13  3  6  5        2 -.110711628406D-09 0.100000000000D+01
0.124750107787D-02 0.000000000000D+00 0.000000000000D+00 0.401222005430D-04 0.430706386032D-07  6 2 2 25 2 2 21 2 0.25971473D+00 0.16889962D+00 0.24121834D+06 0.24121834D+06 0.24121834D+06 0.10916293D+01  1  2  1  3  6  5        2 0.562935417861D-02 0.100000000000D+01
  </mgrwgt>
  </event>
  <event>
  5     66 0.18204334E-05 0.55446464E+02 0.75467711E-02 0.92893538E-01
        2 -1    0    0  501    0 0.00000000E+00 0.00000000E+00 0.88799454E+03 0.88799459E+03 0.32000000E+00 0.0000E+00 0.9000E+01
        2 -1    0    0  502    0 0.00000000E+00 0.00000000E+00 -.23479938E+04 0.23479939E+04 0.32000000E+00 0.0000E+00 0.9000E+01
       25  1    1    2    0    0 0.27022703E+03 -.44094587E+03 -.14233058E+02 0.53224383E+03 0.12500000E+03 0.0000E+00 0.9000E+01
        2  1    1    2  501    0 0.42093542E+02 -.36098055E+02 0.58848600E+03 0.59109290E+03 0.32000000E+00 0.0000E+00 0.9000E+01
        2  1    1    2  502    0 -.31232057E+03 0.47704393E+03 -.20342523E+04 0.21126517E+04 0.32000000E+00 0.0000E+00 0.9000E+01
#aMCatNLO 1  0  0  1  4 0.99223466D+01 0.00000000D+00  -5  6  0 0.00000000D+00 0.00000000D+00 0.00000000D+00 0.00000000D+00 0.00000000D+00
  <mgrwgt>
 0.6054518245D-01   13    2    0
 0.144395492896353D+04 0.000000000000000D+00 0.000000000000000D+00 0.144395492896353D+04
 0.144395492896353D+04 0.000000000000000D+00 0.000000000000000D+00 -.144395492896353D+04
 0.589288394824880D+03 0.270262057917664D+03 -.440997258206878D+03 0.253210684173099D+03
 0.959751856325217D+03 0.420892603057653D+02 -.360943837263496D+02 0.958148900406418D+03
 0.133886960677697D+04 -.312351318223429D+03 0.477091641933227D+03 -.121135958457952D+04
 0.000000000000000D+00 -.000000000000000D+00 0.000000000000000D+00 0.000000000000000D+00
 0.203752098337213D+04 0.000000000000000D+00 0.000000000000000D+00 0.203752098337213D+04
 0.144400491911545D+04 0.000000000000000D+00 0.000000000000000D+00 -.144400491911545D+04
 0.591036204968030D+03 0.271632457573946D+03 -.442491754720854D+03 0.253210684173099D+03
 0.959946659610583D+03 0.443180998867294D+02 -.385250563908482D+02 0.958148900406418D+03
 0.133694403901065D+04 -.309244601561668D+03 0.473703595825926D+03 -.121135958457952D+04
 0.593598998898314D+03 -.670595589900738D+01 0.731321528577650D+01 0.593516064256685D+03
0.162394929964D-04 0.000000000000D+00 0.000000000000D+00 0.252668263548D-04 0.000000000000D+00  6 2 2 25 2 2 21 0 0.13661455D+00 0.36122983D+00 0.33512851D+06 0.33512851D+06 0.33512851D+06 0.10810118D+01  1  2  2  1  6  1        2 0.351867718700D-04 0.100000000000D+01
0.697707793681D-05 0.000000000000D+00 -.623639290630D-07 0.252668263548D-04 0.000000000000D+00  6 2 2 25 2 2 21 2 0.13661455D+00 0.36122983D+00 0.33512851D+06 0.33512851D+06 0.33512851D+06 0.10810118D+01  1  2  3  1  6  1        2 0.176661285354D-04 0.100000000000D+01
-.107299831655D-04 0.000000000000D+00 0.000000000000D+00 0.252668263548D-04 0.000000000000D+00  6 2 2 25 2 2 21 2 0.13661455D+00 0.36122983D+00 0.33512851D+06 0.33512851D+06 0.33512851D+06 0.10810118D+01  1  2 15  1  6  1        2 -.271685745094D-04 0.100000000000D+01
0.612252401195D-01 0.000000000000D+00 0.000000000000D+00 0.252668263548D-04 0.000000000000D+00  6 2 2 25 2 2 21 2 0.19763566D+00 0.36122983D+00 0.34129124D+06 0.34129124D+06 0.34129124D+06 0.10804326D+01  1  2 12  1  6  1        2 0.889065757650D-01 0.100000000000D+01
0.716754449046D-09 0.000000000000D+00 0.000000000000D+00 0.252668263548D-04 0.000000000000D+00  6 2 2 25 2 2 21 2 0.19277464D+00 0.36122983D+00 0.34129124D+06 0.34129124D+06 0.34129124D+06 0.10804326D+01  1  2 12  1  6  1        2 0.108501884145D-08 0.100000000000D+01
-.343643940909D-01 0.000000000000D+00 0.000000000000D+00 0.252668263548D-04 0.000000000000D+00  6 2 2 25 2 2 21 2 0.13661455D+00 0.36122983D+00 0.33512851D+06 0.33512851D+06 0.33512851D+06 0.10810118D+01  1  2  4  1  6  1        2 -.870114693498D-01 0.100000000000D+01
-.675743238047D-01 0.000000000000D+00 -.133224610340D-04 0.252668263548D-04 0.000000000000D+00  6 2 2 25 2 2 21 2 0.19277488D+00 0.36122983D+00 0.33512851D+06 0.33512851D+06 0.33512851D+06 0.10810118D+01  1  2  5  1  6  1        2 -.102555555619D+00 0.100000000000D+01
0.637616174172D-01 0.000000000000D+00 0.125697822495D-04 0.252668263548D-04 0.000000000000D+00  6 2 2 25 2 2 21 2 0.13661455D+00 0.36122983D+00 0.33512851D+06 0.33512851D+06 0.33512851D+06 0.10810118D+01  1  2  6  1  6  1        2 0.161445943290D+00 0.100000000000D+01
0.149426631994D-09 0.000000000000D+00 0.000000000000D+00 0.252668263548D-04 0.836454147795D-06  6 2 2 25 2 2 21 2 0.19277265D+00 0.36124233D+00 0.34129124D+06 0.34129124D+06 0.34129124D+06 0.10804326D+01  1  2 11  1  6  1        2 0.226181003932D-09 0.100000000000D+01
0.274930423636D-02 0.000000000000D+00 0.000000000000D+00 0.252668263548D-04 0.000000000000D+00  6 21 2 25 2 2 -2 2 0.19763566D+00 0.36122983D+00 0.34129124D+06 0.34129124D+06 0.34129124D+06 0.10804326D+01  1  2 12  4  6  1        2 0.182787831414D-02 0.100000000000D+01
0.306020837848D-10 0.000000000000D+00 0.000000000000D+00 0.252668263548D-04 0.000000000000D+00  6 21 2 25 2 2 -2 2 0.19277464D+00 0.36122983D+00 0.34129124D+06 0.34129124D+06 0.34129124D+06 0.10804326D+01  1  2 12  4  6  1        2 0.221375449417D-10 0.100000000000D+01
-.288474911731D-02 0.000000000000D+00 -.568808640671D-06 0.252668263548D-04 0.000000000000D+00  6 21 2 25 2 2 -2 2 0.19277488D+00 0.36122983D+00 0.33512851D+06 0.33512851D+06 0.33512851D+06 0.10810118D+01  1  2  5  4  6  1        2 -.209387561598D-02 0.100000000000D+01
0.108159800787D-10 0.000000000000D+00 0.000000000000D+00 0.252668263548D-04 0.593269331431D-07  6 21 2 25 2 2 -2 2 0.19277265D+00 0.36124233D+00 0.34129124D+06 0.34129124D+06 0.34129124D+06 0.10804326D+01  1  2 11  4  6  1        2 0.782371953883D-11 0.100000000000D+01
  </mgrwgt>
  </event>
  <event>
  5     66 0.18204334E-05 0.18681872E+03 0.75467711E-02 0.95572396E-01
        2 -1    0    0  501    0 0.00000000E+00 0.00000000E+00 0.89915630E+03 0.89915636E+03 0.32000000E+00 0.0000E+00 0.9000E+01
        2 -1    0    0  502    0 -.00000000E+00 -.00000000E+00 -.10761216E+04 0.10761216E+04 0.32000000E+00 0.0000E+00 0.9000E+01
       25  1    1    2    0    0 -.39633563E+03 -.21687380E+03 -.13441766E+03 0.48765693E+03 0.12500000E+03 0.0000E+00 0.9000E+01
        2  1    1    2  501    0 0.16177763E+03 0.93454544E+02 0.68672048E+03 0.71168173E+03 0.32000000E+00 0.0000E+00 0.9000E+01
        2  1    1    2  502    0 0.23455800E+03 0.12341925E+03 -.72926813E+03 0.77593935E+03 0.32000000E+00 0.0000E+00 0.9000E+01
#aMCatNLO 1  0  0  5  2 0.17477635D+01 0.00000000D+00  -5  6  0 0.00000000D+00 0.00000000D+00 0.00000000D+00 0.00000000D+00 0.00000000D+00
  <mgrwgt>
 0.8196591430D-02    9    2    0
 0.983667434465753D+03 0.000000000000000D+00 0.000000000000000D+00 0.983667434465753D+03
 0.983667434465753D+03 -.000000000000000D+00 -.000000000000000D+00 -.983667434465753D+03
 0.477543881287520D+03 -.396358285019701D+03 -.216885361064066D+03 -.910165293092457D+02
 0.776276556346110D+03 0.161767157732955D+03 0.934484923978230D+02 0.753461384465157D+03
 0.713514431297875D+03 0.234591127286746D+03 0.123436868666243D+03 -.662444855155911D+03
 0.000000000000000D+00 0.000000000000000D+00 0.000000000000000D+00 0.000000000000000D+00
 0.983667434465753D+03 0.000000000000000D+00 0.000000000000000D+00 0.983667434465753D+03
 0.983667434465753D+03 -.000000000000000D+00 -.000000000000000D+00 -.983667434465753D+03
 0.477541152519202D+03 -.396353143357471D+03 -.216882655630605D+03 -.910310484759768D+02
 0.776255919729304D+03 0.161775515729687D+03 0.934528901981871D+02 0.753437782924898D+03
 0.688954574828260D+03 0.225074996450038D+03 0.118440752478786D+03 -.640290121977579D+03
 0.245832218547398D+02 0.950263117774614D+01 0.498901295363264D+01 -.221166124713431D+02
0.127651634164D-04 0.000000000000D+00 0.000000000000D+00 0.342573144880D-05 0.000000000000D+00  6 2 2 25 2 2 21 0 0.13833175D+00 0.16555718D+00 0.21191893D+06 0.21191893D+06 0.21191893D+06 0.10958998D+01  1  2  2  3  6  5        2 0.142480310562D-03 0.100000000000D+01
0.151992482949D-05 0.000000000000D+00 -.490215886638D-07 0.342573144880D-05 0.000000000000D+00  6 2 2 25 2 2 21 2 0.13833175D+00 0.16555718D+00 0.21191893D+06 0.21191893D+06 0.21191893D+06 0.10958998D+01  1  2  3  3  6  5        2 0.203747491657D-04 0.100000000000D+01
-.867438850800D-05 0.000000000000D+00 0.000000000000D+00 0.342573144880D-05 0.000000000000D+00  6 2 2 25 2 2 21 2 0.13833175D+00 0.16555718D+00 0.21191893D+06 0.21191893D+06 0.21191893D+06 0.10958998D+01  1  2 15  3  6  5        2 -.116281072977D-03 0.100000000000D+01
0.188462898039D-05 0.000000000000D+00 0.000000000000D+00 0.342573144880D-05 0.000000000000D+00  6 2 2 25 2 2 21 2 0.13833175D+00 0.16555718D+00 0.21191367D+06 0.21191367D+06 0.21191367D+06 0.10959006D+01  1  2 12  3  6  5        2 0.252637127859D-04 0.100000000000D+01
0.700244370241D-12 0.000000000000D+00 0.000000000000D+00 0.342573144880D-05 0.000000000000D+00  6 2 2 25 2 2 21 2 0.13833175D+00 0.16555718D+00 0.21191367D+06 0.21191367D+06 0.21191367D+06 0.10959006D+01  1  2 12  3  6  5        2 0.938687287196D-11 0.100000000000D+01
-.266055581048D-01 0.000000000000D+00 0.000000000000D+00 0.342573144880D-05 0.000000000000D+00  6 2 2 25 2 2 21 2 0.13833175D+00 0.16555718D+00 0.21191893D+06 0.21191893D+06 0.21191893D+06 0.10958998D+01  1  2  4  3  6  5        2 -.356650251567D+00 0.100000000000D+01
-.365335012123D-01 0.000000000000D+00 0.000000000000D+00 0.342573144880D-05 0.000000000000D+00  6 2 2 25 2 2 21 2 0.13833175D+00 0.16555718D+00 0.21191893D+06 0.21191893D+06 0.21191893D+06 0.10958998D+01  1  2  5  3  6  5        2 -.489735353292D+00 0.100000000000D+01
0.378138863777D-01 0.000000000000D+00 -.000000000000D+00 0.342573144880D-05 0.000000000000D+00  6 2 2 25 2 2 21 2 0.13833175D+00 0.16555718D+00 0.21191893D+06 0.21191893D+06 0.21191893D+06 0.10958998D+01  1  2  6  3  6  5        2 0.506899048545D+00 0.100000000000D+01
0.259311984091D-01 0.000000000000D+00 0.000000000000D+00 0.342573144880D-05 0.476346363508D-05  6 2 2 25 2 2 21 2 0.13833175D+00 0.16555718D+00 0.21191367D+06 0.21191367D+06 0.21191367D+06 0.10959006D+01  1  2 11  3  6  5        2 0.347611310035D+00 0.100000000000D+01
  </mgrwgt>
  </event>
  <event>
  6     66 -.18204334E-05 0.18312889E+03 0.75467711E-02 0.93143923E-01
        2 -1    0    0  501    0 0.00000000E+00 0.00000000E+00 0.34509982E+04 0.34509982E+04 0.32000000E+00 0.0000E+00 0.9000E+01
        2 -1    0    0  502    0 0.00000000E+00 0.00000000E+00 -.20535122E+04 0.20535122E+04 0.32000000E+00 0.0000E+00 0.9000E+01
       25  1    1    2    0    0 0.41380291E+03 0.26072792E+03 0.85230289E+02 0.51195810E+03 0.12500000E+03 0.0000E+00 0.9000E+01
        2  1    1    2  501    0 -.24872398E+03 -.36510738E+03 0.31314818E+04 0.31624903E+04 0.32000000E+00 0.0000E+00 0.9000E+01
        2  1    1    2  503    0 -.11683367E+03 0.70639781E+02 -.14148525E+04 0.14214245E+04 0.32000000E+00 0.0000E+00 0.9000E+01
       21  1    1    2  502  503 -.48245262E+02 0.33739678E+02 -.40437361E+03 0.40863743E+03 0.75000000E+00 0.0000E+00 0.9000E+01
#aMCatNLO 2  0  0  5  2 0.15551261D+02 0.00000000D+00  -5  6  0 0.00000000D+00 0.00000000D+00 0.00000000D+00 0.00000000D+00 0.00000000D+00
  <mgrwgt>
 -.1615059057D-01    3    2    0
 0.266207943683653D+04 0.000000000000000D+00 0.000000000000000D+00 0.266207943683653D+04
 0.266207943683653D+04 -.000000000000000D+00 -.000000000000000D+00 -.266207943683653D+04
 0.506927324054538D+03 0.413805794031992D+03 0.260725911969200D+03 -.462285142144483D+02
 0.244779563201232D+04 -.248714298631672D+03 -.365112989987320D+03 0.240759987504096D+04
 0.236943591760620D+04 -.165091495400320D+03 0.104387078018119D+03 -.236137136082651D+04
 0.000000000000000D+00 0.000000000000000D+00 0.000000000000000D+00 0.000000000000000D+00
 0.266207943683653D+04 0.000000000000000D+00 0.000000000000000D+00 0.266207943683653D+04
 0.266207943683653D+04 -.000000000000000D+00 -.000000000000000D+00 -.266207943683653D+04
 0.506928914163601D+03 0.413803839813584D+03 0.260727147618250D+03 -.462564662017386D+02
 0.244766294966779D+04 -.248723734678830D+03 -.365107023590393D+03 0.240746490738885D+04
 0.184116180723339D+04 -.116845326667877D+03 0.706457318331611D+02 -.183609181432317D+04
 0.528405202608279D+03 -.482347784668768D+02 0.337341441389813D+02 -.525116626863936D+03
-.335229633742D+00 0.000000000000D+00 0.000000000000D+00 0.731260914003D-04 0.000000000000D+00  6 2 2 25 2 2 21 2 0.53092280D+00 0.31592496D+00 0.32603715D+06 0.32603715D+06 0.32603715D+06 0.10818877D+01  1  2 13  3  6  5        2 -.377417585307D-01 0.100000000000D+01
-.828603725140D-10 0.000000000000D+00 0.000000000000D+00 0.731260914003D-04 0.000000000000D+00  6 2 2 25 2 2 21 2 0.53092280D+00 0.31592496D+00 0.32603715D+06 0.32603715D+06 0.32603715D+06 0.10818877D+01  1  2 13  3  6  5        2 -.932881779060D-11 0.100000000000D+01
0.191776949797D+00 0.000000000000D+00 0.000000000000D+00 0.731260914003D-04 0.633417057362D-06  6 2 2 25 2 2 21 2 0.53092280D+00 0.31592496D+00 0.32603715D+06 0.32603715D+06 0.32603715D+06 0.10818877D+01  1  2  1  3  6  5        2 0.215911679710D-01 0.100000000000D+01
  </mgrwgt>
  </event>
  <event>
  5     66 0.18204334E-05 0.10325315E+03 0.75467711E-02 0.93077266E-01
        2 -1    0    0  501    0 0.00000000E+00 0.00000000E+00 0.60768262E+03 0.60768270E+03 0.32000000E+00 0.0000E+00 0.9000E+01
        2 -1    0    0  502    0 0.00000000E+00 0.00000000E+00 -.10461823E+04 0.10461824E+04 0.32000000E+00 0.0000E+00 0.9000E+01
       25  1    1    2    0    0 0.61094001E+02 0.54458232E+03 -.56393620E+03 0.79621066E+03 0.12500000E+03 0.0000E+00 0.9000E+01
        2  1    1    2  501    0 -.34384798E+02 -.97386963E+02 0.34401449E+03 0.35918325E+03 0.32000000E+00 0.0000E+00 0.9000E+01
        2  1    1    2  502    0 -.26709204E+02 -.44719536E+03 -.21857801E+03 0.49847118E+03 0.32000000E+00 0.0000E+00 0.9000E+01
#aMCatNLO 1  0  0  2  4 0.41965289D+02 0.00000000D+00  -5  6  0 0.00000000D+00 0.00000000D+00 0.00000000D+00 0.00000000D+00 0.00000000D+00
  <mgrwgt>
 0.5106612549D-03    4    2    0
 0.797337403094619D+03 0.000000000000000D+00 0.000000000000000D+00 0.797337403094619D+03
 0.797337403094619D+03 0.000000000000000D+00 0.000000000000000D+00 -.797337403094619D+03
 0.670714520564186D+03 0.610982919793717D+02 0.544662076719166D+03 -.365845854147365D+03
 0.466994834940934D+03 -.343762198967252D+02 -.973626684245267D+02 0.455437111096996D+03
 0.456965450684118D+03 -.267220720826465D+02 -.447299408294639D+03 -.895912569496307D+02
 0.000000000000000D+00 -.000000000000000D+00 -.000000000000000D+00 0.000000000000000D+00
 0.842371666770953D+03 0.000000000000000D+00 0.000000000000000D+00 0.842371666770953D+03
 0.807450102903577D+03 0.000000000000000D+00 0.000000000000000D+00 -.807450102903577D+03
 0.685323404730121D+03 0.645028270303346D+02 0.562173785745267D+03 -.365845854147365D+03
 0.464468772275549D+03 -.320376418670756D+02 -.853338605617691D+02 0.455437111096996D+03
 0.445434710624178D+03 -.244564621598991D+02 -.435645922241505D+03 -.895912569496307D+02
 0.545948820446814D+02 -.800872300335982D+01 -.411940029419925D+02 0.349215638673762D+02
0.634671517389D-04 0.000000000000D+00 0.000000000000D+00 0.651626864736D-07 0.000000000000D+00  6 2 2 25 2 2 21 0 0.93489644D-01 0.16095114D+00 0.30997166D+06 0.30997166D+06 0.30997166D+06 0.10835028D+01  1  2  2  2  6  2        2 0.118676140732D-02 0.100000000000D+01
0.112954447235D-04 0.000000000000D+00 -.243730573962D-06 0.651626864736D-07 0.000000000000D+00  6 2 2 25 2 2 21 2 0.93489644D-01 0.16095114D+00 0.30997166D+06 0.30997166D+06 0.30997166D+06 0.10835028D+01  1  2  3  2  6  2        2 0.247957821912D-03 0.100000000000D+01
-.379290663731D-04 0.000000000000D+00 0.000000000000D+00 0.651626864736D-07 0.000000000000D+00  6 2 2 25 2 2 21 2 0.93489644D-01 0.16095114D+00 0.30997166D+06 0.30997166D+06 0.30997166D+06 0.10835028D+01  1  2 15  2  6  2        2 -.832619601548D-03 0.100000000000D+01
-.416537408486D-05 0.000000000000D+00 0.000000000000D+00 0.651626864736D-07 0.000000000000D+00  6 2 2 25 2 2 21 2 0.93489644D-01 0.16095114D+00 0.30997166D+06 0.30997166D+06 0.30997166D+06 0.10835028D+01  1  2  4  2  6  2        2 -.914383727963D-04 0.100000000000D+01
  </mgrwgt>
  </event>
  <event>
  5     66 0.18204334E-05 0.27918706E+02 0.75467711E-02 0.89465176E-01
        2 -1    0    0  501    0 0.00000000E+00 0.00000000E+00 0.13347111E+04 0.13347111E+04 0.32000000E+00 0.0000E+00 0.9000E+01
        2 -1    0    0  502    0 -.00000000E+00 -.00000000E+00 -.38986649E+04 0.38986649E+04 0.32000000E+00 0.0000E+00 0.9000E+01
       25  1    1    2    0    0 0.14464056E+02 0.48356140E+03 -.65433365E+03 0.82329725E+03 0.12500000E+03 0.0000E+00 0.9000E+01
        2  1    1    2  501    0 0.26830983E+02 -.77178064E+01 0.12320209E+04 0.12323372E+04 0.32000000E+00 0.0000E+00 0.9000E+01
        2  1    1    2  502    0 -.41295038E+02 -.47584359E+03 -.31416410E+04 0.31777415E+04 0.32000000E+00 0.0000E+00 0.9000E+01
#aMCatNLO 1  0  0  5  2 0.43474043D+02 0.00000000D+00  -5  6  0 0.00000000D+00 0.00000000D+00 0.00000000D+00 0.00000000D+00 0.00000000D+00
  <mgrwgt>
 0.3187585601D-01    6    2    0
 0.228113813899993D+04 0.000000000000000D+00 0.000000000000000D+00 0.228113813899993D+04
 0.228113813899993D+04 -.000000000000000D+00 -.000000000000000D+00 -.228113813899993D+04
 0.576684469739003D+03 0.144659599139580D+02 0.483583934943096D+03 -.287884163348514D+03
 0.210597823247986D+04 0.268307760781488D+02 -.771774694899951D+01 0.210579316684143D+04
 0.187961357578101D+04 -.412967359921068D+02 -.475866187994097D+03 -.181790900349292D+04
 0.000000000000000D+00 -.000000000000000D+00 0.000000000000000D+00 0.000000000000000D+00
 0.228113813899993D+04 0.000000000000000D+00 0.000000000000000D+00 0.228113813899993D+04
 0.228113813899993D+04 -.000000000000000D+00 -.000000000000000D+00 -.228113813899993D+04
 0.588190645762549D+03 0.136238608771969D+02 0.473880348233153D+03 -.324953907094205D+03
 0.197646269096945D+04 0.238795416294750D+02 -.417251001508527D+02 0.197587791938246D+04
 0.123795761225722D+04 0.472765513966666D+03 -.273830230274195D+03 -.111087750158936D+04
 0.759665329010650D+03 -.510268916473338D+03 -.158325017808105D+03 -.540046510698891D+03
0.186511069717D+00 0.000000000000D+00 0.000000000000D+00 0.670249191647D-03 0.000000000000D+00  6 2 2 25 2 2 21 0 0.20534017D+00 0.59979460D+00 0.25263744D+06 0.25263744D+06 0.25263744D+06 0.10901164D+01  1  2  2  3  6  5        2 0.212559744888D-01 0.100000000000D+01
0.145069018485D+00 0.000000000000D+00 -.716251617207D-03 0.670249191647D-03 0.000000000000D+00  6 2 2 25 2 2 21 2 0.20534017D+00 0.59979460D+00 0.25263744D+06 0.25263744D+06 0.25263744D+06 0.10901164D+01  1  2  3  3  6  5        2 0.196470262790D-01 0.100000000000D+01
-.132982101182D+00 0.000000000000D+00 0.000000000000D+00 0.670249191647D-03 0.000000000000D+00  6 2 2 25 2 2 21 2 0.20534017D+00 0.59979460D+00 0.25263744D+06 0.25263744D+06 0.25263744D+06 0.10901164D+01  1  2 15  3  6  5        2 -.180100676481D-01 0.100000000000D+01
-.571341584628D-02 0.000000000000D+00 0.000000000000D+00 0.670249191647D-03 0.000000000000D+00  6 2 2 25 2 2 21 2 0.20534017D+00 0.59979460D+00 0.25263744D+06 0.25263744D+06 0.25263744D+06 0.10901164D+01  1  2  4  3  6  5        2 -.773780869599D-03 0.100000000000D+01
-.151350984681D+00 0.000000000000D+00 0.000000000000D+00 0.670249191647D-03 0.000000000000D+00  6 2 2 25 2 2 21 2 0.20534017D+00 0.59979460D+00 0.25263744D+06 0.25263744D+06 0.25263744D+06 0.10901164D+01  1  2  5  3  6  5        2 -.204978072124D-01 0.100000000000D+01
0.223392189161D+00 0.000000000000D+00 -.000000000000D+00 0.670249191647D-03 0.000000000000D+00  6 2 2 25 2 2 21 2 0.20534017D+00 0.59979460D+00 0.25263744D+06 0.25263744D+06 0.25263744D+06 0.10901164D+01  1  2  6  3  6  5        2 0.302545109687D-01 0.100000000000D+01
  </mgrwgt>
  </event>
  <event>
  5     66 0.18204334E-05 0.24821316E+03 0.75467711E-02 0.89978952E-01
        2 -1    0    0  501    0 0.00000000E+00 0.00000000E+00 0.21415270E+04 0.21415270E+04 0.32000000E+00 0.0000E+00 0.9000E+01
        2 -1    0    0  502    0 0.00000000E+00 0.00000000E+00 -.23793356E+04 0.23793357E+04 0.32000000E+00 0.0000E+00 0.9000E+01
       25  1    1    2    0    0 -.63500168E+03 -.20701079E+03 -.22694172E+03 0.71638547E+03 0.12500000E+03 0.0000E+00 0.9000E+01
        2  1    1    2  501    0 0.40013912E+03 0.28727495E+03 0.18564749E+04 0.19207127E+04 0.32000000E+00 0.0000E+00 0.9000E+01
        2  1    1    2  502    0 0.23486256E+03 -.80264159E+02 -.18673419E+04 0.18837645E+04 0.32000000E+00 0.0000E+00 0.9000E+01
#aMCatNLO 1  0  0  2  4 0.95819568D+02 0.00000000D+00  -5  6  0 0.00000000D+00 0.00000000D+00 0.00000000D+00 0.00000000D+00 0.00000000D+00
  <mgrwgt>
 0.2610288181D-02    9    2    0
 0.225730182494359D+04 0.000000000000000D+00 0.000000000000000D+00 0.225730182494359D+04
 0.225730182494359D+04 0.000000000000000D+00 0.000000000000000D+00 -.225730182494359D+04
 0.705414397442706D+03 -.635010333121328D+03 -.207003458822906D+03 -.189462178241327D+03
 0.202114087228528D+04 0.400134112388995D+03 0.287271355779352D+03 0.196019853225980D+04
 0.178804838015920D+04 0.234876220732333D+03 -.802678969564460D+02 -.177073635401847D+04
 0.000000000000000D+00 -.000000000000000D+00 0.000000000000000D+00 -.000000000000000D+00
 0.227917178565002D+04 0.000000000000000D+00 0.000000000000000D+00 0.227917178565002D+04
 0.236526227778812D+04 0.000000000000000D+00 0.000000000000000D+00 -.236526227778812D+04
 0.703001076938668D+03 -.627877195022270D+03 -.220135924292117D+03 -.189462178241327D+03
 0.202029179229514D+04 0.420602573463779D+03 0.249587891006961D+03 0.196019853225980D+04
 0.179232752061751D+04 0.253009588485907D+03 -.113652337655236D+03 -.177073635401847D+04
 0.128813673586820D+03 -.457349669274156D+02 0.842003709403914D+02 -.860904921381021D+02
0.172047895705D-02 0.000000000000D+00 0.000000000000D+00 0.695922137511D-05 0.000000000000D+00  6 2 2 25 2 2 21 0 0.32946569D+00 0.36605164D+00 0.50430257D+06 0.50430257D+06 0.50430257D+06 0.10682475D+01  1  2  2  2  6  2        2 0.665251871136D-03 0.100000000000D+01
0.254554835021D-03 0.000000000000D+00 -.660709220760D-05 0.695922137511D-05 0.000000000000D+00  6 2 2 25 2 2 21 2 0.32946569D+00 0.36605164D+00 0.50430257D+06 0.50430257D+06 0.50430257D+06 0.10682475D+01  1  2  3  2  6  2        2 0.112321233102D-03 0.100000000000D+01
-.123706884208D-02 0.000000000000D+00 0.000000000000D+00 0.695922137511D-05 0.000000000000D+00  6 2 2 25 2 2 21 2 0.32946569D+00 0.36605164D+00 0.50430257D+06 0.50430257D+06 0.50430257D+06 0.10682475D+01  1  2 15  2  6  2        2 -.545851339903D-03 0.100000000000D+01
0.593182671252D-10 0.000000000000D+00 0.000000000000D+00 0.695922137511D-05 0.000000000000D+00  6 2 2 25 2 2 21 2 0.32946569D+00 0.38551954D+00 0.59232588D+06 0.59232588D+06 0.59232588D+06 0.10633479D+01  1  2 12  2  6  2        2 0.215470425306D-10 0.100000000000D+01
-.123496342507D-03 0.000000000000D+00 0.000000000000D+00 0.695922137511D-05 0.000000000000D+00  6 2 2 25 2 2 21 2 0.32946569D+00 0.36605164D+00 0.50430257D+06 0.50430257D+06 0.50430257D+06 0.10682475D+01  1  2  4  2  6  2        2 -.544922333644D-04 0.100000000000D+01
-.352048489861D-01 0.000000000000D+00 -.595881254127D-02 0.695922137511D-05 0.000000000000D+00  6 2 2 25 2 2 21 2 0.32946569D+00 0.38481416D+00 0.50430257D+06 0.50430257D+06 0.50430257D+06 0.10682475D+01  1  2  5  2  6  2        2 -.132032731896D-01 0.100000000000D+01
0.354658265937D-01 0.000000000000D+00 0.595137590613D-02 0.695922137511D-05 0.000000000000D+00  6 2 2 25 2 2 21 2 0.32946569D+00 0.36605164D+00 0.50430257D+06 0.50430257D+06 0.50430257D+06 0.10682475D+01  1  2  6  2  6  2        2 0.156491444198D-01 0.100000000000D+01
0.897367021391D-12 0.000000000000D+00 0.000000000000D+00 0.695922137511D-05 0.000000000000D+00  6 2 21 25 2 2 -2 2 0.32946569D+00 0.38551954D+00 0.59232588D+06 0.59232588D+06 0.59232588D+06 0.10633479D+01  1  2 12  5  6  2        2 0.364637034490D-13 0.100000000000D+01
-.301331178184D-03 0.000000000000D+00 -.518907151271D-04 0.695922137511D-05 0.000000000000D+00  6 2 21 25 2 2 -2 2 0.32946569D+00 0.38481416D+00 0.50430257D+06 0.50430257D+06 0.50430257D+06 0.10682475D+01  1  2  5  5  6  2        2 -.128126015967D-04 0.100000000000D+01
  </mgrwgt>
  </event>
  <event>
  5     66 0.18204334E-05 0.96284396E+02 0.75467711E-02 0.88620961E-01
        2 -1    0    0  501    0 0.00000000E+00 0.00000000E+00 0.28270992E+04 0.28270992E+04 0.32000000E+00 0.0000E+00 0.9000E+01
        2 -1    0    0  502    0 0.00000000E+00 0.00000000E+00 -.13411951E+04 0.13411952E+04 0.32000000E+00 0.0000E+00 0.9000E+01
       25  1    1    2    0    0 -.22027509E+02 -.52417911E+03 0.23407261E+03 0.58793191E+03 0.12500000E+03 0.0000E+00 0.9000E+01
        2  1    1    2  501    0 0.48241693E+02 0.43153864E+03 0.23945462E+04 0.24335990E+04 0.32000000E+00 0.0000E+00 0.9000E+01
        2  1    1    2  502    0 -.26214185E+02 0.92640469E+02 -.11427147E+04 0.11467634E+04 0.32000000E+00 0.0000E+00 0.9000E+01
#aMCatNLO 1  0  0  1  5 0.26334950D+03 0.00000000D+00  -5  6  0 0.00000000D+00 0.00000000D+00 0.00000000D+00 0.00000000D+00 0.00000000D+00
  <mgrwgt>
 0.6945212836D-02    4    2    0
 0.194722669620919D+04 0.000000000000000D+00 0.000000000000000D+00 0.194722669620919D+04
 0.194722669620919D+04 0.000000000000000D+00 0.000000000000000D+00 -.194722669620919D+04
 0.539964697721493D+03 -.220248840172077D+02 -.524176966569421D+03 0.262733132202895D+02
 0.169106228614113D+04 0.482407561250955D+02 0.431530256074436D+03 0.163436413419705D+04
 0.166342640855576D+04 -.262158721078878D+02 0.926467104949855D+02 -.166063744741734D+04
 0.000000000000000D+00 0.000000000000000D+00 -.000000000000000D+00 -.000000000000000D+00
 0.211510861935786D+04 0.000000000000000D+00 0.000000000000000D+00 0.211510861935786D+04
 0.223759772379720D+04 0.000000000000000D+00 0.000000000000000D+00 -.223759772379720D+04
 0.503091709833835D+03 -.596890886630325D+02 -.482931873260129D+03 0.262733132202895D+02
 0.173152026336769D+04 -.753468548882535D+02 0.566867842412746D+03 0.163436413419705D+04
 0.168224037871238D+04 -.147026096406062D+03 0.224942852700847D+03 -.166063744741734D+04
 0.435853991241145D+03 0.282062039957348D+03 -.308878821853463D+03 -.122489104439342D+03
0.226633959011D-01 0.000000000000D+00 0.000000000000D+00 0.125977850718D-03 0.000000000000D+00  6 2 2 25 2 2 21 0 0.43493834D+00 0.20633772D+00 0.28613289D+06 0.28613289D+06 0.28613289D+06 0.10860758D+01  1  2  2  1  6  1        2 0.139039337906D-01 0.100000000000D+01
0.709143139169D-02 0.000000000000D+00 -.870334076693D-04 0.125977850718D-03 0.000000000000D+00  6 2 2 25 2 2 21 2 0.43493834D+00 0.20633772D+00 0.28613289D+06 0.28613289D+06 0.28613289D+06 0.10860758D+01  1  2  3  1  6  1        2 0.513176632365D-02 0.100000000000D+01
-.166233903595D-01 0.000000000000D+00 0.000000000000D+00 0.125977850718D-03 0.000000000000D+00  6 2 2 25 2 2 21 2 0.43493834D+00 0.20633772D+00 0.28613289D+06 0.28613289D+06 0.28613289D+06 0.10860758D+01  1  2 15  1  6  1        2 -.120296383227D-01 0.100000000000D+01
-.840853164663D-04 0.000000000000D+00 0.000000000000D+00 0.125977850718D-03 0.000000000000D+00  6 2 2 25 2 2 21 2 0.43493834D+00 0.20633772D+00 0.28613289D+06 0.28613289D+06 0.28613289D+06 0.10860758D+01  1  2  4  1  6  1        2 -.608489558062D-04 0.100000000000D+01
  </mgrwgt>
  </event>
  <event>
  5     66 0.18204334E-05 0.67022783E+02 0.75467711E-02 0.94926047E-01
        2 -1    0    0  501    0 0.00000000E+00 0.00000000E+00 0.27334186E+03 0.27334204E+03 0.32000000E+00 0.0000E+00 0.9000E+01
        2 -1    0    0  502    0 0.00000000E+00 0.00000000E+00 -.19829109E+04 0.19829110E+04 0.32000000E+00 0.0000E+00 0.9000E+01
       25  1    1    2    0    0 -.78002484E+02 -.46331652E+03 -.32144141E+03 0.58283459E+03 0.12500000E+03 0.0000E+00 0.9000E+01
        2  1    1    2  501    0 0.33602552E+02 0.41312756E+03 -.16131423E+03 0.44477623E+03 0.32000000E+00 0.0000E+00 0.9000E+01
        2  1    1    2  502    0 0.44399932E+02 0.50188953E+02 -.12268135E+04 0.12286422E+04 0.32000000E+00 0.0000E+00 0.9000E+01
#aMCatNLO 1  0  0  2  5 0.61446595D+01 0.00000000D+00  -5  6  0 0.00000000D+00 0.00000000D+00 0.00000000D+00 0.00000000D+00 0.00000000D+00
  <mgrwgt>
 0.1184574567D-01   10    2    0
 0.736215186815090D+03 0.000000000000000D+00 0.000000000000000D+00 0.736215186815090D+03
 0.736215186815090D+03 0.000000000000000D+00 0.000000000000000D+00 -.736215186815090D+03
 0.519880485773389D+03 -.780049572687695D+02 -.463255624404141D+03 0.184282860264872D+03
 0.494165525617965D+03 0.335967606604927D+02 0.413056365695283D+03 0.269175153275717D+03
 0.458384362238826D+03 0.444081966082768D+02 0.501992587088578D+02 -.453458013540589D+03
 0.000000000000000D+00 0.000000000000000D+00 -.000000000000000D+00 -.000000000000000D+00
 0.737926544417100D+03 0.000000000000000D+00 0.000000000000000D+00 0.737926544417100D+03
 0.741757963181565D+03 0.000000000000000D+00 0.000000000000000D+00 -.741757963181565D+03
 0.518785428885943D+03 -.795724530867137D+02 -.461758999204923D+03 0.184282860264872D+03
 0.495258783620525D+03 0.321035774867555D+02 0.414482038120868D+03 0.269175153275717D+03
 0.458398982333128D+03 0.430246390674974D+02 0.515202619653855D+02 -.453458013540589D+03
 0.724131275906899D+01 0.444423653246081D+01 -.424330088133025D+01 -.383141876446546D+01
0.137959149603D-03 0.000000000000D+00 0.000000000000D+00 0.751952196131D-06 0.000000000000D+00  6 2 2 25 2 2 21 0 0.42052610D-01 0.30506324D+00 0.23404609D+06 0.23404609D+06 0.23404609D+06 0.10926201D+01  1  2  2  2  6  2        2 0.191832445761D-02 0.100000000000D+01
0.387066462679D-04 0.000000000000D+00 -.529799459953D-06 0.751952196131D-06 0.000000000000D+00  6 2 2 25 2 2 21 2 0.42052610D-01 0.30506324D+00 0.23404609D+06 0.23404609D+06 0.23404609D+06 0.10926201D+01  1  2  3  2  6  2        2 0.642533098100D-03 0.100000000000D+01
-.945082797681D-04 0.000000000000D+00 0.000000000000D+00 0.751952196131D-06 0.000000000000D+00  6 2 2 25 2 2 21 2 0.42052610D-01 0.30506324D+00 0.23404609D+06 0.23404609D+06 0.23404609D+06 0.10926201D+01  1  2 15  2  6  2        2 -.156884420766D-02 0.100000000000D+01
-.347681262053D-04 0.000000000000D+00 0.000000000000D+00 0.751952196131D-06 0.000000000000D+00  6 2 2 25 2 2 21 2 0.42052610D-01 0.30506324D+00 0.23404609D+06 0.23404609D+06 0.23404609D+06 0.10926201D+01  1  2  4  2  6  2        2 -.577153383199D-03 0.100000000000D+01
-.305839426281D-01 0.000000000000D+00 -.302130682145D-02 0.751952196131D-06 0.000000000000D+00  6 2 2 25 2 2 21 2 0.42052610D-01 0.30766066D+00 0.23404609D+06 0.23404609D+06 0.23404609D+06 0.10926201D+01  1  2  5  2  6  2        2 -.497031796842D+00 0.100000000000D+01
0.306085667579D-01 0.000000000000D+00 0.302119823562D-02 0.751952196131D-06 0.000000000000D+00  6 2 2 25 2 2 21 2 0.42052610D-01 0.30506324D+00 0.23404609D+06 0.23404609D+06 0.23404609D+06 0.10926201D+01  1  2  6  2  6  2        2 0.508104398693D+00 0.100000000000D+01
0.315187973668D-04 0.000000000000D+00 0.000000000000D+00 0.751952196131D-06 0.908017051448D-08  6 2 2 25 2 2 21 2 0.42150363D-01 0.30735998D+00 0.23714101D+06 0.23714101D+06 0.23714101D+06 0.10921886D+01  1  2 11  2  6  2        2 0.511455623956D-03 0.100000000000D+01
0.829726393336D-10 0.000000000000D+00 0.000000000000D+00 0.751952196131D-06 0.000000000000D+00  6 2 21 25 2 2 -2 2 0.42052610D-01 0.30804228D+00 0.23714101D+06 0.23714101D+06 0.23714101D+06 0.10921886D+01  1  2 12  5  6  2        2 0.268950864444D-09 0.100000000000D+01
-.479258504203D-04 0.000000000000D+00 -.474242845719D-05 0.751952196131D-06 0.000000000000D+00  6 2 21 25 2 2 -2 2 0.42052610D-01 0.30766066D+00 0.23404609D+06 0.23404609D+06 0.23404609D+06 0.10926201D+01  1  2  5  5  6  2        2 -.156574135064D-03 0.100000000000D+01
0.104144025320D-05 0.000000000000D+00 0.000000000000D+00 0.751952196131D-06 0.138826555254D-09  6 2 21 25 2 2 -2 2 0.42150363D-01 0.30735998D+00 0.23714101D+06 0.23714101D+06 0.23714101D+06 0.10921886D+01  1  2 11  5  6  2        2 0.340209425684D-05 0.100000000000D+01
  </mgrwgt>
  </event>
  <event>
  5     66 -.18204334E-05 0.50401526E+02 0.75467711E-02 0.94189845E-01
        2 -1    0    0  501    0 0.00000000E+00 0.00000000E+00 0.14771165E+04 0.14771166E+04 0.32000000E+00 0.0000E+00 0.9000E+01
        2 -1    0    0  502    0 0.00000000E+00 0.00000000E+00 -.23755178E+04 0.23755179E+04 0.32000000E+00 0.0000E+00 0.9000E+01
       25  1    1    2    0    0 -.11443380E+03 -.44766385E+03 0.10503210E+04 0.11542518E+04 0.12500000E+03 0.0000E+00 0.9000E+01
        2  1    1    2  501    0 0.89956617E+01 -.49620337E+02 0.34517276E+03 0.34883726E+03 0.32000000E+00 0.0000E+00 0.9000E+01
        2  1    1    2  502    0 0.10543813E+03 0.49728418E+03 -.22938951E+04 0.23495454E+04 0.32000000E+00 0.0000E+00 0.9000E+01
#aMCatNLO 1  0  0  2  5 0.18985925D+01 0.00000000D+00  -5  6  0 0.00000000D+00 0.00000000D+00 0.00000000D+00 0.00000000D+00 0.00000000D+00
  <mgrwgt>
 -.3051281626D-01   13    2    0
 0.187321027614617D+04 0.000000000000000D+00 0.000000000000000D+00 0.187321027614617D+04
 0.187321027614617D+04 0.000000000000000D+00 0.000000000000000D+00 -.187321027614617D+04
 0.143908486923412D+04 -.114437945828486D+03 -.447732413972936D+03 0.135712191894874D+04
 0.441258359960286D+03 0.899073290325103D+01 -.495931499020006D+02 0.438370421492487D+03
 0.186607732309793D+04 0.105447212925235D+03 0.497325563874937D+03 -.179549234044123D+04
 0.000000000000000D+00 0.000000000000000D+00 0.000000000000000D+00 -.000000000000000D+00
 0.187323267884028D+04 0.000000000000000D+00 0.000000000000000D+00 0.187323267884028D+04
 0.191387278027736D+04 0.000000000000000D+00 0.000000000000000D+00 -.191387278027736D+04
 0.143931233685525D+04 -.114783626084866D+03 -.448374641695333D+03 0.135712191894874D+04
 0.441278387583150D+03 0.888474491503679D+01 -.497900614207119D+02 0.438370421492487D+03
 0.186583030893357D+04 0.104999030588102D+03 0.496492900984061D+03 -.179549234044123D+04
 0.406844257456661D+02 0.899850581727203D+00 0.167180213198355D+01 -.406401014370865D+02
0.905475847567D-04 0.000000000000D+00 0.000000000000D+00 0.244691251755D-04 0.000000000000D+00  6 2 2 25 2 2 21 0 0.22724870D+00 0.36546429D+00 0.26910996D+06 0.26910996D+06 0.26910996D+06 0.10880607D+01  1  2  2  2  6  2        2 0.865464745721D-04 0.100000000000D+01
0.121222230537D-04 0.000000000000D+00 -.347726567192D-06 0.244691251755D-04 0.000000000000D+00  6 2 2 25 2 2 21 2 0.22724870D+00 0.36546429D+00 0.26910996D+06 0.26910996D+06 0.26910996D+06 0.10880607D+01  1  2  3  2  6  2        2 0.137170587668D-04 0.100000000000D+01
-.600910333218D-04 0.000000000000D+00 0.000000000000D+00 0.244691251755D-04 0.000000000000D+00  6 2 2 25 2 2 21 2 0.22724870D+00 0.36546429D+00 0.26910996D+06 0.26910996D+06 0.26910996D+06 0.10880607D+01  1  2 15  2  6  2        2 -.679967883601D-04 0.100000000000D+01
0.384107582669D-04 0.000000000000D+00 0.000000000000D+00 0.244691251755D-04 0.000000000000D+00  6 2 2 25 2 2 21 2 0.22724870D+00 0.37351472D+00 0.27007027D+06 0.27007027D+06 0.27007027D+06 0.10879451D+01  1  2 12  2  6  2        2 0.405561347362D-04 0.100000000000D+01
0.385338251222D-12 0.000000000000D+00 0.000000000000D+00 0.244691251755D-04 0.000000000000D+00  6 2 2 25 2 2 21 2 0.22724870D+00 0.37340692D+00 0.27007027D+06 0.27007027D+06 0.27007027D+06 0.10879451D+01  1  2 12  2  6  2        2 0.407236613202D-12 0.100000000000D+01
-.911491366195D+00 0.000000000000D+00 0.000000000000D+00 0.244691251755D-04 0.000000000000D+00  6 2 2 25 2 2 21 2 0.22724870D+00 0.36546429D+00 0.26910996D+06 0.26910996D+06 0.26910996D+06 0.10880607D+01  1  2  4  2  6  2        2 -.103140988086D+01 0.100000000000D+01
-.649046848520D+00 0.000000000000D+00 -.719502346363D-03 0.244691251755D-04 0.000000000000D+00  6 2 2 25 2 2 21 2 0.22724870D+00 0.37339895D+00 0.26910996D+06 0.26910996D+06 0.26910996D+06 0.10880607D+01  1  2  5  2  6  2        2 -.686344916596D+00 0.100000000000D+01
0.648912777795D+00 0.000000000000D+00 0.719336410349D-03 0.244691251755D-04 0.000000000000D+00  6 2 2 25 2 2 21 2 0.22724870D+00 0.36546429D+00 0.26910996D+06 0.26910996D+06 0.26910996D+06 0.10880607D+01  1  2  6  2  6  2        2 0.734285672533D+00 0.100000000000D+01
0.901595920480D+00 0.000000000000D+00 0.000000000000D+00 0.244691251755D-04 0.603263627969D-04  6 2 2 25 2 2 21 2 0.22725142D+00 0.37339756D+00 0.27007027D+06 0.27007027D+06 0.27007027D+06 0.10879451D+01  1  2 11  2  6  2        2 0.952887695876D+00 0.100000000000D+01
0.223633167623D-05 0.000000000000D+00 0.000000000000D+00 0.244691251755D-04 0.000000000000D+00  6 2 21 25 2 2 -2 2 0.22724870D+00 0.37351472D+00 0.27007027D+06 0.27007027D+06 0.27007027D+06 0.10879451D+01  1  2 12  5  6  2        2 0.299397777191D-06 0.100000000000D+01
0.221472000531D-13 0.000000000000D+00 0.000000000000D+00 0.244691251755D-04 0.000000000000D+00  6 2 21 25 2 2 -2 2 0.22724870D+00 0.37340692D+00 0.27007027D+06 0.27007027D+06 0.27007027D+06 0.10879451D+01  1  2 12  5  6  2        2 0.296998026777D-14 0.100000000000D+01
-.253364491318D-02 0.000000000000D+00 -.280650015192D-05 0.244691251755D-04 0.000000000000D+00  6 2 21 25 2 2 -2 2 0.22724870D+00 0.37339895D+00 0.26910996D+06 0.26910996D+06 0.26910996D+06 0.10880607D+01  1  2  5  5  6  2        2 -.340058159047D-03 0.100000000000D+01
0.250188758546D-02 0.000000000000D+00 0.000000000000D+00 0.244691251755D-04 0.165952642205D-06  6 2 21 25 2 2 -2 2 0.22725142D+00 0.37339756D+00 0.27007027D+06 0.27007027D+06 0.27007027D+06 0.10879451D+01  1  2 11  5  6  2        2 0.335548665844D-03 0.100000000000D+01
  </mgrwgt>
  </event>
  <event>
  6     66 -.18204334E-05 0.12788719E+03 0.75467711E-02 0.92915929E-01
        2 -1    0    0  501    0 0.00000000E+00 0.00000000E+00 0.89713542E+03 0.89713547E+03 0.32000000E+00 0.0000E+00 0.9000E+01
        2 -1    0    0  502    0 -.00000000E+00 -.00000000E+00 -.31649336E+04 0.31649337E+04 0.32000000E+00 0.0000E+00 0.9000E+01
       25  1    1    2    0    0 0.33616562E+03 0.34159152E+03 -.11576627E+04 0.12591664E+04 0.12500000E+03 0.0000E+00 0.9000E+01
        2  1    1    2  501    0 -.77649700E+02 0.11897760E+03 0.80410556E+03 0.81656047E+03 0.32000000E+00 0.0000E+00 0.9000E+01
        2  1    1    2  503    0 -.19991377E+03 -.33558910E+03 -.14805268E+04 0.15311908E+04 0.32000000E+00 0.0000E+00 0.9000E+01
       21  1    1    2  502  503 -.58602158E+02 -.12498002E+03 -.43371433E+03 0.45515152E+03 0.75000000E+00 0.0000E+00 0.9000E+01
#aMCatNLO 2  0  0  5  2 0.20161920D+02 0.00000000D+00  -5  6  0 0.00000000D+00 0.00000000D+00 0.00000000D+00 0.00000000D+00 0.00000000D+00
  <mgrwgt>
 -.1741957763D-02    3    2    0
 0.168504427353249D+04 0.000000000000000D+00 0.000000000000000D+00 0.168504427353249D+04
 0.168504427353249D+04 -.000000000000000D+00 -.000000000000000D+00 -.168504427353249D+04
 0.738613753675073D+03 0.336213203996930D+03 0.341677480558410D+03 -.547852587705267D+03
 0.152574758595675D+04 -.775407507578895D+02 0.119172768121719D+03 0.151910861341872D+04
 0.110572720743316D+04 -.258672453239041D+03 -.460850248680130D+03 -.971256025713453D+03
 0.000000000000000D+00 0.000000000000000D+00 -.000000000000000D+00 0.000000000000000D+00
 0.168504427353249D+04 0.000000000000000D+00 0.000000000000000D+00 0.168504427353249D+04
 0.168504427353249D+04 -.000000000000000D+00 -.000000000000000D+00 -.168504427353249D+04
 0.738693468701687D+03 0.336160281296749D+03 0.341583193597298D+03 -.548051300366025D+03
 0.152532933031742D+04 -.776500518067327D+02 0.118978037624097D+03 0.151869821292583D+04
 0.849239005738999D+03 -.199892643356042D+03 -.335541596278622D+03 -.754096583447699D+03
 0.256826742306873D+03 -.586175861339741D+02 -.125019634942774D+03 -.216550329112108D+03
-.961325101507D-02 0.000000000000D+00 0.000000000000D+00 0.526602136376D-05 0.000000000000D+00  6 2 2 25 2 2 21 2 0.13802084D+00 0.48691287D+00 0.33989507D+06 0.33989507D+06 0.33989507D+06 0.10805628D+01  1  2 13  3  6  5        2 -.764330413283D-02 0.100000000000D+01
-.281022836340D-09 0.000000000000D+00 0.000000000000D+00 0.526602136376D-05 0.000000000000D+00  6 2 2 25 2 2 21 2 0.13802084D+00 0.48691287D+00 0.33989507D+06 0.33989507D+06 0.33989507D+06 0.10805628D+01  1  2 13  3  6  5        2 -.223435651795D-09 0.100000000000D+01
0.742233007366D-02 0.000000000000D+00 0.000000000000D+00 0.526602136376D-05 0.376786496056D-07  6 2 2 25 2 2 21 2 0.13802084D+00 0.48691287D+00 0.33989507D+06 0.33989507D+06 0.33989507D+06 0.10805628D+01  1  2  1  3  6  5        2 0.590134659319D-02 0.100000000000D+01
  </mgrwgt>
  </event>
  <event>
  5     66 0.18204334E-05 0.42904574E+02 0.75467711E-02 0.94332557E-01
        2 -1    0    0  501    0 0.00000000E+00 0.00000000E+00 0.14352521E+04 0.14352521E+04 0.32000000E+00 0.0000E+00 0.9000E+01
        2 -1    0    0  502    0 0.00000000E+00 0.00000000E+00 -.98398541E+03 0.98398546E+03 0.32000000E+00 0.0000E+00 0.9000E+01
       25  1    1    2    0    0 0.13029648E+03 0.44403549E+03 0.40860835E+03 0.62986544E+03 0.12500000E+03 0.0000E+00 0.9000E+01
        2  1    1    2  501    0 -.13049826E+03 -.48693464E+03 0.84604062E+03 0.98484515E+03 0.32000000E+00 0.0000E+00 0.9000E+01
        2  1    1    2  502    0 0.20178143E+00 0.42899148E+02 -.80338232E+03 0.80452697E+03 0.32000000E+00 0.0000E+00 0.9000E+01
#aMCatNLO 1  0  0  1  5 0.71172531D+03 0.00000000D+00  -5  6  0 0.00000000D+00 0.00000000D+00 0.00000000D+00 0.00000000D+00 0.00000000D+00
  <mgrwgt>
 0.2491455770D-01    7    2    0
 0.118838848673653D+04 0.000000000000000D+00 0.000000000000000D+00 0.118838848673653D+04
 0.118838848673653D+04 0.000000000000000D+00 0.000000000000000D+00 -.118838848673653D+04
 0.563558962761815D+03 0.130283979849994D+03 0.443983859876053D+03 0.296442441754180D+03
 0.841724962390794D+03 -.130485746545025D+03 -.486887959044728D+03 0.674102735195185D+03
 0.971493048320444D+03 0.201766695030869D+00 0.429040991686750D+02 -.970545176949365D+03
 0.000000000000000D+00 0.000000000000000D+00 0.000000000000000D+00 0.000000000000000D+00
 0.158005448159286D+04 0.000000000000000D+00 0.000000000000000D+00 0.158005448159286D+04
 0.135961051303869D+04 0.000000000000000D+00 0.000000000000000D+00 -.135961051303869D+04
 0.484080967258460D+03 0.888098487172741D+02 0.350633815196882D+03 0.296442441754180D+03
 0.955914777433203D+03 -.201650985824714D+03 -.647066800286849D+03 0.674102735195185D+03
 0.982406730595661D+03 -.771495191130532D+02 -.131198306088932D+03 -.970545176949365D+03
 0.517262519344226D+03 0.189990656220493D+03 0.427631291178900D+03 0.220443968554165D+03
0.263042967768D-02 0.000000000000D+00 0.000000000000D+00 0.132631148084D-04 0.000000000000D+00  6 2 2 25 2 2 21 0 0.22080802D+00 0.15138238D+00 0.26330557D+06 0.26330557D+06 0.26330557D+06 0.10887690D+01  1  2  2  1  6  1        2 0.159814085938D-01 0.100000000000D+01
0.141231240073D-02 0.000000000000D+00 -.101015425704D-04 0.132631148084D-04 0.000000000000D+00  6 2 2 25 2 2 21 2 0.22080802D+00 0.15138238D+00 0.26330557D+06 0.26330557D+06 0.26330557D+06 0.10887690D+01  1  2  3  1  6  1        2 0.101716310826D-01 0.100000000000D+01
-.184427147750D-02 0.000000000000D+00 0.000000000000D+00 0.132631148084D-04 0.000000000000D+00  6 2 2 25 2 2 21 2 0.22080802D+00 0.15138238D+00 0.26330557D+06 0.26330557D+06 0.26330557D+06 0.10887690D+01  1  2 15  1  6  1        2 -.132826484251D-01 0.100000000000D+01
-.190752813226D-03 0.000000000000D+00 0.000000000000D+00 0.132631148084D-04 0.000000000000D+00  6 2 2 25 2 2 21 2 0.22080802D+00 0.15138238D+00 0.26330557D+06 0.26330557D+06 0.26330557D+06 0.10887690D+01  1  2  4  1  6  1        2 -.137382298923D-02 0.100000000000D+01
-.240187619102D-02 0.000000000000D+00 -.193406618847D-02 0.132631148084D-04 0.000000000000D+00  6 2 2 25 2 2 21 2 0.31261507D+00 0.15138238D+00 0.26330557D+06 0.26330557D+06 0.26330557D+06 0.10887690D+01  1  2  5  1  6  1        2 -.817266186708D-02 0.100000000000D+01
0.300229896927D-02 0.000000000000D+00 0.182278233269D-02 0.132631148084D-04 0.000000000000D+00  6 2 2 25 2 2 21 2 0.22080802D+00 0.15138238D+00 0.26330557D+06 0.26330557D+06 0.26330557D+06 0.10887690D+01  1  2  6  1  6  1        2 0.216228912947D-01 0.100000000000D+01
-.490934180763D-04 0.000000000000D+00 -.831490778824D-04 0.132631148084D-04 0.000000000000D+00  6 21 2 25 2 2 -2 2 0.31261507D+00 0.15138238D+00 0.26330557D+06 0.26330557D+06 0.26330557D+06 0.10887690D+01  1  2  5  4  6  1        2 -.322399866901D-04 0.100000000000D+01
  </mgrwgt>
  </event>
  <event>
  5     66 0.18204334E-05 0.34011252E+02 0.75467711E-02 0.86865589E-01
        2 -1    0    0  501    0 0.00000000E+00 0.00000000E+00 0.31293843E+04 0.31293843E+04 0.32000000E+00 0.0000E+00 0.9000E+01
        2 -1    0    0  502    0 0.00000000E+00 0.00000000E+00 -.10435979E+04 0.10435979E+04 0.32000000E+00 0.0000E+00 0.9000E+01
       25  1    1    2    0    0 0.18520771E+03 0.61203795E+03 0.18678115E+03 0.67779388E+03 0.12500000E+03 0.0000E+00 0.9000E+01
        2  1    1    2  501    0 -.45212344E+01 -.33710469E+02 0.25819723E+04 0.25821963E+04 0.32000000E+00 0.0000E+00 0.9000E+01
        2  1    1    2  502    0 -.18068648E+03 -.57832748E+03 -.68296705E+03 0.91299199E+03 0.32000000E+00 0.0000E+00 0.9000E+01
#aMCatNLO 1  0  0  5  2 0.24789833D+01 0.00000000D+00  -5  6  0 0.00000000D+00 0.00000000D+00 0.00000000D+00 0.00000000D+00 0.00000000D+00
  <mgrwgt>
 0.8671299777D-02    4    2    0
 0.180715768750669D+04 0.000000000000000D+00 0.000000000000000D+00 0.180715768750669D+04
 0.180715768750669D+04 -.000000000000000D+00 -.000000000000000D+00 -.180715768750669D+04
 0.674803035862944D+03 0.185221152685277D+03 0.612080791806799D+03 -.175454740913277D+03
 0.149125024066236D+04 -.452109362382378D+01 -.337094193964418D+02 0.149086233939689D+04
 0.144826209848807D+04 -.180700059061453D+03 -.578371372410357D+03 -.131540759848361D+04
 0.000000000000000D+00 0.000000000000000D+00 0.000000000000000D+00 0.000000000000000D+00
 0.180715768750669D+04 0.000000000000000D+00 0.000000000000000D+00 0.180715768750669D+04
 0.180715768750669D+04 -.000000000000000D+00 -.000000000000000D+00 -.180715768750669D+04
 0.666260703623315D+03 0.169754059692063D+03 0.562574865532355D+03 -.288047574337904D+03
 0.126707313530417D+04 -.363340812583819D+02 -.135534075205855D+03 0.125927942856490D+04
 0.108131313914440D+04 -.303894019388671D+03 -.855305163397495D+03 -.587656028073988D+03
 0.599668396941492D+03 0.170474040954991D+03 0.428264373070994D+03 -.383575826153009D+03
0.155115047848D-01 0.000000000000D+00 0.000000000000D+00 0.693964561868D-04 0.000000000000D+00  6 2 2 25 2 2 21 0 0.48144374D+00 0.16055352D+00 0.41702372D+06 0.41702372D+06 0.41702372D+06 0.10741252D+01  1  2  2  3  6  5        2 0.883410990628D-02 0.100000000000D+01
0.116713927902D-01 0.000000000000D+00 -.595682626468D-04 0.693964561868D-04 0.000000000000D+00  6 2 2 25 2 2 21 2 0.48144374D+00 0.16055352D+00 0.41702372D+06 0.41702372D+06 0.41702372D+06 0.10741252D+01  1  2  3  3  6  5        2 0.766904611524D-02 0.100000000000D+01
-.117241668870D-01 0.000000000000D+00 0.000000000000D+00 0.693964561868D-04 0.000000000000D+00  6 2 2 25 2 2 21 2 0.48144374D+00 0.16055352D+00 0.41702372D+06 0.41702372D+06 0.41702372D+06 0.10741252D+01  1  2 15  3  6  5        2 -.770372295200D-02 0.100000000000D+01
-.195003911619D-03 0.000000000000D+00 0.000000000000D+00 0.693964561868D-04 0.000000000000D+00  6 2 2 25 2 2 21 2 0.48144374D+00 0.16055352D+00 0.41702372D+06 0.41702372D+06 0.41702372D+06 0.10741252D+01  1  2  4  3  6  5        2 -.128133292893D-03 0.100000000000D+01
  </mgrwgt>
  </event>
  <event>
  5     66 0.18204334E-05 0.20695983E+03 0.75467711E-02 0.90971420E-01
        2 -1    0    0  501    0 0.00000000E+00 0.00000000E+00 0.51862238E+03 0.51862248E+03 0.32000000E+00 0.0000E+00 0.9000E+01
        2 -1    0    0  502    0 -.00000000E+00 -.00000000E+00 -.18772164E+04 0.18772164E+04 0.32000000E+00 0.0000E+00 0.9000E+01
       25  1    1    2    0    0 0.55462471E+03 0.28236306E+03 -.15169342E+03 0.65266635E+03 0.12500000E+03 0.0000E+00 0.9000E+01
        2  1    1    2  501    0 -.51894295E+02 -.22665532E+03 0.16228032E+03 0.28355010E+03 0.32000000E+00 0.0000E+00 0.9000E+01
        2  1    1    2  502    0 -.50273042E+03 -.55707732E+02 -.13691809E+04 0.14596225E+04 0.32000000E+00 0.0000E+00 0.9000E+01
#aMCatNLO 1  0  0  5  2 0.10904838D+03 0.00000000D+00  -5  6  0 0.00000000D+00 0.00000000D+00 0.00000000D+00 0.00000000D+00 0.00000000D+00
  <mgrwgt>
 0.3088157730D-03    8    2    0
 0.986694782181516D+03 0.000000000000000D+00 0.000000000000000D+00 0.986694782181516D+03
 0.986694782181516D+03 -.000000000000000D+00 -.000000000000000D+00 -.986694782181516D+03
 0.688042050674013D+03 0.554688276395466D+03 0.282308763363104D+03 0.265329119497886D+03
 0.455811369307839D+03 -.518758504071200D+02 -.226574765929584D+03 0.392092815515382D+03
 0.829536144381181D+03 -.502812425988346D+03 -.557339974335201D+02 -.657421935013268D+03
 0.000000000000000D+00 -.000000000000000D+00 0.000000000000000D+00 0.000000000000000D+00
 0.986694782181516D+03 0.000000000000000D+00 0.000000000000000D+00 0.986694782181516D+03
 0.986694782181516D+03 -.000000000000000D+00 -.000000000000000D+00 -.986694782181516D+03
 0.679708509697236D+03 0.548523794712717D+03 0.281625464406022D+03 0.257269124822415D+03
 0.451934438037373D+03 -.559670806095430D+02 -.227028256340354D+03 0.386743575247553D+03
 0.374571388991761D+03 -.169231077015742D+03 -.117686488799134D+03 -.312753030964434D+03
 0.467175227636662D+03 -.323325637087432D+03 0.630892807334651D+02 -.331259669105534D+03
0.154316517597D-04 0.000000000000D+00 0.000000000000D+00 0.317661668111D-07 0.000000000000D+00  6 2 2 25 2 2 21 0 0.79788068D-01 0.28880254D+00 0.47138806D+06 0.47138806D+06 0.47138806D+06 0.10703238D+01  1  2  2  3  6  5        2 0.115935696640D-03 0.100000000000D+01
0.101229547902D-05 0.000000000000D+00 -.592616060045D-07 0.317661668111D-07 0.000000000000D+00  6 2 2 25 2 2 21 2 0.79788068D-01 0.28880254D+00 0.47138806D+06 0.47138806D+06 0.47138806D+06 0.10703238D+01  1  2  3  3  6  5        2 0.871249220029D-05 0.100000000000D+01
-.978513181862D-05 0.000000000000D+00 0.000000000000D+00 0.317661668111D-07 0.000000000000D+00  6 2 2 25 2 2 21 2 0.79788068D-01 0.28880254D+00 0.47138806D+06 0.47138806D+06 0.47138806D+06 0.10703238D+01  1  2 15  3  6  5        2 -.842173914784D-04 0.100000000000D+01
0.303086663402D-04 0.000000000000D+00 0.000000000000D+00 0.317661668111D-07 0.000000000000D+00  6 2 2 25 2 2 21 2 0.79788068D-01 0.28880254D+00 0.48896238D+06 0.48896238D+06 0.48896238D+06 0.10691962D+01  1  2 12  3  6  5        2 0.259818741897D-03 0.100000000000D+01
0.225800860749D-08 0.000000000000D+00 0.000000000000D+00 0.317661668111D-07 0.000000000000D+00  6 2 2 25 2 2 21 2 0.79788068D-01 0.28880254D+00 0.48896238D+06 0.48896238D+06 0.48896238D+06 0.10691962D+01  1  2 12  3  6  5        2 0.193566074141D-07 0.100000000000D+01
-.213191296328D-04 0.000000000000D+00 0.000000000000D+00 0.317661668111D-07 0.000000000000D+00  6 2 2 25 2 2 21 2 0.79788068D-01 0.28880254D+00 0.47138806D+06 0.47138806D+06 0.47138806D+06 0.10703238D+01  1  2  4  3  6  5        2 -.183486693848D-03 0.100000000000D+01
-.328351006320D-04 0.000000000000D+00 0.000000000000D+00 0.317661668111D-07 0.000000000000D+00  6 2 2 25 2 2 21 2 0.79788068D-01 0.28880254D+00 0.47138806D+06 0.47138806D+06 0.47138806D+06 0.10703238D+01  1  2  5  3  6  5        2 -.282600845386D-03 0.100000000000D+01
0.551472830955D-04 0.000000000000D+00 -.000000000000D+00 0.317661668111D-07 0.000000000000D+00  6 2 2 25 2 2 21 2 0.79788068D-01 0.28880254D+00 0.47138806D+06 0.47138806D+06 0.47138806D+06 0.10703238D+01  1  2  6  3  6  5        2 0.474634416328D-03 0.100000000000D+01
  </mgrwgt>
  </event>
  <event>
  5     66 0.18204334E-05 0.26852677E+02 0.75467711E-02 0.88164321E-01
        2 -1    0    0  501    0 0.00000000E+00 0.00000000E+00 0.98567372E+03 0.98567378E+03 0.32000000E+00 0.0000E+00 0.9000E+01
        2 -1    0    0  502    0 0.00000000E+00 0.00000000E+00 -.17697455E+04 0.17697455E+04 0.32000000E+00 0.0000E+00 0.9000E+01
       25  1    1    2    0    0 0.55709009E+03 0.58426601E+03 -.56852155E+03 0.99526775E+03 0.12500000E+03 0.0000E+00 0.9000E+01
        2  1    1    2  501    0 -.25020135E+02 -.97596278E+01 0.61678823E+03 0.61737273E+03 0.32000000E+00 0.0000E+00 0.9000E+01
        2  1    1    2  502    0 -.53206996E+03 -.57450638E+03 -.83233845E+03 0.11427788E+04 0.32000000E+00 0.0000E+00 0.9000E+01
#aMCatNLO 1  0  0  1  4 0.86034764D+02 0.00000000D+00  -5  6  0 0.00000000D+00 0.00000000D+00 0.00000000D+00 0.00000000D+00 0.00000000D+00
  <mgrwgt>
 0.2379259207D-02    7    2    0
 0.132075423046703D+04 0.000000000000000D+00 0.000000000000000D+00 0.132075423046703D+04
 0.132075423046703D+04 0.000000000000000D+00 0.000000000000000D+00 -.132075423046703D+04
 0.869491869097329D+03 0.557149169991155D+03 0.584330317353223D+03 -.297546623281824D+03
 0.826965828964813D+03 -.250168182752653D+02 -.975833425486514D+01 0.826529742956304D+03
 0.945050762871925D+03 -.532132351715890D+03 -.574571983098358D+03 -.528983119674480D+03
 0.000000000000000D+00 -.000000000000000D+00 0.000000000000000D+00 0.000000000000000D+00
 0.197056620558682D+04 0.000000000000000D+00 0.000000000000000D+00 0.197056620558682D+04
 0.133464282130323D+04 0.000000000000000D+00 0.000000000000000D+00 -.133464282130323D+04
 0.836204576925838D+03 0.560853474517844D+03 0.529643730791337D+03 -.297546623281824D+03
 0.829193101826652D+03 -.214200956353423D+02 -.628566911988169D+02 0.826529742956304D+03
 0.981571842326019D+03 -.527948256207984D+03 -.636341715993617D+03 -.528983119674480D+03
 0.658239505811547D+03 -.114851226745183D+02 0.169554676401097D+03 0.635923384283594D+03
0.784595746174D-04 0.000000000000D+00 0.000000000000D+00 0.223026267490D-05 0.000000000000D+00  6 2 2 25 2 2 21 0 0.15164212D+00 0.27226854D+00 0.66176744D+06 0.66176744D+06 0.66176744D+06 0.10600117D+01  1  2  2  1  6  1        2 0.294634169797D-03 0.100000000000D+01
0.661007865693D-04 0.000000000000D+00 -.301305425411D-06 0.223026267490D-05 0.000000000000D+00  6 2 2 25 2 2 21 2 0.15164212D+00 0.27226854D+00 0.66176744D+06 0.66176744D+06 0.66176744D+06 0.10600117D+01  1  2  3  1  6  1        2 0.278910652546D-03 0.100000000000D+01
-.493972844478D-04 0.000000000000D+00 0.000000000000D+00 0.223026267490D-05 0.000000000000D+00  6 2 2 25 2 2 21 2 0.15164212D+00 0.27226854D+00 0.66176744D+06 0.66176744D+06 0.66176744D+06 0.10600117D+01  1  2 15  1  6  1        2 -.208430633800D-03 0.100000000000D+01
-.613156095007D-05 0.000000000000D+00 0.000000000000D+00 0.223026267490D-05 0.000000000000D+00  6 2 2 25 2 2 21 2 0.15164212D+00 0.27226854D+00 0.66176744D+06 0.66176744D+06 0.66176744D+06 0.10600117D+01  1  2  4  1  6  1        2 -.258719714918D-04 0.100000000000D+01
-.114487720685D-02 0.000000000000D+00 -.566731304994D-04 0.223026267490D-05 0.000000000000D+00  6 2 2 25 2 2 21 2 0.22703119D+00 0.27226854D+00 0.66176744D+06 0.66176744D+06 0.66176744D+06 0.10600117D+01  1  2  5  1  6  1        2 -.248846291255D-02 0.100000000000D+01
0.108270017766D-02 0.000000000000D+00 0.523518408160D-04 0.223026267490D-05 0.000000000000D+00  6 2 2 25 2 2 21 2 0.15164212D+00 0.27226854D+00 0.66176744D+06 0.66176744D+06 0.66176744D+06 0.10600117D+01  1  2  6  1  6  1        2 0.456842692402D-02 0.100000000000D+01
-.528944849347D-04 0.000000000000D+00 -.271526595178D-05 0.223026267490D-05 0.000000000000D+00  6 21 2 25 2 2 -2 2 0.22703119D+00 0.27226854D+00 0.66176744D+06 0.66176744D+06 0.66176744D+06 0.10600117D+01  1  2  5  4  6  1        2 -.399470214758D-04 0.100000000000D+01
  </mgrwgt>
  </event>
  <event>
  5     66 0.18204334E-05 0.25964902E+02 0.75467711E-02 0.93757042E-01
        2 -1    0    0  501    0 0.00000000E+00 0.00000000E+00 0.91574624E+03 0.91574630E+03 0.32000000E+00 0.0000E+00 0.9000E+01
        2 -1    0    0  502    0 -.00000000E+00 -.00000000E+00 -.15758638E+04 0.15758639E+04 0.32000000E+00 0.0000E+00 0.9000E+01
       25  1    1    2    0    0 -.37184582E+03 -.28818481E+03 -.54366896E+03 0.72974019E+03 0.12500000E+03 0.0000E+00 0.9000E+01
        2  1    1    2  501    0 0.39199989E+03 0.27181500E+03 0.75335500E+03 0.89167885E+03 0.32000000E+00 0.0000E+00 0.9000E+01
        2  1    1    2  502    0 -.20154068E+02 0.16369811E+02 -.86980361E+03 0.87019112E+03 0.32000000E+00 0.0000E+00 0.9000E+01
#aMCatNLO 1  0  0  5  5 0.75525773D+02 0.00000000D+00  -5  6  0 0.00000000D+00 0.00000000D+00 0.00000000D+00 0.00000000D+00 0.00000000D+00
  <mgrwgt>
 0.9499001273D-02    6    2    0
 0.120128742784807D+04 0.000000000000000D+00 0.000000000000000D+00 0.120128742784807D+04
 0.120128742784807D+04 -.000000000000000D+00 -.000000000000000D+00 -.120128742784807D+04
 0.607400642881522D+03 -.371844963108131D+03 -.288184702594819D+03 -.363306264155099D+03
 0.113170840709168D+04 0.391999212398174D+03 0.271814534968921D+03 0.102626380367859D+04
 0.663465805722933D+03 -.201542492900414D+02 0.163701676258964D+02 -.662957539523487D+03
 0.000000000000000D+00 -.000000000000000D+00 0.000000000000000D+00 0.000000000000000D+00
 0.120128742784807D+04 0.000000000000000D+00 0.000000000000000D+00 0.120128742784807D+04
 0.120128742784807D+04 -.000000000000000D+00 -.000000000000000D+00 -.120128742784807D+04
 0.609536539129375D+03 -.371951959838934D+03 -.288097795144510D+03 -.366825834066609D+03
 0.112576098431067D+04 0.391800728985604D+03 0.271975751925602D+03 0.101973485422780D+04
 0.127827823558892D+03 0.465665687541654D+02 0.186784449445488D+02 -.117569651035972D+03
 0.539449508697200D+03 -.664153379008343D+02 -.255640172564103D+01 -.535339369125217D+03
0.727507456861D-03 0.000000000000D+00 0.000000000000D+00 0.387552350039D-04 0.000000000000D+00  6 2 2 25 2 2 21 0 0.14088404D+00 0.24244059D+00 0.24490241D+06 0.24490241D+06 0.24490241D+06 0.10911328D+01  1  2  2  3  6  5        2 0.410543126592D-02 0.100000000000D+01
0.432652853425D-03 0.000000000000D+00 -.279382019146D-05 0.387552350039D-04 0.000000000000D+00  6 2 2 25 2 2 21 2 0.14088404D+00 0.24244059D+00 0.24490241D+06 0.24490241D+06 0.24490241D+06 0.10911328D+01  1  2  3  3  6  5        2 0.290680667179D-02 0.100000000000D+01
-.519093094326D-03 0.000000000000D+00 0.000000000000D+00 0.387552350039D-04 0.000000000000D+00  6 2 2 25 2 2 21 2 0.14088404D+00 0.24244059D+00 0.24490241D+06 0.24490241D+06 0.24490241D+06 0.10911328D+01  1  2 15  3  6  5        2 -.348756111956D-02 0.100000000000D+01
-.117576858549D-04 0.000000000000D+00 0.000000000000D+00 0.387552350039D-04 0.000000000000D+00  6 2 2 25 2 2 21 2 0.14088404D+00 0.24244059D+00 0.24490241D+06 0.24490241D+06 0.24490241D+06 0.10911328D+01  1  2  4  3  6  5        2 -.789947862755D-04 0.100000000000D+01
-.966223702149D-03 0.000000000000D+00 0.000000000000D+00 0.387552350039D-04 0.000000000000D+00  6 2 2 25 2 2 21 2 0.14088404D+00 0.24244059D+00 0.24490241D+06 0.24490241D+06 0.24490241D+06 0.10911328D+01  1  2  5  3  6  5        2 -.649163753716D-02 0.100000000000D+01
0.186720754386D-02 0.000000000000D+00 -.000000000000D+00 0.387552350039D-04 0.000000000000D+00  6 2 2 25 2 2 21 2 0.14088404D+00 0.24244059D+00 0.24490241D+06 0.24490241D+06 0.24490241D+06 0.10911328D+01  1  2  6  3  6  5        2 0.125449567781D-01 0.100000000000D+01
  </mgrwgt>
  </event>
  <event>
  5     66 -.18204334E-05 0.10565334E+03 0.75467711E-02 0.92434682E-01
        2 -1    0    0  501    0 0.00000000E+00 0.00000000E+00 0.54312166E+03 0.54312175E+03 0.32000000E+00 0.0000E+00 0.9000E+01
        2 -1    0    0  502    0 0.00000000E+00 0.00000000E+00 -.19516709E+04 0.19516709E+04 0.32000000E+00 0.0000E+00 0.9000E+01
       25  1    1    2    0    0 -.43908031E+03 -.28211302E+03 -.42229520E+03 0.68288909E+03 0.12500000E+03 0.0000E+00 0.9000E+01
        2  1    1    2  501    0 0.41455281E+03 0.38486961E+03 0.21564012E+03 0.60537543E+03 0.32000000E+00 0.0000E+00 0.9000E+01
        2  1    1    2  502    0 0.24527500E+02 -.10275659E+03 -.12018941E+04 0.12065281E+04 0.32000000E+00 0.0000E+00 0.9000E+01
#aMCatNLO 1  0  0  1  4 0.11950532D+02 0.00000000D+00  -5  6  0 0.00000000D+00 0.00000000D+00 0.00000000D+00 0.00000000D+00 0.00000000D+00
  <mgrwgt>
 -.7238497767D-02   11    2    0
 0.102956052449612D+04 0.000000000000000D+00 0.000000000000000D+00 0.102956052449612D+04
 0.102956052449612D+04 0.000000000000000D+00 0.000000000000000D+00 -.102956052449612D+04
 0.538477371789255D+03 -.439070399958586D+03 -.282091145743698D+03 -.444370262537786D+02
 0.880942493288955D+03 0.414539423611884D+03 0.384857191122322D+03 0.675353007837475D+03
 0.639701183914023D+03 0.245309763467014D+02 -.102766045378623D+03 -.630915981583697D+03
 0.000000000000000D+00 0.000000000000000D+00 0.000000000000000D+00 0.000000000000000D+00
 0.179246464841240D+04 0.000000000000000D+00 0.000000000000000D+00 0.179246464841240D+04
 0.102962466461574D+04 0.000000000000000D+00 0.000000000000000D+00 -.102962466461574D+04
 0.541474763754194D+03 -.441947835142966D+03 -.283332634006088D+03 -.444370262537786D+02
 0.877863451557565D+03 0.409853243602942D+03 0.382835308055023D+03 0.675353007837475D+03
 0.639817512073921D+03 0.211218140387303D+02 -.104236950792202D+03 -.630915981583697D+03
 0.762933585642460D+03 0.109727775012931D+02 0.473427674326716D+01 0.762839983796658D+03
0.626561261598D-05 0.000000000000D+00 0.000000000000D+00 0.963334506298D-06 0.000000000000D+00  6 2 2 25 2 2 21 0 0.83557187D-01 0.30025707D+00 0.36478117D+06 0.36478117D+06 0.36478117D+06 0.10783251D+01  1  2  2  1  6  1        2 0.411813779178D-04 0.100000000000D+01
0.141013873551D-05 0.000000000000D+00 -.240616022190D-07 0.963334506298D-06 0.000000000000D+00  6 2 2 25 2 2 21 2 0.83557187D-01 0.30025707D+00 0.36478117D+06 0.36478117D+06 0.36478117D+06 0.10783251D+01  1  2  3  1  6  1        2 0.107770182169D-04 0.100000000000D+01
-.410926263561D-05 0.000000000000D+00 0.000000000000D+00 0.963334506298D-06 0.000000000000D+00  6 2 2 25 2 2 21 2 0.83557187D-01 0.30025707D+00 0.36478117D+06 0.36478117D+06 0.36478117D+06 0.10783251D+01  1  2 15  1  6  1        2 -.314051356558D-04 0.100000000000D+01
0.190885077348D-01 0.000000000000D+00 0.000000000000D+00 0.963334506298D-06 0.000000000000D+00  6 2 2 25 2 2 21 2 0.14550370D+00 0.30025707D+00 0.37136541D+06 0.37136541D+06 0.37136541D+06 0.10777609D+01  1  2 12  1  6  1        2 0.727559394487D-01 0.100000000000D+01
0.261708082844D-07 0.000000000000D+00 0.000000000000D+00 0.963334506298D-06 0.000000000000D+00  6 2 2 25 2 2 21 2 0.14547595D+00 0.30025707D+00 0.37136541D+06 0.37136541D+06 0.37136541D+06 0.10777609D+01  1  2 12  1  6  1        2 0.997766872185D-07 0.100000000000D+01
-.174179994672D-01 0.000000000000D+00 0.000000000000D+00 0.963334506298D-06 0.000000000000D+00  6 2 2 25 2 2 21 2 0.83557187D-01 0.30025707D+00 0.36478117D+06 0.36478117D+06 0.36478117D+06 0.10783251D+01  1  2  4  1  6  1        2 -.133117467689D+00 0.100000000000D+01
-.190961785841D-01 0.000000000000D+00 -.407910530925D-05 0.963334506298D-06 0.000000000000D+00  6 2 2 25 2 2 21 2 0.14547587D+00 0.30025707D+00 0.36478117D+06 0.36478117D+06 0.36478117D+06 0.10783251D+01  1  2  5  1  6  1        2 -.729670459732D-01 0.100000000000D+01
0.164973259544D-01 0.000000000000D+00 0.352344855312D-05 0.963334506298D-06 0.000000000000D+00  6 2 2 25 2 2 21 2 0.83557187D-01 0.30025707D+00 0.36478117D+06 0.36478117D+06 0.36478117D+06 0.10783251D+01  1  2  6  1  6  1        2 0.126081198867D+00 0.100000000000D+01
0.117115263872D-02 0.000000000000D+00 0.000000000000D+00 0.963334506298D-06 0.000000000000D+00  6 21 2 25 2 2 -2 2 0.14550370D+00 0.30025707D+00 0.37136541D+06 0.37136541D+06 0.37136541D+06 0.10777609D+01  1  2 12  4  6  1        2 0.336247600207D-02 0.100000000000D+01
0.160521600464D-08 0.000000000000D+00 0.000000000000D+00 0.963334506298D-06 0.000000000000D+00  6 21 2 25 2 2 -2 2 0.14547595D+00 0.30025707D+00 0.37136541D+06 0.37136541D+06 0.37136541D+06 0.10777609D+01  1  2 12  4  6  1        2 0.461130879859D-08 0.100000000000D+01
-.117107935146D-02 0.000000000000D+00 -.250196307652D-06 0.963334506298D-06 0.000000000000D+00  6 21 2 25 2 2 -2 2 0.14547587D+00 0.30025707D+00 0.36478117D+06 0.36478117D+06 0.36478117D+06 0.10783251D+01  1  2  5  4  6  1        2 -.337425607089D-02 0.100000000000D+01
  </mgrwgt>
  </event>
  <event>
  6     66 0.18204334E-05 0.44322907E+02 0.75467711E-02 0.89806931E-01
        2 -1    0    0  503    0 0.00000000E+00 0.00000000E+00 0.14057545E+04 0.14057545E+04 0.32000000E+00 0.0000E+00 0.9000E+01
        2 -1    0    0  502    0 0.00000000E+00 0.00000000E+00 -.11117197E+04 0.11117198E+04 0.32000000E+00 0.0000E+00 0.9000E+01
       25  1    1    2    0    0 -.19153149E+03 0.70971265E+03 -.29377475E+03 0.80143931E+03 0.12500000E+03 0.0000E+00 0.9000E+01
        2  1    1    2  501    0 0.24808096E+03 -.60319170E+03 0.70686165E+03 0.96178890E+03 0.32000000E+00 0.0000E+00 0.9000E+01
        2  1    1    2  502    0 -.78551612E+02 -.24008999E+02 -.42692179E+03 0.43475178E+03 0.32000000E+00 0.0000E+00 0.9000E+01
       21  1    1    2  503  501 0.22002139E+02 -.82511954E+02 0.30786966E+03 0.31949430E+03 0.75000000E+00 0.0000E+00 0.9000E+01
#aMCatNLO 2  0  0  1  5 0.85395063D+02 0.00000000D+00  -5  6  0 0.00000000D+00 0.00000000D+00 0.00000000D+00 0.00000000D+00 0.00000000D+00
  <mgrwgt>
 0.1648773140D-01    1    2    0
 0.109813845650371D+04 0.000000000000000D+00 0.000000000000000D+00 0.109813845650371D+04
 0.109813845650371D+04 0.000000000000000D+00 0.000000000000000D+00 -.109813845650371D+04
 0.771604620801196D+03 -.183656072921465D+03 0.680204008674838D+03 -.288689529258517D+03
 0.992120525850913D+03 0.257883281036300D+03 -.639956575202931D+03 0.712920004650718D+03
 0.432551766355302D+03 -.742272081148352D+02 -.402474334719070D+02 -.424230475392201D+03
 0.000000000000000D+00 0.000000000000000D+00 -.000000000000000D+00 0.000000000000000D+00
 0.141463032635922D+04 0.000000000000000D+00 0.000000000000000D+00 0.141463032635922D+04
 0.110474363357432D+04 0.000000000000000D+00 0.000000000000000D+00 -.110474363357432D+04
 0.799582098031766D+03 -.191523116789819D+03 0.709706828855754D+03 -.288689529258517D+03
 0.966244189363568D+03 0.248077609348678D+03 -.603183554307911D+03 0.712920004650718D+03
 0.432110152839913D+03 -.785566319624708D+02 -.240113204666685D+02 -.424230475392201D+03
 0.321437519698293D+03 0.220021394036121D+02 -.825119540811746D+02 0.309886692784896D+03
0.290889956874D-02 0.000000000000D+00 0.000000000000D+00 0.374579951669D-06 0.807727288790D-09  6 2 2 25 2 2 21 2 0.21626984D+00 0.17103374D+00 0.61261369D+06 0.61261369D+06 0.61261369D+06 0.10623310D+01  1  2  1  1  6  1        2 0.164877313964D-01 0.100000000000D+01
  </mgrwgt>
  </event>
  <event>
  5     66 0.18204334E-05 0.63837237E+02 0.75467711E-02 0.95237736E-01
        2 -1    0    0  501    0 0.00000000E+00 0.00000000E+00 0.94998750E+03 0.94998755E+03 0.32000000E+00 0.0000E+00 0.9000E+01
        2 -1    0    0  502    0 -.00000000E+00 -.00000000E+00 -.16550285E+04 0.16550285E+04 0.32000000E+00 0.0000E+00 0.9000E+01
       25  1    1    2    0    0 -.42327838E+03 0.18837592E+03 0.52400903E+03 0.71053539E+03 0.12500000E+03 0.0000E+00 0.9000E+01
        2  1    1    2  501    0 0.45648348E+02 -.44672590E+02 0.30319921E+03 0.30985363E+03 0.32000000E+00 0.0000E+00 0.9000E+01
        2  1    1    2  502    0 0.37763003E+03 -.14370333E+03 -.15322492E+04 0.15846271E+04 0.32000000E+00 0.0000E+00 0.9000E+01
#aMCatNLO 1  0  0  5  2 0.98142880D+01 0.00000000D+00  -5  6  0 0.00000000D+00 0.00000000D+00 0.00000000D+00 0.00000000D+00 0.00000000D+00
  <mgrwgt>
 0.1557191412D-01    9    2    0
 0.125389652454584D+04 0.000000000000000D+00 0.000000000000000D+00 0.125389652454584D+04
 0.125389652454584D+04 -.000000000000000D+00 -.000000000000000D+00 -.125389652454584D+04
 0.885591009733641D+03 -.423303289656290D+03 0.188371986837654D+03 0.744296148090293D+03
 0.406896875089330D+03 0.456247358530467D+02 -.446494822133079D+02 0.401858027385151D+03
 0.121530516426871D+04 0.377678553803244D+03 -.143722504624346D+03 -.114615417547544D+04
 0.000000000000000D+00 0.000000000000000D+00 -.000000000000000D+00 0.000000000000000D+00
 0.125389652454584D+04 0.000000000000000D+00 0.000000000000000D+00 0.125389652454584D+04
 0.125389652454584D+04 -.000000000000000D+00 -.000000000000000D+00 -.125389652454584D+04
 0.885472242653509D+03 -.423265094322971D+03 0.188357451913936D+03 0.744180235390654D+03
 0.406846978114020D+03 0.456422853209539D+02 -.446561605207126D+02 0.401804769407655D+03
 0.105608280641842D+04 0.320537478547348D+03 -.119619322028524D+03 -.999128538605790D+03
 0.159391021905738D+03 0.570853304546701D+02 -.240819693646989D+02 -.146856466192519D+03
0.107165659255D-04 0.000000000000D+00 0.000000000000D+00 0.118624716115D-04 0.000000000000D+00  6 2 2 25 2 2 21 0 0.14615193D+00 0.25461978D+00 0.22459451D+06 0.22459451D+06 0.22459451D+06 0.10939777D+01  1  2  2  3  6  5        2 0.523437184757D-04 0.100000000000D+01
0.168926554919D-05 0.000000000000D+00 -.411544348905D-07 0.118624716115D-04 0.000000000000D+00  6 2 2 25 2 2 21 2 0.14615193D+00 0.25461978D+00 0.22459451D+06 0.22459451D+06 0.22459451D+06 0.10939777D+01  1  2  3  3  6  5        2 0.987469792039D-05 0.100000000000D+01
-.711135480963D-05 0.000000000000D+00 0.000000000000D+00 0.118624716115D-04 0.000000000000D+00  6 2 2 25 2 2 21 2 0.14615193D+00 0.25461978D+00 0.22459451D+06 0.22459451D+06 0.22459451D+06 0.10939777D+01  1  2 15  3  6  5        2 -.415698293164D-04 0.100000000000D+01
0.775863947793D-02 0.000000000000D+00 0.000000000000D+00 0.118624716115D-04 0.000000000000D+00  6 2 2 25 2 2 21 2 0.14615193D+00 0.25461978D+00 0.22457768D+06 0.22457768D+06 0.22457768D+06 0.10939802D+01  1  2 12  3  6  5        2 0.453539785629D-01 0.100000000000D+01
0.581652101555D-09 0.000000000000D+00 0.000000000000D+00 0.118624716115D-04 0.000000000000D+00  6 2 2 25 2 2 21 2 0.14615193D+00 0.25461978D+00 0.22457768D+06 0.22457768D+06 0.22457768D+06 0.10939802D+01  1  2 12  3  6  5        2 0.340011119476D-08 0.100000000000D+01
-.620277399521D-02 0.000000000000D+00 0.000000000000D+00 0.118624716115D-04 0.000000000000D+00  6 2 2 25 2 2 21 2 0.14615193D+00 0.25461978D+00 0.22459451D+06 0.22459451D+06 0.22459451D+06 0.10939777D+01  1  2  4  3  6  5        2 -.362586684495D-01 0.100000000000D+01
-.790738589906D-02 0.000000000000D+00 0.000000000000D+00 0.118624716115D-04 0.000000000000D+00  6 2 2 25 2 2 21 2 0.14615193D+00 0.25461978D+00 0.22459451D+06 0.22459451D+06 0.22459451D+06 0.10939777D+01  1  2  5  3  6  5        2 -.462230743596D-01 0.100000000000D+01
0.901180534922D-02 0.000000000000D+00 -.000000000000D+00 0.118624716115D-04 0.000000000000D+00  6 2 2 25 2 2 21 2 0.14615193D+00 0.25461978D+00 0.22459451D+06 0.22459451D+06 0.22459451D+06 0.10939777D+01  1  2  6  3  6  5        2 0.526790211188D-01 0.100000000000D+01
0.899192570923D-09 0.000000000000D+00 0.000000000000D+00 0.118624716115D-04 0.432812475402D-06  6 2 2 25 2 2 21 2 0.14615193D+00 0.25461978D+00 0.22457768D+06 0.22457768D+06 0.22457768D+06 0.10939802D+01  1  2 11  3  6  5        2 0.525632885786D-08 0.100000000000D+01
  </mgrwgt>
  </event>
  <event>
  6     66 0.18204334E-05 0.10016160E+03 0.75467711E-02 0.93150783E-01
        2 -1    0    0  501    0 0.00000000E+00 0.00000000E+00 0.32762856E+04 0.32762856E+04 0.32000000E+00 0.0000E+00 0.9000E+01
        2 -1    0    0  502    0 0.00000000E+00 0.00000000E+00 -.74901431E+03 0.74901438E+03 0.32000000E+00 0.0000E+00 0.9000E+01
       25  1    1    2    0    0 -.35694173E+03 0.40253104E+03 0.25788342E+02 0.55292737E+03 0.12500000E+03 0.0000E+00 0.9000E+01
        2  1    1    2  501    0 -.17093085E+02 -.11716726E+03 0.28666495E+04 0.28690939E+04 0.32000000E+00 0.0000E+00 0.9000E+01
        2  1    1    2  503    0 0.32410006E+03 -.25097330E+03 -.27140626E+03 0.49161968E+03 0.32000000E+00 0.0000E+00 0.9000E+01
       21  1    1    2  502  503 0.49934755E+02 -.34390482E+02 -.93760295E+02 0.11165904E+03 0.75000000E+00 0.0000E+00 0.9000E+01
#aMCatNLO 2  0  0  5  2 0.38773302D+02 0.00000000D+00  -5  6  0 0.00000000D+00 0.00000000D+00 0.00000000D+00 0.00000000D+00 0.00000000D+00
  <mgrwgt>
 0.1337260258D-01    3    2    0
 0.156652000451157D+04 0.000000000000000D+00 0.000000000000000D+00 0.156652000451157D+04
 0.156652000451157D+04 -.000000000000000D+00 -.000000000000000D+00 -.156652000451157D+04
 0.689404956018275D+03 -.357278440842610D+03 0.402788083207248D+03 -.412029209059096D+03
 0.137546449111146D+04 -.177619044813086D+02 -.116656916686452D+03 0.137039346351584D+04
 0.106817056189340D+04 0.375040345323919D+03 -.286131166520796D+03 -.958364254456740D+03
 0.000000000000000D+00 0.000000000000000D+00 0.000000000000000D+00 -.000000000000000D+00
 0.156652000451157D+04 0.000000000000000D+00 0.000000000000000D+00 0.156652000451157D+04
 0.156652000451157D+04 -.000000000000000D+00 -.000000000000000D+00 -.156652000451157D+04
 0.689594636813657D+03 -.356942807790053D+03 0.402532017218486D+03 -.412886873372270D+03
 0.137379586658660D+04 -.170927653090244D+02 -.117167425953836D+03 0.136868356997513D+04
 0.850442013729316D+03 0.324073131581769D+03 -.250954900491357D+03 -.745150898826628D+03
 0.219207491893569D+03 0.499624415173088D+02 -.344096907732936D+02 -.210645797776231D+03
-.121187144784D-01 0.000000000000D+00 0.000000000000D+00 0.108768082806D-04 0.000000000000D+00  6 2 2 25 2 2 21 2 0.50404394D+00 0.11523298D+00 0.32563008D+06 0.32563008D+06 0.32563008D+06 0.10819276D+01  1  2 13  3  6  5        2 -.103434001238D-01 0.100000000000D+01
-.234246695604D-09 0.000000000000D+00 0.000000000000D+00 0.108768082806D-04 0.000000000000D+00  6 2 2 25 2 2 21 2 0.50404394D+00 0.11523298D+00 0.32563008D+06 0.32563008D+06 0.32563008D+06 0.10819276D+01  1  2 13  3  6  5        2 -.199931049175D-09 0.100000000000D+01
0.277865561008D-01 0.000000000000D+00 0.000000000000D+00 0.108768082806D-04 0.755187525045D-07  6 2 2 25 2 2 21 2 0.50404394D+00 0.11523298D+00 0.32563008D+06 0.32563008D+06 0.32563008D+06 0.10819276D+01  1  2  1  3  6  5        2 0.237160029082D-01 0.100000000000D+01
  </mgrwgt>
  </event>
  <event>
  5     66 -.18204334E-05 0.15298364E+02 0.75467711E-02 0.89799410E-01
        2 -1    0    0  501    0 0.00000000E+00 0.00000000E+00 0.13811550E+04 0.13811551E+04 0.32000000E+00 0.0000E+00 0.9000E+01
        2 -1    0    0  502    0 -.00000000E+00 -.00000000E+00 -.24409934E+04 0.24409935E+04 0.32000000E+00 0.0000E+00 0.9000E+01
       25  1    1    2    0    0 0.57035582E+03 0.50738191E+03 0.11245560E+03 0.78167349E+03 0.12500000E+03 0.0000E+00 0.9000E+01
        2  1    1    2  501    0 -.58454558E+03 -.51309635E+03 0.77214328E+03 0.10959775E+04 0.32000000E+00 0.0000E+00 0.9000E+01
        2  1    1    2  502    0 0.14189751E+02 0.57144358E+01 -.19444373E+04 0.19444975E+04 0.32000000E+00 0.0000E+00 0.9000E+01
#aMCatNLO 1  0  0  5  2 0.32738416D+01 0.00000000D+00  -5  6  0 0.00000000D+00 0.00000000D+00 0.00000000D+00 0.00000000D+00 0.00000000D+00
  <mgrwgt>
 -.2032451490D+00    6    2    0
 0.183613464850683D+04 0.000000000000000D+00 0.000000000000000D+00 0.183613464850683D+04
 0.183613464850683D+04 -.000000000000000D+00 -.000000000000000D+00 -.183613464850683D+04
 0.846042937918370D+03 0.570323018976272D+03 0.507353651384248D+03 0.342764612021731D+03
 0.136347959243892D+04 -.584513869122381D+03 -.513068518908596D+03 0.111990215229096D+04
 0.146274676665636D+04 0.141908501461051D+02 0.571486752434683D+01 -.146266676431269D+04
 0.000000000000000D+00 0.000000000000000D+00 0.000000000000000D+00 -.000000000000000D+00
 0.183613464850683D+04 0.000000000000000D+00 0.000000000000000D+00 0.183613464850683D+04
 0.183613464850683D+04 -.000000000000000D+00 -.000000000000000D+00 -.183613464850683D+04
 0.846041413972111D+03 0.570323056289230D+03 0.507353666410734D+03 0.342760766133504D+03
 0.136347446677703D+04 -.584513808989018D+03 -.513068494691992D+03 0.111989595427814D+04
 0.475751968976719D+03 0.697183591822346D+01 -.413986337110269D+00 -.475700702232472D+03
 0.987001447287797D+03 0.721891678156089D+01 0.612881461836678D+01 -.986956018179169D+03
0.459985573469D-04 0.000000000000D+00 0.000000000000D+00 0.236933488311D-04 0.000000000000D+00  6 2 2 25 2 2 21 0 0.21248539D+00 0.37553746D+00 0.61351820D+06 0.61351820D+06 0.61351820D+06 0.10622865D+01  1  2  2  3  6  5        2 0.424548159795D-04 0.100000000000D+01
0.575408498290D-04 0.000000000000D+00 -.176646571910D-06 0.236933488311D-04 0.000000000000D+00  6 2 2 25 2 2 21 2 0.21248539D+00 0.37553746D+00 0.61351820D+06 0.61351820D+06 0.61351820D+06 0.10622865D+01  1  2  3  3  6  5        2 0.599297367739D-04 0.100000000000D+01
-.287390811388D-04 0.000000000000D+00 0.000000000000D+00 0.236933488311D-04 0.000000000000D+00  6 2 2 25 2 2 21 2 0.21248539D+00 0.37553746D+00 0.61351820D+06 0.61351820D+06 0.61351820D+06 0.10622865D+01  1  2 15  3  6  5        2 -.299322233316D-04 0.100000000000D+01
0.564646985065D-02 0.000000000000D+00 0.000000000000D+00 0.236933488311D-04 0.000000000000D+00  6 2 2 25 2 2 21 2 0.21248539D+00 0.37553746D+00 0.61442355D+06 0.61442355D+06 0.61442355D+06 0.10622421D+01  1  2 12  3  6  5        2 0.587965195876D-02 0.100000000000D+01
0.263925482007D-10 0.000000000000D+00 0.000000000000D+00 0.236933488311D-04 0.000000000000D+00  6 2 2 25 2 2 21 2 0.21248539D+00 0.37553746D+00 0.61442355D+06 0.61442355D+06 0.61442355D+06 0.10622421D+01  1  2 12  3  6  5        2 0.274824805285D-10 0.100000000000D+01
-.200858344866D+00 0.000000000000D+00 0.000000000000D+00 0.236933488311D-04 0.000000000000D+00  6 2 2 25 2 2 21 2 0.21248539D+00 0.37553746D+00 0.61351820D+06 0.61351820D+06 0.61351820D+06 0.10622865D+01  1  2  5  3  6  5        2 -.209197253298D+00 0.100000000000D+01
  </mgrwgt>
  </event>
  <event>
  5     66 0.18204334E-05 0.86272899E+02 0.75467711E-02 0.92772553E-01
        2 -1    0    0  501    0 0.00000000E+00 0.00000000E+00 0.22299351E+04 0.22299351E+04 0.32000000E+00 0.0000E+00 0.9000E+01
        2 -1    0    0  502    0 0.00000000E+00 0.00000000E+00 -.14127805E+04 0.14127805E+04 0.32000000E+00 0.0000E+00 0.9000E+01
       25  1    1    2    0    0 0.38658402E+03 -.36692028E+03 -.98014081E+02 0.55615596E+03 0.12500000E+03 0.0000E+00 0.9000E+01
        2  1    1    2  501    0 -.44834570E+03 0.30668960E+03 0.19621893E+04 0.20359910E+04 0.32000000E+00 0.0000E+00 0.9000E+01
        2  1    1    2  502    0 0.61761677E+02 0.60230682E+02 -.10470206E+04 0.10505686E+04 0.32000000E+00 0.0000E+00 0.9000E+01
#aMCatNLO 1  0  0  5  2 0.14117360D+02 0.00000000D+00  -5  6  0 0.00000000D+00 0.00000000D+00 0.00000000D+00 0.00000000D+00 0.00000000D+00
  <mgrwgt>
 0.9209097789D-02    8    2    0
 0.177493909008266D+04 0.000000000000000D+00 0.000000000000000D+00 0.177493909008266D+04
 0.177493909008266D+04 -.000000000000000D+00 -.000000000000000D+00 -.177493909008266D+04
 0.593239375453267D+03 0.386577199700632D+03 -.366921007151982D+03 -.228549775257765D+03
 0.163754191962356D+04 -.448341876104961D+03 0.306686980886473D+03 0.154482238345055D+04
 0.131909688508848D+04 0.617646764043307D+02 0.602340262655112D+02 -.131627260819279D+04
 0.000000000000000D+00 0.000000000000000D+00 0.000000000000000D+00 -.000000000000000D+00
 0.177493909008266D+04 0.000000000000000D+00 0.000000000000000D+00 0.177493909008266D+04
 0.177493909008266D+04 -.000000000000000D+00 -.000000000000000D+00 -.177493909008266D+04
 0.593259043039151D+03 0.386579580910691D+03 -.366918684952991D+03 -.228600521440812D+03
 0.163740918336878D+04 -.448335303532771D+03 0.306693390577399D+03 0.154468231476984D+04
 0.714489867211531D+03 0.439364227751686D+02 0.231697453033031D+02 -.712761197038849D+03
 0.604720086545854D+03 0.178192998469138D+02 0.370555490722911D+02 -.603320596290183D+03
0.358321114857D-04 0.000000000000D+00 0.000000000000D+00 0.402983763181D-04 0.000000000000D+00  6 2 2 25 2 2 21 0 0.34306694D+00 0.21735084D+00 0.34628557D+06 0.34628557D+06 0.34628557D+06 0.10799716D+01  1  2  2  3  6  5        2 0.439571489798D-04 0.100000000000D+01
0.117409425326D-04 0.000000000000D+00 -.137604742917D-06 0.402983763181D-04 0.000000000000D+00  6 2 2 25 2 2 21 2 0.34306694D+00 0.21735084D+00 0.34628557D+06 0.34628557D+06 0.34628557D+06 0.10799716D+01  1  2  3  3  6  5        2 0.167990495751D-04 0.100000000000D+01
-.232716118875D-04 0.000000000000D+00 0.000000000000D+00 0.402983763181D-04 0.000000000000D+00  6 2 2 25 2 2 21 2 0.34306694D+00 0.21735084D+00 0.34628557D+06 0.34628557D+06 0.34628557D+06 0.10799716D+01  1  2 15  3  6  5        2 -.332972383352D-04 0.100000000000D+01
0.136803871502D-01 0.000000000000D+00 0.000000000000D+00 0.402983763181D-04 0.000000000000D+00  6 2 2 25 2 2 21 2 0.34306694D+00 0.21735084D+00 0.34894710D+06 0.34894710D+06 0.34894710D+06 0.10797288D+01  1  2 12  3  6  5        2 0.195527962782D-01 0.100000000000D+01
0.383972770667D-10 0.000000000000D+00 0.000000000000D+00 0.402983763181D-04 0.000000000000D+00  6 2 2 25 2 2 21 2 0.34306694D+00 0.21735084D+00 0.34894710D+06 0.34894710D+06 0.34894710D+06 0.10797288D+01  1  2 12  3  6  5        2 0.548795971842D-10 0.100000000000D+01
-.154876752996D-01 0.000000000000D+00 0.000000000000D+00 0.402983763181D-04 0.000000000000D+00  6 2 2 25 2 2 21 2 0.34306694D+00 0.21735084D+00 0.34628557D+06 0.34628557D+06 0.34628557D+06 0.10799716D+01  1  2  4  3  6  5        2 -.221599096015D-01 0.100000000000D+01
-.150779868283D-01 0.000000000000D+00 0.000000000000D+00 0.402983763181D-04 0.000000000000D+00  6 2 2 25 2 2 21 2 0.34306694D+00 0.21735084D+00 0.34628557D+06 0.34628557D+06 0.34628557D+06 0.10799716D+01  1  2  5  3  6  5        2 -.215737235334D-01 0.100000000000D+01
0.233172065700D-01 0.000000000000D+00 -.000000000000D+00 0.402983763181D-04 0.000000000000D+00  6 2 2 25 2 2 21 2 0.34306694D+00 0.21735084D+00 0.34628557D+06 0.34628557D+06 0.34628557D+06 0.10799716D+01  1  2  6  3  6  5        2 0.333624756302D-01 0.100000000000D+01
  </mgrwgt>
  </event>
  <event>
  6     66 0.18204334E-05 0.23065136E+03 0.75467711E-02 0.93543993E-01
        2 -1    0    0  501    0 0.00000000E+00 0.00000000E+00 0.48146402E+03 0.48146413E+03 0.32000000E+00 0.0000E+00 0.9000E+01
        2 -1    0    0  503    0 0.00000000E+00 0.00000000E+00 -.12820084E+04 0.12820085E+04 0.32000000E+00 0.0000E+00 0.9000E+01
       25  1    1    2    0    0 -.19444210E+03 0.46326045E+03 0.35884030E+02 0.51897075E+03 0.12500000E+03 0.0000E+00 0.9000E+01
        2  1    1    2  501    0 0.18800842E+03 -.22220978E+03 0.62779518E+02 0.29776790E+03 0.32000000E+00 0.0000E+00 0.9000E+01
        2  1    1    2  502    0 0.47403082E+02 -.24676210E+03 -.81593538E+03 0.85375010E+03 0.32000000E+00 0.0000E+00 0.9000E+01
       21  1    1    2  503  502 -.40969403E+02 0.57114256E+01 -.83272586E+02 0.92983861E+02 0.75000000E+00 0.0000E+00 0.9000E+01
#aMCatNLO 2  0  0  2  4 0.41365594D+02 0.00000000D+00  -5  6  0 0.00000000D+00 0.00000000D+00 0.00000000D+00 0.00000000D+00 0.00000000D+00
  <mgrwgt>
 0.3770981691D-03    3    2    0
 0.754046198420524D+03 0.000000000000000D+00 0.000000000000000D+00 0.754046198420524D+03
 0.754046198420524D+03 0.000000000000000D+00 0.000000000000000D+00 -.754046198420524D+03
 0.598998237609882D+03 -.210546689338652D+03 0.465474796234423D+03 0.286665649038737D+03
 0.353585988109094D+03 0.178242611470390D+03 -.220761790806395D+03 0.210990175513585D+03
 0.555508171122072D+03 0.323040778682624D+02 -.244713005428028D+03 -.497655824552323D+03
 0.000000000000000D+00 -.000000000000000D+00 0.000000000000000D+00 -.000000000000000D+00
 0.762012631444260D+03 0.000000000000000D+00 0.000000000000000D+00 0.762012631444260D+03
 0.810009545281946D+03 0.000000000000000D+00 0.000000000000000D+00 -.810009545281946D+03
 0.591740895221363D+03 -.194375697763767D+03 0.463220445206629D+03 0.286665649038737D+03
 0.359397245508663D+03 0.187925375348698D+03 -.222111636831598D+03 0.210990175513585D+03
 0.557521459629085D+03 0.474197251878211D+02 -.246820233974455D+03 -.497655824552323D+03
 0.633625763670955D+02 -.409694027727523D+02 0.571142559942297D+01 -.479969138376861D+02
-.294352514533D-07 0.000000000000D+00 0.000000000000D+00 0.375357895633D-07 0.000000000000D+00  6 2 2 25 2 2 21 2 0.73296811D-01 0.19980574D+00 0.30322291D+06 0.30322291D+06 0.30322291D+06 0.10842087D+01  1  2 13  2  6  2        2 -.609390162786D-06 0.100000000000D+01
-.187251208337D-05 0.000000000000D+00 0.000000000000D+00 0.375357895633D-07 0.000000000000D+00  6 2 2 25 2 2 21 2 0.73296811D-01 0.18360484D+00 0.27905890D+06 0.27905890D+06 0.27905890D+06 0.10868845D+01  1  2  8  2  6  2        2 -.449045981557D-04 0.100000000000D+01
0.202099920897D-04 0.000000000000D+00 0.000000000000D+00 0.375357895633D-07 0.248145348582D-10  6 2 2 25 2 2 21 2 0.74071186D-01 0.19723151D+00 0.30322291D+06 0.30322291D+06 0.30322291D+06 0.10842087D+01  1  2  1  2  6  2        2 0.422612157391D-03 0.100000000000D+01
  </mgrwgt>
  </event>
  <event>
  5     66 -.18204334E-05 0.11611648E+03 0.75467711E-02 0.93366829E-01
        2 -1    0    0  501    0 0.00000000E+00 0.00000000E+00 0.28368684E+04 0.28368684E+04 0.32000000E+00 0.0000E+00 0.9000E+01
        2 -1    0    0  502    0 0.00000000E+00 0.00000000E+00 -.13190467E+04 0.13190468E+04 0.32000000E+00 0.0000E+00 0.9000E+01
       25  1    1    2    0    0 -.38160231E+03 0.37848771E+03 -.50556381E+02 0.55412473E+03 0.12500000E+03 0.0000E+00 0.9000E+01
        2  1    1    2  501    0 0.26891471E+03 -.35050353E+03 0.25628073E+04 0.26006056E+04 0.32000000E+00 0.0000E+00 0.9000E+01
        2  1    1    2  502    0 0.11268760E+03 -.27984178E+02 -.99442924E+03 0.10011849E+04 0.32000000E+00 0.0000E+00 0.9000E+01
#aMCatNLO 1  0  0  1  4 0.24260027D+02 0.00000000D+00  -5  6  0 0.00000000D+00 0.00000000D+00 0.00000000D+00 0.00000000D+00 0.00000000D+00
  <mgrwgt>
 -.6385123944D-01   11    2    0
 0.193441518587701D+04 0.000000000000000D+00 0.000000000000000D+00 0.193441518587701D+04
 0.193441518587701D+04 0.000000000000000D+00 0.000000000000000D+00 -.193441518587701D+04
 0.615058561157065D+03 -.381606063070506D+03 0.378486610814587D+03 -.271655538714961D+03
 0.178812601074317D+04 0.268912556094206D+03 -.350500727069270D+03 0.173269440692670D+04
 0.146564579985379D+04 0.112693506976299D+03 -.279858837453172D+02 -.146103886821174D+04
 0.000000000000000D+00 0.000000000000000D+00 -.000000000000000D+00 0.000000000000000D+00
 0.366881160245915D+04 0.000000000000000D+00 0.000000000000000D+00 0.366881160245915D+04
 0.193453805364579D+04 0.000000000000000D+00 0.000000000000000D+00 -.193453805364579D+04
 0.618434028589948D+03 -.384171946448938D+03 0.381380166717032D+03 -.271655538714961D+03
 0.178539794126159D+04 0.261478992417297D+03 -.342117870609652D+03 0.173269440692670D+04
 0.146507446405494D+04 0.106597088988461D+03 -.211109312822565D+02 -.146103886821174D+04
 0.173444322219846D+04 0.160958650431795D+02 -.181513648251240D+02 0.173427354881336D+04
0.304079903281D-03 0.000000000000D+00 0.000000000000D+00 0.659549753185D-04 0.000000000000D+00  6 2 2 25 2 2 21 0 0.43644130D+00 0.20293027D+00 0.30786210D+06 0.30786210D+06 0.30786210D+06 0.10837216D+01  1  2  2  1  6  1        2 0.188043787273D-03 0.100000000000D+01
0.740549505641D-04 0.000000000000D+00 -.116774689468D-05 0.659549753185D-04 0.000000000000D+00  6 2 2 25 2 2 21 2 0.43644130D+00 0.20293027D+00 0.30786210D+06 0.30786210D+06 0.30786210D+06 0.10837216D+01  1  2  3  1  6  1        2 0.537849601536D-04 0.100000000000D+01
-.219321085313D-03 0.000000000000D+00 0.000000000000D+00 0.659549753185D-04 0.000000000000D+00  6 2 2 25 2 2 21 2 0.43644130D+00 0.20293027D+00 0.30786210D+06 0.30786210D+06 0.30786210D+06 0.10837216D+01  1  2 15  1  6  1        2 -.159289497118D-03 0.100000000000D+01
0.616131158247D+00 0.000000000000D+00 0.000000000000D+00 0.659549753185D-04 0.000000000000D+00  6 2 2 25 2 2 21 2 0.82900317D+00 0.20293027D+00 0.31309745D+06 0.31309745D+06 0.31309745D+06 0.10831815D+01  1  2 12  1  6  1        2 0.170544795805D-02 0.100000000000D+01
0.652978521120D-09 0.000000000000D+00 0.000000000000D+00 0.659549753185D-04 0.000000000000D+00  6 2 2 25 2 2 21 2 0.82776224D+00 0.20293027D+00 0.31309745D+06 0.31309745D+06 0.31309745D+06 0.10831815D+01  1  2 12  1  6  1        2 0.186598391808D-11 0.100000000000D+01
-.598102645263D+00 0.000000000000D+00 0.000000000000D+00 0.659549753185D-04 0.000000000000D+00  6 2 2 25 2 2 21 2 0.43644130D+00 0.20293027D+00 0.30786210D+06 0.30786210D+06 0.30786210D+06 0.10837216D+01  1  2  4  1  6  1        2 -.434392659751D+00 0.100000000000D+01
-.618194872097D+00 0.000000000000D+00 -.114738770091D-03 0.659549753185D-04 0.000000000000D+00  6 2 2 25 2 2 21 2 0.82775764D+00 0.20293027D+00 0.30786210D+06 0.30786210D+06 0.30786210D+06 0.10837216D+01  1  2  5  1  6  1        2 -.177324776481D-02 0.100000000000D+01
0.510167466319D+00 0.000000000000D+00 0.946742487768D-04 0.659549753185D-04 0.000000000000D+00  6 2 2 25 2 2 21 2 0.43644130D+00 0.20293027D+00 0.30786210D+06 0.30786210D+06 0.30786210D+06 0.10837216D+01  1  2  6  1  6  1        2 0.370526705354D+00 0.100000000000D+01
0.429530676240D-01 0.000000000000D+00 0.000000000000D+00 0.659549753185D-04 0.000000000000D+00  6 21 2 25 2 2 -2 2 0.82900317D+00 0.20293027D+00 0.31309745D+06 0.31309745D+06 0.31309745D+06 0.10831815D+01  1  2 12  4  6  1        2 0.516104140301D-06 0.100000000000D+01
0.454240862417D-10 0.000000000000D+00 0.000000000000D+00 0.659549753185D-04 0.000000000000D+00  6 21 2 25 2 2 -2 2 0.82776224D+00 0.20293027D+00 0.31309745D+06 0.31309745D+06 0.31309745D+06 0.10831815D+01  1  2 12  4  6  1        2 0.568670507306D-15 0.100000000000D+01
-.429974998766D-01 0.000000000000D+00 -.798167488515D-05 0.659549753185D-04 0.000000000000D+00  6 21 2 25 2 2 -2 2 0.82775764D+00 0.20293027D+00 0.30786210D+06 0.30786210D+06 0.30786210D+06 0.10837216D+01  1  2  5  4  6  1        2 -.540591440295D-06 0.100000000000D+01
  </mgrwgt>
  </event>
  <event>
  5     66 -.18204334E-05 0.20705124E+03 0.75467711E-02 0.94090410E-01
        2 -1    0    0  501    0 0.00000000E+00 0.00000000E+00 0.61586489E+03 0.61586497E+03 0.32000000E+00 0.0000E+00 0.9000E+01
        2 -1    0    0  502    0 0.00000000E+00 0.00000000E+00 -.16635992E+04 0.16635992E+04 0.32000000E+00 0.0000E+00 0.9000E+01
       25  1    1    2    0    0 0.46082462E+03 -.15321221E+03 -.68338475E+03 0.84762788E+03 0.12500000E+03 0.0000E+00 0.9000E+01
        2  1    1    2  501    0 -.13301454E+03 0.15868561E+03 0.48178953E+03 0.52439989E+03 0.32000000E+00 0.0000E+00 0.9000E+01
        2  1    1    2  502    0 -.32781008E+03 -.54734028E+01 -.84613909E+03 0.90743643E+03 0.32000000E+00 0.0000E+00 0.9000E+01
#aMCatNLO 1  0  0  2  5 0.18903945D+02 0.00000000D+00  -5  6  0 0.00000000D+00 0.00000000D+00 0.00000000D+00 0.00000000D+00 0.00000000D+00
  <mgrwgt>
 -.5208869291D-02   11    2    0
 0.101220179199074D+04 0.000000000000000D+00 0.000000000000000D+00 0.101220179199074D+04
 0.101220179199074D+04 0.000000000000000D+00 0.000000000000000D+00 -.101220179199074D+04
 0.600733061718457D+03 0.460861104652721D+03 -.153211160923562D+03 -.330739465181220D+03
 0.839784738701467D+03 -.133008683912899D+03 0.158678626790795D+03 0.813860056004371D+03
 0.583885783561546D+03 -.327852420739822D+03 -.546746586723302D+01 -.483120590823151D+03
 0.000000000000000D+00 -.000000000000000D+00 0.000000000000000D+00 -.000000000000000D+00
 0.101312562216740D+04 0.000000000000000D+00 0.000000000000000D+00 0.101312562216740D+04
 0.111380305431093D+04 0.000000000000000D+00 0.000000000000000D+00 -.111380305431093D+04
 0.605006962680546D+03 0.465242426342377D+03 -.156746023217936D+03 -.330739465181220D+03
 0.837924283283734D+03 -.126912359018468D+03 0.153760095231139D+03 0.813860056004371D+03
 0.581560598910145D+03 -.323617514864321D+03 -.888419948322703D+01 -.483120590823151D+03
 0.102436831603904D+03 -.147125524595889D+02 0.118701274700233D+02 -.100677432143534D+03
0.989045909412D-05 0.000000000000D+00 0.000000000000D+00 0.611407036044D-06 0.000000000000D+00  6 2 2 25 2 2 21 0 0.94748453D-01 0.25593835D+00 0.26855127D+06 0.26855127D+06 0.26855127D+06 0.10881281D+01  1  2  2  2  6  2        2 0.819329062158D-04 0.100000000000D+01
0.972640906709D-06 0.000000000000D+00 -.379819671391D-07 0.611407036044D-06 0.000000000000D+00  6 2 2 25 2 2 21 2 0.94748453D-01 0.25593835D+00 0.26855127D+06 0.26855127D+06 0.26855127D+06 0.10881281D+01  1  2  3  2  6  2        2 0.954013450899D-05 0.100000000000D+01
-.719041550923D-05 0.000000000000D+00 0.000000000000D+00 0.611407036044D-06 0.000000000000D+00  6 2 2 25 2 2 21 2 0.94748453D-01 0.25593835D+00 0.26855127D+06 0.26855127D+06 0.26855127D+06 0.10881281D+01  1  2 15  2  6  2        2 -.705270883225D-04 0.100000000000D+01
0.103464189213D-02 0.000000000000D+00 0.000000000000D+00 0.611407036044D-06 0.000000000000D+00  6 2 2 25 2 2 21 2 0.94748453D-01 0.28405383D+00 0.27489884D+06 0.27489884D+06 0.27489884D+06 0.10873707D+01  1  2 12  2  6  2        2 0.805192128121D-02 0.100000000000D+01
0.262427142407D-08 0.000000000000D+00 0.000000000000D+00 0.611407036044D-06 0.000000000000D+00  6 2 2 25 2 2 21 2 0.94748453D-01 0.28176600D+00 0.27489884D+06 0.27489884D+06 0.27489884D+06 0.10873707D+01  1  2 12  2  6  2        2 0.208069747838D-07 0.100000000000D+01
-.157523197733D-02 0.000000000000D+00 0.000000000000D+00 0.611407036044D-06 0.000000000000D+00  6 2 2 25 2 2 21 2 0.94748453D-01 0.25593835D+00 0.26855127D+06 0.26855127D+06 0.26855127D+06 0.10881281D+01  1  2  4  2  6  2        2 -.154506404604D-01 0.100000000000D+01
-.118826647938D-02 0.000000000000D+00 -.214943967630D-04 0.611407036044D-06 0.000000000000D+00  6 2 2 25 2 2 21 2 0.94748453D-01 0.28171727D+00 0.26855127D+06 0.26855127D+06 0.26855127D+06 0.10881281D+01  1  2  5  2  6  2        2 -.945037515698D-02 0.100000000000D+01
0.118496703321D-02 0.000000000000D+00 0.213957962734D-04 0.611407036044D-06 0.000000000000D+00  6 2 2 25 2 2 21 2 0.94748453D-01 0.25593835D+00 0.26855127D+06 0.26855127D+06 0.26855127D+06 0.10881281D+01  1  2  6  2  6  2        2 0.116227323029D-01 0.100000000000D+01
0.175450377927D-04 0.000000000000D+00 0.000000000000D+00 0.611407036044D-06 0.000000000000D+00  6 2 21 25 2 2 -2 2 0.94748453D-01 0.28405383D+00 0.27489884D+06 0.27489884D+06 0.27489884D+06 0.10873707D+01  1  2 12  5  6  2        2 0.321634400600D-04 0.100000000000D+01
0.415028516215D-10 0.000000000000D+00 0.000000000000D+00 0.611407036044D-06 0.000000000000D+00  6 2 21 25 2 2 -2 2 0.94748453D-01 0.28176600D+00 0.27489884D+06 0.27489884D+06 0.27489884D+06 0.10873707D+01  1  2 12  5  6  2        2 0.787959804420D-10 0.100000000000D+01
-.186839277607D-04 0.000000000000D+00 -.336888866747D-06 0.611407036044D-06 0.000000000000D+00  6 2 21 25 2 2 -2 2 0.94748453D-01 0.28171727D+00 0.26855127D+06 0.26855127D+06 0.26855127D+06 0.10881281D+01  1  2  5  5  6  2        2 -.356375360140D-04 0.100000000000D+01
  </mgrwgt>
  </event>
  <event>
  5     66 0.18204334E-05 0.53843365E+02 0.75467711E-02 0.75636379E-01
        2 -1    0    0  501    0 0.00000000E+00 0.00000000E+00 0.32575650E+04 0.32575650E+04 0.32000000E+00 0.0000E+00 0.9000E+01
        2 -1    0    0  502    0 0.00000000E+00 0.00000000E+00 -.94053295E+03 0.94053301E+03 0.32000000E+00 0.0000E+00 0.9000E+01
       25  1    1    2    0    0 0.36731979E+03 -.35869922E+03 0.22875845E+02 0.52890194E+03 0.12500000E+03 0.0000E+00 0.9000E+01
        2  1    1    2  501    0 -.12407224E+02 0.52395220E+02 0.29014777E+04 0.29019773E+04 0.32000000E+00 0.0000E+00 0.9000E+01
        2  1    1    2  502    0 -.35491256E+03 0.30630400E+03 -.60732154E+03 0.76721876E+03 0.32000000E+00 0.0000E+00 0.9000E+01
#aMCatNLO 1  0  0  2  4 0.78140870D+02 0.00000000D+00  -5  6  0 0.00000000D+00 0.00000000D+00 0.00000000D+00 0.00000000D+00 0.00000000D+00
  <mgrwgt>
 0.8155022599D-02    5    2    0
 0.175038491863319D+04 0.000000000000000D+00 0.000000000000000D+00 0.175038491863319D+04
 0.175038491863319D+04 0.000000000000000D+00 0.000000000000000D+00 -.175038491863319D+04
 0.619126927747624D+03 0.367342986750701D+03 -.358719344520035D+03 -.322603029456332D+03
 0.155962358413046D+04 -.124070304065744D+02 0.523944041116781D+02 0.155869388148867D+04
 0.132201932538830D+04 -.354935956344127D+03 0.306324940408356D+03 -.123609085203233D+04
 0.000000000000000D+00 -.000000000000000D+00 0.000000000000000D+00 -.000000000000000D+00
 0.335802095957368D+04 0.000000000000000D+00 0.000000000000000D+00 0.335802095957368D+04
 0.899176114650949D+04 0.000000000000000D+00 0.000000000000000D+00 -.899176114650949D+04
 0.155241829862955D+04 0.110976112817790D+04 -.102894853986522D+04 -.322603029456332D+03
 0.234772061437196D+04 0.132345426436743D+04 -.115357456503016D+04 0.155869388148867D+04
 0.148592692543227D+04 0.605057973987028D+03 -.560324086008521D+03 -.123609085203233D+04
 0.696371626764939D+04 -.303827336653236D+04 0.274284719090389D+04 -.563374018693581D+04
0.215741755911D-01 0.000000000000D+00 0.000000000000D+00 0.110994468792D-03 0.000000000000D+00  6 2 2 25 2 2 21 0 0.50116385D+00 0.14469738D+00 0.27621539D+06 0.27621539D+06 0.27621539D+06 0.10872160D+01  1  2  2  2  6  2        2 0.121865783691D-01 0.100000000000D+01
0.107480319049D-01 0.000000000000D+00 -.828505148808D-04 0.110994468792D-03 0.000000000000D+00  6 2 2 25 2 2 21 2 0.50116385D+00 0.14469738D+00 0.27621539D+06 0.27621539D+06 0.27621539D+06 0.10872160D+01  1  2  3  2  6  2        2 0.717642512114D-02 0.100000000000D+01
-.167862754436D-01 0.000000000000D+00 0.000000000000D+00 0.110994468792D-03 0.000000000000D+00  6 2 2 25 2 2 21 2 0.50116385D+00 0.14469738D+00 0.27621539D+06 0.27621539D+06 0.27621539D+06 0.10872160D+01  1  2 15  2  6  2        2 -.112081402297D-01 0.100000000000D+01
0.591650402217D-01 0.000000000000D+00 -.192923242367D-01 0.110994468792D-03 0.000000000000D+00  6 2 2 25 2 2 21 2 0.50116385D+00 0.93992371D+00 0.27621539D+06 0.27621539D+06 0.27621539D+06 0.10872160D+01  1  2  5  2  6  2        2 0.159265613373D-06 0.100000000000D+01
0.120259082311D-01 0.000000000000D+00 -.442164405274D-02 0.110994468792D-03 0.000000000000D+00  6 2 21 25 2 2 -2 2 0.50116385D+00 0.93992371D+00 0.27621539D+06 0.27621539D+06 0.27621539D+06 0.10872160D+01  1  2  5  5  6  2        2 0.726323540873D-10 0.100000000000D+01
  </mgrwgt>
  </event>
  <event>
  5     66 0.18204334E-05 0.10172870E+03 0.75467711E-02 0.92241435E-01
        2 -1    0    0  501    0 0.00000000E+00 0.00000000E+00 0.13288710E+04 0.13288710E+04 0.32000000E+00 0.0000E+00 0.9000E+01
        2 -1    0    0  502    0 0.00000000E+00 0.00000000E+00 -.10543768E+04 0.10543769E+04 0.32000000E+00 0.0000E+00 0.9000E+01
       25  1    1    2    0    0 -.33924918E+03 -.33507282E+03 -.35550785E+03 0.60776199E+03 0.12500000E+03 0.0000E+00 0.9000E+01
        2  1    1    2  501    0 0.43944976E+03 0.31748049E+03 0.11363347E+04 0.12590340E+04 0.32000000E+00 0.0000E+00 0.9000E+01
        2  1    1    2  502    0 -.10020058E+03 0.17592334E+02 -.50633272E+03 0.51645191E+03 0.32000000E+00 0.0000E+00 0.9000E+01
#aMCatNLO 1  0  0  1  4 0.88179606D+02 0.00000000D+00  -5  6  0 0.00000000D+00 0.00000000D+00 0.00000000D+00 0.00000000D+00 0.00000000D+00
  <mgrwgt>
 0.6127852981D-02   11    2    0
 0.118369375744313D+04 0.000000000000000D+00 0.000000000000000D+00 0.118369375744313D+04
 0.118369375744313D+04 0.000000000000000D+00 0.000000000000000D+00 -.118369375744313D+04
 0.653077063200990D+03 -.339255155563654D+03 -.335072705825107D+03 -.428388692327135D+03
 0.113571723620591D+04 0.439451381749590D+03 0.317481662077735D+03 0.997968695870729D+03
 0.578593215479361D+03 -.100196226185937D+03 0.175910437473724D+02 -.569580003543594D+03
 0.000000000000000D+00 0.000000000000000D+00 -.000000000000000D+00 0.000000000000000D+00
 0.165005177294257D+04 0.000000000000000D+00 0.000000000000000D+00 0.165005177294257D+04
 0.118869022286032D+04 0.000000000000000D+00 0.000000000000000D+00 -.118869022286032D+04
 0.641345381399994D+03 -.339813469925926D+03 -.310980436983184D+03 -.428388692327135D+03
 0.114794784990883D+04 0.438466384138095D+03 0.359986080499302D+03 0.997968695870729D+03
 0.579735955627883D+03 -.100695840369209D+03 0.391502942951020D+02 -.569580003543594D+03
 0.469712808866185D+03 0.204292615704028D+01 -.881559378112202D+02 0.461361550082256D+03
0.798053298214D-04 0.000000000000D+00 0.000000000000D+00 0.208528524817D-05 0.000000000000D+00  6 2 2 25 2 2 21 0 0.20444170D+00 0.16221183D+00 0.32308328D+06 0.32308328D+06 0.32308328D+06 0.10821781D+01  1  2  2  1  6  1        2 0.497373420163D-03 0.100000000000D+01
0.136817849010D-04 0.000000000000D+00 -.306473479740D-06 0.208528524817D-05 0.000000000000D+00  6 2 2 25 2 2 21 2 0.20444170D+00 0.16221183D+00 0.32308328D+06 0.32308328D+06 0.32308328D+06 0.10821781D+01  1  2  3  1  6  1        2 0.998598470871D-04 0.100000000000D+01
-.538391176044D-04 0.000000000000D+00 0.000000000000D+00 0.208528524817D-05 0.000000000000D+00  6 2 2 25 2 2 21 2 0.20444170D+00 0.16221183D+00 0.32308328D+06 0.32308328D+06 0.32308328D+06 0.10821781D+01  1  2 15  1  6  1        2 -.392957943002D-03 0.100000000000D+01
0.224858382881D-02 0.000000000000D+00 0.000000000000D+00 0.208528524817D-05 0.000000000000D+00  6 2 2 25 2 2 21 2 0.29318296D+00 0.16221183D+00 0.38490961D+06 0.38490961D+06 0.38490961D+06 0.10766337D+01  1  2 12  1  6  1        2 0.773526426884D-02 0.100000000000D+01
0.966004303386D-09 0.000000000000D+00 0.000000000000D+00 0.208528524817D-05 0.000000000000D+00  6 2 2 25 2 2 21 2 0.28582394D+00 0.16221183D+00 0.38490961D+06 0.38490961D+06 0.38490961D+06 0.10766337D+01  1  2 12  1  6  1        2 0.352983093644D-08 0.100000000000D+01
-.135567621327D-02 0.000000000000D+00 0.000000000000D+00 0.208528524817D-05 0.000000000000D+00  6 2 2 25 2 2 21 2 0.20444170D+00 0.16221183D+00 0.32308328D+06 0.32308328D+06 0.32308328D+06 0.10821781D+01  1  2  4  1  6  1        2 -.989473378925D-02 0.100000000000D+01
-.250944728898D-02 0.000000000000D+00 -.617603703629D-04 0.208528524817D-05 0.000000000000D+00  6 2 2 25 2 2 21 2 0.28535479D+00 0.16221183D+00 0.32308328D+06 0.32308328D+06 0.32308328D+06 0.10821781D+01  1  2  5  1  6  1        2 -.940926879455D-02 0.100000000000D+01
0.239872621285D-02 0.000000000000D+00 0.584790170521D-04 0.208528524817D-05 0.000000000000D+00  6 2 2 25 2 2 21 2 0.20444170D+00 0.16221183D+00 0.32308328D+06 0.32308328D+06 0.32308328D+06 0.10821781D+01  1  2  6  1  6  1        2 0.175076888398D-01 0.100000000000D+01
0.992347660993D-04 0.000000000000D+00 0.000000000000D+00 0.208528524817D-05 0.000000000000D+00  6 21 2 25 2 2 -2 2 0.29318296D+00 0.16221183D+00 0.38490961D+06 0.38490961D+06 0.38490961D+06 0.10766337D+01  1  2 12  4  6  1        2 0.740564283083D-04 0.100000000000D+01
0.404411574369D-10 0.000000000000D+00 0.000000000000D+00 0.208528524817D-05 0.000000000000D+00  6 21 2 25 2 2 -2 2 0.28582394D+00 0.16221183D+00 0.38490961D+06 0.38490961D+06 0.38490961D+06 0.10766337D+01  1  2 12  4  6  1        2 0.337881643823D-10 0.100000000000D+01
-.103058857320D-03 0.000000000000D+00 -.257642159216D-05 0.208528524817D-05 0.000000000000D+00  6 21 2 25 2 2 -2 2 0.28535479D+00 0.16221183D+00 0.32308328D+06 0.32308328D+06 0.32308328D+06 0.10821781D+01  1  2  5  4  6  1        2 -.894328603892D-04 0.100000000000D+01
  </mgrwgt>
  </event>
  <event>
  5     66 0.18204334E-05 0.51342029E+02 0.75467711E-02 0.89579285E-01
        2 -1    0    0  501    0 0.00000000E+00 0.00000000E+00 0.15382134E+04 0.15382134E+04 0.32000000E+00 0.0000E+00 0.9000E+01
        2 -1    0    0  502    0 0.00000000E+00 0.00000000E+00 -.96416002E+03 0.96416008E+03 0.32000000E+00 0.0000E+00 0.9000E+01
       25  1    1    2    0    0 -.78537226E+03 0.16921819E+02 -.49376164E+02 0.79696859E+03 0.12500000E+03 0.0000E+00 0.9000E+01
        2  1    1    2  501    0 0.75200000E+03 -.55932599E+02 0.10405932E+04 0.12850941E+04 0.32000000E+00 0.0000E+00 0.9000E+01
        2  1    1    2  502    0 0.33372254E+02 0.39010780E+02 -.41716368E+03 0.42031083E+03 0.32000000E+00 0.0000E+00 0.9000E+01
#aMCatNLO 1  0  0  5  2 0.97563616D+00 0.00000000D+00  -5  6  0 0.00000000D+00 0.00000000D+00 0.00000000D+00 0.00000000D+00 0.00000000D+00
  <mgrwgt>
 0.1429230529D-02    9    2    0
 0.121781935112217D+04 0.000000000000000D+00 0.000000000000000D+00 0.121781935112217D+04
 0.121781935112217D+04 -.000000000000000D+00 -.000000000000000D+00 -.121781935112217D+04
 0.830410545297605D+03 -.785359879586126D+03 0.169175149384374D+02 -.238495976834496D+03
 0.107502610296823D+04 0.751984480837758D+03 -.559314448277055D+02 0.766206327382980D+03
 0.530202053978500D+03 0.333753987483677D+02 0.390139298892684D+02 -.527710350548484D+03
 0.000000000000000D+00 0.000000000000000D+00 0.000000000000000D+00 0.000000000000000D+00
 0.121781935112217D+04 0.000000000000000D+00 0.000000000000000D+00 0.121781935112217D+04
 0.121781935112217D+04 -.000000000000000D+00 -.000000000000000D+00 -.121781935112217D+04
 0.830411715092973D+03 -.785359556364398D+03 0.169178927661279D+02 -.238501087408681D+03
 0.107502165479575D+04 0.751984899270343D+03 -.559309557039756D+02 0.766199711395928D+03
 0.496448074861474D+03 0.307033644369218D+02 0.357278871681737D+02 -.494207964853274D+03
 0.337572574941400D+02 0.267129265713345D+01 0.328517576967442D+01 -.334906591339729D+02
0.672515649172D-06 0.000000000000D+00 0.000000000000D+00 0.138445474217D-05 0.000000000000D+00  6 2 2 25 2 2 21 0 0.23664822D+00 0.14833232D+00 0.64066333D+06 0.64066333D+06 0.64066333D+06 0.10609838D+01  1  2  2  3  6  5        2 0.350681875022D-05 0.100000000000D+01
0.299676943084D-06 0.000000000000D+00 -.258263717026D-08 0.138445474217D-05 0.000000000000D+00  6 2 2 25 2 2 21 2 0.23664822D+00 0.14833232D+00 0.64066333D+06 0.64066333D+06 0.64066333D+06 0.10609838D+01  1  2  3  3  6  5        2 0.175906432202D-05 0.100000000000D+01
-.433555915334D-06 0.000000000000D+00 0.000000000000D+00 0.138445474217D-05 0.000000000000D+00  6 2 2 25 2 2 21 2 0.23664822D+00 0.14833232D+00 0.64066333D+06 0.64066333D+06 0.64066333D+06 0.10609838D+01  1  2 15  3  6  5        2 -.254491631694D-05 0.100000000000D+01
0.558281875781D-08 0.000000000000D+00 0.000000000000D+00 0.138445474217D-05 0.000000000000D+00  6 2 2 25 2 2 21 2 0.23664822D+00 0.14833232D+00 0.64066362D+06 0.64066362D+06 0.64066362D+06 0.10609837D+01  1  2 12  3  6  5        2 0.327704116493D-07 0.100000000000D+01
0.374465342027D-14 0.000000000000D+00 0.000000000000D+00 0.138445474217D-05 0.000000000000D+00  6 2 2 25 2 2 21 2 0.23664822D+00 0.14833232D+00 0.64066362D+06 0.64066362D+06 0.64066362D+06 0.10609837D+01  1  2 12  3  6  5        2 0.219806229415D-13 0.100000000000D+01
-.356178842612D-02 0.000000000000D+00 0.000000000000D+00 0.138445474217D-05 0.000000000000D+00  6 2 2 25 2 2 21 2 0.23664822D+00 0.14833232D+00 0.64066333D+06 0.64066333D+06 0.64066333D+06 0.10609838D+01  1  2  4  3  6  5        2 -.209072305613D-01 0.100000000000D+01
-.576499135015D-02 0.000000000000D+00 0.000000000000D+00 0.138445474217D-05 0.000000000000D+00  6 2 2 25 2 2 21 2 0.23664822D+00 0.14833232D+00 0.64066333D+06 0.64066333D+06 0.64066333D+06 0.10609838D+01  1  2  5  3  6  5        2 -.338397425455D-01 0.100000000000D+01
0.619784186864D-02 0.000000000000D+00 -.000000000000D+00 0.138445474217D-05 0.000000000000D+00  6 2 2 25 2 2 21 2 0.23664822D+00 0.14833232D+00 0.64066333D+06 0.64066333D+06 0.64066333D+06 0.10609838D+01  1  2  6  3  6  5        2 0.363805182756D-01 0.100000000000D+01
0.337195489400D-02 0.000000000000D+00 0.000000000000D+00 0.138445474217D-05 0.450390942221D-05  6 2 2 25 2 2 21 2 0.23664822D+00 0.14833232D+00 0.64066362D+06 0.64066362D+06 0.64066362D+06 0.10609837D+01  1  2 11  3  6  5        2 0.197929316234D-01 0.100000000000D+01
  </mgrwgt>
  </event>
  <event>
  5     66 0.18204334E-05 0.70247618E+02 0.75467711E-02 0.91866272E-01
        2 -1    0    0  501    0 0.00000000E+00 0.00000000E+00 0.81687663E+03 0.81687670E+03 0.32000000E+00 0.0000E+00 0.9000E+01
        2 -1    0    0  502    0 -.00000000E+00 -.00000000E+00 -.13580850E+04 0.13580851E+04 0.32000000E+00 0.0000E+00 0.9000E+01
       25  1    1    2    0    0 0.32437664E+03 0.46757274E+03 -.12413267E+03 0.59571671E+03 0.12500000E+03 0.0000E+00 0.9000E+01
        2  1    1    2  501    0 -.28084021E+03 -.52269292E+03 0.42777135E+03 0.73148311E+03 0.32000000E+00 0.0000E+00 0.9000E+01
        2  1    1    2  502    0 -.43536436E+02 0.55120182E+02 -.84484705E+03 0.84776194E+03 0.32000000E+00 0.0000E+00 0.9000E+01
#aMCatNLO 1  0  0  5  2 0.49959385D+02 0.00000000D+00  -5  6  0 0.00000000D+00 0.00000000D+00 0.00000000D+00 0.00000000D+00 0.00000000D+00
  <mgrwgt>
 0.2527423136D-01    3    2    0
 0.105327490476774D+04 0.000000000000000D+00 0.000000000000000D+00 0.105327490476774D+04
 0.105327490476774D+04 -.000000000000000D+00 -.000000000000000D+00 -.105327490476774D+04
 0.583146763479701D+03 0.324368676182587D+03 0.467542628062222D+03 0.249800042649426D+02
 0.865099749402051D+03 -.280827048073402D+03 -.522668433202860D+03 0.629564495837510D+03
 0.658303296653733D+03 -.435416281091850D+02 0.551258051406381D+02 -.654544500102453D+03
 0.000000000000000D+00 0.000000000000000D+00 0.000000000000000D+00 0.000000000000000D+00
 0.105327490476774D+04 0.000000000000000D+00 0.000000000000000D+00 0.105327490476774D+04
 0.105327490476774D+04 -.000000000000000D+00 -.000000000000000D+00 -.105327490476774D+04
 0.585169427270275D+03 0.320646616814960D+03 0.472254935073508D+03 -.309722785028531D+02
 0.806248905087013D+03 -.286151684473433D+03 -.515927186231185D+03 0.549521290701821D+03
 0.102297035353957D+03 -.424903089442810D+02 -.196856623158876D+02 0.909490614971547D+02
 0.612834441824241D+03 0.799537660275406D+01 0.633579134735650D+02 -.609498073696123D+03
0.472028363564D-02 0.000000000000D+00 0.000000000000D+00 0.191857641028D-05 0.000000000000D+00  6 2 2 25 2 2 21 0 0.12567334D+00 0.20893616D+00 0.38824978D+06 0.38824978D+06 0.38824978D+06 0.10763623D+01  1  2  2  3  6  5        2 0.399261858057D-01 0.100000000000D+01
0.166025887998D-02 0.000000000000D+00 -.181271320401D-04 0.191857641028D-05 0.000000000000D+00  6 2 2 25 2 2 21 2 0.12567334D+00 0.20893616D+00 0.38824978D+06 0.38824978D+06 0.38824978D+06 0.10763623D+01  1  2  3  3  6  5        2 0.162698115230D-01 0.100000000000D+01
-.315542294159D-02 0.000000000000D+00 0.000000000000D+00 0.191857641028D-05 0.000000000000D+00  6 2 2 25 2 2 21 2 0.12567334D+00 0.20893616D+00 0.38824978D+06 0.38824978D+06 0.38824978D+06 0.10763623D+01  1  2 15  3  6  5        2 -.309217659692D-01 0.100000000000D+01
  </mgrwgt>
  </event>
  <event>
  5     66 0.18204334E-05 0.13070427E+02 0.75467711E-02 0.92148250E-01
        2 -1    0    0  501    0 0.00000000E+00 0.00000000E+00 0.24347896E+04 0.24347896E+04 0.32000000E+00 0.0000E+00 0.9000E+01
        2 -1    0    0  502    0 0.00000000E+00 0.00000000E+00 -.24609490E+04 0.24609490E+04 0.32000000E+00 0.0000E+00 0.9000E+01
       25  1    1    2    0    0 0.56379152E+03 0.10235655E+03 0.32098665E+03 0.66857697E+03 0.12500000E+03 0.0000E+00 0.9000E+01
        2  1    1    2  501    0 0.20245452E+01 -.12913115E+02 0.19041164E+04 0.19041613E+04 0.32000000E+00 0.0000E+00 0.9000E+01
        2  1    1    2  502    0 -.56581606E+03 -.89443431E+02 -.22512625E+04 0.23230004E+04 0.32000000E+00 0.0000E+00 0.9000E+01
#aMCatNLO 1  0  0  1  2 0.54274617D+03 0.00000000D+00  -5  6  0 0.00000000D+00 0.00000000D+00 0.00000000D+00 0.00000000D+00 0.00000000D+00
  <mgrwgt>
 0.5058734981D-01    7    2    0
 0.244783437405517D+04 0.000000000000000D+00 0.000000000000000D+00 0.244783437405517D+04
 0.244783437405517D+04 0.000000000000000D+00 0.000000000000000D+00 -.244783437405517D+04
 0.670359756446967D+03 0.563825290546620D+03 0.102361531233569D+03 0.324623415247845D+03
 0.191429969783232D+04 0.202447841174425D+01 -.129126893250653D+02 0.191425507627967D+04
 0.231100929383106D+04 -.565849768958364D+03 -.894488419085034D+02 -.223887849152752D+04
 0.000000000000000D+00 -.000000000000000D+00 0.000000000000000D+00 0.000000000000000D+00
 0.271781749854380D+04 0.000000000000000D+00 0.000000000000000D+00 0.271781749854380D+04
 0.245382604917817D+04 0.000000000000000D+00 0.000000000000000D+00 -.245382604917817D+04
 0.678717261978659D+03 0.574232902776954D+03 0.995406115562141D+02 0.324623415247845D+03
 0.191462955591318D+04 0.315632003572648D+02 -.209189793497033D+02 0.191425507627967D+04
 0.230294751516291D+04 -.530254860246955D+03 -.990966243369259D+02 -.223887849152752D+04
 0.275349214667221D+03 -.755412428872637D+02 0.204749921304150D+02 0.263991449365623D+03
0.137959081087D-01 0.000000000000D+00 0.000000000000D+00 0.639587658894D-03 0.000000000000D+00  6 2 2 25 2 2 21 0 0.37458302D+00 0.37860754D+00 0.34366752D+06 0.34366752D+06 0.34366752D+06 0.10802123D+01  1  2  2  1  6  1        2 0.340030970448D-02 0.100000000000D+01
0.162607253143D-01 0.000000000000D+00 -.529799196834D-04 0.639587658894D-03 0.000000000000D+00  6 2 2 25 2 2 21 2 0.37458302D+00 0.37860754D+00 0.34366752D+06 0.34366752D+06 0.34366752D+06 0.10802123D+01  1  2  3  1  6  1        2 0.467655835160D-02 0.100000000000D+01
-.982334124645D-02 0.000000000000D+00 0.000000000000D+00 0.639587658894D-03 0.000000000000D+00  6 2 2 25 2 2 21 2 0.37458302D+00 0.37860754D+00 0.34366752D+06 0.34366752D+06 0.34366752D+06 0.10802123D+01  1  2 15  1  6  1        2 -.282517708520D-02 0.100000000000D+01
-.183140270413D-03 0.000000000000D+00 0.000000000000D+00 0.639587658894D-03 0.000000000000D+00  6 2 2 25 2 2 21 2 0.37458302D+00 0.37860754D+00 0.34366752D+06 0.34366752D+06 0.34366752D+06 0.10802123D+01  1  2  4  1  6  1        2 -.526708461377D-04 0.100000000000D+01
-.518691603280D+00 0.000000000000D+00 -.226695317604D-01 0.639587658894D-03 0.000000000000D+00  6 2 2 25 2 2 21 2 0.41618324D+00 0.37860754D+00 0.34366752D+06 0.34366752D+06 0.34366752D+06 0.10802123D+01  1  2  5  1  6  1        2 -.103519942646D+00 0.100000000000D+01
0.518327161141D+00 0.000000000000D+00 0.225444000726D-01 0.639587658894D-03 0.000000000000D+00  6 2 2 25 2 2 21 2 0.37458302D+00 0.37860754D+00 0.34366752D+06 0.34366752D+06 0.34366752D+06 0.10802123D+01  1  2  6  1  6  1        2 0.149070054838D+00 0.100000000000D+01
-.872621656510D-02 0.000000000000D+00 -.384980050698D-03 0.639587658894D-03 0.000000000000D+00  6 21 2 25 2 2 -2 2 0.41618324D+00 0.37860754D+00 0.34366752D+06 0.34366752D+06 0.34366752D+06 0.10802123D+01  1  2  5  4  6  1        2 -.161782501997D-03 0.100000000000D+01
  </mgrwgt>
  </event>
  <event>
  5     66 0.18204334E-05 0.54128735E+02 0.75467711E-02 0.94036638E-01
        2 -1    0    0  501    0 0.00000000E+00 0.00000000E+00 0.54836078E+03 0.54836088E+03 0.32000000E+00 0.0000E+00 0.9000E+01
        2 -1    0    0  502    0 -.00000000E+00 -.00000000E+00 -.27559073E+04 0.27559073E+04 0.32000000E+00 0.0000E+00 0.9000E+01
       25  1    1    2    0    0 0.28940664E+03 -.38247210E+03 -.15713356E+03 0.51995872E+03 0.12500000E+03 0.0000E+00 0.9000E+01
        2  1    1    2  501    0 0.52642037E+02 0.12632535E+02 0.33852871E+03 0.34283021E+03 0.32000000E+00 0.0000E+00 0.9000E+01
        2  1    1    2  502    0 -.34204868E+03 0.36983957E+03 -.23889416E+04 0.24414792E+04 0.32000000E+00 0.0000E+00 0.9000E+01
#aMCatNLO 1  0  0  5  1 0.30399893D+03 0.00000000D+00  -5  6  0 0.00000000D+00 0.00000000D+00 0.00000000D+00 0.00000000D+00 0.00000000D+00
  <mgrwgt>
 0.8142574094D-02    4    2    0
 0.122932161820439D+04 0.000000000000000D+00 0.000000000000000D+00 0.122932161820439D+04
 0.122932161820439D+04 -.000000000000000D+00 -.000000000000000D+00 -.122932161820439D+04
 0.557804784886554D+03 0.289453650267251D+03 -.382515216990688D+03 0.255773085292150D+03
 0.764588188107562D+03 0.526344475185533D+02 0.126307135825314D+02 0.762669769561124D+03
 0.113625026341466D+04 -.342088097785804D+03 0.369884503408156D+03 -.101844285485327D+04
 0.000000000000000D+00 0.000000000000000D+00 0.000000000000000D+00 0.000000000000000D+00
 0.122932161820439D+04 0.000000000000000D+00 0.000000000000000D+00 0.122932161820439D+04
 0.122932161820439D+04 -.000000000000000D+00 -.000000000000000D+00 -.122932161820439D+04
 0.454247145053863D+03 0.246828644399890D+03 -.336426711631784D+03 0.128872637879116D+03
 0.596684106313052D+03 -.469881554846138D+01 0.746225971808620D+02 0.591980837400189D+03
 0.101857074346686D+04 -.614873184181182D+03 0.373577420995798D+03 -.721011260205863D+03
 0.389141241575010D+03 0.372743355329753D+03 -.111773306544876D+03 0.157784926556474D+00
0.470828653250D-02 0.000000000000D+00 0.000000000000D+00 0.193547816207D-04 0.000000000000D+00  6 2 2 25 2 2 21 0 0.84363206D-01 0.42398574D+00 0.27755027D+06 0.27755027D+06 0.27755027D+06 0.10870599D+01  1  2  2  3  6  5        2 0.108201272536D-01 0.100000000000D+01
0.181913908171D-02 0.000000000000D+00 -.180810600051D-04 0.193547816207D-04 0.000000000000D+00  6 2 2 25 2 2 21 2 0.84363206D-01 0.42398574D+00 0.27755027D+06 0.27755027D+06 0.27755027D+06 0.10870599D+01  1  2  3  3  6  5        2 0.494017514689D-02 0.100000000000D+01
-.279122761058D-02 0.000000000000D+00 0.000000000000D+00 0.193547816207D-04 0.000000000000D+00  6 2 2 25 2 2 21 2 0.84363206D-01 0.42398574D+00 0.27755027D+06 0.27755027D+06 0.27755027D+06 0.10870599D+01  1  2 15  3  6  5        2 -.758004344457D-02 0.100000000000D+01
-.138768368443D-04 0.000000000000D+00 0.000000000000D+00 0.193547816207D-04 0.000000000000D+00  6 2 2 25 2 2 21 2 0.84363206D-01 0.42398574D+00 0.27755027D+06 0.27755027D+06 0.27755027D+06 0.10870599D+01  1  2  4  3  6  5        2 -.376848615836D-04 0.100000000000D+01
  </mgrwgt>
  </event>
  <event>
  6     66 0.18204334E-05 0.11291889E+03 0.75467711E-02 0.95085475E-01
        2 -1    0    0  501    0 0.00000000E+00 0.00000000E+00 0.15749287E+04 0.15749287E+04 0.32000000E+00 0.0000E+00 0.9000E+01
        2 -1    0    0  503    0 0.00000000E+00 0.00000000E+00 -.20596626E+03 0.20596651E+03 0.32000000E+00 0.0000E+00 0.9000E+01
       25  1    1    2    0    0 -.33399166E+03 0.32261489E+03 0.73975994E+03 0.88232679E+03 0.12500000E+03 0.0000E+00 0.9000E+01
        2  1    1    2  501    0 0.11070961E+03 -.11242770E+03 0.53833701E+03 0.56098436E+03 0.32000000E+00 0.0000E+00 0.9000E+01
        2  1    1    2  502    0 0.10325878E+03 -.16273635E+03 0.77863064E+02 0.20786596E+03 0.32000000E+00 0.0000E+00 0.9000E+01
       21  1    1    2  503  502 0.12002327E+03 -.47450831E+02 0.13002412E+02 0.12971812E+03 0.75000000E+00 0.0000E+00 0.9000E+01
#aMCatNLO 2  0  0  2  1 0.41031862D+03 0.00000000D+00  -5  6  0 0.00000000D+00 0.00000000D+00 0.00000000D+00 0.00000000D+00 0.00000000D+00
  <mgrwgt>
 0.5288186128D-02    1    2    0
 0.466663983942001D+03 0.000000000000000D+00 0.000000000000000D+00 0.466663983942001D+03
 0.466663983942001D+03 0.000000000000000D+00 0.000000000000000D+00 -.466663983942001D+03
 0.426860297817725D+03 -.275838809629089D+03 0.299633705233306D+03 0.267825996423968D+02
 0.230160244538442D+03 0.138698394394994D+03 -.123451976077119D+03 0.136000379267488D+03
 0.276307425527835D+03 0.137140415234094D+03 -.176181729156187D+03 -.162782978909885D+03
 0.000000000000000D+00 0.000000000000000D+00 -.000000000000000D+00 -.000000000000000D+00
 0.493462880025658D+03 0.000000000000000D+00 0.000000000000000D+00 0.493462880025658D+03
 0.657357576193547D+03 0.000000000000000D+00 0.000000000000000D+00 -.657357576193547D+03
 0.481627764072491D+03 -.333976661794132D+03 0.322618326910779D+03 0.267825996423968D+02
 0.208237815326929D+03 0.110643516556682D+03 -.112360566103961D+03 0.136000379267488D+03
 0.252343665724574D+03 0.103309878235981D+03 -.162806930034953D+03 -.162782978909885D+03
 0.208611211095211D+03 0.120023267001469D+03 -.474508307718649D+02 -.163894696167889D+03
0.138941244069D-03 0.000000000000D+00 0.000000000000D+00 0.117541725246D-07 0.193951204983D-10  6 2 2 25 2 2 21 2 0.24229642D+00 0.31687096D-01 0.23061901D+06 0.23061901D+06 0.23061901D+06 0.10931054D+01  1  2  1  2  6  2        2 0.528818612813D-02 0.100000000000D+01
  </mgrwgt>
  </event>
  <event>
  6     66 0.18204334E-05 0.79809874E+02 0.75467711E-02 0.87645772E-01
        2 -1    0    0  501    0 0.00000000E+00 0.00000000E+00 0.18083031E+04 0.18083032E+04 0.32000000E+00 0.0000E+00 0.9000E+01
        2 -1    0    0  503    0 0.00000000E+00 0.00000000E+00 -.80346862E+03 0.80346869E+03 0.32000000E+00 0.0000E+00 0.9000E+01
       25  1    1    2    0    0 0.83539529E+03 0.28948872E+03 0.71660337E+03 0.11449168E+04 0.12500000E+03 0.0000E+00 0.9000E+01
        2  1    1    2  501    0 0.87376859E+01 -.66202570E+01 0.36401816E+03 0.36418333E+03 0.32000000E+00 0.0000E+00 0.9000E+01
        2  1    1    2  502    0 -.92269493E+03 -.24967899E+03 0.42522854E+02 0.95682487E+03 0.32000000E+00 0.0000E+00 0.9000E+01
       21  1    1    2  503  502 0.78561953E+02 -.33189474E+02 -.11830988E+03 0.14584688E+03 0.75000000E+00 0.0000E+00 0.9000E+01
#aMCatNLO 2  0  0  2  1 0.85284944D+02 0.00000000D+00  -5  6  0 0.00000000D+00 0.00000000D+00 0.00000000D+00 0.00000000D+00 0.00000000D+00
  <mgrwgt>
 0.1364658985D-02    1    2    0
 0.109682030125769D+04 0.000000000000000D+00 0.000000000000000D+00 0.109682030125769D+04
 0.109682030125769D+04 0.000000000000000D+00 0.000000000000000D+00 -.109682030125769D+04
 0.945840856878144D+03 0.868920524295012D+03 0.275416145792821D+03 0.219346747492391D+03
 0.223172144190879D+03 0.167070507642659D+02 -.998372738428531D+01 0.222321851344017D+03
 0.102462760144635D+04 -.885627575059278D+03 -.265432418408536D+03 -.441668598836408D+03
 0.000000000000000D+00 0.000000000000000D+00 -.000000000000000D+00 -.000000000000000D+00
 0.110606996815322D+04 0.000000000000000D+00 0.000000000000000D+00 0.110606996815322D+04
 0.131358173495629D+04 0.000000000000000D+00 0.000000000000000D+00 -.131358173495629D+04
 0.919603335556517D+03 0.835529092287435D+03 0.289522771250406D+03 0.219346747492391D+03
 0.222591354644155D+03 0.872788868416999D+01 -.661283119439633D+01 0.222321851344017D+03
 0.105310315170575D+04 -.922818934337296D+03 -.249720466448092D+03 -.441668598836408D+03
 0.224353861203084D+03 0.785619533656913D+02 -.331894736079183D+02 -.207511766803063D+03
0.267446215623D-03 0.000000000000D+00 0.000000000000D+00 0.274978726460D-06 0.179469000854D-09  6 2 2 25 2 2 21 2 0.27820033D+00 0.12361050D+00 0.94605357D+06 0.94605357D+06 0.94605357D+06 0.10494709D+01  1  2  1  2  6  2        2 0.136465898452D-02 0.100000000000D+01
  </mgrwgt>
  </event>
  <event>
  5     66 0.18204334E-05 0.15287189E+02 0.75467711E-02 0.90175896E-01
        2 -1    0    0  501    0 0.00000000E+00 0.00000000E+00 0.15684719E+04 0.15684719E+04 0.32000000E+00 0.0000E+00 0.9000E+01
        2 -1    0    0  502    0 0.00000000E+00 0.00000000E+00 -.81960118E+03 0.81960124E+03 0.32000000E+00 0.0000E+00 0.9000E+01
       25  1    1    2    0    0 0.62517371E+02 0.46940987E+03 0.61737852E+03 0.78805792E+03 0.12500000E+03 0.0000E+00 0.9000E+01
        2  1    1    2  501    0 -.63897269E+02 -.45418711E+03 0.80491351E+03 0.92642034E+03 0.32000000E+00 0.0000E+00 0.9000E+01
        2  1    1    2  502    0 0.13798986E+01 -.15222757E+02 -.67342135E+03 0.67359487E+03 0.32000000E+00 0.0000E+00 0.9000E+01
#aMCatNLO 1  0  0  2  1 0.85284944D+02 0.00000000D+00  -5  6  0 0.00000000D+00 0.00000000D+00 0.00000000D+00 0.00000000D+00 0.00000000D+00
  <mgrwgt>
 0.1752481445D-01    7    2    0
 0.113380840674003D+04 0.000000000000000D+00 0.000000000000000D+00 0.113380840674003D+04
 0.113380840674003D+04 0.000000000000000D+00 0.000000000000000D+00 -.113380840674003D+04
 0.626074643806737D+03 0.625074810178845D+02 0.469342812022705D+03 0.390069992741241D+03
 0.709704776015213D+03 -.638875527007441D+02 -.454118043930403D+03 0.541641996050471D+03
 0.931837393658100D+03 0.138007168285961D+01 -.152247680923015D+02 -.931711988791712D+03
 0.000000000000000D+00 -.000000000000000D+00 -.000000000000000D+00 -.000000000000000D+00
 0.127055783030186D+04 0.000000000000000D+00 0.000000000000000D+00 0.127055783030186D+04
 0.149419500025359D+04 0.000000000000000D+00 0.000000000000000D+00 -.149419500025359D+04
 0.708370888214599D+03 0.135576216671248D+03 0.561808513201695D+03 0.390069992741241D+03
 0.650383345960646D+03 0.105852654587194D+02 -.359875529833018D+03 0.541641996050471D+03
 0.944513259089076D+03 0.104121297569333D+03 0.114790339006988D+03 -.931711988791712D+03
 0.461485337291126D+03 -.250282779699301D+03 -.316723322375665D+03 -.223637169951724D+03
0.119911809586D-02 0.000000000000D+00 0.000000000000D+00 0.155180079678D-04 0.000000000000D+00  6 2 2 25 2 2 21 0 0.24130337D+00 0.12609250D+00 0.23212458D+06 0.23212458D+06 0.23212458D+06 0.10928912D+01  1  2  2  2  6  2        2 0.793565892678D-02 0.100000000000D+01
0.118273628995D-02 0.000000000000D+00 -.460492922315D-05 0.155180079678D-04 0.000000000000D+00  6 2 2 25 2 2 21 2 0.24130337D+00 0.12609250D+00 0.23212458D+06 0.23212458D+06 0.23212458D+06 0.10928912D+01  1  2  3  2  6  2        2 0.934895010585D-02 0.100000000000D+01
-.749540341476D-03 0.000000000000D+00 0.000000000000D+00 0.155180079678D-04 0.000000000000D+00  6 2 2 25 2 2 21 2 0.24130337D+00 0.12609250D+00 0.23212458D+06 0.23212458D+06 0.23212458D+06 0.10928912D+01  1  2 15  2  6  2        2 -.592474866488D-02 0.100000000000D+01
-.506833244384D-04 0.000000000000D+00 0.000000000000D+00 0.155180079678D-04 0.000000000000D+00  6 2 2 25 2 2 21 2 0.24130337D+00 0.12609250D+00 0.23212458D+06 0.23212458D+06 0.23212458D+06 0.10928912D+01  1  2  4  2  6  2        2 -.400626813770D-03 0.100000000000D+01
-.138668893841D-02 0.000000000000D+00 -.100994404630D-02 0.155180079678D-04 0.000000000000D+00  6 2 2 25 2 2 21 2 0.24130337D+00 0.17829241D+00 0.23212458D+06 0.23212458D+06 0.23212458D+06 0.10928912D+01  1  2  5  2  6  2        2 -.672248354943D-02 0.100000000000D+01
0.169172813415D-02 0.000000000000D+00 0.952236543104D-03 0.155180079678D-04 0.000000000000D+00  6 2 2 25 2 2 21 2 0.24130337D+00 0.12609250D+00 0.23212458D+06 0.23212458D+06 0.23212458D+06 0.10928912D+01  1  2  6  2  6  2        2 0.133722809161D-01 0.100000000000D+01
-.313245625628D-04 0.000000000000D+00 -.433049320112D-04 0.155180079678D-04 0.000000000000D+00  6 2 21 25 2 2 -2 2 0.24130337D+00 0.17829241D+00 0.23212458D+06 0.23212458D+06 0.23212458D+06 0.10928912D+01  1  2  5  5  6  2        2 -.842164658824D-04 0.100000000000D+01
  </mgrwgt>
  </event>
  <event>
  5     66 0.18204334E-05 0.24112244E+02 0.75467711E-02 0.93481075E-01
        2 -1    0    0  501    0 0.00000000E+00 0.00000000E+00 0.20704765E+04 0.20704765E+04 0.32000000E+00 0.0000E+00 0.9000E+01
        2 -1    0    0  502    0 0.00000000E+00 0.00000000E+00 -.29095522E+04 0.29095522E+04 0.32000000E+00 0.0000E+00 0.9000E+01
       25  1    1    2    0    0 -.51238630E+03 -.15846236E+03 0.13246062E+03 0.56641050E+03 0.12500000E+03 0.0000E+00 0.9000E+01
        2  1    1    2  501    0 0.50148098E+03 0.17996605E+03 0.16797494E+04 0.17622228E+04 0.32000000E+00 0.0000E+00 0.9000E+01
        2  1    1    2  502    0 0.10905318E+02 -.21503690E+02 -.26512858E+04 0.26513954E+04 0.32000000E+00 0.0000E+00 0.9000E+01
#aMCatNLO 1  0  0  2  5 0.70047000D+02 0.00000000D+00  -5  6  0 0.00000000D+00 0.00000000D+00 0.00000000D+00 0.00000000D+00 0.00000000D+00
  <mgrwgt>
 0.4751576598D-01    6    2    0
 0.245441631857675D+04 0.000000000000000D+00 0.000000000000000D+00 0.245441631857675D+04
 0.245441631857675D+04 0.000000000000000D+00 0.000000000000000D+00 -.245441631857675D+04
 0.597283664504767D+03 -.512376686534978D+03 -.158457480886201D+03 0.231266369649542D+03
 0.207486169928882D+04 0.501470734080946D+03 0.179962375501421D+03 0.200529093087260D+04
 0.223668727335992D+04 0.109059524540322D+02 -.215048946152195D+02 -.223655730052214D+04
 0.000000000000000D+00 -.000000000000000D+00 0.000000000000000D+00 -.000000000000000D+00
 0.315384930917542D+04 0.000000000000000D+00 0.000000000000000D+00 0.315384930917542D+04
 0.385349564782929D+04 0.000000000000000D+00 0.000000000000000D+00 -.385349564782929D+04
 0.469829563234338D+03 -.338268734896039D+03 -.192885841237564D+03 0.231266369649542D+03
 0.234926480038717D+04 0.122330191621531D+04 0.372264245156281D+02 0.200529093087260D+04
 0.236903442502678D+04 0.762365825577428D+03 -.170099666180470D+03 -.223655730052214D+04
 0.181921616835642D+04 -.164739900689670D+04 0.325759082902406D+03 -.699646338653871D+03
0.203682496292D+00 0.000000000000D+00 0.000000000000D+00 0.653363594770D-03 0.000000000000D+00  6 2 2 25 2 2 21 0 0.31853484D+00 0.44762342D+00 0.30668921D+06 0.30668921D+06 0.30668921D+06 0.10838440D+01  1  2  2  2  6  2        2 0.439314656681D-01 0.100000000000D+01
0.181837603869D+00 0.000000000000D+00 -.782194416595D-03 0.653363594770D-03 0.000000000000D+00  6 2 2 25 2 2 21 2 0.31853484D+00 0.44762342D+00 0.30668921D+06 0.30668921D+06 0.30668921D+06 0.10838440D+01  1  2  3  2  6  2        2 0.460722314809D-01 0.100000000000D+01
-.143164270804D+00 0.000000000000D+00 0.000000000000D+00 0.653363594770D-03 0.000000000000D+00  6 2 2 25 2 2 21 2 0.31853484D+00 0.44762342D+00 0.30668921D+06 0.30668921D+06 0.30668921D+06 0.10838440D+01  1  2 15  2  6  2        2 -.362735610454D-01 0.100000000000D+01
0.824879186778D-01 0.000000000000D+00 -.867756789979D-01 0.653363594770D-03 0.000000000000D+00  6 2 2 25 2 2 21 2 0.31853484D+00 0.73035065D+00 0.30668921D+06 0.30668921D+06 0.30668921D+06 0.10838440D+01  1  2  5  2  6  2        2 0.682713846411D-03 0.100000000000D+01
-.272237686851D-01 0.000000000000D+00 0.773227118075D-01 0.653363594770D-03 0.000000000000D+00  6 2 2 25 2 2 21 2 0.31853484D+00 0.44762342D+00 0.30668921D+06 0.30668921D+06 0.30668921D+06 0.10838440D+01  1  2  6  2  6  2        2 -.689769192924D-02 0.100000000000D+01
0.839524136580D-02 0.000000000000D+00 -.481200022989D-02 0.653363594770D-03 0.000000000000D+00  6 2 21 25 2 2 -2 2 0.31853484D+00 0.73035065D+00 0.30668921D+06 0.30668921D+06 0.30668921D+06 0.10838440D+01  1  2  5  5  6  2        2 0.607957199936D-06 0.100000000000D+01
  </mgrwgt>
  </event>
  <event>
  5     66 0.18204334E-05 0.88746159E+02 0.75467711E-02 0.94109087E-01
        2 -1    0    0  501    0 0.00000000E+00 0.00000000E+00 0.10491041E+04 0.10491042E+04 0.32000000E+00 0.0000E+00 0.9000E+01
        2 -1    0    0  502    0 -.00000000E+00 -.00000000E+00 -.32647347E+04 0.32647347E+04 0.32000000E+00 0.0000E+00 0.9000E+01
       25  1    1    2    0    0 -.26591116E+03 -.42348810E+03 -.19969102E+04 0.20623594E+04 0.12500000E+03 0.0000E+00 0.9000E+01
        2  1    1    2  501    0 0.85410680E+02 0.24103917E+02 0.97542046E+03 0.97944942E+03 0.32000000E+00 0.0000E+00 0.9000E+01
        2  1    1    2  502    0 0.18050048E+03 0.39938418E+03 -.11941409E+04 0.12720301E+04 0.32000000E+00 0.0000E+00 0.9000E+01
#aMCatNLO 1  0  0  5  2 0.34158088D+02 0.00000000D+00  -5  6  0 0.00000000D+00 0.00000000D+00 0.00000000D+00 0.00000000D+00 0.00000000D+00
  <mgrwgt>
 0.9601984852D-03    8    2    0
 0.185068820605912D+04 0.000000000000000D+00 0.000000000000000D+00 0.185068820605912D+04
 0.185068820605912D+04 -.000000000000000D+00 -.000000000000000D+00 -.185068820605912D+04
 0.120827077356484D+04 -.265921373543775D+03 -.423507163596224D+03 -.109280408478659D+04
 0.172538972501824D+04 0.854101248177145D+02 0.241037601973618D+02 0.172310586515208D+04
 0.767715913535168D+03 0.180511248726060D+03 0.399403403398862D+03 -.630301780365486D+03
 0.000000000000000D+00 0.000000000000000D+00 0.000000000000000D+00 -.000000000000000D+00
 0.185068820605912D+04 0.000000000000000D+00 0.000000000000000D+00 0.185068820605912D+04
 0.185068820605912D+04 -.000000000000000D+00 -.000000000000000D+00 -.185068820605912D+04
 0.120885495927409D+04 -.265651410594389D+03 -.422909837271481D+03 -.109374673034930D+04
 0.172407752014933D+04 0.857953875033347D+02 0.249562014104455D+02 0.172176062069574D+04
 0.244209791528656D+03 0.890130261728462D+02 0.114460396662466D+03 -.196504251979170D+03
 0.524234141166171D+03 0.908429969182082D+02 0.283493239198569D+03 -.431509638367273D+03
0.128259799413D-02 0.000000000000D+00 0.000000000000D+00 0.127200860527D-04 0.000000000000D+00  6 2 2 25 2 2 21 0 0.16140064D+00 0.50226689D+00 0.27170430D+06 0.27170430D+06 0.27170430D+06 0.10877494D+01  1  2  2  3  6  5        2 0.614281162260D-03 0.100000000000D+01
0.384187092078D-03 0.000000000000D+00 -.492551401328D-05 0.127200860527D-04 0.000000000000D+00  6 2 2 25 2 2 21 2 0.16140064D+00 0.50226689D+00 0.27170430D+06 0.27170430D+06 0.27170430D+06 0.10877494D+01  1  2  3  3  6  5        2 0.217709386482D-03 0.100000000000D+01
-.830638187993D-03 0.000000000000D+00 0.000000000000D+00 0.127200860527D-04 0.000000000000D+00  6 2 2 25 2 2 21 2 0.16140064D+00 0.50226689D+00 0.27170430D+06 0.27170430D+06 0.27170430D+06 0.10877494D+01  1  2 15  3  6  5        2 -.470702254254D-03 0.100000000000D+01
0.136023925173D-01 0.000000000000D+00 0.000000000000D+00 0.127200860527D-04 0.000000000000D+00  6 2 2 25 2 2 21 2 0.16140064D+00 0.50226689D+00 0.27398457D+06 0.27398457D+06 0.27398457D+06 0.10874786D+01  1  2 12  3  6  5        2 0.769802297444D-02 0.100000000000D+01
0.174180324780D-09 0.000000000000D+00 0.000000000000D+00 0.127200860527D-04 0.000000000000D+00  6 2 2 25 2 2 21 2 0.16140064D+00 0.50226689D+00 0.27398457D+06 0.27398457D+06 0.27398457D+06 0.10874786D+01  1  2 12  3  6  5        2 0.985741398173D-10 0.100000000000D+01
-.268028387925D-01 0.000000000000D+00 0.000000000000D+00 0.127200860527D-04 0.000000000000D+00  6 2 2 25 2 2 21 2 0.16140064D+00 0.50226689D+00 0.27170430D+06 0.27170430D+06 0.27170430D+06 0.10877494D+01  1  2  4  3  6  5        2 -.151885102593D-01 0.100000000000D+01
-.136090765268D-01 0.000000000000D+00 0.000000000000D+00 0.127200860527D-04 0.000000000000D+00  6 2 2 25 2 2 21 2 0.16140064D+00 0.50226689D+00 0.27170430D+06 0.27170430D+06 0.27170430D+06 0.10877494D+01  1  2  5  3  6  5        2 -.771192932383D-02 0.100000000000D+01
0.278842628435D-01 0.000000000000D+00 -.000000000000D+00 0.127200860527D-04 0.000000000000D+00  6 2 2 25 2 2 21 2 0.16140064D+00 0.50226689D+00 0.27170430D+06 0.27170430D+06 0.27170430D+06 0.10877494D+01  1  2  6  3  6  5        2 0.158013267008D-01 0.100000000000D+01
  </mgrwgt>
  </event>
  <event>
  5     66 0.18204334E-05 0.34151228E+02 0.75467711E-02 0.94558646E-01
        2 -1    0    0  501    0 0.00000000E+00 0.00000000E+00 0.20845745E+04 0.20845745E+04 0.32000000E+00 0.0000E+00 0.9000E+01
        2 -1    0    0  502    0 0.00000000E+00 0.00000000E+00 -.57957222E+03 0.57957231E+03 0.32000000E+00 0.0000E+00 0.9000E+01
       25  1    1    2    0    0 0.75953880E+02 -.47515808E+03 0.58750367E+02 0.50062041E+03 0.12500000E+03 0.0000E+00 0.9000E+01
        2  1    1    2  501    0 -.94814595E+02 0.44668982E+03 0.17751078E+04 0.18329019E+04 0.32000000E+00 0.0000E+00 0.9000E+01
        2  1    1    2  502    0 0.18860715E+02 0.28468259E+02 -.32885597E+03 0.33062444E+03 0.32000000E+00 0.0000E+00 0.9000E+01
#aMCatNLO 1  0  0  2  4 0.29120626D+02 0.00000000D+00  -5  6  0 0.00000000D+00 0.00000000D+00 0.00000000D+00 0.00000000D+00 0.00000000D+00
  <mgrwgt>
 0.3696175596D-02    9    2    0
 0.109916404734389D+04 0.000000000000000D+00 0.000000000000000D+00 0.109916404734389D+04
 0.109916404734389D+04 0.000000000000000D+00 0.000000000000000D+00 -.109916404734389D+04
 0.566458246875451D+03 0.759519993602035D+02 -.475155665100995D+03 -.271492786587100D+03
 0.100601806658829D+04 -.948137086034415D+02 0.446685640730731D+03 0.896412097937037D+03
 0.625851781224037D+03 0.188617092432381D+02 0.284700243702634D+02 -.624919311349937D+03
 0.000000000000000D+00 0.000000000000000D+00 0.000000000000000D+00 -.000000000000000D+00
 0.109986468829985D+04 0.000000000000000D+00 0.000000000000000D+00 0.109986468829985D+04
 0.145013808099229D+04 0.000000000000000D+00 0.000000000000000D+00 -.145013808099229D+04
 0.570433644182611D+03 0.708261190445884D+02 -.480671270316530D+03 -.271492786587100D+03
 0.100262697443977D+04 -.103870043825677D+03 0.436940744886552D+03 0.896412097937037D+03
 0.625460343920616D+03 0.132199448490879D+02 0.223993119850367D+02 -.624919311349937D+03
 0.351481806749145D+03 0.198239799320012D+02 0.213312134449410D+02 -.350273392692430D+03
0.155541893462D-04 0.000000000000D+00 0.000000000000D+00 0.249444191260D-04 0.000000000000D+00  6 2 2 25 2 2 21 0 0.32070377D+00 0.89164966D-01 0.24400989D+06 0.24400989D+06 0.24400989D+06 0.10912524D+01  1  2  2  2  6  2        2 0.820062537839D-04 0.100000000000D+01
0.779334740628D-05 0.000000000000D+00 -.597321826014D-07 0.249444191260D-04 0.000000000000D+00  6 2 2 25 2 2 21 2 0.32070377D+00 0.89164966D-01 0.24400989D+06 0.24400989D+06 0.24400989D+06 0.10912524D+01  1  2  3  2  6  2        2 0.489298647559D-04 0.100000000000D+01
-.120934076586D-04 0.000000000000D+00 0.000000000000D+00 0.249444191260D-04 0.000000000000D+00  6 2 2 25 2 2 21 2 0.32070377D+00 0.89164966D-01 0.24400989D+06 0.24400989D+06 0.24400989D+06 0.10912524D+01  1  2 15  2  6  2        2 -.759274250623D-04 0.100000000000D+01
0.132518354373D-09 0.000000000000D+00 0.000000000000D+00 0.249444191260D-04 0.000000000000D+00  6 2 2 25 2 2 21 2 0.32070377D+00 0.11766326D+00 0.25297413D+06 0.25297413D+06 0.25297413D+06 0.10900729D+01  1  2 12  2  6  2        2 0.592996767028D-09 0.100000000000D+01
-.207844914676D-03 0.000000000000D+00 0.000000000000D+00 0.249444191260D-04 0.000000000000D+00  6 2 2 25 2 2 21 2 0.32070377D+00 0.89164966D-01 0.24400989D+06 0.24400989D+06 0.24400989D+06 0.10912524D+01  1  2  4  2  6  2        2 -.130493650997D-02 0.100000000000D+01
-.357142563295D-02 0.000000000000D+00 -.161635837644D-04 0.249444191260D-04 0.000000000000D+00  6 2 2 25 2 2 21 2 0.32070377D+00 0.11766499D+00 0.24400989D+06 0.24400989D+06 0.24400989D+06 0.10912524D+01  1  2  5  2  6  2        2 -.160532833659D-01 0.100000000000D+01
0.344322509764D-02 0.000000000000D+00 0.155612150777D-04 0.249444191260D-04 0.000000000000D+00  6 2 2 25 2 2 21 2 0.32070377D+00 0.89164966D-01 0.24400989D+06 0.24400989D+06 0.24400989D+06 0.10912524D+01  1  2  6  2  6  2        2 0.216179941133D-01 0.100000000000D+01
0.483902562839D-11 0.000000000000D+00 0.000000000000D+00 0.249444191260D-04 0.000000000000D+00  6 2 21 25 2 2 -2 2 0.32070377D+00 0.11766326D+00 0.25297413D+06 0.25297413D+06 0.25297413D+06 0.10900729D+01  1  2 12  5  6  2        2 0.228720744558D-10 0.100000000000D+01
-.130098462712D-03 0.000000000000D+00 -.590250413934D-06 0.249444191260D-04 0.000000000000D+00  6 2 21 25 2 2 -2 2 0.32070377D+00 0.11766499D+00 0.24400989D+06 0.24400989D+06 0.24400989D+06 0.10912524D+01  1  2  5  5  6  2        2 -.618607951088D-03 0.100000000000D+01
  </mgrwgt>
  </event>
  <event>
  5     66 0.18204334E-05 0.22005608E+03 0.75467711E-02 0.94573790E-01
        2 -1    0    0  501    0 0.00000000E+00 0.00000000E+00 0.10069494E+04 0.10069495E+04 0.32000000E+00 0.0000E+00 0.9000E+01
        2 -1    0    0  502    0 -.00000000E+00 -.00000000E+00 -.20720034E+04 0.20720034E+04 0.32000000E+00 0.0000E+00 0.9000E+01
       25  1    1    2    0    0 0.33138977E+03 0.34216818E+03 -.25052541E+03 0.55252712E+03 0.12500000E+03 0.0000E+00 0.9000E+01
        2  1    1    2  501    0 -.12588065E+03 -.26354172E+03 0.82346214E+03 0.87372203E+03 0.32000000E+00 0.0000E+00 0.9000E+01
        2  1    1    2  502    0 -.20550912E+03 -.78626459E+02 -.16379907E+04 0.16527038E+04 0.32000000E+00 0.0000E+00 0.9000E+01
#aMCatNLO 1  0  0  5  2 0.20782903D+01 0.00000000D+00  -5  6  0 0.00000000D+00 0.00000000D+00 0.00000000D+00 0.00000000D+00 0.00000000D+00
  <mgrwgt>
 0.1833464383D-02    1    2    0
 0.144443857226595D+04 0.000000000000000D+00 0.000000000000000D+00 0.144443857226595D+04
 0.144443857226595D+04 -.000000000000000D+00 -.000000000000000D+00 -.144443857226595D+04
 0.496520957800197D+03 0.331404096020673D+03 0.342168826793777D+03 -.632446096210270D+02
 0.123476423033861D+04 -.125877176836857D+03 -.263534452220848D+03 0.119972798307280D+04
 0.115759195639309D+04 -.205526919183816D+03 -.786343745729288D+02 -.113648337345177D+04
 0.000000000000000D+00 -.000000000000000D+00 0.000000000000000D+00 0.000000000000000D+00
 0.144443857226595D+04 0.000000000000000D+00 0.000000000000000D+00 0.144443857226595D+04
 0.144443857226595D+04 -.000000000000000D+00 -.000000000000000D+00 -.144443857226595D+04
 0.496125475720501D+03 0.328327541790983D+03 0.340991740509158D+03 -.802567496533409D+02
 0.119578788865169D+04 -.133410297542927D+03 -.266416615966875D+03 0.115807277573231D+04
 0.133351124426747D+03 0.104952554926726D+03 -.588601251809780D+02 -.574714647795755D+02
 0.106361265573295D+04 -.299869799174783D+03 -.157149993613046D+02 -.102034456129940D+04
0.582472866945D-03 0.000000000000D+00 0.000000000000D+00 0.116555240296D-04 0.000000000000D+00  6 2 2 25 2 2 21 2 0.15491530D+00 0.31876976D+00 0.25229853D+06 0.25229853D+06 0.25229853D+06 0.10901602D+01  1  2 14  3  6  5        2 0.183346438274D-02 0.100000000000D+01
  </mgrwgt>
  </event>
  <event>
  5     66 -.18204334E-05 0.80747326E+02 0.75467711E-02 0.91927143E-01
        2 -1    0    0  501    0 0.00000000E+00 0.00000000E+00 0.11694595E+04 0.11694596E+04 0.32000000E+00 0.0000E+00 0.9000E+01
        2 -1    0    0  502    0 -.00000000E+00 -.00000000E+00 -.37316398E+04 0.37316398E+04 0.32000000E+00 0.0000E+00 0.9000E+01
       25  1    1    2    0    0 -.60248519E+03 0.14960875E+03 0.15590016E+03 0.65215109E+03 0.12500000E+03 0.0000E+00 0.9000E+01
        2  1    1    2  501    0 0.71081945E+02 0.38321943E+02 0.74042340E+03 0.74481416E+03 0.32000000E+00 0.0000E+00 0.9000E+01
        2  1    1    2  502    0 0.53140325E+03 -.18793070E+03 -.34585038E+04 0.35041341E+04 0.32000000E+00 0.0000E+00 0.9000E+01
#aMCatNLO 1  0  0  5  2 0.61051978D+01 0.00000000D+00  -5  6  0 0.00000000D+00 0.00000000D+00 0.00000000D+00 0.00000000D+00 0.00000000D+00
  <mgrwgt>
 -.1147382597D-01    9    2    0
 0.208901936367347D+04 0.000000000000000D+00 0.000000000000000D+00 0.208901936367347D+04
 0.208901936367347D+04 -.000000000000000D+00 -.000000000000000D+00 -.208901936367347D+04
 0.860719420521186D+03 -.602518590349339D+03 0.149625307020133D+03 0.582920694987665D+03
 0.132766729376798D+04 0.710760389529307D+02 0.383187593898885D+02 0.132520953524595D+04
 0.198965201305777D+04 0.531442551396409D+03 -.187944066410022D+03 -.190813023023361D+04
 0.000000000000000D+00 0.000000000000000D+00 0.000000000000000D+00 -.000000000000000D+00
 0.208901936367347D+04 0.000000000000000D+00 0.000000000000000D+00 0.208901936367347D+04
 0.208901936367347D+04 -.000000000000000D+00 -.000000000000000D+00 -.208901936367347D+04
 0.860701083003043D+03 -.602512847534480D+03 0.149623276080055D+03 0.582900075564907D+03
 0.132763593089570D+04 0.710848972852102D+02 0.383156266505438D+02 0.132517772964143D+04
 0.179130988517992D+04 0.483921752668288D+03 -.171322836876028D+03 -.171617578575229D+04
 0.198391828268274D+03 0.475061975809830D+02 -.166160658545703D+02 -.191902019454047D+03
0.472107828187D-04 0.000000000000D+00 0.000000000000D+00 0.623293598232D-04 0.000000000000D+00  6 2 2 25 2 2 21 0 0.17991686D+00 0.57409843D+00 0.40814368D+06 0.40814368D+06 0.40814368D+06 0.10747972D+01  1  2  2  3  6  5        2 0.854670428972D-05 0.100000000000D+01
0.155151797228D-04 0.000000000000D+00 -.181301836908D-06 0.623293598232D-04 0.000000000000D+00  6 2 2 25 2 2 21 2 0.17991686D+00 0.57409843D+00 0.40814368D+06 0.40814368D+06 0.40814368D+06 0.10747972D+01  1  2  3  3  6  5        2 0.324464607534D-05 0.100000000000D+01
-.283865201593D-04 0.000000000000D+00 0.000000000000D+00 0.623293598232D-04 0.000000000000D+00  6 2 2 25 2 2 21 2 0.17991686D+00 0.57409843D+00 0.40814368D+06 0.40814368D+06 0.40814368D+06 0.10747972D+01  1  2 15  3  6  5        2 -.593639344650D-05 0.100000000000D+01
0.163368191379D+00 0.000000000000D+00 0.000000000000D+00 0.623293598232D-04 0.000000000000D+00  6 2 2 25 2 2 21 2 0.17991686D+00 0.57409843D+00 0.40813423D+06 0.40813423D+06 0.40813423D+06 0.10747979D+01  1  2 12  3  6  5        2 0.341648646885D-01 0.100000000000D+01
0.157283464433D-09 0.000000000000D+00 0.000000000000D+00 0.623293598232D-04 0.000000000000D+00  6 2 2 25 2 2 21 2 0.17991686D+00 0.57409843D+00 0.40813423D+06 0.40813423D+06 0.40813423D+06 0.10747979D+01  1  2 12  3  6  5        2 0.328923778536D-10 0.100000000000D+01
-.287533375961D+00 0.000000000000D+00 0.000000000000D+00 0.623293598232D-04 0.000000000000D+00  6 2 2 25 2 2 21 2 0.17991686D+00 0.57409843D+00 0.40814368D+06 0.40814368D+06 0.40814368D+06 0.10747972D+01  1  2  4  3  6  5        2 -.601310494954D-01 0.100000000000D+01
-.202829036473D+00 0.000000000000D+00 0.000000000000D+00 0.623293598232D-04 0.000000000000D+00  6 2 2 25 2 2 21 2 0.17991686D+00 0.57409843D+00 0.40814368D+06 0.40814368D+06 0.40814368D+06 0.10747972D+01  1  2  5  3  6  5        2 -.424170682464D-01 0.100000000000D+01
0.224056260755D+00 0.000000000000D+00 -.000000000000D+00 0.623293598232D-04 0.000000000000D+00  6 2 2 25 2 2 21 2 0.17991686D+00 0.57409843D+00 0.40814368D+06 0.40814368D+06 0.40814368D+06 0.10747972D+01  1  2  6  3  6  5        2 0.468562582004D-01 0.100000000000D+01
0.480438460230D-01 0.000000000000D+00 0.000000000000D+00 0.623293598232D-04 0.105141177333D-04  6 2 2 25 2 2 21 2 0.17991686D+00 0.57409843D+00 0.40813423D+06 0.40813423D+06 0.40813423D+06 0.10747979D+01  1  2 11  3  6  5        2 0.100473138904D-01 0.100000000000D+01
  </mgrwgt>
  </event>
  <event>
  6     66 0.18204334E-05 0.55502876E+02 0.75467711E-02 0.94935686E-01
        2 -1    0    0  501    0 0.00000000E+00 0.00000000E+00 0.94360702E+03 0.94360707E+03 0.32000000E+00 0.0000E+00 0.9000E+01
        2 -1    0    0  502    0 -.00000000E+00 -.00000000E+00 -.21046063E+04 0.21046064E+04 0.32000000E+00 0.0000E+00 0.9000E+01
       25  1    1    2    0    0 0.37238832E+03 -.27473099E+03 -.59235216E+03 0.76200805E+03 0.12500000E+03 0.0000E+00 0.9000E+01
        2  1    1    2  501    0 -.18710249E+02 -.23018886E+02 0.81970202E+03 0.82023866E+03 0.32000000E+00 0.0000E+00 0.9000E+01
        2  1    1    2  503    0 -.12503066E+03 0.13119039E+03 -.42713957E+03 0.46399558E+03 0.32000000E+00 0.0000E+00 0.9000E+01
       21  1    1    2  502  503 -.22864741E+03 0.16655948E+03 -.96120962E+03 0.10019712E+04 0.75000000E+00 0.0000E+00 0.9000E+01
#aMCatNLO 2  0  0  5  2 0.41192607D+02 0.00000000D+00  -5  6  0 0.00000000D+00 0.00000000D+00 0.00000000D+00 0.00000000D+00 0.00000000D+00
  <mgrwgt>
 0.1543165223D-01    1    2    0
 0.140922724420938D+04 0.000000000000000D+00 0.000000000000000D+00 0.140922724420938D+04
 0.140922724420938D+04 -.000000000000000D+00 -.000000000000000D+00 -.140922724420938D+04
 0.580012959436463D+03 0.372666327849791D+03 -.274964994251534D+03 -.326043084787043D+03
 0.122625404630632D+04 -.181226516169713D+02 -.235135834423438D+02 0.122589463942652D+04
 0.101218748267598D+04 -.354543676232820D+03 0.298478577693877D+03 -.899851554639479D+03
 0.000000000000000D+00 0.000000000000000D+00 0.000000000000000D+00 -.000000000000000D+00
 0.140922724420938D+04 0.000000000000000D+00 0.000000000000000D+00 0.140922724420938D+04
 0.140922724420938D+04 -.000000000000000D+00 -.000000000000000D+00 -.140922724420938D+04
 0.580120486797788D+03 0.372388493773785D+03 -.274731094945467D+03 -.326748243113040D+03
 0.122476413161993D+04 -.187096326862155D+02 -.230194235223507D+02 0.122440484885032D+04
 0.325470386448605D+03 -.124881185836188D+03 0.131042351272189D+03 -.270487641218981D+03
 0.688099483552428D+03 -.228797675251382D+03 0.166708167195629D+03 -.627168964518299D+03
0.462459300366D-02 0.000000000000D+00 0.000000000000D+00 0.591067178141D-04 0.485572362150D-07  6 2 2 25 2 2 21 2 0.14517032D+00 0.32378560D+00 0.23674089D+06 0.23674089D+06 0.23674089D+06 0.10922440D+01  1  2  1  3  6  5        2 0.154316522264D-01 0.100000000000D+01
  </mgrwgt>
  </event>
  <event>
  5     66 0.18204334E-05 0.42893764E+02 0.75467711E-02 0.86919917E-01
        2 -1    0    0  501    0 0.00000000E+00 0.00000000E+00 0.23033748E+04 0.23033748E+04 0.32000000E+00 0.0000E+00 0.9000E+01
        2 -1    0    0  502    0 0.00000000E+00 0.00000000E+00 -.15267355E+04 0.15267356E+04 0.32000000E+00 0.0000E+00 0.9000E+01
       25  1    1    2    0    0 -.69583193E+03 0.57960415E+03 0.54027783E+02 0.91578766E+03 0.12500000E+03 0.0000E+00 0.9000E+01
        2  1    1    2  501    0 0.69882901E+03 -.53681823E+03 0.17112178E+04 0.19247863E+04 0.32000000E+00 0.0000E+00 0.9000E+01
        2  1    1    2  502    0 -.29970854E+01 -.42785918E+02 -.98860636E+03 0.98953638E+03 0.32000000E+00 0.0000E+00 0.9000E+01
#aMCatNLO 1  0  0  5  2 0.59941636D+01 0.00000000D+00  -5  6  0 0.00000000D+00 0.00000000D+00 0.00000000D+00 0.00000000D+00 0.00000000D+00
  <mgrwgt>
 0.7695825809D-02    3    2    0
 0.187527176112070D+04 0.000000000000000D+00 0.000000000000000D+00 0.187527176112070D+04
 0.187527176112070D+04 -.000000000000000D+00 -.000000000000000D+00 -.187527176112070D+04
 0.923996837339755D+03 -.695816400983561D+03 0.579595312269535D+03 -.134365045794407D+03
 0.161123622230922D+04 0.698813595359327D+03 -.536806390206031D+03 0.134891831570938D+04
 0.121531046259243D+04 -.299719437576581D+01 -.427889220635050D+02 -.121455326991497D+04
 0.000000000000000D+00 0.000000000000000D+00 0.000000000000000D+00 0.000000000000000D+00
 0.187527176112070D+04 0.000000000000000D+00 0.000000000000000D+00 0.187527176112070D+04
 0.187527176112070D+04 -.000000000000000D+00 -.000000000000000D+00 -.187527176112070D+04
 0.938121615834677D+03 -.696022489968340D+03 0.576653118870553D+03 -.217878498368701D+03
 0.149804541847586D+04 0.698469477241788D+03 -.541719132412897D+03 0.120947130877748D+04
 0.198683979338044D+03 0.107519358413797D+03 -.120882863610699D+03 0.115335356665521D+03
 0.111569250859282D+04 -.109966345687245D+03 0.859488771530411D+02 -.110692816707430D+04
0.889094373531D-02 0.000000000000D+00 0.000000000000D+00 0.119908899121D-04 0.000000000000D+00  6 2 2 25 2 2 21 0 0.35436535D+00 0.23488239D+00 0.84480194D+06 0.84480194D+06 0.84480194D+06 0.10527747D+01  1  2  2  3  6  5        2 0.794239291469D-02 0.100000000000D+01
0.629109197729D-02 0.000000000000D+00 -.341435649828D-04 0.119908899121D-04 0.000000000000D+00  6 2 2 25 2 2 21 2 0.35436535D+00 0.23488239D+00 0.84480194D+06 0.84480194D+06 0.84480194D+06 0.10527747D+01  1  2  3  3  6  5        2 0.622874329846D-02 0.100000000000D+01
-.654012717868D-02 0.000000000000D+00 0.000000000000D+00 0.119908899121D-04 0.000000000000D+00  6 2 2 25 2 2 21 2 0.35436535D+00 0.23488239D+00 0.84480194D+06 0.84480194D+06 0.84480194D+06 0.10527747D+01  1  2 15  3  6  5        2 -.647531040436D-02 0.100000000000D+01
  </mgrwgt>
  </event>
  <event>
  5     66 -.18204334E-05 0.28321038E+02 0.75467711E-02 0.91404876E-01
        2 -1    0    0  501    0 0.00000000E+00 0.00000000E+00 0.16593551E+04 0.16593551E+04 0.32000000E+00 0.0000E+00 0.9000E+01
        2 -1    0    0  502    0 -.00000000E+00 -.00000000E+00 -.21286924E+04 0.21286924E+04 0.32000000E+00 0.0000E+00 0.9000E+01
       25  1    1    2    0    0 -.28273058E+03 -.59107954E+03 0.24017708E+03 0.70895814E+03 0.12500000E+03 0.0000E+00 0.9000E+01
        2  1    1    2  501    0 -.13758527E+02 0.24756864E+02 0.11306766E+04 0.11310313E+04 0.32000000E+00 0.0000E+00 0.9000E+01
        2  1    1    2  502    0 0.29648911E+03 0.56632268E+03 -.18401910E+04 0.19480580E+04 0.32000000E+00 0.0000E+00 0.9000E+01
#aMCatNLO 1  0  0  5  1 0.19441919D+03 0.00000000D+00  -5  6  0 0.00000000D+00 0.00000000D+00 0.00000000D+00 0.00000000D+00 0.00000000D+00
  <mgrwgt>
 -.6413703435D-02    4    2    0
 0.187942984225214D+04 0.000000000000000D+00 0.000000000000000D+00 0.187942984225214D+04
 0.187942984225214D+04 -.000000000000000D+00 -.000000000000000D+00 -.187942984225214D+04
 0.744534595414927D+03 -.282754934684887D+03 -.591123092863522D+03 0.330650721705669D+03
 0.128089754321705D+04 -.137575130300702D+02 0.247550406133656D+02 0.128058441151645D+04
 0.173342754587230D+04 0.296512447714957D+03 0.566368052250156D+03 -.161123513322212D+04
 0.000000000000000D+00 0.000000000000000D+00 0.000000000000000D+00 0.000000000000000D+00
 0.187942984225214D+04 0.000000000000000D+00 0.000000000000000D+00 0.187942984225214D+04
 0.187942984225214D+04 -.000000000000000D+00 -.000000000000000D+00 -.187942984225214D+04
 0.743855798293601D+03 -.282597363802874D+03 -.590822116920606D+03 0.329794488710970D+03
 0.127943224768176D+04 -.134864595315379D+02 0.252727795589051D+02 0.127911151915331D+04
 0.628461524834178D+03 0.483534850053233D+02 0.195118356053677D+03 -.595444922571056D+03
 0.110711011369474D+04 0.247730338329088D+03 0.370430981308024D+03 -.101346108529322D+04
0.276317777624D-03 0.000000000000D+00 0.000000000000D+00 0.894009025986D-04 0.000000000000D+00  6 2 2 25 2 2 21 0 0.25528540D+00 0.32749114D+00 0.44535348D+06 0.44535348D+06 0.44535348D+06 0.10720811D+01  1  2  2  3  6  5        2 0.276285458467D-03 0.100000000000D+01
0.214087348929D-03 0.000000000000D+00 -.106113302222D-05 0.894009025986D-04 0.000000000000D+00  6 2 2 25 2 2 21 2 0.25528540D+00 0.32749114D+00 0.44535348D+06 0.44535348D+06 0.44535348D+06 0.10720811D+01  1  2  3  3  6  5        2 0.246034202563D-03 0.100000000000D+01
-.184259797740D-03 0.000000000000D+00 0.000000000000D+00 0.894009025986D-04 0.000000000000D+00  6 2 2 25 2 2 21 2 0.25528540D+00 0.32749114D+00 0.44535348D+06 0.44535348D+06 0.44535348D+06 0.10720811D+01  1  2 15  3  6  5        2 -.211755681165D-03 0.100000000000D+01
-.585114008308D-02 0.000000000000D+00 0.000000000000D+00 0.894009025986D-04 0.000000000000D+00  6 2 2 25 2 2 21 2 0.25528540D+00 0.32749114D+00 0.44535348D+06 0.44535348D+06 0.44535348D+06 0.10720811D+01  1  2  5  3  6  5        2 -.672426741527D-02 0.100000000000D+01
  </mgrwgt>
  </event>
  <event>
  6     66 -.18204334E-05 0.82174155E+02 0.75467711E-02 0.89298115E-01
        2 -1    0    0  503    0 0.00000000E+00 0.00000000E+00 0.12365154E+04 0.12365155E+04 0.32000000E+00 0.0000E+00 0.9000E+01
        2 -1    0    0  502    0 0.00000000E+00 0.00000000E+00 -.34010367E+04 0.34010367E+04 0.32000000E+00 0.0000E+00 0.9000E+01
       25  1    1    2    0    0 0.77094330E+03 0.19026387E+03 -.31727751E+03 0.86420133E+03 0.12500000E+03 0.0000E+00 0.9000E+01
        2  1    1    2  501    0 -.71874869E+02 -.57984117E+02 0.37694104E+03 0.38808866E+03 0.32000000E+00 0.0000E+00 0.9000E+01
        2  1    1    2  502    0 -.71472845E+03 -.14522432E+03 -.27571129E+04 0.28519464E+04 0.32000000E+00 0.0000E+00 0.9000E+01
       21  1    1    2  503  501 0.15660013E+02 0.12944573E+02 0.53292810E+03 0.53331577E+03 0.75000000E+00 0.0000E+00 0.9000E+01
#aMCatNLO 2  0  0  1  4 0.20317430D+02 0.00000000D+00  -5  6  0 0.00000000D+00 0.00000000D+00 0.00000000D+00 0.00000000D+00 0.00000000D+00
  <mgrwgt>
 -.2565805898D-02    3    2    0
 0.154661814402403D+04 0.000000000000000D+00 0.000000000000000D+00 0.154661814402403D+04
 0.154661814402403D+04 0.000000000000000D+00 0.000000000000000D+00 -.154661814402403D+04
 0.874782497412667D+03 0.775421036158804D+03 0.193921244796432D+03 0.332770469360717D+03
 0.842898163069014D+03 -.675943344829955D+02 -.544460595120742D+02 0.838417524777796D+03
 0.137555562756639D+04 -.707826701675808D+03 -.139475185284358D+03 -.117118799413851D+04
 0.000000000000000D+00 0.000000000000000D+00 0.000000000000000D+00 0.000000000000000D+00
 0.271890240246094D+04 0.000000000000000D+00 0.000000000000000D+00 0.271890240246094D+04
 0.154673954194347D+04 0.000000000000000D+00 0.000000000000000D+00 -.154673954194347D+04
 0.870064150804306D+03 0.771004298577356D+03 0.190270367665346D+03 0.332770469360717D+03
 0.843486398655650D+03 -.718630867416278D+02 -.579746119134606D+02 0.838417524777796D+03
 0.137975246377125D+04 -.714801224513053D+03 -.145240328777077D+03 -.117118799413851D+04
 0.117233893117321D+04 0.156600126773250D+02 0.129445730251913D+02 0.117216286051746D+04
-.195573101491D-01 0.000000000000D+00 0.000000000000D+00 0.290587751858D-05 0.000000000000D+00  6 2 2 25 2 2 21 2 0.19389603D+00 0.52319531D+00 0.67730476D+06 0.67730476D+06 0.67730476D+06 0.10593173D+01  1  2 13  1  6  1        2 -.581017899670D-02 0.100000000000D+01
-.182139999011D-08 0.000000000000D+00 0.000000000000D+00 0.290587751858D-05 0.000000000000D+00  6 2 2 25 2 2 21 2 0.19023561D+00 0.52319531D+00 0.67730476D+06 0.67730476D+06 0.67730476D+06 0.10593173D+01  1  2 13  1  6  1        2 -.558620605829D-09 0.100000000000D+01
0.105827055928D-01 0.000000000000D+00 0.000000000000D+00 0.290587751858D-05 0.255340388649D-07  6 2 2 25 2 2 21 2 0.19023313D+00 0.52323638D+00 0.67730476D+06 0.67730476D+06 0.67730476D+06 0.10593173D+01  1  2  1  1  6  1        2 0.324437365707D-02 0.100000000000D+01
  </mgrwgt>
  </event>
  <event>
  5     66 0.18204334E-05 0.63530349E+02 0.75467711E-02 0.92959494E-01
        2 -1    0    0  501    0 0.00000000E+00 0.00000000E+00 0.14333589E+04 0.14333590E+04 0.32000000E+00 0.0000E+00 0.9000E+01
        2 -1    0    0  502    0 0.00000000E+00 0.00000000E+00 -.18241562E+04 0.18241562E+04 0.32000000E+00 0.0000E+00 0.9000E+01
       25  1    1    2    0    0 0.49418129E+03 -.16484321E+03 -.16128821E+03 0.55948844E+03 0.12500000E+03 0.0000E+00 0.9000E+01
        2  1    1    2  501    0 -.51522616E+03 0.22478233E+03 0.11694976E+04 0.12975785E+04 0.32000000E+00 0.0000E+00 0.9000E+01
        2  1    1    2  502    0 0.21044867E+02 -.59939126E+02 -.13990067E+04 0.14004483E+04 0.32000000E+00 0.0000E+00 0.9000E+01
#aMCatNLO 1  0  0  2  4 0.36205264D+03 0.00000000D+00  -5  6  0 0.00000000D+00 0.00000000D+00 0.00000000D+00 0.00000000D+00 0.00000000D+00
  <mgrwgt>
 0.1175762096D-01    3    2    0
 0.161699433747903D+04 0.000000000000000D+00 0.000000000000000D+00 0.161699433747903D+04
 0.161699433747903D+04 0.000000000000000D+00 0.000000000000000D+00 -.161699433747903D+04
 0.544047038689296D+03 0.494172319011539D+03 -.164835907579630D+03 -.947893612266130D+02
 0.144831904177759D+04 -.515218392868973D+03 0.224778947280386D+03 0.133478555554239D+04
 0.124162259449117D+04 0.210460738574335D+02 -.599430397007553D+02 -.123999619431577D+04
 0.000000000000000D+00 0.000000000000000D+00 -.000000000000000D+00 0.000000000000000D+00
 0.236916007855208D+04 0.000000000000000D+00 0.000000000000000D+00 0.236916007855208D+04
 0.226338111589868D+04 0.000000000000000D+00 0.000000000000000D+00 -.226338111589868D+04
 0.475737824356373D+03 0.449011963867907D+03 0.102328307457309D+02 -.947893612266130D+02
 0.166911632524925D+04 -.653271518987932D+03 0.759956018732767D+03 0.133478555554239D+04
 0.129903659413155D+04 -.914649815768091D+02 0.376217580823180D+03 -.123999619431577D+04
 0.118865045071359D+04 0.295724536696834D+03 -.114640643030168D+04 0.105778962653393D+03
0.823368612508D-02 0.000000000000D+00 0.000000000000D+00 0.407523496553D-04 0.000000000000D+00  6 2 2 25 2 2 21 0 0.22051676D+00 0.28063942D+00 0.33719693D+06 0.33719693D+06 0.33719693D+06 0.10808161D+01  1  2  2  2  6  2        2 0.165071698428D-01 0.100000000000D+01
0.354642534450D-02 0.000000000000D+00 -.316195226997D-04 0.407523496553D-04 0.000000000000D+00  6 2 2 25 2 2 21 2 0.22051676D+00 0.28063942D+00 0.33719693D+06 0.33719693D+06 0.33719693D+06 0.10808161D+01  1  2  3  2  6  2        2 0.830563323609D-02 0.100000000000D+01
-.557443694266D-02 0.000000000000D+00 0.000000000000D+00 0.407523496553D-04 0.000000000000D+00  6 2 2 25 2 2 21 2 0.22051676D+00 0.28063942D+00 0.33719693D+06 0.33719693D+06 0.33719693D+06 0.10808161D+01  1  2 15  2  6  2        2 -.130551821189D-01 0.100000000000D+01
  </mgrwgt>
  </event>
  <event>
  5     66 0.18204334E-05 0.23252657E+02 0.75467711E-02 0.88630004E-01
        2 -1    0    0  501    0 0.00000000E+00 0.00000000E+00 0.42615041E+03 0.42615053E+03 0.32000000E+00 0.0000E+00 0.9000E+01
        2 -1    0    0  502    0 0.00000000E+00 0.00000000E+00 -.19618952E+04 0.19618952E+04 0.32000000E+00 0.0000E+00 0.9000E+01
       25  1    1    2    0    0 0.33767642E+03 -.35092594E+03 -.39800390E+03 0.64125384E+03 0.12500000E+03 0.0000E+00 0.9000E+01
        2  1    1    2  501    0 -.13252304E+02 0.19111766E+02 0.26667751E+03 0.26768990E+03 0.32000000E+00 0.0000E+00 0.9000E+01
        2  1    1    2  502    0 -.32442412E+03 0.33181417E+03 -.14044184E+04 0.14791020E+04 0.32000000E+00 0.0000E+00 0.9000E+01
#aMCatNLO 1  0  0  2  4 0.20413333D+03 0.00000000D+00  -5  6  0 0.00000000D+00 0.00000000D+00 0.00000000D+00 0.00000000D+00 0.00000000D+00
  <mgrwgt>
 0.9302241522D-02    6    2    0
 0.914364597850380D+03 0.000000000000000D+00 0.000000000000000D+00 0.914364597850380D+03
 0.914364597850380D+03 0.000000000000000D+00 0.000000000000000D+00 -.914364597850380D+03
 0.503214009043387D+03 0.337726107977520D+03 -.350976178134117D+03 0.188715995676733D+02
 0.573410777581946D+03 -.132498895082699D+02 0.191082834832336D+02 0.572939118735555D+03
 0.752104409075427D+03 -.324476218469250D+03 0.331867894650884D+03 -.591810718303229D+03
 0.000000000000000D+00 0.000000000000000D+00 0.000000000000000D+00 -.000000000000000D+00
 0.113154582977589D+04 0.000000000000000D+00 0.000000000000000D+00 0.113154582977589D+04
 0.148228411325391D+04 0.000000000000000D+00 0.000000000000000D+00 -.148228411325391D+04
 0.629899680927629D+03 0.316923990238444D+03 -.529482440855056D+03 0.188715995676733D+02
 0.597326250160369D+03 -.347427103153449D+02 -.165325011517065D+03 0.572939118735555D+03
 0.695879304889435D+03 -.351058835878921D+03 0.103758249918532D+03 -.591810718303229D+03
 0.690724707052370D+03 0.688775559558217D+02 0.591049202453590D+03 -.350738283478025D+03
0.604939676879D-03 0.000000000000D+00 0.000000000000D+00 0.971321722340D-05 0.000000000000D+00  6 2 2 25 2 2 21 0 0.65561613D-01 0.30183004D+00 0.24514752D+06 0.24514752D+06 0.24514752D+06 0.10911001D+01  1  2  2  2  6  2        2 0.527328699938D-02 0.100000000000D+01
0.417697893095D-03 0.000000000000D+00 -.232312764349D-05 0.971321722340D-05 0.000000000000D+00  6 2 2 25 2 2 21 2 0.65561613D-01 0.30183004D+00 0.24514752D+06 0.24514752D+06 0.24514752D+06 0.10911001D+01  1  2  3  2  6  2        2 0.433471747970D-02 0.100000000000D+01
-.392955529305D-03 0.000000000000D+00 0.000000000000D+00 0.971321722340D-05 0.000000000000D+00  6 2 2 25 2 2 21 2 0.65561613D-01 0.30183004D+00 0.24514752D+06 0.24514752D+06 0.24514752D+06 0.10911001D+01  1  2 15  2  6  2        2 -.407795018788D-02 0.100000000000D+01
-.251053144392D-03 0.000000000000D+00 -.308608448039D-03 0.971321722340D-05 0.000000000000D+00  6 2 2 25 2 2 21 2 0.65561613D-01 0.51965296D+00 0.24514752D+06 0.24514752D+06 0.24514752D+06 0.10911001D+01  1  2  5  2  6  2        2 -.367726933942D-03 0.100000000000D+01
0.398925981277D-03 0.000000000000D+00 0.268063319289D-03 0.971321722340D-05 0.000000000000D+00  6 2 2 25 2 2 21 2 0.65561613D-01 0.30183004D+00 0.24514752D+06 0.24514752D+06 0.24514752D+06 0.10911001D+01  1  2  6  2  6  2        2 0.413990937644D-02 0.100000000000D+01
0.778320154486D-07 0.000000000000D+00 -.186103203419D-04 0.971321722340D-05 0.000000000000D+00  6 2 21 25 2 2 -2 2 0.65561613D-01 0.51965296D+00 0.24514752D+06 0.24514752D+06 0.24514752D+06 0.10911001D+01  1  2  5  5  6  2        2 0.478833193630D-08 0.100000000000D+01
  </mgrwgt>
  </event>
  <event>
  6     66 0.18204334E-05 0.15571664E+03 0.75467711E-02 0.91451113E-01
        2 -1    0    0  501    0 0.00000000E+00 0.00000000E+00 0.22831862E+04 0.22831862E+04 0.32000000E+00 0.0000E+00 0.9000E+01
        2 -1    0    0  502    0 0.00000000E+00 0.00000000E+00 -.10039044E+04 0.10039044E+04 0.32000000E+00 0.0000E+00 0.9000E+01
       25  1    1    2    0    0 0.12007699E+03 0.52390675E+03 0.11224295E+04 0.12507477E+04 0.12500000E+03 0.0000E+00 0.9000E+01
        2  1    1    2  501    0 0.17534047E+03 -.53465010E+00 0.98754958E+03 0.10029949E+04 0.32000000E+00 0.0000E+00 0.9000E+01
        2  1    1    2  503    0 -.25087614E+03 -.49814720E+03 -.71488092E+03 0.90672173E+03 0.32000000E+00 0.0000E+00 0.9000E+01
       21  1    1    2  502  503 -.44541321E+02 -.25224893E+02 -.11581636E+03 0.12662628E+03 0.75000000E+00 0.0000E+00 0.9000E+01
#aMCatNLO 2  0  0  5  2 0.42587123D+02 0.00000000D+00  -5  6  0 0.00000000D+00 0.00000000D+00 0.00000000D+00 0.00000000D+00 0.00000000D+00
  <mgrwgt>
 0.1606901430D-02    3    2    0
 0.151396853500377D+04 0.000000000000000D+00 0.000000000000000D+00 0.151396853500377D+04
 0.151396853500377D+04 -.000000000000000D+00 -.000000000000000D+00 -.151396853500377D+04
 0.885291573711100D+03 0.120473339475603D+03 0.524543757768835D+03 0.691705277661825D+03
 0.672616001298985D+03 0.175551308125857D+03 -.881467675278324D-01 0.649302714955731D+03
 0.147002949499746D+04 -.296024647601460D+03 -.524455611001307D+03 -.134100799261756D+04
 0.000000000000000D+00 0.000000000000000D+00 0.000000000000000D+00 -.000000000000000D+00
 0.151396853500377D+04 0.000000000000000D+00 0.000000000000000D+00 0.151396853500377D+04
 0.151396853500377D+04 -.000000000000000D+00 -.000000000000000D+00 -.151396853500377D+04
 0.883724111986011D+03 0.120141590478975D+03 0.523956010687180D+03 0.690202436396323D+03
 0.671448171021036D+03 0.175299251604156D+03 -.534705721880048D+00 0.648160885000250D+03
 0.128633048246414D+04 -.250885915040531D+03 -.498190734896616D+03 -.115909808015279D+04
 0.186434304536355D+03 -.445549270426003D+02 -.252305700686849D+02 -.179265241243784D+03
-.118568513064D-02 0.000000000000D+00 0.000000000000D+00 0.512284738861D-06 0.000000000000D+00  6 2 2 25 2 2 21 2 0.35125942D+00 0.15444683D+00 0.44635480D+06 0.44635480D+06 0.44635480D+06 0.10720115D+01  1  2 13  3  6  5        2 -.265129923770D-02 0.100000000000D+01
-.897737109929D-09 0.000000000000D+00 0.000000000000D+00 0.512284738861D-06 0.000000000000D+00  6 2 2 25 2 2 21 2 0.35125942D+00 0.15444683D+00 0.44635480D+06 0.44635480D+06 0.44635480D+06 0.10720115D+01  1  2 13  3  6  5        2 -.200742140868D-08 0.100000000000D+01
0.190430696141D-02 0.000000000000D+00 0.000000000000D+00 0.512284738861D-06 0.300165097665D-08  6 2 2 25 2 2 21 2 0.35125942D+00 0.15444683D+00 0.44635480D+06 0.44635480D+06 0.44635480D+06 0.10720115D+01  1  2  1  3  6  5        2 0.425820267509D-02 0.100000000000D+01
  </mgrwgt>
  </event>
  <event>
  5     66 0.18204334E-05 0.74620466E+02 0.75467711E-02 0.91981268E-01
        2 -1    0    0  501    0 0.00000000E+00 0.00000000E+00 0.60841525E+03 0.60841533E+03 0.32000000E+00 0.0000E+00 0.9000E+01
        2 -1    0    0  502    0 -.00000000E+00 -.00000000E+00 -.13184860E+04 0.13184861E+04 0.32000000E+00 0.0000E+00 0.9000E+01
       25  1    1    2    0    0 0.39492184E+02 0.61448267E+03 0.47625451E+02 0.63011250E+03 0.12500000E+03 0.0000E+00 0.9000E+01
        2  1    1    2  501    0 -.82005812E+02 -.55317242E+03 -.24445345E+02 0.55975205E+03 0.32000000E+00 0.0000E+00 0.9000E+01
        2  1    1    2  502    0 0.42513628E+02 -.61310254E+02 -.73325088E+03 0.73703685E+03 0.32000000E+00 0.0000E+00 0.9000E+01
#aMCatNLO 1  0  0  5  2 0.19473621D+02 0.00000000D+00  -5  6  0 0.00000000D+00 0.00000000D+00 0.00000000D+00 0.00000000D+00 0.00000000D+00
  <mgrwgt>
 0.1353369246D-02    8    2    0
 0.895648995874554D+03 0.000000000000000D+00 0.000000000000000D+00 0.895648995874554D+03
 0.895648995874554D+03 -.000000000000000D+00 -.000000000000000D+00 -.895648995874554D+03
 0.696681089421721D+03 0.394728668991808D+02 0.614407017707032D+03 0.301140249267591D+03
 0.592343319220514D+03 -.819930212891769D+02 -.553086136730614D+03 0.195559396709678D+03
 0.502273583106873D+03 0.425201543899960D+02 -.613208809764175D+02 -.496699645977268D+03
 0.000000000000000D+00 0.000000000000000D+00 0.000000000000000D+00 -.000000000000000D+00
 0.895648995874554D+03 0.000000000000000D+00 0.000000000000000D+00 0.895648995874554D+03
 0.895648995874554D+03 -.000000000000000D+00 -.000000000000000D+00 -.895648995874554D+03
 0.696368665962255D+03 0.395227674018881D+02 0.614335053180301D+03 0.300557336002472D+03
 0.592231140387296D+03 -.819505885901292D+02 -.553147331486963D+03 0.195063718674233D+03
 0.238040114254807D+03 0.546852623621920D+01 -.418288291858686D+02 -.234272363423825D+03
 0.264658071144750D+03 0.369592949520218D+02 -.193588925074697D+02 -.261348691252880D+03
0.455498855191D-05 0.000000000000D+00 0.000000000000D+00 0.201405319091D-06 0.000000000000D+00  6 2 2 25 2 2 21 0 0.93602355D-01 0.20284401D+00 0.39815220D+06 0.39815220D+06 0.39815220D+06 0.10755726D+01  1  2  2  3  6  5        2 0.583291969182D-04 0.100000000000D+01
0.134405066566D-05 0.000000000000D+00 -.174923553954D-07 0.201405319091D-06 0.000000000000D+00  6 2 2 25 2 2 21 2 0.93602355D-01 0.20284401D+00 0.39815220D+06 0.39815220D+06 0.39815220D+06 0.10755726D+01  1  2  3  3  6  5        2 0.199110342343D-04 0.100000000000D+01
-.249243598009D-05 0.000000000000D+00 0.000000000000D+00 0.201405319091D-06 0.000000000000D+00  6 2 2 25 2 2 21 2 0.93602355D-01 0.20284401D+00 0.39815220D+06 0.39815220D+06 0.39815220D+06 0.10755726D+01  1  2 15  3  6  5        2 -.369234429878D-04 0.100000000000D+01
0.102957234199D-03 0.000000000000D+00 0.000000000000D+00 0.201405319091D-06 0.000000000000D+00  6 2 2 25 2 2 21 2 0.93602355D-01 0.20284401D+00 0.40402538D+06 0.40402538D+06 0.40402538D+06 0.10751143D+01  1  2 12  3  6  5        2 0.152297737222D-02 0.100000000000D+01
0.236581628301D-08 0.000000000000D+00 0.000000000000D+00 0.201405319091D-06 0.000000000000D+00  6 2 2 25 2 2 21 2 0.93602355D-01 0.20284401D+00 0.40402538D+06 0.40402538D+06 0.40402538D+06 0.10751143D+01  1  2 12  3  6  5        2 0.349959349033D-07 0.100000000000D+01
-.912519212071D-04 0.000000000000D+00 0.000000000000D+00 0.201405319091D-06 0.000000000000D+00  6 2 2 25 2 2 21 2 0.93602355D-01 0.20284401D+00 0.39815220D+06 0.39815220D+06 0.39815220D+06 0.10755726D+01  1  2  4  3  6  5        2 -.135182413395D-02 0.100000000000D+01
-.121421823120D-03 0.000000000000D+00 0.000000000000D+00 0.201405319091D-06 0.000000000000D+00  6 2 2 25 2 2 21 2 0.93602355D-01 0.20284401D+00 0.39815220D+06 0.39815220D+06 0.39815220D+06 0.10755726D+01  1  2  5  3  6  5        2 -.179876706935D-02 0.100000000000D+01
0.198433358585D-03 0.000000000000D+00 -.000000000000D+00 0.201405319091D-06 0.000000000000D+00  6 2 2 25 2 2 21 2 0.93602355D-01 0.20284401D+00 0.39815220D+06 0.39815220D+06 0.39815220D+06 0.10755726D+01  1  2  6  3  6  5        2 0.293963129290D-02 0.100000000000D+01
  </mgrwgt>
  </event>
  <event>
  6     66 0.18204334E-05 0.12367210E+03 0.75467711E-02 0.94971428E-01
        2 -1    0    0  501    0 0.00000000E+00 0.00000000E+00 0.92534272E+03 0.92534277E+03 0.32000000E+00 0.0000E+00 0.9000E+01
        2 -1    0    0  502    0 -.00000000E+00 -.00000000E+00 -.21629925E+04 0.21629925E+04 0.32000000E+00 0.0000E+00 0.9000E+01
       25  1    1    2    0    0 0.84155479E+02 0.44956118E+03 -.30836144E+03 0.56559630E+03 0.12500000E+03 0.0000E+00 0.9000E+01
        2  1    1    2  501    0 -.87697743E+02 -.32064801E+03 0.75771734E+03 0.82743079E+03 0.32000000E+00 0.0000E+00 0.9000E+01
        2  1    1    2  503    0 -.22269077E+02 -.13512984E+03 -.12461168E+04 0.12536200E+04 0.32000000E+00 0.0000E+00 0.9000E+01
       21  1    1    2  502  503 0.25811342E+02 0.62166757E+01 -.44088891E+03 0.44168820E+03 0.75000000E+00 0.0000E+00 0.9000E+01
#aMCatNLO 2  0  0  5  1 0.46885228D+02 0.00000000D+00  -5  6  0 0.00000000D+00 0.00000000D+00 0.00000000D+00 0.00000000D+00 0.00000000D+00
  <mgrwgt>
 0.1018204423D-01    2    2    0
 0.141474713451580D+04 0.000000000000000D+00 0.000000000000000D+00 0.141474713451580D+04
 0.141474713451580D+04 -.000000000000000D+00 -.000000000000000D+00 -.141474713451580D+04
 0.482391642241694D+03 0.841529002305310D+02 0.449663925197761D+03 -.883025495847724D+02
 0.123664799239957D+04 -.877050870278528D+02 -.320386034877981D+03 0.119120059749418D+04
 0.111045463439033D+04 0.355218679732178D+01 -.129277890319779D+03 -.110289804790941D+04
 0.000000000000000D+00 0.000000000000000D+00 0.000000000000000D+00 -.000000000000000D+00
 0.141474713451580D+04 0.000000000000000D+00 0.000000000000000D+00 0.141474713451580D+04
 0.141474713451580D+04 -.000000000000000D+00 -.000000000000000D+00 -.141474713451580D+04
 0.482457461364265D+03 0.841557168611220D+02 0.449561417058017D+03 -.891770690168176D+02
 0.123455825617169D+04 -.876978729722141D+02 -.320648582414708D+03 0.118896074685133D+04
 0.823080230603157D+03 -.222795615103652D+02 -.135127196430105D+03 -.811606633741736D+03
 0.289398320892483D+03 0.258217176214572D+02 0.621436178679649D+01 -.288177044092775D+03
-.107845060191D-09 0.000000000000D+00 0.000000000000D+00 0.375276568018D-04 0.000000000000D+00  6 2 2 25 2 2 21 2 0.14236042D+00 0.33276808D+00 0.23526369D+06 0.23526369D+06 0.23526369D+06 0.10924496D+01  1  2 13  3  6  5        2 -.343496451133D-09 0.100000000000D+01
0.319678181829D-02 0.000000000000D+00 0.000000000000D+00 0.375276568018D-04 0.855635734529D-07  6 2 2 25 2 2 21 2 0.14236042D+00 0.33276808D+00 0.23526369D+06 0.23526369D+06 0.23526369D+06 0.10924496D+01  1  2  1  3  6  5        2 0.101820445710D-01 0.100000000000D+01
  </mgrwgt>
  </event>
  <event>
  5     66 0.18204334E-05 0.48689448E+02 0.75467711E-02 0.88786000E-01
        2 -1    0    0  501    0 0.00000000E+00 0.00000000E+00 0.94935793E+03 0.94935798E+03 0.32000000E+00 0.0000E+00 0.9000E+01
        2 -1    0    0  502    0 0.00000000E+00 0.00000000E+00 -.39182387E+04 0.39182388E+04 0.32000000E+00 0.0000E+00 0.9000E+01
       25  1    1    2    0    0 0.70994643E+03 -.27076316E+02 0.28839011E+03 0.77688539E+03 0.12500000E+03 0.0000E+00 0.9000E+01
        2  1    1    2  501    0 -.55626098E+01 -.48382406E+02 0.38100689E+03 0.38410695E+03 0.32000000E+00 0.0000E+00 0.9000E+01
        2  1    1    2  502    0 -.70438382E+03 0.75458722E+02 -.36382778E+04 0.37066044E+04 0.32000000E+00 0.0000E+00 0.9000E+01
#aMCatNLO 1  0  0  2  2 0.23065736D+03 0.00000000D+00  -5  6  0 0.00000000D+00 0.00000000D+00 0.00000000D+00 0.00000000D+00 0.00000000D+00
  <mgrwgt>
 0.2805135426D-02    7    2    0
 0.192868120408957D+04 0.000000000000000D+00 0.000000000000000D+00 0.192868120408957D+04
 0.192868120408957D+04 0.000000000000000D+00 0.000000000000000D+00 -.192868120408957D+04
 0.120248828739572D+04 0.710002527858896D+03 -.270931234228716D+02 0.962037137755638D+03
 0.777765105550328D+03 -.556127576099326D+01 -.483708027427139D+02 0.776239587412062D+03
 0.187710901523309D+04 -.704441252097903D+03 0.754639261655854D+02 -.173827672516770D+04
 0.000000000000000D+00 0.000000000000000D+00 -.000000000000000D+00 -.000000000000000D+00
 0.196108034827744D+04 0.000000000000000D+00 0.000000000000000D+00 0.196108034827744D+04
 0.239149854532063D+04 0.000000000000000D+00 0.000000000000000D+00 -.239149854532063D+04
 0.117956177804434D+04 0.670229332252061D+03 0.319088700995221D+02 0.962037137755638D+03
 0.776941874940698D+03 -.315202871787311D+02 -.986161583559264D+01 0.776239587412062D+03
 0.190774887074984D+04 -.767637192110802D+03 0.169212652824145D+03 -.173827672516770D+04
 0.488326369863191D+03 0.128928147037472D+03 -.191259907088075D+03 -.430418197043186D+03
0.358153142294D-02 0.000000000000D+00 0.000000000000D+00 0.204394256854D-04 0.000000000000D+00  6 2 2 25 2 2 21 0 0.14605507D+00 0.60280597D+00 0.54655872D+06 0.54655872D+06 0.54655872D+06 0.10657883D+01  1  2  2  2  6  2        2 0.612505019349D-03 0.100000000000D+01
0.142475024794D-02 0.000000000000D+00 -.137540237030D-04 0.204394256854D-04 0.000000000000D+00  6 2 2 25 2 2 21 2 0.14605507D+00 0.60280597D+00 0.54655872D+06 0.54655872D+06 0.54655872D+06 0.10657883D+01  1  2  3  2  6  2        2 0.276771608726D-03 0.100000000000D+01
-.222262843298D-02 0.000000000000D+00 0.000000000000D+00 0.204394256854D-04 0.000000000000D+00  6 2 2 25 2 2 21 2 0.14605507D+00 0.60280597D+00 0.54655872D+06 0.54655872D+06 0.54655872D+06 0.10657883D+01  1  2 15  2  6  2        2 -.431767215263D-03 0.100000000000D+01
-.234895062620D-02 0.000000000000D+00 0.000000000000D+00 0.204394256854D-04 0.000000000000D+00  6 2 2 25 2 2 21 2 0.14605507D+00 0.60280597D+00 0.54655872D+06 0.54655872D+06 0.54655872D+06 0.10657883D+01  1  2  4  2  6  2        2 -.456306531319D-03 0.100000000000D+01
-.147410937561D-01 0.000000000000D+00 -.198594022793D-02 0.204394256854D-04 0.000000000000D+00  6 2 2 25 2 2 21 2 0.14605507D+00 0.74889908D+00 0.54655872D+06 0.54655872D+06 0.54655872D+06 0.10657883D+01  1  2  5  2  6  2        2 -.340046724302D-03 0.100000000000D+01
0.161847912237D-01 0.000000000000D+00 0.215940807284D-02 0.204394256854D-04 0.000000000000D+00  6 2 2 25 2 2 21 2 0.14605507D+00 0.60280597D+00 0.54655872D+06 0.54655872D+06 0.54655872D+06 0.10657883D+01  1  2  6  2  6  2        2 0.314405328959D-02 0.100000000000D+01
-.422592691803D-03 0.000000000000D+00 -.604740445171D-04 0.204394256854D-04 0.000000000000D+00  6 2 21 25 2 2 -2 2 0.14605507D+00 0.74889908D+00 0.54655872D+06 0.54655872D+06 0.54655872D+06 0.10657883D+01  1  2  5  5  6  2        2 -.740211075606D-07 0.100000000000D+01
  </mgrwgt>
  </event>
  <event>
  5     66 0.18204334E-05 0.32908821E+02 0.75467711E-02 0.93864438E-01
        2 -1    0    0  501    0 0.00000000E+00 0.00000000E+00 0.10936984E+04 0.10936985E+04 0.32000000E+00 0.0000E+00 0.9000E+01
        2 -1    0    0  502    0 -.00000000E+00 -.00000000E+00 -.13179930E+04 0.13179930E+04 0.32000000E+00 0.0000E+00 0.9000E+01
       25  1    1    2    0    0 -.35448455E+03 -.43592924E+03 0.13016811E+03 0.59013755E+03 0.12500000E+03 0.0000E+00 0.9000E+01
        2  1    1    2  501    0 -.30464620E+02 -.12460111E+02 0.65285310E+03 0.65368235E+03 0.32000000E+00 0.0000E+00 0.9000E+01
        2  1    1    2  502    0 0.38494917E+03 0.44838935E+03 -.10073158E+04 0.11678716E+04 0.32000000E+00 0.0000E+00 0.9000E+01
#aMCatNLO 1  0  0  5  2 0.27036728D+03 0.00000000D+00  -5  6  0 0.00000000D+00 0.00000000D+00 0.00000000D+00 0.00000000D+00 0.00000000D+00
  <mgrwgt>
 0.1364538346D-01    4    2    0
 0.120061940335822D+04 0.000000000000000D+00 0.000000000000000D+00 0.120061940335822D+04
 0.120061940335822D+04 -.000000000000000D+00 -.000000000000000D+00 -.120061940335822D+04
 0.604964952252921D+03 -.354535750033609D+03 -.435986283530728D+03 0.185951488231604D+03
 0.717391169053375D+03 -.304596005385136D+02 -.124580580181901D+02 0.716635959857736D+03
 0.107888268541015D+04 0.384995350572123D+03 0.448444341548918D+03 -.902587448089340D+03
 0.000000000000000D+00 0.000000000000000D+00 0.000000000000000D+00 0.000000000000000D+00
 0.120061940335822D+04 0.000000000000000D+00 0.000000000000000D+00 0.120061940335822D+04
 0.120061940335822D+04 -.000000000000000D+00 -.000000000000000D+00 -.120061940335822D+04
 0.548009848858403D+03 -.326943798854629D+03 -.403847052861787D+03 0.121264606259050D+03
 0.640934955157186D+03 0.204663296132152D+01 0.254053511279371D+02 0.640427978909363D+03
 0.941799014738068D+03 0.137079796545022D+03 0.241414321683371D+03 -.899952020291598D+03
 0.270494987962792D+03 0.187817369348285D+03 0.137027380050479D+03 0.138259435123185D+03
0.246103196833D-02 0.000000000000D+00 0.000000000000D+00 0.126106002136D-04 0.000000000000D+00  6 2 2 25 2 2 21 0 0.16826130D+00 0.20276816D+00 0.35977355D+06 0.35977355D+06 0.35977355D+06 0.10787617D+01  1  2  2  3  6  5        2 0.146405791004D-01 0.100000000000D+01
0.149135434739D-02 0.000000000000D+00 -.945101076300D-05 0.126106002136D-04 0.000000000000D+00  6 2 2 25 2 2 21 2 0.16826130D+00 0.20276816D+00 0.35977355D+06 0.35977355D+06 0.35977355D+06 0.10787617D+01  1  2  3  3  6  5        2 0.103245923932D-01 0.100000000000D+01
-.162600198823D-02 0.000000000000D+00 0.000000000000D+00 0.126106002136D-04 0.000000000000D+00  6 2 2 25 2 2 21 2 0.16826130D+00 0.20276816D+00 0.35977355D+06 0.35977355D+06 0.35977355D+06 0.10787617D+01  1  2 15  3  6  5        2 -.112567531576D-01 0.100000000000D+01
-.910518679433D-05 0.000000000000D+00 0.000000000000D+00 0.126106002136D-04 0.000000000000D+00  6 2 2 25 2 2 21 2 0.16826130D+00 0.20276816D+00 0.35977355D+06 0.35977355D+06 0.35977355D+06 0.10787617D+01  1  2  4  3  6  5        2 -.630348799936D-04 0.100000000000D+01
  </mgrwgt>
  </event>
  <event>
  5     66 0.18204334E-05 0.22169501E+02 0.75467711E-02 0.90173780E-01
        2 -1    0    0  501    0 0.00000000E+00 0.00000000E+00 0.50448527E+03 0.50448537E+03 0.32000000E+00 0.0000E+00 0.9000E+01
        2 -1    0    0  502    0 0.00000000E+00 0.00000000E+00 -.17579726E+04 0.17579726E+04 0.32000000E+00 0.0000E+00 0.9000E+01
       25  1    1    2    0    0 0.64122444E+03 -.32226441E+03 -.36147318E+03 0.81321030E+03 0.12500000E+03 0.0000E+00 0.9000E+01
        2  1    1    2  501    0 -.62155771E+03 0.31203834E+03 -.15583106E+03 0.71273090E+03 0.32000000E+00 0.0000E+00 0.9000E+01
        2  1    1    2  502    0 -.19666730E+02 0.10226071E+02 -.73618308E+03 0.73651679E+03 0.32000000E+00 0.0000E+00 0.9000E+01
#aMCatNLO 1  0  0  2  1 0.81088587D+02 0.00000000D+00  -5  6  0 0.00000000D+00 0.00000000D+00 0.00000000D+00 0.00000000D+00 0.00000000D+00
  <mgrwgt>
 0.1741216142D-02    7    2    0
 0.941738509246390D+03 0.000000000000000D+00 0.000000000000000D+00 0.941738509246390D+03
 0.941738509246390D+03 0.000000000000000D+00 0.000000000000000D+00 -.941738509246390D+03
 0.736246783325175D+03 0.641189039431308D+03 -.322246684270947D+03 0.107088823628820D+03
 0.752387463519701D+03 -.621519627079228D+03 0.312019221934567D+03 0.287131073832585D+03
 0.394842771647904D+03 -.196694123520804D+02 0.102274623363798D+02 -.394219897461405D+03
 0.000000000000000D+00 -.000000000000000D+00 0.000000000000000D+00 -.000000000000000D+00
 0.955715765314912D+03 0.000000000000000D+00 0.000000000000000D+00 0.955715765314912D+03
 0.106804798511108D+04 0.000000000000000D+00 0.000000000000000D+00 -.106804798511108D+04
 0.767822285081725D+03 0.669957532663547D+03 -.337068167807774D+03 0.107088823628820D+03
 0.723145382569388D+03 -.593296949285832D+03 0.297478941673688D+03 0.287131073832585D+03
 0.394254080074681D+03 -.457627074362542D+01 0.245149895648266D+01 -.394219897461405D+03
 0.138542002700198D+03 -.720843126340893D+02 0.371377271776035D+02 -.112332219796168D+03
0.413498550049D-04 0.000000000000D+00 0.000000000000D+00 0.586176831855D-06 0.000000000000D+00  6 2 2 25 2 2 21 0 0.77613128D-01 0.27045733D+00 0.52275119D+06 0.52275119D+06 0.52275119D+06 0.10671473D+01  1  2  2  2  6  2        2 0.370964999039D-03 0.100000000000D+01
0.296760820376D-04 0.000000000000D+00 -.158794330886D-06 0.586176831855D-06 0.000000000000D+00  6 2 2 25 2 2 21 2 0.77613128D-01 0.27045733D+00 0.52275119D+06 0.52275119D+06 0.52275119D+06 0.10671473D+01  1  2  3  2  6  2        2 0.303189552935D-03 0.100000000000D+01
-.280529542633D-04 0.000000000000D+00 0.000000000000D+00 0.586176831855D-06 0.000000000000D+00  6 2 2 25 2 2 21 2 0.77613128D-01 0.27045733D+00 0.52275119D+06 0.52275119D+06 0.52275119D+06 0.10671473D+01  1  2 15  2  6  2        2 -.286606656863D-03 0.100000000000D+01
-.554496005966D-05 0.000000000000D+00 0.000000000000D+00 0.586176831855D-06 0.000000000000D+00  6 2 2 25 2 2 21 2 0.77613128D-01 0.27045733D+00 0.52275119D+06 0.52275119D+06 0.52275119D+06 0.10671473D+01  1  2  4  2  6  2        2 -.566508058374D-04 0.100000000000D+01
-.501265155455D-03 0.000000000000D+00 -.658420766689D-04 0.586176831855D-06 0.000000000000D+00  6 2 2 25 2 2 21 2 0.77613128D-01 0.30836895D+00 0.52275119D+06 0.52275119D+06 0.52275119D+06 0.10671473D+01  1  2  5  2  6  2        2 -.374617832465D-02 0.100000000000D+01
0.506104001619D-03 0.000000000000D+00 0.652795765709D-04 0.586176831855D-06 0.000000000000D+00  6 2 2 25 2 2 21 2 0.77613128D-01 0.27045733D+00 0.52275119D+06 0.52275119D+06 0.52275119D+06 0.10671473D+01  1  2  6  2  6  2        2 0.517067737563D-02 0.100000000000D+01
-.988675393673D-05 0.000000000000D+00 -.134573403236D-05 0.586176831855D-06 0.000000000000D+00  6 2 21 25 2 2 -2 2 0.77613128D-01 0.30836895D+00 0.52275119D+06 0.52275119D+06 0.52275119D+06 0.10671473D+01  1  2  5  5  6  2        2 -.141799986851D-04 0.100000000000D+01
  </mgrwgt>
  </event>
  <event>
  5     66 -.18204334E-05 0.11268163E+02 0.75467711E-02 0.94513351E-01
        2 -1    0    0  501    0 0.00000000E+00 0.00000000E+00 0.12386742E+04 0.12386742E+04 0.32000000E+00 0.0000E+00 0.9000E+01
        2 -1    0    0  502    0 -.00000000E+00 -.00000000E+00 -.19626981E+04 0.19626981E+04 0.32000000E+00 0.0000E+00 0.9000E+01
       25  1    1    2    0    0 0.49413509E+03 -.35563509E+02 0.29436729E+03 0.58967054E+03 0.12500000E+03 0.0000E+00 0.9000E+01
        2  1    1    2  501    0 -.91260763E+01 0.66118391E+01 0.76409697E+03 0.76418013E+03 0.32000000E+00 0.0000E+00 0.9000E+01
        2  1    1    2  502    0 -.48500901E+03 0.28951669E+02 -.17824882E+04 0.18475217E+04 0.32000000E+00 0.0000E+00 0.9000E+01
#aMCatNLO 1  0  0  5  5 0.64172669D+02 0.00000000D+00  -5  6  0 0.00000000D+00 0.00000000D+00 0.00000000D+00 0.00000000D+00 0.00000000D+00
  <mgrwgt>
 -.2182314654D-01    6    2    0
 0.155921246749300D+04 0.000000000000000D+00 0.000000000000000D+00 0.155921246749300D+04
 0.155921246749300D+04 -.000000000000000D+00 -.000000000000000D+00 -.155921246749300D+04
 0.673804807680389D+03 0.494180964127029D+03 -.355656154883678D+02 0.439213137944005D+03
 0.961797401100896D+03 -.912499179524106D+01 0.661105332943794D+01 0.961731391430606D+03
 0.148282272620472D+04 -.485055972331788D+03 0.289545621589299D+02 -.140094452937461D+04
 0.000000000000000D+00 -.000000000000000D+00 0.000000000000000D+00 0.000000000000000D+00
 0.155921246749300D+04 0.000000000000000D+00 0.000000000000000D+00 0.155921246749300D+04
 0.155921246749300D+04 -.000000000000000D+00 -.000000000000000D+00 -.155921246749300D+04
 0.673613277254150D+03 0.494107835443689D+03 -.355612502003843D+02 0.439001926795788D+03
 0.961496979772826D+03 -.922937512460359D+01 0.661728430848115D+01 0.961429910235508D+03
 0.142733308686867D+04 -.461796013580207D+03 0.369288829211798D+02 -.135005942103215D+04
 0.559815910903631D+02 -.230824467388783D+02 -.798491702927672D+01 -.503724159991461D+02
0.205703544017D-03 0.000000000000D+00 0.000000000000D+00 0.155582527541D-03 0.000000000000D+00  6 2 2 25 2 2 21 0 0.19056526D+00 0.30195356D+00 0.25410252D+06 0.25410252D+06 0.25410252D+06 0.10899277D+01  1  2  2  3  6  5        2 0.455599355037D-03 0.100000000000D+01
0.215475255493D-03 0.000000000000D+00 -.789955772013D-06 0.155582527541D-03 0.000000000000D+00  6 2 2 25 2 2 21 2 0.19056526D+00 0.30195356D+00 0.25410252D+06 0.25410252D+06 0.25410252D+06 0.10899277D+01  1  2  3  3  6  5        2 0.566936109837D-03 0.100000000000D+01
-.120397565598D-03 0.000000000000D+00 0.000000000000D+00 0.155582527541D-03 0.000000000000D+00  6 2 2 25 2 2 21 2 0.19056526D+00 0.30195356D+00 0.25410252D+06 0.25410252D+06 0.25410252D+06 0.10899277D+01  1  2 15  3  6  5        2 -.316777568347D-03 0.100000000000D+01
-.937682035367D-02 0.000000000000D+00 0.000000000000D+00 0.155582527541D-03 0.000000000000D+00  6 2 2 25 2 2 21 2 0.19056526D+00 0.30195356D+00 0.25410252D+06 0.25410252D+06 0.25410252D+06 0.10899277D+01  1  2  4  3  6  5        2 -.246713157007D-01 0.100000000000D+01
-.211687126941D-01 0.000000000000D+00 0.000000000000D+00 0.155582527541D-03 0.000000000000D+00  6 2 2 25 2 2 21 2 0.19056526D+00 0.30195356D+00 0.25410252D+06 0.25410252D+06 0.25410252D+06 0.10899277D+01  1  2  5  3  6  5        2 -.556969179481D-01 0.100000000000D+01
0.219829783688D-01 0.000000000000D+00 -.000000000000D+00 0.155582527541D-03 0.000000000000D+00  6 2 2 25 2 2 21 2 0.19056526D+00 0.30195356D+00 0.25410252D+06 0.25410252D+06 0.25410252D+06 0.10899277D+01  1  2  6  3  6  5        2 0.578393292098D-01 0.100000000000D+01
  </mgrwgt>
  </event>
  <event>
  5     66 0.18204334E-05 0.74196752E+02 0.75467711E-02 0.90147779E-01
        2 -1    0    0  501    0 0.00000000E+00 0.00000000E+00 0.29121251E+04 0.29121252E+04 0.32000000E+00 0.0000E+00 0.9000E+01
        2 -1    0    0  502    0 0.00000000E+00 0.00000000E+00 -.15636030E+04 0.15636031E+04 0.32000000E+00 0.0000E+00 0.9000E+01
       25  1    1    2    0    0 -.47754367E+03 0.52212348E+03 0.11775156E+04 0.13794306E+04 0.12500000E+03 0.0000E+00 0.9000E+01
        2  1    1    2  501    0 0.53852147E+03 -.47986144E+03 0.15529905E+04 0.17123235E+04 0.32000000E+00 0.0000E+00 0.9000E+01
        2  1    1    2  502    0 -.60977798E+02 -.42262037E+02 -.13819840E+04 0.13839741E+04 0.32000000E+00 0.0000E+00 0.9000E+01
#aMCatNLO 1  0  0  5  1 0.24959543D+02 0.00000000D+00  -5  6  0 0.00000000D+00 0.00000000D+00 0.00000000D+00 0.00000000D+00 0.00000000D+00
  <mgrwgt>
 0.9294585962D-03    7    2    0
 0.213387156160768D+04 0.000000000000000D+00 0.000000000000000D+00 0.213387156160768D+04
 0.213387156160768D+04 -.000000000000000D+00 -.000000000000000D+00 -.213387156160768D+04
 0.107465225911413D+04 -.477490532333916D+03 0.522083058815218D+03 0.799177420382181D+03
 0.130493971167396D+04 0.538472629621923D+03 -.479817921680317D+03 0.108751535174734D+04
 0.188815115242728D+04 -.609820972880068D+02 -.422651371349017D+02 -.188669277212952D+04
 0.000000000000000D+00 -.000000000000000D+00 0.000000000000000D+00 0.000000000000000D+00
 0.213387156160768D+04 0.000000000000000D+00 0.000000000000000D+00 0.213387156160768D+04
 0.213387156160768D+04 -.000000000000000D+00 -.000000000000000D+00 -.213387156160768D+04
 0.107447440047065D+04 -.477498299574574D+03 0.522077675538713D+03 0.798937113842045D+03
 0.130469505285916D+04 0.538463198041352D+03 -.479824458468390D+03 0.108722355307717D+04
 0.146895332301919D+04 -.253707229253563D+02 -.212518931231568D+02 -.146858045358981D+04
 0.419620346866358D+03 -.355941755414214D+02 -.210013239471664D+02 -.417580213329410D+03
0.475154811927D-04 0.000000000000D+00 0.000000000000D+00 0.129720994632D-04 0.000000000000D+00  6 2 2 25 2 2 21 0 0.44801926D+00 0.24055432D+00 0.57297035D+06 0.57297035D+06 0.57297035D+06 0.10643541D+01  1  2  2  3  6  5        2 0.181546685515D-04 0.100000000000D+01
0.235029577763D-04 0.000000000000D+00 -.182471958894D-06 0.129720994632D-04 0.000000000000D+00  6 2 2 25 2 2 21 2 0.44801926D+00 0.24055432D+00 0.57297035D+06 0.57297035D+06 0.57297035D+06 0.10643541D+01  1  2  3  3  6  5        2 0.101729749981D-04 0.100000000000D+01
-.299063854230D-04 0.000000000000D+00 0.000000000000D+00 0.129720994632D-04 0.000000000000D+00  6 2 2 25 2 2 21 2 0.44801926D+00 0.24055432D+00 0.57297035D+06 0.57297035D+06 0.57297035D+06 0.10643541D+01  1  2 15  3  6  5        2 -.129446222934D-04 0.100000000000D+01
0.827703169120D-10 0.000000000000D+00 0.000000000000D+00 0.129720994632D-04 0.000000000000D+00  6 2 2 25 2 2 21 2 0.44801926D+00 0.24055432D+00 0.57314094D+06 0.57314094D+06 0.57314094D+06 0.10643451D+01  1  2 12  3  6  5        2 0.358244771140D-10 0.100000000000D+01
-.188935363498D-02 0.000000000000D+00 0.000000000000D+00 0.129720994632D-04 0.000000000000D+00  6 2 2 25 2 2 21 2 0.44801926D+00 0.24055432D+00 0.57297035D+06 0.57297035D+06 0.57297035D+06 0.10643541D+01  1  2  4  3  6  5        2 -.817784190155D-03 0.100000000000D+01
-.162534446917D-01 0.000000000000D+00 0.000000000000D+00 0.129720994632D-04 0.000000000000D+00  6 2 2 25 2 2 21 2 0.44801926D+00 0.24055432D+00 0.57297035D+06 0.57297035D+06 0.57297035D+06 0.10643541D+01  1  2  5  3  6  5        2 -.703510971071D-02 0.100000000000D+01
0.202546170232D-01 0.000000000000D+00 -.000000000000D+00 0.129720994632D-04 0.000000000000D+00  6 2 2 25 2 2 21 2 0.44801926D+00 0.24055432D+00 0.57297035D+06 0.57297035D+06 0.57297035D+06 0.10643541D+01  1  2  6  3  6  5        2 0.876696943996D-02 0.100000000000D+01
  </mgrwgt>
  </event>
  <event>
  5     66 0.18204334E-05 0.17037028E+02 0.75467711E-02 0.90614705E-01
        2 -1    0    0  501    0 0.00000000E+00 0.00000000E+00 0.12035490E+04 0.12035491E+04 0.32000000E+00 0.0000E+00 0.9000E+01
        2 -1    0    0  502    0 0.00000000E+00 0.00000000E+00 -.17278444E+04 0.17278444E+04 0.32000000E+00 0.0000E+00 0.9000E+01
       25  1    1    2    0    0 0.62788960E+03 -.15435719E+03 0.21044679E+03 0.69136412E+03 0.12500000E+03 0.0000E+00 0.9000E+01
        2  1    1    2  501    0 -.16322560E+02 0.48913880E+01 0.68591373E+03 0.68612542E+03 0.32000000E+00 0.0000E+00 0.9000E+01
        2  1    1    2  502    0 -.61156704E+03 0.14946580E+03 -.14206559E+04 0.15539040E+04 0.32000000E+00 0.0000E+00 0.9000E+01
#aMCatNLO 1  0  0  1  4 0.30011184D+03 0.00000000D+00  -5  6  0 0.00000000D+00 0.00000000D+00 0.00000000D+00 0.00000000D+00 0.00000000D+00
  <mgrwgt>
 0.9435413516D-02    7    2    0
 0.144206294962734D+04 0.000000000000000D+00 0.000000000000000D+00 0.144206294962734D+04
 0.144206294962734D+04 0.000000000000000D+00 0.000000000000000D+00 -.144206294962734D+04
 0.741060369737218D+03 0.627951946678049D+03 -.154372312277415D+03 0.339692527825437D+03
 0.821930805742241D+03 -.163199933383794D+02 0.489061876150705D+01 0.821754214527467D+03
 0.132113472377523D+04 -.611631953339669D+03 0.149481693515908D+03 -.116144674235290D+04
 0.000000000000000D+00 0.000000000000000D+00 0.000000000000000D+00 0.000000000000000D+00
 0.250970992856294D+04 0.000000000000000D+00 0.000000000000000D+00 0.250970992856294D+04
 0.144561706735075D+04 0.000000000000000D+00 0.000000000000000D+00 -.144561706735075D+04
 0.729630512830495D+03 0.609265671260188D+03 -.173608794756280D+03 0.339692527825437D+03
 0.822764479603481D+03 -.372171304898445D+02 -.166218230538568D+02 0.821754214527467D+03
 0.133364960686958D+04 -.645363060104157D+03 0.114757392939263D+03 -.116144674235290D+04
 0.106928239661013D+04 0.733145193338129D+02 0.754732248708735D+02 0.106409286121219D+04
0.718388570160D-04 0.000000000000D+00 0.000000000000D+00 0.287867276697D-04 0.000000000000D+00  6 2 2 25 2 2 21 0 0.18516140D+00 0.26582222D+00 0.42594546D+06 0.42594546D+06 0.42594546D+06 0.10734655D+01  1  2  2  1  6  1        2 0.215935534746D-03 0.100000000000D+01
0.668444698998D-04 0.000000000000D+00 -.275880126547D-06 0.287867276697D-04 0.000000000000D+00  6 2 2 25 2 2 21 2 0.18516140D+00 0.26582222D+00 0.42594546D+06 0.42594546D+06 0.42594546D+06 0.10734655D+01  1  2  3  1  6  1        2 0.231529534104D-03 0.100000000000D+01
-.417544578169D-04 0.000000000000D+00 0.000000000000D+00 0.287867276697D-04 0.000000000000D+00  6 2 2 25 2 2 21 2 0.18516140D+00 0.26582222D+00 0.42594546D+06 0.42594546D+06 0.42594546D+06 0.10734655D+01  1  2 15  1  6  1        2 -.144625130240D-03 0.100000000000D+01
-.332602123208D-04 0.000000000000D+00 0.000000000000D+00 0.287867276697D-04 0.000000000000D+00  6 2 2 25 2 2 21 2 0.18516140D+00 0.26582222D+00 0.42594546D+06 0.42594546D+06 0.42594546D+06 0.10734655D+01  1  2  4  1  6  1        2 -.115203568438D-03 0.100000000000D+01
-.489077421922D-02 0.000000000000D+00 -.415760546892D-04 0.287867276697D-04 0.000000000000D+00  6 2 2 25 2 2 21 2 0.32244577D+00 0.26582222D+00 0.42594546D+06 0.42594546D+06 0.42594546D+06 0.10734655D+01  1  2  5  1  6  1        2 -.541114008342D-02 0.100000000000D+01
0.424887968897D-02 0.000000000000D+00 0.359084250324D-04 0.287867276697D-04 0.000000000000D+00  6 2 2 25 2 2 21 2 0.18516140D+00 0.26582222D+00 0.42594546D+06 0.42594546D+06 0.42594546D+06 0.10734655D+01  1  2  6  1  6  1        2 0.147168664263D-01 0.100000000000D+01
-.297991148949D-03 0.000000000000D+00 -.255099135278D-05 0.287867276697D-04 0.000000000000D+00  6 21 2 25 2 2 -2 2 0.32244577D+00 0.26582222D+00 0.42594546D+06 0.42594546D+06 0.42594546D+06 0.10734655D+01  1  2  5  4  6  1        2 -.579491969199D-04 0.100000000000D+01
  </mgrwgt>
  </event>
  <event>
  5     66 0.18204334E-05 0.52252290E+02 0.75467711E-02 0.86731744E-01
        2 -1    0    0  501    0 0.00000000E+00 0.00000000E+00 0.62287903E+03 0.62287911E+03 0.32000000E+00 0.0000E+00 0.9000E+01
        2 -1    0    0  502    0 0.00000000E+00 0.00000000E+00 -.23383668E+04 0.23383668E+04 0.32000000E+00 0.0000E+00 0.9000E+01
       25  1    1    2    0    0 -.31617742E+02 -.53782686E+03 -.13053357E+03 0.56826176E+03 0.12500000E+03 0.0000E+00 0.9000E+01
        2  1    1    2  501    0 -.49586144E+02 0.16505452E+02 0.36714263E+03 0.37084367E+03 0.32000000E+00 0.0000E+00 0.9000E+01
        2  1    1    2  502    0 0.81203887E+02 0.52132141E+03 -.19520968E+04 0.20221405E+04 0.32000000E+00 0.0000E+00 0.9000E+01
#aMCatNLO 1  0  0  2  1 0.24951615D+03 0.00000000D+00  -5  6  0 0.00000000D+00 0.00000000D+00 0.00000000D+00 0.00000000D+00 0.00000000D+00
  <mgrwgt>
 0.8886755471D-02    6    2    0
 0.120686361280426D+04 0.000000000000000D+00 0.000000000000000D+00 0.120686361280426D+04
 0.120686361280426D+04 0.000000000000000D+00 0.000000000000000D+00 -.120686361280426D+04
 0.604490011925937D+03 -.316341007329985D+02 -.537889239440758D+03 0.243839341130337D+03
 0.715780423631536D+03 -.495778484530521D+02 0.165026908108730D+02 0.713870655646321D+03
 0.109345679005104D+04 0.812119491860507D+02 0.521386548629885D+03 -.957709996776657D+03
 0.000000000000000D+00 0.000000000000000D+00 0.000000000000000D+00 -.000000000000000D+00
 0.165341739839837D+04 0.000000000000000D+00 0.000000000000000D+00 0.165341739839837D+04
 0.178811936572420D+04 0.000000000000000D+00 0.000000000000000D+00 -.178811936572420D+04
 0.818036624351772D+03 -.148065387399706D+03 -.756424441403198D+03 0.243839341130337D+03
 0.763652023795293D+03 -.170666775013408D+03 -.210774648286412D+03 0.713870655646321D+03
 0.982879306272279D+03 -.887324842482757D+02 0.202410076358516D+03 -.957709996776657D+03
 0.876968809703225D+03 0.407464646661391D+03 0.764789013331094D+03 -.134701967325834D+03
0.220602995960D-02 0.000000000000D+00 0.000000000000D+00 0.131820857904D-04 0.000000000000D+00  6 2 2 25 2 2 21 0 0.95827551D-01 0.35974874D+00 0.32095270D+06 0.32095270D+06 0.32095270D+06 0.10823893D+01  1  2  2  2  6  2        2 0.758214753781D-02 0.100000000000D+01
0.904875244612D-03 0.000000000000D+00 -.847173590588D-05 0.131820857904D-04 0.000000000000D+00  6 2 2 25 2 2 21 2 0.95827551D-01 0.35974874D+00 0.32095270D+06 0.32095270D+06 0.32095270D+06 0.10823893D+01  1  2  3  2  6  2        2 0.364364884291D-02 0.100000000000D+01
-.137327278479D-02 0.000000000000D+00 0.000000000000D+00 0.131820857904D-04 0.000000000000D+00  6 2 2 25 2 2 21 2 0.95827551D-01 0.35974874D+00 0.32095270D+06 0.32095270D+06 0.32095270D+06 0.10823893D+01  1  2 15  2  6  2        2 -.552973884862D-02 0.100000000000D+01
-.273973746992D-03 0.000000000000D+00 -.109638622118D-02 0.131820857904D-04 0.000000000000D+00  6 2 2 25 2 2 21 2 0.95827551D-01 0.58368029D+00 0.32095270D+06 0.32095270D+06 0.32095270D+06 0.10823893D+01  1  2  5  2  6  2        2 -.124506577866D-03 0.100000000000D+01
0.823220221315D-03 0.000000000000D+00 0.979435695733D-03 0.131820857904D-04 0.000000000000D+00  6 2 2 25 2 2 21 2 0.95827551D-01 0.35974874D+00 0.32095270D+06 0.32095270D+06 0.32095270D+06 0.10823893D+01  1  2  6  2  6  2        2 0.331484967095D-02 0.100000000000D+01
0.325785624810D-04 0.000000000000D+00 -.602509096785D-04 0.131820857904D-04 0.000000000000D+00  6 2 21 25 2 2 -2 2 0.95827551D-01 0.58368029D+00 0.32095270D+06 0.32095270D+06 0.32095270D+06 0.10823893D+01  1  2  5  5  6  2        2 0.354846197730D-06 0.100000000000D+01
  </mgrwgt>
  </event>
  <event>
  5     66 0.18204334E-05 0.55990443E+02 0.75467711E-02 0.88127023E-01
        2 -1    0    0  501    0 0.00000000E+00 0.00000000E+00 0.15272284E+04 0.15272285E+04 0.32000000E+00 0.0000E+00 0.9000E+01
        2 -1    0    0  502    0 -.00000000E+00 -.00000000E+00 -.24127247E+04 0.24127247E+04 0.32000000E+00 0.0000E+00 0.9000E+01
       25  1    1    2    0    0 0.19356008E+03 0.88785564E+03 -.92919921E+03 0.13056758E+04 0.12500000E+03 0.0000E+00 0.9000E+01
        2  1    1    2  501    0 -.22571626E+03 -.84202319E+03 0.11963498E+04 0.14802715E+04 0.32000000E+00 0.0000E+00 0.9000E+01
        2  1    1    2  502    0 0.32156180E+02 -.45832451E+02 -.11526468E+04 0.11540058E+04 0.32000000E+00 0.0000E+00 0.9000E+01
#aMCatNLO 1  0  0  5  1 0.10681260D+02 0.00000000D+00  -5  6  0 0.00000000D+00 0.00000000D+00 0.00000000D+00 0.00000000D+00 0.00000000D+00
  <mgrwgt>
 0.1777320899D-02    7    2    0
 0.191957856212772D+04 0.000000000000000D+00 0.000000000000000D+00 0.191957856212772D+04
 0.191957856212772D+04 -.000000000000000D+00 -.000000000000000D+00 -.191957856212772D+04
 0.112560371255980D+04 0.193557375684576D+03 0.887852911930598D+03 -.652389045603061D+03
 0.179506140425366D+04 -.225714919355559D+03 -.842018186311972D+03 0.156917290128951D+04
 0.918492007441976D+03 0.321575436709822D+02 -.458347256186246D+02 -.916783855686445D+03
 0.000000000000000D+00 0.000000000000000D+00 0.000000000000000D+00 -.000000000000000D+00
 0.191957856212772D+04 0.000000000000000D+00 0.000000000000000D+00 0.191957856212772D+04
 0.191957856212772D+04 -.000000000000000D+00 -.000000000000000D+00 -.191957856212772D+04
 0.112575122851356D+04 0.193566847785816D+03 0.887839411174265D+03 -.652659087046055D+03
 0.179469322288385D+04 -.225699816219827D+03 -.842039713083087D+03 0.156874232390616D+04
 0.670996959766304D+02 -.464530985551457D+01 -.114025078123954D+02 -.659603904786090D+02
 0.851612976881398D+03 0.367782782895258D+02 -.343971902787816D+02 -.850122846381498D+03
0.219384618929D-03 0.000000000000D+00 0.000000000000D+00 0.776710666141D-05 0.000000000000D+00  6 2 2 25 2 2 21 0 0.23495823D+00 0.37118841D+00 0.85100656D+06 0.85100656D+06 0.85100656D+06 0.10525602D+01  1  2  2  3  6  5        2 0.169256666820D-03 0.100000000000D+01
0.107685583448D-03 0.000000000000D+00 -.842494701985D-06 0.776710666141D-05 0.000000000000D+00  6 2 2 25 2 2 21 2 0.23495823D+00 0.37118841D+00 0.85100656D+06 0.85100656D+06 0.85100656D+06 0.10525602D+01  1  2  3  3  6  5        2 0.920430588568D-04 0.100000000000D+01
-.157097983957D-03 0.000000000000D+00 0.000000000000D+00 0.776710666141D-05 0.000000000000D+00  6 2 2 25 2 2 21 2 0.23495823D+00 0.37118841D+00 0.85100656D+06 0.85100656D+06 0.85100656D+06 0.10525602D+01  1  2 15  3  6  5        2 -.134277760502D-03 0.100000000000D+01
0.337954829381D-10 0.000000000000D+00 0.000000000000D+00 0.776710666141D-05 0.000000000000D+00  6 2 2 25 2 2 21 2 0.23495823D+00 0.37118841D+00 0.85718429D+06 0.85718429D+06 0.85718429D+06 0.10523482D+01  1  2 12  3  6  5        2 0.288564458819D-10 0.100000000000D+01
-.449384431765D-03 0.000000000000D+00 0.000000000000D+00 0.776710666141D-05 0.000000000000D+00  6 2 2 25 2 2 21 2 0.23495823D+00 0.37118841D+00 0.85100656D+06 0.85100656D+06 0.85100656D+06 0.10525602D+01  1  2  4  3  6  5        2 -.384106362040D-03 0.100000000000D+01
-.222323578852D-02 0.000000000000D+00 0.000000000000D+00 0.776710666141D-05 0.000000000000D+00  6 2 2 25 2 2 21 2 0.23495823D+00 0.37118841D+00 0.85100656D+06 0.85100656D+06 0.85100656D+06 0.10525602D+01  1  2  5  3  6  5        2 -.190028614773D-02 0.100000000000D+01
0.460338395944D-02 0.000000000000D+00 -.000000000000D+00 0.776710666141D-05 0.000000000000D+00  6 2 2 25 2 2 21 2 0.23495823D+00 0.37118841D+00 0.85100656D+06 0.85100656D+06 0.85100656D+06 0.10525602D+01  1  2  6  3  6  5        2 0.393469141508D-02 0.100000000000D+01
  </mgrwgt>
  </event>
  <event>
  5     66 -.18204334E-05 0.10877594E+03 0.75467711E-02 0.93158095E-01
        2 -1    0    0  501    0 0.00000000E+00 0.00000000E+00 0.14583989E+04 0.14583990E+04 0.32000000E+00 0.0000E+00 0.9000E+01
        2 -1    0    0  502    0 -.00000000E+00 -.00000000E+00 -.26396547E+04 0.26396547E+04 0.32000000E+00 0.0000E+00 0.9000E+01
       25  1    1    2    0    0 0.51956272E+03 -.16957176E+03 -.11965136E+04 0.13213515E+04 0.12500000E+03 0.0000E+00 0.9000E+01
        2  1    1    2  501    0 -.41999876E+03 0.21338288E+03 0.13539663E+04 0.14335816E+04 0.32000000E+00 0.0000E+00 0.9000E+01
        2  1    1    2  502    0 -.99563962E+02 -.43811118E+02 -.13387084E+04 0.13431205E+04 0.32000000E+00 0.0000E+00 0.9000E+01
#aMCatNLO 1  0  0  5  2 0.15688799D+01 0.00000000D+00  -5  6  0 0.00000000D+00 0.00000000D+00 0.00000000D+00 0.00000000D+00 0.00000000D+00
  <mgrwgt>
 -.3255375580D-01    9    2    0
 0.196205751630292D+04 0.000000000000000D+00 0.000000000000000D+00 0.196205751630292D+04
 0.196205751630292D+04 -.000000000000000D+00 -.000000000000000D+00 -.196205751630292D+04
 0.101974780248007D+04 0.519562105964869D+03 -.169572203256279D+03 -.851798724224853D+03
 0.190470415702578D+04 -.419998955799792D+03 0.213382980902506D+03 0.184552607848806D+04
 0.999663073099989D+03 -.995631501650776D+02 -.438107776462273D+02 -.993727354263207D+03
 0.000000000000000D+00 0.000000000000000D+00 0.000000000000000D+00 -.000000000000000D+00
 0.196205751630292D+04 0.000000000000000D+00 0.000000000000000D+00 0.196205751630292D+04
 0.196205751630292D+04 -.000000000000000D+00 -.000000000000000D+00 -.196205751630292D+04
 0.101975097947699D+04 0.519561703850866D+03 -.169572380198523D+03 -.851802737674438D+03
 0.190469702215547D+04 -.419999706873324D+03 0.213382650407585D+03 0.184551858211703D+04
 0.912920380729956D+03 -.922485612893624D+02 -.408323580777285D+02 -.907329346503233D+03
 0.867466502434213D+02 -.731343568818033D+01 -.297791213133366D+01 -.863864979393618D+02
0.307127439904D-04 0.000000000000D+00 0.000000000000D+00 0.288580923946D-04 0.000000000000D+00  6 2 2 25 2 2 21 0 0.22436907D+00 0.40610072D+00 0.32519557D+06 0.32519557D+06 0.32519557D+06 0.10819702D+01  1  2  2  3  6  5        2 0.207654630783D-04 0.100000000000D+01
0.500121761269D-05 0.000000000000D+00 -.117945023774D-06 0.288580923946D-04 0.000000000000D+00  6 2 2 25 2 2 21 2 0.22436907D+00 0.40610072D+00 0.32519557D+06 0.32519557D+06 0.32519557D+06 0.10819702D+01  1  2  3  3  6  5        2 0.395848785098D-05 0.100000000000D+01
-.190966123577D-04 0.000000000000D+00 0.000000000000D+00 0.288580923946D-04 0.000000000000D+00  6 2 2 25 2 2 21 2 0.22436907D+00 0.40610072D+00 0.32519557D+06 0.32519557D+06 0.32519557D+06 0.10819702D+01  1  2 15  3  6  5        2 -.151150607446D-04 0.100000000000D+01
0.453231621861D-04 0.000000000000D+00 0.000000000000D+00 0.288580923946D-04 0.000000000000D+00  6 2 2 25 2 2 21 2 0.22436907D+00 0.40610072D+00 0.32519685D+06 0.32519685D+06 0.32519685D+06 0.10819700D+01  1  2 12  3  6  5        2 0.358734800672D-04 0.100000000000D+01
0.147520640505D-12 0.000000000000D+00 0.000000000000D+00 0.288580923946D-04 0.000000000000D+00  6 2 2 25 2 2 21 2 0.22436907D+00 0.40610072D+00 0.32519685D+06 0.32519685D+06 0.32519685D+06 0.10819700D+01  1  2 12  3  6  5        2 0.116763228809D-12 0.100000000000D+01
-.739561611286D+00 0.000000000000D+00 0.000000000000D+00 0.288580923946D-04 0.000000000000D+00  6 2 2 25 2 2 21 2 0.22436907D+00 0.40610072D+00 0.32519557D+06 0.32519557D+06 0.32519557D+06 0.10819702D+01  1  2  4  3  6  5        2 -.585366580710D+00 0.100000000000D+01
-.458547065769D+00 0.000000000000D+00 0.000000000000D+00 0.288580923946D-04 0.000000000000D+00  6 2 2 25 2 2 21 2 0.22436907D+00 0.40610072D+00 0.32519557D+06 0.32519557D+06 0.32519557D+06 0.10819702D+01  1  2  5  3  6  5        2 -.362942213181D+00 0.100000000000D+01
0.500057248005D+00 0.000000000000D+00 -.000000000000D+00 0.288580923946D-04 0.000000000000D+00  6 2 2 25 2 2 21 2 0.22436907D+00 0.40610072D+00 0.32519557D+06 0.32519557D+06 0.32519557D+06 0.10819702D+01  1  2  6  3  6  5        2 0.395797722538D+00 0.100000000000D+01
0.656865414047D+00 0.000000000000D+00 0.000000000000D+00 0.288580923946D-04 0.880998736089D-04  6 2 2 25 2 2 21 2 0.22436907D+00 0.40610072D+00 0.32519685D+06 0.32519685D+06 0.32519685D+06 0.10819700D+01  1  2 11  3  6  5        2 0.519911833180D+00 0.100000000000D+01
  </mgrwgt>
  </event>
  <event>
  5     66 0.18204334E-05 0.60147858E+02 0.75467711E-02 0.90851150E-01
        2 -1    0    0  501    0 0.00000000E+00 0.00000000E+00 0.17765436E+04 0.17765436E+04 0.32000000E+00 0.0000E+00 0.9000E+01
        2 -1    0    0  502    0 0.00000000E+00 0.00000000E+00 -.29775994E+03 0.29776012E+03 0.32000000E+00 0.0000E+00 0.9000E+01
       25  1    1    2    0    0 -.25560432E+03 0.48730963E+03 0.81706109E+03 0.99298443E+03 0.12500000E+03 0.0000E+00 0.9000E+01
        2  1    1    2  501    0 0.26647715E+03 -.42816406E+03 0.79136990E+03 0.93840341E+03 0.32000000E+00 0.0000E+00 0.9000E+01
        2  1    1    2  502    0 -.10872830E+02 -.59145572E+02 -.12964735E+03 0.14291590E+03 0.32000000E+00 0.0000E+00 0.9000E+01
#aMCatNLO 1  0  0  2  2 0.10476024D+04 0.00000000D+00  -5  6  0 0.00000000D+00 0.00000000D+00 0.00000000D+00 0.00000000D+00 0.00000000D+00
  <mgrwgt>
 0.1800964032D-02    7    2    0
 0.727312675551893D+03 0.000000000000000D+00 0.000000000000000D+00 0.727312675551893D+03
 0.727312675551893D+03 0.000000000000000D+00 0.000000000000000D+00 -.727312675551893D+03
 0.585350729145616D+03 -.255571547053492D+03 0.487270192683716D+03 0.155760777379814D+03
 0.533592344640859D+03 0.266445657343055D+03 -.428113463755112D+03 0.174488865243480D+03
 0.335682277317310D+03 -.108741102895632D+02 -.591567289286041D+02 -.330249642623295D+03
 0.000000000000000D+00 -.000000000000000D+00 0.000000000000000D+00 -.000000000000000D+00
 0.784848064327856D+03 0.000000000000000D+00 0.000000000000000D+00 0.784848064327856D+03
 0.102555131751656D+04 0.000000000000000D+00 0.000000000000000D+00 -.102555131751656D+04
 0.509682663638050D+03 -.189581817216350D+03 0.428892448551102D+03 0.155760777379814D+03
 0.618812814062276D+03 0.335892767894113D+03 -.489549776049532D+03 0.174488865243480D+03
 0.345086216833019D+03 0.301508751644583D+02 -.954494385637193D+02 -.330249642623295D+03
 0.336817687311070D+03 -.176461825842221D+03 0.156106766062149D+03 -.240703253188703D+03
0.684787301582D-04 0.000000000000D+00 0.000000000000D+00 0.183882048942D-06 0.000000000000D+00  6 2 2 25 2 2 21 0 0.27331441D+00 0.45809238D-01 0.31846305D+06 0.31846305D+06 0.31846305D+06 0.10826381D+01  1  2  2  2  6  2        2 0.110695466837D-02 0.100000000000D+01
0.194982456534D-04 0.000000000000D+00 -.262976354671D-06 0.183882048942D-06 0.000000000000D+00  6 2 2 25 2 2 21 2 0.27331441D+00 0.45809238D-01 0.31846305D+06 0.31846305D+06 0.31846305D+06 0.10826381D+01  1  2  3  2  6  2        2 0.369433495003D-03 0.100000000000D+01
-.472332770310D-04 0.000000000000D+00 0.000000000000D+00 0.183882048942D-06 0.000000000000D+00  6 2 2 25 2 2 21 2 0.27331441D+00 0.45809238D-01 0.31846305D+06 0.31846305D+06 0.31846305D+06 0.10826381D+01  1  2 15  2  6  2        2 -.894929468228D-03 0.100000000000D+01
-.464581846728D-05 0.000000000000D+00 0.000000000000D+00 0.183882048942D-06 0.000000000000D+00  6 2 2 25 2 2 21 2 0.27331441D+00 0.45809238D-01 0.31846305D+06 0.31846305D+06 0.31846305D+06 0.10826381D+01  1  2  4  2  6  2        2 -.880243783991D-04 0.100000000000D+01
-.187581101166D-03 0.000000000000D+00 -.565547870324D-04 0.183882048942D-06 0.000000000000D+00  6 2 2 25 2 2 21 2 0.27331441D+00 0.68670756D-01 0.31846305D+06 0.31846305D+06 0.31846305D+06 0.10826381D+01  1  2  5  2  6  2        2 -.226687782283D-02 0.100000000000D+01
0.198338027547D-03 0.000000000000D+00 0.522170097531D-04 0.183882048942D-06 0.000000000000D+00  6 2 2 25 2 2 21 2 0.27331441D+00 0.45809238D-01 0.31846305D+06 0.31846305D+06 0.31846305D+06 0.10826381D+01  1  2  6  2  6  2        2 0.375791299438D-02 0.100000000000D+01
-.704610900201D-05 0.000000000000D+00 -.271588298306D-05 0.183882048942D-06 0.000000000000D+00  6 2 21 25 2 2 -2 2 0.27331441D+00 0.68670756D-01 0.31846305D+06 0.31846305D+06 0.31846305D+06 0.10826381D+01  1  2  5  5  6  2        2 -.183505456660D-03 0.100000000000D+01
  </mgrwgt>
  </event>
  <event>
  5     66 0.18204334E-05 0.14204442E+02 0.75467711E-02 0.94822679E-01
        2 -1    0    0  501    0 0.00000000E+00 0.00000000E+00 0.10889529E+04 0.10889530E+04 0.32000000E+00 0.0000E+00 0.9000E+01
        2 -1    0    0  502    0 0.00000000E+00 0.00000000E+00 -.16556327E+04 0.16556327E+04 0.32000000E+00 0.0000E+00 0.9000E+01
       25  1    1    2    0    0 -.38355626E+03 0.27336997E+03 0.12106576E+03 0.50212395E+03 0.12500000E+03 0.0000E+00 0.9000E+01
        2  1    1    2  501    0 0.39761017E+03 -.27131738E+03 0.70280087E+03 0.85184278E+03 0.32000000E+00 0.0000E+00 0.9000E+01
        2  1    1    2  502    0 -.14053910E+02 -.20525931E+01 -.13905464E+04 0.13906189E+04 0.32000000E+00 0.0000E+00 0.9000E+01
#aMCatNLO 1  0  0  1  4 0.10067000D+03 0.00000000D+00  -5  6  0 0.00000000D+00 0.00000000D+00 0.00000000D+00 0.00000000D+00 0.00000000D+00
  <mgrwgt>
 0.4297173005D-01    7    2    0
 0.134272340248934D+04 0.000000000000000D+00 0.000000000000000D+00 0.134272340248934D+04
 0.134272340248934D+04 0.000000000000000D+00 0.000000000000000D+00 -.134272340248934D+04
 0.538746087508640D+03 -.383529367001768D+03 0.273352819226229D+03 0.229795142842844D+03
 0.101884089906073D+04 0.397584689365901D+03 -.271299993910825D+03 0.897975225540597D+03
 0.112785981840930D+04 -.140553223641323D+02 -.205282531540342D+01 -.112777036838344D+04
 0.000000000000000D+00 -.000000000000000D+00 0.000000000000000D+00 0.000000000000000D+00
 0.154848778909151D+04 0.000000000000000D+00 0.000000000000000D+00 0.154848778909151D+04
 0.147939278944089D+04 0.000000000000000D+00 0.000000000000000D+00 -.147939278944089D+04
 0.487093894243568D+03 -.332366323752271D+03 0.241582865639519D+03 0.229795142842844D+03
 0.108254613812382D+04 0.502389880994098D+03 -.336379314103663D+03 0.897975225540597D+03
 0.113438193886636D+04 0.987723846147045D+02 -.721137674789197D+02 -.112777036838344D+04
 0.323858607298646D+03 -.268795941856531D+03 0.166910215943063D+03 0.690949996506195D+02
0.482660677162D-02 0.000000000000D+00 0.000000000000D+00 0.561245083616D-04 0.000000000000D+00  6 2 2 25 2 2 21 0 0.16753123D+00 0.25471272D+00 0.24148026D+06 0.24148026D+06 0.24148026D+06 0.10915938D+01  1  2  2  1  6  1        2 0.192679849655D-01 0.100000000000D+01
0.510588834143D-02 0.000000000000D+00 -.185354408778D-04 0.561245083616D-04 0.000000000000D+00  6 2 2 25 2 2 21 2 0.16753123D+00 0.25471272D+00 0.24148026D+06 0.24148026D+06 0.24148026D+06 0.10915938D+01  1  2  3  1  6  1        2 0.242877776342D-01 0.100000000000D+01
-.363693589927D-02 0.000000000000D+00 0.000000000000D+00 0.561245083616D-04 0.000000000000D+00  6 2 2 25 2 2 21 2 0.16753123D+00 0.25471272D+00 0.24148026D+06 0.24148026D+06 0.24148026D+06 0.10915938D+01  1  2 15  1  6  1        2 -.173002393481D-01 0.100000000000D+01
-.210663834783D-03 0.000000000000D+00 0.000000000000D+00 0.561245083616D-04 0.000000000000D+00  6 2 2 25 2 2 21 2 0.16753123D+00 0.25471272D+00 0.24148026D+06 0.24148026D+06 0.24148026D+06 0.10915938D+01  1  2  4  1  6  1        2 -.100208935892D-02 0.100000000000D+01
-.965365670488D-02 0.000000000000D+00 -.576856716535D-02 0.561245083616D-04 0.000000000000D+00  6 2 2 25 2 2 21 2 0.20575458D+00 0.25471272D+00 0.24148026D+06 0.24148026D+06 0.24148026D+06 0.10915938D+01  1  2  5  1  6  1        2 -.330140611170D-01 0.100000000000D+01
0.107314667634D-01 0.000000000000D+00 0.564885377849D-02 0.561245083616D-04 0.000000000000D+00  6 2 2 25 2 2 21 2 0.16753123D+00 0.25471272D+00 0.24148026D+06 0.24148026D+06 0.24148026D+06 0.10915938D+01  1  2  6  1  6  1        2 0.510476259975D-01 0.100000000000D+01
-.212457634184D-03 0.000000000000D+00 -.168548850223D-03 0.561245083616D-04 0.000000000000D+00  6 21 2 25 2 2 -2 2 0.20575458D+00 0.25471272D+00 0.24148026D+06 0.24148026D+06 0.24148026D+06 0.10915938D+01  1  2  5  4  6  1        2 -.315268725728D-03 0.100000000000D+01
  </mgrwgt>
  </event>
  <event>
  5     66 0.18204334E-05 0.83790690E+02 0.75467711E-02 0.87600102E-01
        2 -1    0    0  501    0 0.00000000E+00 0.00000000E+00 0.10362630E+04 0.10362630E+04 0.32000000E+00 0.0000E+00 0.9000E+01
        2 -1    0    0  502    0 0.00000000E+00 0.00000000E+00 -.21617838E+04 0.21617838E+04 0.32000000E+00 0.0000E+00 0.9000E+01
       25  1    1    2    0    0 -.25996955E+03 0.52974732E+03 -.54284261E+03 0.81149214E+03 0.12500000E+03 0.0000E+00 0.9000E+01
        2  1    1    2  501    0 0.22736745E+03 -.45256584E+03 0.82949838E+03 0.97189478E+03 0.32000000E+00 0.0000E+00 0.9000E+01
        2  1    1    2  502    0 0.32602098E+02 -.77181479E+02 -.14121766E+04 0.14146599E+04 0.32000000E+00 0.0000E+00 0.9000E+01
#aMCatNLO 1  0  0  1  5 0.22962882D+03 0.00000000D+00  -5  6  0 0.00000000D+00 0.00000000D+00 0.00000000D+00 0.00000000D+00 0.00000000D+00
  <mgrwgt>
 0.5900996825D-02    4    2    0
 0.149672196573622D+04 0.000000000000000D+00 0.000000000000000D+00 0.149672196573622D+04
 0.149672196573622D+04 0.000000000000000D+00 0.000000000000000D+00 -.149672196573622D+04
 0.662824697599051D+03 -.259968750001487D+03 0.529746549960985D+03 -.274766121591383D+03
 0.135019286639339D+04 0.227364298975566D+03 -.452559572248339D+03 0.125160540330303D+04
 0.980426367480007D+03 0.326044510259211D+02 -.771869777126456D+02 -.976839281711647D+03
 0.000000000000000D+00 -.000000000000000D+00 -.000000000000000D+00 -.000000000000000D+00
 0.161848819628794D+04 0.000000000000000D+00 0.000000000000000D+00 0.161848819628794D+04
 0.222786216048344D+04 0.000000000000000D+00 0.000000000000000D+00 -.222786216048344D+04
 0.634125909253554D+03 -.146664764259629D+03 0.538036889197148D+03 -.274766121591383D+03
 0.140527568180310D+04 0.468087089379007D+03 -.434946126602508D+03 0.125160540330303D+04
 0.100033463168483D+04 0.205647367866090D+03 -.645256006778735D+02 -.976839281711647D+03
 0.806614134029897D+03 -.527069692985468D+03 -.385651619167659D+02 -.609373964195501D+03
0.443551549095D-02 0.000000000000D+00 0.000000000000D+00 0.196649250186D-04 0.000000000000D+00  6 2 2 25 2 2 21 0 0.15942508D+00 0.33258213D+00 0.35607789D+06 0.35607789D+06 0.35607789D+06 0.10790882D+01  1  2  2  1  6  1        2 0.980464284685D-02 0.100000000000D+01
0.137715699871D-02 0.000000000000D+00 -.170335473833D-04 0.196649250186D-04 0.000000000000D+00  6 2 2 25 2 2 21 2 0.15942508D+00 0.33258213D+00 0.35607789D+06 0.35607789D+06 0.35607789D+06 0.10790882D+01  1  2  3  1  6  1        2 0.354474544501D-02 0.100000000000D+01
-.288990589630D-02 0.000000000000D+00 0.000000000000D+00 0.196649250186D-04 0.000000000000D+00  6 2 2 25 2 2 21 2 0.15942508D+00 0.33258213D+00 0.35607789D+06 0.35607789D+06 0.35607789D+06 0.10790882D+01  1  2 15  1  6  1        2 -.743849885817D-02 0.100000000000D+01
-.384334384649D-05 0.000000000000D+00 0.000000000000D+00 0.196649250186D-04 0.000000000000D+00  6 2 2 25 2 2 21 2 0.15942508D+00 0.33258213D+00 0.35607789D+06 0.35607789D+06 0.35607789D+06 0.10790882D+01  1  2  4  1  6  1        2 -.989260890825D-05 0.100000000000D+01
  </mgrwgt>
  </event>
  <event>
  5     66 0.18204334E-05 0.21503184E+02 0.75467711E-02 0.84606131E-01
        2 -1    0    0  501    0 0.00000000E+00 0.00000000E+00 0.94195427E+03 0.94195433E+03 0.32000000E+00 0.0000E+00 0.9000E+01
        2 -1    0    0  502    0 0.00000000E+00 0.00000000E+00 -.35349841E+04 0.35349841E+04 0.32000000E+00 0.0000E+00 0.9000E+01
       25  1    1    2    0    0 -.57095887E+03 0.63619110E+03 -.13794227E+04 0.16276256E+04 0.12500000E+03 0.0000E+00 0.9000E+01
        2  1    1    2  501    0 -.41619340E+01 0.21097589E+02 0.72381330E+03 0.72413274E+03 0.32000000E+00 0.0000E+00 0.9000E+01
        2  1    1    2  502    0 0.57512080E+03 -.65728868E+03 -.19374204E+04 0.21251801E+04 0.32000000E+00 0.0000E+00 0.9000E+01
#aMCatNLO 1  0  0  1  5 0.20398536D+03 0.00000000D+00  -5  6  0 0.00000000D+00 0.00000000D+00 0.00000000D+00 0.00000000D+00 0.00000000D+00
  <mgrwgt>
 0.1252102088D-01    7    2    0
 0.182477217508895D+04 0.000000000000000D+00 0.000000000000000D+00 0.182477217508895D+04
 0.182477217508895D+04 0.000000000000000D+00 0.000000000000000D+00 -.182477217508895D+04
 0.101657519432471D+04 -.571003797572992D+03 0.636242330138110D+03 -.535677595400419D+03
 0.140251171981893D+04 -.416174023361428D+01 0.210966071570005D+02 0.140234686768793D+04
 0.123045743603425D+04 0.575165537806606D+03 -.657338937295110D+03 -.866669272287510D+03
 0.000000000000000D+00 0.000000000000000D+00 -.000000000000000D+00 0.000000000000000D+00
 0.246154501431022D+04 0.000000000000000D+00 0.000000000000000D+00 0.246154501431022D+04
 0.204485372734595D+04 0.000000000000000D+00 0.000000000000000D+00 -.204485372734595D+04
 0.115447599657981D+04 -.768802991437754D+03 0.662707553013651D+03 -.535677595400419D+03
 0.142769735288174D+04 -.262015205593726D+03 0.555969976623924D+02 0.140234686768793D+04
 0.112956787361863D+04 0.360149371580102D+03 -.628570110436698D+03 -.866669272287510D+03
 0.794657518575985D+03 0.670668825451377D+03 -.897344402393451D+02 0.416691286964275D+03
0.183785919319D-01 0.000000000000D+00 0.000000000000D+00 0.808032620884D-05 0.000000000000D+00  6 2 2 25 2 2 21 0 0.14491605D+00 0.54384371D+00 0.77346567D+06 0.77346567D+06 0.77346567D+06 0.10553718D+01  1  2  2  1  6  1        2 0.602395990003D-02 0.100000000000D+01
0.201412073148D-01 0.000000000000D+00 -.705786322131D-04 0.808032620884D-05 0.000000000000D+00  6 2 2 25 2 2 21 2 0.14491605D+00 0.54384371D+00 0.77346567D+06 0.77346567D+06 0.77346567D+06 0.10553718D+01  1  2  3  1  6  1        2 0.735302927999D-02 0.100000000000D+01
-.146346119459D-01 0.000000000000D+00 0.000000000000D+00 0.808032620884D-05 0.000000000000D+00  6 2 2 25 2 2 21 2 0.14491605D+00 0.54384371D+00 0.77346567D+06 0.77346567D+06 0.77346567D+06 0.10553718D+01  1  2 15  1  6  1        2 -.534271498511D-02 0.100000000000D+01
-.803604236925D-03 0.000000000000D+00 0.000000000000D+00 0.808032620884D-05 0.000000000000D+00  6 2 2 25 2 2 21 2 0.14491605D+00 0.54384371D+00 0.77346567D+06 0.77346567D+06 0.77346567D+06 0.10553718D+01  1  2  4  1  6  1        2 -.293374939807D-03 0.100000000000D+01
-.177319912338D-01 0.000000000000D+00 -.131588782189D-01 0.808032620884D-05 0.000000000000D+00  6 2 2 25 2 2 21 2 0.21924849D+00 0.54384371D+00 0.77346567D+06 0.77346567D+06 0.77346567D+06 0.10553718D+01  1  2  5  1  6  1        2 -.333173364933D-02 0.100000000000D+01
0.222945566748D-01 0.000000000000D+00 0.121062313413D-01 0.808032620884D-05 0.000000000000D+00  6 2 2 25 2 2 21 2 0.14491605D+00 0.54384371D+00 0.77346567D+06 0.77346567D+06 0.77346567D+06 0.10553718D+01  1  2  6  1  6  1        2 0.813916094760D-02 0.100000000000D+01
-.395355537624D-03 0.000000000000D+00 -.642495766442D-03 0.808032620884D-05 0.000000000000D+00  6 21 2 25 2 2 -2 2 0.21924849D+00 0.54384371D+00 0.77346567D+06 0.77346567D+06 0.77346567D+06 0.10553718D+01  1  2  5  4  6  1        2 -.273056778968D-04 0.100000000000D+01
  </mgrwgt>
  </event>
  <event>
  6     66 0.18204334E-05 0.34419010E+02 0.75467711E-02 0.95489971E-01
        2 -1    0    0  503    0 0.00000000E+00 0.00000000E+00 0.55756383E+04 0.55756383E+04 0.32000000E+00 0.0000E+00 0.9000E+01
        2 -1    0    0  502    0 0.00000000E+00 0.00000000E+00 -.80742325E+03 0.80742331E+03 0.32000000E+00 0.0000E+00 0.9000E+01
       25  1    1    2    0    0 -.13750077E+03 -.43345072E+03 0.19686504E+04 0.20243506E+04 0.12500000E+03 0.0000E+00 0.9000E+01
        2  1    1    2  501    0 0.15564535E+02 0.38995101E+02 0.17724519E+04 0.17729492E+04 0.32000000E+00 0.0000E+00 0.9000E+01
        2  1    1    2  502    0 0.12209893E+03 0.37933844E+03 -.72834635E+03 0.83023750E+03 0.32000000E+00 0.0000E+00 0.9000E+01
       21  1    1    2  503  501 -.16270180E+00 0.15117184E+02 0.17554591E+04 0.17555243E+04 0.75000000E+00 0.0000E+00 0.9000E+01
#aMCatNLO 2  0  0  1  4 0.15118059D+02 0.00000000D+00  -5  6  0 0.00000000D+00 0.00000000D+00 0.00000000D+00 0.00000000D+00 0.00000000D+00
  <mgrwgt>
 0.1613476258D-02    3    2    0
 0.175621568780056D+04 0.000000000000000D+00 0.000000000000000D+00 0.175621568780056D+04
 0.175621568780056D+04 0.000000000000000D+00 0.000000000000000D+00 -.175621568780056D+04
 0.976736013376399D+03 -.137553819612716D+03 -.429269608856324D+03 0.857435005961800D+03
 0.815511295025647D+03 0.155235985994284D+02 0.424966657488079D+02 0.814255318435910D+03
 0.172018406719907D+04 0.122030221013287D+03 0.386772943107516D+03 -.167169032439771D+04
 0.000000000000000D+00 -.000000000000000D+00 0.000000000000000D+00 0.000000000000000D+00
 0.256328204321224D+04 0.000000000000000D+00 0.000000000000000D+00 0.256328204321224D+04
 0.175630275508457D+04 0.000000000000000D+00 0.000000000000000D+00 -.175630275508457D+04
 0.978586226179944D+03 -.137508532894104D+03 -.433477353505005D+03 0.857435005961800D+03
 0.815336666292953D+03 0.155613702522174D+02 0.389871716903715D+02 0.814255318435910D+03
 0.171854101823465D+04 0.122109864446056D+03 0.379372998083721D+03 -.167169032439771D+04
 0.807120887589263D+03 -.162701804169959D+00 0.151171837309129D+02 0.806979288127674D+03
-.302588973854D+00 0.000000000000D+00 0.000000000000D+00 0.191415047832D-03 0.000000000000D+00  6 2 2 25 2 2 21 2 0.90368046D+00 0.12421280D+00 0.21495660D+06 0.21495660D+06 0.21495660D+06 0.10954279D+01  1  2 13  1  6  1        2 -.161175839366D-03 0.100000000000D+01
-.299816434515D-09 0.000000000000D+00 0.000000000000D+00 0.191415047832D-03 0.000000000000D+00  6 2 2 25 2 2 21 2 0.85780039D+00 0.12421280D+00 0.21495660D+06 0.21495660D+06 0.21495660D+06 0.10954279D+01  1  2 13  1  6  1        2 -.830589580499D-12 0.100000000000D+01
0.640440608668D+00 0.000000000000D+00 0.000000000000D+00 0.191415047832D-03 0.187806978514D-04  6 2 2 25 2 2 21 2 0.85779043D+00 0.12421895D+00 0.21495660D+06 0.21495660D+06 0.21495660D+06 0.10954279D+01  1  2  1  1  6  1        2 0.177465209801D-02 0.100000000000D+01
  </mgrwgt>
  </event>
  <event>
  5     66 -.18204334E-05 0.31231635E+02 0.75467711E-02 0.92213177E-01
        2 -1    0    0  501    0 0.00000000E+00 0.00000000E+00 0.62169990E+03 0.62169999E+03 0.32000000E+00 0.0000E+00 0.9000E+01
        2 -1    0    0  502    0 -.00000000E+00 -.00000000E+00 -.33401194E+04 0.33401194E+04 0.32000000E+00 0.0000E+00 0.9000E+01
       25  1    1    2    0    0 -.40775308E+03 -.42489266E+03 -.69028756E+03 0.91592481E+03 0.12500000E+03 0.0000E+00 0.9000E+01
        2  1    1    2  501    0 0.12908822E+01 -.31206828E+02 0.47157788E+03 0.47261118E+03 0.32000000E+00 0.0000E+00 0.9000E+01
        2  1    1    2  502    0 0.40646219E+03 0.45609949E+03 -.24997098E+04 0.25732834E+04 0.32000000E+00 0.0000E+00 0.9000E+01
#aMCatNLO 1  0  0  5  2 0.11261036D+02 0.00000000D+00  -5  6  0 0.00000000D+00 0.00000000D+00 0.00000000D+00 0.00000000D+00 0.00000000D+00
  <mgrwgt>
 -.2372650458D-01    8    2    0
 0.144102467451804D+04 0.000000000000000D+00 0.000000000000000D+00 0.144102467451804D+04
 0.144102467451804D+04 -.000000000000000D+00 -.000000000000000D+00 -.144102467451804D+04
 0.608034062028099D+03 -.407792344022384D+03 -.424937441585119D+03 -.849352428748664D+02
 0.109441449174978D+04 0.129080447356219D+01 -.312049487428913D+02 0.109396876772132D+04
 0.117960079525820D+04 0.406501539548822D+03 0.456142390328011D+03 -.100903352484645D+04
 0.000000000000000D+00 0.000000000000000D+00 0.000000000000000D+00 -.000000000000000D+00
 0.144102467451804D+04 0.000000000000000D+00 0.000000000000000D+00 0.144102467451804D+04
 0.144102467451804D+04 -.000000000000000D+00 -.000000000000000D+00 -.144102467451804D+04
 0.607999475860968D+03 -.407761128073429D+03 -.424902413630272D+03 -.850127282862141D+02
 0.109427335750491D+04 0.134698875306748D+01 -.311419033935899D+02 0.109382930497376D+04
 0.100651735347248D+04 0.354591157735788D+03 0.394985769304722D+03 -.855177487860613D+03
 0.173259162197724D+03 0.518229815845736D+02 0.610585477191406D+02 -.153639088826937D+03
0.115127368719D-03 0.000000000000D+00 0.000000000000D+00 0.252895875971D-04 0.000000000000D+00  6 2 2 25 2 2 21 0 0.95646147D-01 0.51386453D+00 0.38706735D+06 0.38706735D+06 0.38706735D+06 0.10764581D+01  1  2  2  3  6  5        2 0.939444252410D-04 0.100000000000D+01
0.848330012807D-04 0.000000000000D+00 -.442119409612D-06 0.252895875971D-04 0.000000000000D+00  6 2 2 25 2 2 21 2 0.95646147D-01 0.51386453D+00 0.38706735D+06 0.38706735D+06 0.38706735D+06 0.10764581D+01  1  2  3  3  6  5        2 0.802142493201D-04 0.100000000000D+01
-.759395345599D-04 0.000000000000D+00 0.000000000000D+00 0.252895875971D-04 0.000000000000D+00  6 2 2 25 2 2 21 2 0.95646147D-01 0.51386453D+00 0.38706735D+06 0.38706735D+06 0.38706735D+06 0.10764581D+01  1  2 15  3  6  5        2 -.718049894085D-04 0.100000000000D+01
0.642219956661D-01 0.000000000000D+00 0.000000000000D+00 0.252895875971D-04 0.000000000000D+00  6 2 2 25 2 2 21 2 0.95646147D-01 0.51386453D+00 0.38693611D+06 0.38693611D+06 0.38693611D+06 0.10764687D+01  1  2 12  3  6  5        2 0.607283819723D-01 0.100000000000D+01
0.698075009045D-09 0.000000000000D+00 0.000000000000D+00 0.252895875971D-04 0.000000000000D+00  6 2 2 25 2 2 21 2 0.95646147D-01 0.51386453D+00 0.38693611D+06 0.38693611D+06 0.38693611D+06 0.10764687D+01  1  2 12  3  6  5        2 0.660100411936D-09 0.100000000000D+01
-.996057209155D-01 0.000000000000D+00 0.000000000000D+00 0.252895875971D-04 0.000000000000D+00  6 2 2 25 2 2 21 2 0.95646147D-01 0.51386453D+00 0.38706735D+06 0.38706735D+06 0.38706735D+06 0.10764581D+01  1  2  4  3  6  5        2 -.941826648900D-01 0.100000000000D+01
-.646197839900D-01 0.000000000000D+00 0.000000000000D+00 0.252895875971D-04 0.000000000000D+00  6 2 2 25 2 2 21 2 0.95646147D-01 0.51386453D+00 0.38706735D+06 0.38706735D+06 0.38706735D+06 0.10764581D+01  1  2  5  3  6  5        2 -.611015452210D-01 0.100000000000D+01
0.747994417501D-01 0.000000000000D+00 -.000000000000D+00 0.252895875971D-04 0.000000000000D+00  6 2 2 25 2 2 21 2 0.95646147D-01 0.51386453D+00 0.38706735D+06 0.38706735D+06 0.38706735D+06 0.10764581D+01  1  2  6  3  6  5        2 0.707269692097D-01 0.100000000000D+01
  </mgrwgt>
  </event>
  <event>
  6     66 0.18204334E-05 0.85298090E+02 0.75467711E-02 0.94571596E-01
        2 -1    0    0  501    0 0.00000000E+00 0.00000000E+00 0.14155290E+04 0.14155291E+04 0.32000000E+00 0.0000E+00 0.9000E+01
        2 -1    0    0  502    0 -.00000000E+00 -.00000000E+00 -.18268937E+04 0.18268937E+04 0.32000000E+00 0.0000E+00 0.9000E+01
       25  1    1    2    0    0 0.38392329E+03 0.23851326E+03 -.12226704E+02 0.46910571E+03 0.12500000E+03 0.0000E+00 0.9000E+01
        2  1    1    2  501    0 -.10486599E+03 0.51805478E+02 0.11548579E+04 0.11607660E+04 0.32000000E+00 0.0000E+00 0.9000E+01
        2  1    1    2  503    0 -.19043846E+03 -.11519686E+03 -.10099806E+04 0.10342137E+04 0.32000000E+00 0.0000E+00 0.9000E+01
       21  1    1    2  502  503 -.88618845E+02 -.17512188E+03 -.54401528E+03 0.57833741E+03 0.75000000E+00 0.0000E+00 0.9000E+01
#aMCatNLO 2  0  0  5  1 0.31941119D+03 0.00000000D+00  -5  6  0 0.00000000D+00 0.00000000D+00 0.00000000D+00 0.00000000D+00 0.00000000D+00
  <mgrwgt>
 0.1363714976D-01    1    2    0
 0.160811104840117D+04 0.000000000000000D+00 0.000000000000000D+00 0.160811104840117D+04
 0.160811104840117D+04 -.000000000000000D+00 -.000000000000000D+00 -.160811104840117D+04
 0.471814502695781D+03 0.384169473808687D+03 0.238771083424624D+03 0.488478256205471D+02
 0.132109120827435D+04 -.104203819171754D+03 0.524916503786144D+02 0.131592863457345D+04
 0.142331638583221D+04 -.279965654636933D+03 -.291262733803239D+03 -.136477646019400D+04
 0.000000000000000D+00 0.000000000000000D+00 -.000000000000000D+00 0.000000000000000D+00
 0.160811104840117D+04 0.000000000000000D+00 0.000000000000000D+00 0.160811104840117D+04
 0.160811104840117D+04 -.000000000000000D+00 -.000000000000000D+00 -.160811104840117D+04
 0.471380166694337D+03 0.383933396824474D+03 0.238525480341993D+03 0.476969976332179D+02
 0.131790907762426D+04 -.104864347956585D+03 0.518044681602271D+02 0.131270868911983D+04
 0.913247620504664D+03 -.190405488799747D+03 -.115146439084988D+03 -.885724711046501D+03
 0.513685231979090D+03 -.886635600681421D+02 -.175183509417232D+03 -.474680975706544D+03
0.549214052521D-02 0.000000000000D+00 0.000000000000D+00 0.460860777055D-04 0.126032495596D-07  6 2 2 25 2 2 21 2 0.21777370D+00 0.28106057D+00 0.25239632D+06 0.25239632D+06 0.25239632D+06 0.10901476D+01  1  2  1  3  6  5        2 0.136371497577D-01 0.100000000000D+01
  </mgrwgt>
  </event>
  <event>
  5     66 0.18204334E-05 0.19545504E+03 0.75467711E-02 0.87689462E-01
        2 -1    0    0  501    0 0.00000000E+00 0.00000000E+00 0.19403187E+03 0.19403214E+03 0.32000000E+00 0.0000E+00 0.9000E+01
        2 -1    0    0  502    0 0.00000000E+00 0.00000000E+00 -.29113020E+04 0.29113021E+04 0.32000000E+00 0.0000E+00 0.9000E+01
       25  1    1    2    0    0 -.57386537E+03 0.20364245E+03 -.14661816E+04 0.15925154E+04 0.12500000E+03 0.0000E+00 0.9000E+01
        2  1    1    2  501    0 0.16570401E+03 -.10378160E+03 -.26260826E+01 0.19553884E+03 0.32000000E+00 0.0000E+00 0.9000E+01
        2  1    1    2  502    0 0.40816136E+03 -.99860849E+02 -.12484625E+04 0.13172800E+04 0.32000000E+00 0.0000E+00 0.9000E+01
#aMCatNLO 1  0  0  2  5 0.59780902D+02 0.00000000D+00  -5  6  0 0.00000000D+00 0.00000000D+00 0.00000000D+00 0.00000000D+00 0.00000000D+00
  <mgrwgt>
 0.4045312270D-03    6    2    0
 0.751588865089204D+03 0.000000000000000D+00 0.000000000000000D+00 0.751588865089204D+03
 0.751588865089204D+03 0.000000000000000D+00 0.000000000000000D+00 -.751588865089204D+03
 0.639516192508352D+03 -.573920738133741D+03 0.203646464018724D+03 -.149996881677827D+03
 0.399071390800191D+03 0.165648160443597D+03 -.103746620935935D+03 0.347930022477547D+03
 0.464590146869865D+03 0.408272577690144D+03 -.998998430827893D+02 -.197933140799720D+03
 0.000000000000000D+00 0.000000000000000D+00 0.000000000000000D+00 -.000000000000000D+00
 0.926639612019608D+03 0.000000000000000D+00 0.000000000000000D+00 0.926639612019608D+03
 0.140716944005837D+04 0.000000000000000D+00 0.000000000000000D+00 -.140716944005837D+04
 0.623889513584929D+03 -.592195146503179D+03 -.204687348471878D+02 -.149996881677827D+03
 0.458243140932173D+03 0.153247618180434D+03 -.255825415453940D+03 0.347930022477547D+03
 0.519390627298649D+03 0.394039883941724D+03 -.274447928325273D+03 -.197933140799720D+03
 0.732285770262226D+03 0.449076443810214D+02 0.550742078626401D+03 -.480529828038760D+03
0.591007788492D-04 0.000000000000D+00 0.000000000000D+00 0.107034965496D-07 0.000000000000D+00  6 2 2 25 2 2 21 0 0.29851079D-01 0.44789264D+00 0.38281991D+06 0.38281991D+06 0.38281991D+06 0.10768047D+01  1  2  2  2  6  2        2 0.342959044115D-03 0.100000000000D+01
0.418570652595D-05 0.000000000000D+00 -.226962552373D-06 0.107034965496D-07 0.000000000000D+00  6 2 2 25 2 2 21 2 0.29851079D-01 0.44789264D+00 0.38281991D+06 0.38281991D+06 0.38281991D+06 0.10768047D+01  1  2  3  2  6  2        2 0.281638320337D-04 0.100000000000D+01
-.407477758655D-04 0.000000000000D+00 0.000000000000D+00 0.107034965496D-07 0.000000000000D+00  6 2 2 25 2 2 21 2 0.29851079D-01 0.44789264D+00 0.38281991D+06 0.38281991D+06 0.38281991D+06 0.10768047D+01  1  2 15  2  6  2        2 -.274174385640D-03 0.100000000000D+01
-.373834065792D-04 0.000000000000D+00 -.222346499880D-04 0.107034965496D-07 0.000000000000D+00  6 2 2 25 2 2 21 2 0.29851079D-01 0.85088530D+00 0.38281991D+06 0.38281991D+06 0.38281991D+06 0.10768047D+01  1  2  5  2  6  2        2 -.578954032183D-06 0.100000000000D+01
0.457989777088D-04 0.000000000000D+00 0.183292611679D-04 0.107034965496D-07 0.000000000000D+00  6 2 2 25 2 2 21 2 0.29851079D-01 0.44789264D+00 0.38281991D+06 0.38281991D+06 0.38281991D+06 0.10768047D+01  1  2  6  2  6  2        2 0.308161766122D-03 0.100000000000D+01
-.133724701127D-05 0.000000000000D+00 -.155041178295D-05 0.107034965496D-07 0.000000000000D+00  6 2 21 25 2 2 -2 2 0.29851079D-01 0.85088530D+00 0.38281991D+06 0.38281991D+06 0.38281991D+06 0.10768047D+01  1  2  5  5  6  2        2 -.755902801567D-10 0.100000000000D+01
  </mgrwgt>
  </event>
  <event>
  5     66 0.18204334E-05 0.15234799E+03 0.75467711E-02 0.93336739E-01
        2 -1    0    0  501    0 0.00000000E+00 0.00000000E+00 0.16648893E+04 0.16648893E+04 0.32000000E+00 0.0000E+00 0.9000E+01
        2 -1    0    0  502    0 0.00000000E+00 0.00000000E+00 -.60532926E+03 0.60532934E+03 0.32000000E+00 0.0000E+00 0.9000E+01
       25  1    1    2    0    0 -.40948924E+03 0.23994602E+03 0.38211049E+03 0.62200399E+03 0.12500000E+03 0.0000E+00 0.9000E+01
        2  1    1    2  501    0 0.26209016E+03 -.27837714E+03 0.11182655E+04 0.11818218E+04 0.32000000E+00 0.0000E+00 0.9000E+01
        2  1    1    2  502    0 0.14739908E+03 0.38431114E+02 -.44081596E+03 0.46639281E+03 0.32000000E+00 0.0000E+00 0.9000E+01
#aMCatNLO 1  0  0  2  4 0.72009597D+02 0.00000000D+00  -5  6  0 0.00000000D+00 0.00000000D+00 0.00000000D+00 0.00000000D+00 0.00000000D+00
  <mgrwgt>
 0.4382379720D-02    9    2    0
 0.100389556822607D+04 0.000000000000000D+00 0.000000000000000D+00 0.100389556822607D+04
 0.100389556822607D+04 0.000000000000000D+00 0.000000000000000D+00 -.100389556822607D+04
 0.501661668737888D+03 -.409486960878370D+03 0.239917710607864D+03 0.103919925366411D+03
 0.746089202579688D+03 0.262066861176562D+03 -.278352394706169D+03 0.640694937423733D+03
 0.760040265134560D+03 0.147420099701808D+03 0.384346840983043D+02 -.744614862790144D+03
 0.000000000000000D+00 -.000000000000000D+00 -.000000000000000D+00 -.000000000000000D+00
 0.102672656896537D+04 0.000000000000000D+00 0.000000000000000D+00 0.102672656896537D+04
 0.106297299228134D+04 0.000000000000000D+00 0.000000000000000D+00 -.106297299228134D+04
 0.494058661169062D+03 -.394330046251997D+03 0.249345993372469D+03 0.103919925366411D+03
 0.749276832724236D+03 0.284829412719922D+03 -.264193063622963D+03 0.640694937423733D+03
 0.765746542683712D+03 0.170645718070278D+03 0.528820635788040D+02 -.744614862790144D+03
 0.806175246696993D+02 -.611450845382029D+02 -.380349933283097D+02 -.362464233159774D+02
0.280105768373D-03 0.000000000000D+00 0.000000000000D+00 0.161237246731D-05 0.000000000000D+00  6 2 2 25 2 2 21 0 0.25613682D+00 0.93127587D-01 0.26287957D+06 0.26287957D+06 0.26287957D+06 0.10888216D+01  1  2  2  2  6  2        2 0.236677411250D-02 0.100000000000D+01
0.414853644934D-04 0.000000000000D+00 -.107567990409D-05 0.161237246731D-05 0.000000000000D+00  6 2 2 25 2 2 21 2 0.25613682D+00 0.93127587D-01 0.26287957D+06 0.26287957D+06 0.26287957D+06 0.10888216D+01  1  2  3  2  6  2        2 0.415568998062D-03 0.100000000000D+01
-.187170091293D-03 0.000000000000D+00 0.000000000000D+00 0.161237246731D-05 0.000000000000D+00  6 2 2 25 2 2 21 2 0.25613682D+00 0.93127587D-01 0.26287957D+06 0.26287957D+06 0.26287957D+06 0.10888216D+01  1  2 15  2  6  2        2 -.187492838151D-02 0.100000000000D+01
0.126145662301D-08 0.000000000000D+00 0.000000000000D+00 0.161237246731D-05 0.000000000000D+00  6 2 2 25 2 2 21 2 0.25613682D+00 0.10009766D+00 0.31481014D+06 0.31481014D+06 0.31481014D+06 0.10830069D+01  1  2 12  2  6  2        2 0.113691556103D-07 0.100000000000D+01
-.381329788452D-04 0.000000000000D+00 0.000000000000D+00 0.161237246731D-05 0.000000000000D+00  6 2 2 25 2 2 21 2 0.25613682D+00 0.93127587D-01 0.26287957D+06 0.26287957D+06 0.26287957D+06 0.10888216D+01  1  2  4  2  6  2        2 -.381987334699D-03 0.100000000000D+01
-.468631078620D-02 0.000000000000D+00 -.949173554393D-03 0.161237246731D-05 0.000000000000D+00  6 2 2 25 2 2 21 2 0.25613682D+00 0.10028761D+00 0.26287957D+06 0.26287957D+06 0.26287957D+06 0.10888216D+01  1  2  5  2  6  2        2 -.429977725093D-01 0.100000000000D+01
0.474618942223D-02 0.000000000000D+00 0.946575616369D-03 0.161237246731D-05 0.000000000000D+00  6 2 2 25 2 2 21 2 0.25613682D+00 0.93127587D-01 0.26287957D+06 0.26287957D+06 0.26287957D+06 0.10888216D+01  1  2  6  2  6  2        2 0.475437351677D-01 0.100000000000D+01
0.168063637022D-10 0.000000000000D+00 0.000000000000D+00 0.161237246731D-05 0.000000000000D+00  6 2 21 25 2 2 -2 2 0.25613682D+00 0.10009766D+00 0.31481014D+06 0.31481014D+06 0.31481014D+06 0.10830069D+01  1  2 12  5  6  2        2 0.199805452520D-09 0.100000000000D+01
-.566616777144D-04 0.000000000000D+00 -.118362609791D-04 0.161237246731D-05 0.000000000000D+00  6 2 21 25 2 2 -2 2 0.25613682D+00 0.10028761D+00 0.26287957D+06 0.26287957D+06 0.26287957D+06 0.10888216D+01  1  2  5  5  6  2        2 -.689021901614D-03 0.100000000000D+01
  </mgrwgt>
  </event>
  <event>
  5     66 0.18204334E-05 0.27469212E+02 0.75467711E-02 0.95147397E-01
        2 -1    0    0  501    0 0.00000000E+00 0.00000000E+00 0.72750542E+03 0.72750549E+03 0.32000000E+00 0.0000E+00 0.9000E+01
        2 -1    0    0  502    0 0.00000000E+00 0.00000000E+00 -.21524146E+04 0.21524147E+04 0.32000000E+00 0.0000E+00 0.9000E+01
       25  1    1    2    0    0 -.45115714E+03 0.86789543E+02 -.13744069E+03 0.49557051E+03 0.12500000E+03 0.0000E+00 0.9000E+01
        2  1    1    2  501    0 0.43649967E+03 -.63561195E+02 0.45962180E+03 0.63704340E+03 0.32000000E+00 0.0000E+00 0.9000E+01
        2  1    1    2  502    0 0.14657463E+02 -.23228348E+02 -.17470903E+04 0.17473063E+04 0.32000000E+00 0.0000E+00 0.9000E+01
#aMCatNLO 1  0  0  2  4 0.77557939D+01 0.00000000D+00  -5  6  0 0.00000000D+00 0.00000000D+00 0.00000000D+00 0.00000000D+00 0.00000000D+00
  <mgrwgt>
 0.2694153785D-01   11    2    0
 0.125135664374062D+04 0.000000000000000D+00 0.000000000000000D+00 0.125135664374062D+04
 0.125135664374062D+04 0.000000000000000D+00 0.000000000000000D+00 -.125135664374062D+04
 0.492015423879065D+03 -.451135831136448D+03 0.867886425065549D+02 0.124090171776780D+03
 0.994689511310747D+03 0.436476762935904D+03 -.635578590403244D+02 0.891546778291985D+03
 0.101600835229143D+04 0.146590682005445D+02 -.232307834662305D+02 -.101563695006877D+04
 0.000000000000000D+00 0.000000000000000D+00 0.000000000000000D+00 -.000000000000000D+00
 0.125141884862110D+04 0.000000000000000D+00 0.000000000000000D+00 0.125141884862110D+04
 0.151896240948572D+04 0.000000000000000D+00 0.000000000000000D+00 -.151896240948572D+04
 0.491759160085830D+03 -.451147083731754D+03 0.852643515020412D+02 0.124090171776780D+03
 0.994881260059302D+03 0.436454005858127D+03 -.666405620081324D+02 0.891546778291985D+03
 0.101608488473236D+04 0.146358247429557D+02 -.263793720677418D+02 -.101563695006877D+04
 0.267655953229325D+03 0.572531306708199D-01 0.775558257383311D+01 -.267543560864615D+03
0.118531089031D-04 0.000000000000D+00 0.000000000000D+00 0.574871874053D-04 0.000000000000D+00  6 2 2 25 2 2 21 0 0.11192392D+00 0.33114072D+00 0.22309529D+06 0.22309529D+06 0.22309529D+06 0.10941988D+01  1  2  2  2  6  2        2 0.439428489620D-04 0.100000000000D+01
0.829587165001D-05 0.000000000000D+00 -.455190591831D-07 0.574871874053D-04 0.000000000000D+00  6 2 2 25 2 2 21 2 0.11192392D+00 0.33114072D+00 0.22309529D+06 0.22309529D+06 0.22309529D+06 0.10941988D+01  1  2  3  2  6  2        2 0.368222588316D-04 0.100000000000D+01
-.891409950122D-05 0.000000000000D+00 0.000000000000D+00 0.574871874053D-04 0.000000000000D+00  6 2 2 25 2 2 21 2 0.11192392D+00 0.33114072D+00 0.22309529D+06 0.22309529D+06 0.22309529D+06 0.10941988D+01  1  2 15  2  6  2        2 -.395663400945D-04 0.100000000000D+01
0.184512307147D-09 0.000000000000D+00 0.000000000000D+00 0.574871874053D-04 0.000000000000D+00  6 2 2 25 2 2 21 2 0.11192392D+00 0.40196604D+00 0.22814035D+06 0.22814035D+06 0.22814035D+06 0.10934612D+01  1  2 12  2  6  2        2 0.447204096950D-09 0.100000000000D+01
-.430520948573D-02 0.000000000000D+00 0.000000000000D+00 0.574871874053D-04 0.000000000000D+00  6 2 2 25 2 2 21 2 0.11192392D+00 0.33114072D+00 0.22309529D+06 0.22309529D+06 0.22309529D+06 0.10941988D+01  1  2  4  2  6  2        2 -.191092081334D-01 0.100000000000D+01
-.239388876919D-01 0.000000000000D+00 -.121969674063D-04 0.574871874053D-04 0.000000000000D+00  6 2 2 25 2 2 21 2 0.11192392D+00 0.40196140D+00 0.22309529D+06 0.22309529D+06 0.22309529D+06 0.10941988D+01  1  2  5  2  6  2        2 -.581982684500D-01 0.100000000000D+01
0.234987482201D-01 0.000000000000D+00 0.119714194801D-04 0.574871874053D-04 0.000000000000D+00  6 2 2 25 2 2 21 2 0.11192392D+00 0.33114072D+00 0.22309529D+06 0.22309529D+06 0.22309529D+06 0.10941988D+01  1  2  6  2  6  2        2 0.104302118654D+00 0.100000000000D+01
0.312745678297D-04 0.000000000000D+00 0.000000000000D+00 0.574871874053D-04 0.111235520124D-05  6 2 2 25 2 2 21 2 0.11192948D+00 0.40195600D+00 0.22814035D+06 0.22814035D+06 0.22814035D+06 0.10934612D+01  1  2 11  2  6  2        2 0.758024809120D-04 0.100000000000D+01
0.515427998458D-11 0.000000000000D+00 0.000000000000D+00 0.574871874053D-04 0.000000000000D+00  6 2 21 25 2 2 -2 2 0.11192392D+00 0.40196604D+00 0.22814035D+06 0.22814035D+06 0.22814035D+06 0.10934612D+01  1  2 12  5  6  2        2 0.131293398667D-11 0.100000000000D+01
-.668559749622D-03 0.000000000000D+00 -.340701893367D-06 0.574871874053D-04 0.000000000000D+00  6 2 21 25 2 2 -2 2 0.11192392D+00 0.40196140D+00 0.22309529D+06 0.22309529D+06 0.22309529D+06 0.10941988D+01  1  2  5  5  6  2        2 -.171038397680D-03 0.100000000000D+01
0.366035490594D-05 0.000000000000D+00 0.000000000000D+00 0.574871874053D-04 0.117852287343D-06  6 2 21 25 2 2 -2 2 0.11192948D+00 0.40195600D+00 0.22814035D+06 0.22814035D+06 0.22814035D+06 0.10934612D+01  1  2 11  5  6  2        2 0.932481703891D-06 0.100000000000D+01
  </mgrwgt>
  </event>
  <event>
  5     66 -.18204334E-05 0.13809213E+03 0.75467711E-02 0.92240847E-01
        2 -1    0    0  501    0 0.00000000E+00 0.00000000E+00 0.43885173E+04 0.43885173E+04 0.32000000E+00 0.0000E+00 0.9000E+01
        2 -1    0    0  502    0 0.00000000E+00 0.00000000E+00 -.40043694E+03 0.40043707E+03 0.32000000E+00 0.0000E+00 0.9000E+01
       25  1    1    2    0    0 0.10791109E+03 0.48519640E+03 0.58397313E+03 0.77698775E+03 0.12500000E+03 0.0000E+00 0.9000E+01
        2  1    1    2  501    0 -.17836823E+02 -.58985608E+03 0.36674460E+04 0.37146209E+04 0.32000000E+00 0.0000E+00 0.9000E+01
        2  1    1    2  502    0 -.90074264E+02 0.10465968E+03 -.26333880E+03 0.29734567E+03 0.32000000E+00 0.0000E+00 0.9000E+01
#aMCatNLO 1  0  0  5  2 0.34592485D+01 0.00000000D+00  -5  6  0 0.00000000D+00 0.00000000D+00 0.00000000D+00 0.00000000D+00 0.00000000D+00
  <mgrwgt>
 -.4183362889D-02    9    2    0
 0.132564125796967D+04 0.000000000000000D+00 0.000000000000000D+00 0.132564125796967D+04
 0.132564125796967D+04 -.000000000000000D+00 -.000000000000000D+00 -.132564125796967D+04
 0.525014260999355D+03 0.107917174476569D+03 0.485181560993074D+03 -.113875855992465D+03
 0.119302022169221D+04 -.178365579788551D+02 -.589847314478144D+03 0.103685064120582D+04
 0.933248033247775D+03 -.900806164977130D+02 0.104665753485069D+03 -.922974785213353D+03
 0.000000000000000D+00 0.000000000000000D+00 0.000000000000000D+00 -.000000000000000D+00
 0.132564125796967D+04 0.000000000000000D+00 0.000000000000000D+00 0.132564125796967D+04
 0.132564125796967D+04 -.000000000000000D+00 -.000000000000000D+00 -.132564125796967D+04
 0.525015930849681D+03 0.107916634184036D+03 0.485182188765476D+03 -.113881391882464D+03
 0.119300860201032D+04 -.178377857088436D+02 -.589845887963880D+03 0.103683806176457D+04
 0.608744320077296D+03 -.571106289612292D+02 0.713074786937409D+02 -.601849870622536D+03
 0.324513663002045D+03 -.329682195139630D+02 0.333562205046621D+02 -.321106799259574D+03
0.840737684594D-04 0.000000000000D+00 0.000000000000D+00 0.192354783656D-05 0.000000000000D+00  6 2 2 25 2 2 21 0 0.67515651D+00 0.61605693D-01 0.38484944D+06 0.38484944D+06 0.38484944D+06 0.10766386D+01  1  2  2  3  6  5        2 0.164705715783D-04 0.100000000000D+01
0.163146815689D-04 0.000000000000D+00 -.322865408016D-06 0.192354783656D-05 0.000000000000D+00  6 2 2 25 2 2 21 2 0.67515651D+00 0.61605693D-01 0.38484944D+06 0.38484944D+06 0.38484944D+06 0.10766386D+01  1  2  3  3  6  5        2 0.370481594122D-05 0.100000000000D+01
-.548328899791D-04 0.000000000000D+00 0.000000000000D+00 0.192354783656D-05 0.000000000000D+00  6 2 2 25 2 2 21 2 0.67515651D+00 0.61605693D-01 0.38484944D+06 0.38484944D+06 0.38484944D+06 0.10766386D+01  1  2 15  3  6  5        2 -.124517149808D-04 0.100000000000D+01
0.143391423111D-01 0.000000000000D+00 0.000000000000D+00 0.192354783656D-05 0.000000000000D+00  6 2 2 25 2 2 21 2 0.67515651D+00 0.61605693D-01 0.38495165D+06 0.38495165D+06 0.38495165D+06 0.10766302D+01  1  2 12  3  6  5        2 0.325606221368D-02 0.100000000000D+01
0.285455170406D-08 0.000000000000D+00 0.000000000000D+00 0.192354783656D-05 0.000000000000D+00  6 2 2 25 2 2 21 2 0.67515651D+00 0.61605693D-01 0.38495165D+06 0.38495165D+06 0.38495165D+06 0.10766302D+01  1  2 12  3  6  5        2 0.648197621512D-09 0.100000000000D+01
-.537228447376D+00 0.000000000000D+00 0.000000000000D+00 0.192354783656D-05 0.000000000000D+00  6 2 2 25 2 2 21 2 0.67515651D+00 0.61605693D-01 0.38484944D+06 0.38484944D+06 0.38484944D+06 0.10766386D+01  1  2  4  3  6  5        2 -.121996405968D+00 0.100000000000D+01
-.357629817779D+00 0.000000000000D+00 0.000000000000D+00 0.192354783656D-05 0.000000000000D+00  6 2 2 25 2 2 21 2 0.67515651D+00 0.61605693D-01 0.38484944D+06 0.38484944D+06 0.38484944D+06 0.10766386D+01  1  2  5  3  6  5        2 -.812122899468D-01 0.100000000000D+01
0.501773663544D+00 0.000000000000D+00 -.000000000000D+00 0.192354783656D-05 0.000000000000D+00  6 2 2 25 2 2 21 2 0.67515651D+00 0.61605693D-01 0.38484944D+06 0.38484944D+06 0.38484944D+06 0.10766386D+01  1  2  6  3  6  5        2 0.113945164037D+00 0.100000000000D+01
0.360305385583D+00 0.000000000000D+00 0.000000000000D+00 0.192354783656D-05 0.485146726645D-06  6 2 2 25 2 2 21 2 0.67515651D+00 0.61605693D-01 0.38495165D+06 0.38495165D+06 0.38495165D+06 0.10766302D+01  1  2 11  3  6  5        2 0.818163824535D-01 0.100000000000D+01
  </mgrwgt>
  </event>
  <event>
  5     66 0.18204334E-05 0.13237399E+03 0.75467711E-02 0.85276875E-01
        2 -1    0    0  501    0 0.00000000E+00 0.00000000E+00 0.26633982E+04 0.26633983E+04 0.32000000E+00 0.0000E+00 0.9000E+01
        2 -1    0    0  502    0 0.00000000E+00 0.00000000E+00 -.14404004E+04 0.14404005E+04 0.32000000E+00 0.0000E+00 0.9000E+01
       25  1    1    2    0    0 -.79424183E+03 0.40499144E+03 0.56366832E+03 0.10621606E+04 0.12500000E+03 0.0000E+00 0.9000E+01
        2  1    1    2  501    0 0.69975350E+03 -.31229783E+03 0.17670458E+04 0.19260415E+04 0.32000000E+00 0.0000E+00 0.9000E+01
        2  1    1    2  502    0 0.94488337E+02 -.92693610E+02 -.11077164E+04 0.11155966E+04 0.32000000E+00 0.0000E+00 0.9000E+01
#aMCatNLO 1  0  0  1  4 0.73963755D+02 0.00000000D+00  -5  6  0 0.00000000D+00 0.00000000D+00 0.00000000D+00 0.00000000D+00 0.00000000D+00
  <mgrwgt>
 0.3976733653D-03    7    2    0
 0.195866284207141D+04 0.000000000000000D+00 0.000000000000000D+00 0.195866284207141D+04
 0.195866284207141D+04 0.000000000000000D+00 0.000000000000000D+00 -.195866284207141D+04
 0.936751295263084D+03 -.794214652333070D+03 0.404983060896515D+03 0.259016979334204D+03
 0.146597697914031D+04 0.699718860404956D+03 -.312282370119467D+03 0.124978467788476D+04
 0.151459740973942D+04 0.944957919281142D+02 -.927006907770485D+02 -.150880165721897D+04
 0.000000000000000D+00 0.000000000000000D+00 0.000000000000000D+00 0.000000000000000D+00
 0.268089473440157D+04 0.000000000000000D+00 0.000000000000000D+00 0.268089473440157D+04
 0.214407078307652D+04 0.000000000000000D+00 0.000000000000000D+00 -.214407078307652D+04
 0.106665493124351D+04 -.958433681315391D+03 0.369381679679589D+03 0.259016979334204D+03
 0.138240190599752D+04 0.466237498261680D+03 -.362899275067826D+03 0.124978467788476D+04
 0.152377495470715D+04 -.154559318700240D+03 -.146693860706572D+03 -.150880165721897D+04
 0.852133725529901D+03 0.646755501753950D+03 0.140211456094809D+03 0.536823951325049D+03
0.385977487265D-03 0.000000000000D+00 0.000000000000D+00 0.256671102325D-05 0.000000000000D+00  6 2 2 25 2 2 21 0 0.40975358D+00 0.22160007D+00 0.80896127D+06 0.80896127D+06 0.80896127D+06 0.10540484D+01  1  2  2  1  6  1        2 0.237853572060D-03 0.100000000000D+01
0.127271982835D-03 0.000000000000D+00 -.148225518130D-05 0.256671102325D-05 0.000000000000D+00  6 2 2 25 2 2 21 2 0.40975358D+00 0.22160007D+00 0.80896127D+06 0.80896127D+06 0.80896127D+06 0.10540484D+01  1  2  3  1  6  1        2 0.871368100696D-04 0.100000000000D+01
-.279115483421D-03 0.000000000000D+00 0.000000000000D+00 0.256671102325D-05 0.000000000000D+00  6 2 2 25 2 2 21 2 0.40975358D+00 0.22160007D+00 0.80896127D+06 0.80896127D+06 0.80896127D+06 0.10540484D+01  1  2 15  1  6  1        2 -.191096518846D-03 0.100000000000D+01
-.526972799417D-04 0.000000000000D+00 0.000000000000D+00 0.256671102325D-05 0.000000000000D+00  6 2 2 25 2 2 21 2 0.40975358D+00 0.22160007D+00 0.80896127D+06 0.80896127D+06 0.80896127D+06 0.10540484D+01  1  2  4  1  6  1        2 -.360792121815D-04 0.100000000000D+01
-.474685812780D-03 0.000000000000D+00 -.221438787961D-03 0.256671102325D-05 0.000000000000D+00  6 2 2 25 2 2 21 2 0.57213197D+00 0.22160007D+00 0.80896127D+06 0.80896127D+06 0.80896127D+06 0.10540484D+01  1  2  5  1  6  1        2 -.633411991099D-04 0.100000000000D+01
0.530558736053D-03 0.000000000000D+00 0.209649146691D-03 0.256671102325D-05 0.000000000000D+00  6 2 2 25 2 2 21 2 0.40975358D+00 0.22160007D+00 0.80896127D+06 0.80896127D+06 0.80896127D+06 0.10540484D+01  1  2  6  1  6  1        2 0.363247234658D-03 0.100000000000D+01
-.139772468611D-04 0.000000000000D+00 -.924488234876D-05 0.256671102325D-05 0.000000000000D+00  6 21 2 25 2 2 -2 2 0.57213197D+00 0.22160007D+00 0.80896127D+06 0.80896127D+06 0.80896127D+06 0.10540484D+01  1  2  5  4  6  1        2 -.473213910211D-07 0.100000000000D+01
  </mgrwgt>
  </event>
  <event>
  5     66 -.18204334E-05 0.30138238E+02 0.75467711E-02 0.92938684E-01
        2 -1    0    0  501    0 0.00000000E+00 0.00000000E+00 0.11561290E+04 0.11561290E+04 0.32000000E+00 0.0000E+00 0.9000E+01
        2 -1    0    0  502    0 -.00000000E+00 -.00000000E+00 -.12173570E+04 0.12173571E+04 0.32000000E+00 0.0000E+00 0.9000E+01
       25  1    1    2    0    0 0.26223695E+03 0.51063430E+03 0.13608884E+03 0.60304293E+03 0.12500000E+03 0.0000E+00 0.9000E+01
        2  1    1    2  501    0 -.24231904E+03 -.48802066E+03 0.69191646E+03 0.88069925E+03 0.32000000E+00 0.0000E+00 0.9000E+01
        2  1    1    2  502    0 -.19917913E+02 -.22613636E+02 -.88923339E+03 0.88974391E+03 0.32000000E+00 0.0000E+00 0.9000E+01
#aMCatNLO 1  0  0  5  1 0.83199517D+01 0.00000000D+00  -5  6  0 0.00000000D+00 0.00000000D+00 0.00000000D+00 0.00000000D+00 0.00000000D+00
  <mgrwgt>
 -.1591280281D-01    6    2    0
 0.118634810696511D+04 0.000000000000000D+00 0.000000000000000D+00 0.118634810696511D+04
 0.118634810696511D+04 -.000000000000000D+00 -.000000000000000D+00 -.118634810696511D+04
 0.606751735443548D+03 0.262222010175381D+03 0.510602213298429D+03 0.151814576434823D+03
 0.898783449757465D+03 -.242301776322142D+03 -.487985899496092D+03 0.714822565845576D+03
 0.867161028729215D+03 -.199202338532398D+02 -.226163138023378D+02 -.866637142280399D+03
 0.000000000000000D+00 0.000000000000000D+00 -.000000000000000D+00 0.000000000000000D+00
 0.118634810696511D+04 0.000000000000000D+00 0.000000000000000D+00 0.118634810696511D+04
 0.118634810696511D+04 -.000000000000000D+00 -.000000000000000D+00 -.118634810696511D+04
 0.606737158130261D+03 0.262220822258012D+03 0.510600864603820D+03 0.151762895650248D+03
 0.898724125552317D+03 -.242303535951326D+03 -.487987897280158D+03 0.714746012527073D+03
 0.234739542130699D+03 -.725326472160385D+00 0.765637626124859D+00 -.234737172898254D+03
 0.632495388116951D+03 -.191919598345266D+02 -.233786049497879D+02 -.631771735279067D+03
0.126842792834D-04 0.000000000000D+00 0.000000000000D+00 0.125961834039D-04 0.000000000000D+00  6 2 2 25 2 2 21 0 0.17786600D+00 0.18728571D+00 0.33780563D+06 0.33780563D+06 0.33780563D+06 0.10807588D+01  1  2  2  3  6  5        2 0.793773762565D-04 0.100000000000D+01
0.892474778394D-05 0.000000000000D+00 -.487109722955D-07 0.125961834039D-04 0.000000000000D+00  6 2 2 25 2 2 21 2 0.17786600D+00 0.18728571D+00 0.33780563D+06 0.33780563D+06 0.33780563D+06 0.10807588D+01  1  2  3  3  6  5        2 0.652355658245D-04 0.100000000000D+01
-.908368924504D-05 0.000000000000D+00 0.000000000000D+00 0.125961834039D-04 0.000000000000D+00  6 2 2 25 2 2 21 2 0.17786600D+00 0.18728571D+00 0.33780563D+06 0.33780563D+06 0.33780563D+06 0.10807588D+01  1  2 15  3  6  5        2 -.663973506053D-04 0.100000000000D+01
0.117266042187D-09 0.000000000000D+00 0.000000000000D+00 0.125961834039D-04 0.000000000000D+00  6 2 2 25 2 2 21 2 0.17786600D+00 0.18728571D+00 0.33848276D+06 0.33848276D+06 0.33848276D+06 0.10806951D+01  1  2 12  3  6  5        2 0.856962598520D-09 0.100000000000D+01
-.218981236953D-02 0.000000000000D+00 0.000000000000D+00 0.125961834039D-04 0.000000000000D+00  6 2 2 25 2 2 21 2 0.17786600D+00 0.18728571D+00 0.33780563D+06 0.33780563D+06 0.33780563D+06 0.10807588D+01  1  2  5  3  6  5        2 -.160064634244D-01 0.100000000000D+01
0.211336647413D-05 0.000000000000D+00 0.000000000000D+00 0.125961834039D-04 0.815933699239D-07  6 2 2 25 2 2 21 2 0.17786600D+00 0.18728571D+00 0.33848276D+06 0.33848276D+06 0.33848276D+06 0.10806951D+01  1  2 11  3  6  5        2 0.154441643252D-04 0.100000000000D+01
  </mgrwgt>
  </event>
  <event>
  5     66 -.18204334E-05 0.10321197E+02 0.75467711E-02 0.92857494E-01
        2 -1    0    0  501    0 0.00000000E+00 0.00000000E+00 0.58175180E+03 0.58175189E+03 0.32000000E+00 0.0000E+00 0.9000E+01
        2 -1    0    0  502    0 -.00000000E+00 -.00000000E+00 -.37961993E+04 0.37961993E+04 0.32000000E+00 0.0000E+00 0.9000E+01
       25  1    1    2    0    0 0.56676094E+03 -.53072968E+02 -.15055645E+03 0.60193600E+03 0.12500000E+03 0.0000E+00 0.9000E+01
        2  1    1    2  501    0 0.49440457E+01 -.90617901E+01 0.33180631E+03 0.33196700E+03 0.32000000E+00 0.0000E+00 0.9000E+01
        2  1    1    2  502    0 -.57170499E+03 0.62134758E+02 -.33956973E+04 0.34440481E+04 0.32000000E+00 0.0000E+00 0.9000E+01
#aMCatNLO 1  0  0  5  5 0.31251412D+02 0.00000000D+00  -5  6  0 0.00000000D+00 0.00000000D+00 0.00000000D+00 0.00000000D+00 0.00000000D+00
  <mgrwgt>
 -.2848544317D-01    6    2    0
 0.148608410634108D+04 0.000000000000000D+00 0.000000000000000D+00 0.148608410634108D+04
 0.148608410634108D+04 -.000000000000000D+00 -.000000000000000D+00 -.148608410634108D+04
 0.723928258488748D+03 0.566820034529825D+03 -.530804814627664D+02 0.429353740384126D+03
 0.847705900943963D+03 0.494329122133990D+01 -.906040722053050D+01 0.847643066029632D+03
 0.140053405324945D+04 -.571763325751166D+03 0.621408886832969D+02 -.127699680641376D+04
 0.000000000000000D+00 -.000000000000000D+00 0.000000000000000D+00 0.000000000000000D+00
 0.148608410634108D+04 0.000000000000000D+00 0.000000000000000D+00 0.148608410634108D+04
 0.148608410634108D+04 -.000000000000000D+00 -.000000000000000D+00 -.148608410634108D+04
 0.723501993393842D+03 0.566618525117853D+03 -.530585808382002D+02 0.428903682005141D+03
 0.847177321737180D+03 0.470733171923637D+01 -.903476246072588D+01 0.847116065578469D+03
 0.109141941276271D+04 -.438571779846287D+03 0.788649770796378D+02 -.996308909860790D+03
 0.310069484788421D+03 -.132754076990803D+03 -.167716337807118D+02 -.279710837722821D+03
0.616622700392D-03 0.000000000000D+00 0.000000000000D+00 0.574112736528D-04 0.000000000000D+00  6 2 2 25 2 2 21 0 0.89500285D-01 0.58403066D+00 0.34123876D+06 0.34123876D+06 0.34123876D+06 0.10804375D+01  1  2  2  3  6  5        2 0.256689979047D-03 0.100000000000D+01
0.701172391511D-03 0.000000000000D+00 -.236799352999D-05 0.574112736528D-04 0.000000000000D+00  6 2 2 25 2 2 21 2 0.89500285D-01 0.58403066D+00 0.34123876D+06 0.34123876D+06 0.34123876D+06 0.10804375D+01  1  2  3  3  6  5        2 0.340732460273D-03 0.100000000000D+01
-.373018883572D-03 0.000000000000D+00 0.000000000000D+00 0.574112736528D-04 0.000000000000D+00  6 2 2 25 2 2 21 2 0.89500285D-01 0.58403066D+00 0.34123876D+06 0.34123876D+06 0.34123876D+06 0.10804375D+01  1  2 15  3  6  5        2 -.181267322368D-03 0.100000000000D+01
-.775966160011D-01 0.000000000000D+00 0.000000000000D+00 0.574112736528D-04 0.000000000000D+00  6 2 2 25 2 2 21 2 0.89500285D-01 0.58403066D+00 0.34123876D+06 0.34123876D+06 0.34123876D+06 0.10804375D+01  1  2  4  3  6  5        2 -.377078250642D-01 0.100000000000D+01
-.739201950245D-01 0.000000000000D+00 0.000000000000D+00 0.574112736528D-04 0.000000000000D+00  6 2 2 25 2 2 21 2 0.89500285D-01 0.58403066D+00 0.34123876D+06 0.34123876D+06 0.34123876D+06 0.10804375D+01  1  2  5  3  6  5        2 -.359212801581D-01 0.100000000000D+01
0.920419879488D-01 0.000000000000D+00 -.000000000000D+00 0.574112736528D-04 0.000000000000D+00  6 2 2 25 2 2 21 2 0.89500285D-01 0.58403066D+00 0.34123876D+06 0.34123876D+06 0.34123876D+06 0.10804375D+01  1  2  6  3  6  5        2 0.447275069326D-01 0.100000000000D+01
  </mgrwgt>
  </event>
  <event>
  5     66 0.18204334E-05 0.47170882E+02 0.75467711E-02 0.88520223E-01
        2 -1    0    0  501    0 0.00000000E+00 0.00000000E+00 0.24458639E+04 0.24458639E+04 0.32000000E+00 0.0000E+00 0.9000E+01
        2 -1    0    0  502    0 0.00000000E+00 0.00000000E+00 -.14075718E+04 0.14075719E+04 0.32000000E+00 0.0000E+00 0.9000E+01
       25  1    1    2    0    0 -.46020970E+03 0.63996441E+02 -.42320551E+03 0.64079358E+03 0.12500000E+03 0.0000E+00 0.9000E+01
        2  1    1    2  501    0 0.12547399E+02 0.45471805E+02 0.22761669E+04 0.22766556E+04 0.32000000E+00 0.0000E+00 0.9000E+01
        2  1    1    2  502    0 0.44766230E+03 -.10946825E+03 -.81466925E+03 0.93598661E+03 0.32000000E+00 0.0000E+00 0.9000E+01
#aMCatNLO 1  0  0  1  4 0.71154648D+02 0.00000000D+00  -5  6  0 0.00000000D+00 0.00000000D+00 0.00000000D+00 0.00000000D+00 0.00000000D+00
  <mgrwgt>
 0.5390669550D-01    7    2    0
 0.185545931162154D+04 0.000000000000000D+00 0.000000000000000D+00 0.185545931162154D+04
 0.185545931162154D+04 0.000000000000000D+00 0.000000000000000D+00 -.185545931162154D+04
 0.783818801660346D+03 -.460231040079524D+03 0.640010715091624D+02 -.618739174797636D+03
 0.172722102606820D+04 0.125473136481979D+02 0.454714969221333D+02 0.172657678102654D+04
 0.119987879551452D+04 0.447683726431326D+03 -.109472568431296D+03 -.110783760622891D+04
 0.000000000000000D+00 0.000000000000000D+00 -.000000000000000D+00 0.000000000000000D+00
 0.345213806864790D+04 0.000000000000000D+00 0.000000000000000D+00 0.345213806864790D+04
 0.193651938494651D+04 0.000000000000000D+00 0.000000000000000D+00 -.193651938494651D+04
 0.864034141014555D+03 -.576006181819426D+03 0.127705555538147D+03 -.618739174797636D+03
 0.175134342568211D+04 -.231850279136410D+03 0.179949609514271D+03 0.172657678102654D+04
 0.114357784427529D+04 0.283036737852014D+03 -.188766831942474D+02 -.110783760622891D+04
 0.162970204262246D+04 0.524819723103822D+03 -.288778481858171D+03 0.151561868370139D+04
0.163359571886D-01 0.000000000000D+00 0.000000000000D+00 0.114032810673D-03 0.000000000000D+00  6 2 2 25 2 2 21 0 0.37628676D+00 0.21654952D+00 0.24464130D+06 0.24464130D+06 0.24464130D+06 0.10911677D+01  1  2  2  1  6  1        2 0.156852209362D-01 0.100000000000D+01
0.856467595052D-02 0.000000000000D+00 -.627343769606D-04 0.114032810673D-03 0.000000000000D+00  6 2 2 25 2 2 21 2 0.37628676D+00 0.21654952D+00 0.24464130D+06 0.24464130D+06 0.24464130D+06 0.10911677D+01  1  2  3  1  6  1        2 0.979129255149D-02 0.100000000000D+01
-.107257266314D-01 0.000000000000D+00 0.000000000000D+00 0.114032810673D-03 0.000000000000D+00  6 2 2 25 2 2 21 2 0.37628676D+00 0.21654952D+00 0.24464130D+06 0.24464130D+06 0.24464130D+06 0.10911677D+01  1  2 15  1  6  1        2 -.122618448009D-01 0.100000000000D+01
-.133581350873D-03 0.000000000000D+00 0.000000000000D+00 0.114032810673D-03 0.000000000000D+00  6 2 2 25 2 2 21 2 0.37628676D+00 0.21654952D+00 0.24464130D+06 0.24464130D+06 0.24464130D+06 0.10911677D+01  1  2  4  1  6  1        2 -.152712617894D-03 0.100000000000D+01
-.387458456992D-01 0.000000000000D+00 -.687857078045D-02 0.114032810673D-03 0.000000000000D+00  6 2 2 25 2 2 21 2 0.70345218D+00 0.21654952D+00 0.24464130D+06 0.24464130D+06 0.24464130D+06 0.10911677D+01  1  2  5  1  6  1        2 -.119244775843D-02 0.100000000000D+01
0.367715653308D-01 0.000000000000D+00 0.572171881994D-02 0.114032810673D-03 0.000000000000D+00  6 2 2 25 2 2 21 2 0.37628676D+00 0.21654952D+00 0.24464130D+06 0.24464130D+06 0.24464130D+06 0.10911677D+01  1  2  6  1  6  1        2 0.420379189838D-01 0.100000000000D+01
-.225459683153D-02 0.000000000000D+00 -.468660935563D-03 0.114032810673D-03 0.000000000000D+00  6 21 2 25 2 2 -2 2 0.70345218D+00 0.21654952D+00 0.24464130D+06 0.24464130D+06 0.24464130D+06 0.10911677D+01  1  2  5  4  6  1        2 -.731791619346D-06 0.100000000000D+01
  </mgrwgt>
  </event>
  <event>
  5     66 0.18204334E-05 0.29422013E+03 0.75467711E-02 0.90220121E-01
        2 -1    0    0  501    0 0.00000000E+00 0.00000000E+00 0.55695779E+03 0.55695788E+03 0.32000000E+00 0.0000E+00 0.9000E+01
        2 -1    0    0  502    0 0.00000000E+00 0.00000000E+00 -.35400230E+04 0.35400231E+04 0.32000000E+00 0.0000E+00 0.9000E+01
       25  1    1    2    0    0 0.46640523E+03 -.16192114E+03 -.20348777E+04 0.20976426E+04 0.12500000E+03 0.0000E+00 0.9000E+01
        2  1    1    2  501    0 -.27272144E+03 -.11040858E+03 0.46330022E+03 0.54882988E+03 0.32000000E+00 0.0000E+00 0.9000E+01
        2  1    1    2  502    0 -.19368379E+03 0.27232973E+03 -.14114878E+04 0.14505085E+04 0.32000000E+00 0.0000E+00 0.9000E+01
#aMCatNLO 1  0  0  2  1 0.46252634D+03 0.00000000D+00  -5  6  0 0.00000000D+00 0.00000000D+00 0.00000000D+00 0.00000000D+00 0.00000000D+00
  <mgrwgt>
 0.9125010470D-03    7    2    0
 0.140415227713943D+04 0.000000000000000D+00 0.000000000000000D+00 0.140415227713943D+04
 0.140415227713943D+04 0.000000000000000D+00 0.000000000000000D+00 -.140415227713943D+04
 0.898693759238110D+03 0.466419900899028D+03 -.161934530252197D+03 -.740442541221713D+03
 0.129279696775747D+04 -.272718988986495D+03 -.110407591188629D+03 0.125887192227685D+04
 0.616813827283281D+03 -.193700911912533D+03 0.272342121440826D+03 -.518429381055138D+03
 0.000000000000000D+00 -.000000000000000D+00 -.000000000000000D+00 -.000000000000000D+00
 0.148763765309752D+04 0.000000000000000D+00 0.000000000000000D+00 0.148763765309752D+04
 0.225138011258021D+04 0.000000000000000D+00 0.000000000000000D+00 -.225138011258021D+04
 0.971818638277957D+03 0.608051099632679D+03 -.104044072820339D+03 -.740442541221713D+03
 0.126175616725063D+04 -.792936884001644D+02 -.313467682205541D+02 0.125887192227685D+04
 0.612563821117203D+03 -.100615065344214D+03 0.310390110065181D+03 -.518429381055138D+03
 0.892879139031947D+03 -.428142345888301D+03 -.174999269024288D+03 -.763742459482684D+03
0.833186797329D-03 0.000000000000D+00 0.000000000000D+00 0.379427021659D-06 0.000000000000D+00  6 2 2 25 2 2 21 0 0.85685821D-01 0.54461894D+00 0.32360724D+06 0.32360724D+06 0.32360724D+06 0.10821264D+01  1  2  2  2  6  2        2 0.568835712561D-03 0.100000000000D+01
0.434233023535D-04 0.000000000000D+00 -.319965668486D-05 0.379427021659D-06 0.000000000000D+00  6 2 2 25 2 2 21 2 0.85685821D-01 0.54461894D+00 0.32360724D+06 0.32360724D+06 0.32360724D+06 0.10821264D+01  1  2  3  2  6  2        2 0.347154883091D-04 0.100000000000D+01
-.586481808299D-03 0.000000000000D+00 0.000000000000D+00 0.379427021659D-06 0.000000000000D+00  6 2 2 25 2 2 21 2 0.85685821D-01 0.54461894D+00 0.32360724D+06 0.32360724D+06 0.32360724D+06 0.10821264D+01  1  2 15  2  6  2        2 -.468872730908D-03 0.100000000000D+01
-.217625106981D-03 0.000000000000D+00 0.000000000000D+00 0.379427021659D-06 0.000000000000D+00  6 2 2 25 2 2 21 2 0.85685821D-01 0.54461894D+00 0.32360724D+06 0.32360724D+06 0.32360724D+06 0.10821264D+01  1  2  4  2  6  2        2 -.173984046531D-03 0.100000000000D+01
-.107280360767D-02 0.000000000000D+00 -.297615900425D-03 0.379427021659D-06 0.000000000000D+00  6 2 2 25 2 2 21 2 0.85685821D-01 0.87583374D+00 0.32360724D+06 0.32360724D+06 0.32360724D+06 0.10821264D+01  1  2  5  2  6  2        2 -.238392468063D-05 0.100000000000D+01
0.119353406529D-02 0.000000000000D+00 0.287641324368D-03 0.379427021659D-06 0.000000000000D+00  6 2 2 25 2 2 21 2 0.85685821D-01 0.54461894D+00 0.32360724D+06 0.32360724D+06 0.32360724D+06 0.10821264D+01  1  2  6  2  6  2        2 0.954190852478D-03 0.100000000000D+01
-.454620920283D-04 0.000000000000D+00 -.161220139418D-04 0.379427021659D-06 0.000000000000D+00  6 2 21 25 2 2 -2 2 0.85685821D-01 0.87583374D+00 0.32360724D+06 0.32360724D+06 0.32360724D+06 0.10821264D+01  1  2  5  5  6  2        2 -.304198259361D-09 0.100000000000D+01
  </mgrwgt>
  </event>
  <event>
  6     66 0.18204334E-05 0.42948349E+02 0.75467711E-02 0.94450023E-01
        2 -1    0    0  501    0 0.00000000E+00 0.00000000E+00 0.17482330E+04 0.17482330E+04 0.32000000E+00 0.0000E+00 0.9000E+01
        2 -1    0    0  502    0 0.00000000E+00 0.00000000E+00 -.12406550E+04 0.12406550E+04 0.32000000E+00 0.0000E+00 0.9000E+01
       25  1    1    2    0    0 0.11398263E+03 -.48133304E+03 0.53501965E+03 0.73928652E+03 0.12500000E+03 0.0000E+00 0.9000E+01
        2  1    1    2  501    0 0.16232970E+02 0.19575440E+02 0.10572937E+04 0.10575995E+04 0.32000000E+00 0.0000E+00 0.9000E+01
        2  1    1    2  503    0 -.10134194E+03 0.37759914E+03 -.75178482E+03 0.84736758E+03 0.32000000E+00 0.0000E+00 0.9000E+01
       21  1    1    2  502  503 -.28873667E+02 0.84158461E+02 -.33295047E+03 0.34463446E+03 0.75000000E+00 0.0000E+00 0.9000E+01
#aMCatNLO 2  0  0  5  2 0.83544232D+01 0.00000000D+00  -5  6  0 0.00000000D+00 0.00000000D+00 0.00000000D+00 0.00000000D+00 0.00000000D+00
  <mgrwgt>
 0.4672276243D-01    1    2    0
 0.147273693699807D+04 0.000000000000000D+00 0.000000000000000D+00 0.147273693699807D+04
 0.147273693699807D+04 -.000000000000000D+00 -.000000000000000D+00 -.147273693699807D+04
 0.659034723629166D+03 0.114100813501569D+03 -.481744769762109D+03 0.416659031000295D+03
 0.892315251718418D+03 0.163739731639798D+02 0.190669526315466D+02 0.891961239499495D+03
 0.139412389864856D+04 -.130474786665548D+03 0.462677817130562D+03 -.130862027049979D+04
 0.000000000000000D+00 0.000000000000000D+00 0.000000000000000D+00 -.000000000000000D+00
 0.147273693699807D+04 0.000000000000000D+00 0.000000000000000D+00 0.147273693699807D+04
 0.147273693699807D+04 -.000000000000000D+00 -.000000000000000D+00 -.147273693699807D+04
 0.658074313285495D+03 0.113995318061239D+03 -.481370671430191D+03 0.415600945563338D+03
 0.890891670981738D+03 0.162311450501054D+02 0.195734366936486D+02 0.890528719318471D+03
 0.989260682750700D+03 -.101337227625646D+03 0.377588014559763D+03 -.908732499690830D+03
 0.407247206978213D+03 -.288892354856981D+02 0.842092201767787D+02 -.397397165190979D+03
0.136372359816D-01 0.000000000000D+00 0.000000000000D+00 0.102678953028D-03 0.298453687741D-06  6 2 2 25 2 2 21 2 0.26895893D+00 0.19087000D+00 0.25787992D+06 0.25787992D+06 0.25787992D+06 0.10894466D+01  1  2  1  3  6  5        2 0.467227624293D-01 0.100000000000D+01
  </mgrwgt>
  </event>
  <event>
  5     66 0.18204334E-05 0.24837241E+03 0.75467711E-02 0.93771129E-01
        2 -1    0    0  501    0 0.00000000E+00 0.00000000E+00 0.23121297E+03 0.23121319E+03 0.32000000E+00 0.0000E+00 0.9000E+01
        2 -1    0    0  502    0 -.00000000E+00 -.00000000E+00 -.16659033E+04 0.16659033E+04 0.32000000E+00 0.0000E+00 0.9000E+01
       25  1    1    2    0    0 -.96318040E+02 0.51742029E+03 -.69912980E+03 0.88397308E+03 0.12500000E+03 0.0000E+00 0.9000E+01
        2  1    1    2  501    0 -.19359360E+01 -.28939588E+03 -.62952624E+02 0.29617032E+03 0.32000000E+00 0.0000E+00 0.9000E+01
        2  1    1    2  502    0 0.98253976E+02 -.22802441E+03 -.67260791E+03 0.71697313E+03 0.32000000E+00 0.0000E+00 0.9000E+01
#aMCatNLO 1  0  0  5  2 0.85157770D+01 0.00000000D+00  -5  6  0 0.00000000D+00 0.00000000D+00 0.00000000D+00 0.00000000D+00 0.00000000D+00
  <mgrwgt>
 0.4219666931D-03    9    2    0
 0.620627662821425D+03 0.000000000000000D+00 0.000000000000000D+00 0.620627662821425D+03
 0.620627662821425D+03 -.000000000000000D+00 -.000000000000000D+00 -.620627662821425D+03
 0.542962545099128D+03 -.963403731645657D+02 0.517420542927609D+03 -.466673294236285D+02
 0.379797105391963D+03 -.193541564388063D+01 -.289318097271068D+03 0.246042951579289D+03
 0.318495675151758D+03 0.982757888084463D+02 -.228102445656540D+03 -.199375622155660D+03
 0.000000000000000D+00 0.000000000000000D+00 -.000000000000000D+00 0.000000000000000D+00
 0.620627662821425D+03 0.000000000000000D+00 0.000000000000000D+00 0.620627662821425D+03
 0.620627662821425D+03 -.000000000000000D+00 -.000000000000000D+00 -.620627662821425D+03
 0.542757247859948D+03 -.962476649802137D+02 0.517205363137760D+03 -.468554098466727D+02
 0.379826268893179D+03 -.187055240358788D+01 -.289468647716131D+03 0.245911361194259D+03
 0.251579089880940D+03 0.848811945357625D+02 -.175860028517579D+03 -.158620527200298D+03
 0.670927190087822D+02 0.132370228480390D+02 -.518766869040497D+02 -.404354241472882D+02
0.178335586623D-05 0.000000000000D+00 0.000000000000D+00 0.739565634147D-08 0.000000000000D+00  6 2 2 25 2 2 21 0 0.35571246D-01 0.25629284D+00 0.29087162D+06 0.29087162D+06 0.29087162D+06 0.10855461D+01  1  2  2  3  6  5        2 0.441044824389D-04 0.100000000000D+01
0.659706359818D-07 0.000000000000D+00 -.684855609471D-08 0.739565634147D-08 0.000000000000D+00  6 2 2 25 2 2 21 2 0.35571246D-01 0.25629284D+00 0.29087162D+06 0.29087162D+06 0.29087162D+06 0.10855461D+01  1  2  3  3  6  5        2 0.192261334018D-05 0.100000000000D+01
-.973462964961D-06 0.000000000000D+00 0.000000000000D+00 0.739565634147D-08 0.000000000000D+00  6 2 2 25 2 2 21 2 0.35571246D-01 0.25629284D+00 0.29087162D+06 0.29087162D+06 0.29087162D+06 0.10855461D+01  1  2 15  3  6  5        2 -.283700900370D-04 0.100000000000D+01
0.146350242252D-03 0.000000000000D+00 0.000000000000D+00 0.739565634147D-08 0.000000000000D+00  6 2 2 25 2 2 21 2 0.35571246D-01 0.25629284D+00 0.29106974D+06 0.29106974D+06 0.29106974D+06 0.10855242D+01  1  2 12  3  6  5        2 0.426487749186D-02 0.100000000000D+01
0.279286563041D-06 0.000000000000D+00 0.000000000000D+00 0.739565634147D-08 0.000000000000D+00  6 2 2 25 2 2 21 2 0.35571246D-01 0.25629284D+00 0.29106974D+06 0.29106974D+06 0.29106974D+06 0.10855242D+01  1  2 12  3  6  5        2 0.813885210002D-05 0.100000000000D+01
-.167046213254D-03 0.000000000000D+00 0.000000000000D+00 0.739565634147D-08 0.000000000000D+00  6 2 2 25 2 2 21 2 0.35571246D-01 0.25629284D+00 0.29087162D+06 0.29087162D+06 0.29087162D+06 0.10855461D+01  1  2  4  3  6  5        2 -.486830653135D-02 0.100000000000D+01
-.146996008049D-03 0.000000000000D+00 0.000000000000D+00 0.739565634147D-08 0.000000000000D+00  6 2 2 25 2 2 21 2 0.35571246D-01 0.25629284D+00 0.29087162D+06 0.29087162D+06 0.29087162D+06 0.10855461D+01  1  2  5  3  6  5        2 -.428397395025D-02 0.100000000000D+01
0.181133800279D-03 0.000000000000D+00 -.000000000000D+00 0.739565634147D-08 0.000000000000D+00  6 2 2 25 2 2 21 2 0.35571246D-01 0.25629284D+00 0.29087162D+06 0.29087162D+06 0.29087162D+06 0.10855461D+01  1  2  6  3  6  5        2 0.527886772031D-02 0.100000000000D+01
0.161491055016D-06 0.000000000000D+00 0.000000000000D+00 0.739565634147D-08 0.383981090837D-09  6 2 2 25 2 2 21 2 0.35571246D-01 0.25629284D+00 0.29106974D+06 0.29106974D+06 0.29106974D+06 0.10855242D+01  1  2 11  3  6  5        2 0.470610471889D-05 0.100000000000D+01
  </mgrwgt>
  </event>
  <event>
  5     66 0.18204334E-05 0.27774778E+03 0.75467711E-02 0.88911137E-01
        2 -1    0    0  501    0 0.00000000E+00 0.00000000E+00 0.22894521E+04 0.22894522E+04 0.32000000E+00 0.0000E+00 0.9000E+01
        2 -1    0    0  502    0 0.00000000E+00 0.00000000E+00 -.11232426E+04 0.11232427E+04 0.32000000E+00 0.0000E+00 0.9000E+01
       25  1    1    2    0    0 0.24080224E+03 0.46125712E+03 -.10598195E+03 0.54552821E+03 0.12500000E+03 0.0000E+00 0.9000E+01
        2  1    1    2  501    0 0.24180614E+03 0.13666974E+03 0.18719326E+04 0.18924272E+04 0.32000000E+00 0.0000E+00 0.9000E+01
        2  1    1    2  502    0 -.48260838E+03 -.59792686E+03 -.59974115E+03 0.97473942E+03 0.32000000E+00 0.0000E+00 0.9000E+01
#aMCatNLO 1  0  0  1  5 0.10793920D+03 0.00000000D+00  -5  6  0 0.00000000D+00 0.00000000D+00 0.00000000D+00 0.00000000D+00 0.00000000D+00
  <mgrwgt>
 0.2269365072D-02    9    2    0
 0.160362412052408D+04 0.000000000000000D+00 0.000000000000000D+00 0.160362412052408D+04
 0.160362412052408D+04 0.000000000000000D+00 0.000000000000000D+00 -.160362412052408D+04
 0.619059622853514D+03 0.240836820237190D+03 0.461303114977181D+03 -.311138038140510D+03
 0.133294084699982D+04 0.241798303005406D+03 0.136665314685071D+03 0.130368227495288D+04
 0.125524777119483D+04 -.482635123242596D+03 -.597968429662252D+03 -.992544236812373D+03
 0.000000000000000D+00 -.000000000000000D+00 0.000000000000000D+00 0.000000000000000D+00
 0.197995933572659D+04 0.000000000000000D+00 0.000000000000000D+00 0.197995933572659D+04
 0.161229043740552D+04 0.000000000000000D+00 0.000000000000000D+00 -.161229043740552D+04
 0.621359370029315D+03 0.260294630056181D+03 0.453764579390258D+03 -.311138038140510D+03
 0.133962197078505D+04 0.283721410710253D+03 0.120423052976925D+03 0.130368227495288D+04
 0.124808272064416D+04 -.443366675319947D+03 -.613182197031855D+03 -.992544236812373D+03
 0.383185711673585D+03 -.100649365446487D+03 0.389945646646715D+02 0.367668898321062D+03
0.170773441320D-03 0.000000000000D+00 0.000000000000D+00 0.123749381549D-06 0.000000000000D+00  6 2 2 25 2 2 21 0 0.35222341D+00 0.17280656D+00 0.62519010D+06 0.62519010D+06 0.62519010D+06 0.10617188D+01  1  2  2  1  6  1        2 0.271607105798D-03 0.100000000000D+01
0.189684818906D-04 0.000000000000D+00 -.655814980347D-06 0.123749381549D-06 0.000000000000D+00  6 2 2 25 2 2 21 2 0.35222341D+00 0.17280656D+00 0.62519010D+06 0.62519010D+06 0.62519010D+06 0.10617188D+01  1  2  3  1  6  1        2 0.340073201904D-04 0.100000000000D+01
-.135271209484D-03 0.000000000000D+00 0.000000000000D+00 0.123749381549D-06 0.000000000000D+00  6 2 2 25 2 2 21 2 0.35222341D+00 0.17280656D+00 0.62519010D+06 0.62519010D+06 0.62519010D+06 0.10617188D+01  1  2 15  1  6  1        2 -.242518687578D-03 0.100000000000D+01
0.479264066946D-08 0.000000000000D+00 0.000000000000D+00 0.123749381549D-06 0.000000000000D+00  6 2 2 25 2 2 21 2 0.43613228D+00 0.17280656D+00 0.73161376D+06 0.73161376D+06 0.73161376D+06 0.10570195D+01  1  2 12  1  6  1        2 0.399421413442D-08 0.100000000000D+01
-.435784796904D-03 0.000000000000D+00 0.000000000000D+00 0.123749381549D-06 0.000000000000D+00  6 2 2 25 2 2 21 2 0.35222341D+00 0.17280656D+00 0.62519010D+06 0.62519010D+06 0.62519010D+06 0.10617188D+01  1  2  4  1  6  1        2 -.781289362422D-03 0.100000000000D+01
-.327118484574D-02 0.000000000000D+00 -.154525478027D-03 0.123749381549D-06 0.000000000000D+00  6 2 2 25 2 2 21 2 0.43548716D+00 0.17280656D+00 0.62519010D+06 0.62519010D+06 0.62519010D+06 0.10617188D+01  1  2  5  1  6  1        2 -.280456517652D-02 0.100000000000D+01
0.323429827834D-02 0.000000000000D+00 0.151110537873D-03 0.123749381549D-06 0.000000000000D+00  6 2 2 25 2 2 21 2 0.35222341D+00 0.17280656D+00 0.62519010D+06 0.62519010D+06 0.62519010D+06 0.10617188D+01  1  2  6  1  6  1        2 0.579855666768D-02 0.100000000000D+01
0.144244259791D-09 0.000000000000D+00 0.000000000000D+00 0.123749381549D-06 0.000000000000D+00  6 21 2 25 2 2 -2 2 0.43613228D+00 0.17280656D+00 0.73161376D+06 0.73161376D+06 0.73161376D+06 0.10570195D+01  1  2 12  4  6  1        2 0.928718361274D-11 0.100000000000D+01
-.959662080678D-04 0.000000000000D+00 -.462631355904D-05 0.123749381549D-06 0.000000000000D+00  6 21 2 25 2 2 -2 2 0.43548716D+00 0.17280656D+00 0.62519010D+06 0.62519010D+06 0.62519010D+06 0.10617188D+01  1  2  5  4  6  1        2 -.643679819544D-05 0.100000000000D+01
  </mgrwgt>
  </event>
  <event>
  6     66 -.18204334E-05 0.24678179E+03 0.75467711E-02 0.92435227E-01
        2 -1    0    0  501    0 0.00000000E+00 0.00000000E+00 0.11013788E+04 0.11013788E+04 0.32000000E+00 0.0000E+00 0.9000E+01
        2 -1    0    0  502    0 0.00000000E+00 0.00000000E+00 -.70102345E+03 0.70102353E+03 0.32000000E+00 0.0000E+00 0.9000E+01
       25  1    1    2    0    0 0.17916190E+03 -.41277518E+03 0.24717413E+03 0.52839606E+03 0.12500000E+03 0.0000E+00 0.9000E+01
        2  1    1    2  501    0 -.40069190E+03 0.24113593E+03 0.58365112E+03 0.74789657E+03 0.32000000E+00 0.0000E+00 0.9000E+01
        2  1    1    2  503    0 0.18424108E+03 0.10654813E+03 -.23664765E+03 0.31827581E+03 0.32000000E+00 0.0000E+00 0.9000E+01
       21  1    1    2  502  503 0.37288918E+02 0.65091123E+02 -.19382226E+03 0.20783395E+03 0.75000000E+00 0.0000E+00 0.9000E+01
#aMCatNLO 2  0  0  5  2 0.55816145D+02 0.00000000D+00  -5  6  0 0.00000000D+00 0.00000000D+00 0.00000000D+00 0.00000000D+00 0.00000000D+00
  <mgrwgt>
 -.1101175431D-02    2    2    0
 0.878687931536686D+03 0.000000000000000D+00 0.000000000000000D+00 0.878687931536686D+03
 0.878687931536686D+03 -.000000000000000D+00 -.000000000000000D+00 -.878687931536686D+03
 0.486622740305806D+03 0.178129123536768D+03 -.413555174682295D+03 0.135715968936054D+03
 0.636753702407904D+03 -.401982950938413D+03 0.240108613245803D+03 0.431523856270075D+03
 0.633999420359662D+03 0.223853827401645D+03 0.173446561436491D+03 -.567239825206129D+03
 0.000000000000000D+00 0.000000000000000D+00 0.000000000000000D+00 -.000000000000000D+00
 0.878687931536686D+03 0.000000000000000D+00 0.000000000000000D+00 0.878687931536686D+03
 0.878687931536686D+03 -.000000000000000D+00 -.000000000000000D+00 -.878687931536686D+03
 0.485627789787823D+03 0.179132215648664D+03 -.412777958229791D+03 0.133174159395327D+03
 0.634062654802026D+03 -.400671821940146D+03 0.241124503029725D+03 0.428201489203885D+03
 0.380078950966848D+03 0.184166047784748D+03 0.106480976457855D+03 -.314967740354449D+03
 0.257606467516675D+03 0.373735585067338D+02 0.651724787422103D+02 -.246407908244763D+03
-.654964111387D-04 0.000000000000D+00 0.000000000000D+00 0.287886414907D-07 0.000000000000D+00  6 2 2 25 2 2 21 2 0.16944290D+00 0.10784977D+00 0.37362841D+06 0.37362841D+06 0.37362841D+06 0.10775694D+01  1  2 13  3  6  5        2 -.110104364023D-02 0.100000000000D+01
-.783966606751D-08 0.000000000000D+00 0.000000000000D+00 0.287886414907D-07 0.000000000000D+00  6 2 2 25 2 2 21 2 0.16944290D+00 0.10784977D+00 0.37362841D+06 0.37362841D+06 0.37362841D+06 0.10775694D+01  1  2 13  3  6  5        2 -.131790647993D-06 0.100000000000D+01
  </mgrwgt>
  </event>
  <event>
  5     66 0.18204334E-05 0.25434884E+02 0.75467711E-02 0.89977595E-01
        2 -1    0    0  501    0 0.00000000E+00 0.00000000E+00 0.11781319E+03 0.11781363E+03 0.32000000E+00 0.0000E+00 0.9000E+01
        2 -1    0    0  502    0 0.00000000E+00 0.00000000E+00 -.35405735E+04 0.35405735E+04 0.32000000E+00 0.0000E+00 0.9000E+01
       25  1    1    2    0    0 0.39884986E+02 -.58707109E+03 -.20847056E+04 0.21697616E+04 0.12500000E+03 0.0000E+00 0.9000E+01
        2  1    1    2  501    0 0.18380107E+02 -.17781914E+02 -.87707380E+01 0.27037992E+02 0.32000000E+00 0.0000E+00 0.9000E+01
        2  1    1    2  502    0 -.58265093E+02 0.60485300E+03 -.13292840E+04 0.14615875E+04 0.32000000E+00 0.0000E+00 0.9000E+01
#aMCatNLO 1  0  0  2  5 0.13920736D+02 0.00000000D+00  -5  6  0 0.00000000D+00 0.00000000D+00 0.00000000D+00 0.00000000D+00 0.00000000D+00
  <mgrwgt>
 0.2401093949D-02    7    2    0
 0.645853763768956D+03 0.000000000000000D+00 0.000000000000000D+00 0.645853763768956D+03
 0.645853763768956D+03 0.000000000000000D+00 0.000000000000000D+00 -.645853763768956D+03
 0.621348011969478D+03 0.399359356537052D+02 -.587257800557219D+03 -.154860416848798D+03
 0.530457154581267D+02 0.182801896734058D+02 -.176852482398257D+02 0.465501298458402D+02
 0.617313800110307D+03 -.582161253271111D+02 0.604943048797044D+03 0.108310287002957D+03
 0.000000000000000D+00 0.000000000000000D+00 0.000000000000000D+00 -.000000000000000D+00
 0.748356967624669D+03 0.000000000000000D+00 0.000000000000000D+00 0.748356967624669D+03
 0.868259650169390D+03 0.000000000000000D+00 0.000000000000000D+00 -.868259650169390D+03
 0.753401642444727D+03 0.837939100693641D+01 -.726592782745729D+03 -.154860416848798D+03
 0.569795994425884D+02 0.157546252909811D+02 -.288366424174869D+02 0.465501298458402D+02
 0.509530023830056D+03 -.840821419694371D+02 0.490734062721782D+03 0.108310287002957D+03
 0.296705352076686D+03 0.599481256715196D+02 0.264695362441434D+03 -.119902682544721D+03
0.298316158252D-03 0.000000000000D+00 0.000000000000D+00 0.782808987971D-08 0.000000000000D+00  6 2 2 25 2 2 21 0 0.18125141D-01 0.54470365D+00 0.38125262D+06 0.38125262D+06 0.38125262D+06 0.10769337D+01  1  2  2  2  6  2        2 0.118662171758D-02 0.100000000000D+01
0.929085286987D-04 0.000000000000D+00 -.114561259614D-05 0.782808987971D-08 0.000000000000D+00  6 2 2 25 2 2 21 2 0.18125141D-01 0.54470365D+00 0.38125262D+06 0.38125262D+06 0.38125262D+06 0.10769337D+01  1  2  3  2  6  2        2 0.428616649362D-03 0.100000000000D+01
-.203190131477D-03 0.000000000000D+00 0.000000000000D+00 0.782808987971D-08 0.000000000000D+00  6 2 2 25 2 2 21 2 0.18125141D-01 0.54470365D+00 0.38125262D+06 0.38125262D+06 0.38125262D+06 0.10769337D+01  1  2 15  2  6  2        2 -.937380825603D-03 0.100000000000D+01
-.621715717120D-04 0.000000000000D+00 0.000000000000D+00 0.782808987971D-08 0.000000000000D+00  6 2 2 25 2 2 21 2 0.18125141D-01 0.54470365D+00 0.38125262D+06 0.38125262D+06 0.38125262D+06 0.10769337D+01  1  2  4  2  6  2        2 -.286817272063D-03 0.100000000000D+01
-.417385420023D-03 0.000000000000D+00 -.140067660748D-03 0.782808987971D-08 0.000000000000D+00  6 2 2 25 2 2 21 2 0.18125141D-01 0.74716469D+00 0.38125262D+06 0.38125262D+06 0.38125262D+06 0.10769337D+01  1  2  5  2  6  2        2 -.122919905803D-03 0.100000000000D+01
0.462357843747D-03 0.000000000000D+00 0.140785517051D-03 0.782808987971D-08 0.000000000000D+00  6 2 2 25 2 2 21 2 0.18125141D-01 0.54470365D+00 0.38125262D+06 0.38125262D+06 0.38125262D+06 0.10769337D+01  1  2  6  2  6  2        2 0.213300406937D-02 0.100000000000D+01
-.133498685474D-04 0.000000000000D+00 -.562174826950D-05 0.782808987971D-08 0.000000000000D+00  6 2 21 25 2 2 -2 2 0.18125141D-01 0.74716469D+00 0.38125262D+06 0.38125262D+06 0.38125262D+06 0.10769337D+01  1  2  5  5  6  2        2 -.304834298214D-07 0.100000000000D+01
  </mgrwgt>
  </event>
  <event>
  5     66 0.18204334E-05 0.59658634E+02 0.75467711E-02 0.92615321E-01
        2 -1    0    0  501    0 0.00000000E+00 0.00000000E+00 0.95565854E+03 0.95565859E+03 0.32000000E+00 0.0000E+00 0.9000E+01
        2 -1    0    0  502    0 0.00000000E+00 0.00000000E+00 -.28388709E+04 0.28388709E+04 0.32000000E+00 0.0000E+00 0.9000E+01
       25  1    1    2    0    0 0.40538110E+03 -.31787702E+03 0.23348030E+03 0.57923888E+03 0.12500000E+03 0.0000E+00 0.9000E+01
        2  1    1    2  501    0 -.36691254E+02 0.47052732E+02 0.52798135E+03 0.53134228E+03 0.32000000E+00 0.0000E+00 0.9000E+01
        2  1    1    2  502    0 -.36868984E+03 0.27082429E+03 -.26446740E+04 0.26839483E+04 0.32000000E+00 0.0000E+00 0.9000E+01
#aMCatNLO 1  0  0  1  5 0.18157197D+03 0.00000000D+00  -5  6  0 0.00000000D+00 0.00000000D+00 0.00000000D+00 0.00000000D+00 0.00000000D+00
  <mgrwgt>
 0.6819766251D-02    7    2    0
 0.164711605897882D+04 0.000000000000000D+00 0.000000000000000D+00 0.164711605897882D+04
 0.164711605897882D+04 0.000000000000000D+00 0.000000000000000D+00 -.164711605897882D+04
 0.800805183020318D+03 0.405410350561197D+03 -.317895751302021D+03 0.600207197652758D+03
 0.913733011221007D+03 -.366858171057338D+02 0.470457589824013D+02 0.911783342236556D+03
 0.157969392371632D+04 -.368724533455463D+03 0.270849992319620D+03 -.151199053988931D+04
 0.000000000000000D+00 -.000000000000000D+00 -.000000000000000D+00 0.000000000000000D+00
 0.186069809788416D+04 0.000000000000000D+00 0.000000000000000D+00 0.186069809788416D+04
 0.168866303642383D+04 0.000000000000000D+00 0.000000000000000D+00 -.168866303642383D+04
 0.821689207884070D+03 0.449649680098367D+03 -.311632218209882D+03 0.600207197652758D+03
 0.913481346357578D+03 0.131354571945789D+02 0.540996000676371D+02 0.911783342236556D+03
 0.156406172448707D+04 -.283006121801859D+03 0.282986254636772D+03 -.151199053988931D+04
 0.250128855579274D+03 -.179779015491087D+03 -.254536364945268D+02 0.172035061460323D+03
0.297921783242D-02 0.000000000000D+00 0.000000000000D+00 0.762932793205D-04 0.000000000000D+00  6 2 2 25 2 2 21 0 0.14702440D+00 0.43674937D+00 0.27421102D+06 0.27421102D+06 0.27421102D+06 0.10874518D+01  1  2  2  1  6  1        2 0.304960991232D-02 0.100000000000D+01
0.953656834766D-03 0.000000000000D+00 -.114409809226D-04 0.762932793205D-04 0.000000000000D+00  6 2 2 25 2 2 21 2 0.14702440D+00 0.43674937D+00 0.27421102D+06 0.27421102D+06 0.27421102D+06 0.10874518D+01  1  2  3  1  6  1        2 0.115439437549D-02 0.100000000000D+01
-.188184996193D-02 0.000000000000D+00 0.000000000000D+00 0.762932793205D-04 0.000000000000D+00  6 2 2 25 2 2 21 2 0.14702440D+00 0.43674937D+00 0.27421102D+06 0.27421102D+06 0.27421102D+06 0.10874518D+01  1  2 15  1  6  1        2 -.227796512580D-02 0.100000000000D+01
-.504301507358D-04 0.000000000000D+00 0.000000000000D+00 0.762932793205D-04 0.000000000000D+00  6 2 2 25 2 2 21 2 0.14702440D+00 0.43674937D+00 0.27421102D+06 0.27421102D+06 0.27421102D+06 0.10874518D+01  1  2  4  1  6  1        2 -.610453155080D-04 0.100000000000D+01
-.210022098038D-01 0.000000000000D+00 -.530153586272D-02 0.762932793205D-04 0.000000000000D+00  6 2 2 25 2 2 21 2 0.16828419D+00 0.43674937D+00 0.27421102D+06 0.27421102D+06 0.27421102D+06 0.10874518D+01  1  2  5  1  6  1        2 -.209079723584D-01 0.100000000000D+01
0.215691869446D-01 0.000000000000D+00 0.525355055403D-02 0.762932793205D-04 0.000000000000D+00  6 2 2 25 2 2 21 2 0.14702440D+00 0.43674937D+00 0.27421102D+06 0.27421102D+06 0.27421102D+06 0.10874518D+01  1  2  6  1  6  1        2 0.261093374316D-01 0.100000000000D+01
-.409272351285D-03 0.000000000000D+00 -.110994935191D-03 0.762932793205D-04 0.000000000000D+00  6 21 2 25 2 2 -2 2 0.16828419D+00 0.43674937D+00 0.27421102D+06 0.27421102D+06 0.27421102D+06 0.10874518D+01  1  2  5  4  6  1        2 -.246592668565D-03 0.100000000000D+01
  </mgrwgt>
  </event>
  <event>
  6     66 -.18204334E-05 0.52722788E+02 0.75467711E-02 0.94050354E-01
        2 -1    0    0  501    0 0.00000000E+00 0.00000000E+00 0.85712536E+03 0.85712542E+03 0.32000000E+00 0.0000E+00 0.9000E+01
        2 -1    0    0  502    0 -.00000000E+00 -.00000000E+00 -.21106771E+04 0.21106772E+04 0.32000000E+00 0.0000E+00 0.9000E+01
       25  1    1    2    0    0 0.35880905E+03 0.27551019E+03 -.13268924E+04 0.14074510E+04 0.12500000E+03 0.0000E+00 0.9000E+01
        2  1    1    2  501    0 -.40011266E+03 -.32633286E+03 0.73316172E+03 0.89672152E+03 0.32000000E+00 0.0000E+00 0.9000E+01
        2  1    1    2  503    0 0.39433027E+02 0.41760957E+02 -.62355331E+03 0.62619308E+03 0.32000000E+00 0.0000E+00 0.9000E+01
       21  1    1    2  502  503 0.18705833E+01 0.90617162E+01 -.36267790E+02 0.37436998E+02 0.75000000E+00 0.0000E+00 0.9000E+01
#aMCatNLO 2  0  0  5  2 0.62909978D+01 0.00000000D+00  -5  6  0 0.00000000D+00 0.00000000D+00 0.00000000D+00 0.00000000D+00 0.00000000D+00
  <mgrwgt>
 -.6419762697D-03    6    2    0
 0.134503346344902D+04 0.000000000000000D+00 0.000000000000000D+00 0.134503346344902D+04
 0.134503346344902D+04 -.000000000000000D+00 -.000000000000000D+00 -.134503346344902D+04
 0.935239698674059D+03 0.358882370962537D+03 0.275602560585047D+03 -.808885014317373D+03
 0.133142306315456D+04 -.400169482625819D+03 -.326396916480522D+03 0.122719876596534D+04
 0.423404165069419D+03 0.412871116632820D+02 0.507943558954744D+02 -.418313751647970D+03
 0.000000000000000D+00 0.000000000000000D+00 0.000000000000000D+00 0.000000000000000D+00
 0.134503346344902D+04 0.000000000000000D+00 0.000000000000000D+00 0.134503346344902D+04
 0.134503346344902D+04 -.000000000000000D+00 -.000000000000000D+00 -.134503346344902D+04
 0.935524896420857D+03 0.358912361827390D+03 0.275639457490683D+03 -.809188876483718D+03
 0.133099876986767D+04 -.400126800433956D+03 -.326344405797247D+03 0.122676631750655D+04
 0.399422168028787D+03 0.393694002770549D+02 0.416756696752928D+02 -.395286297753612D+03
 0.241210925807173D+02 0.184503832951075D+01 0.902927863127170D+01 -.222911432692232D+02
-.851012073830D-03 0.000000000000D+00 0.000000000000D+00 0.576090287239D-05 0.000000000000D+00  6 2 2 25 2 2 21 2 0.13186545D+00 0.32471957D+00 0.27687126D+06 0.27687126D+06 0.27687126D+06 0.10871392D+01  1  2 13  3  6  5        2 -.314446220973D-02 0.100000000000D+01
-.164469334628D-09 0.000000000000D+00 0.000000000000D+00 0.576090287239D-05 0.000000000000D+00  6 2 2 25 2 2 21 2 0.13186545D+00 0.32471957D+00 0.27687126D+06 0.27687126D+06 0.27687126D+06 0.10871392D+01  1  2 13  3  6  5        2 -.607708895447D-09 0.100000000000D+01
-.405556739163D-02 0.000000000000D+00 0.000000000000D+00 0.576090287239D-05 0.000000000000D+00  6 2 2 25 2 2 21 2 0.13186545D+00 0.32471957D+00 0.27630993D+06 0.27630993D+06 0.27630993D+06 0.10872049D+01  1  2  8  3  6  5        2 -.149890770326D-01 0.100000000000D+01
-.195536341449D-01 0.000000000000D+00 0.000000000000D+00 0.576090287239D-05 0.000000000000D+00  6 2 2 25 2 2 21 2 0.13186545D+00 0.32471957D+00 0.27630993D+06 0.27630993D+06 0.27630993D+06 0.10872049D+01  1  2  9  3  6  5        2 -.722687851444D-01 0.100000000000D+01
0.206992697775D-01 0.000000000000D+00 0.000000000000D+00 0.576090287239D-05 0.000000000000D+00  6 2 2 25 2 2 21 2 0.13186545D+00 0.32471957D+00 0.27630993D+06 0.27630993D+06 0.27630993D+06 0.10872049D+01  1  2 10  3  6  5        2 0.765029696840D-01 0.100000000000D+01
0.358795523000D-02 0.000000000000D+00 0.000000000000D+00 0.576090287239D-05 0.106428877062D-06  6 2 2 25 2 2 21 2 0.13186545D+00 0.32471957D+00 0.27687126D+06 0.27687126D+06 0.27687126D+06 0.10871392D+01  1  2  1  3  6  5        2 0.132573790407D-01 0.100000000000D+01
  </mgrwgt>
  </event>
  <event>
  5     66 0.18204334E-05 0.78478423E+02 0.75467711E-02 0.84339200E-01
        2 -1    0    0  501    0 0.00000000E+00 0.00000000E+00 0.52643469E+03 0.52643479E+03 0.32000000E+00 0.0000E+00 0.9000E+01
        2 -1    0    0  502    0 0.00000000E+00 0.00000000E+00 -.32812403E+04 0.32812403E+04 0.32000000E+00 0.0000E+00 0.9000E+01
       25  1    1    2    0    0 0.11695991E+03 -.50329912E+03 -.15198127E+04 0.16101072E+04 0.12500000E+03 0.0000E+00 0.9000E+01
        2  1    1    2  501    0 -.58031680E+02 0.52834959E+02 0.44775093E+03 0.45457695E+03 0.32000000E+00 0.0000E+00 0.9000E+01
        2  1    1    2  502    0 -.58928231E+02 0.45046416E+03 -.16827439E+04 0.17429910E+04 0.32000000E+00 0.0000E+00 0.9000E+01
#aMCatNLO 1  0  0  2  5 0.23609399D+02 0.00000000D+00  -5  6  0 0.00000000D+00 0.00000000D+00 0.00000000D+00 0.00000000D+00 0.00000000D+00
  <mgrwgt>
 0.9739516288D-02    6    2    0
 0.131429028675919D+04 0.000000000000000D+00 0.000000000000000D+00 0.131429028675919D+04
 0.131429028675919D+04 0.000000000000000D+00 0.000000000000000D+00 -.131429028675919D+04
 0.739561601163424D+03 0.116966088560692D+03 -.503339588393122D+03 -.514095861487391D+03
 0.112770548770723D+04 -.580300505019573D+02 0.528334746889330D+02 0.112497146816976D+04
 0.761313484647728D+03 -.589360380587352D+02 0.450506113704189D+03 -.610875606682370D+03
 0.000000000000000D+00 -.000000000000000D+00 0.000000000000000D+00 -.000000000000000D+00
 0.195003678898488D+04 0.000000000000000D+00 0.000000000000000D+00 0.195003678898488D+04
 0.221667216351980D+04 0.000000000000000D+00 0.000000000000000D+00 -.221667216351980D+04
 0.105936789726468D+04 0.227685672561277D+03 -.889100681288036D+03 -.514095861487391D+03
 0.121447901315874D+04 0.861255119117409D+02 -.449422813623131D+03 0.112497146816976D+04
 0.630100206984502D+03 0.267019734613670D+02 0.152132404883466D+03 -.610875606682370D+03
 0.126276183509676D+04 -.340513157934385D+03 0.118639109002770D+04 -.266635374534919D+03
0.143145329900D-01 0.000000000000D+00 0.000000000000D+00 0.784756506691D-05 0.000000000000D+00  6 2 2 25 2 2 21 0 0.80989962D-01 0.50480621D+00 0.28327837D+06 0.28327837D+06 0.28327837D+06 0.10863995D+01  1  2  2  2  6  2        2 0.159548267045D-01 0.100000000000D+01
0.489006269088D-02 0.000000000000D+00 -.549715757848D-04 0.784756506691D-05 0.000000000000D+00  6 2 2 25 2 2 21 2 0.80989962D-01 0.50480621D+00 0.28327837D+06 0.28327837D+06 0.28327837D+06 0.10863995D+01  1  2  3  2  6  2        2 0.643292419032D-02 0.100000000000D+01
-.113468431307D-01 0.000000000000D+00 0.000000000000D+00 0.784756506691D-05 0.000000000000D+00  6 2 2 25 2 2 21 2 0.80989962D-01 0.50480621D+00 0.28327837D+06 0.28327837D+06 0.28327837D+06 0.10863995D+01  1  2 15  2  6  2        2 -.149268805481D-01 0.100000000000D+01
0.153642722005D-02 0.000000000000D+00 -.513905044729D-02 0.784756506691D-05 0.000000000000D+00  6 2 2 25 2 2 21 2 0.80989962D-01 0.87695814D+00 0.28327837D+06 0.28327837D+06 0.28327837D+06 0.10863995D+01  1  2  5  2  6  2        2 0.360522090517D-05 0.100000000000D+01
0.172939698130D-02 0.000000000000D+00 0.448069452094D-02 0.784756506691D-05 0.000000000000D+00  6 2 2 25 2 2 21 2 0.80989962D-01 0.50480621D+00 0.28327837D+06 0.28327837D+06 0.28327837D+06 0.10863995D+01  1  2  6  2  6  2        2 0.227503825185D-02 0.100000000000D+01
0.351539531075D-03 0.000000000000D+00 -.314164773483D-03 0.784756506691D-05 0.000000000000D+00  6 2 21 25 2 2 -2 2 0.80989962D-01 0.87695814D+00 0.28327837D+06 0.28327837D+06 0.28327837D+06 0.10863995D+01  1  2  5  5  6  2        2 0.246857391986D-08 0.100000000000D+01
  </mgrwgt>
  </event>
  <event>
  6     66 0.18204334E-05 0.12566919E+03 0.75467711E-02 0.95299253E-01
        2 -1    0    0  501    0 0.00000000E+00 0.00000000E+00 0.40275315E+03 0.40275328E+03 0.32000000E+00 0.0000E+00 0.9000E+01
        2 -1    0    0  502    0 -.00000000E+00 -.00000000E+00 -.98043183E+03 0.98043188E+03 0.32000000E+00 0.0000E+00 0.9000E+01
       25  1    1    2    0    0 -.44453140E+03 0.92119785E+02 -.44249185E+02 0.47294525E+03 0.12500000E+03 0.0000E+00 0.9000E+01
        2  1    1    2  501    0 0.32703584E+03 -.30575633E+02 0.95536194E+01 0.32860110E+03 0.32000000E+00 0.0000E+00 0.9000E+01
        2  1    1    2  503    0 0.11065549E+03 -.71239274E+02 -.55151870E+03 0.56700322E+03 0.32000000E+00 0.0000E+00 0.9000E+01
       21  1    1    2  502  503 0.68400671E+01 0.96951223E+01 0.85355858E+01 0.14635595E+02 0.75000000E+00 0.0000E+00 0.9000E+01
#aMCatNLO 2  0  0  5  2 0.13953180D+02 0.00000000D+00  -5  6  0 0.00000000D+00 0.00000000D+00 0.00000000D+00 0.00000000D+00 0.00000000D+00
  <mgrwgt>
 0.2092987434D-02    2    2    0
 0.628388519670532D+03 0.000000000000000D+00 0.000000000000000D+00 0.628388519670532D+03
 0.628388519670532D+03 -.000000000000000D+00 -.000000000000000D+00 -.628388519670532D+03
 0.509303770296352D+03 -.449154577212075D+03 0.945655151649022D+02 0.181886941667393D+03
 0.367144241870214D+03 0.323590129389841D+03 -.287968261271055D+02 0.171041121678167D+03
 0.380329027174499D+03 0.125564447822235D+03 -.657686890377967D+02 -.352928063345560D+03
 0.000000000000000D+00 0.000000000000000D+00 0.000000000000000D+00 0.000000000000000D+00
 0.628388519670532D+03 0.000000000000000D+00 0.000000000000000D+00 0.628388519670532D+03
 0.628388519670532D+03 -.000000000000000D+00 -.000000000000000D+00 -.628388519670532D+03
 0.500158285505284D+03 -.444484869178344D+03 0.921195953134282D+02 0.168761641940298D+03
 0.365973692406012D+03 0.326981486883356D+03 -.305731660089387D+02 0.161508923248933D+03
 0.370586050680741D+03 0.110651929391011D+03 -.712610582847450D+02 -.346427529294849D+03
 0.200590107490289D+02 0.685145290397724D+01 0.971462898025553D+01 0.161569641056176D+02
-.125498789296D-03 0.000000000000D+00 0.000000000000D+00 0.656436526000D-07 0.000000000000D+00  6 2 2 25 2 2 21 2 0.61962037D-01 0.15083568D+00 0.22199781D+06 0.22199781D+06 0.22199781D+06 0.10943617D+01  1  2  8  3  6  5        2 -.497354864510D-02 0.100000000000D+01
0.178325003501D-03 0.000000000000D+00 0.000000000000D+00 0.656436526000D-07 0.432307096832D-08  6 2 2 25 2 2 21 2 0.61962037D-01 0.15083568D+00 0.22218737D+06 0.22218737D+06 0.22218737D+06 0.10943335D+01  1  2  1  3  6  5        2 0.706653607947D-02 0.100000000000D+01
  </mgrwgt>
  </event>
  <event>
  5     66 0.18204334E-05 0.65914417E+02 0.75467711E-02 0.92957720E-01
        2 -1    0    0  501    0 0.00000000E+00 0.00000000E+00 0.33721471E+04 0.33721471E+04 0.32000000E+00 0.0000E+00 0.9000E+01
        2 -1    0    0  502    0 0.00000000E+00 0.00000000E+00 -.13218824E+04 0.13218825E+04 0.32000000E+00 0.0000E+00 0.9000E+01
       25  1    1    2    0    0 -.47527411E+03 -.74757142E+02 -.23303832E+03 0.54900453E+03 0.12500000E+03 0.0000E+00 0.9000E+01
        2  1    1    2  501    0 0.42423099E+03 0.11646058E+03 0.31979191E+04 0.32280368E+04 0.32000000E+00 0.0000E+00 0.9000E+01
        2  1    1    2  502    0 0.51043125E+02 -.41703433E+02 -.91461615E+03 0.91698821E+03 0.32000000E+00 0.0000E+00 0.9000E+01
#aMCatNLO 1  0  0  1  2 0.11137971D+02 0.00000000D+00  -5  6  0 0.00000000D+00 0.00000000D+00 0.00000000D+00 0.00000000D+00 0.00000000D+00
  <mgrwgt>
 0.5748579165D-01    7    2    0
 0.211129868726240D+04 0.000000000000000D+00 0.000000000000000D+00 0.211129868726240D+04
 0.211129868726240D+04 0.000000000000000D+00 0.000000000000000D+00 -.211129868726240D+04
 0.723439048897735D+03 -.475274538275203D+03 -.747564614753806D+02 -.525608830029550D+03
 0.203569283832192D+04 0.424230567356206D+03 0.116460459338954D+03 0.198758917262254D+04
 0.146346548730515D+04 0.510439709189972D+02 -.417039978635730D+02 -.146198034259299D+04
 0.000000000000000D+00 0.000000000000000D+00 0.000000000000000D+00 0.000000000000000D+00
 0.245436438334768D+04 0.000000000000000D+00 0.000000000000000D+00 0.245436438334768D+04
 0.214184719433902D+04 0.000000000000000D+00 0.000000000000000D+00 -.214184719433902D+04
 0.743697563223814D+03 -.501991852686855D+03 -.959197746871100D+02 -.525608830029550D+03
 0.201907041962151D+04 0.350391237104175D+03 0.579708653105008D+02 0.198758917262254D+04
 0.146438973215444D+04 -.227378272698520D+01 -.839380451472940D+02 -.146198034259299D+04
 0.369053862686938D+03 0.153874398309665D+03 0.121886954523903D+03 0.312517189008662D+03
0.479690305625D-01 0.000000000000D+00 0.000000000000D+00 0.321026785155D-03 0.000000000000D+00  6 2 2 25 2 2 21 0 0.51879186D+00 0.20336653D+00 0.25146768D+06 0.25146768D+06 0.25146768D+06 0.10902679D+01  1  2  2  1  6  1        2 0.135848895114D-01 0.100000000000D+01
0.163732919783D-01 0.000000000000D+00 -.184213707896D-03 0.321026785155D-03 0.000000000000D+00  6 2 2 25 2 2 21 2 0.51879186D+00 0.20336653D+00 0.25146768D+06 0.25146768D+06 0.25146768D+06 0.10902679D+01  1  2  3  1  6  1        2 0.551185313553D-02 0.100000000000D+01
-.317318032066D-01 0.000000000000D+00 0.000000000000D+00 0.321026785155D-03 0.000000000000D+00  6 2 2 25 2 2 21 2 0.51879186D+00 0.20336653D+00 0.25146768D+06 0.25146768D+06 0.25146768D+06 0.10902679D+01  1  2 15  1  6  1        2 -.106820936945D-01 0.100000000000D+01
-.162264474667D-01 0.000000000000D+00 0.000000000000D+00 0.321026785155D-03 0.000000000000D+00  6 2 2 25 2 2 21 2 0.51879186D+00 0.20336653D+00 0.25146768D+06 0.25146768D+06 0.25146768D+06 0.10902679D+01  1  2  4  1  6  1        2 -.546241986442D-02 0.100000000000D+01
-.254451985247D+00 0.000000000000D+00 -.429160664792D-01 0.321026785155D-03 0.000000000000D+00  6 2 2 25 2 2 21 2 0.60474450D+00 0.20336653D+00 0.25146768D+06 0.25146768D+06 0.25146768D+06 0.10902679D+01  1  2  5  1  6  1        2 -.330519629906D-01 0.100000000000D+01
0.260222875479D+00 0.000000000000D+00 0.428965887461D-01 0.321026785155D-03 0.000000000000D+00  6 2 2 25 2 2 21 2 0.51879186D+00 0.20336653D+00 0.25146768D+06 0.25146768D+06 0.25146768D+06 0.10902679D+01  1  2  6  1  6  1        2 0.876006043284D-01 0.100000000000D+01
-.559761879618D-02 0.000000000000D+00 -.996337790503D-03 0.321026785155D-03 0.000000000000D+00  6 21 2 25 2 2 -2 2 0.60474450D+00 0.20336653D+00 0.25146768D+06 0.25146768D+06 0.25146768D+06 0.10902679D+01  1  2  5  4  6  1        2 -.150787771722D-04 0.100000000000D+01
  </mgrwgt>
  </event>
  <event>
  5     66 0.18204334E-05 0.34879230E+02 0.75467711E-02 0.87326206E-01
        2 -1    0    0  501    0 0.00000000E+00 0.00000000E+00 0.79691986E+03 0.79691993E+03 0.32000000E+00 0.0000E+00 0.9000E+01
        2 -1    0    0  502    0 0.00000000E+00 0.00000000E+00 -.21033299E+04 0.21033299E+04 0.32000000E+00 0.0000E+00 0.9000E+01
       25  1    1    2    0    0 0.25471764E+03 -.55623046E+03 -.26188862E+03 0.67711450E+03 0.12500000E+03 0.0000E+00 0.9000E+01
        2  1    1    2  501    0 -.22967154E+03 0.58050018E+03 0.42370789E+03 0.75449185E+03 0.32000000E+00 0.0000E+00 0.9000E+01
        2  1    1    2  502    0 -.25046100E+02 -.24269712E+02 -.14682293E+04 0.14686435E+04 0.32000000E+00 0.0000E+00 0.9000E+01
#aMCatNLO 1  0  0  1  2 0.11137971D+02 0.00000000D+00  -5  6  0 0.00000000D+00 0.00000000D+00 0.00000000D+00 0.00000000D+00 0.00000000D+00
  <mgrwgt>
 0.5389857729D-02    4    2    0
 0.129467581497662D+04 0.000000000000000D+00 0.000000000000000D+00 0.129467581497662D+04
 0.129467581497662D+04 0.000000000000000D+00 0.000000000000000D+00 -.129467581497662D+04
 0.626264058833715D+03 0.254710384854075D+03 -.556203558871149D+03 0.483931021266001D+02
 0.105881118535848D+04 -.229661780175485D+03 0.580475519683047D+03 0.855210362434623D+03
 0.904276385761037D+03 -.250486046785891D+02 -.242719608118980D+02 -.903603464561223D+03
 0.000000000000000D+00 -.000000000000000D+00 -.000000000000000D+00 -.000000000000000D+00
 0.140607517236146D+04 0.000000000000000D+00 0.000000000000000D+00 0.140607517236146D+04
 0.205265621620962D+04 0.000000000000000D+00 0.000000000000000D+00 -.205265621620962D+04
 0.537028385171442D+03 0.269493740554725D+03 -.444753547426250D+03 0.483931021266001D+02
 0.118515888495905D+04 -.201144954589561D+03 0.795460574651558D+03 0.855210362434623D+03
 0.915990660637359D+03 -.191628283144288D+01 0.150119942272599D+03 -.903603464561223D+03
 0.820553457803233D+03 -.664325031337213D+02 -.500826969497907D+03 -.646581043848157D+03
0.174250809770D-02 0.000000000000D+00 0.000000000000D+00 0.117021109954D-04 0.000000000000D+00  6 2 2 25 2 2 21 0 0.12260306D+00 0.32358922D+00 0.41186065D+06 0.41186065D+06 0.41186065D+06 0.10745140D+01  1  2  2  1  6  1        2 0.589031825418D-02 0.100000000000D+01
0.116148065639D-02 0.000000000000D+00 -.669168990810D-05 0.117021109954D-04 0.000000000000D+00  6 2 2 25 2 2 21 2 0.12260306D+00 0.32358922D+00 0.41186065D+06 0.41186065D+06 0.41186065D+06 0.10745140D+01  1  2  3  1  6  1        2 0.453314990420D-02 0.100000000000D+01
-.128842617499D-02 0.000000000000D+00 0.000000000000D+00 0.117021109954D-04 0.000000000000D+00  6 2 2 25 2 2 21 2 0.12260306D+00 0.32358922D+00 0.41186065D+06 0.41186065D+06 0.41186065D+06 0.10745140D+01  1  2 15  1  6  1        2 -.502860633930D-02 0.100000000000D+01
-.128214457990D-05 0.000000000000D+00 0.000000000000D+00 0.117021109954D-04 0.000000000000D+00  6 2 2 25 2 2 21 2 0.12260306D+00 0.32358922D+00 0.41186065D+06 0.41186065D+06 0.41186065D+06 0.10745140D+01  1  2  4  1  6  1        2 -.500408986373D-05 0.100000000000D+01
  </mgrwgt>
  </event>
  <event>
  6     66 0.18204334E-05 0.65460458E+02 0.75467711E-02 0.94628611E-01
        2 -1    0    0  501    0 0.00000000E+00 0.00000000E+00 0.14674412E+04 0.14674413E+04 0.32000000E+00 0.0000E+00 0.9000E+01
        2 -1    0    0  502    0 0.00000000E+00 0.00000000E+00 -.11656092E+04 0.11656092E+04 0.32000000E+00 0.0000E+00 0.9000E+01
       25  1    1    2    0    0 -.89668223E+01 0.46797637E+03 0.85869729E+02 0.49201718E+03 0.12500000E+03 0.0000E+00 0.9000E+01
        2  1    1    2  501    0 -.49339989E+02 -.38806478E+02 0.11229330E+04 0.11246862E+04 0.32000000E+00 0.0000E+00 0.9000E+01
        2  1    1    2  503    0 0.10075948E+03 -.30669002E+03 -.71748353E+03 0.78676169E+03 0.32000000E+00 0.0000E+00 0.9000E+01
       21  1    1    2  502  503 -.42452665E+02 -.12247988E+03 -.18948713E+03 0.22958546E+03 0.75000000E+00 0.0000E+00 0.9000E+01
#aMCatNLO 2  0  0  5  2 0.11074410D+03 0.00000000D+00  -5  6  0 0.00000000D+00 0.00000000D+00 0.00000000D+00 0.00000000D+00 0.00000000D+00
  <mgrwgt>
 0.1694318373D-01    1    2    0
 0.130784673619399D+04 0.000000000000000D+00 0.000000000000000D+00 0.130784673619399D+04
 0.130784673619399D+04 -.000000000000000D+00 -.000000000000000D+00 -.130784673619399D+04
 0.486208834653129D+03 -.906966340162579D+01 0.468725396336482D+03 0.314368403269476D+02
 0.100608132125570D+04 -.495419444089504D+02 -.373065365816300D+02 0.100416803526705D+04
 0.112340331647916D+04 0.586116078105763D+02 -.431418859754853D+03 -.103560487559399D+04
 0.000000000000000D+00 0.000000000000000D+00 -.000000000000000D+00 0.000000000000000D+00
 0.130784673619399D+04 0.000000000000000D+00 0.000000000000000D+00 0.130784673619399D+04
 0.130784673619399D+04 -.000000000000000D+00 -.000000000000000D+00 -.130784673619399D+04
 0.485398268814286D+03 -.897113435992335D+01 0.468000159674124D+03 0.296959367792338D+02
 0.100253606415739D+04 -.493382538992523D+02 -.388058287989815D+02 0.100056904024140D+04
 0.874655941544473D+03 0.100777600040240D+03 -.306649326201903D+03 -.812916405388092D+03
 0.253103197871836D+03 -.424682117810638D+02 -.122545004673240D+03 -.217348571632537D+03
0.313304849399D-02 0.000000000000D+00 0.000000000000D+00 0.429018940383D-04 0.221548066579D-07  6 2 2 25 2 2 21 2 0.22576020D+00 0.17932450D+00 0.24986976D+06 0.24986976D+06 0.24986976D+06 0.10904761D+01  1  2  1  3  6  5        2 0.169431837251D-01 0.100000000000D+01
  </mgrwgt>
  </event>
  <event>
  6     66 0.18204334E-05 0.66376078E+02 0.75467711E-02 0.91531242E-01
        2 -1    0    0  501    0 0.00000000E+00 0.00000000E+00 0.11967898E+04 0.11967898E+04 0.32000000E+00 0.0000E+00 0.9000E+01
        2 -1    0    0  503    0 0.00000000E+00 0.00000000E+00 -.17949360E+04 0.17949360E+04 0.32000000E+00 0.0000E+00 0.9000E+01
       25  1    1    2    0    0 -.53203592E+03 0.91172353E+02 0.13033403E+03 0.56919819E+03 0.12500000E+03 0.0000E+00 0.9000E+01
        2  1    1    2  501    0 -.97330765E+02 -.68688504E+02 0.58637213E+03 0.59835087E+03 0.32000000E+00 0.0000E+00 0.9000E+01
        2  1    1    2  502    0 0.52469397E+03 0.47508829E+02 -.24199669E+02 0.52739604E+03 0.32000000E+00 0.0000E+00 0.9000E+01
       21  1    1    2  503  502 0.10467271E+03 -.69992678E+02 -.12906527E+04 0.12967808E+04 0.75000000E+00 0.0000E+00 0.9000E+01
#aMCatNLO 2  0  0  2  5 0.41324910D+01 0.00000000D+00  -5  6  0 0.00000000D+00 0.00000000D+00 0.00000000D+00 0.00000000D+00 0.00000000D+00
  <mgrwgt>
 0.2859670331D-02    1    2    0
 0.770943950291427D+03 0.000000000000000D+00 0.000000000000000D+00 0.770943950291427D+03
 0.770943950291427D+03 0.000000000000000D+00 0.000000000000000D+00 -.770943950291427D+03
 0.527004854772130D+03 -.495142691696523D+03 0.664108405048270D+02 -.111948345572224D+03
 0.390757286751894D+03 -.707382913861969D+02 -.864213303236089D+02 0.374457881405321D+03
 0.624125759058830D+03 0.565880983082720D+03 0.200104898187819D+02 -.262509535833096D+03
 0.000000000000000D+00 0.000000000000000D+00 -.000000000000000D+00 -.000000000000000D+00
 0.775495803478012D+03 0.000000000000000D+00 0.000000000000000D+00 0.775495803478012D+03
 0.277004826052071D+04 0.000000000000000D+00 0.000000000000000D+00 -.277004826052071D+04
 0.565387227114382D+03 -.532160179927194D+03 0.911637395436828D+02 -.111948345572224D+03
 0.392937253072844D+03 -.972950596797782D+02 -.686633182112513D+02 0.374457881405321D+03
 0.588696415028091D+03 0.524782524663261D+03 0.474922569654407D+02 -.262509535833096D+03
 0.199852316878341D+04 0.104672714943710D+03 -.699926782978722D+02 -.199455245704270D+04
0.893972100433D-03 0.000000000000D+00 0.000000000000D+00 0.725381184660D-07 0.526386876449D-10  6 2 2 25 2 2 21 2 0.18412149D+00 0.27614398D+00 0.43965020D+06 0.43965020D+06 0.43965020D+06 0.10724810D+01  1  2  1  2  6  2        2 0.285967033064D-02 0.100000000000D+01
  </mgrwgt>
  </event>
  <event>
  5     66 0.18204334E-05 0.22194932E+03 0.75467711E-02 0.93300224E-01
        2 -1    0    0  501    0 0.00000000E+00 0.00000000E+00 0.56424469E+03 0.56424478E+03 0.32000000E+00 0.0000E+00 0.9000E+01
        2 -1    0    0  502    0 0.00000000E+00 0.00000000E+00 -.26001955E+04 0.26001956E+04 0.32000000E+00 0.0000E+00 0.9000E+01
       25  1    1    2    0    0 0.57574242E+02 0.51476184E+03 -.16632997E+04 0.17465639E+04 0.12500000E+03 0.0000E+00 0.9000E+01
        2  1    1    2  501    0 0.10594971E+03 -.19503491E+03 0.46018416E+03 0.51091440E+03 0.32000000E+00 0.0000E+00 0.9000E+01
        2  1    1    2  502    0 -.16352396E+03 -.31972692E+03 -.83283526E+03 0.90696199E+03 0.32000000E+00 0.0000E+00 0.9000E+01
#aMCatNLO 1  0  0  2  5 0.15551148D+02 0.00000000D+00  -5  6  0 0.00000000D+00 0.00000000D+00 0.00000000D+00 0.00000000D+00 0.00000000D+00
  <mgrwgt>
 0.5326253243D-02   11    2    0
 0.121125831008985D+04 0.000000000000000D+00 0.000000000000000D+00 0.121125831008985D+04
 0.121125831008985D+04 0.000000000000000D+00 0.000000000000000D+00 -.121125831008985D+04
 0.883578164829543D+03 0.575857500791467D+02 0.514794960012101D+03 -.704808771155342D+03
 0.105411313667701D+04 0.105947069645138D+03 -.195030044693406D+03 0.103048192852448D+04
 0.484825318673159D+03 -.163532819724284D+03 -.319764915318695D+03 -.325673157369137D+03
 0.000000000000000D+00 0.000000000000000D+00 -.000000000000000D+00 -.000000000000000D+00
 0.121350702824937D+04 0.000000000000000D+00 0.000000000000000D+00 0.121350702824937D+04
 0.123847123868377D+04 0.000000000000000D+00 0.000000000000000D+00 -.123847123868377D+04
 0.886743724959891D+03 0.563611461093855D+02 0.520343589436321D+03 -.704808771155342D+03
 0.105276572055266D+04 0.104489655472466D+03 -.188426561966385D+03 0.103048192852448D+04
 0.483057088818134D+03 -.164202343524059D+03 -.316731330953972D+03 -.325673157369137D+03
 0.294117326024601D+02 0.335154194220699D+01 -.151856965159642D+02 -.249642104344054D+02
0.220556304814D-03 0.000000000000D+00 0.000000000000D+00 0.208888117799D-06 0.000000000000D+00  6 2 2 25 2 2 21 0 0.86806884D-01 0.40003009D+00 0.31023727D+06 0.31023727D+06 0.31023727D+06 0.10834754D+01  1  2  2  2  6  2        2 0.602371075228D-03 0.100000000000D+01
0.190887728546D-04 0.000000000000D+00 -.846994284295D-06 0.208888117799D-06 0.000000000000D+00  6 2 2 25 2 2 21 2 0.86806884D-01 0.40003009D+00 0.31023727D+06 0.31023727D+06 0.31023727D+06 0.10834754D+01  1  2  3  2  6  2        2 0.612013100173D-04 0.100000000000D+01
-.170147642420D-03 0.000000000000D+00 0.000000000000D+00 0.208888117799D-06 0.000000000000D+00  6 2 2 25 2 2 21 2 0.86806884D-01 0.40003009D+00 0.31023727D+06 0.31023727D+06 0.31023727D+06 0.10834754D+01  1  2 15  2  6  2        2 -.545517445870D-03 0.100000000000D+01
0.591480044608D-03 0.000000000000D+00 0.000000000000D+00 0.208888117799D-06 0.000000000000D+00  6 2 2 25 2 2 21 2 0.86806884D-01 0.41464632D+00 0.31690260D+06 0.31690260D+06 0.31690260D+06 0.10827951D+01  1  2 12  2  6  2        2 0.166107642558D-02 0.100000000000D+01
0.457666484773D-08 0.000000000000D+00 0.000000000000D+00 0.208888117799D-06 0.000000000000D+00  6 2 2 25 2 2 21 2 0.86806884D-01 0.40944486D+00 0.31690260D+06 0.31690260D+06 0.31690260D+06 0.10827951D+01  1  2 12  2  6  2        2 0.134634590297D-07 0.100000000000D+01
-.367510872322D-03 0.000000000000D+00 0.000000000000D+00 0.208888117799D-06 0.000000000000D+00  6 2 2 25 2 2 21 2 0.86806884D-01 0.40003009D+00 0.31023727D+06 0.31023727D+06 0.31023727D+06 0.10834754D+01  1  2  4  2  6  2        2 -.117829192075D-02 0.100000000000D+01
-.184554116131D-01 0.000000000000D+00 -.156321977522D-02 0.208888117799D-06 0.000000000000D+00  6 2 2 25 2 2 21 2 0.86806884D-01 0.40924909D+00 0.31023727D+06 0.31023727D+06 0.31023727D+06 0.10834754D+01  1  2  5  2  6  2        2 -.545346249602D-01 0.100000000000D+01
0.184866354090D-01 0.000000000000D+00 0.156281411324D-02 0.208888117799D-06 0.000000000000D+00  6 2 2 25 2 2 21 2 0.86806884D-01 0.40003009D+00 0.31023727D+06 0.31023727D+06 0.31023727D+06 0.10834754D+01  1  2  6  2  6  2        2 0.592707720636D-01 0.100000000000D+01
0.425240469792D-04 0.000000000000D+00 0.000000000000D+00 0.208888117799D-06 0.000000000000D+00  6 2 21 25 2 2 -2 2 0.86806884D-01 0.41464632D+00 0.31690260D+06 0.31690260D+06 0.31690260D+06 0.10827951D+01  1  2 12  5  6  2        2 0.112649075337D-04 0.100000000000D+01
0.217273108980D-09 0.000000000000D+00 0.000000000000D+00 0.208888117799D-06 0.000000000000D+00  6 2 21 25 2 2 -2 2 0.86806884D-01 0.40944486D+00 0.31690260D+06 0.31690260D+06 0.31690260D+06 0.10827951D+01  1  2 12  5  6  2        2 0.625563626803D-10 0.100000000000D+01
-.759198668046D-04 0.000000000000D+00 -.645565166300D-05 0.208888117799D-06 0.000000000000D+00  6 2 21 25 2 2 -2 2 0.86806884D-01 0.40924909D+00 0.31023727D+06 0.31023727D+06 0.31023727D+06 0.10834754D+01  1  2  5  5  6  2        2 -.220117383022D-04 0.100000000000D+01
  </mgrwgt>
  </event>
  <event>
  5     66 -.18204334E-05 0.18257080E+03 0.75467711E-02 0.91053181E-01
        2 -1    0    0  501    0 0.00000000E+00 0.00000000E+00 0.11318716E+04 0.11318716E+04 0.32000000E+00 0.0000E+00 0.9000E+01
        2 -1    0    0  502    0 0.00000000E+00 0.00000000E+00 -.11771090E+04 0.11771090E+04 0.32000000E+00 0.0000E+00 0.9000E+01
       25  1    1    2    0    0 -.25351877E+03 -.43648831E+03 -.42740272E+03 0.67312101E+03 0.12500000E+03 0.0000E+00 0.9000E+01
        2  1    1    2  501    0 -.18200402E+03 0.14531052E+02 0.85036160E+03 0.86974224E+03 0.32000000E+00 0.0000E+00 0.9000E+01
        2  1    1    2  502    0 0.43552279E+03 0.42195726E+03 -.46819627E+03 0.76611741E+03 0.32000000E+00 0.0000E+00 0.9000E+01
#aMCatNLO 1  0  0  2  5 0.77209309D+02 0.00000000D+00  -5  6  0 0.00000000D+00 0.00000000D+00 0.00000000D+00 0.00000000D+00 0.00000000D+00
  <mgrwgt>
 -.3835793420D-02   11    2    0
 0.115426873827740D+04 0.000000000000000D+00 0.000000000000000D+00 0.115426873827740D+04
 0.115426873827740D+04 0.000000000000000D+00 0.000000000000000D+00 -.115426873827740D+04
 0.664918099035968D+03 -.253563336870654D+03 -.436537407835334D+03 -.414284689773870D+03
 0.886512476144744D+03 -.181991682696709D+03 0.145300672215494D+02 0.867509236225208D+03
 0.757106901374083D+03 0.435555019567363D+03 0.422007340613784D+03 -.453224546451338D+03
 0.000000000000000D+00 -.000000000000000D+00 0.000000000000000D+00 -.000000000000000D+00
 0.116168577306786D+04 0.000000000000000D+00 0.000000000000000D+00 0.116168577306786D+04
 0.137499639527183D+04 0.000000000000000D+00 0.000000000000000D+00 -.137499639527183D+04
 0.679669775342201D+03 -.252992298326510D+03 -.459008819436136D+03 -.414284689773870D+03
 0.886367725540249D+03 -.181238750925864D+03 -.150991756789211D+02 0.867509236225208D+03
 0.743790752050702D+03 0.436192441953250D+03 0.396923603370961D+03 -.453224546451338D+03
 0.226853915406543D+03 -.196139270087528D+01 0.771843917440964D+02 -.213310622203972D+03
0.830977968772D-04 0.000000000000D+00 0.000000000000D+00 0.126868274319D-06 0.000000000000D+00  6 2 2 25 2 2 21 0 0.17413410D+00 0.18109370D+00 0.42844594D+06 0.42844594D+06 0.42844594D+06 0.10732834D+01  1  2  2  2  6  2        2 0.560062607982D-03 0.100000000000D+01
0.113348931811D-04 0.000000000000D+00 -.319117420161D-06 0.126868274319D-06 0.000000000000D+00  6 2 2 25 2 2 21 2 0.17413410D+00 0.18109370D+00 0.42844594D+06 0.42844594D+06 0.42844594D+06 0.10732834D+01  1  2  3  2  6  2        2 0.880021513012D-04 0.100000000000D+01
-.573939866654D-04 0.000000000000D+00 0.000000000000D+00 0.126868274319D-06 0.000000000000D+00  6 2 2 25 2 2 21 2 0.17413410D+00 0.18109370D+00 0.42844594D+06 0.42844594D+06 0.42844594D+06 0.10732834D+01  1  2 15  2  6  2        2 -.445596991309D-03 0.100000000000D+01
0.144179288619D-02 0.000000000000D+00 0.000000000000D+00 0.126868274319D-06 0.000000000000D+00  6 2 2 25 2 2 21 2 0.17413410D+00 0.22030769D+00 0.48138949D+06 0.48138949D+06 0.48138949D+06 0.10696766D+01  1  2 12  2  6  2        2 0.789926326026D-02 0.100000000000D+01
0.130472860044D-07 0.000000000000D+00 0.000000000000D+00 0.126868274319D-06 0.000000000000D+00  6 2 2 25 2 2 21 2 0.17413410D+00 0.21643284D+00 0.48138949D+06 0.48138949D+06 0.48138949D+06 0.10696766D+01  1  2 12  2  6  2        2 0.738443700174D-07 0.100000000000D+01
-.199469464641D-02 0.000000000000D+00 0.000000000000D+00 0.126868274319D-06 0.000000000000D+00  6 2 2 25 2 2 21 2 0.17413410D+00 0.18109370D+00 0.42844594D+06 0.42844594D+06 0.42844594D+06 0.10732834D+01  1  2  4  2  6  2        2 -.154864644305D-01 0.100000000000D+01
-.179212055433D-02 0.000000000000D+00 -.113124273044D-03 0.126868274319D-06 0.000000000000D+00  6 2 2 25 2 2 21 2 0.17413410D+00 0.21624750D+00 0.42844594D+06 0.42844594D+06 0.42844594D+06 0.10732834D+01  1  2  5  2  6  2        2 -.102968671192D-01 0.100000000000D+01
0.178577058377D-02 0.000000000000D+00 0.111367090009D-03 0.126868274319D-06 0.000000000000D+00  6 2 2 25 2 2 21 2 0.17413410D+00 0.18109370D+00 0.42844594D+06 0.42844594D+06 0.42844594D+06 0.10732834D+01  1  2  6  2  6  2        2 0.138644141230D-01 0.100000000000D+01
0.406256293328D-04 0.000000000000D+00 0.000000000000D+00 0.126868274319D-06 0.000000000000D+00  6 2 21 25 2 2 -2 2 0.17413410D+00 0.22030769D+00 0.48138949D+06 0.48138949D+06 0.48138949D+06 0.10696766D+01  1  2 12  5  6  2        2 0.828575294940D-04 0.100000000000D+01
0.341508248861D-09 0.000000000000D+00 0.000000000000D+00 0.126868274319D-06 0.000000000000D+00  6 2 21 25 2 2 -2 2 0.17413410D+00 0.21643284D+00 0.48138949D+06 0.48138949D+06 0.48138949D+06 0.10696766D+01  1  2 12  5  6  2        2 0.742804724672D-09 0.100000000000D+01
-.456734249204D-04 0.000000000000D+00 -.294982330124D-05 0.126868274319D-06 0.000000000000D+00  6 2 21 25 2 2 -2 2 0.17413410D+00 0.21624750D+00 0.42844594D+06 0.42844594D+06 0.42844594D+06 0.10732834D+01  1  2  5  5  6  2        2 -.101539137793D-03 0.100000000000D+01
  </mgrwgt>
  </event>
  <event>
  5     66 0.18204334E-05 0.11268226E+03 0.75467711E-02 0.85724788E-01
        2 -1    0    0  501    0 0.00000000E+00 0.00000000E+00 0.31097970E+04 0.31097971E+04 0.32000000E+00 0.0000E+00 0.9000E+01
        2 -1    0    0  502    0 0.00000000E+00 0.00000000E+00 -.10904072E+04 0.10904072E+04 0.32000000E+00 0.0000E+00 0.9000E+01
       25  1    1    2    0    0 0.27413966E+03 -.70490027E+03 0.40074464E+03 0.86501920E+03 0.12500000E+03 0.0000E+00 0.9000E+01
        2  1    1    2  501    0 -.10861419E+03 -.30026814E+02 0.23099683E+04 0.23127154E+04 0.32000000E+00 0.0000E+00 0.9000E+01
        2  1    1    2  502    0 -.16552547E+03 0.73492709E+03 -.69132314E+03 0.10224697E+04 0.32000000E+00 0.0000E+00 0.9000E+01
#aMCatNLO 1  0  0  1  4 0.17473323D+03 0.00000000D+00  -5  6  0 0.00000000D+00 0.00000000D+00 0.00000000D+00 0.00000000D+00 0.00000000D+00
  <mgrwgt>
 0.1742755812D-02    3    2    0
 0.184145192519985D+04 0.000000000000000D+00 0.000000000000000D+00 0.184145192519985D+04
 0.184145192519985D+04 0.000000000000000D+00 0.000000000000000D+00 -.184145192519985D+04
 0.766841823077167D+03 0.274149845055100D+03 -.704958916084381D+03 -.172096109692693D+02
 0.137089655182214D+04 -.108608375502313D+03 -.300252067407238D+02 0.136625768562477D+04
 0.154516547550040D+04 -.165541469552787D+03 0.734984122825104D+03 -.134904807465550D+04
 0.000000000000000D+00 0.000000000000000D+00 0.000000000000000D+00 -.000000000000000D+00
 0.190529152607963D+04 0.000000000000000D+00 0.000000000000000D+00 0.190529152607963D+04
 0.357199788867639D+04 0.000000000000000D+00 0.000000000000000D+00 -.357199788867639D+04
 0.784789376087192D+03 0.171338537677703D+03 -.755391487651321D+03 -.172096109692693D+02
 0.140234661302483D+04 -.292363868177957D+03 -.120163755423553D+03 0.136625768562477D+04
 0.153610802053317D+04 -.369707096465384D+03 0.634833683603645D+03 -.134904807465550D+04
 0.175404540511082D+04 0.490732426965639D+03 0.240721559471230D+03 -.166670636259676D+04
0.459572278715D-02 0.000000000000D+00 0.000000000000D+00 0.455472286389D-05 0.000000000000D+00  6 2 2 25 2 2 21 0 0.47843032D+00 0.16775496D+00 0.66644938D+06 0.66644938D+06 0.66644938D+06 0.10598006D+01  1  2  2  1  6  1        2 0.241770377395D-02 0.100000000000D+01
0.156979626531D-02 0.000000000000D+00 -.176487855843D-04 0.455472286389D-05 0.000000000000D+00  6 2 2 25 2 2 21 2 0.47843032D+00 0.16775496D+00 0.66644938D+06 0.66644938D+06 0.66644938D+06 0.10598006D+01  1  2  3  1  6  1        2 0.927557590379D-03 0.100000000000D+01
-.271207659540D-02 0.000000000000D+00 0.000000000000D+00 0.455472286389D-05 0.000000000000D+00  6 2 2 25 2 2 21 2 0.47843032D+00 0.16775496D+00 0.66644938D+06 0.66644938D+06 0.66644938D+06 0.10598006D+01  1  2 15  1  6  1        2 -.160250555270D-02 0.100000000000D+01
  </mgrwgt>
  </event>
  <event>
  5     66 0.18204334E-05 0.20055080E+02 0.75467711E-02 0.91721525E-01
        2 -1    0    0  501    0 0.00000000E+00 0.00000000E+00 0.12355120E+04 0.12355120E+04 0.32000000E+00 0.0000E+00 0.9000E+01
        2 -1    0    0  502    0 0.00000000E+00 0.00000000E+00 -.13378989E+04 0.13378989E+04 0.32000000E+00 0.0000E+00 0.9000E+01
       25  1    1    2    0    0 -.51280747E+03 -.29117357E+03 0.26436144E+03 0.65822908E+03 0.12500000E+03 0.0000E+00 0.9000E+01
        2  1    1    2  501    0 0.74099581E+01 -.18639824E+02 0.69706407E+03 0.69735269E+03 0.32000000E+00 0.0000E+00 0.9000E+01
        2  1    1    2  502    0 0.50539752E+03 0.30981339E+03 -.10638124E+04 0.12178292E+04 0.32000000E+00 0.0000E+00 0.9000E+01
#aMCatNLO 1  0  0  2  4 0.13392735D+03 0.00000000D+00  -5  6  0 0.00000000D+00 0.00000000D+00 0.00000000D+00 0.00000000D+00 0.00000000D+00
  <mgrwgt>
 0.9267575234D-02    7    2    0
 0.128568666969820D+04 0.000000000000000D+00 0.000000000000000D+00 0.128568666969820D+04
 0.128568666969820D+04 0.000000000000000D+00 0.000000000000000D+00 -.128568666969820D+04
 0.669387514554078D+03 -.512865851121020D+03 -.291212529640303D+03 0.290892636509234D+03
 0.725530778879896D+03 0.740862942123636D+01 -.186364812058060D+02 0.725253545238100D+03
 0.117645504596243D+04 0.505457221699784D+03 0.309849010846109D+03 -.101614618174733D+04
 0.000000000000000D+00 -.000000000000000D+00 0.000000000000000D+00 -.000000000000000D+00
 0.131413579634038D+04 0.000000000000000D+00 0.000000000000000D+00 0.131413579634038D+04
 0.132379255947332D+04 0.000000000000000D+00 0.000000000000000D+00 -.132379255947332D+04
 0.664414833837741D+03 -.499961086101570D+03 -.302063665197385D+03 0.290892636509234D+03
 0.726209353180936D+03 0.214544625959485D+02 -.304470984128026D+02 0.725253545238100D+03
 0.118157106953225D+04 0.528271526208151D+03 0.290665313158649D+03 -.101614618174733D+04
 0.657330992627776D+02 -.497649027025294D+02 0.418454504515393D+02 -.965676313294083D+01
0.555916171594D-03 0.000000000000D+00 0.000000000000D+00 0.212906233983D-04 0.000000000000D+00  6 2 2 25 2 2 21 0 0.19007877D+00 0.20583060D+00 0.36954317D+06 0.36954317D+06 0.36954317D+06 0.10779159D+01  1  2  2  2  6  2        2 0.265526592004D-02 0.100000000000D+01
0.450421411827D-03 0.000000000000D+00 -.213486447501D-05 0.212906233983D-04 0.000000000000D+00  6 2 2 25 2 2 21 2 0.19007877D+00 0.20583060D+00 0.36954317D+06 0.36954317D+06 0.36954317D+06 0.10779159D+01  1  2  3  2  6  2        2 0.249969784739D-02 0.100000000000D+01
-.354354370866D-03 0.000000000000D+00 0.000000000000D+00 0.212906233983D-04 0.000000000000D+00  6 2 2 25 2 2 21 2 0.19007877D+00 0.20583060D+00 0.36954317D+06 0.36954317D+06 0.36954317D+06 0.10779159D+01  1  2 15  2  6  2        2 -.196655584039D-02 0.100000000000D+01
-.537500058105D-04 0.000000000000D+00 0.000000000000D+00 0.212906233983D-04 0.000000000000D+00  6 2 2 25 2 2 21 2 0.19007877D+00 0.20583060D+00 0.36954317D+06 0.36954317D+06 0.36954317D+06 0.10779159D+01  1  2  4  2  6  2        2 -.298295707739D-03 0.100000000000D+01
-.148297834883D-01 0.000000000000D+00 -.280890805727D-02 0.212906233983D-04 0.000000000000D+00  6 2 2 25 2 2 21 2 0.19007877D+00 0.21482173D+00 0.36954317D+06 0.36954317D+06 0.36954317D+06 0.10779159D+01  1  2  5  2  6  2        2 -.763054078261D-01 0.100000000000D+01
0.149387877215D-01 0.000000000000D+00 0.280634268054D-02 0.212906233983D-04 0.000000000000D+00  6 2 2 25 2 2 21 2 0.19007877D+00 0.20583060D+00 0.36954317D+06 0.36954317D+06 0.36954317D+06 0.10779159D+01  1  2  6  2  6  2        2 0.829055958031D-01 0.100000000000D+01
-.109793995192D-03 0.000000000000D+00 -.211415922411D-04 0.212906233983D-04 0.000000000000D+00  6 2 21 25 2 2 -2 2 0.19007877D+00 0.21482173D+00 0.36954317D+06 0.36954317D+06 0.36954317D+06 0.10779159D+01  1  2  5  5  6  2        2 -.222724961924D-03 0.100000000000D+01
  </mgrwgt>
  </event>
  <event>
  5     66 0.18204334E-05 0.34245574E+02 0.75467711E-02 0.93280445E-01
        2 -1    0    0  501    0 0.00000000E+00 0.00000000E+00 0.23308491E+04 0.23308491E+04 0.32000000E+00 0.0000E+00 0.9000E+01
        2 -1    0    0  502    0 0.00000000E+00 0.00000000E+00 -.61964865E+03 0.61964873E+03 0.32000000E+00 0.0000E+00 0.9000E+01
       25  1    1    2    0    0 0.36140789E+03 -.41320156E+03 -.32404672E+03 0.64960178E+03 0.12500000E+03 0.0000E+00 0.9000E+01
        2  1    1    2  501    0 -.29585709E+02 0.17252830E+02 0.16649086E+04 0.16652609E+04 0.32000000E+00 0.0000E+00 0.9000E+01
        2  1    1    2  502    0 -.33182218E+03 0.39594873E+03 0.37033856E+03 0.63563520E+03 0.32000000E+00 0.0000E+00 0.9000E+01
#aMCatNLO 1  0  0  2  5 0.12016854D+02 0.00000000D+00  -5  6  0 0.00000000D+00 0.00000000D+00 0.00000000D+00 0.00000000D+00 0.00000000D+00
  <mgrwgt>
 0.3728156832D-02   11    2    0
 0.120179351743602D+04 0.000000000000000D+00 0.000000000000000D+00 0.120179351743602D+04
 0.120179351743602D+04 0.000000000000000D+00 0.000000000000000D+00 -.120179351743602D+04
 0.102812551488085D+04 0.361448652577746D+03 -.413249038791549D+03 -.860230886353540D+03
 0.858786001893716D+03 -.295829973855892D+02 0.172512487660461D+02 0.858102929566314D+03
 0.516675518097471D+03 -.331865655192156D+03 0.395997790025503D+03 0.212795678722591D+01
 0.000000000000000D+00 0.000000000000000D+00 -.000000000000000D+00 -.000000000000000D+00
 0.120232654202963D+04 0.000000000000000D+00 0.000000000000000D+00 0.120232654202963D+04
 0.127150129986777D+04 0.000000000000000D+00 0.000000000000000D+00 -.127150129986777D+04
 0.102545874798573D+04 0.357311978747107D+03 -.410209234205771D+03 -.860230886353540D+03
 0.858966989949193D+03 -.330431835475821D+02 0.197939413237648D+02 0.858102929566314D+03
 0.519191336183800D+03 -.333952271936166D+03 0.397531125117147D+03 0.212795678722591D+01
 0.702107677786838D+02 0.968347673664036D+01 -.711583223514088D+01 -.691747578381344D+02
0.357600824507D-04 0.000000000000D+00 0.000000000000D+00 0.463551353476D-06 0.000000000000D+00  6 2 2 25 2 2 21 0 0.35859218D+00 0.95330569D-01 0.31024015D+06 0.31024015D+06 0.31024015D+06 0.10834751D+01  1  2  2  2  6  2        2 0.125160760820D-03 0.100000000000D+01
0.214409248070D-04 0.000000000000D+00 -.137328132456D-06 0.463551353476D-06 0.000000000000D+00  6 2 2 25 2 2 21 2 0.35859218D+00 0.95330569D-01 0.31024015D+06 0.31024015D+06 0.31024015D+06 0.10834751D+01  1  2  3  2  6  2        2 0.880949542429D-04 0.100000000000D+01
-.225144239877D-04 0.000000000000D+00 0.000000000000D+00 0.463551353476D-06 0.000000000000D+00  6 2 2 25 2 2 21 2 0.35859218D+00 0.95330569D-01 0.31024015D+06 0.31024015D+06 0.31024015D+06 0.10834751D+01  1  2 15  2  6  2        2 -.925056716934D-04 0.100000000000D+01
0.599792634067D-02 0.000000000000D+00 0.000000000000D+00 0.463551353476D-06 0.000000000000D+00  6 2 2 25 2 2 21 2 0.35859218D+00 0.10095938D+00 0.31804254D+06 0.31804254D+06 0.31804254D+06 0.10826803D+01  1  2 12  2  6  2        2 0.229422364614D-01 0.100000000000D+01
0.264114726067D-07 0.000000000000D+00 0.000000000000D+00 0.463551353476D-06 0.000000000000D+00  6 2 2 25 2 2 21 2 0.35859218D+00 0.10088920D+00 0.31804254D+06 0.31804254D+06 0.31804254D+06 0.10826803D+01  1  2 12  2  6  2        2 0.101109162908D-06 0.100000000000D+01
-.513768737503D-02 0.000000000000D+00 0.000000000000D+00 0.463551353476D-06 0.000000000000D+00  6 2 2 25 2 2 21 2 0.35859218D+00 0.95330569D-01 0.31024015D+06 0.31024015D+06 0.31024015D+06 0.10834751D+01  1  2  4  2  6  2        2 -.211093662373D-01 0.100000000000D+01
-.674695447259D-02 0.000000000000D+00 -.156708982204D-03 0.463551353476D-06 0.000000000000D+00  6 2 2 25 2 2 21 2 0.35859218D+00 0.10088000D+00 0.31024015D+06 0.31024015D+06 0.31024015D+06 0.10834751D+01  1  2  5  2  6  2        2 -.259117392630D-01 0.100000000000D+01
0.674527162010D-02 0.000000000000D+00 0.156458469731D-03 0.463551353476D-06 0.000000000000D+00  6 2 2 25 2 2 21 2 0.35859218D+00 0.95330569D-01 0.31024015D+06 0.31024015D+06 0.31024015D+06 0.10834751D+01  1  2  6  2  6  2        2 0.277144945975D-01 0.100000000000D+01
0.982496117620D-04 0.000000000000D+00 0.000000000000D+00 0.463551353476D-06 0.000000000000D+00  6 2 21 25 2 2 -2 2 0.35859218D+00 0.10095938D+00 0.31804254D+06 0.31804254D+06 0.31804254D+06 0.10826803D+01  1  2 12  5  6  2        2 0.489579909407D-03 0.100000000000D+01
0.427816083202D-09 0.000000000000D+00 0.000000000000D+00 0.463551353476D-06 0.000000000000D+00  6 2 21 25 2 2 -2 2 0.35859218D+00 0.10088920D+00 0.31804254D+06 0.31804254D+06 0.31804254D+06 0.10826803D+01  1  2 12  5  6  2        2 0.213569390163D-08 0.100000000000D+01
-.103297733306D-03 0.000000000000D+00 -.153017228926D-05 0.463551353476D-06 0.000000000000D+00  6 2 21 25 2 2 -2 2 0.35859218D+00 0.10088000D+00 0.31024015D+06 0.31024015D+06 0.31024015D+06 0.10834751D+01  1  2  5  5  6  2        2 -.517901924440D-03 0.100000000000D+01
  </mgrwgt>
  </event>
  <event>
  5     66 0.18204334E-05 0.22150839E+02 0.75467711E-02 0.87433704E-01
        2 -1    0    0  501    0 0.00000000E+00 0.00000000E+00 0.16698442E+04 0.16698442E+04 0.32000000E+00 0.0000E+00 0.9000E+01
        2 -1    0    0  502    0 -.00000000E+00 -.00000000E+00 -.18937139E+04 0.18937139E+04 0.32000000E+00 0.0000E+00 0.9000E+01
       25  1    1    2    0    0 0.56502502E+03 -.11206326E+03 -.24845640E+03 0.63966166E+03 0.12500000E+03 0.0000E+00 0.9000E+01
        2  1    1    2  501    0 -.55896293E+03 0.13336712E+03 0.14181508E+04 0.15301563E+04 0.32000000E+00 0.0000E+00 0.9000E+01
        2  1    1    2  502    0 -.60620900E+01 -.21303854E+02 -.13935641E+04 0.13937402E+04 0.32000000E+00 0.0000E+00 0.9000E+01
#aMCatNLO 1  0  0  5  5 0.48066725D+03 0.00000000D+00  -5  6  0 0.00000000D+00 0.00000000D+00 0.00000000D+00 0.00000000D+00 0.00000000D+00
  <mgrwgt>
 0.3885704234D-01    3    2    0
 0.177825957996575D+04 0.000000000000000D+00 0.000000000000000D+00 0.177825957996575D+04
 0.177825957996575D+04 -.000000000000000D+00 -.000000000000000D+00 -.177825957996575D+04
 0.625263113205218D+03 0.565019455861786D+03 -.112060626731034D+03 -.208625001304687D+03
 0.162243461470692D+04 -.558956948222307D+03 0.133365689130662D+03 0.151725897657450D+04
 0.130882143201936D+04 -.606250763948025D+01 -.213050623996307D+02 -.130863397526981D+04
 0.000000000000000D+00 0.000000000000000D+00 0.000000000000000D+00 0.000000000000000D+00
 0.177825957996575D+04 0.000000000000000D+00 0.000000000000000D+00 0.177825957996575D+04
 0.177825957996575D+04 -.000000000000000D+00 -.000000000000000D+00 -.177825957996575D+04
 0.666453463819343D+03 0.564543921641968D+03 -.113731764621306D+03 -.311272333640548D+03
 0.140045506069499D+04 -.560069798756982D+03 0.129454873426559D+03 0.127704253386199D+04
 0.408260710449546D+03 0.377468863562078D+03 0.152251156922075D+03 0.318378698064255D+02
 0.108134992496761D+04 -.381942986447064D+03 -.167974265727330D+03 -.997608070027865D+03
0.247343404544D-01 0.000000000000D+00 0.000000000000D+00 0.128436301958D-03 0.000000000000D+00  6 2 2 25 2 2 21 0 0.25689910D+00 0.29134060D+00 0.35178510D+06 0.35178510D+06 0.35178510D+06 0.10794722D+01  1  2  2  3  6  5        2 0.335611577848D-01 0.100000000000D+01
0.215460792932D-01 0.000000000000D+00 -.949863800464D-04 0.128436301958D-03 0.000000000000D+00  6 2 2 25 2 2 21 2 0.25689910D+00 0.29134060D+00 0.35178510D+06 0.35178510D+06 0.35178510D+06 0.10794722D+01  1  2  3  3  6  5        2 0.340665187160D-01 0.100000000000D+01
-.181965868021D-01 0.000000000000D+00 0.000000000000D+00 0.128436301958D-03 0.000000000000D+00  6 2 2 25 2 2 21 2 0.25689910D+00 0.29134060D+00 0.35178510D+06 0.35178510D+06 0.35178510D+06 0.10794722D+01  1  2 15  3  6  5        2 -.287706341570D-01 0.100000000000D+01
  </mgrwgt>
  </event>
  <event>
  5     66 0.18204334E-05 0.48055072E+02 0.75467711E-02 0.83437679E-01
        2 -1    0    0  501    0 0.00000000E+00 0.00000000E+00 0.28472006E+04 0.28472007E+04 0.32000000E+00 0.0000E+00 0.9000E+01
        2 -1    0    0  502    0 0.00000000E+00 0.00000000E+00 -.86446999E+03 0.86447005E+03 0.32000000E+00 0.0000E+00 0.9000E+01
       25  1    1    2    0    0 -.12398305E+03 -.56527969E+03 0.50469117E+03 0.77797886E+03 0.12500000E+03 0.0000E+00 0.9000E+01
        2  1    1    2  501    0 0.12321493E+03 0.61332474E+03 0.21606508E+04 0.22493913E+04 0.32000000E+00 0.0000E+00 0.9000E+01
        2  1    1    2  502    0 0.76812623E+00 -.48045051E+02 -.68261133E+03 0.68430056E+03 0.32000000E+00 0.0000E+00 0.9000E+01
#aMCatNLO 1  0  0  2  4 0.52033723D+03 0.00000000D+00  -5  6  0 0.00000000D+00 0.00000000D+00 0.00000000D+00 0.00000000D+00 0.00000000D+00
  <mgrwgt>
 0.3474525993D-02    5    2    0
 0.156885934704302D+04 0.000000000000000D+00 0.000000000000000D+00 0.156885934704302D+04
 0.156885934704302D+04 0.000000000000000D+00 0.000000000000000D+00 -.156885934704302D+04
 0.601363272573009D+03 -.123978887972356D+03 -.565254625130538D+03 0.105495164369711D+03
 0.129548599220708D+04 0.123210671325947D+03 0.613303556199988D+03 0.113444340291996D+04
 0.124086942930596D+04 0.768216646409385D+00 -.480489310694505D+02 -.123993856728967D+04
 0.000000000000000D+00 0.000000000000000D+00 -.000000000000000D+00 -.000000000000000D+00
 0.193414754767335D+04 0.000000000000000D+00 0.000000000000000D+00 0.193414754767335D+04
 0.292344552392522D+04 0.000000000000000D+00 0.000000000000000D+00 -.292344552392522D+04
 0.539974464885678D+03 -.277496816382940D+03 -.433374791514822D+03 0.105495164369711D+03
 0.149171269512510D+04 -.251687095132442D+03 0.935360110605833D+03 0.113444340291996D+04
 0.130975973438299D+04 -.342309290126488D+03 0.246672375939699D+03 -.123993856728967D+04
 0.151614617720481D+04 0.871493201641870D+03 -.748657695030710D+03 -.989297976251875D+03
0.398310923299D-02 0.000000000000D+00 0.000000000000D+00 0.261691742942D-04 0.000000000000D+00  6 2 2 25 2 2 21 0 0.43803087D+00 0.13299539D+00 0.40046758D+06 0.40046758D+06 0.40046758D+06 0.10753910D+01  1  2  2  2  6  2        2 0.447572012772D-02 0.100000000000D+01
0.228584422992D-02 0.000000000000D+00 -.152961882314D-04 0.261691742942D-04 0.000000000000D+00  6 2 2 25 2 2 21 2 0.43803087D+00 0.13299539D+00 0.40046758D+06 0.40046758D+06 0.40046758D+06 0.10753910D+01  1  2  3  2  6  2        2 0.297043580616D-02 0.100000000000D+01
-.315368301504D-02 0.000000000000D+00 0.000000000000D+00 0.261691742942D-04 0.000000000000D+00  6 2 2 25 2 2 21 2 0.43803087D+00 0.13299539D+00 0.40046758D+06 0.40046758D+06 0.40046758D+06 0.10753910D+01  1  2 15  2  6  2        2 -.409818518100D-02 0.100000000000D+01
0.314946959568D-03 0.000000000000D+00 -.225349987742D-02 0.261691742942D-04 0.000000000000D+00  6 2 2 25 2 2 21 2 0.43803087D+00 0.28198228D+00 0.40046758D+06 0.40046758D+06 0.40046758D+06 0.10753910D+01  1  2  5  2  6  2        2 0.112644283534D-03 0.100000000000D+01
0.165802480812D-03 0.000000000000D+00 -.183209913173D-03 0.261691742942D-04 0.000000000000D+00  6 2 21 25 2 2 -2 2 0.43803087D+00 0.28198228D+00 0.40046758D+06 0.40046758D+06 0.40046758D+06 0.10753910D+01  1  2  5  5  6  2        2 0.139109566290D-04 0.100000000000D+01
  </mgrwgt>
  </event>
  <event>
  5     66 0.18204334E-05 0.36402151E+02 0.75467711E-02 0.94063635E-01
        2 -1    0    0  501    0 0.00000000E+00 0.00000000E+00 0.12333896E+04 0.12333896E+04 0.32000000E+00 0.0000E+00 0.9000E+01
        2 -1    0    0  502    0 -.00000000E+00 -.00000000E+00 -.27657081E+04 0.27657081E+04 0.32000000E+00 0.0000E+00 0.9000E+01
       25  1    1    2    0    0 -.13556848E+02 0.49735917E+03 0.51306687E+02 0.51556504E+03 0.12500000E+03 0.0000E+00 0.9000E+01
        2  1    1    2  501    0 -.36340982E+02 -.21415420E+01 0.92514760E+03 0.92586362E+03 0.32000000E+00 0.0000E+00 0.9000E+01
        2  1    1    2  502    0 0.49897829E+02 -.49521763E+03 -.25087727E+04 0.25576691E+04 0.32000000E+00 0.0000E+00 0.9000E+01
#aMCatNLO 1  0  0  5  2 0.63379178D+01 0.00000000D+00  -5  6  0 0.00000000D+00 0.00000000D+00 0.00000000D+00 0.00000000D+00 0.00000000D+00
  <mgrwgt>
 0.8538781135D-02    7    2    0
 0.184694225506280D+04 0.000000000000000D+00 0.000000000000000D+00 0.184694225506280D+04
 0.184694225506280D+04 -.000000000000000D+00 -.000000000000000D+00 -.184694225506280D+04
 0.579512232551017D+03 -.135622507396242D+02 0.497397830814274D+03 0.269482635678803D+03
 0.138606822389418D+04 -.363391095539759D+02 -.214143165380270D+01 0.138559012867314D+04
 0.172830405368041D+04 0.499013602936001D+02 -.495256399160472D+03 -.165507276435195D+04
 0.000000000000000D+00 0.000000000000000D+00 0.000000000000000D+00 -.000000000000000D+00
 0.184694225506280D+04 0.000000000000000D+00 0.000000000000000D+00 0.184694225506280D+04
 0.184694225506280D+04 -.000000000000000D+00 -.000000000000000D+00 -.184694225506280D+04
 0.579354550577067D+03 -.135556700772962D+02 0.497332519666252D+03 0.269264375596787D+03
 0.138554623780115D+04 -.363233708520464D+02 -.229763366511523D+01 0.138506812492902D+04
 0.171432498821830D+04 0.434648584566223D+02 -.493151733747863D+03 -.164128679358926D+04
 0.146587335290893D+02 0.641418247272028D+01 -.188315225327420D+01 -.130457069365552D+02
0.274690387189D-02 0.000000000000D+00 0.000000000000D+00 0.236104798794D-03 0.000000000000D+00  6 2 2 25 2 2 21 0 0.18975225D+00 0.42549355D+00 0.27416199D+06 0.27416199D+06 0.27416199D+06 0.10874576D+01  1  2  2  3  6  5        2 0.212270809958D-02 0.100000000000D+01
0.164522832168D-02 0.000000000000D+00 -.105488341445D-04 0.236104798794D-03 0.000000000000D+00  6 2 2 25 2 2 21 2 0.18975225D+00 0.42549355D+00 0.27416199D+06 0.27416199D+06 0.27416199D+06 0.10874576D+01  1  2  3  3  6  5        2 0.150348003039D-02 0.100000000000D+01
-.216355352083D-02 0.000000000000D+00 0.000000000000D+00 0.236104798794D-03 0.000000000000D+00  6 2 2 25 2 2 21 2 0.18975225D+00 0.42549355D+00 0.27416199D+06 0.27416199D+06 0.27416199D+06 0.10874576D+01  1  2 15  3  6  5        2 -.197714777359D-02 0.100000000000D+01
-.255043530984D-01 0.000000000000D+00 0.000000000000D+00 0.236104798794D-03 0.000000000000D+00  6 2 2 25 2 2 21 2 0.18975225D+00 0.42549355D+00 0.27416199D+06 0.27416199D+06 0.27416199D+06 0.10874576D+01  1  2  4  3  6  5        2 -.233069690488D-01 0.100000000000D+01
-.890799320492D+00 0.000000000000D+00 0.000000000000D+00 0.236104798794D-03 0.000000000000D+00  6 2 2 25 2 2 21 2 0.18975225D+00 0.42549355D+00 0.27416199D+06 0.27416199D+06 0.27416199D+06 0.10874576D+01  1  2  5  3  6  5        2 -.814050531345D+00 0.100000000000D+01
0.898386737744D+00 0.000000000000D+00 -.000000000000D+00 0.236104798794D-03 0.000000000000D+00  6 2 2 25 2 2 21 2 0.18975225D+00 0.42549355D+00 0.27416199D+06 0.27416199D+06 0.27416199D+06 0.10874576D+01  1  2  6  3  6  5        2 0.820984237852D+00 0.100000000000D+01
0.254850015861D-01 0.000000000000D+00 0.000000000000D+00 0.236104798794D-03 0.133128009193D-04  6 2 2 25 2 2 21 2 0.18975225D+00 0.42549355D+00 0.27621554D+06 0.27621554D+06 0.27621554D+06 0.10872159D+01  1  2 11  3  6  5        2 0.232630033202D-01 0.100000000000D+01
  </mgrwgt>
  </event>
  <event>
  5     66 0.18204334E-05 0.18831556E+02 0.75467711E-02 0.90482948E-01
        2 -1    0    0  501    0 0.00000000E+00 0.00000000E+00 0.25884647E+04 0.25884648E+04 0.32000000E+00 0.0000E+00 0.9000E+01
        2 -1    0    0  502    0 0.00000000E+00 0.00000000E+00 -.13594667E+04 0.13594667E+04 0.32000000E+00 0.0000E+00 0.9000E+01
       25  1    1    2    0    0 0.13115298E+03 0.50825789E+03 0.49551828E+03 0.73259167E+03 0.12500000E+03 0.0000E+00 0.9000E+01
        2  1    1    2  501    0 0.18573095E+02 -.31153965E+01 0.19184383E+04 0.19185308E+04 0.32000000E+00 0.0000E+00 0.9000E+01
        2  1    1    2  502    0 -.14972607E+03 -.50514249E+03 -.11849585E+04 0.12968090E+04 0.32000000E+00 0.0000E+00 0.9000E+01
#aMCatNLO 1  0  0  5  4 0.17569505D+02 0.00000000D+00  -5  6  0 0.00000000D+00 0.00000000D+00 0.00000000D+00 0.00000000D+00 0.00000000D+00
  <mgrwgt>
 0.8646367948D-02    6    2    0
 0.187588155743970D+04 0.000000000000000D+00 0.000000000000000D+00 0.187588155743970D+04
 0.187588155743970D+04 -.000000000000000D+00 -.000000000000000D+00 -.187588155743970D+04
 0.608642762294761D+03 0.131165384361579D+03 0.508296936951382D+03 0.281515324493920D+03
 0.139033055415605D+04 0.185720986112552D+02 -.311522926201251D+01 0.139020301478586D+04
 0.175278979842859D+04 -.149737482972834D+03 -.505181707689370D+03 -.167171833927978D+04
 0.000000000000000D+00 0.000000000000000D+00 0.000000000000000D+00 -.000000000000000D+00
 0.187588155743970D+04 0.000000000000000D+00 0.000000000000000D+00 0.187588155743970D+04
 0.187588155743970D+04 -.000000000000000D+00 -.000000000000000D+00 -.187588155743970D+04
 0.589794894575244D+03 0.128826469413727D+03 0.500405946505721D+03 0.255402911391257D+03
 0.133113798422883D+04 0.132607806565428D+02 -.210344611147986D+02 0.133090572025174D+04
 0.134161891428304D+04 -.158553247609832D+03 -.684907349725417D+03 -.114267410101327D+04
 0.489211321792289D+03 0.164659975395619D+02 0.205535864334494D+03 -.443634530629727D+03
0.594408587274D-02 0.000000000000D+00 0.000000000000D+00 0.258770573841D-03 0.000000000000D+00  6 2 2 25 2 2 21 0 0.39822535D+00 0.20914872D+00 0.29450293D+06 0.29450293D+06 0.29450293D+06 0.10851466D+01  1  2  2  3  6  5        2 0.493546782037D-02 0.100000000000D+01
0.541769111509D-02 0.000000000000D+00 -.228268548651D-04 0.258770573841D-03 0.000000000000D+00  6 2 2 25 2 2 21 2 0.39822535D+00 0.20914872D+00 0.29450293D+06 0.29450293D+06 0.29450293D+06 0.10851466D+01  1  2  3  3  6  5        2 0.529705281667D-02 0.100000000000D+01
-.408632150887D-02 0.000000000000D+00 0.000000000000D+00 0.258770573841D-03 0.000000000000D+00  6 2 2 25 2 2 21 2 0.39822535D+00 0.20914872D+00 0.29450293D+06 0.29450293D+06 0.29450293D+06 0.10851466D+01  1  2 15  3  6  5        2 -.399532944912D-02 0.100000000000D+01
-.713321249621D-03 0.000000000000D+00 0.000000000000D+00 0.258770573841D-03 0.000000000000D+00  6 2 2 25 2 2 21 2 0.39822535D+00 0.20914872D+00 0.29450293D+06 0.29450293D+06 0.29450293D+06 0.10851466D+01  1  2  4  3  6  5        2 -.697437386928D-03 0.100000000000D+01
-.100531278851D-01 0.000000000000D+00 0.000000000000D+00 0.258770573841D-03 0.000000000000D+00  6 2 2 25 2 2 21 2 0.39822535D+00 0.20914872D+00 0.29450293D+06 0.29450293D+06 0.29450293D+06 0.10851466D+01  1  2  5  3  6  5        2 -.982927011685D-02 0.100000000000D+01
0.132304939499D-01 0.000000000000D+00 -.000000000000D+00 0.258770573841D-03 0.000000000000D+00  6 2 2 25 2 2 21 2 0.39822535D+00 0.20914872D+00 0.29450293D+06 0.29450293D+06 0.29450293D+06 0.10851466D+01  1  2  6  3  6  5        2 0.129358842640D-01 0.100000000000D+01
  </mgrwgt>
  </event>
  <event>
  5     66 0.18204334E-05 0.18155855E+03 0.75467711E-02 0.81265763E-01
        2 -1    0    0  501    0 0.00000000E+00 0.00000000E+00 0.31650873E+04 0.31650873E+04 0.32000000E+00 0.0000E+00 0.9000E+01
        2 -1    0    0  502    0 0.00000000E+00 0.00000000E+00 -.10502334E+04 0.10502335E+04 0.32000000E+00 0.0000E+00 0.9000E+01
       25  1    1    2    0    0 0.20846470E+03 -.60496621E+03 0.30114565E+03 0.71816109E+03 0.12500000E+03 0.0000E+00 0.9000E+01
        2  1    1    2  501    0 0.64204253E+01 0.18145082E+03 0.25850077E+04 0.25913761E+04 0.32000000E+00 0.0000E+00 0.9000E+01
        2  1    1    2  502    0 -.21488513E+03 0.42351539E+03 -.77129943E+03 0.90578354E+03 0.32000000E+00 0.0000E+00 0.9000E+01
#aMCatNLO 1  0  0  1  2 0.67006252D-01 0.00000000D+00  -5  6  0 0.00000000D+00 0.00000000D+00 0.00000000D+00 0.00000000D+00 0.00000000D+00
  <mgrwgt>
 0.2312167517D-02    3    2    0
 0.182320612029511D+04 0.000000000000000D+00 0.000000000000000D+00 0.182320612029511D+04
 0.182320612029511D+04 0.000000000000000D+00 0.000000000000000D+00 -.182320612029511D+04
 0.655573270805319D+03 0.208480837504190D+03 -.604994178372228D+03 -.683307977682714D+02
 0.149637305219203D+04 0.642021932510016D+01 0.181445000801288D+03 0.148531774506148D+04
 0.149446591759287D+04 -.214901056829290D+03 0.423549177570940D+03 -.141698694729321D+04
 0.000000000000000D+00 0.000000000000000D+00 0.000000000000000D+00 -.000000000000000D+00
 0.237095513877496D+04 0.000000000000000D+00 0.000000000000000D+00 0.237095513877496D+04
 0.471148697086678D+04 0.000000000000000D+00 0.000000000000000D+00 -.471148697086678D+04
 0.983595500979526D+03 0.634851426503590D+02 -.971151712291226D+03 -.683307977682714D+02
 0.159247306547575D+04 -.266809357053497D+03 -.508541470737568D+03 0.148531774506148D+04
 0.151709720250929D+04 -.481294423218228D+03 -.249173817326837D+03 -.141698694729321D+04
 0.298927634067717D+04 0.684618637621366D+03 0.172886700035563D+04 -.234053183209182D+04
0.992248893040D-02 0.000000000000D+00 0.000000000000D+00 0.830865444467D-05 0.000000000000D+00  6 2 2 25 2 2 21 0 0.48693651D+00 0.16157438D+00 0.42804949D+06 0.42804949D+06 0.42804949D+06 0.10733122D+01  1  2  2  1  6  1        2 0.529150873382D-02 0.100000000000D+01
0.190268681443D-02 0.000000000000D+00 -.381049701441D-04 0.830865444467D-05 0.000000000000D+00  6 2 2 25 2 2 21 2 0.48693651D+00 0.16157438D+00 0.42804949D+06 0.42804949D+06 0.42804949D+06 0.10733122D+01  1  2  3  1  6  1        2 0.116890254588D-02 0.100000000000D+01
-.675232399745D-02 0.000000000000D+00 0.000000000000D+00 0.830865444467D-05 0.000000000000D+00  6 2 2 25 2 2 21 2 0.48693651D+00 0.16157438D+00 0.42804949D+06 0.42804949D+06 0.42804949D+06 0.10733122D+01  1  2 15  1  6  1        2 -.414824376319D-02 0.100000000000D+01
  </mgrwgt>
  </event>
  <event>
  5     66 0.18204334E-05 0.15254860E+03 0.75467711E-02 0.89456489E-01
        2 -1    0    0  501    0 0.00000000E+00 0.00000000E+00 0.16956930E+04 0.16956930E+04 0.32000000E+00 0.0000E+00 0.9000E+01
        2 -1    0    0  502    0 0.00000000E+00 0.00000000E+00 -.19056772E+04 0.19056773E+04 0.32000000E+00 0.0000E+00 0.9000E+01
       25  1    1    2    0    0 0.69051877E+03 -.12814098E+03 -.12295224E+04 0.14214734E+04 0.12500000E+03 0.0000E+00 0.9000E+01
        2  1    1    2  501    0 -.12796783E+03 0.83044062E+02 0.14575476E+04 0.14655092E+04 0.32000000E+00 0.0000E+00 0.9000E+01
        2  1    1    2  502    0 -.56255094E+03 0.45096917E+02 -.43800955E+03 0.71438769E+03 0.32000000E+00 0.0000E+00 0.9000E+01
#aMCatNLO 1  0  0  2  4 0.15200398D+03 0.00000000D+00  -5  6  0 0.00000000D+00 0.00000000D+00 0.00000000D+00 0.00000000D+00 0.00000000D+00
  <mgrwgt>
 0.7315195778D-03    4    2    0
 0.179762165744657D+04 0.000000000000000D+00 0.000000000000000D+00 0.179762165744657D+04
 0.179762165744657D+04 0.000000000000000D+00 0.000000000000000D+00 -.179762165744657D+04
 0.135208213788089D+04 0.690562154497003D+03 -.128146764464599D+03 -.114856581226774D+04
 0.155310289170146D+04 -.127965063708455D+03 0.830422688701620D+02 0.154559293355735D+04
 0.690058285310799D+03 -.562597090788548D+03 0.451044955944365D+02 -.397027121289609D+03
 0.000000000000000D+00 0.000000000000000D+00 -.000000000000000D+00 0.000000000000000D+00
 0.199998667157332D+04 0.000000000000000D+00 0.000000000000000D+00 0.199998667157332D+04
 0.182799990237028D+04 0.000000000000000D+00 0.000000000000000D+00 -.182799990237028D+04
 0.132383862749571D+04 0.636742670958174D+03 -.110810908851546D+03 -.114856581226774D+04
 0.156071653080884D+04 -.190591788431036D+03 0.103215035049268D+03 0.154559293355735D+04
 0.713900024678719D+03 -.590834216540307D+03 0.541999885789971D+02 -.397027121289609D+03
 0.229531390960334D+03 0.144683334013169D+03 -.466041147767186D+02 0.171986769203035D+03
0.106419202331D-02 0.000000000000D+00 0.000000000000D+00 0.436870982014D-06 0.000000000000D+00  6 2 2 25 2 2 21 0 0.26087585D+00 0.29318112D+00 0.51146743D+06 0.51146743D+06 0.51146743D+06 0.10678151D+01  1  2  2  2  6  2        2 0.133512191582D-02 0.100000000000D+01
0.238620947639D-03 0.000000000000D+00 -.408677757772D-05 0.436870982014D-06 0.000000000000D+00  6 2 2 25 2 2 21 2 0.26087585D+00 0.29318112D+00 0.51146743D+06 0.51146743D+06 0.51146743D+06 0.10678151D+01  1  2  3  2  6  2        2 0.341351329651D-03 0.100000000000D+01
-.650616412649D-03 0.000000000000D+00 0.000000000000D+00 0.436870982014D-06 0.000000000000D+00  6 2 2 25 2 2 21 2 0.26087585D+00 0.29318112D+00 0.51146743D+06 0.51146743D+06 0.51146743D+06 0.10678151D+01  1  2 15  2  6  2        2 -.930717859215D-03 0.100000000000D+01
-.995151276291D-05 0.000000000000D+00 0.000000000000D+00 0.436870982014D-06 0.000000000000D+00  6 2 2 25 2 2 21 2 0.26087585D+00 0.29318112D+00 0.51146743D+06 0.51146743D+06 0.51146743D+06 0.10678151D+01  1  2  4  2  6  2        2 -.142358084957D-04 0.100000000000D+01
  </mgrwgt>
  </event>
  <event>
  5     66 0.18204334E-05 0.45171842E+02 0.75467711E-02 0.93750132E-01
        2 -1    0    0  501    0 0.00000000E+00 0.00000000E+00 0.26793579E+03 0.26793598E+03 0.32000000E+00 0.0000E+00 0.9000E+01
        2 -1    0    0  502    0 -.00000000E+00 -.00000000E+00 -.15943190E+04 0.15943190E+04 0.32000000E+00 0.0000E+00 0.9000E+01
       25  1    1    2    0    0 -.48992499E+03 -.15516014E+02 -.48277549E+03 0.69925991E+03 0.12500000E+03 0.0000E+00 0.9000E+01
        2  1    1    2  501    0 0.52234398E+03 0.46967227E+02 -.27421472E+03 0.59181329E+03 0.32000000E+00 0.0000E+00 0.9000E+01
        2  1    1    2  502    0 -.32418987E+02 -.31451213E+02 -.56939299E+03 0.57118180E+03 0.32000000E+00 0.0000E+00 0.9000E+01
#aMCatNLO 1  0  0  5  2 0.79768610D+01 0.00000000D+00  -5  6  0 0.00000000D+00 0.00000000D+00 0.00000000D+00 0.00000000D+00 0.00000000D+00
  <mgrwgt>
 0.1309192689D-01    9    2    0
 0.653586505201543D+03 0.000000000000000D+00 0.000000000000000D+00 0.653586505201543D+03
 0.653586505201543D+03 -.000000000000000D+00 -.000000000000000D+00 -.653586505201543D+03
 0.506311914199316D+03 -.489909667071413D+03 -.155120148723982D+02 0.217864628783947D+02
 0.564863941059845D+03 0.522330936184040D+03 0.469660545302745D+02 0.209847217605151D+03
 0.235997155143926D+03 -.324212691126275D+02 -.314540396578764D+02 -.231633680483546D+03
 0.000000000000000D+00 0.000000000000000D+00 0.000000000000000D+00 -.000000000000000D+00
 0.653586505201543D+03 0.000000000000000D+00 0.000000000000000D+00 0.653586505201543D+03
 0.653586505201543D+03 -.000000000000000D+00 -.000000000000000D+00 -.653586505201543D+03
 0.506355544946787D+03 -.489972611260965D+03 -.155730812368128D+02 0.213367582650302D+02
 0.564607197476307D+03 0.522260731849147D+03 0.468979446137184D+02 0.209345642900568D+03
 0.204713288064039D+03 -.272034651367912D+02 -.351335558305480D+02 -.199832767706509D+03
 0.314969799159537D+02 -.508465545138994D+01 0.380869245364236D+01 -.308496334590900D+02
0.605475544819D-04 0.000000000000D+00 0.000000000000D+00 0.223230457772D-06 0.000000000000D+00  6 2 2 25 2 2 21 0 0.41220907D-01 0.24527986D+00 0.28914979D+06 0.28914979D+06 0.28914979D+06 0.10857375D+01  1  2  2  3  6  5        2 0.138872715970D-02 0.100000000000D+01
0.185235677224D-04 0.000000000000D+00 -.232518551748D-06 0.223230457772D-06 0.000000000000D+00  6 2 2 25 2 2 21 2 0.41220907D-01 0.24527986D+00 0.28914979D+06 0.28914979D+06 0.28914979D+06 0.10857375D+01  1  2  3  3  6  5        2 0.500834944518D-03 0.100000000000D+01
-.437449250742D-04 0.000000000000D+00 0.000000000000D+00 0.223230457772D-06 0.000000000000D+00  6 2 2 25 2 2 21 2 0.41220907D-01 0.24527986D+00 0.28914979D+06 0.28914979D+06 0.28914979D+06 0.10857375D+01  1  2 15  3  6  5        2 -.118276281604D-02 0.100000000000D+01
0.805572792914D-03 0.000000000000D+00 0.000000000000D+00 0.223230457772D-06 0.000000000000D+00  6 2 2 25 2 2 21 2 0.41220907D-01 0.24527986D+00 0.29217002D+06 0.29217002D+06 0.29217002D+06 0.10854026D+01  1  2 12  3  6  5        2 0.217592103380D-01 0.100000000000D+01
0.100209900135D-06 0.000000000000D+00 0.000000000000D+00 0.223230457772D-06 0.000000000000D+00  6 2 2 25 2 2 21 2 0.41220907D-01 0.24527986D+00 0.29217002D+06 0.29217002D+06 0.29217002D+06 0.10854026D+01  1  2 12  3  6  5        2 0.270675513644D-05 0.100000000000D+01
-.720822485249D-03 0.000000000000D+00 0.000000000000D+00 0.223230457772D-06 0.000000000000D+00  6 2 2 25 2 2 21 2 0.41220907D-01 0.24527986D+00 0.28914979D+06 0.28914979D+06 0.28914979D+06 0.10857375D+01  1  2  4  3  6  5        2 -.194893929084D-01 0.100000000000D+01
-.168698036949D-02 0.000000000000D+00 0.000000000000D+00 0.223230457772D-06 0.000000000000D+00  6 2 2 25 2 2 21 2 0.41220907D-01 0.24527986D+00 0.28914979D+06 0.28914979D+06 0.28914979D+06 0.10857375D+01  1  2  5  3  6  5        2 -.456120944095D-01 0.100000000000D+01
0.205342280244D-02 0.000000000000D+00 -.000000000000D+00 0.223230457772D-06 0.000000000000D+00  6 2 2 25 2 2 21 2 0.41220907D-01 0.24527986D+00 0.28914979D+06 0.28914979D+06 0.28914979D+06 0.10857375D+01  1  2  6  3  6  5        2 0.555198604688D-01 0.100000000000D+01
0.758351978556D-05 0.000000000000D+00 0.000000000000D+00 0.223230457772D-06 0.141442747332D-07  6 2 2 25 2 2 21 2 0.41220907D-01 0.24527986D+00 0.29217002D+06 0.29217002D+06 0.29217002D+06 0.10854026D+01  1  2 11  3  6  5        2 0.204837357428D-03 0.100000000000D+01
  </mgrwgt>
  </event>
  <event>
  5     66 0.18204334E-05 0.29541918E+02 0.75467711E-02 0.87130303E-01
        2 -1    0    0  501    0 0.00000000E+00 0.00000000E+00 0.82170011E+03 0.82170017E+03 0.32000000E+00 0.0000E+00 0.9000E+01
        2 -1    0    0  502    0 0.00000000E+00 0.00000000E+00 -.35544562E+04 0.35544562E+04 0.32000000E+00 0.0000E+00 0.9000E+01
       25  1    1    2    0    0 -.26798938E+03 -.51582938E+03 -.59225831E+03 0.83922176E+03 0.12500000E+03 0.0000E+00 0.9000E+01
        2  1    1    2  501    0 0.29595664E+03 0.50631943E+03 0.57497125E+03 0.82130490E+03 0.32000000E+00 0.0000E+00 0.9000E+01
        2  1    1    2  502    0 -.27967264E+02 0.95099495E+01 -.27154691E+04 0.27156297E+04 0.32000000E+00 0.0000E+00 0.9000E+01
#aMCatNLO 1  0  0  1  2 0.14465605D+03 0.00000000D+00  -5  6  0 0.00000000D+00 0.00000000D+00 0.00000000D+00 0.00000000D+00 0.00000000D+00
  <mgrwgt>
 0.5173655900D-02    4    2    0
 0.170900474552702D+04 0.000000000000000D+00 0.000000000000000D+00 0.170900474552702D+04
 0.170900474552702D+04 0.000000000000000D+00 0.000000000000000D+00 -.170900474552702D+04
 0.600934138980155D+03 -.267982371196371D+03 -.515821297341413D+03 -.872391960578042D+02
 0.151120850762025D+04 0.295951500173115D+03 0.506310634085095D+03 0.139277184235662D+04
 0.130586684445363D+04 -.279691289767438D+02 0.951066325631820D+01 -.130553264629882D+04
 0.000000000000000D+00 -.000000000000000D+00 -.000000000000000D+00 -.000000000000000D+00
 0.187313921456467D+04 0.000000000000000D+00 0.000000000000000D+00 0.187313921456467D+04
 0.228293700486400D+04 0.000000000000000D+00 0.000000000000000D+00 -.228293700486400D+04
 0.561171779555198D+03 -.173766350729176D+03 -.511354421311286D+03 -.872391960578042D+02
 0.158347527884173D+04 0.546848416120567D+03 0.518205908522723D+03 0.139277184235662D+04
 0.131869464586797D+04 0.184813316362838D+03 0.195988924131644D+02 -.130553264629882D+04
 0.692734515163773D+03 -.557895381754229D+03 -.264503796246011D+02 -.409797790299321D+03
0.113244401420D-01 0.000000000000D+00 0.000000000000D+00 0.846513889340D-04 0.000000000000D+00  6 2 2 25 2 2 21 0 0.12641541D+00 0.54683942D+00 0.36637116D+06 0.36637116D+06 0.36637116D+06 0.10781878D+01  1  2  2  1  6  1        2 0.464370253419D-02 0.100000000000D+01
0.859112587045D-02 0.000000000000D+00 -.434888319389D-04 0.846513889340D-04 0.000000000000D+00  6 2 2 25 2 2 21 2 0.12641541D+00 0.54683942D+00 0.36637116D+06 0.36637116D+06 0.36637116D+06 0.10781878D+01  1  2  3  1  6  1        2 0.409530825386D-02 0.100000000000D+01
-.746956888910D-02 0.000000000000D+00 0.000000000000D+00 0.846513889340D-04 0.000000000000D+00  6 2 2 25 2 2 21 2 0.12641541D+00 0.54683942D+00 0.36637116D+06 0.36637116D+06 0.36637116D+06 0.10781878D+01  1  2 15  1  6  1        2 -.356067267382D-02 0.100000000000D+01
-.982233633941D-05 0.000000000000D+00 0.000000000000D+00 0.846513889340D-04 0.000000000000D+00  6 2 2 25 2 2 21 2 0.12641541D+00 0.54683942D+00 0.36637116D+06 0.36637116D+06 0.36637116D+06 0.10781878D+01  1  2  4  1  6  1        2 -.468221461186D-05 0.100000000000D+01
  </mgrwgt>
  </event>
  <event>
  6     66 0.18204334E-05 0.12267971E+02 0.75467711E-02 0.91494066E-01
        2 -1    0    0  501    0 0.00000000E+00 0.00000000E+00 0.13900226E+04 0.13900226E+04 0.32000000E+00 0.0000E+00 0.9000E+01
        2 -1    0    0  503    0 0.00000000E+00 0.00000000E+00 -.13578135E+04 0.13578136E+04 0.32000000E+00 0.0000E+00 0.9000E+01
       25  1    1    2    0    0 0.47354295E+02 -.62384925E+03 -.14534365E+03 0.65435472E+03 0.12500000E+03 0.0000E+00 0.9000E+01
        2  1    1    2  501    0 -.39644890E+02 0.65670511E+03 0.10396742E+04 0.12303478E+04 0.32000000E+00 0.0000E+00 0.9000E+01
        2  1    1    2  502    0 -.18015245E+00 -.19802382E+02 -.23576662E+03 0.23659706E+03 0.32000000E+00 0.0000E+00 0.9000E+01
       21  1    1    2  503  502 -.75292525E+01 -.13053473E+02 -.62635488E+03 0.62653658E+03 0.75000000E+00 0.0000E+00 0.9000E+01
#aMCatNLO 2  0  0  2  5 0.15069267D+02 0.00000000D+00  -5  6  0 0.00000000D+00 0.00000000D+00 0.00000000D+00 0.00000000D+00 0.00000000D+00
  <mgrwgt>
 0.3297617251D-01    3    2    0
 0.100821358955427D+04 0.000000000000000D+00 0.000000000000000D+00 0.100821358955427D+04
 0.100821358955427D+04 0.000000000000000D+00 0.000000000000000D+00 -.100821358955427D+04
 0.739723742040223D+03 0.445995817743582D+02 -.628627065935884D+03 -.366613016430657D+03
 0.950678576726170D+03 -.432023170382779D+02 0.650538917543586D+03 0.691897704006770D+03
 0.326024860342137D+03 -.139726473608031D+01 -.219118516077024D+02 -.325284687576113D+03
 0.000000000000000D+00 -.000000000000000D+00 -.000000000000000D+00 -.000000000000000D+00
 0.100830748060477D+04 0.000000000000000D+00 0.000000000000000D+00 0.100830748060477D+04
 0.187184069635853D+04 0.000000000000000D+00 0.000000000000000D+00 -.187184069635853D+04
 0.735841472984602D+03 0.473543918748522D+02 -.623851048823296D+03 -.366613016430657D+03
 0.954755114295109D+03 -.396449629312563D+02 0.656706306028049D+03 0.691897704006770D+03
 0.325886899248663D+03 -.180176476161363D+00 -.198017844361539D+02 -.325284687576113D+03
 0.863664690434934D+03 -.752925246743446D+01 -.130534727685991D+02 -.863533215753761D+03
-.431320272189D-02 0.000000000000D+00 0.000000000000D+00 0.239359563625D-05 0.000000000000D+00  6 2 2 25 2 2 21 2 0.21382968D+00 0.22603390D+00 0.44274678D+06 0.44274678D+06 0.44274678D+06 0.10722632D+01  1  2 13  2  6  2        2 -.161510751932D-01 0.100000000000D+01
-.549454911176D-08 0.000000000000D+00 0.000000000000D+00 0.239359563625D-05 0.000000000000D+00  6 2 2 25 2 2 21 2 0.21382968D+00 0.20889689D+00 0.44274678D+06 0.44274678D+06 0.44274678D+06 0.10722632D+01  1  2 13  2  6  2        2 -.237535034797D-07 0.100000000000D+01
0.113655505550D-01 0.000000000000D+00 0.000000000000D+00 0.239359563625D-05 0.291728731349D-06  6 2 2 25 2 2 21 2 0.21384960D+00 0.20889436D+00 0.44274678D+06 0.44274678D+06 0.44274678D+06 0.10722632D+01  1  2  1  2  6  2        2 0.491272714568D-01 0.100000000000D+01
  </mgrwgt>
  </event>
  <event>
  5     66 0.18204334E-05 0.24695757E+02 0.75467711E-02 0.90182784E-01
        2 -1    0    0  501    0 0.00000000E+00 0.00000000E+00 0.18997361E+04 0.18997361E+04 0.32000000E+00 0.0000E+00 0.9000E+01
        2 -1    0    0  502    0 0.00000000E+00 0.00000000E+00 -.10978743E+04 0.10978744E+04 0.32000000E+00 0.0000E+00 0.9000E+01
       25  1    1    2    0    0 0.45895160E+03 -.27959590E+02 0.50496627E+03 0.69428686E+03 0.12500000E+03 0.0000E+00 0.9000E+01
        2  1    1    2  501    0 0.12338715E+02 -.21395481E+02 0.12440223E+04 0.12442675E+04 0.32000000E+00 0.0000E+00 0.9000E+01
        2  1    1    2  502    0 -.47129031E+03 0.49355072E+02 -.94712684E+03 0.10590561E+04 0.32000000E+00 0.0000E+00 0.9000E+01
#aMCatNLO 1  0  0  1  2 0.71080681D+02 0.00000000D+00  -5  6  0 0.00000000D+00 0.00000000D+00 0.00000000D+00 0.00000000D+00 0.00000000D+00
  <mgrwgt>
 0.4434746091D-01    7    2    0
 0.144418543598125D+04 0.000000000000000D+00 0.000000000000000D+00 0.144418543598125D+04
 0.144418543598125D+04 0.000000000000000D+00 0.000000000000000D+00 -.144418543598125D+04
 0.580449868544628D+03 0.459000963202632D+03 -.279665461495777D+02 0.331410678719011D+03
 0.945863250797562D+03 0.123373994583576D+02 -.213931997497443D+02 0.945540802286397D+03
 0.136205775262031D+04 -.471338362660990D+03 0.493597458993220D+02 -.127695148100541D+04
 0.000000000000000D+00 -.000000000000000D+00 -.000000000000000D+00 0.000000000000000D+00
 0.234161135343163D+04 0.000000000000000D+00 0.000000000000000D+00 0.234161135343163D+04
 0.153543859236419D+04 0.000000000000000D+00 0.000000000000000D+00 -.153543859236419D+04
 0.665630812702987D+03 0.563491521038567D+03 -.914584978476867D+01 0.331410678719011D+03
 0.961130615341745D+03 0.172249077619593D+03 0.740987300813364D+01 0.945540802286397D+03
 0.130385442333879D+04 -.247787308062606D+03 0.896254561009579D+02 -.127695148100541D+04
 0.946434094412302D+03 -.487953290595555D+03 -.878894793243229D+02 0.806172761067443D+03
0.547441050567D-02 0.000000000000D+00 0.000000000000D+00 0.110149947313D-03 0.000000000000D+00  6 2 2 25 2 2 21 0 0.29226709D+00 0.16890375D+00 0.23772947D+06 0.23772947D+06 0.23772947D+06 0.10921072D+01  1  2  2  1  6  1        2 0.159296618715D-01 0.100000000000D+01
0.370019167085D-02 0.000000000000D+00 -.210231777872D-04 0.110149947313D-03 0.000000000000D+00  6 2 2 25 2 2 21 2 0.29226709D+00 0.16890375D+00 0.23772947D+06 0.23772947D+06 0.23772947D+06 0.10921072D+01  1  2  3  1  6  1        2 0.128417430057D-01 0.100000000000D+01
-.310976385638D-02 0.000000000000D+00 0.000000000000D+00 0.110149947313D-03 0.000000000000D+00  6 2 2 25 2 2 21 2 0.29226709D+00 0.16890375D+00 0.23772947D+06 0.23772947D+06 0.23772947D+06 0.10921072D+01  1  2 15  1  6  1        2 -.107926269244D-01 0.100000000000D+01
-.265640686565D-04 0.000000000000D+00 0.000000000000D+00 0.110149947313D-03 0.000000000000D+00  6 2 2 25 2 2 21 2 0.29226709D+00 0.16890375D+00 0.23772947D+06 0.23772947D+06 0.23772947D+06 0.10921072D+01  1  2  4  1  6  1        2 -.921922357590D-04 0.100000000000D+01
-.871120984495D-02 0.000000000000D+00 -.290797625516D-02 0.110149947313D-03 0.000000000000D+00  6 2 2 25 2 2 21 2 0.48064166D+00 0.16890375D+00 0.23772947D+06 0.23772947D+06 0.23772947D+06 0.10921072D+01  1  2  5  1  6  1        2 -.582995219224D-02 0.100000000000D+01
0.930823571774D-02 0.000000000000D+00 0.258187769172D-02 0.110149947313D-03 0.000000000000D+00  6 2 2 25 2 2 21 2 0.29226709D+00 0.16890375D+00 0.23772947D+06 0.23772947D+06 0.23772947D+06 0.10921072D+01  1  2  6  1  6  1        2 0.323048051444D-01 0.100000000000D+01
-.358772117448D-03 0.000000000000D+00 -.163297991133D-03 0.110149947313D-03 0.000000000000D+00  6 21 2 25 2 2 -2 2 0.48064166D+00 0.16890375D+00 0.23772947D+06 0.23772947D+06 0.23772947D+06 0.10921072D+01  1  2  5  4  6  1        2 -.139777568700D-04 0.100000000000D+01
  </mgrwgt>
  </event>
  <event>
  5     66 0.18204334E-05 0.66328761E+02 0.75467711E-02 0.93751649E-01
        2 -1    0    0  501    0 0.00000000E+00 0.00000000E+00 0.65724148E+03 0.65724155E+03 0.32000000E+00 0.0000E+00 0.9000E+01
        2 -1    0    0  502    0 -.00000000E+00 -.00000000E+00 -.24552880E+04 0.24552880E+04 0.32000000E+00 0.0000E+00 0.9000E+01
       25  1    1    2    0    0 0.26850354E+03 0.38245452E+03 0.16003407E+02 0.48399041E+03 0.12500000E+03 0.0000E+00 0.9000E+01
        2  1    1    2  501    0 0.63583515E+02 0.18925367E+02 0.37373937E+03 0.37958168E+03 0.32000000E+00 0.0000E+00 0.9000E+01
        2  1    1    2  502    0 -.33208705E+03 -.40137988E+03 -.21877893E+04 0.22489574E+04 0.32000000E+00 0.0000E+00 0.9000E+01
#aMCatNLO 1  0  0  5  2 0.58793668D+02 0.00000000D+00  -5  6  0 0.00000000D+00 0.00000000D+00 0.00000000D+00 0.00000000D+00 0.00000000D+00
  <mgrwgt>
 0.1366190188D-01    8    2    0
 0.127032170607347D+04 0.000000000000000D+00 0.000000000000000D+00 0.127032170607347D+04
 0.127032170607347D+04 -.000000000000000D+00 -.000000000000000D+00 -.127032170607347D+04
 0.604377783242233D+03 0.268551928090903D+03 0.382504782039901D+03 0.362239504350452D+03
 0.729397096967122D+03 0.635724735524200D+02 0.189220808547360D+02 0.726374986165286D+03
 0.120686853193760D+04 -.332124401643323D+03 -.401426862894637D+03 -.108861449051574D+04
 0.000000000000000D+00 0.000000000000000D+00 -.000000000000000D+00 0.000000000000000D+00
 0.127032170607347D+04 0.000000000000000D+00 0.000000000000000D+00 0.127032170607347D+04
 0.127032170607347D+04 -.000000000000000D+00 -.000000000000000D+00 -.127032170607347D+04
 0.602940935421606D+03 0.268099043702841D+03 0.381957396908744D+03 0.360755071093115D+03
 0.727548753702372D+03 0.630259500704100D+02 0.182615175061956D+02 0.724583629134669D+03
 0.854368945498617D+03 -.264042363358334D+03 -.233520580140969D+03 -.778264777588700D+03
 0.355784777524356D+03 -.670826304149176D+02 -.166698334273971D+03 -.307073922639084D+03
0.324995217870D-03 0.000000000000D+00 0.000000000000D+00 0.130662620477D-04 0.000000000000D+00  6 2 2 25 2 2 21 0 0.10111408D+00 0.37773662D+00 0.28682981D+06 0.28682981D+06 0.28682981D+06 0.10859973D+01  1  2  2  3  6  5        2 0.905182262461D-03 0.100000000000D+01
0.983606987479D-04 0.000000000000D+00 -.124806720983D-05 0.130662620477D-04 0.000000000000D+00  6 2 2 25 2 2 21 2 0.10111408D+00 0.37773662D+00 0.28682981D+06 0.28682981D+06 0.28682981D+06 0.10859973D+01  1  2  3  3  6  5        2 0.323100889050D-03 0.100000000000D+01
-.217086756668D-03 0.000000000000D+00 0.000000000000D+00 0.130662620477D-04 0.000000000000D+00  6 2 2 25 2 2 21 2 0.10111408D+00 0.37773662D+00 0.28682981D+06 0.28682981D+06 0.28682981D+06 0.10859973D+01  1  2 15  3  6  5        2 -.713099082999D-03 0.100000000000D+01
0.758007606197D-02 0.000000000000D+00 0.000000000000D+00 0.130662620477D-04 0.000000000000D+00  6 2 2 25 2 2 21 2 0.10111408D+00 0.37773662D+00 0.29209036D+06 0.29209036D+06 0.29209036D+06 0.10854114D+01  1  2 12  3  6  5        2 0.248410557027D-01 0.100000000000D+01
0.327191589478D-09 0.000000000000D+00 0.000000000000D+00 0.130662620477D-04 0.000000000000D+00  6 2 2 25 2 2 21 2 0.10111408D+00 0.37773662D+00 0.29209036D+06 0.29209036D+06 0.29209036D+06 0.10854114D+01  1  2 12  3  6  5        2 0.107225632477D-08 0.100000000000D+01
-.635672319357D-02 0.000000000000D+00 0.000000000000D+00 0.130662620477D-04 0.000000000000D+00  6 2 2 25 2 2 21 2 0.10111408D+00 0.37773662D+00 0.28682981D+06 0.28682981D+06 0.28682981D+06 0.10859973D+01  1  2  4  3  6  5        2 -.208809305081D-01 0.100000000000D+01
-.833001936938D-02 0.000000000000D+00 0.000000000000D+00 0.130662620477D-04 0.000000000000D+00  6 2 2 25 2 2 21 2 0.10111408D+00 0.37773662D+00 0.28682981D+06 0.28682981D+06 0.28682981D+06 0.10859973D+01  1  2  5  3  6  5        2 -.273629274528D-01 0.100000000000D+01
0.111266677038D-01 0.000000000000D+00 -.000000000000D+00 0.130662620477D-04 0.000000000000D+00  6 2 2 25 2 2 21 2 0.10111408D+00 0.37773662D+00 0.28682981D+06 0.28682981D+06 0.28682981D+06 0.10859973D+01  1  2  6  3  6  5        2 0.365495189950D-01 0.100000000000D+01
  </mgrwgt>
  </event>
  <event>
  6     66 0.18204334E-05 0.31376972E+02 0.75467711E-02 0.91420315E-01
        2 -1    0    0  501    0 0.00000000E+00 0.00000000E+00 0.86586571E+03 0.86586577E+03 0.32000000E+00 0.0000E+00 0.9000E+01
        2 -1    0    0  502    0 -.00000000E+00 -.00000000E+00 -.17166343E+04 0.17166343E+04 0.32000000E+00 0.0000E+00 0.9000E+01
       25  1    1    2    0    0 0.31162489E+03 0.50949982E+03 -.73235688E+03 0.95324275E+03 0.12500000E+03 0.0000E+00 0.9000E+01
        2  1    1    2  501    0 0.17551129E+01 0.49148033E+02 0.62116652E+03 0.62311039E+03 0.32000000E+00 0.0000E+00 0.9000E+01
        2  1    1    2  503    0 -.25839650E+03 -.56878683E+03 -.65888567E+03 0.90797447E+03 0.32000000E+00 0.0000E+00 0.9000E+01
       21  1    1    2  502  503 -.54983509E+02 0.10138973E+02 -.80692541E+02 0.98172469E+02 0.75000000E+00 0.0000E+00 0.9000E+01
#aMCatNLO 2  0  0  5  4 0.62073275D+02 0.00000000D+00  -5  6  0 0.00000000D+00 0.00000000D+00 0.00000000D+00 0.00000000D+00 0.00000000D+00
  <mgrwgt>
 0.1588967348D-01    2    2    0
 0.121916974624244D+04 0.000000000000000D+00 0.000000000000000D+00 0.121916974624244D+04
 0.121916974624244D+04 -.000000000000000D+00 -.000000000000000D+00 -.121916974624244D+04
 0.757731521659322D+03 0.316059931197920D+03 0.517405401652698D+03 -.436955179792995D+03
 0.884295226541956D+03 0.689378987070843D+01 0.583060566688021D+02 0.882343995900603D+03
 0.796312744283600D+03 -.322953721068628D+03 -.575711458321501D+03 -.445388816107608D+03
 0.000000000000000D+00 0.000000000000000D+00 0.000000000000000D+00 -.000000000000000D+00
 0.121916974624244D+04 0.000000000000000D+00 0.000000000000000D+00 0.121916974624244D+04
 0.121916974624244D+04 -.000000000000000D+00 -.000000000000000D+00 -.121916974624244D+04
 0.754095779167417D+03 0.311644103336934D+03 0.509533553360836D+03 -.443045093656292D+03
 0.876630628725562D+03 0.175038132889435D+01 0.491371911652465D+02 0.875250667997099D+03
 0.731727351163052D+03 -.258360506782586D+03 -.568815281173052D+03 -.380951362878732D+03
 0.758857334288473D+02 -.550339778832424D+02 0.101445366469696D+02 -.512542114620755D+02
-.810601222856D-03 0.000000000000D+00 0.000000000000D+00 0.152777473261D-05 0.000000000000D+00  6 2 2 25 2 2 21 2 0.13321012D+00 0.26409759D+00 0.44747661D+06 0.44747661D+06 0.44747661D+06 0.10719337D+01  1  2  8  3  6  5        2 -.458462849690D-02 0.100000000000D+01
0.362141881749D-02 0.000000000000D+00 0.000000000000D+00 0.152777473261D-05 0.261819692775D-08  6 2 2 25 2 2 21 2 0.13321012D+00 0.26409759D+00 0.44896213D+06 0.44896213D+06 0.44896213D+06 0.10718309D+01  1  2  1  3  6  5        2 0.204743019816D-01 0.100000000000D+01
  </mgrwgt>
  </event>
  <event>
  5     66 0.18204334E-05 0.18623146E+02 0.75467711E-02 0.94240164E-01
        2 -1    0    0  501    0 0.00000000E+00 0.00000000E+00 0.10073359E+04 0.10073359E+04 0.32000000E+00 0.0000E+00 0.9000E+01
        2 -1    0    0  502    0 0.00000000E+00 0.00000000E+00 -.57733852E+03 0.57733861E+03 0.32000000E+00 0.0000E+00 0.9000E+01
       25  1    1    2    0    0 -.27907352E+03 -.40866395E+03 -.13811556E+03 0.52876191E+03 0.12500000E+03 0.0000E+00 0.9000E+01
        2  1    1    2  501    0 -.16909371E+02 0.78168728E+01 0.55720035E+03 0.55751176E+03 0.32000000E+00 0.0000E+00 0.9000E+01
        2  1    1    2  502    0 0.29598289E+03 0.40084708E+03 0.10912585E+02 0.49840088E+03 0.32000000E+00 0.0000E+00 0.9000E+01
#aMCatNLO 1  0  0  5  2 0.19564185D+01 0.00000000D+00  -5  6  0 0.00000000D+00 0.00000000D+00 0.00000000D+00 0.00000000D+00 0.00000000D+00
  <mgrwgt>
 0.1940260188D-02    6    2    0
 0.762609943065854D+03 0.000000000000000D+00 0.000000000000000D+00 0.762609943065854D+03
 0.762609943065854D+03 -.000000000000000D+00 -.000000000000000D+00 -.762609943065854D+03
 0.588365360044996D+03 -.279130888830690D+03 -.408740880030518D+03 -.292516045360497D+03
 0.422028428717826D+03 -.169042845133662D+02 0.781452152245050D+01 0.421617330128285D+03
 0.514826097368887D+03 0.296035173344057D+03 0.400926358508067D+03 -.129101284767788D+03
 0.000000000000000D+00 0.000000000000000D+00 0.000000000000000D+00 0.000000000000000D+00
 0.762609943065854D+03 0.000000000000000D+00 0.000000000000000D+00 0.762609943065854D+03
 0.762609943065854D+03 -.000000000000000D+00 -.000000000000000D+00 -.762609943065854D+03
 0.565897161970039D+03 -.259952446781043D+03 -.382767132228980D+03 -.300879786332508D+03
 0.416408374211418D+03 -.297338809198829D+01 0.266814132836022D+02 0.415542049932183D+03
 0.438576919923401D+03 0.164696733261910D+03 0.391059159777115D+03 -.110893797377353D+03
 0.104337430026850D+03 0.982291016111218D+02 -.349734408317371D+02 -.376846622232200D+01
0.861735430393D-04 0.000000000000D+00 0.000000000000D+00 0.651921104814D-06 0.000000000000D+00  6 2 2 25 2 2 21 0 0.15497476D+00 0.88821321D-01 0.26393764D+06 0.26393764D+06 0.26393764D+06 0.10886910D+01  1  2  2  3  6  5        2 0.181775337824D-02 0.100000000000D+01
0.635068877997D-04 0.000000000000D+00 -.330929095286D-06 0.651921104814D-06 0.000000000000D+00  6 2 2 25 2 2 21 2 0.15497476D+00 0.88821321D-01 0.26393764D+06 0.26393764D+06 0.26393764D+06 0.10886910D+01  1  2  3  3  6  5        2 0.158778288968D-02 0.100000000000D+01
-.525483081417D-04 0.000000000000D+00 0.000000000000D+00 0.651921104814D-06 0.000000000000D+00  6 2 2 25 2 2 21 2 0.15497476D+00 0.88821321D-01 0.26393764D+06 0.26393764D+06 0.26393764D+06 0.10886910D+01  1  2 15  3  6  5        2 -.131379929705D-02 0.100000000000D+01
-.289825591465D-04 0.000000000000D+00 0.000000000000D+00 0.651921104814D-06 0.000000000000D+00  6 2 2 25 2 2 21 2 0.15497476D+00 0.88821321D-01 0.26393764D+06 0.26393764D+06 0.26393764D+06 0.10886910D+01  1  2  4  3  6  5        2 -.724614496259D-03 0.100000000000D+01
-.102942595466D-03 0.000000000000D+00 0.000000000000D+00 0.651921104814D-06 0.000000000000D+00  6 2 2 25 2 2 21 2 0.15497476D+00 0.88821321D-01 0.26393764D+06 0.26393764D+06 0.26393764D+06 0.10886910D+01  1  2  5  3  6  5        2 -.257374431912D-02 0.100000000000D+01
0.125866505710D-03 0.000000000000D+00 -.000000000000D+00 0.651921104814D-06 0.000000000000D+00  6 2 2 25 2 2 21 2 0.15497476D+00 0.88821321D-01 0.26393764D+06 0.26393764D+06 0.26393764D+06 0.10886910D+01  1  2  6  3  6  5        2 0.314688203240D-02 0.100000000000D+01
  </mgrwgt>
  </event>
  <event>
  6     66 0.18204334E-05 0.40459324E+02 0.75467711E-02 0.92940764E-01
        2 -1    0    0  501    0 0.00000000E+00 0.00000000E+00 0.13522812E+04 0.13522812E+04 0.32000000E+00 0.0000E+00 0.9000E+01
        2 -1    0    0  502    0 0.00000000E+00 0.00000000E+00 -.94301665E+03 0.94301671E+03 0.32000000E+00 0.0000E+00 0.9000E+01
       25  1    1    2    0    0 -.54740432E+03 0.13120066E+03 0.49582387E+03 0.76048104E+03 0.12500000E+03 0.0000E+00 0.9000E+01
        2  1    1    2  501    0 0.42986648E+02 -.64492749E+02 0.63850332E+03 0.64319029E+03 0.32000000E+00 0.0000E+00 0.9000E+01
        2  1    1    2  503    0 0.31443091E+03 -.32487301E+02 -.36322423E+03 0.48151237E+03 0.32000000E+00 0.0000E+00 0.9000E+01
       21  1    1    2  502  503 0.18998676E+03 -.34220607E+02 -.36183846E+03 0.41011419E+03 0.75000000E+00 0.0000E+00 0.9000E+01
#aMCatNLO 2  0  0  5  2 0.13452731D+02 0.00000000D+00  -5  6  0 0.00000000D+00 0.00000000D+00 0.00000000D+00 0.00000000D+00 0.00000000D+00
  <mgrwgt>
 0.7099370595D-02    1    2    0
 0.112925805419644D+04 0.000000000000000D+00 0.000000000000000D+00 0.112925805419644D+04
 0.112925805419644D+04 -.000000000000000D+00 -.000000000000000D+00 -.112925805419644D+04
 0.684454132564306D+03 -.548198804530046D+03 0.131293151351119D+03 0.367549505107104D+03
 0.538800215866829D+03 0.423903140263219D+02 -.643987946306767D+02 0.533255594574503D+03
 0.103526175996174D+04 0.505808490503724D+03 -.668943567204419D+02 -.900805099681608D+03
 0.000000000000000D+00 0.000000000000000D+00 0.000000000000000D+00 -.000000000000000D+00
 0.112925805419644D+04 0.000000000000000D+00 0.000000000000000D+00 0.112925805419644D+04
 0.112925805419644D+04 -.000000000000000D+00 -.000000000000000D+00 -.112925805419644D+04
 0.683129045130364D+03 -.547455248741300D+03 0.131194814357755D+03 0.366225290786912D+03
 0.537824215734031D+03 0.429756753714149D+02 -.644762100386110D+02 0.532213112103932D+03
 0.554900690405542D+03 0.314324341791709D+03 -.324741500346257D+02 -.456136398404342D+03
 0.482662157122943D+03 0.190155231578176D+03 -.342444542845183D+02 -.442302004486503D+03
0.859027977132D-03 0.000000000000D+00 0.000000000000D+00 0.358756513887D-05 0.450416975181D-08  6 2 2 25 2 2 21 2 0.20804326D+00 0.14507949D+00 0.33835404D+06 0.33835404D+06 0.33835404D+06 0.10807072D+01  1  2  1  3  6  5        2 0.709937059535D-02 0.100000000000D+01
  </mgrwgt>
  </event>
  <event>
  5     66 0.18204334E-05 0.20617992E+03 0.75467711E-02 0.87257923E-01
        2 -1    0    0  501    0 0.00000000E+00 0.00000000E+00 0.86791936E+03 0.86791942E+03 0.32000000E+00 0.0000E+00 0.9000E+01
        2 -1    0    0  502    0 0.00000000E+00 0.00000000E+00 -.11444717E+04 0.11444717E+04 0.32000000E+00 0.0000E+00 0.9000E+01
       25  1    1    2    0    0 0.45390958E+03 0.10317463E+02 -.20427617E+03 0.51331677E+03 0.12500000E+03 0.0000E+00 0.9000E+01
        2  1    1    2  501    0 -.29775034E+03 0.12427207E+03 0.66198258E+03 0.73642370E+03 0.32000000E+00 0.0000E+00 0.9000E+01
        2  1    1    2  502    0 -.15615923E+03 -.13458953E+03 -.73425876E+03 0.76265069E+03 0.32000000E+00 0.0000E+00 0.9000E+01
#aMCatNLO 1  0  0  2  2 0.76520847D+03 0.00000000D+00  -5  6  0 0.00000000D+00 0.00000000D+00 0.00000000D+00 0.00000000D+00 0.00000000D+00
  <mgrwgt>
 0.1544482189D-02    6    2    0
 0.996649006812997D+03 0.000000000000000D+00 0.000000000000000D+00 0.996649006812997D+03
 0.996649006812997D+03 0.000000000000000D+00 0.000000000000000D+00 -.996649006812997D+03
 0.489881414507459D+03 0.453918437716594D+03 0.103357933564309D+02 -.134944520290559D+03
 0.835287974639968D+03 -.297738294293759D+03 0.124267041540634D+03 0.770464542387202D+03
 0.668128624478567D+03 -.156180143422835D+03 -.134602834897065D+03 -.635520022096643D+03
 0.000000000000000D+00 0.000000000000000D+00 -.000000000000000D+00 -.000000000000000D+00
 0.129947987559107D+04 0.000000000000000D+00 0.000000000000000D+00 0.129947987559107D+04
 0.169877112180881D+04 0.000000000000000D+00 0.000000000000000D+00 -.169877112180881D+04
 0.518015600645649D+03 0.442464963604888D+03 0.196799123316006D+03 -.134944520290559D+03
 0.949345297337566D+03 -.318018393026245D+03 0.454428414822439D+03 0.770464542387202D+03
 0.667769303979826D+03 -.171360932838264D+03 0.112541439251430D+03 -.635520022096643D+03
 0.863120795436837D+03 0.469143622596207D+02 -.763768977389875D+03 -.399291246217741D+03
0.192183853419D-03 0.000000000000D+00 0.000000000000D+00 0.116954427387D-05 0.000000000000D+00  6 2 2 25 2 2 21 0 0.13352606D+00 0.17607258D+00 0.24986951D+06 0.24986951D+06 0.24986951D+06 0.10904762D+01  1  2  2  2  6  2        2 0.203311237317D-02 0.100000000000D+01
0.179688459982D-04 0.000000000000D+00 -.738036600299D-06 0.116954427387D-05 0.000000000000D+00  6 2 2 25 2 2 21 2 0.13352606D+00 0.17607258D+00 0.24986951D+06 0.24986951D+06 0.24986951D+06 0.10904762D+01  1  2  3  2  6  2        2 0.226046105418D-03 0.100000000000D+01
-.135817791954D-03 0.000000000000D+00 0.000000000000D+00 0.116954427387D-05 0.000000000000D+00  6 2 2 25 2 2 21 2 0.13352606D+00 0.17607258D+00 0.24986951D+06 0.24986951D+06 0.24986951D+06 0.10904762D+01  1  2 15  2  6  2        2 -.170857287779D-02 0.100000000000D+01
-.950658452008D-05 0.000000000000D+00 -.107035433378D-03 0.116954427387D-05 0.000000000000D+00  6 2 2 25 2 2 21 2 0.13352606D+00 0.33968261D+00 0.24986951D+06 0.24986951D+06 0.24986951D+06 0.10904762D+01  1  2  5  2  6  2        2 -.309212814595D-04 0.100000000000D+01
0.812349135947D-04 0.000000000000D+00 0.874628383269D-04 0.116954427387D-05 0.000000000000D+00  6 2 2 25 2 2 21 2 0.13352606D+00 0.17607258D+00 0.24986951D+06 0.24986951D+06 0.24986951D+06 0.10904762D+01  1  2  6  2  6  2        2 0.102192627417D-02 0.100000000000D+01
0.553623521374D-05 0.000000000000D+00 -.762952073167D-05 0.116954427387D-05 0.000000000000D+00  6 2 21 25 2 2 -2 2 0.13352606D+00 0.33968261D+00 0.24986951D+06 0.24986951D+06 0.24986951D+06 0.10904762D+01  1  2  5  5  6  2        2 0.289159508703D-05 0.100000000000D+01
  </mgrwgt>
  </event>
  <event>
  5     66 0.18204334E-05 0.25935449E+02 0.75467711E-02 0.90619440E-01
        2 -1    0    0  501    0 0.00000000E+00 0.00000000E+00 0.14791839E+04 0.14791839E+04 0.32000000E+00 0.0000E+00 0.9000E+01
        2 -1    0    0  502    0 0.00000000E+00 0.00000000E+00 -.11762572E+04 0.11762572E+04 0.32000000E+00 0.0000E+00 0.9000E+01
       25  1    1    2    0    0 -.26998384E+03 -.52443131E+03 -.62303619E+03 0.86701706E+03 0.12500000E+03 0.0000E+00 0.9000E+01
        2  1    1    2  501    0 0.27134195E+03 0.55033523E+03 0.12873529E+04 0.14261041E+04 0.32000000E+00 0.0000E+00 0.9000E+01
        2  1    1    2  502    0 -.13581042E+01 -.25903914E+02 -.36139004E+03 0.36231991E+03 0.32000000E+00 0.0000E+00 0.9000E+01
#aMCatNLO 1  0  0  1  4 0.13893082D+03 0.00000000D+00  -5  6  0 0.00000000D+00 0.00000000D+00 0.00000000D+00 0.00000000D+00 0.00000000D+00
  <mgrwgt>
 0.5807499902D-02    7    2    0
 0.131905296068376D+04 0.000000000000000D+00 0.000000000000000D+00 0.131905296068376D+04
 0.131905296068376D+04 0.000000000000000D+00 0.000000000000000D+00 -.131905296068376D+04
 0.944325290815361D+03 -.269985775188548D+03 -.524438751806714D+03 -.726771581497770D+03
 0.128765976240360D+04 0.271343624443016D+03 0.550338631242436D+03 0.113206346648482D+04
 0.406120868148557D+03 -.135784925446808D+01 -.258998794357216D+02 -.405291884987048D+03
 0.000000000000000D+00 0.000000000000000D+00 0.000000000000000D+00 0.000000000000000D+00
 0.162684819983190D+04 0.000000000000000D+00 0.000000000000000D+00 0.162684819983190D+04
 0.135423372024265D+04 0.000000000000000D+00 0.000000000000000D+00 -.135423372024265D+04
 0.982814331193582D+03 -.333213965501292D+03 -.557736973063129D+03 -.726771581497770D+03
 0.125433166102576D+04 0.187942548745964D+03 0.506416648692452D+03 0.113206346648482D+04
 0.408224721322399D+03 -.280759953209883D+02 -.399706085659348D+02 -.405291884987048D+03
 0.335711206532809D+03 0.173347412076316D+03 0.912909329366118D+02 0.272614479589256D+03
0.697844507212D-03 0.000000000000D+00 0.000000000000D+00 0.104136429041D-04 0.000000000000D+00  6 2 2 25 2 2 21 0 0.22756675D+00 0.18096265D+00 0.38594238D+06 0.38594238D+06 0.38594238D+06 0.10765495D+01  1  2  2  1  6  1        2 0.300049748888D-02 0.100000000000D+01
0.337947801765D-03 0.000000000000D+00 -.267990665437D-05 0.104136429041D-04 0.000000000000D+00  6 2 2 25 2 2 21 2 0.22756675D+00 0.18096265D+00 0.38594238D+06 0.38594238D+06 0.38594238D+06 0.10765495D+01  1  2  3  1  6  1        2 0.168403935807D-02 0.100000000000D+01
-.483423750190D-03 0.000000000000D+00 0.000000000000D+00 0.104136429041D-04 0.000000000000D+00  6 2 2 25 2 2 21 2 0.22756675D+00 0.18096265D+00 0.38594238D+06 0.38594238D+06 0.38594238D+06 0.10765495D+01  1  2 15  1  6  1        2 -.240896557899D-02 0.100000000000D+01
-.788241911549D-03 0.000000000000D+00 0.000000000000D+00 0.104136429041D-04 0.000000000000D+00  6 2 2 25 2 2 21 2 0.22756675D+00 0.18096265D+00 0.38594238D+06 0.38594238D+06 0.38594238D+06 0.10765495D+01  1  2  4  1  6  1        2 -.392791548221D-02 0.100000000000D+01
-.389059837826D-02 0.000000000000D+00 -.731513340110D-03 0.104136429041D-04 0.000000000000D+00  6 2 2 25 2 2 21 2 0.28343475D+00 0.18096265D+00 0.38594238D+06 0.38594238D+06 0.38594238D+06 0.10765495D+01  1  2  5  1  6  1        2 -.122546492539D-01 0.100000000000D+01
0.397236157444D-02 0.000000000000D+00 0.714232148326D-03 0.104136429041D-04 0.000000000000D+00  6 2 2 25 2 2 21 2 0.22756675D+00 0.18096265D+00 0.38594238D+06 0.38594238D+06 0.38594238D+06 0.10765495D+01  1  2  6  1  6  1        2 0.197948121009D-01 0.100000000000D+01
-.109638318245D-03 0.000000000000D+00 -.224710456633D-04 0.104136429041D-04 0.000000000000D+00  6 21 2 25 2 2 -2 2 0.28343475D+00 0.18096265D+00 0.38594238D+06 0.38594238D+06 0.38594238D+06 0.10765495D+01  1  2  5  4  6  1        2 -.803187305289D-04 0.100000000000D+01
  </mgrwgt>
  </event>
  <event>
  6     66 0.18204334E-05 0.10472172E+03 0.75467711E-02 0.93225143E-01
        2 -1    0    0  501    0 0.00000000E+00 0.00000000E+00 0.24615340E+03 0.24615361E+03 0.32000000E+00 0.0000E+00 0.9000E+01
        2 -1    0    0  502    0 -.00000000E+00 -.00000000E+00 -.17655132E+04 0.17655133E+04 0.32000000E+00 0.0000E+00 0.9000E+01
       25  1    1    2    0    0 -.40216738E+03 -.23899424E+03 -.34112716E+03 0.59232558E+03 0.12500000E+03 0.0000E+00 0.9000E+01
        2  1    1    2  501    0 0.40912727E+03 0.34882406E+03 -.50761695E+03 0.73941762E+03 0.32000000E+00 0.0000E+00 0.9000E+01
        2  1    1    2  503    0 0.17208402E+01 -.89811685E+02 -.51341050E+03 0.52120969E+03 0.32000000E+00 0.0000E+00 0.9000E+01
       21  1    1    2  502  503 -.86807286E+01 -.20018133E+02 -.15720523E+03 0.15871398E+03 0.75000000E+00 0.0000E+00 0.9000E+01
#aMCatNLO 2  0  0  5  2 0.90166119D+01 0.00000000D+00  -5  6  0 0.00000000D+00 0.00000000D+00 0.00000000D+00 0.00000000D+00 0.00000000D+00
  <mgrwgt>
 0.9274640093D-02    6    2    0
 0.659232373022124D+03 0.000000000000000D+00 0.000000000000000D+00 0.659232373022124D+03
 0.659232373022124D+03 -.000000000000000D+00 -.000000000000000D+00 -.659232373022124D+03
 0.510687858350225D+03 -.402181745852024D+03 -.238888957636529D+03 0.162354543789481D+03
 0.543394651797474D+03 0.409160028241371D+03 0.348992932235013D+03 0.779086140399483D+02
 0.264382235896549D+03 -.697828238934755D+01 -.110103974598484D+03 -.240263157829430D+03
 0.000000000000000D+00 0.000000000000000D+00 0.000000000000000D+00 -.000000000000000D+00
 0.659232373022124D+03 0.000000000000000D+00 0.000000000000000D+00 0.659232373022124D+03
 0.659232373022124D+03 -.000000000000000D+00 -.000000000000000D+00 -.659232373022124D+03
 0.510663280802758D+03 -.402190634044614D+03 -.239029196348088D+03 0.162048522178436D+03
 0.543245123575372D+03 0.409150571881820D+03 0.348843728933440D+03 0.775830303675579D+02
 0.203482380675851D+03 0.174176104705432D+01 -.897778423175205D+02 -.182597876610812D+03
 0.610739609902666D+02 -.870169888426064D+01 -.200366902678313D+02 -.570336759351812D+02
-.103498902152D-02 0.000000000000D+00 0.000000000000D+00 0.160003831999D-07 0.000000000000D+00  6 2 2 25 2 2 21 2 0.37869772D-01 0.27161744D+00 0.32125420D+06 0.32125420D+06 0.32125420D+06 0.10823593D+01  1  2 13  3  6  5        2 -.245693108605D-01 0.100000000000D+01
-.171215659632D-05 0.000000000000D+00 0.000000000000D+00 0.160003831999D-07 0.000000000000D+00  6 2 2 25 2 2 21 2 0.37869772D-01 0.27161744D+00 0.32125420D+06 0.32125420D+06 0.32125420D+06 0.10823593D+01  1  2 13  3  6  5        2 -.406443998749D-04 0.100000000000D+01
-.118290820709D-04 0.000000000000D+00 0.000000000000D+00 0.160003831999D-07 0.000000000000D+00  6 2 2 25 2 2 21 2 0.37869772D-01 0.27161744D+00 0.32052511D+06 0.32052511D+06 0.32052511D+06 0.10824319D+01  1  2  8  3  6  5        2 -.280869302525D-03 0.100000000000D+01
-.638244071230D-05 0.000000000000D+00 0.000000000000D+00 0.160003831999D-07 0.000000000000D+00  6 2 2 25 2 2 21 2 0.37869772D-01 0.27161744D+00 0.32052511D+06 0.32052511D+06 0.32052511D+06 0.10824319D+01  1  2  9  3  6  5        2 -.151544444491D-03 0.100000000000D+01
0.802141003527D-05 0.000000000000D+00 0.000000000000D+00 0.160003831999D-07 0.000000000000D+00  6 2 2 25 2 2 21 2 0.37869772D-01 0.27161744D+00 0.32052511D+06 0.32052511D+06 0.32052511D+06 0.10824319D+01  1  2 10  3  6  5        2 0.190460073603D-03 0.100000000000D+01
0.143759032499D-02 0.000000000000D+00 0.000000000000D+00 0.160003831999D-07 0.103176542870D-08  6 2 2 25 2 2 21 2 0.37869772D-01 0.27161744D+00 0.32125420D+06 0.32125420D+06 0.32125420D+06 0.10823593D+01  1  2  1  3  6  5        2 0.341265490264D-01 0.100000000000D+01
  </mgrwgt>
  </event>
  <event>
  6     66 0.18204334E-05 0.18634976E+02 0.75467711E-02 0.94841656E-01
        2 -1    0    0  501    0 0.00000000E+00 0.00000000E+00 0.39379156E+03 0.39379169E+03 0.32000000E+00 0.0000E+00 0.9000E+01
        2 -1    0    0  503    0 0.00000000E+00 0.00000000E+00 -.24543305E+04 0.24543305E+04 0.32000000E+00 0.0000E+00 0.9000E+01
       25  1    1    2    0    0 -.32846750E+03 -.34601799E+03 -.15503459E+04 0.16269040E+04 0.12500000E+03 0.0000E+00 0.9000E+01
        2  1    1    2  501    0 0.33495647E+03 0.32801477E+03 0.20076836E+03 0.50999761E+03 0.32000000E+00 0.0000E+00 0.9000E+01
        2  1    1    2  502    0 -.27223203E+01 0.86797741E+01 -.32460627E+03 0.32473386E+03 0.32000000E+00 0.0000E+00 0.9000E+01
       21  1    1    2  503  502 -.37666473E+01 0.93234422E+01 -.38635513E+03 0.38648669E+03 0.75000000E+00 0.0000E+00 0.9000E+01
#aMCatNLO 2  0  0  2  5 0.15385521D+03 0.00000000D+00  -5  6  0 0.00000000D+00 0.00000000D+00 0.00000000D+00 0.00000000D+00 0.00000000D+00
  <mgrwgt>
 0.3251435640D-03    1    2    0
 0.902310482462375D+03 0.000000000000000D+00 0.000000000000000D+00 0.902310482462375D+03
 0.902310482462375D+03 0.000000000000000D+00 0.000000000000000D+00 -.902310482462375D+03
 0.779947524815406D+03 -.330104867350962D+03 -.341986563616140D+03 -.605614653325780D+03
 0.882943068673075D+03 0.333120892934506D+03 0.332579918195254D+03 0.747000355569917D+03
 0.141730371436269D+03 -.301602558354415D+01 0.940664542088689D+01 -.141385702244137D+03
 0.000000000000000D+00 -.000000000000000D+00 0.000000000000000D+00 -.000000000000000D+00
 0.902474411191356D+03 0.000000000000000D+00 0.000000000000000D+00 0.902474411191356D+03
 0.107093679155081D+04 0.000000000000000D+00 0.000000000000000D+00 -.107093679155081D+04
 0.781037478742420D+03 -.328475817713663D+03 -.346018889736893D+03 -.605614653325780D+03
 0.881933823513579D+03 0.334962724889677D+03 0.328020899898437D+03 0.747000355569917D+03
 0.141677677809724D+03 -.272025991072884D+01 0.867454762545554D+01 -.141385702244137D+03
 0.168762222676443D+03 -.376664726528505D+01 0.932344221300029D+01 -.168462380359454D+03
0.538894959157D-04 0.000000000000D+00 0.000000000000D+00 0.423695047544D-05 0.681159275729D-04  6 2 2 25 2 2 21 2 0.60583272D-01 0.37758897D+00 0.24067698D+06 0.24067698D+06 0.24067698D+06 0.10917030D+01  1  2  1  2  6  2        2 0.325143563981D-03 0.100000000000D+01
  </mgrwgt>
  </event>
  <event>
  5     66 0.18204334E-05 0.41165756E+02 0.75467711E-02 0.90760452E-01
        2 -1    0    0  501    0 0.00000000E+00 0.00000000E+00 0.17567673E+04 0.17567673E+04 0.32000000E+00 0.0000E+00 0.9000E+01
        2 -1    0    0  502    0 0.00000000E+00 0.00000000E+00 -.82580639E+03 0.82580645E+03 0.32000000E+00 0.0000E+00 0.9000E+01
       25  1    1    2    0    0 0.69491144E+03 0.10847738E+03 0.44630578E+03 0.84230820E+03 0.12500000E+03 0.0000E+00 0.9000E+01
        2  1    1    2  501    0 -.40249024E+02 -.86816553E+01 0.93724944E+03 0.93815349E+03 0.32000000E+00 0.0000E+00 0.9000E+01
        2  1    1    2  502    0 -.65466242E+03 -.99795724E+02 -.45259431E+03 0.80211208E+03 0.32000000E+00 0.0000E+00 0.9000E+01
#aMCatNLO 1  0  0  2  5 0.69116928D+01 0.00000000D+00  -5  6  0 0.00000000D+00 0.00000000D+00 0.00000000D+00 0.00000000D+00 0.00000000D+00
  <mgrwgt>
 0.1905291527D-02    6    2    0
 0.120447073959816D+04 0.000000000000000D+00 0.000000000000000D+00 0.120447073959816D+04
 0.120447073959816D+04 0.000000000000000D+00 0.000000000000000D+00 -.120447073959816D+04
 0.730640373650627D+03 0.694988127922088D+03 0.108488701778885D+03 0.153075338451405D+03
 0.643424292358036D+03 -.402402914538091D+02 -.867977181794966D+01 0.642106066395062D+03
 0.103487681318766D+04 -.654747836468279D+03 -.998089299609351D+02 -.795181404846467D+03
 0.000000000000000D+00 0.000000000000000D+00 0.000000000000000D+00 0.000000000000000D+00
 0.121460756328675D+04 0.000000000000000D+00 0.000000000000000D+00 0.121460756328675D+04
 0.120565444112478D+04 0.000000000000000D+00 0.000000000000000D+00 -.120565444112478D+04
 0.729052527805834D+03 0.693555969338805D+03 0.106960957608723D+03 0.153075338451405D+03
 0.643524072274497D+03 -.415029639959658D+02 -.100267180553432D+02 0.642106066395062D+03
 0.103637479454965D+04 -.656780017871092D+03 -.101976743865834D+03 -.795181404846467D+03
 0.113106097815470D+02 0.472701252825319D+01 0.504250431245425D+01 0.895312216196366D+01
0.455636422990D-03 0.000000000000D+00 0.000000000000D+00 0.431962073664D-05 0.000000000000D+00  6 2 2 25 2 2 21 0 0.27027190D+00 0.12704714D+00 0.50261182D+06 0.50261182D+06 0.50261182D+06 0.10683505D+01  1  2  2  2  6  2        2 0.225491863422D-02 0.100000000000D+01
0.248433485780D-03 0.000000000000D+00 -.174976383611D-05 0.431962073664D-05 0.000000000000D+00  6 2 2 25 2 2 21 2 0.27027190D+00 0.12704714D+00 0.50261182D+06 0.50261182D+06 0.50261182D+06 0.10683505D+01  1  2  3  2  6  2        2 0.140329863994D-02 0.100000000000D+01
-.310574412597D-03 0.000000000000D+00 0.000000000000D+00 0.431962073664D-05 0.000000000000D+00  6 2 2 25 2 2 21 2 0.27027190D+00 0.12704714D+00 0.50261182D+06 0.50261182D+06 0.50261182D+06 0.10683505D+01  1  2 15  2  6  2        2 -.175430719185D-02 0.100000000000D+01
-.713163477832D-06 0.000000000000D+00 0.000000000000D+00 0.431962073664D-05 0.000000000000D+00  6 2 2 25 2 2 21 2 0.27027190D+00 0.12704714D+00 0.50261182D+06 0.50261182D+06 0.50261182D+06 0.10683505D+01  1  2  4  2  6  2        2 -.402836733284D-05 0.100000000000D+01
0.563797175661D-06 0.000000000000D+00 0.000000000000D+00 0.431962073664D-05 0.878742438378D-08  6 2 2 25 2 2 21 2 0.27254651D+00 0.12717200D+00 0.50912475D+06 0.50912475D+06 0.50912475D+06 0.10679557D+01  1  2 11  2  6  2        2 0.311699730631D-05 0.100000000000D+01
0.453831147614D-06 0.000000000000D+00 0.000000000000D+00 0.431962073664D-05 0.930086368875D-10  6 2 21 25 2 2 -2 2 0.27254651D+00 0.12717200D+00 0.50912475D+06 0.50912475D+06 0.50912475D+06 0.10679557D+01  1  2 11  5  6  2        2 0.229281519894D-05 0.100000000000D+01
  </mgrwgt>
  </event>
  <event>
  5     66 0.18204334E-05 0.15374543E+03 0.75467711E-02 0.84015613E-01
        2 -1    0    0  501    0 0.00000000E+00 0.00000000E+00 0.61887305E+03 0.61887313E+03 0.32000000E+00 0.0000E+00 0.9000E+01
        2 -1    0    0  502    0 0.00000000E+00 0.00000000E+00 -.39863567E+04 0.39863567E+04 0.32000000E+00 0.0000E+00 0.9000E+01
       25  1    1    2    0    0 -.28547984E+03 -.70755570E+03 -.80894325E+03 0.11189942E+04 0.12500000E+03 0.0000E+00 0.9000E+01
        2  1    1    2  501    0 0.26110524E+03 0.85934571E+03 0.24648903E+02 0.89847574E+03 0.32000000E+00 0.0000E+00 0.9000E+01
        2  1    1    2  502    0 0.24374599E+02 -.15179001E+03 -.25831893E+04 0.25877599E+04 0.32000000E+00 0.0000E+00 0.9000E+01
#aMCatNLO 1  0  0  2  5 0.69116928D+01 0.00000000D+00  -5  6  0 0.00000000D+00 0.00000000D+00 0.00000000D+00 0.00000000D+00 0.00000000D+00
  <mgrwgt>
 0.1406886151D-02    7    2    0
 0.157068423158532D+04 0.000000000000000D+00 0.000000000000000D+00 0.157068423158532D+04
 0.157068423158532D+04 0.000000000000000D+00 0.000000000000000D+00 -.157068423158532D+04
 0.773238647606090D+03 -.285475380211884D+03 -.707522789849076D+03 0.137228017822490D+02
 0.134354896542413D+04 0.261098454987948D+03 0.859323388701779D+03 0.999257090505368D+03
 0.102458085014041D+04 0.243769252239363D+02 -.151800598852703D+03 -.101297989228762D+04
 0.000000000000000D+00 0.000000000000000D+00 0.000000000000000D+00 -.000000000000000D+00
 0.183839497595747D+04 0.000000000000000D+00 0.000000000000000D+00 0.183839497595747D+04
 0.246797687270523D+04 0.000000000000000D+00 0.000000000000000D+00 -.246797687270523D+04
 0.907826701312787D+03 -.504472423382544D+03 -.744206677190043D+03 0.137228017822490D+02
 0.128385780015684D+04 -.811811079325942D+02 0.801988619503514D+03 0.999257090505368D+03
 0.106124649708608D+04 -.247349585527637D+03 -.197317125302774D+03 -.101297989228762D+04
 0.105344085010699D+04 0.833003116842776D+03 0.139535182989303D+03 -.629581896747755D+03
0.448213826401D-02 0.000000000000D+00 0.000000000000D+00 0.300225167357D-06 0.000000000000D+00  6 2 2 25 2 2 21 0 0.95211246D-01 0.61328565D+00 0.83263479D+06 0.83263479D+06 0.83263479D+06 0.10532004D+01  1  2  2  2  6  2        2 0.112191483410D-02 0.100000000000D+01
0.108633614561D-02 0.000000000000D+00 -.172125911079D-04 0.300225167357D-06 0.000000000000D+00  6 2 2 25 2 2 21 2 0.95211246D-01 0.61328565D+00 0.83263479D+06 0.83263479D+06 0.83263479D+06 0.10532004D+01  1  2  3  2  6  2        2 0.301620550413D-03 0.100000000000D+01
-.334584821131D-02 0.000000000000D+00 0.000000000000D+00 0.300225167357D-06 0.000000000000D+00  6 2 2 25 2 2 21 2 0.95211246D-01 0.61328565D+00 0.83263479D+06 0.83263479D+06 0.83263479D+06 0.10532004D+01  1  2 15  2  6  2        2 -.928972660233D-03 0.100000000000D+01
-.749631471075D-04 0.000000000000D+00 0.000000000000D+00 0.300225167357D-06 0.000000000000D+00  6 2 2 25 2 2 21 2 0.95211246D-01 0.61328565D+00 0.83263479D+06 0.83263479D+06 0.83263479D+06 0.10532004D+01  1  2  4  2  6  2        2 -.208134708420D-04 0.100000000000D+01
-.232333359624D-02 0.000000000000D+00 -.139544401449D-02 0.300225167357D-06 0.000000000000D+00  6 2 2 25 2 2 21 2 0.95211246D-01 0.96605505D+00 0.83263479D+06 0.83263479D+06 0.83263479D+06 0.10532004D+01  1  2  5  2  6  2        2 -.194640987110D-07 0.100000000000D+01
0.336091650995D-02 0.000000000000D+00 0.156918421449D-02 0.300225167357D-06 0.000000000000D+00  6 2 2 25 2 2 21 2 0.95211246D-01 0.61328565D+00 0.83263479D+06 0.83263479D+06 0.83263479D+06 0.10532004D+01  1  2  6  2  6  2        2 0.933156363911D-03 0.100000000000D+01
-.654223439745D-04 0.000000000000D+00 -.730512086062D-04 0.300225167357D-06 0.000000000000D+00  6 2 21 25 2 2 -2 2 0.95211246D-01 0.96605505D+00 0.83263479D+06 0.83263479D+06 0.83263479D+06 0.10532004D+01  1  2  5  5  6  2        2 -.236571285847D-11 0.100000000000D+01
  </mgrwgt>
  </event>
  <event>
  5     66 0.18204334E-05 0.14906301E+03 0.75467711E-02 0.87682025E-01
        2 -1    0    0  501    0 0.00000000E+00 0.00000000E+00 0.69490351E+03 0.69490358E+03 0.32000000E+00 0.0000E+00 0.9000E+01
        2 -1    0    0  502    0 -.00000000E+00 -.00000000E+00 -.29545860E+04 0.29545860E+04 0.32000000E+00 0.0000E+00 0.9000E+01
       25  1    1    2    0    0 -.51248719E+03 0.50770354E+03 -.50719571E+03 0.89066183E+03 0.12500000E+03 0.0000E+00 0.9000E+01
        2  1    1    2  501    0 0.59069901E+03 -.38082341E+03 0.25363014E+03 0.74718146E+03 0.32000000E+00 0.0000E+00 0.9000E+01
        2  1    1    2  502    0 -.78211818E+02 -.12688013E+03 -.20061169E+04 0.20116463E+04 0.32000000E+00 0.0000E+00 0.9000E+01
#aMCatNLO 1  0  0  5  1 0.11995266D+03 0.00000000D+00  -5  6  0 0.00000000D+00 0.00000000D+00 0.00000000D+00 0.00000000D+00 0.00000000D+00
  <mgrwgt>
 0.5873728944D-03    6    2    0
 0.143288252891578D+04 0.000000000000000D+00 0.000000000000000D+00 0.143288252891578D+04
 0.143288252891578D+04 -.000000000000000D+00 -.000000000000000D+00 -.143288252891578D+04
 0.734292673794358D+03 -.512454917200335D+03 0.507699158188242D+03 0.565000300903979D+02
 0.115145798654798D+04 0.590672808940300D+03 -.380806518942506D+03 0.912111573599737D+03
 0.980014397489225D+03 -.782178917399650D+02 -.126892639245736D+03 -.968611603690135D+03
 0.000000000000000D+00 0.000000000000000D+00 0.000000000000000D+00 -.000000000000000D+00
 0.143288252891578D+04 0.000000000000000D+00 0.000000000000000D+00 0.143288252891578D+04
 0.143288252891578D+04 -.000000000000000D+00 -.000000000000000D+00 -.143288252891578D+04
 0.731172539990518D+03 -.515381775770586D+03 0.502950924754480D+03 0.202552642134360D+02
 0.110786324812978D+04 0.586160444090924D+03 -.388126914215758D+03 0.856232683796376D+03
 0.474020165931897D+03 -.373805055343514D+02 -.306911910654073D+03 -.359308912517857D+03
 0.552709103779369D+03 -.333981627859874D+02 0.192087900115351D+03 -.517179035491955D+03
0.573434281866D-03 0.000000000000D+00 0.000000000000D+00 0.594772147890D-06 0.000000000000D+00  6 2 2 25 2 2 21 0 0.10690824D+00 0.45455170D+00 0.62723599D+06 0.62723599D+06 0.62723599D+06 0.10616205D+01  1  2  2  3  6  5        2 0.704712441016D-03 0.100000000000D+01
0.130652743901D-03 0.000000000000D+00 -.220213863108D-05 0.594772147890D-06 0.000000000000D+00  6 2 2 25 2 2 21 2 0.10690824D+00 0.45455170D+00 0.62723599D+06 0.62723599D+06 0.62723599D+06 0.10616205D+01  1  2  3  3  6  5        2 0.180961180113D-03 0.100000000000D+01
-.420559910440D-03 0.000000000000D+00 0.000000000000D+00 0.594772147890D-06 0.000000000000D+00  6 2 2 25 2 2 21 2 0.10690824D+00 0.45455170D+00 0.62723599D+06 0.62723599D+06 0.62723599D+06 0.10616205D+01  1  2 15  3  6  5        2 -.582498426202D-03 0.100000000000D+01
-.181163367569D-04 0.000000000000D+00 0.000000000000D+00 0.594772147890D-06 0.000000000000D+00  6 2 2 25 2 2 21 2 0.10690824D+00 0.45455170D+00 0.62723599D+06 0.62723599D+06 0.62723599D+06 0.10616205D+01  1  2  4  3  6  5        2 -.250921150292D-04 0.100000000000D+01
-.328142462748D-03 0.000000000000D+00 0.000000000000D+00 0.594772147890D-06 0.000000000000D+00  6 2 2 25 2 2 21 2 0.10690824D+00 0.45455170D+00 0.62723599D+06 0.62723599D+06 0.62723599D+06 0.10616205D+01  1  2  5  3  6  5        2 -.454495217865D-03 0.100000000000D+01
0.551447609718D-03 0.000000000000D+00 -.000000000000D+00 0.594772147890D-06 0.000000000000D+00  6 2 2 25 2 2 21 2 0.10690824D+00 0.45455170D+00 0.62723599D+06 0.62723599D+06 0.62723599D+06 0.10616205D+01  1  2  6  3  6  5        2 0.763785032333D-03 0.100000000000D+01
  </mgrwgt>
  </event>
  <event>
  5     66 0.18204334E-05 0.17572759E+03 0.75467711E-02 0.89430338E-01
        2 -1    0    0  501    0 0.00000000E+00 0.00000000E+00 0.16698983E+04 0.16698984E+04 0.32000000E+00 0.0000E+00 0.9000E+01
        2 -1    0    0  502    0 0.00000000E+00 0.00000000E+00 -.12176732E+04 0.12176733E+04 0.32000000E+00 0.0000E+00 0.9000E+01
       25  1    1    2    0    0 0.29257771E+03 0.52205444E+03 0.43167009E+03 0.74840271E+03 0.12500000E+03 0.0000E+00 0.9000E+01
        2  1    1    2  501    0 -.13302307E+03 -.59565057E+03 0.98504938E+03 0.11587999E+04 0.32000000E+00 0.0000E+00 0.9000E+01
        2  1    1    2  502    0 -.15955463E+03 0.73596128E+02 -.96449437E+03 0.98036909E+03 0.32000000E+00 0.0000E+00 0.9000E+01
#aMCatNLO 1  0  0  2  2 0.14949872D+01 0.00000000D+00  -5  6  0 0.00000000D+00 0.00000000D+00 0.00000000D+00 0.00000000D+00 0.00000000D+00
  <mgrwgt>
 0.1109965643D-02    7    2    0
 0.142597007125210D+04 0.000000000000000D+00 0.000000000000000D+00 0.142597007125210D+04
 0.142597007125210D+04 0.000000000000000D+00 0.000000000000000D+00 -.142597007125210D+04
 0.689323791809909D+03 0.292583481347643D+03 0.522000872217083D+03 0.318515754402022D+03
 0.101699949707339D+04 -.133012444217988D+03 -.595602974305096D+03 0.813543338568765D+03
 0.114561685362090D+04 -.159571037129655D+03 0.736021020880131D+02 -.113205909297079D+04
 0.000000000000000D+00 0.000000000000000D+00 0.000000000000000D+00 -.000000000000000D+00
 0.145726541104420D+04 0.000000000000000D+00 0.000000000000000D+00 0.145726541104420D+04
 0.173224403822568D+04 0.000000000000000D+00 0.000000000000000D+00 -.173224403822568D+04
 0.651909857230070D+03 0.271827561027925D+03 0.483755054978291D+03 0.318515754402022D+03
 0.105726741159026D+04 -.165112234369290D+03 -.654751529927755D+03 0.813543338568765D+03
 0.114877316963588D+04 -.195077286573335D+03 0.817664727125144D+01 -.113205909297079D+04
 0.331559010813679D+03 0.883619599147001D+02 0.162819827678212D+03 -.274978627181487D+03
0.121531074119D-03 0.000000000000D+00 0.000000000000D+00 0.652655823772D-06 0.000000000000D+00  6 2 2 25 2 2 21 0 0.25690744D+00 0.18733435D+00 0.48812903D+06 0.48812903D+06 0.48812903D+06 0.10692487D+01  1  2  2  2  6  2        2 0.382192644475D-03 0.100000000000D+01
0.221351124737D-04 0.000000000000D+00 -.466711324485D-06 0.652655823772D-06 0.000000000000D+00  6 2 2 25 2 2 21 2 0.25690744D+00 0.18733435D+00 0.48812903D+06 0.48812903D+06 0.48812903D+06 0.10692487D+01  1  2  3  2  6  2        2 0.795855419013D-04 0.100000000000D+01
-.733577159919D-04 0.000000000000D+00 0.000000000000D+00 0.652655823772D-06 0.000000000000D+00  6 2 2 25 2 2 21 2 0.25690744D+00 0.18733435D+00 0.48812903D+06 0.48812903D+06 0.48812903D+06 0.10692487D+01  1  2 15  2  6  2        2 -.263753508675D-03 0.100000000000D+01
-.202964759634D-04 0.000000000000D+00 0.000000000000D+00 0.652655823772D-06 0.000000000000D+00  6 2 2 25 2 2 21 2 0.25690744D+00 0.18733435D+00 0.48812903D+06 0.48812903D+06 0.48812903D+06 0.10692487D+01  1  2  4  2  6  2        2 -.729748285737D-04 0.100000000000D+01
-.881616890678D-03 0.000000000000D+00 -.145715572318D-03 0.652655823772D-06 0.000000000000D+00  6 2 2 25 2 2 21 2 0.25690744D+00 0.22959478D+00 0.48812903D+06 0.48812903D+06 0.48812903D+06 0.10692487D+01  1  2  5  2  6  2        2 -.221459872480D-02 0.100000000000D+01
0.895627669678D-03 0.000000000000D+00 0.142751832711D-03 0.652655823772D-06 0.000000000000D+00  6 2 2 25 2 2 21 2 0.25690744D+00 0.18733435D+00 0.48812903D+06 0.48812903D+06 0.48812903D+06 0.10692487D+01  1  2  6  2  6  2        2 0.322017850678D-02 0.100000000000D+01
-.238311177471D-04 0.000000000000D+00 -.422442438034D-05 0.652655823772D-06 0.000000000000D+00  6 2 21 25 2 2 -2 2 0.25690744D+00 0.22959478D+00 0.48812903D+06 0.48812903D+06 0.48812903D+06 0.10692487D+01  1  2  5  5  6  2        2 -.206639878260D-04 0.100000000000D+01
  </mgrwgt>
  </event>
  <event>
  5     66 -.18204334E-05 0.16369056E+03 0.75467711E-02 0.94984641E-01
        2 -1    0    0  501    0 0.00000000E+00 0.00000000E+00 0.19739086E+04 0.19739087E+04 0.32000000E+00 0.0000E+00 0.9000E+01
        2 -1    0    0  502    0 -.00000000E+00 -.00000000E+00 -.23595382E+04 0.23595382E+04 0.32000000E+00 0.0000E+00 0.9000E+01
       25  1    1    2    0    0 0.47192691E+03 0.27993490E+02 -.37506652E+03 0.61627797E+03 0.12500000E+03 0.0000E+00 0.9000E+01
        2  1    1    2  501    0 -.15995650E+03 -.34768423E+02 0.18365768E+04 0.18438572E+04 0.32000000E+00 0.0000E+00 0.9000E+01
        2  1    1    2  502    0 -.31197041E+03 0.67749336E+01 -.18471398E+04 0.18733117E+04 0.32000000E+00 0.0000E+00 0.9000E+01
#aMCatNLO 1  0  0  5  2 0.30651516D+02 0.00000000D+00  -5  6  0 0.00000000D+00 0.00000000D+00 0.00000000D+00 0.00000000D+00 0.00000000D+00
  <mgrwgt>
 -.7218362619D-01    8    2    0
 0.215812717082783D+04 0.000000000000000D+00 0.000000000000000D+00 0.215812717082783D+04
 0.215812717082783D+04 -.000000000000000D+00 -.000000000000000D+00 -.215812717082783D+04
 0.585220292491013D+03 0.471940475993737D+03 0.279931494284593D+02 -.321475289014798D+03
 0.201527564759445D+04 -.159955527881223D+03 -.347682121034822D+02 0.200861677188921D+04
 0.171575840157018D+04 -.311984948112513D+03 0.677506267502302D+01 -.168714148287441D+04
 0.000000000000000D+00 0.000000000000000D+00 0.000000000000000D+00 -.000000000000000D+00
 0.215812717082783D+04 0.000000000000000D+00 0.000000000000000D+00 0.215812717082783D+04
 0.215812717082783D+04 -.000000000000000D+00 -.000000000000000D+00 -.215812717082783D+04
 0.585294783933183D+03 0.471906084276743D+03 0.279938962787145D+02 -.321661271360292D+03
 0.201464681246560D+04 -.160073933833909D+03 -.347656408007467D+02 0.200797646024660D+04
 0.125544588757704D+04 -.249949303513303D+03 0.261770042861031D+02 -.123003434372944D+04
 0.460866857679831D+03 -.618828469295310D+02 -.194052597640709D+02 -.456280845156869D+03
0.724674229522D-03 0.000000000000D+00 0.000000000000D+00 0.155045899772D-03 0.000000000000D+00  6 2 2 25 2 2 21 0 0.30367826D+00 0.36300588D+00 0.23269280D+06 0.23269280D+06 0.23269280D+06 0.10928108D+01  1  2  2  3  6  5        2 0.384626491421D-03 0.100000000000D+01
0.129667731840D-03 0.000000000000D+00 -.278293985247D-05 0.155045899772D-03 0.000000000000D+00  6 2 2 25 2 2 21 2 0.30367826D+00 0.36300588D+00 0.23269280D+06 0.23269280D+06 0.23269280D+06 0.10928108D+01  1  2  3  3  6  5        2 0.821898629186D-04 0.100000000000D+01
-.497988295858D-03 0.000000000000D+00 0.000000000000D+00 0.155045899772D-03 0.000000000000D+00  6 2 2 25 2 2 21 2 0.30367826D+00 0.36300588D+00 0.23269280D+06 0.23269280D+06 0.23269280D+06 0.10928108D+01  1  2 15  3  6  5        2 -.315649770307D-03 0.100000000000D+01
0.128042097213D+00 0.000000000000D+00 0.000000000000D+00 0.155045899772D-03 0.000000000000D+00  6 2 2 25 2 2 21 2 0.30367826D+00 0.36300588D+00 0.23472026D+06 0.23472026D+06 0.23472026D+06 0.10925256D+01  1  2 12  3  6  5        2 0.810472584381D-01 0.100000000000D+01
0.377775860149D-10 0.000000000000D+00 0.000000000000D+00 0.155045899772D-03 0.000000000000D+00  6 2 2 25 2 2 21 2 0.30367826D+00 0.36300588D+00 0.23472026D+06 0.23472026D+06 0.23472026D+06 0.10925256D+01  1  2 12  3  6  5        2 0.239122120269D-10 0.100000000000D+01
-.284026787174D+00 0.000000000000D+00 0.000000000000D+00 0.155045899772D-03 0.000000000000D+00  6 2 2 25 2 2 21 2 0.30367826D+00 0.36300588D+00 0.23269280D+06 0.23269280D+06 0.23269280D+06 0.10928108D+01  1  2  4  3  6  5        2 -.180030315729D+00 0.100000000000D+01
-.138757854750D+00 0.000000000000D+00 0.000000000000D+00 0.155045899772D-03 0.000000000000D+00  6 2 2 25 2 2 21 2 0.30367826D+00 0.36300588D+00 0.23269280D+06 0.23269280D+06 0.23269280D+06 0.10928108D+01  1  2  5  3  6  5        2 -.879516352987D-01 0.100000000000D+01
0.180799779286D+00 0.000000000000D+00 -.000000000000D+00 0.155045899772D-03 0.000000000000D+00  6 2 2 25 2 2 21 2 0.30367826D+00 0.36300588D+00 0.23269280D+06 0.23269280D+06 0.23269280D+06 0.10928108D+01  1  2  6  3  6  5        2 0.114599899792D+00 0.100000000000D+01
  </mgrwgt>
  </event>
  <event>
  6     66 -.18204334E-05 0.46229526E+02 0.75467711E-02 0.92334374E-01
        2 -1    0    0  501    0 0.00000000E+00 0.00000000E+00 0.17119869E+04 0.17119870E+04 0.32000000E+00 0.0000E+00 0.9000E+01
        2 -1    0    0  502    0 0.00000000E+00 0.00000000E+00 -.16870767E+04 0.16870767E+04 0.32000000E+00 0.0000E+00 0.9000E+01
       25  1    1    2    0    0 0.28876593E+03 -.43284157E+03 -.60425712E+03 0.80714885E+03 0.12500000E+03 0.0000E+00 0.9000E+01
        2  1    1    2  501    0 -.27219455E+03 0.45079866E+03 0.15245434E+04 0.16129296E+04 0.32000000E+00 0.0000E+00 0.9000E+01
        2  1    1    2  503    0 0.38477788E+02 -.77934889E+02 -.89332666E+03 0.89754499E+03 0.32000000E+00 0.0000E+00 0.9000E+01
       21  1    1    2  502  503 -.55049174E+02 0.59977801E+02 -.20492771E+01 0.81440225E+02 0.75000000E+00 0.0000E+00 0.9000E+01
#aMCatNLO 2  0  0  5  1 0.32061502D+02 0.00000000D+00  -5  6  0 0.00000000D+00 0.00000000D+00 0.00000000D+00 0.00000000D+00 0.00000000D+00
  <mgrwgt>
 -.6811755921D-03    2    2    0
 0.169948618336549D+04 0.000000000000000D+00 0.000000000000000D+00 0.169948618336549D+04
 0.169948618336549D+04 -.000000000000000D+00 -.000000000000000D+00 -.169948618336549D+04
 0.796922964511449D+03 0.289130225276199D+03 -.432461123481209D+03 -.590628733533023D+03
 0.163964783604791D+04 -.271466717630041D+03 0.451599786510346D+03 0.155267784176228D+04
 0.962401566171633D+03 -.176635076461582D+02 -.191386630291373D+02 -.962049108229255D+03
 0.000000000000000D+00 0.000000000000000D+00 0.000000000000000D+00 0.000000000000000D+00
 0.169948618336549D+04 0.000000000000000D+00 0.000000000000000D+00 0.169948618336549D+04
 0.169948618336549D+04 -.000000000000000D+00 -.000000000000000D+00 -.169948618336549D+04
 0.811792535227648D+03 0.288766553581979D+03 -.432855166960474D+03 -.610436239274291D+03
 0.160180603726511D+04 -.272199491710998D+03 0.450805815318845D+03 0.151276704571654D+04
 0.903872249998562D+03 0.385113274097534D+02 -.779660079201901D+02 -.899679511597097D+03
 0.815015442396678D+02 -.550783892807350D+02 0.600153595618189D+02 -.265129484515131D+01
-.421325387730D-03 0.000000000000D+00 0.000000000000D+00 0.123876978651D-03 0.000000000000D+00  6 2 2 25 2 2 21 2 0.26338261D+00 0.25955026D+00 0.29592181D+06 0.29592181D+06 0.29592181D+06 0.10849919D+01  1  2  8  3  6  5        2 -.838962608576D-03 0.100000000000D+01
0.819577248459D-04 0.000000000000D+00 0.000000000000D+00 0.123876978651D-03 0.507634569804D-09  6 2 2 25 2 2 21 2 0.26338261D+00 0.25955026D+00 0.37832795D+06 0.37832795D+06 0.37832795D+06 0.10771759D+01  1  2  1  3  6  5        2 0.157787016463D-03 0.100000000000D+01
  </mgrwgt>
  </event>
  <event>
  5     66 0.18204334E-05 0.66015459E+02 0.75467711E-02 0.83325128E-01
        2 -1    0    0  501    0 0.00000000E+00 0.00000000E+00 0.13969102E+04 0.13969102E+04 0.32000000E+00 0.0000E+00 0.9000E+01
        2 -1    0    0  502    0 0.00000000E+00 0.00000000E+00 -.30354972E+04 0.30354972E+04 0.32000000E+00 0.0000E+00 0.9000E+01
       25  1    1    2    0    0 0.41619526E+03 0.36129613E+03 0.24955509E+03 0.61778324E+03 0.12500000E+03 0.0000E+00 0.9000E+01
        2  1    1    2  501    0 0.21423414E+02 -.62447546E+02 0.93744863E+03 0.93977056E+03 0.32000000E+00 0.0000E+00 0.9000E+01
        2  1    1    2  502    0 -.43761868E+03 -.29884858E+03 -.28255907E+04 0.28748536E+04 0.32000000E+00 0.0000E+00 0.9000E+01
#aMCatNLO 1  0  0  2  4 0.72554345D+02 0.00000000D+00  -5  6  0 0.00000000D+00 0.00000000D+00 0.00000000D+00 0.00000000D+00 0.00000000D+00
  <mgrwgt>
 0.1820664534D-01    7    2    0
 0.205920301831830D+04 0.000000000000000D+00 0.000000000000000D+00 0.205920301831830D+04
 0.205920301831830D+04 0.000000000000000D+00 0.000000000000000D+00 -.205920301831830D+04
 0.764266022311006D+03 0.416228621192538D+03 0.361314040046875D+03 0.514473956798836D+03
 0.138430568162022D+04 0.214218953264742D+02 -.624431200624683D+02 0.138273069660130D+04
 0.196983433270537D+04 -.437650516519012D+03 -.298870919984407D+03 -.189720465340013D+04
 0.000000000000000D+00 0.000000000000000D+00 -.000000000000000D+00 -.000000000000000D+00
 0.245770046617355D+04 0.000000000000000D+00 0.000000000000000D+00 0.245770046617355D+04
 0.336826375211801D+04 0.000000000000000D+00 0.000000000000000D+00 -.336826375211801D+04
 0.716311016311757D+03 0.212548664029328D+03 0.433146724892016D+03 0.514473956798836D+03
 0.143228641371187D+04 -.366050922607483D+03 0.742085819722383D+02 0.138273069660130D+04
 0.214888878697826D+04 -.100425483814528D+04 -.990441415711474D+02 -.189720465340013D+04
 0.152847800128967D+04 0.115775709672344D+04 -.408311165293107D+03 -.910563285944464D+03
0.486097347008D-01 0.000000000000D+00 0.000000000000D+00 0.127634214655D-03 0.000000000000D+00  6 2 2 25 2 2 21 0 0.21490927D+00 0.46699957D+00 0.33706801D+06 0.33706801D+06 0.33706801D+06 0.10808283D+01  1  2  2  2  6  2        2 0.202433087619D-01 0.100000000000D+01
0.183238912913D-01 0.000000000000D+00 -.186674180488D-03 0.127634214655D-03 0.000000000000D+00  6 2 2 25 2 2 21 2 0.21490927D+00 0.46699957D+00 0.33706801D+06 0.33706801D+06 0.33706801D+06 0.10808283D+01  1  2  3  2  6  2        2 0.891434300624D-02 0.100000000000D+01
-.311337035073D-01 0.000000000000D+00 0.000000000000D+00 0.127634214655D-03 0.000000000000D+00  6 2 2 25 2 2 21 2 0.21490927D+00 0.46699957D+00 0.33706801D+06 0.33706801D+06 0.33706801D+06 0.10808283D+01  1  2 15  2  6  2        2 -.151461557868D-01 0.100000000000D+01
-.799162310579D-03 0.000000000000D+00 0.000000000000D+00 0.127634214655D-03 0.000000000000D+00  6 2 2 25 2 2 21 2 0.21490927D+00 0.46699957D+00 0.33706801D+06 0.33706801D+06 0.33706801D+06 0.10808283D+01  1  2  4  2  6  2        2 -.388782428409D-03 0.100000000000D+01
0.163051111961D-02 0.000000000000D+00 -.195188463655D-01 0.127634214655D-03 0.000000000000D+00  6 2 2 25 2 2 21 2 0.21490927D+00 0.77876619D+00 0.33706801D+06 0.33706801D+06 0.33706801D+06 0.10808283D+01  1  2  5  2  6  2        2 0.127002046519D-04 0.100000000000D+01
0.939630299647D-02 0.000000000000D+00 0.172179964223D-01 0.127634214655D-03 0.000000000000D+00  6 2 2 25 2 2 21 2 0.21490927D+00 0.46699957D+00 0.33706801D+06 0.33706801D+06 0.33706801D+06 0.10808283D+01  1  2  6  2  6  2        2 0.457118341128D-02 0.100000000000D+01
0.996326542433D-03 0.000000000000D+00 -.112044088642D-02 0.127634214655D-03 0.000000000000D+00  6 2 21 25 2 2 -2 2 0.21490927D+00 0.77876619D+00 0.33706801D+06 0.33706801D+06 0.33706801D+06 0.10808283D+01  1  2  5  5  6  2        2 0.481680102118D-07 0.100000000000D+01
  </mgrwgt>
  </event>
  <event>
  5     66 -.18204334E-05 0.15133332E+03 0.75467711E-02 0.89306034E-01
        2 -1    0    0  501    0 0.00000000E+00 0.00000000E+00 0.13811810E+04 0.13811810E+04 0.32000000E+00 0.0000E+00 0.9000E+01
        2 -1    0    0  502    0 -.00000000E+00 -.00000000E+00 -.18908656E+04 0.18908656E+04 0.32000000E+00 0.0000E+00 0.9000E+01
       25  1    1    2    0    0 0.66245409E+03 -.46430449E+03 0.24595145E+03 0.85471703E+03 0.12500000E+03 0.0000E+00 0.9000E+01
        2  1    1    2  501    0 -.51351718E+03 0.43756244E+03 0.68928458E+03 0.96450719E+03 0.32000000E+00 0.0000E+00 0.9000E+01
        2  1    1    2  502    0 -.14893691E+03 0.26742046E+02 -.14449206E+04 0.14528224E+04 0.32000000E+00 0.0000E+00 0.9000E+01
#aMCatNLO 1  0  0  5  2 0.10583868D+02 0.00000000D+00  -5  6  0 0.00000000D+00 0.00000000D+00 0.00000000D+00 0.00000000D+00 0.00000000D+00
  <mgrwgt>
 -.3201102633D-02    8    2    0
 0.161605312712847D+04 0.000000000000000D+00 0.000000000000000D+00 0.161605312712847D+04
 0.161605312712847D+04 -.000000000000000D+00 -.000000000000000D+00 -.161605312712847D+04
 0.904086110121207D+03 0.662422779238977D+03 -.464268617061802D+03 0.383923699803653D+03
 0.108502568688870D+04 -.513471534143413D+03 0.437523543838185D+03 0.849824024972212D+03
 0.124299445724705D+04 -.148951245095565D+03 0.267450732236168D+02 -.123374772477586D+04
 0.000000000000000D+00 0.000000000000000D+00 0.000000000000000D+00 -.000000000000000D+00
 0.161605312712847D+04 0.000000000000000D+00 0.000000000000000D+00 0.161605312712847D+04
 0.161605312712847D+04 -.000000000000000D+00 -.000000000000000D+00 -.161605312712847D+04
 0.904059113624109D+03 0.662416561848406D+03 -.464267500692711D+03 0.383872201801966D+03
 0.108498135224968D+04 -.513478995812491D+03 0.437524883624810D+03 0.849762220740619D+03
 0.517080843040180D+03 -.706524702020988D+02 0.170310227809547D+02 -.511948015873213D+03
 0.725984945342983D+03 -.782850958338173D+02 0.971159428694672D+01 -.721686406669372D+03
0.268694789367D-05 0.000000000000D+00 0.000000000000D+00 0.824377014696D-06 0.000000000000D+00  6 2 2 25 2 2 21 0 0.21248939D+00 0.29090240D+00 0.67605310D+06 0.67605310D+06 0.67605310D+06 0.10593726D+01  1  2  2  3  6  5        2 0.502874080015D-05 0.100000000000D+01
0.688128730065D-06 0.000000000000D+00 -.103185874013D-07 0.824377014696D-06 0.000000000000D+00  6 2 2 25 2 2 21 2 0.21248939D+00 0.29090240D+00 0.67605310D+06 0.67605310D+06 0.67605310D+06 0.10593726D+01  1  2  3  3  6  5        2 0.144533056720D-05 0.100000000000D+01
-.146518319465D-05 0.000000000000D+00 0.000000000000D+00 0.824377014696D-06 0.000000000000D+00  6 2 2 25 2 2 21 2 0.21248939D+00 0.29090240D+00 0.67605310D+06 0.67605310D+06 0.67605310D+06 0.10593726D+01  1  2 15  3  6  5        2 -.307743880650D-05 0.100000000000D+01
0.120273661936D-02 0.000000000000D+00 0.000000000000D+00 0.824377014696D-06 0.000000000000D+00  6 2 2 25 2 2 21 2 0.21248939D+00 0.29090240D+00 0.67624134D+06 0.67624134D+06 0.67624134D+06 0.10593643D+01  1  2 12  3  6  5        2 0.252611075312D-02 0.100000000000D+01
0.307290983609D-09 0.000000000000D+00 0.000000000000D+00 0.824377014696D-06 0.000000000000D+00  6 2 2 25 2 2 21 2 0.21248939D+00 0.29090240D+00 0.67624134D+06 0.67624134D+06 0.67624134D+06 0.10593643D+01  1  2 12  3  6  5        2 0.645404027399D-09 0.100000000000D+01
-.358675579853D-02 0.000000000000D+00 0.000000000000D+00 0.824377014696D-06 0.000000000000D+00  6 2 2 25 2 2 21 2 0.21248939D+00 0.29090240D+00 0.67605310D+06 0.67605310D+06 0.67605310D+06 0.10593726D+01  1  2  4  3  6  5        2 -.753354360338D-02 0.100000000000D+01
-.121752830254D-02 0.000000000000D+00 0.000000000000D+00 0.824377014696D-06 0.000000000000D+00  6 2 2 25 2 2 21 2 0.21248939D+00 0.29090240D+00 0.67605310D+06 0.67605310D+06 0.67605310D+06 0.10593726D+01  1  2  5  3  6  5        2 -.255726987583D-02 0.100000000000D+01
0.207591321622D-02 0.000000000000D+00 -.000000000000D+00 0.824377014696D-06 0.000000000000D+00  6 2 2 25 2 2 21 2 0.21248939D+00 0.29090240D+00 0.67605310D+06 0.67605310D+06 0.67605310D+06 0.10593726D+01  1  2  6  3  6  5        2 0.436020281549D-02 0.100000000000D+01
  </mgrwgt>
  </event>
  <event>
  5     66 0.18204334E-05 0.90457454E+02 0.75467711E-02 0.92942257E-01
        2 -1    0    0  501    0 0.00000000E+00 0.00000000E+00 0.36832883E+04 0.36832883E+04 0.32000000E+00 0.0000E+00 0.9000E+01
        2 -1    0    0  502    0 0.00000000E+00 0.00000000E+00 -.13313146E+04 0.13313146E+04 0.32000000E+00 0.0000E+00 0.9000E+01
       25  1    1    2    0    0 -.55328029E+03 0.13106246E+03 -.29975028E+03 0.65480659E+03 0.12500000E+03 0.0000E+00 0.9000E+01
        2  1    1    2  501    0 0.47523849E+03 -.85327236E+02 0.34866808E+04 0.35199539E+04 0.32000000E+00 0.0000E+00 0.9000E+01
        2  1    1    2  502    0 0.78041799E+02 -.45735225E+02 -.83495687E+03 0.83984243E+03 0.32000000E+00 0.0000E+00 0.9000E+01
#aMCatNLO 1  0  0  1  4 0.67516206D+01 0.00000000D+00  -5  6  0 0.00000000D+00 0.00000000D+00 0.00000000D+00 0.00000000D+00 0.00000000D+00
  <mgrwgt>
 0.2749890117D-01   10    2    0
 0.221441090180638D+04 0.000000000000000D+00 0.000000000000000D+00 0.221441090180638D+04
 0.221441090180638D+04 0.000000000000000D+00 0.000000000000000D+00 -.221441090180638D+04
 0.900586758006403D+03 -.553281244797877D+03 0.131063186570198D+03 -.687119941478531D+03
 0.213388082872489D+04 0.475237897510376D+03 -.853271298091789D+02 0.207853689235675D+04
 0.139435421688147D+04 0.780433472875010D+02 -.457360567610194D+02 -.139141695087822D+04
 0.000000000000000D+00 0.000000000000000D+00 0.000000000000000D+00 0.000000000000000D+00
 0.222663926644634D+04 0.000000000000000D+00 0.000000000000000D+00 0.222663926644634D+04
 0.221534561054418D+04 0.000000000000000D+00 0.000000000000000D+00 -.221534561054418D+04
 0.900474558984914D+03 -.553420450001642D+03 0.129697428353827D+03 -.687119941478531D+03
 0.213393925384814D+04 0.474908034912907D+03 -.885634495772962D+02 0.207853689235675D+04
 0.139441313710938D+04 0.778278016399978D+02 -.478507998246397D+02 -.139141695087822D+04
 0.131579270480926D+02 0.684613448737173D+00 0.671682104810928D+01 0.112936559021607D+02
0.137581698901D-01 0.000000000000D+00 0.000000000000D+00 0.114344715881D-03 0.000000000000D+00  6 2 2 25 2 2 21 0 0.56665974D+00 0.20481764D+00 0.33377504D+06 0.33377504D+06 0.33377504D+06 0.10811405D+01  1  2  2  1  6  1        2 0.223479795117D-02 0.100000000000D+01
0.364109207318D-02 0.000000000000D+00 -.528349949874D-04 0.114344715881D-03 0.000000000000D+00  6 2 2 25 2 2 21 2 0.56665974D+00 0.20481764D+00 0.33377504D+06 0.33377504D+06 0.33377504D+06 0.10811405D+01  1  2  3  1  6  1        2 0.691311141773D-03 0.100000000000D+01
-.108579070924D-01 0.000000000000D+00 0.000000000000D+00 0.114344715881D-03 0.000000000000D+00  6 2 2 25 2 2 21 2 0.56665974D+00 0.20481764D+00 0.33377504D+06 0.33377504D+06 0.33377504D+06 0.10811405D+01  1  2 15  1  6  1        2 -.206152220226D-02 0.100000000000D+01
-.109435831351D-01 0.000000000000D+00 0.000000000000D+00 0.114344715881D-03 0.000000000000D+00  6 2 2 25 2 2 21 2 0.56665974D+00 0.20481764D+00 0.33377504D+06 0.33377504D+06 0.33377504D+06 0.10811405D+01  1  2  4  1  6  1        2 -.207778897104D-02 0.100000000000D+01
-.390803616112D+01 0.000000000000D+00 -.278859033776D+00 0.114344715881D-03 0.000000000000D+00  6 2 2 25 2 2 21 2 0.56984171D+00 0.20481764D+00 0.33377504D+06 0.33377504D+06 0.33377504D+06 0.10811405D+01  1  2  5  1  6  1        2 -.715967571825D+00 0.100000000000D+01
0.391220073904D+01 0.000000000000D+00 0.279368805197D+00 0.114344715881D-03 0.000000000000D+00  6 2 2 25 2 2 21 2 0.56665974D+00 0.20481764D+00 0.33377504D+06 0.33377504D+06 0.33377504D+06 0.10811405D+01  1  2  6  1  6  1        2 0.742784830869D+00 0.100000000000D+01
0.104726997662D-01 0.000000000000D+00 0.000000000000D+00 0.114344715881D-03 0.211193404773D-05  6 2 2 25 2 2 21 2 0.56978894D+00 0.20490409D+00 0.33826162D+06 0.33826162D+06 0.33826162D+06 0.10807159D+01  1  2 11  1  6  1        2 0.191403061583D-02 0.100000000000D+01
0.821473405896D-12 0.000000000000D+00 0.000000000000D+00 0.114344715881D-03 0.000000000000D+00  6 21 2 25 2 2 -2 2 0.56997886D+00 0.20481764D+00 0.33826162D+06 0.33826162D+06 0.33826162D+06 0.10807159D+01  1  2 12  4  6  1        2 0.399460508788D-14 0.100000000000D+01
-.406563848891D-02 0.000000000000D+00 -.290337126243D-03 0.114344715881D-03 0.000000000000D+00  6 21 2 25 2 2 -2 2 0.56984171D+00 0.20481764D+00 0.33377504D+06 0.33377504D+06 0.33377504D+06 0.10811405D+01  1  2  5  4  6  1        2 -.198780045633D-04 0.100000000000D+01
0.141803804459D-03 0.000000000000D+00 0.000000000000D+00 0.114344715881D-03 0.155588770522D-07  6 21 2 25 2 2 -2 2 0.56978894D+00 0.20490409D+00 0.33826162D+06 0.33826162D+06 0.33826162D+06 0.10807159D+01  1  2 11  4  6  1        2 0.691593908451D-06 0.100000000000D+01
  </mgrwgt>
  </event>
  <event>
  5     66 0.18204334E-05 0.21634956E+02 0.75467711E-02 0.94150103E-01
        2 -1    0    0  501    0 0.00000000E+00 0.00000000E+00 0.97120131E+03 0.97120136E+03 0.32000000E+00 0.0000E+00 0.9000E+01
        2 -1    0    0  502    0 0.00000000E+00 0.00000000E+00 -.37024672E+03 0.37024686E+03 0.32000000E+00 0.0000E+00 0.9000E+01
       25  1    1    2    0    0 0.25375563E+03 0.39974505E+03 0.21139043E+03 0.53338442E+03 0.12500000E+03 0.0000E+00 0.9000E+01
        2  1    1    2  501    0 -.24879324E+03 -.37868968E+03 0.51201701E+03 0.68371447E+03 0.32000000E+00 0.0000E+00 0.9000E+01
        2  1    1    2  502    0 -.49623887E+01 -.21055369E+02 -.12245285E+03 0.12434933E+03 0.32000000E+00 0.0000E+00 0.9000E+01
#aMCatNLO 1  0  0  5  1 0.90936359D+02 0.00000000D+00  -5  6  0 0.00000000D+00 0.00000000D+00 0.00000000D+00 0.00000000D+00 0.00000000D+00
  <mgrwgt>
 0.7208119192D-02    6    2    0
 0.599653423235374D+03 0.000000000000000D+00 0.000000000000000D+00 0.599653423235374D+03
 0.599653423235374D+03 -.000000000000000D+00 -.000000000000000D+00 -.599653423235374D+03
 0.490661608970257D+03 0.253747973416422D+03 0.399734868992247D+03 -.307866044910913D+02
 0.508166760686021D+03 -.248784837059705D+03 -.378676887545530D+03 0.230094277099910D+03
 0.200478476814469D+03 -.496313635671713D+01 -.210579814467173D+02 -.199307672608819D+03
 0.000000000000000D+00 0.000000000000000D+00 0.000000000000000D+00 -.000000000000000D+00
 0.599653423235374D+03 0.000000000000000D+00 0.000000000000000D+00 0.599653423235374D+03
 0.599653423235374D+03 -.000000000000000D+00 -.000000000000000D+00 -.599653423235374D+03
 0.490383547647072D+03 0.253465667920813D+03 0.398537081250470D+03 -.421233172570837D+02
 0.504053553399386D+03 -.249076113516763D+03 -.379912737981171D+03 0.218397312001733D+03
 0.957862595509880D+02 -.224574885667037D+02 -.550950059393939D+02 -.750680294571781D+02
 0.109083485873301D+03 0.180679341626540D+02 0.364706626700956D+02 -.101205965287471D+03
0.131927386296D-03 0.000000000000D+00 0.000000000000D+00 0.537116465183D-06 0.000000000000D+00  6 2 2 25 2 2 21 0 0.14941560D+00 0.56961049D-01 0.23252612D+06 0.23252612D+06 0.23252612D+06 0.10928344D+01  1  2  2  3  6  5        2 0.484881819183D-02 0.100000000000D+01
0.657099945715D-04 0.000000000000D+00 -.506635900655D-06 0.537116465183D-06 0.000000000000D+00  6 2 2 25 2 2 21 2 0.14941560D+00 0.56961049D-01 0.23252612D+06 0.23252612D+06 0.23252612D+06 0.10928344D+01  1  2  3  3  6  5        2 0.288430425992D-02 0.100000000000D+01
-.814773645266D-04 0.000000000000D+00 0.000000000000D+00 0.537116465183D-06 0.000000000000D+00  6 2 2 25 2 2 21 2 0.14941560D+00 0.56961049D-01 0.23252612D+06 0.23252612D+06 0.23252612D+06 0.10928344D+01  1  2 15  3  6  5        2 -.357640433732D-02 0.100000000000D+01
-.124827627296D-04 0.000000000000D+00 0.000000000000D+00 0.537116465183D-06 0.000000000000D+00  6 2 2 25 2 2 21 2 0.14941560D+00 0.56961049D-01 0.23252612D+06 0.23252612D+06 0.23252612D+06 0.10928344D+01  1  2  4  3  6  5        2 -.547924040343D-03 0.100000000000D+01
-.805097886632D-04 0.000000000000D+00 0.000000000000D+00 0.537116465183D-06 0.000000000000D+00  6 2 2 25 2 2 21 2 0.14941560D+00 0.56961049D-01 0.23252612D+06 0.23252612D+06 0.23252612D+06 0.10928344D+01  1  2  5  3  6  5        2 -.353393312418D-02 0.100000000000D+01
0.162509332629D-03 0.000000000000D+00 -.000000000000D+00 0.537116465183D-06 0.000000000000D+00  6 2 2 25 2 2 21 2 0.14941560D+00 0.56961049D-01 0.23252612D+06 0.23252612D+06 0.23252612D+06 0.10928344D+01  1  2  6  3  6  5        2 0.713325824231D-02 0.100000000000D+01
  </mgrwgt>
  </event>
  <event>
  5     66 0.18204334E-05 0.17590641E+03 0.75467711E-02 0.87224980E-01
        2 -1    0    0  501    0 0.00000000E+00 0.00000000E+00 0.28496570E+04 0.28496570E+04 0.32000000E+00 0.0000E+00 0.9000E+01
        2 -1    0    0  502    0 0.00000000E+00 0.00000000E+00 -.34993214E+03 0.34993229E+03 0.32000000E+00 0.0000E+00 0.9000E+01
       25  1    1    2    0    0 -.11416108E+03 0.53806590E+03 0.11104376E+04 0.12454896E+04 0.12500000E+03 0.0000E+00 0.9000E+01
        2  1    1    2  501    0 0.11648261E+03 -.71393960E+03 0.15533784E+04 0.17135526E+04 0.32000000E+00 0.0000E+00 0.9000E+01
        2  1    1    2  502    0 -.23215211E+01 0.17587370E+03 -.16409109E+03 0.24054716E+03 0.32000000E+00 0.0000E+00 0.9000E+01
#aMCatNLO 1  0  0  1  5 0.10253761D+03 0.00000000D+00  -5  6  0 0.00000000D+00 0.00000000D+00 0.00000000D+00 0.00000000D+00 0.00000000D+00
  <mgrwgt>
 0.8173579411D-03    4    2    0
 0.998592426242438D+03 0.000000000000000D+00 0.000000000000000D+00 0.998592426242438D+03
 0.998592426242438D+03 0.000000000000000D+00 0.000000000000000D+00 -.998592426242438D+03
 0.605463642030165D+03 -.114154744338705D+03 0.538007371329446D+03 0.220177166301542D+03
 0.800904162133056D+03 0.116475893745806D+03 -.713898468531107D+03 0.343845633572840D+03
 0.590817048321654D+03 -.232114940710093D+01 0.175891097201662D+03 -.564022799874383D+03
 0.000000000000000D+00 -.000000000000000D+00 -.000000000000000D+00 -.000000000000000D+00
 0.112065973632423D+04 0.000000000000000D+00 0.000000000000000D+00 0.112065973632423D+04
 0.157179471033482D+04 0.000000000000000D+00 0.000000000000000D+00 -.157179471033482D+04
 0.654870615235332D+03 0.126224293163951D+02 0.603815545027021D+03 0.220177166301542D+03
 0.769962000992814D+03 0.274489508946283D+03 -.631875915606995D+03 0.343845633572840D+03
 0.624326568478926D+03 0.119910292319522D+03 0.239339648045160D+03 -.564022799874383D+03
 0.643295261951977D+03 -.407022230582199D+03 -.211279277465186D+03 -.451134974010598D+03
0.526014684454D-03 0.000000000000D+00 0.000000000000D+00 0.273854775297D-07 0.000000000000D+00  6 2 2 25 2 2 21 0 0.43840878D+00 0.53835727D-01 0.53527889D+06 0.53527889D+06 0.53527889D+06 0.10664240D+01  1  2  2  1  6  1        2 0.167967794861D-02 0.100000000000D+01
0.646281086579D-04 0.000000000000D+00 -.202003489115D-05 0.273854775297D-07 0.000000000000D+00  6 2 2 25 2 2 21 2 0.43840878D+00 0.53835727D-01 0.53527889D+06 0.53527889D+06 0.53527889D+06 0.10664240D+01  1  2  3  1  6  1        2 0.234698010132D-03 0.100000000000D+01
-.294983935070D-03 0.000000000000D+00 0.000000000000D+00 0.273854775297D-07 0.000000000000D+00  6 2 2 25 2 2 21 2 0.43840878D+00 0.53835727D-01 0.53527889D+06 0.53527889D+06 0.53527889D+06 0.10664240D+01  1  2 15  1  6  1        2 -.107123887763D-02 0.100000000000D+01
-.709872683128D-05 0.000000000000D+00 0.000000000000D+00 0.273854775297D-07 0.000000000000D+00  6 2 2 25 2 2 21 2 0.43840878D+00 0.53835727D-01 0.53527889D+06 0.53527889D+06 0.53527889D+06 0.10664240D+01  1  2  4  1  6  1        2 -.257791400116D-04 0.100000000000D+01
  </mgrwgt>
  </event>
  <event>
  5     66 0.18204334E-05 0.11874887E+02 0.75467711E-02 0.83935426E-01
        2 -1    0    0  501    0 0.00000000E+00 0.00000000E+00 0.86896883E+03 0.86896888E+03 0.32000000E+00 0.0000E+00 0.9000E+01
        2 -1    0    0  502    0 0.00000000E+00 0.00000000E+00 -.86952402E+03 0.86952407E+03 0.32000000E+00 0.0000E+00 0.9000E+01
       25  1    1    2    0    0 -.46116557E+03 -.13878272E+03 -.21901787E+03 0.54362501E+03 0.12500000E+03 0.0000E+00 0.9000E+01
        2  1    1    2  501    0 0.44970864E+03 0.14190231E+03 0.62789931E+03 0.78525904E+03 0.32000000E+00 0.0000E+00 0.9000E+01
        2  1    1    2  502    0 0.11456939E+02 -.31195847E+01 -.40943663E+03 0.40960890E+03 0.32000000E+00 0.0000E+00 0.9000E+01
#aMCatNLO 1  0  0  1  2 0.23496405D+04 0.00000000D+00  -5  6  0 0.00000000D+00 0.00000000D+00 0.00000000D+00 0.00000000D+00 0.00000000D+00
  <mgrwgt>
 0.1431722443D-01    5    2    0
 0.869246434790343D+03 0.000000000000000D+00 0.000000000000000D+00 0.869246434790343D+03
 0.869246434790343D+03 0.000000000000000D+00 0.000000000000000D+00 -.869246434790343D+03
 0.543538475711659D+03 -.461161602771460D+03 -.138781090462502D+03 -.218812384563241D+03
 0.785451156769572D+03 0.449703837116008D+03 0.141900793618585D+03 0.628143409839038D+03
 0.409503237099455D+03 0.114577656554517D+02 -.311970315608309D+01 -.409331025275797D+03
 0.000000000000000D+00 0.000000000000000D+00 0.000000000000000D+00 0.000000000000000D+00
 0.184806822161794D+04 0.000000000000000D+00 0.000000000000000D+00 0.184806822161794D+04
 0.159783082005961D+04 0.000000000000000D+00 0.000000000000000D+00 -.159783082005961D+04
 0.806337272872418D+03 -.503741689812225D+03 -.576992415834213D+03 -.218812384563241D+03
 0.837611479257498D+03 0.398506422548675D+03 -.384995426008125D+03 0.628143409839038D+03
 0.508458896275379D+03 -.174981642367822D+02 -.301118540107686D+03 -.409331025275797D+03
 0.129349139327225D+04 0.122733431500332D+03 0.126310638195002D+04 0.250237401558332D+03
0.673389950697D-03 0.000000000000D+00 0.000000000000D+00 0.860297739081D-05 0.000000000000D+00  6 2 2 25 2 2 21 0 0.13368752D+00 0.13377293D+00 0.24058273D+06 0.24058273D+06 0.24058273D+06 0.10917158D+01  1  2  2  1  6  1        2 0.105474951630D-01 0.100000000000D+01
0.595210270144D-03 0.000000000000D+00 -.258599471832D-05 0.860297739081D-05 0.000000000000D+00  6 2 2 25 2 2 21 2 0.13368752D+00 0.13377293D+00 0.24058273D+06 0.24058273D+06 0.24058273D+06 0.10917158D+01  1  2  3  1  6  1        2 0.111114908142D-01 0.100000000000D+01
-.450451002463D-03 0.000000000000D+00 0.000000000000D+00 0.860297739081D-05 0.000000000000D+00  6 2 2 25 2 2 21 2 0.13368752D+00 0.13377293D+00 0.24058273D+06 0.24058273D+06 0.24058273D+06 0.10917158D+01  1  2 15  1  6  1        2 -.840909914896D-02 0.100000000000D+01
0.504607928348D-03 0.000000000000D+00 -.378590511520D-03 0.860297739081D-05 0.000000000000D+00  6 2 2 25 2 2 21 2 0.39268579D+00 0.13377293D+00 0.24058273D+06 0.24058273D+06 0.24058273D+06 0.10917158D+01  1  2  5  1  6  1        2 0.104845718250D-02 0.100000000000D+01
0.812787208148D-04 0.000000000000D+00 -.462287489520D-04 0.860297739081D-05 0.000000000000D+00  6 21 2 25 2 2 -2 2 0.39268579D+00 0.13377293D+00 0.24058273D+06 0.24058273D+06 0.24058273D+06 0.10917158D+01  1  2  5  4  6  1        2 0.188804213803D-04 0.100000000000D+01
  </mgrwgt>
  </event>
  <event>
  6     66 -.18204334E-05 0.91644185E+02 0.75467711E-02 0.93529892E-01
        2 -1    0    0  503    0 0.00000000E+00 0.00000000E+00 0.16860513E+04 0.16860513E+04 0.32000000E+00 0.0000E+00 0.9000E+01
        2 -1    0    0  502    0 0.00000000E+00 0.00000000E+00 -.10204800E+04 0.10204800E+04 0.32000000E+00 0.0000E+00 0.9000E+01
       25  1    1    2    0    0 0.16433058E+03 -.43390217E+03 -.17944964E+03 0.51293548E+03 0.12500000E+03 0.0000E+00 0.9000E+01
        2  1    1    2  501    0 -.26002972E+03 0.44789212E+03 0.11626518E+04 0.12727852E+04 0.32000000E+00 0.0000E+00 0.9000E+01
        2  1    1    2  502    0 0.95698200E+02 -.55531837E+01 -.61545023E+03 0.62287083E+03 0.32000000E+00 0.0000E+00 0.9000E+01
       21  1    1    2  503  501 0.93694894E-03 -.84367706E+01 0.29781939E+03 0.29793981E+03 0.75000000E+00 0.0000E+00 0.9000E+01
#aMCatNLO 2  0  0  1  4 0.84367707D+01 0.00000000D+00  -5  6  0 0.00000000D+00 0.00000000D+00 0.00000000D+00 0.00000000D+00 0.00000000D+00
  <mgrwgt>
 -.9095785650D-02    3    2    0
 0.119016808621049D+04 0.000000000000000D+00 0.000000000000000D+00 0.119016808621049D+04
 0.119016808621049D+04 0.000000000000000D+00 0.000000000000000D+00 -.119016808621049D+04
 0.548270342544783D+03 0.164326000407553D+03 -.435840581986350D+03 -.260797471609734D+03
 0.110667516294186D+04 -.260027893285167D+03 0.443964484247253D+03 0.979801483828810D+03
 0.725390666934330D+03 0.957018928776140D+02 -.812390226090236D+01 -.719004012219076D+03
 0.000000000000000D+00 0.000000000000000D+00 -.000000000000000D+00 0.000000000000000D+00
 0.144556766668678D+04 0.000000000000000D+00 0.000000000000000D+00 0.144556766668678D+04
 0.119024523821947D+04 0.000000000000000D+00 0.000000000000000D+00 -.119024523821947D+04
 0.546728945323125D+03 0.164325784901187D+03 -.433900051708588D+03 -.260797471609734D+03
 0.110825578696546D+04 -.260028329204829D+03 0.447889729331034D+03 0.979801483828810D+03
 0.725366391565926D+03 0.957016073547054D+02 -.555290698365569D+01 -.719004012219076D+03
 0.255461781051751D+03 0.936948937095866D-03 -.843677063879009D+01 0.255322428467308D+03
-.184002917313D-01 0.000000000000D+00 0.000000000000D+00 0.474323768374D-05 0.000000000000D+00  6 2 2 25 2 2 21 2 0.25953313D+00 0.15698667D+00 0.30399595D+06 0.30399595D+06 0.30399595D+06 0.10841270D+01  1  2 13  1  6  1        2 -.900181049242D-01 0.100000000000D+01
-.250117042060D-08 0.000000000000D+00 0.000000000000D+00 0.474323768374D-05 0.000000000000D+00  6 2 2 25 2 2 21 2 0.25940327D+00 0.15698667D+00 0.30399595D+06 0.30399595D+06 0.30399595D+06 0.10841270D+01  1  2 13  1  6  1        2 -.122492195978D-07 0.100000000000D+01
0.165236299096D-01 0.000000000000D+00 0.000000000000D+00 0.474323768374D-05 0.381032765198D-06  6 2 2 25 2 2 21 2 0.25939239D+00 0.15699685D+00 0.30399595D+06 0.30399595D+06 0.30399595D+06 0.10841270D+01  1  2  1  1  6  1        2 0.809223315238D-01 0.100000000000D+01
  </mgrwgt>
  </event>
  <event>
  5     66 0.18204334E-05 0.15319571E+03 0.75467711E-02 0.93720105E-01
        2 -1    0    0  501    0 0.00000000E+00 0.00000000E+00 0.28810833E+03 0.28810851E+03 0.32000000E+00 0.0000E+00 0.9000E+01
        2 -1    0    0  502    0 -.00000000E+00 -.00000000E+00 -.22155696E+04 0.22155696E+04 0.32000000E+00 0.0000E+00 0.9000E+01
       25  1    1    2    0    0 0.43982110E+03 0.20857828E+03 -.83455798E+03 0.97419686E+03 0.12500000E+03 0.0000E+00 0.9000E+01
        2  1    1    2  501    0 -.15445609E+02 -.15244336E+03 0.15030537E+03 0.21463772E+03 0.32000000E+00 0.0000E+00 0.9000E+01
        2  1    1    2  502    0 -.42437549E+03 -.56134921E+02 -.12432086E+04 0.13148435E+04 0.32000000E+00 0.0000E+00 0.9000E+01
#aMCatNLO 1  0  0  5  2 0.36201537D+02 0.00000000D+00  -5  6  0 0.00000000D+00 0.00000000D+00 0.00000000D+00 0.00000000D+00 0.00000000D+00
  <mgrwgt>
 0.1218229064D-02    1    2    0
 0.798952007896480D+03 0.000000000000000D+00 0.000000000000000D+00 0.798952007896480D+03
 0.798952007896480D+03 -.000000000000000D+00 -.000000000000000D+00 -.798952007896480D+03
 0.519783279525574D+03 0.439894419786048D+03 0.208578362689351D+03 -.132429693548263D+03
 0.517515151504419D+03 -.154427730772951D+02 -.152415370213668D+03 0.494320753882493D+03
 0.560605584762967D+03 -.424451646708753D+03 -.561629924756825D+02 -.361891060334230D+03
 0.000000000000000D+00 0.000000000000000D+00 0.000000000000000D+00 0.000000000000000D+00
 0.798952007896480D+03 0.000000000000000D+00 0.000000000000000D+00 0.798952007896480D+03
 0.798952007896480D+03 -.000000000000000D+00 -.000000000000000D+00 -.798952007896480D+03
 0.477706808231645D+03 0.367994404881244D+03 0.199064628846139D+03 -.193732253766154D+03
 0.470848128922637D+03 -.866849192061320D+02 -.161842055557007D+03 0.433579098141570D+03
 0.283056657940425D+03 -.641521354493285D+02 0.239244816769094D+03 -.136994499053125D+03
 0.366292420698254D+03 -.217157350225784D+03 -.276467390058226D+03 -.102852345322290D+03
0.107142746832D-03 0.000000000000D+00 0.000000000000D+00 0.156213730451D-06 0.000000000000D+00  6 2 2 25 2 2 21 2 0.44324374D-01 0.34085688D+00 0.29375157D+06 0.29375157D+06 0.29375157D+06 0.10852288D+01  1  2 14  3  6  5        2 0.121822906398D-02 0.100000000000D+01
  </mgrwgt>
  </event>
  <event>
  5     66 0.18204334E-05 0.39912760E+02 0.75467711E-02 0.92935929E-01
        2 -1    0    0  501    0 0.00000000E+00 0.00000000E+00 0.14601113E+04 0.14601113E+04 0.32000000E+00 0.0000E+00 0.9000E+01
        2 -1    0    0  502    0 0.00000000E+00 0.00000000E+00 -.12980612E+04 0.12980612E+04 0.32000000E+00 0.0000E+00 0.9000E+01
       25  1    1    2    0    0 0.46464627E+03 0.95963725E+02 -.49811089E+03 0.69917426E+03 0.12500000E+03 0.0000E+00 0.9000E+01
        2  1    1    2  501    0 -.49469121E+03 -.69686706E+02 0.13130575E+04 0.14048828E+04 0.32000000E+00 0.0000E+00 0.9000E+01
        2  1    1    2  502    0 0.30044943E+02 -.26277018E+02 -.65289645E+03 0.65411548E+03 0.32000000E+00 0.0000E+00 0.9000E+01
#aMCatNLO 1  0  0  5  2 0.36201537D+02 0.00000000D+00  -5  6  0 0.00000000D+00 0.00000000D+00 0.00000000D+00 0.00000000D+00 0.00000000D+00
  <mgrwgt>
 0.2411922234D-01    6    2    0
 0.137670398992799D+04 0.000000000000000D+00 0.000000000000000D+00 0.137670398992799D+04
 0.137670398992799D+04 -.000000000000000D+00 -.000000000000000D+00 -.137670398992799D+04
 0.729727679870740D+03 0.464649185456959D+03 0.959627204740277D+02 -.540157178516533D+03
 0.133003850160195D+04 -.494692657133456D+03 -.696869104960183D+02 0.123264971716515D+04
 0.693641798383278D+03 0.300434716764972D+02 -.262758099780093D+02 -.692492538648621D+03
 0.000000000000000D+00 0.000000000000000D+00 0.000000000000000D+00 0.000000000000000D+00
 0.137670398992799D+04 0.000000000000000D+00 0.000000000000000D+00 0.137670398992799D+04
 0.137670398992799D+04 -.000000000000000D+00 -.000000000000000D+00 -.137670398992799D+04
 0.740153885695071D+03 0.465239145425503D+03 0.954467456161610D+02 -.553755569565258D+03
 0.130710942597803D+04 -.493634196543944D+03 -.706126327167625D+02 0.120825253468960D+04
 0.890353383351090D+02 -.684601946418754D+02 -.347139122423797D+02 -.451158233757537D+02
 0.617109329847765D+03 0.968552457603163D+02 0.987979934298118D+01 -.609381141748585D+03
0.735358535814D-02 0.000000000000D+00 0.000000000000D+00 0.391949180769D-04 0.000000000000D+00  6 2 2 25 2 2 21 0 0.22463251D+00 0.19970172D+00 0.26529446D+06 0.26529446D+06 0.26529446D+06 0.10885244D+01  1  2  2  3  6  5        2 0.282264257273D-01 0.100000000000D+01
0.302558814775D-02 0.000000000000D+00 -.282397040187D-04 0.391949180769D-04 0.000000000000D+00  6 2 2 25 2 2 21 2 0.22463251D+00 0.19970172D+00 0.26529446D+06 0.26529446D+06 0.26529446D+06 0.10885244D+01  1  2  3  3  6  5        2 0.137607740994D-01 0.100000000000D+01
-.567985343019D-02 0.000000000000D+00 0.000000000000D+00 0.391949180769D-04 0.000000000000D+00  6 2 2 25 2 2 21 2 0.22463251D+00 0.19970172D+00 0.26529446D+06 0.26529446D+06 0.26529446D+06 0.10885244D+01  1  2 15  3  6  5        2 -.258327228143D-01 0.100000000000D+01
-.545233931085D-04 0.000000000000D+00 0.000000000000D+00 0.391949180769D-04 0.000000000000D+00  6 2 2 25 2 2 21 2 0.22463251D+00 0.19970172D+00 0.26529446D+06 0.26529446D+06 0.26529446D+06 0.10885244D+01  1  2  4  3  6  5        2 -.247979585807D-03 0.100000000000D+01
-.185024246521D-02 0.000000000000D+00 0.000000000000D+00 0.391949180769D-04 0.000000000000D+00  6 2 2 25 2 2 21 2 0.22463251D+00 0.19970172D+00 0.26529446D+06 0.26529446D+06 0.26529446D+06 0.10885244D+01  1  2  5  3  6  5        2 -.841514685730D-02 0.100000000000D+01
0.365597831760D-02 0.000000000000D+00 -.000000000000D+00 0.391949180769D-04 0.000000000000D+00  6 2 2 25 2 2 21 2 0.22463251D+00 0.19970172D+00 0.26529446D+06 0.26529446D+06 0.26529446D+06 0.10885244D+01  1  2  6  3  6  5        2 0.166278717672D-01 0.100000000000D+01
  </mgrwgt>
  </event>
  <event>
  5     66 0.18204334E-05 0.42877571E+02 0.75467711E-02 0.86039544E-01
        2 -1    0    0  501    0 0.00000000E+00 0.00000000E+00 0.87444843E+03 0.87444849E+03 0.32000000E+00 0.0000E+00 0.9000E+01
        2 -1    0    0  502    0 -.00000000E+00 -.00000000E+00 -.39230442E+04 0.39230443E+04 0.32000000E+00 0.0000E+00 0.9000E+01
       25  1    1    2    0    0 -.46321101E+03 0.27249213E+03 0.39669296E+03 0.67956362E+03 0.12500000E+03 0.0000E+00 0.9000E+01
        2  1    1    2  501    0 0.50015049E+03 -.25072858E+03 0.10342438E+03 0.56895698E+03 0.32000000E+00 0.0000E+00 0.9000E+01
        2  1    1    2  502    0 -.36939488E+02 -.21763557E+02 -.35487132E+04 0.35489722E+04 0.32000000E+00 0.0000E+00 0.9000E+01
#aMCatNLO 1  0  0  5  2 0.19397110D+02 0.00000000D+00  -5  6  0 0.00000000D+00 0.00000000D+00 0.00000000D+00 0.00000000D+00 0.00000000D+00
  <mgrwgt>
 0.1714863255D-01    3    2    0
 0.185216091575164D+04 0.000000000000000D+00 0.000000000000000D+00 0.185216091575164D+04
 0.185216091575164D+04 -.000000000000000D+00 -.000000000000000D+00 -.185216091575164D+04
 0.120669230196308D+04 -.463102670429409D+03 0.272441222658592D+03 0.107321619837496D+04
 0.821803606293866D+03 0.500045231494052D+03 -.250675808856311D+03 0.602061103736072D+03
 0.167582592324633D+04 -.369425610646375D+02 -.217654138022774D+02 -.167527730211104D+04
 0.000000000000000D+00 0.000000000000000D+00 0.000000000000000D+00 0.000000000000000D+00
 0.185216091575164D+04 0.000000000000000D+00 0.000000000000000D+00 0.185216091575164D+04
 0.185216091575164D+04 -.000000000000000D+00 -.000000000000000D+00 -.185216091575164D+04
 0.105510041651865D+04 -.466964475537239D+03 0.270165966591516D+03 0.898090428642760D+03
 0.736717341448737D+03 0.497384198894791D+03 -.252243606918902D+03 0.481388162141140D+03
 0.670748786400167D+03 -.159542348296662D+03 -.586712140138119D+03 -.283229656236472D+03
 0.124175528713573D+04 0.129122624939116D+03 0.568789780465509D+03 -.109624893454743D+04
0.795383174081D-01 0.000000000000D+00 0.000000000000D+00 0.132377461626D-04 0.000000000000D+00  6 2 2 25 2 2 21 0 0.13453053D+00 0.60354527D+00 0.33286181D+06 0.33286181D+06 0.33286181D+06 0.10812277D+01  1  2  2  3  6  5        2 0.159006042835D-01 0.100000000000D+01
0.480809872533D-01 0.000000000000D+00 -.305448081767D-03 0.132377461626D-04 0.000000000000D+00  6 2 2 25 2 2 21 2 0.13453053D+00 0.60354527D+00 0.33286181D+06 0.33286181D+06 0.33286181D+06 0.10812277D+01  1  2  3  3  6  5        2 0.112368596223D-01 0.100000000000D+01
-.427408448152D-01 0.000000000000D+00 0.000000000000D+00 0.132377461626D-04 0.000000000000D+00  6 2 2 25 2 2 21 2 0.13453053D+00 0.60354527D+00 0.33286181D+06 0.33286181D+06 0.33286181D+06 0.10812277D+01  1  2 15  3  6  5        2 -.998883136065D-02 0.100000000000D+01
  </mgrwgt>
  </event>
  <event>
  5     66 0.18204334E-05 0.12613269E+03 0.75467711E-02 0.93407956E-01
        2 -1    0    0  501    0 0.00000000E+00 0.00000000E+00 0.99757189E+03 0.99757194E+03 0.32000000E+00 0.0000E+00 0.9000E+01
        2 -1    0    0  502    0 0.00000000E+00 0.00000000E+00 -.40926128E+03 0.40926140E+03 0.32000000E+00 0.0000E+00 0.9000E+01
       25  1    1    2    0    0 0.42167957E+03 0.21145533E+03 -.78378030E+02 0.49426221E+03 0.12500000E+03 0.0000E+00 0.9000E+01
        2  1    1    2  501    0 -.47773449E+03 -.98465538E+02 0.58768568E+03 0.76374097E+03 0.32000000E+00 0.0000E+00 0.9000E+01
        2  1    1    2  502    0 0.56054923E+02 -.11298979E+03 0.79002954E+02 0.14883016E+03 0.32000000E+00 0.0000E+00 0.9000E+01
#aMCatNLO 1  0  0  2  5 0.13157141D+02 0.00000000D+00  -5  6  0 0.00000000D+00 0.00000000D+00 0.00000000D+00 0.00000000D+00 0.00000000D+00
  <mgrwgt>
 0.2169637569D-03   11    2    0
 0.638958268465482D+03 0.000000000000000D+00 0.000000000000000D+00 0.638958268465482D+03
 0.638958268465482D+03 0.000000000000000D+00 0.000000000000000D+00 -.638958268465482D+03
 0.580207683007378D+03 0.421680548570121D+03 0.211459322941946D+03 -.313825469201155D+03
 0.570232957462079D+03 -.477731673718687D+03 -.984649567830265D+02 0.295368796570672D+03
 0.127475896461508D+03 0.560511251485664D+02 -.112994366158920D+03 0.184566726304827D+02
 0.000000000000000D+00 0.000000000000000D+00 0.000000000000000D+00 -.000000000000000D+00
 0.641162427712713D+03 0.000000000000000D+00 0.000000000000000D+00 0.641162427712713D+03
 0.658933017387374D+03 0.000000000000000D+00 0.000000000000000D+00 -.658933017387374D+03
 0.576356859317482D+03 0.419031329091970D+03 0.206127507631573D+03 -.313825469201155D+03
 0.573359696143679D+03 -.480351179869994D+03 -.103736971094539D+03 0.295368796570672D+03
 0.128267711154901D+03 0.554653204468693D+02 -.114173355858775D+03 0.184566726304827D+02
 0.221111784840247D+02 0.585453033115486D+01 0.117828193217413D+02 -.177705896746615D+02
0.117335751227D-05 0.000000000000D+00 0.000000000000D+00 0.100358247094D-08 0.000000000000D+00  6 2 2 25 2 2 21 0 0.15347261D+00 0.62963287D-01 0.30355521D+06 0.30355521D+06 0.30355521D+06 0.10841735D+01  1  2  2  2  6  2        2 0.368952031053D-04 0.100000000000D+01
0.461459598181D-07 0.000000000000D+00 -.450600179924D-08 0.100358247094D-08 0.000000000000D+00  6 2 2 25 2 2 21 2 0.15347261D+00 0.62963287D-01 0.30355521D+06 0.30355521D+06 0.30355521D+06 0.10841735D+01  1  2  3  2  6  2        2 0.170557504397D-05 0.100000000000D+01
-.710248394470D-06 0.000000000000D+00 0.000000000000D+00 0.100358247094D-08 0.000000000000D+00  6 2 2 25 2 2 21 2 0.15347261D+00 0.62963287D-01 0.30355521D+06 0.30355521D+06 0.30355521D+06 0.10841735D+01  1  2 15  2  6  2        2 -.262510941673D-04 0.100000000000D+01
0.581848060805D-05 0.000000000000D+00 0.000000000000D+00 0.100358247094D-08 0.000000000000D+00  6 2 2 25 2 2 21 2 0.15347261D+00 0.65879875D-01 0.31077348D+06 0.31077348D+06 0.31077348D+06 0.10834200D+01  1  2 12  2  6  2        2 0.204053197786D-03 0.100000000000D+01
0.132472835448D-05 0.000000000000D+00 0.000000000000D+00 0.100358247094D-08 0.000000000000D+00  6 2 2 25 2 2 21 2 0.15347261D+00 0.65090563D-01 0.31077348D+06 0.31077348D+06 0.31077348D+06 0.10834200D+01  1  2 12  2  6  2        2 0.470870243909D-04 0.100000000000D+01
-.432680083697D-05 0.000000000000D+00 0.000000000000D+00 0.100358247094D-08 0.000000000000D+00  6 2 2 25 2 2 21 2 0.15347261D+00 0.62963287D-01 0.30355521D+06 0.30355521D+06 0.30355521D+06 0.10841735D+01  1  2  4  2  6  2        2 -.159920468809D-03 0.100000000000D+01
-.974383925198D-04 0.000000000000D+00 -.901933404705D-05 0.100358247094D-08 0.000000000000D+00  6 2 2 25 2 2 21 2 0.15347261D+00 0.65074911D-01 0.30355521D+06 0.30355521D+06 0.30355521D+06 0.10841735D+01  1  2  5  2  6  2        2 -.347149122001D-02 0.100000000000D+01
0.976876660668D-04 0.000000000000D+00 0.901442902944D-05 0.100358247094D-08 0.000000000000D+00  6 2 2 25 2 2 21 2 0.15347261D+00 0.62963287D-01 0.30355521D+06 0.30355521D+06 0.30355521D+06 0.10841735D+01  1  2  6  2  6  2        2 0.361057925773D-02 0.100000000000D+01
0.225920725910D-06 0.000000000000D+00 0.000000000000D+00 0.100358247094D-08 0.000000000000D+00  6 2 21 25 2 2 -2 2 0.15347261D+00 0.65879875D-01 0.31077348D+06 0.31077348D+06 0.31077348D+06 0.10834200D+01  1  2 12  5  6  2        2 0.179652074418D-04 0.100000000000D+01
0.384115243173D-07 0.000000000000D+00 0.000000000000D+00 0.100358247094D-08 0.000000000000D+00  6 2 21 25 2 2 -2 2 0.15347261D+00 0.65090563D-01 0.31077348D+06 0.31077348D+06 0.31077348D+06 0.10834200D+01  1  2 12  5  6  2        2 0.314061899873D-05 0.100000000000D+01
-.570401207014D-06 0.000000000000D+00 -.531256894002D-07 0.100358247094D-08 0.000000000000D+00  6 2 21 25 2 2 -2 2 0.15347261D+00 0.65074911D-01 0.30355521D+06 0.30355521D+06 0.30355521D+06 0.10841735D+01  1  2  5  5  6  2        2 -.467995446060D-04 0.100000000000D+01
  </mgrwgt>
  </event>
  <event>
  5     66 -.18204334E-05 0.10351279E+03 0.75467711E-02 0.91343182E-01
        2 -1    0    0  501    0 0.00000000E+00 0.00000000E+00 0.86126383E+03 0.86126389E+03 0.32000000E+00 0.0000E+00 0.9000E+01
        2 -1    0    0  502    0 -.00000000E+00 -.00000000E+00 -.16193189E+04 0.16193189E+04 0.32000000E+00 0.0000E+00 0.9000E+01
       25  1    1    2    0    0 0.63828479E+02 -.61684140E+03 -.69604303E+02 0.63642529E+03 0.12500000E+03 0.0000E+00 0.9000E+01
        2  1    1    2  501    0 0.10028693E+03 0.25713423E+02 0.49791061E+03 0.50856045E+03 0.32000000E+00 0.0000E+00 0.9000E+01
        2  1    1    2  502    0 -.16411541E+03 0.59112798E+03 -.11863614E+04 0.13355971E+04 0.32000000E+00 0.0000E+00 0.9000E+01
#aMCatNLO 1  0  0  5  2 0.12112451D+02 0.00000000D+00  -5  6  0 0.00000000D+00 0.00000000D+00 0.00000000D+00 0.00000000D+00 0.00000000D+00
  <mgrwgt>
 -.4157706064D-02    8    2    0
 0.118095761931176D+04 0.000000000000000D+00 0.000000000000000D+00 0.118095761931176D+04
 0.118095761931176D+04 -.000000000000000D+00 -.000000000000000D+00 -.118095761931176D+04
 0.646153053659902D+03 0.638605126154001D+02 -.616913255792257D+03 0.131257908372455D+03
 0.693794156029902D+03 0.100269383714041D+03 0.257089233082577D+02 0.686028740573731D+03
 0.102196802893371D+04 -.164129896329441D+03 0.591204332484000D+03 -.817286648946186D+03
 0.000000000000000D+00 0.000000000000000D+00 0.000000000000000D+00 -.000000000000000D+00
 0.118095761931176D+04 0.000000000000000D+00 0.000000000000000D+00 0.118095761931176D+04
 0.118095761931176D+04 -.000000000000000D+00 -.000000000000000D+00 -.118095761931176D+04
 0.646027869409715D+03 0.638329936862025D+02 -.616814131193200D+03 0.131120877557659D+03
 0.693648352555311D+03 0.100239836046622D+03 0.258153555267829D+02 0.685881607634341D+03
 0.887026661156387D+03 -.151953333449725D+03 0.518135425068626D+03 -.703748650687672D+03
 0.135212355502101D+03 -.121194962830998D+02 0.728633505977915D+02 -.113253834504328D+03
0.604001818489D-05 0.000000000000D+00 0.000000000000D+00 0.120357093599D-05 0.000000000000D+00  6 2 2 25 2 2 21 0 0.13250213D+00 0.24912599D+00 0.45546168D+06 0.45546168D+06 0.45546168D+06 0.10713858D+01  1  2  2  3  6  5        2 0.338287978727D-04 0.100000000000D+01
0.151621893203D-05 0.000000000000D+00 -.231952602033D-07 0.120357093599D-05 0.000000000000D+00  6 2 2 25 2 2 21 2 0.13250213D+00 0.24912599D+00 0.45546168D+06 0.45546168D+06 0.45546168D+06 0.10713858D+01  1  2  3  3  6  5        2 0.974769731555D-05 0.100000000000D+01
-.360556616353D-05 0.000000000000D+00 0.000000000000D+00 0.120357093599D-05 0.000000000000D+00  6 2 2 25 2 2 21 2 0.13250213D+00 0.24912599D+00 0.45546168D+06 0.45546168D+06 0.45546168D+06 0.10713858D+01  1  2 15  3  6  5        2 -.231800084215D-04 0.100000000000D+01
0.206107060252D-02 0.000000000000D+00 0.000000000000D+00 0.120357093599D-05 0.000000000000D+00  6 2 2 25 2 2 21 2 0.13250213D+00 0.24912599D+00 0.45556700D+06 0.45556700D+06 0.45556700D+06 0.10713787D+01  1  2 12  3  6  5        2 0.132501743500D-01 0.100000000000D+01
0.131680319514D-08 0.000000000000D+00 0.000000000000D+00 0.120357093599D-05 0.000000000000D+00  6 2 2 25 2 2 21 2 0.13250213D+00 0.24912599D+00 0.45556700D+06 0.45556700D+06 0.45556700D+06 0.10713787D+01  1  2 12  3  6  5        2 0.846544116386D-08 0.100000000000D+01
-.300382057782D-02 0.000000000000D+00 0.000000000000D+00 0.120357093599D-05 0.000000000000D+00  6 2 2 25 2 2 21 2 0.13250213D+00 0.24912599D+00 0.45546168D+06 0.45546168D+06 0.45546168D+06 0.10713858D+01  1  2  4  3  6  5        2 -.193114154983D-01 0.100000000000D+01
-.207783388712D-02 0.000000000000D+00 0.000000000000D+00 0.120357093599D-05 0.000000000000D+00  6 2 2 25 2 2 21 2 0.13250213D+00 0.24912599D+00 0.45546168D+06 0.45546168D+06 0.45546168D+06 0.10713858D+01  1  2  5  3  6  5        2 -.133582923784D-01 0.100000000000D+01
0.237074794322D-02 0.000000000000D+00 -.000000000000D+00 0.120357093599D-05 0.000000000000D+00  6 2 2 25 2 2 21 2 0.13250213D+00 0.24912599D+00 0.45546168D+06 0.45546168D+06 0.45546168D+06 0.10713858D+01  1  2  6  3  6  5        2 0.152414225108D-01 0.100000000000D+01
  </mgrwgt>
  </event>
  <event>
  6     66 0.18204334E-05 0.24015121E+03 0.75467711E-02 0.90273396E-01
        2 -1    0    0  501    0 0.00000000E+00 0.00000000E+00 0.22169699E+04 0.22169699E+04 0.32000000E+00 0.0000E+00 0.9000E+01
       21 -1    0    0  502  503 0.00000000E+00 0.00000000E+00 -.32965158E+03 0.32965243E+03 0.75000000E+00 0.0000E+00 0.9000E+01
       25  1    1    2    0    0 0.35544533E+03 0.59464597E+03 0.14135671E+04 0.15791587E+04 0.12500000E+03 0.0000E+00 0.9000E+01
        2  1    1    2  501    0 -.38774733E+03 -.32638248E+03 0.45573475E+03 0.68159209E+03 0.32000000E+00 0.0000E+00 0.9000E+01
        2  1    1    2  502    0 0.49118604E+02 -.67302573E+02 -.87088490E+00 0.83325473E+02 0.32000000E+00 0.0000E+00 0.9000E+01
       -2  1    1    2    0  503 -.16816595E+02 -.20096091E+03 0.18887356E+02 0.20254609E+03 0.32000000E+00 0.0000E+00 0.9000E+01
#aMCatNLO 2  0  0  2  2 0.20166330D+03 0.00000000D+00  -5  6  0 0.00000000D+00 0.00000000D+00 0.00000000D+00 0.00000000D+00 0.00000000D+00
  <mgrwgt>
 0.2276863534D-01    1    2    0
 0.700533922978703D+03 0.000000000000000D+00 0.000000000000000D+00 0.700533922978703D+03
 0.700533922978703D+03 0.000000000000000D+00 0.000000000000000D+00 -.700533922978703D+03
 0.667369877490071D+03 0.346965837982432D+03 0.493568520227219D+03 0.256441760434947D+03
 0.584031449765642D+03 -.394363713677473D+03 -.405648328447158D+03 -.144980789340853D+03
 0.149666518701692D+03 0.473978756950414D+02 -.879201917800609D+02 -.111460971094094D+03
 0.000000000000000D+00 -.000000000000000D+00 -.000000000000000D+00 -.000000000000000D+00
 0.744956827329541D+03 0.000000000000000D+00 0.000000000000000D+00 0.744956827329541D+03
 0.981034799644058D+03 0.000000000000000D+00 0.000000000000000D+00 -.981034799644058D+03
 0.749206610092432D+03 0.355423627020867D+03 0.594640406856573D+03 0.256441760434947D+03
 0.527133011269548D+03 -.387729412825508D+03 -.326367407567286D+03 -.144980789340853D+03
 0.139167070554697D+03 0.491223809275923D+02 -.673120876332168D+02 -.111460971094094D+03
 0.310484935056923D+03 -.168165951229513D+02 -.200960911656069D+03 -.236077972314517D+03
0.836229528748D-03 0.000000000000D+00 0.000000000000D+00 0.927390845670D-09 0.294699679837D-10  6 2 21 25 2 2 -2 2 0.34107232D+00 0.50715689D-01 0.55931614D+06 0.55931614D+06 0.55931614D+06 0.10650864D+01  1  2  1  5  6  2        2 0.227686353367D-01 0.100000000000D+01
  </mgrwgt>
  </event>
  <event>
  5     66 0.18204334E-05 0.33622643E+02 0.75467711E-02 0.89594466E-01
        2 -1    0    0  501    0 0.00000000E+00 0.00000000E+00 0.23549591E+04 0.23549591E+04 0.32000000E+00 0.0000E+00 0.9000E+01
        2 -1    0    0  502    0 0.00000000E+00 0.00000000E+00 -.81884410E+03 0.81884416E+03 0.32000000E+00 0.0000E+00 0.9000E+01
       25  1    1    2    0    0 0.38628776E+03 0.59182627E+03 -.14076243E+03 0.73137926E+03 0.12500000E+03 0.0000E+00 0.9000E+01
        2  1    1    2  501    0 -.37650146E+03 -.62399314E+03 0.19942675E+04 0.21232579E+04 0.32000000E+00 0.0000E+00 0.9000E+01
        2  1    1    2  502    0 -.97862934E+01 0.32166873E+02 -.31739009E+03 0.31916618E+03 0.32000000E+00 0.0000E+00 0.9000E+01
#aMCatNLO 1  0  0  5  2 0.70413993D+03 0.00000000D+00  -5  6  0 0.00000000D+00 0.00000000D+00 0.00000000D+00 0.00000000D+00 0.00000000D+00
  <mgrwgt>
 0.4359932950D-02    6    2    0
 0.138864845107773D+04 0.000000000000000D+00 0.000000000000000D+00 0.138864845107773D+04
 0.138864845107773D+04 -.000000000000000D+00 -.000000000000000D+00 -.138864845107773D+04
 0.913648795939155D+03 0.386287749724338D+03 0.591825980811984D+03 -.565378550327043D+03
 0.132336467928621D+04 -.376501282550050D+03 -.623992845480146D+03 0.110461476878143D+04
 0.540283426930093D+03 -.978646717428895D+01 0.321668646681622D+02 -.539236218454392D+03
 0.000000000000000D+00 0.000000000000000D+00 0.000000000000000D+00 -.000000000000000D+00
 0.138864845107773D+04 0.000000000000000D+00 0.000000000000000D+00 0.138864845107773D+04
 0.138864845107773D+04 -.000000000000000D+00 -.000000000000000D+00 -.138864845107773D+04
 0.918327453588466D+03 0.386157527600103D+03 0.592254004262376D+03 -.572553814350437D+03
 0.131451440424206D+04 -.376688790558312D+03 -.623376530663107D+03 0.109428304156009D+04
 0.265239854574568D+03 -.603956237934736D+02 0.666952337045499D+02 -.249512113698775D+03
 0.279215189750370D+03 0.509268867516826D+02 -.355727073038178D+02 -.272217113510877D+03
0.678079182434D-03 0.000000000000D+00 0.000000000000D+00 0.622798482757D-05 0.000000000000D+00  6 2 2 25 2 2 21 0 0.36230141D+00 0.12597602D+00 0.54768004D+06 0.54768004D+06 0.54768004D+06 0.10657259D+01  1  2  2  3  6  5        2 0.156557104392D-02 0.100000000000D+01
0.361167598695D-03 0.000000000000D+00 -.260400260289D-05 0.622798482757D-05 0.000000000000D+00  6 2 2 25 2 2 21 2 0.36230141D+00 0.12597602D+00 0.54768004D+06 0.54768004D+06 0.54768004D+06 0.10657259D+01  1  2  3  3  6  5        2 0.947092062932D-03 0.100000000000D+01
-.442126583983D-03 0.000000000000D+00 0.000000000000D+00 0.622798482757D-05 0.000000000000D+00  6 2 2 25 2 2 21 2 0.36230141D+00 0.12597602D+00 0.54768004D+06 0.54768004D+06 0.54768004D+06 0.10657259D+01  1  2 15  3  6  5        2 -.115939131864D-02 0.100000000000D+01
-.455662861235D-04 0.000000000000D+00 0.000000000000D+00 0.622798482757D-05 0.000000000000D+00  6 2 2 25 2 2 21 2 0.36230141D+00 0.12597602D+00 0.54768004D+06 0.54768004D+06 0.54768004D+06 0.10657259D+01  1  2  4  3  6  5        2 -.119488758351D-03 0.100000000000D+01
-.143352777842D-02 0.000000000000D+00 0.000000000000D+00 0.622798482757D-05 0.000000000000D+00  6 2 2 25 2 2 21 2 0.36230141D+00 0.12597602D+00 0.54768004D+06 0.54768004D+06 0.54768004D+06 0.10657259D+01  1  2  5  3  6  5        2 -.375914889885D-02 0.100000000000D+01
0.262566537945D-02 0.000000000000D+00 -.000000000000D+00 0.622798482757D-05 0.000000000000D+00  6 2 2 25 2 2 21 2 0.36230141D+00 0.12597602D+00 0.54768004D+06 0.54768004D+06 0.54768004D+06 0.10657259D+01  1  2  6  3  6  5        2 0.688529881911D-02 0.100000000000D+01
  </mgrwgt>
  </event>
  <event>
  5     66 0.18204334E-05 0.17251998E+03 0.75467711E-02 0.87303225E-01
        2 -1    0    0  501    0 0.00000000E+00 0.00000000E+00 0.17951354E+04 0.17951354E+04 0.32000000E+00 0.0000E+00 0.9000E+01
        2 -1    0    0  502    0 0.00000000E+00 0.00000000E+00 -.25564446E+04 0.25564446E+04 0.32000000E+00 0.0000E+00 0.9000E+01
       25  1    1    2    0    0 0.58537238E+03 0.36180209E+03 0.21827154E+03 0.73268618E+03 0.12500000E+03 0.0000E+00 0.9000E+01
        2  1    1    2  501    0 -.53924382E+03 -.19557589E+03 0.12538396E+04 0.13788212E+04 0.32000000E+00 0.0000E+00 0.9000E+01
        2  1    1    2  502    0 -.46128563E+02 -.16622620E+03 -.22334203E+04 0.22400727E+04 0.32000000E+00 0.0000E+00 0.9000E+01
#aMCatNLO 1  0  0  2  4 0.20896450D+03 0.00000000D+00  -5  6  0 0.00000000D+00 0.00000000D+00 0.00000000D+00 0.00000000D+00 0.00000000D+00
  <mgrwgt>
 0.4394324406D-02    7    2    0
 0.214223346275922D+04 0.000000000000000D+00 0.000000000000000D+00 0.214223346275922D+04
 0.214223346275922D+04 0.000000000000000D+00 0.000000000000000D+00 -.214223346275922D+04
 0.782980611372647D+03 0.585352624421522D+03 0.361805120156869D+03 0.351984371665269D+03
 0.162314455501462D+04 -.539220488656263D+03 -.195567434050558D+03 0.151841789037992D+04
 0.187834175913118D+04 -.461321357652585D+02 -.166237686106311D+03 -.187040226204519D+04
 0.000000000000000D+00 0.000000000000000D+00 0.000000000000000D+00 -.000000000000000D+00
 0.229178096812489D+04 0.000000000000000D+00 0.000000000000000D+00 0.229178096812489D+04
 0.237573107006859D+04 0.000000000000000D+00 0.000000000000000D+00 -.237573107006859D+04
 0.728488447710277D+03 0.535556602117859D+03 0.323042638793561D+03 0.351984371665269D+03
 0.167445318405785D+04 -.647861316979266D+03 -.280136198549143D+03 0.151841789037992D+04
 0.189648786241484D+04 -.170495581313446D+03 -.263045332928812D+03 -.187040226204519D+04
 0.368082544010514D+03 0.282800296174853D+03 0.220138892684394D+03 -.839501019436956D+02
0.433884516529D-02 0.000000000000D+00 0.000000000000D+00 0.836364245161D-05 0.000000000000D+00  6 2 2 25 2 2 21 0 0.27617468D+00 0.39329917D+00 0.52237742D+06 0.52237742D+06 0.52237742D+06 0.10671692D+01  1  2  2  2  6  2        2 0.205058771761D-02 0.100000000000D+01
0.989026131107D-03 0.000000000000D+00 -.166623078789D-04 0.836364245161D-05 0.000000000000D+00  6 2 2 25 2 2 21 2 0.27617468D+00 0.39329917D+00 0.52237742D+06 0.52237742D+06 0.52237742D+06 0.10671692D+01  1  2  3  2  6  2        2 0.532326995476D-03 0.100000000000D+01
-.290798081049D-02 0.000000000000D+00 0.000000000000D+00 0.836364245161D-05 0.000000000000D+00  6 2 2 25 2 2 21 2 0.27617468D+00 0.39329917D+00 0.52237742D+06 0.52237742D+06 0.52237742D+06 0.10671692D+01  1  2 15  2  6  2        2 -.156517268762D-02 0.100000000000D+01
-.761316273474D-04 0.000000000000D+00 0.000000000000D+00 0.836364245161D-05 0.000000000000D+00  6 2 2 25 2 2 21 2 0.27617468D+00 0.39329917D+00 0.52237742D+06 0.52237742D+06 0.52237742D+06 0.10671692D+01  1  2  4  2  6  2        2 -.409765921970D-04 0.100000000000D+01
-.147728935190D-01 0.000000000000D+00 -.589014648867D-02 0.836364245161D-05 0.000000000000D+00  6 2 2 25 2 2 21 2 0.27617468D+00 0.44686445D+00 0.52237742D+06 0.52237742D+06 0.52237742D+06 0.10671692D+01  1  2  5  2  6  2        2 -.488994585683D-02 0.100000000000D+01
0.154465791009D-01 0.000000000000D+00 0.584245580921D-02 0.836364245161D-05 0.000000000000D+00  6 2 2 25 2 2 21 2 0.27617468D+00 0.39329917D+00 0.52237742D+06 0.52237742D+06 0.52237742D+06 0.10671692D+01  1  2  6  2  6  2        2 0.831386632218D-02 0.100000000000D+01
-.264711064786D-03 0.000000000000D+00 -.117715458333D-03 0.836364245161D-05 0.000000000000D+00  6 2 21 25 2 2 -2 2 0.27617468D+00 0.44686445D+00 0.52237742D+06 0.52237742D+06 0.52237742D+06 0.10671692D+01  1  2  5  5  6  2        2 -.636149244979D-05 0.100000000000D+01
  </mgrwgt>
  </event>
  <event>
  5     66 0.18204334E-05 0.19491439E+03 0.75467711E-02 0.89744010E-01
        2 -1    0    0  501    0 0.00000000E+00 0.00000000E+00 0.16936743E+04 0.16936744E+04 0.32000000E+00 0.0000E+00 0.9000E+01
        2 -1    0    0  502    0 -.00000000E+00 -.00000000E+00 -.38477300E+04 0.38477300E+04 0.32000000E+00 0.0000E+00 0.9000E+01
       25  1    1    2    0    0 0.13404447E+03 -.44487610E+03 0.90975895E+03 0.10291594E+04 0.12500000E+03 0.0000E+00 0.9000E+01
        2  1    1    2  501    0 -.10080514E+03 0.25282917E+03 0.69602761E+03 0.74735453E+03 0.32000000E+00 0.0000E+00 0.9000E+01
        2  1    1    2  502    0 -.33239330E+02 0.19204694E+03 -.37598422E+04 0.37648905E+04 0.32000000E+00 0.0000E+00 0.9000E+01
#aMCatNLO 1  0  0  5  4 0.13006293D+03 0.00000000D+00  -5  6  0 0.00000000D+00 0.00000000D+00 0.00000000D+00 0.00000000D+00 0.00000000D+00
  <mgrwgt>
 0.5001274992D-03    6    2    0
 0.255280272254735D+04 0.000000000000000D+00 0.000000000000000D+00 0.255280272254735D+04
 0.255280272254735D+04 -.000000000000000D+00 -.000000000000000D+00 -.255280272254735D+04
 0.150099779870031D+04 0.134030333028879D+03 -.444847348009273D+03 0.142180030190616D+04
 0.110462252899300D+04 -.100788895545119D+03 0.252788431474993D+03 0.107057486380267D+04
 0.249998511740139D+04 -.332414374837601D+02 0.192058916534281D+03 -.249237516570883D+04
 0.000000000000000D+00 0.000000000000000D+00 0.000000000000000D+00 -.000000000000000D+00
 0.255280272254735D+04 0.000000000000000D+00 0.000000000000000D+00 0.255280272254735D+04
 0.255280272254735D+04 -.000000000000000D+00 -.000000000000000D+00 -.255280272254735D+04
 0.142471415034382D+04 0.132980946371296D+03 -.438784311036838D+03 0.134311943120484D+04
 0.104972844821513D+04 -.101561612480555D+03 0.257252954932499D+03 0.101263812442600D+04
 0.221296927447181D+04 -.404026029347263D+03 0.198788011161482D+03 -.216667471116101D+04
 0.418193572063932D+03 0.372606695456521D+03 -.172566550571412D+02 -.189082844469828D+03
0.102423822982D-01 0.000000000000D+00 0.000000000000D+00 0.555306461805D-04 0.000000000000D+00  6 2 2 25 2 2 21 0 0.26056529D+00 0.59195847D+00 0.22475976D+06 0.22475976D+06 0.22475976D+06 0.10939535D+01  1  2  2  3  6  5        2 0.824910373985D-03 0.100000000000D+01
0.727660006210D-03 0.000000000000D+00 -.393334449062D-04 0.555306461805D-04 0.000000000000D+00  6 2 2 25 2 2 21 2 0.26056529D+00 0.59195847D+00 0.22475976D+06 0.22475976D+06 0.22475976D+06 0.10939535D+01  1  2  3  3  6  5        2 0.701345447402D-04 0.100000000000D+01
-.758528728682D-02 0.000000000000D+00 0.000000000000D+00 0.555306461805D-04 0.000000000000D+00  6 2 2 25 2 2 21 2 0.26056529D+00 0.59195847D+00 0.22475976D+06 0.22475976D+06 0.22475976D+06 0.10939535D+01  1  2 15  3  6  5        2 -.731097856203D-03 0.100000000000D+01
-.106241307365D-03 0.000000000000D+00 0.000000000000D+00 0.555306461805D-04 0.000000000000D+00  6 2 2 25 2 2 21 2 0.26056529D+00 0.59195847D+00 0.22475976D+06 0.22475976D+06 0.22475976D+06 0.10939535D+01  1  2  4  3  6  5        2 -.102399275225D-04 0.100000000000D+01
-.198531552630D-01 0.000000000000D+00 0.000000000000D+00 0.555306461805D-04 0.000000000000D+00  6 2 2 25 2 2 21 2 0.26056529D+00 0.59195847D+00 0.22475976D+06 0.22475976D+06 0.22475976D+06 0.10939535D+01  1  2  5  3  6  5        2 -.191352004253D-02 0.100000000000D+01
0.234473362086D-01 0.000000000000D+00 -.000000000000D+00 0.555306461805D-04 0.000000000000D+00  6 2 2 25 2 2 21 2 0.26056529D+00 0.59195847D+00 0.22475976D+06 0.22475976D+06 0.22475976D+06 0.10939535D+01  1  2  6  3  6  5        2 0.225994040668D-02 0.100000000000D+01
  </mgrwgt>
  </event>
  <event>
  6     66 0.18204334E-05 0.66827515E+02 0.75467711E-02 0.93206832E-01
        2 -1    0    0  501    0 0.00000000E+00 0.00000000E+00 0.21815880E+04 0.21815880E+04 0.32000000E+00 0.0000E+00 0.9000E+01
        2 -1    0    0  502    0 0.00000000E+00 0.00000000E+00 -.28910036E+03 0.28910053E+03 0.32000000E+00 0.0000E+00 0.9000E+01
       25  1    1    2    0    0 -.49093686E+03 -.17095117E+02 0.44456116E+03 0.67421871E+03 0.12500000E+03 0.0000E+00 0.9000E+01
        2  1    1    2  501    0 0.54926519E+03 0.41815913E+02 0.12321713E+04 0.13496989E+04 0.32000000E+00 0.0000E+00 0.9000E+01
        2  1    1    2  503    0 0.64383013E+01 0.23427505E+01 -.11168263E+03 0.11189304E+03 0.32000000E+00 0.0000E+00 0.9000E+01
       21  1    1    2  502  503 -.64766627E+02 -.27063546E+02 0.32743781E+03 0.33487794E+03 0.75000000E+00 0.0000E+00 0.9000E+01
#aMCatNLO 2  0  0  5  5 0.10088934D+03 0.00000000D+00  -5  6  0 0.00000000D+00 0.00000000D+00 0.00000000D+00 0.00000000D+00 0.00000000D+00
  <mgrwgt>
 0.1562499556D-01    1    2    0
 0.794165047448652D+03 0.000000000000000D+00 0.000000000000000D+00 0.794165047448652D+03
 0.794165047448652D+03 -.000000000000000D+00 -.000000000000000D+00 -.794165047448652D+03
 0.486556025058587D+03 -.468720427502453D+03 -.766901900731082D+01 -.367982677608064D+02
 0.710914948265525D+03 0.579041444523446D+03 0.544237859421094D+02 0.408838746592470D+03
 0.390859121573192D+03 -.110321017020994D+03 -.467547669347986D+02 -.372040478831664D+03
 0.000000000000000D+00 0.000000000000000D+00 0.000000000000000D+00 0.000000000000000D+00
 0.794165047448652D+03 0.000000000000000D+00 0.000000000000000D+00 0.794165047448652D+03
 0.794165047448652D+03 -.000000000000000D+00 -.000000000000000D+00 -.794165047448652D+03
 0.519226136300616D+03 -.491038851131305D+03 -.171277125844424D+02 -.112063681712402D+03
 0.631300220934888D+03 0.549257533157585D+03 0.418011699445381D+02 0.308397135870860D+03
 0.306835637184653D+03 0.676775760671144D+01 0.248130954477385D+01 -.306750955673217D+03
 0.130968100477147D+03 -.649864396329918D+02 -.271547669048696D+02 0.110417501514759D+03
0.133398946216D-02 0.000000000000D+00 0.000000000000D+00 0.101734596080D-06 0.792831318552D-09  6 2 2 25 2 2 21 2 0.33562894D+00 0.44476993D-01 0.32232558D+06 0.32232558D+06 0.32232558D+06 0.10822530D+01  1  2  1  3  6  5        2 0.156249955588D-01 0.100000000000D+01
  </mgrwgt>
  </event>
  <event>
  5     66 0.18204334E-05 0.65861178E+02 0.75467711E-02 0.85390861E-01
        2 -1    0    0  501    0 0.00000000E+00 0.00000000E+00 0.22263948E+04 0.22263949E+04 0.32000000E+00 0.0000E+00 0.9000E+01
        2 -1    0    0  502    0 0.00000000E+00 0.00000000E+00 -.83321032E+03 0.83321038E+03 0.32000000E+00 0.0000E+00 0.9000E+01
       25  1    1    2    0    0 0.16605322E+03 -.71777830E+03 0.11288562E+03 0.75574303E+03 0.12500000E+03 0.0000E+00 0.9000E+01
        2  1    1    2  501    0 0.11944883E+02 0.64774754E+02 0.15673103E+04 0.15686938E+04 0.32000000E+00 0.0000E+00 0.9000E+01
        2  1    1    2  502    0 -.17799810E+03 0.65300354E+03 -.28701143E+03 0.73516843E+03 0.32000000E+00 0.0000E+00 0.9000E+01
#aMCatNLO 1  0  0  2  2 0.24159395D+03 0.00000000D+00  -5  6  0 0.00000000D+00 0.00000000D+00 0.00000000D+00 0.00000000D+00 0.00000000D+00
  <mgrwgt>
 0.2064684714D-02    7    2    0
 0.136200414178136D+04 0.000000000000000D+00 0.000000000000000D+00 0.136200414178136D+04
 0.136200414178136D+04 0.000000000000000D+00 0.000000000000000D+00 -.136200414178136D+04
 0.791158872339377D+03 0.166072262892474D+03 -.717845773272998D+03 -.259662878696935D+03
 0.960277443657360D+03 0.119438445648296D+02 0.647691231146524D+02 0.958016218059530D+03
 0.972571967565992D+03 -.178016107457303D+03 0.653076650158346D+03 -.698353339362595D+03
 0.000000000000000D+00 0.000000000000000D+00 0.000000000000000D+00 -.000000000000000D+00
 0.169169584728000D+04 0.000000000000000D+00 0.000000000000000D+00 0.169169584728000D+04
 0.191044891499845D+04 0.000000000000000D+00 0.000000000000000D+00 -.191044891499845D+04
 0.881986864876143D+03 -.272211465484688D+02 -.833132659557562D+03 -.259662878696935D+03
 0.983768124209603D+03 -.212645793721506D+03 -.691839183506282D+02 0.958016218059530D+03
 0.958647756436020D+03 -.401124015231783D+03 0.520007364106759D+03 -.698353339362595D+03
 0.777742016756687D+03 0.640990955501758D+03 0.382309213801431D+03 -.218753067718452D+03
0.583420512549D-03 0.000000000000D+00 0.000000000000D+00 0.284844487052D-05 0.000000000000D+00  6 2 2 25 2 2 21 0 0.34252229D+00 0.12818621D+00 0.55509851D+06 0.55509851D+06 0.55509851D+06 0.10653165D+01  1  2  2  2  6  2        2 0.155653124998D-02 0.100000000000D+01
0.273281252715D-03 0.000000000000D+00 -.224048838634D-05 0.284844487052D-05 0.000000000000D+00  6 2 2 25 2 2 21 2 0.34252229D+00 0.12818621D+00 0.55509851D+06 0.55509851D+06 0.55509851D+06 0.10653165D+01  1  2  3  2  6  2        2 0.827452899145D-03 0.100000000000D+01
-.371108980865D-03 0.000000000000D+00 0.000000000000D+00 0.284844487052D-05 0.000000000000D+00  6 2 2 25 2 2 21 2 0.34252229D+00 0.12818621D+00 0.55509851D+06 0.55509851D+06 0.55509851D+06 0.10653165D+01  1  2 15  2  6  2        2 -.112365996227D-02 0.100000000000D+01
-.410760198977D-04 0.000000000000D+00 0.000000000000D+00 0.284844487052D-05 0.000000000000D+00  6 2 2 25 2 2 21 2 0.34252229D+00 0.12818621D+00 0.55509851D+06 0.55509851D+06 0.55509851D+06 0.10653165D+01  1  2  4  2  6  2        2 -.124371765030D-03 0.100000000000D+01
-.216327953991D-03 0.000000000000D+00 -.381100383277D-03 0.284844487052D-05 0.000000000000D+00  6 2 2 25 2 2 21 2 0.34252229D+00 0.21491498D+00 0.55509851D+06 0.55509851D+06 0.55509851D+06 0.10653165D+01  1  2  5  2  6  2        2 -.297038225516D-03 0.100000000000D+01
0.403902522819D-03 0.000000000000D+00 0.335322924940D-03 0.284844487052D-05 0.000000000000D+00  6 2 2 25 2 2 21 2 0.34252229D+00 0.12818621D+00 0.55509851D+06 0.55509851D+06 0.55509851D+06 0.10653165D+01  1  2  6  2  6  2        2 0.122295367925D-02 0.100000000000D+01
0.530539538070D-05 0.000000000000D+00 -.220609163971D-04 0.284844487052D-05 0.000000000000D+00  6 2 21 25 2 2 -2 2 0.34252229D+00 0.21491498D+00 0.55509851D+06 0.55509851D+06 0.55509851D+06 0.10653165D+01  1  2  5  5  6  2        2 0.281683872698D-05 0.100000000000D+01
  </mgrwgt>
  </event>
  <event>
  5     66 0.18204334E-05 0.73836067E+02 0.75467711E-02 0.92139745E-01
        2 -1    0    0  501    0 0.00000000E+00 0.00000000E+00 0.66675153E+03 0.66675161E+03 0.32000000E+00 0.0000E+00 0.9000E+01
        2 -1    0    0  502    0 0.00000000E+00 0.00000000E+00 -.15994704E+04 0.15994704E+04 0.32000000E+00 0.0000E+00 0.9000E+01
       25  1    1    2    0    0 -.10674628E+03 -.47262214E+03 -.35218889E+03 0.61190560E+03 0.12500000E+03 0.0000E+00 0.9000E+01
        2  1    1    2  501    0 0.14797379E+03 0.41137738E+03 0.44635063E+03 0.62478523E+03 0.32000000E+00 0.0000E+00 0.9000E+01
        2  1    1    2  502    0 -.41227505E+02 0.61244761E+02 -.10268806E+04 0.10295312E+04 0.32000000E+00 0.0000E+00 0.9000E+01
#aMCatNLO 1  0  0  1  4 0.12670402D+04 0.00000000D+00  -5  6  0 0.00000000D+00 0.00000000D+00 0.00000000D+00 0.00000000D+00 0.00000000D+00
  <mgrwgt>
 0.3853622270D-02    7    2    0
 0.103269040609705D+04 0.000000000000000D+00 0.000000000000000D+00 0.103269040609705D+04
 0.103269040609705D+04 0.000000000000000D+00 0.000000000000000D+00 -.103269040609705D+04
 0.512337892480292D+03 -.106737839751266D+03 -.472616123745305D+03 -.110027947414931D+03
 0.887083435268877D+03 0.147969224214461D+03 0.411364692996500D+03 0.771881609555311D+03
 0.665959484444932D+03 -.412313844631949D+02 0.612514307488046D+02 -.661853662140380D+03
 0.000000000000000D+00 0.000000000000000D+00 0.000000000000000D+00 0.000000000000000D+00
 0.124473189225502D+04 0.000000000000000D+00 0.000000000000000D+00 0.124473189225502D+04
 0.111039210420799D+04 0.000000000000000D+00 0.000000000000000D+00 -.111039210420799D+04
 0.557788790842962D+03 -.157500386170466D+03 -.508518253687972D+03 -.110027947414931D+03
 0.851311568478677D+03 0.655066910883876D+02 0.353042548255274D+03 0.771881609555311D+03
 0.670272058893366D+03 -.104616885266579D+03 0.164216369963106D+02 -.661853662140380D+03
 0.275751578248009D+03 0.196610580348657D+03 0.139054068436387D+03 0.134339788047030D+03
0.344453714943D-03 0.000000000000D+00 0.000000000000D+00 0.791008050760D-05 0.000000000000D+00  6 2 2 25 2 2 21 0 0.10257717D+00 0.24607238D+00 0.25572633D+06 0.25572633D+06 0.25572633D+06 0.10897200D+01  1  2  2  1  6  1        2 0.282028993237D-02 0.100000000000D+01
0.100376877889D-03 0.000000000000D+00 -.132279296213D-05 0.791008050760D-05 0.000000000000D+00  6 2 2 25 2 2 21 2 0.10257717D+00 0.24607238D+00 0.25572633D+06 0.25572633D+06 0.25572633D+06 0.10897200D+01  1  2  3  1  6  1        2 0.975947330594D-03 0.100000000000D+01
-.244593807953D-03 0.000000000000D+00 0.000000000000D+00 0.791008050760D-05 0.000000000000D+00  6 2 2 25 2 2 21 2 0.10257717D+00 0.24607238D+00 0.25572633D+06 0.25572633D+06 0.25572633D+06 0.10897200D+01  1  2 15  1  6  1        2 -.237814404045D-02 0.100000000000D+01
-.609295579814D-04 0.000000000000D+00 0.000000000000D+00 0.791008050760D-05 0.000000000000D+00  6 2 2 25 2 2 21 2 0.10257717D+00 0.24607238D+00 0.25572633D+06 0.25572633D+06 0.25572633D+06 0.10897200D+01  1  2  4  1  6  1        2 -.592407740874D-03 0.100000000000D+01
-.996578623977D-03 0.000000000000D+00 -.394473104094D-03 0.791008050760D-05 0.000000000000D+00  6 2 2 25 2 2 21 2 0.12991040D+00 0.24607238D+00 0.25572633D+06 0.25572633D+06 0.25572633D+06 0.10897200D+01  1  2  5  1  6  1        2 -.720709507062D-02 0.100000000000D+01
0.107051245005D-02 0.000000000000D+00 0.383716675904D-03 0.791008050760D-05 0.000000000000D+00  6 2 2 25 2 2 21 2 0.10257717D+00 0.24607238D+00 0.25572633D+06 0.25572633D+06 0.25572633D+06 0.10897200D+01  1  2  6  1  6  1        2 0.104084106814D-01 0.100000000000D+01
-.263199274314D-04 0.000000000000D+00 -.128013792203D-04 0.791008050760D-05 0.000000000000D+00  6 21 2 25 2 2 -2 2 0.12991040D+00 0.24607238D+00 0.25572633D+06 0.25572633D+06 0.25572633D+06 0.10897200D+01  1  2  5  4  6  1        2 -.173378822437D-03 0.100000000000D+01
  </mgrwgt>
  </event>
  <event>
  5     66 0.18204334E-05 0.24779729E+03 0.75467711E-02 0.93512202E-01
        2 -1    0    0  501    0 0.00000000E+00 0.00000000E+00 0.63411297E+03 0.63411305E+03 0.32000000E+00 0.0000E+00 0.9000E+01
        2 -1    0    0  502    0 -.00000000E+00 -.00000000E+00 -.10360231E+04 0.10360231E+04 0.32000000E+00 0.0000E+00 0.9000E+01
       25  1    1    2    0    0 -.38363721E+03 0.26793305E+03 0.20695176E+03 0.52670642E+03 0.12500000E+03 0.0000E+00 0.9000E+01
        2  1    1    2  501    0 0.14751557E+03 -.34294643E+03 0.10498846E+03 0.38780894E+03 0.32000000E+00 0.0000E+00 0.9000E+01
        2  1    1    2  502    0 0.23612164E+03 0.75013379E+02 -.71385032E+03 0.75562081E+03 0.32000000E+00 0.0000E+00 0.9000E+01
#aMCatNLO 1  0  0  5  2 0.26606971D+02 0.00000000D+00  -5  6  0 0.00000000D+00 0.00000000D+00 0.00000000D+00 0.00000000D+00 0.00000000D+00
  <mgrwgt>
 0.1397458784D-02    8    2    0
 0.810528087149524D+03 0.000000000000000D+00 0.000000000000000D+00 0.810528087149524D+03
 0.810528087149524D+03 -.000000000000000D+00 -.000000000000000D+00 -.810528087149524D+03
 0.594000653466752D+03 -.383636832267921D+03 0.267817473539286D+03 0.343959820492739D+03
 0.425442354245471D+03 0.147467777925259D+03 -.342835317636461D+03 0.204250816989362D+03
 0.601613166586825D+03 0.236169054342662D+03 0.750178440971746D+02 -.548210637482101D+03
 0.000000000000000D+00 0.000000000000000D+00 0.000000000000000D+00 0.000000000000000D+00
 0.810528087149524D+03 0.000000000000000D+00 0.000000000000000D+00 0.810528087149524D+03
 0.810528087149524D+03 -.000000000000000D+00 -.000000000000000D+00 -.810528087149524D+03
 0.593365496921995D+03 -.383292739136989D+03 0.267926772892341D+03 0.343161089620963D+03
 0.425190375949487D+03 0.147714287293334D+03 -.342757015246699D+03 0.203678603757641D+03
 0.263941390130713D+03 0.800856181858960D+02 0.250709847814386D+02 -.250245473297730D+03
 0.338558911296852D+03 0.155492833657759D+03 0.497592575729198D+02 -.296594220080874D+03
0.428106689101D-05 0.000000000000D+00 0.000000000000D+00 0.229571837446D-07 0.000000000000D+00  6 2 2 25 2 2 21 0 0.97555852D-01 0.15938818D+00 0.30541359D+06 0.30541359D+06 0.30541359D+06 0.10839777D+01  1  2  2  3  6  5        2 0.772503999413D-04 0.100000000000D+01
0.201238521313D-06 0.000000000000D+00 -.164404240923D-07 0.229571837446D-07 0.000000000000D+00  6 2 2 25 2 2 21 2 0.97555852D-01 0.15938818D+00 0.30541359D+06 0.30541359D+06 0.30541359D+06 0.10839777D+01  1  2  3  3  6  5        2 0.426678271612D-05 0.100000000000D+01
-.241622165886D-05 0.000000000000D+00 0.000000000000D+00 0.229571837446D-07 0.000000000000D+00  6 2 2 25 2 2 21 2 0.97555852D-01 0.15938818D+00 0.30541359D+06 0.30541359D+06 0.30541359D+06 0.10839777D+01  1  2 15  3  6  5        2 -.512302154929D-04 0.100000000000D+01
0.763257711439D-04 0.000000000000D+00 0.000000000000D+00 0.229571837446D-07 0.000000000000D+00  6 2 2 25 2 2 21 2 0.97555852D-01 0.15938818D+00 0.30496884D+06 0.30496884D+06 0.30496884D+06 0.10840244D+01  1  2 12  3  6  5        2 0.161853263379D-02 0.100000000000D+01
0.191270834089D-07 0.000000000000D+00 0.000000000000D+00 0.229571837446D-07 0.000000000000D+00  6 2 2 25 2 2 21 2 0.97555852D-01 0.15938818D+00 0.30496884D+06 0.30496884D+06 0.30496884D+06 0.10840244D+01  1  2 12  3  6  5        2 0.405600994562D-06 0.100000000000D+01
-.648522311526D-04 0.000000000000D+00 0.000000000000D+00 0.229571837446D-07 0.000000000000D+00  6 2 2 25 2 2 21 2 0.97555852D-01 0.15938818D+00 0.30541359D+06 0.30541359D+06 0.30541359D+06 0.10839777D+01  1  2  4  3  6  5        2 -.137503683280D-02 0.100000000000D+01
-.780235660737D-04 0.000000000000D+00 0.000000000000D+00 0.229571837446D-07 0.000000000000D+00  6 2 2 25 2 2 21 2 0.97555852D-01 0.15938818D+00 0.30541359D+06 0.30541359D+06 0.30541359D+06 0.10839777D+01  1  2  5  3  6  5        2 -.165430356475D-02 0.100000000000D+01
0.131001486976D-03 0.000000000000D+00 -.000000000000D+00 0.229571837446D-07 0.000000000000D+00  6 2 2 25 2 2 21 2 0.97555852D-01 0.15938818D+00 0.30541359D+06 0.30541359D+06 0.30541359D+06 0.10839777D+01  1  2  6  3  6  5        2 0.277757397921D-02 0.100000000000D+01
  </mgrwgt>
  </event>
  <event>
  6     66 0.18204334E-05 0.18942701E+02 0.75467711E-02 0.90581911E-01
        2 -1    0    0  503    0 0.00000000E+00 0.00000000E+00 0.10450849E+04 0.10450850E+04 0.32000000E+00 0.0000E+00 0.9000E+01
        2 -1    0    0  502    0 0.00000000E+00 0.00000000E+00 -.14794223E+04 0.14794224E+04 0.32000000E+00 0.0000E+00 0.9000E+01
       25  1    1    2    0    0 0.29519987E+03 -.63289796E+03 -.33180685E+03 0.78321363E+03 0.12500000E+03 0.0000E+00 0.9000E+01
        2  1    1    2  501    0 -.32856479E+03 0.62695750E+03 0.36998488E+03 0.79869859E+03 0.32000000E+00 0.0000E+00 0.9000E+01
        2  1    1    2  502    0 0.10315901E+02 -.12256901E+01 -.70689669E+03 0.70697310E+03 0.32000000E+00 0.0000E+00 0.9000E+01
       21  1    1    2  503  501 0.23049019E+02 0.71661568E+01 0.23438123E+03 0.23562202E+03 0.75000000E+00 0.0000E+00 0.9000E+01
#aMCatNLO 2  0  0  1  5 0.24137338D+02 0.00000000D+00  -5  6  0 0.00000000D+00 0.00000000D+00 0.00000000D+00 0.00000000D+00 0.00000000D+00
  <mgrwgt>
 0.1448307406D-01    1    2    0
 0.109444377411142D+04 0.000000000000000D+00 0.000000000000000D+00 0.109444377411142D+04
 0.109444377411142D+04 0.000000000000000D+00 0.000000000000000D+00 -.109444377411142D+04
 0.718630790786043D+03 0.302751179959417D+03 -.630529632386307D+03 -.107607245024406D+03
 0.946785614677963D+03 -.318579173014002D+03 0.630041825903049D+03 0.630838813244394D+03
 0.523471142758842D+03 0.158279930545853D+02 0.487806483258510D+00 -.523231568219987D+03
 0.000000000000000D+00 0.000000000000000D+00 0.000000000000000D+00 0.000000000000000D+00
 0.141202239085240D+04 0.000000000000000D+00 0.000000000000000D+00 0.141202239085240D+04
 0.109496904545595D+04 0.000000000000000D+00 0.000000000000000D+00 -.109496904545595D+04
 0.717550786277550D+03 0.295189902793817D+03 -.632880504514371D+03 -.107607245024406D+03
 0.948135139054582D+03 -.328555642044550D+03 0.626940047927351D+03 0.630838813244394D+03
 0.523334702680772D+03 0.103167197850019D+02 -.122570016857388D+01 -.523231568219987D+03
 0.317970808295442D+03 0.230490194657310D+02 0.716615675559303D+01 0.317053345396448D+03
0.251540727325D-02 0.000000000000D+00 0.000000000000D+00 0.302688050791D-05 0.334910897459D-07  6 2 2 25 2 2 21 2 0.16078223D+00 0.22760335D+00 0.52691504D+06 0.52691504D+06 0.52691504D+06 0.10669048D+01  1  2  1  1  6  1        2 0.144830740615D-01 0.100000000000D+01
  </mgrwgt>
  </event>
  <event>
  5     66 0.18204334E-05 0.39084369E+02 0.75467711E-02 0.93799554E-01
        2 -1    0    0  501    0 0.00000000E+00 0.00000000E+00 0.12855933E+04 0.12855934E+04 0.32000000E+00 0.0000E+00 0.9000E+01
        2 -1    0    0  502    0 0.00000000E+00 0.00000000E+00 -.11285363E+04 0.11285364E+04 0.32000000E+00 0.0000E+00 0.9000E+01
       25  1    1    2    0    0 0.19980170E+03 -.41157008E+03 -.39989546E+03 0.62036443E+03 0.12500000E+03 0.0000E+00 0.9000E+01
        2  1    1    2  501    0 -.21883367E+03 0.44570991E+03 0.11222133E+04 0.12271546E+04 0.32000000E+00 0.0000E+00 0.9000E+01
        2  1    1    2  502    0 0.19031970E+02 -.34139829E+02 -.56526088E+03 0.56661073E+03 0.32000000E+00 0.0000E+00 0.9000E+01
#aMCatNLO 1  0  0  2  5 0.34180892D+01 0.00000000D+00  -5  6  0 0.00000000D+00 0.00000000D+00 0.00000000D+00 0.00000000D+00 0.00000000D+00
  <mgrwgt>
 0.1727673406D-01    7    2    0
 0.120450773943565D+04 0.000000000000000D+00 0.000000000000000D+00 0.120450773943565D+04
 0.120450773943565D+04 0.000000000000000D+00 0.000000000000000D+00 -.120450773943565D+04
 0.647777563280774D+03 0.199803451525723D+03 -.411573418604172D+03 -.441221796092238D+03
 0.115660062605191D+04 -.218834454353076D+03 0.445711502876980D+03 0.104459453663840D+04
 0.604637289538629D+03 0.190310028273522D+02 -.341380842728077D+02 -.603372740546164D+03
 0.000000000000000D+00 -.000000000000000D+00 0.000000000000000D+00 -.000000000000000D+00
 0.122601078049585D+04 0.000000000000000D+00 0.000000000000000D+00 0.122601078049585D+04
 0.125353606645666D+04 0.000000000000000D+00 0.000000000000000D+00 -.125353606645666D+04
 0.660106631646063D+03 0.208865073930916D+03 -.426397083348473D+03 -.441221796092238D+03
 0.114387074724824D+04 -.202895732087251D+03 0.419637775154038D+03 0.104459453663840D+04
 0.605888463526572D+03 0.274180812312256D+02 -.478582806001164D+02 -.603372740546164D+03
 0.696810045316296D+02 -.333874230748909D+02 0.546175887945513D+02 -.275252859608131D+02
0.105502745438D-02 0.000000000000D+00 0.000000000000D+00 0.227759622361D-04 0.000000000000D+00  6 2 2 25 2 2 21 0 0.19778360D+00 0.17362098D+00 0.25497303D+06 0.25497303D+06 0.25497303D+06 0.10898162D+01  1  2  2  2  6  2        2 0.636396389511D-02 0.100000000000D+01
0.435856558056D-03 0.000000000000D+00 -.405158321994D-05 0.227759622361D-04 0.000000000000D+00  6 2 2 25 2 2 21 2 0.19778360D+00 0.17362098D+00 0.25497303D+06 0.25497303D+06 0.25497303D+06 0.10898162D+01  1  2  3  2  6  2        2 0.312258318755D-02 0.100000000000D+01
-.814355657217D-03 0.000000000000D+00 0.000000000000D+00 0.227759622361D-04 0.000000000000D+00  6 2 2 25 2 2 21 2 0.19778360D+00 0.17362098D+00 0.25497303D+06 0.25497303D+06 0.25497303D+06 0.10898162D+01  1  2 15  2  6  2        2 -.583424348426D-02 0.100000000000D+01
-.531143278478D-04 0.000000000000D+00 0.000000000000D+00 0.227759622361D-04 0.000000000000D+00  6 2 2 25 2 2 21 2 0.19778360D+00 0.17362098D+00 0.25497303D+06 0.25497303D+06 0.25497303D+06 0.10898162D+01  1  2  4  2  6  2        2 -.380524060244D-03 0.100000000000D+01
-.243451936196D-01 0.000000000000D+00 -.471369159720D-02 0.227759622361D-04 0.000000000000D+00  6 2 2 25 2 2 21 2 0.19778360D+00 0.18261877D+00 0.25497303D+06 0.25497303D+06 0.25497303D+06 0.10898162D+01  1  2  5  2  6  2        2 -.161197302227D+00 0.100000000000D+01
0.245580148369D-01 0.000000000000D+00 0.470768123126D-02 0.227759622361D-04 0.000000000000D+00  6 2 2 25 2 2 21 2 0.19778360D+00 0.17362098D+00 0.25497303D+06 0.25497303D+06 0.25497303D+06 0.10898162D+01  1  2  6  2  6  2        2 0.175939636176D+00 0.100000000000D+01
-.209894648896D-03 0.000000000000D+00 -.414591402358D-04 0.227759622361D-04 0.000000000000D+00  6 2 21 25 2 2 -2 2 0.19778360D+00 0.18261877D+00 0.25497303D+06 0.25497303D+06 0.25497303D+06 0.10898162D+01  1  2  5  5  6  2        2 -.737379429433D-03 0.100000000000D+01
  </mgrwgt>
  </event>
  <event>
  5     66 0.18204334E-05 0.50219570E+02 0.75467711E-02 0.91463693E-01
        2 -1    0    0  501    0 0.00000000E+00 0.00000000E+00 0.23327923E+04 0.23327923E+04 0.32000000E+00 0.0000E+00 0.9000E+01
        2 -1    0    0  502    0 0.00000000E+00 0.00000000E+00 -.15538487E+04 0.15538487E+04 0.32000000E+00 0.0000E+00 0.9000E+01
       25  1    1    2    0    0 -.28386300E+03 0.35011035E+03 -.48005307E+03 0.67024727E+03 0.12500000E+03 0.0000E+00 0.9000E+01
        2  1    1    2  501    0 0.49877656E+02 0.58523799E+01 0.21910418E+04 0.21916173E+04 0.32000000E+00 0.0000E+00 0.9000E+01
        2  1    1    2  502    0 0.23398534E+03 -.35596273E+03 -.93204514E+03 0.10247765E+04 0.32000000E+00 0.0000E+00 0.9000E+01
#aMCatNLO 1  0  0  1  5 0.31675131D+02 0.00000000D+00  -5  6  0 0.00000000D+00 0.00000000D+00 0.00000000D+00 0.00000000D+00 0.00000000D+00
  <mgrwgt>
 0.5847706974D-01    7    2    0
 0.190389241732153D+04 0.000000000000000D+00 0.000000000000000D+00 0.190389241732153D+04
 0.190389241732153D+04 0.000000000000000D+00 0.000000000000000D+00 -.190389241732153D+04
 0.782332409589828D+03 -.283873123530907D+03 0.350124965897599D+03 -.627094536004452D+03
 0.178878196221335D+04 0.498774018578617D+02 0.585235008774851D+01 0.178807687282236D+04
 0.123667046283988D+04 0.233995721673046D+03 -.355977315985347D+03 -.116098233681791D+04
 0.000000000000000D+00 0.000000000000000D+00 -.000000000000000D+00 0.000000000000000D+00
 0.225308878498938D+04 0.000000000000000D+00 0.000000000000000D+00 0.225308878498938D+04
 0.199345394264378D+04 0.000000000000000D+00 0.000000000000000D+00 -.199345394264378D+04
 0.824562967514666D+03 -.319291618108764D+03 0.411198726792096D+03 -.627094536004452D+03
 0.179394411784442D+04 -.290915005663445D+02 0.142022108916856D+03 0.178807687282236D+04
 0.120400717099534D+04 0.180199358342872D+03 -.263213739492896D+03 -.116098233681791D+04
 0.424028471278740D+03 0.168183760332237D+03 -.290007096216056D+03 0.259634842345602D+03
0.285921333881D-01 0.000000000000D+00 0.000000000000D+00 0.170111198575D-03 0.000000000000D+00  6 2 2 25 2 2 21 0 0.35889112D+00 0.23905365D+00 0.22277166D+06 0.22277166D+06 0.22277166D+06 0.10942467D+01  1  2  2  1  6  1        2 0.266740274236D-01 0.100000000000D+01
0.138710800665D-01 0.000000000000D+00 -.109801320692D-03 0.170111198575D-03 0.000000000000D+00  6 2 2 25 2 2 21 2 0.35889112D+00 0.23905365D+00 0.22277166D+06 0.22277166D+06 0.22277166D+06 0.10942467D+01  1  2  3  1  6  1        2 0.154946876934D-01 0.100000000000D+01
-.200141850334D-01 0.000000000000D+00 0.000000000000D+00 0.170111198575D-03 0.000000000000D+00  6 2 2 25 2 2 21 2 0.35889112D+00 0.23905365D+00 0.22277166D+06 0.22277166D+06 0.22277166D+06 0.10942467D+01  1  2 15  1  6  1        2 -.223568420802D-01 0.100000000000D+01
-.358432886457D-03 0.000000000000D+00 0.000000000000D+00 0.170111198575D-03 0.000000000000D+00  6 2 2 25 2 2 21 2 0.35889112D+00 0.23905365D+00 0.22277166D+06 0.22277166D+06 0.22277166D+06 0.10942467D+01  1  2  4  1  6  1        2 -.400387396514D-03 0.100000000000D+01
-.651734453585D-01 0.000000000000D+00 -.291377375001D-01 0.170111198575D-03 0.000000000000D+00  6 2 2 25 2 2 21 2 0.43087178D+00 0.23905365D+00 0.22277166D+06 0.22277166D+06 0.22277166D+06 0.10942467D+01  1  2  5  1  6  1        2 -.388417027030D-01 0.100000000000D+01
0.698101502620D-01 0.000000000000D+00 0.286576380620D-01 0.170111198575D-03 0.000000000000D+00  6 2 2 25 2 2 21 2 0.35889112D+00 0.23905365D+00 0.22277166D+06 0.22277166D+06 0.22277166D+06 0.10942467D+01  1  2  6  1  6  1        2 0.779814168001D-01 0.100000000000D+01
-.145256297849D-02 0.000000000000D+00 -.777771001307D-03 0.170111198575D-03 0.000000000000D+00  6 21 2 25 2 2 -2 2 0.43087178D+00 0.23905365D+00 0.22277166D+06 0.22277166D+06 0.22277166D+06 0.10942467D+01  1  2  5  4  6  1        2 -.741299971429D-04 0.100000000000D+01
  </mgrwgt>
  </event>
  <event>
  5     66 0.18204334E-05 0.11167064E+03 0.75467711E-02 0.84118633E-01
        2 -1    0    0  501    0 0.00000000E+00 0.00000000E+00 0.39720217E+04 0.39720217E+04 0.32000000E+00 0.0000E+00 0.9000E+01
        2 -1    0    0  502    0 0.00000000E+00 0.00000000E+00 -.10906503E+04 0.10906504E+04 0.32000000E+00 0.0000E+00 0.9000E+01
       25  1    1    2    0    0 -.70103719E+03 -.56833235E+03 0.12084892E+04 0.15134484E+04 0.12500000E+03 0.0000E+00 0.9000E+01
        2  1    1    2  501    0 -.93594856E+01 -.11128898E+03 0.23518014E+04 0.23544517E+04 0.32000000E+00 0.0000E+00 0.9000E+01
        2  1    1    2  502    0 0.71039668E+03 0.67962133E+03 -.67891929E+03 0.11947720E+04 0.32000000E+00 0.0000E+00 0.9000E+01
#aMCatNLO 1  0  0  1  4 0.18570155D+03 0.00000000D+00  -5  6  0 0.00000000D+00 0.00000000D+00 0.00000000D+00 0.00000000D+00 0.00000000D+00
  <mgrwgt>
 0.1183796144D-02    7    2    0
 0.208136661337872D+04 0.000000000000000D+00 0.000000000000000D+00 0.208136661337872D+04
 0.208136661337872D+04 0.000000000000000D+00 0.000000000000000D+00 -.208136661337872D+04
 0.100425566025468D+04 -.701090259392792D+03 -.568390560772148D+03 0.422266562449869D+03
 0.123545915082485D+04 -.935854533065824D+01 -.111277798547298D+03 0.123040195974187D+04
 0.192301841567791D+04 0.710448804723450D+03 0.679668359319446D+03 -.165266852219174D+04
 0.000000000000000D+00 0.000000000000000D+00 -.000000000000000D+00 0.000000000000000D+00
 0.266733813623108D+04 0.000000000000000D+00 0.000000000000000D+00 0.266733813623108D+04
 0.235694638609077D+04 0.000000000000000D+00 0.000000000000000D+00 -.235694638609077D+04
 0.112663274857690D+04 -.885410749777499D+03 -.539828773391301D+03 0.422266562449869D+03
 0.125316241716103D+04 -.224622726172787D+03 -.779210634871178D+02 0.123040195974187D+04
 0.184721861613774D+04 0.384325702410509D+03 0.730203482619103D+03 -.165266852219174D+04
 0.797270740446177D+03 0.725707773539776D+03 -.112453645740684D+03 0.310391750140311D+03
0.537441890188D-02 0.000000000000D+00 0.000000000000D+00 0.203852335946D-05 0.000000000000D+00  6 2 2 25 2 2 21 0 0.61108027D+00 0.16779236D+00 0.10060463D+07 0.10060463D+07 0.10060463D+07 0.10476897D+01  1  2  2  1  6  1        2 0.634940091919D-03 0.100000000000D+01
0.185658916393D-02 0.000000000000D+00 -.206391837002D-04 0.203852335946D-05 0.000000000000D+00  6 2 2 25 2 2 21 2 0.61108027D+00 0.16779236D+00 0.10060463D+07 0.10060463D+07 0.10060463D+07 0.10476897D+01  1  2  3  1  6  1        2 0.240758941158D-03 0.100000000000D+01
-.307732543090D-02 0.000000000000D+00 0.000000000000D+00 0.203852335946D-05 0.000000000000D+00  6 2 2 25 2 2 21 2 0.61108027D+00 0.16779236D+00 0.10060463D+07 0.10060463D+07 0.10060463D+07 0.10476897D+01  1  2 15  1  6  1        2 -.399061691589D-03 0.100000000000D+01
-.653614800157D-04 0.000000000000D+00 0.000000000000D+00 0.203852335946D-05 0.000000000000D+00  6 2 2 25 2 2 21 2 0.61108027D+00 0.16779236D+00 0.10060463D+07 0.10060463D+07 0.10060463D+07 0.10476897D+01  1  2  4  1  6  1        2 -.847595204520D-05 0.100000000000D+01
-.489133829227D-02 0.000000000000D+00 -.245268937988D-02 0.203852335946D-05 0.000000000000D+00  6 2 2 25 2 2 21 2 0.79385839D+00 0.16779236D+00 0.10060463D+07 0.10060463D+07 0.10060463D+07 0.10476897D+01  1  2  5  1  6  1        2 -.334901215088D-04 0.100000000000D+01
0.577684010764D-02 0.000000000000D+00 0.272369489624D-02 0.203852335946D-05 0.000000000000D+00  6 2 2 25 2 2 21 2 0.61108027D+00 0.16779236D+00 0.10060463D+07 0.10060463D+07 0.10060463D+07 0.10476897D+01  1  2  6  1  6  1        2 0.749129605288D-03 0.100000000000D+01
-.126912522301D-03 0.000000000000D+00 -.858402431149D-04 0.203852335946D-05 0.000000000000D+00  6 21 2 25 2 2 -2 2 0.79385839D+00 0.16779236D+00 0.10060463D+07 0.10060463D+07 0.10060463D+07 0.10476897D+01  1  2  5  4  6  1        2 -.472896093223D-08 0.100000000000D+01
  </mgrwgt>
  </event>
  <event>
  5     66 0.18204334E-05 0.52661970E+02 0.75467711E-02 0.93333018E-01
        2 -1    0    0  501    0 0.00000000E+00 0.00000000E+00 0.97089191E+03 0.97089197E+03 0.32000000E+00 0.0000E+00 0.9000E+01
        2 -1    0    0  502    0 0.00000000E+00 0.00000000E+00 -.22951142E+04 0.22951142E+04 0.32000000E+00 0.0000E+00 0.9000E+01
       25  1    1    2    0    0 0.14650579E+03 0.44367367E+03 -.21442551E+03 0.52906859E+03 0.12500000E+03 0.0000E+00 0.9000E+01
        2  1    1    2  501    0 -.46396340E+02 -.24917527E+02 0.78858549E+03 0.79034213E+03 0.32000000E+00 0.0000E+00 0.9000E+01
        2  1    1    2  502    0 -.10010945E+03 -.41875614E+03 -.18983823E+04 0.19465955E+04 0.32000000E+00 0.0000E+00 0.9000E+01
#aMCatNLO 1  0  0  2  4 0.19722204D+03 0.00000000D+00  -5  6  0 0.00000000D+00 0.00000000D+00 0.00000000D+00 0.00000000D+00 0.00000000D+00
  <mgrwgt>
 0.2786774131D-01    7    2    0
 0.149275180579753D+04 0.000000000000000D+00 0.000000000000000D+00 0.149275180579753D+04
 0.149275180579753D+04 0.000000000000000D+00 0.000000000000000D+00 -.149275180579753D+04
 0.483704391989441D+03 0.146513587175414D+03 0.443710138108651D+03 0.144715128268047D+00
 0.121432797334804D+04 -.463944961435960D+02 -.249165371001412D+02 0.121318553558888D+04
 0.128747124625758D+04 -.100119091031818D+03 -.418793601008510D+03 -.121333025071714D+04
 0.000000000000000D+00 -.000000000000000D+00 -.000000000000000D+00 -.000000000000000D+00
 0.153110857353588D+04 0.000000000000000D+00 0.000000000000000D+00 0.153110857353588D+04
 0.177302097065694D+04 0.000000000000000D+00 0.000000000000000D+00 -.177302097065694D+04
 0.503227882162528D+03 0.177397846226552D+03 0.454030048121812D+03 0.144715128268047D+00
 0.121354621930897D+04 0.295814319655759D+02 0.470659010174021D+00 0.121318553558888D+04
 0.127523665163659D+04 -.199237861827913D+02 -.391996509061133D+03 -.121333025071714D+04
 0.312118791084729D+03 -.187055492009337D+03 -.625041980708526D+02 -.241912397121060D+03
0.450797025703D-02 0.000000000000D+00 0.000000000000D+00 0.108376079777D-03 0.000000000000D+00  6 2 2 25 2 2 21 0 0.14936799D+00 0.35309450D+00 0.23375348D+06 0.23375348D+06 0.23375348D+06 0.10926613D+01  1  2  2  2  6  2        2 0.950567294800D-02 0.100000000000D+01
0.205440206012D-02 0.000000000000D+00 -.173117927628D-04 0.108376079777D-03 0.000000000000D+00  6 2 2 25 2 2 21 2 0.14936799D+00 0.35309450D+00 0.23375348D+06 0.23375348D+06 0.23375348D+06 0.10926613D+01  1  2  3  2  6  2        2 0.517199819419D-02 0.100000000000D+01
-.300589602567D-02 0.000000000000D+00 0.000000000000D+00 0.108376079777D-03 0.000000000000D+00  6 2 2 25 2 2 21 2 0.14936799D+00 0.35309450D+00 0.23375348D+06 0.23375348D+06 0.23375348D+06 0.10926613D+01  1  2 15  2  6  2        2 -.756740324521D-02 0.100000000000D+01
-.181556534394D-02 0.000000000000D+00 0.000000000000D+00 0.108376079777D-03 0.000000000000D+00  6 2 2 25 2 2 21 2 0.14936799D+00 0.35309450D+00 0.23375348D+06 0.23375348D+06 0.23375348D+06 0.10926613D+01  1  2  4  2  6  2        2 -.457072199379D-02 0.100000000000D+01
-.209944481547D-01 0.000000000000D+00 -.479772990257D-02 0.108376079777D-03 0.000000000000D+00  6 2 2 25 2 2 21 2 0.14936799D+00 0.42252556D+00 0.23375348D+06 0.23375348D+06 0.23375348D+06 0.10926613D+01  1  2  5  2  6  2        2 -.289447891714D-01 0.100000000000D+01
0.215832891199D-01 0.000000000000D+00 0.472145018749D-02 0.108376079777D-03 0.000000000000D+00  6 2 2 25 2 2 21 2 0.14936799D+00 0.35309450D+00 0.23375348D+06 0.23375348D+06 0.23375348D+06 0.10926613D+01  1  2  6  2  6  2        2 0.543363611825D-01 0.100000000000D+01
-.506733839642D-03 0.000000000000D+00 -.126267400848D-03 0.108376079777D-03 0.000000000000D+00  6 2 21 25 2 2 -2 2 0.14936799D+00 0.42252556D+00 0.23375348D+06 0.23375348D+06 0.23375348D+06 0.10926613D+01  1  2  5  5  6  2        2 -.633766071064D-04 0.100000000000D+01
  </mgrwgt>
  </event>
  <event>
  5     66 -.18204334E-05 0.15560275E+03 0.75467711E-02 0.92872250E-01
        2 -1    0    0  501    0 0.00000000E+00 0.00000000E+00 0.89268785E+03 0.89268790E+03 0.32000000E+00 0.0000E+00 0.9000E+01
        2 -1    0    0  502    0 0.00000000E+00 0.00000000E+00 -.35706267E+04 0.35706267E+04 0.32000000E+00 0.0000E+00 0.9000E+01
       25  1    1    2    0    0 0.49126018E+03 -.27688104E+03 -.13063219E+04 0.14283212E+04 0.12500000E+03 0.0000E+00 0.9000E+01
        2  1    1    2  501    0 -.15536475E+03 0.86342674E+01 0.80318333E+03 0.81811754E+03 0.32000000E+00 0.0000E+00 0.9000E+01
        2  1    1    2  502    0 -.33589543E+03 0.26824678E+03 -.21748003E+04 0.22168758E+04 0.32000000E+00 0.0000E+00 0.9000E+01
#aMCatNLO 1  0  0  1  4 0.12281893D+02 0.00000000D+00  -5  6  0 0.00000000D+00 0.00000000D+00 0.00000000D+00 0.00000000D+00 0.00000000D+00
  <mgrwgt>
 -.6388908563D-01   11    2    0
 0.178534456149207D+04 0.000000000000000D+00 0.000000000000000D+00 0.178534456149207D+04
 0.178534456149207D+04 0.000000000000000D+00 0.000000000000000D+00 -.178534456149207D+04
 0.805667373840003D+03 0.491280740175302D+03 -.276896734325546D+03 -.561646107547184D+03
 0.162498797757327D+04 -.155363015074442D+03 0.863417098410303D+01 0.161752085362015D+04
 0.114003377157087D+04 -.335917725100860D+03 0.268262563341443D+03 -.105587474607296D+04
 0.000000000000000D+00 -.000000000000000D+00 -.000000000000000D+00 0.000000000000000D+00
 0.237749197101094D+04 0.000000000000000D+00 0.000000000000000D+00 0.237749197101094D+04
 0.178541880945857D+04 0.000000000000000D+00 0.000000000000000D+00 -.178541880945857D+04
 0.806674882825515D+03 0.493694988201819D+03 -.275532711457389D+03 -.561646107547184D+03
 0.162454693072041D+04 -.150497309169251D+03 0.113832398666315D+02 0.161752085362015D+04
 0.113948843203409D+04 -.332504472140018D+03 0.270191012714603D+03 -.105587474607296D+04
 0.592200534889504D+03 -.106932068925505D+02 -.604154112384571D+01 0.592073161552369D+03
0.886976573783D-04 0.000000000000D+00 0.000000000000D+00 0.112188177192D-04 0.000000000000D+00  6 2 2 25 2 2 21 0 0.13733660D+00 0.54932719D+00 0.33821227D+06 0.33821227D+06 0.33821227D+06 0.10807205D+01  1  2  2  1  6  1        2 0.319625906780D-04 0.100000000000D+01
0.173156975438D-04 0.000000000000D+00 -.340622358962D-06 0.112188177192D-04 0.000000000000D+00  6 2 2 25 2 2 21 2 0.13733660D+00 0.54932719D+00 0.33821227D+06 0.33821227D+06 0.33821227D+06 0.10807205D+01  1  2  3  1  6  1        2 0.728780292356D-05 0.100000000000D+01
-.573652682031D-04 0.000000000000D+00 0.000000000000D+00 0.112188177192D-04 0.000000000000D+00  6 2 2 25 2 2 21 2 0.13733660D+00 0.54932719D+00 0.33821227D+06 0.33821227D+06 0.33821227D+06 0.10807205D+01  1  2 15  1  6  1        2 -.241438017881D-04 0.100000000000D+01
0.280493897979D+00 0.000000000000D+00 0.000000000000D+00 0.112188177192D-04 0.000000000000D+00  6 2 2 25 2 2 21 2 0.18443286D+00 0.54932719D+00 0.34262461D+06 0.34262461D+06 0.34262461D+06 0.10803088D+01  1  2 12  1  6  1        2 0.764251415576D-01 0.100000000000D+01
0.305057255207D-08 0.000000000000D+00 0.000000000000D+00 0.112188177192D-04 0.000000000000D+00  6 2 2 25 2 2 21 2 0.18289142D+00 0.54932719D+00 0.34262461D+06 0.34262461D+06 0.34262461D+06 0.10803088D+01  1  2 12  1  6  1        2 0.842421275652D-09 0.100000000000D+01
-.421587782857D+00 0.000000000000D+00 0.000000000000D+00 0.112188177192D-04 0.000000000000D+00  6 2 2 25 2 2 21 2 0.13733660D+00 0.54932719D+00 0.33821227D+06 0.33821227D+06 0.33821227D+06 0.10807205D+01  1  2  4  1  6  1        2 -.177437187769D+00 0.100000000000D+01
-.291675113007D+00 0.000000000000D+00 -.835473345310D-04 0.112188177192D-04 0.000000000000D+00  6 2 2 25 2 2 21 2 0.18288986D+00 0.54932719D+00 0.33821227D+06 0.33821227D+06 0.33821227D+06 0.10807205D+01  1  2  5  1  6  1        2 -.807188888713D-01 0.100000000000D+01
0.280130747503D+00 0.000000000000D+00 0.802330749978D-04 0.112188177192D-04 0.000000000000D+00  6 2 2 25 2 2 21 2 0.13733660D+00 0.54932719D+00 0.33821227D+06 0.33821227D+06 0.33821227D+06 0.10807205D+01  1  2  6  1  6  1        2 0.117900978315D+00 0.100000000000D+01
0.107076889259D-01 0.000000000000D+00 0.000000000000D+00 0.112188177192D-04 0.000000000000D+00  6 21 2 25 2 2 -2 2 0.18443286D+00 0.54932719D+00 0.34262461D+06 0.34262461D+06 0.34262461D+06 0.10803088D+01  1  2 12  4  6  1        2 0.150218589405D-02 0.100000000000D+01
0.114043261000D-09 0.000000000000D+00 0.000000000000D+00 0.112188177192D-04 0.000000000000D+00  6 21 2 25 2 2 -2 2 0.18289142D+00 0.54932719D+00 0.34262461D+06 0.34262461D+06 0.34262461D+06 0.10803088D+01  1  2 12  4  6  1        2 0.164455920567D-10 0.100000000000D+01
-.109020676875D-01 0.000000000000D+00 -.312328426789D-05 0.112188177192D-04 0.000000000000D+00  6 21 2 25 2 2 -2 2 0.18288986D+00 0.54932719D+00 0.33821227D+06 0.33821227D+06 0.33821227D+06 0.10807205D+01  1  2  5  4  6  1        2 -.157642220785D-02 0.100000000000D+01
  </mgrwgt>
  </event>
  <event>
  5     66 0.18204334E-05 0.64427559E+02 0.75467711E-02 0.95449959E-01
        2 -1    0    0  501    0 0.00000000E+00 0.00000000E+00 0.18436791E+04 0.18436791E+04 0.32000000E+00 0.0000E+00 0.9000E+01
        2 -1    0    0  502    0 0.00000000E+00 0.00000000E+00 -.19880586E+04 0.19880586E+04 0.32000000E+00 0.0000E+00 0.9000E+01
       25  1    1    2    0    0 -.21886928E+03 0.39909251E+03 0.81447780E+03 0.94137010E+03 0.12500000E+03 0.0000E+00 0.9000E+01
        2  1    1    2  501    0 0.46122044E+02 -.44999285E+02 0.94448283E+03 0.94667846E+03 0.32000000E+00 0.0000E+00 0.9000E+01
        2  1    1    2  502    0 0.17274723E+03 -.35409322E+03 -.19033401E+04 0.19436891E+04 0.32000000E+00 0.0000E+00 0.9000E+01
#aMCatNLO 1  0  0  1  4 0.12281893D+02 0.00000000D+00  -5  6  0 0.00000000D+00 0.00000000D+00 0.00000000D+00 0.00000000D+00 0.00000000D+00
  <mgrwgt>
 0.3254141448D-01    7    2    0
 0.191450830210622D+04 0.000000000000000D+00 0.000000000000000D+00 0.191450830210622D+04
 0.191450830210622D+04 0.000000000000000D+00 0.000000000000000D+00 -.191450830210622D+04
 0.972892826188722D+03 -.218876461846348D+03 0.399114540678249D+03 0.850703314392447D+03
 0.982814336684182D+03 0.461149997082418D+02 -.449924116536442D+02 0.980700316145287D+03
 0.187330944133953D+04 0.172761462138106D+03 -.354122129024605D+03 -.183140363053773D+04
 0.000000000000000D+00 0.000000000000000D+00 0.000000000000000D+00 0.000000000000000D+00
 0.266232205844256D+04 0.000000000000000D+00 0.000000000000000D+00 0.266232205844256D+04
 0.195051459336462D+04 0.000000000000000D+00 0.000000000000000D+00 -.195051459336462D+04
 0.950913188453702D+03 -.240482776194926D+03 0.327235079431398D+03 0.850703314392447D+03
 0.988140687994081D+03 0.239791536270958D+02 -.118633508644382D+03 0.980700316145287D+03
 0.190163710600526D+04 0.130364941319363D+03 -.495166039893778D+03 -.183140363053773D+04
 0.772145669354139D+03 0.861386812484670D+02 0.286564469106761D+03 0.711807465077943D+03
0.720318165854D-02 0.000000000000D+00 0.000000000000D+00 0.201760858931D-03 0.000000000000D+00  6 2 2 25 2 2 21 0 0.28364294D+00 0.30585517D+00 0.21645141D+06 0.21645141D+06 0.21645141D+06 0.10951984D+01  1  2  2  1  6  1        2 0.727892577211D-02 0.100000000000D+01
0.169031906861D-02 0.000000000000D+00 -.276621142101D-04 0.201760858931D-03 0.000000000000D+00  6 2 2 25 2 2 21 2 0.28364294D+00 0.30585517D+00 0.21645141D+06 0.21645141D+06 0.21645141D+06 0.10951984D+01  1  2  3  1  6  1        2 0.204878895646D-02 0.100000000000D+01
-.495577478801D-02 0.000000000000D+00 0.000000000000D+00 0.201760858931D-03 0.000000000000D+00  6 2 2 25 2 2 21 2 0.28364294D+00 0.30585517D+00 0.21645141D+06 0.21645141D+06 0.21645141D+06 0.10951984D+01  1  2 15  1  6  1        2 -.600675744888D-02 0.100000000000D+01
-.256871750129D-03 0.000000000000D+00 0.000000000000D+00 0.201760858931D-03 0.000000000000D+00  6 2 2 25 2 2 21 2 0.28364294D+00 0.30585517D+00 0.21645141D+06 0.21645141D+06 0.21645141D+06 0.10951984D+01  1  2  4  1  6  1        2 -.311347138338D-03 0.100000000000D+01
-.406049568614D-01 0.000000000000D+00 -.500515700361D-02 0.201760858931D-03 0.000000000000D+00  6 2 2 25 2 2 21 2 0.39641732D+00 0.30585517D+00 0.21645141D+06 0.21645141D+06 0.21645141D+06 0.10951984D+01  1  2  5  1  6  1        2 -.191982538028D-01 0.100000000000D+01
0.402708578477D-01 0.000000000000D+00 0.473724498644D-02 0.201760858931D-03 0.000000000000D+00  6 2 2 25 2 2 21 2 0.28364294D+00 0.30585517D+00 0.21645141D+06 0.21645141D+06 0.21645141D+06 0.10951984D+01  1  2  6  1  6  1        2 0.488111921339D-01 0.100000000000D+01
-.156608750763D-02 0.000000000000D+00 -.209383706769D-03 0.201760858931D-03 0.000000000000D+00  6 21 2 25 2 2 -2 2 0.39641732D+00 0.30585517D+00 0.21645141D+06 0.21645141D+06 0.21645141D+06 0.10951984D+01  1  2  5  4  6  1        2 -.811339890066D-04 0.100000000000D+01
  </mgrwgt>
  </event>
  <event>
  5     66 0.18204334E-05 0.77629393E+02 0.75467711E-02 0.92299487E-01
        2 -1    0    0  501    0 0.00000000E+00 0.00000000E+00 0.91606699E+03 0.91606705E+03 0.32000000E+00 0.0000E+00 0.9000E+01
        2 -1    0    0  502    0 0.00000000E+00 0.00000000E+00 -.81711011E+03 0.81711017E+03 0.32000000E+00 0.0000E+00 0.9000E+01
       25  1    1    2    0    0 0.53439145E+03 0.49068197E+02 0.34444429E+03 0.64980673E+03 0.12500000E+03 0.0000E+00 0.9000E+01
        2  1    1    2  501    0 -.57009094E+03 -.11798913E+03 0.21182943E+03 0.61951346E+03 0.32000000E+00 0.0000E+00 0.9000E+01
        2  1    1    2  502    0 0.35699492E+02 0.68920936E+02 -.45731685E+03 0.46385704E+03 0.32000000E+00 0.0000E+00 0.9000E+01
#aMCatNLO 1  0  0  1  4 0.26276045D+02 0.00000000D+00  -5  6  0 0.00000000D+00 0.00000000D+00 0.00000000D+00 0.00000000D+00 0.00000000D+00
  <mgrwgt>
 0.1874081471D-01   11    2    0
 0.865174955502073D+03 0.000000000000000D+00 0.000000000000000D+00 0.865174955502073D+03
 0.865174955502073D+03 0.000000000000000D+00 0.000000000000000D+00 -.865174955502073D+03
 0.631157512711246D+03 0.534314452464469D+03 0.490426421981466D+02 0.307957287599540D+03
 0.608333937108953D+03 -.570018422529127D+03 -.117974123897093D+03 0.176723747998390D+03
 0.490858461183947D+03 0.357039700646578D+02 0.689314816989459D+02 -.484681035597930D+03
 0.000000000000000D+00 0.000000000000000D+00 -.000000000000000D+00 0.000000000000000D+00
 0.887458104177074D+03 0.000000000000000D+00 0.000000000000000D+00 0.887458104177074D+03
 0.873055639032524D+03 0.000000000000000D+00 0.000000000000000D+00 -.873055639032524D+03
 0.623199747759329D+03 0.524820296309295D+03 0.497884645620789D+02 0.307957287599540D+03
 0.616893142454019D+03 -.579292094062351D+03 -.117245621909955D+03 0.176723747998390D+03
 0.490456515334305D+03 0.282764548597952D+02 0.695149571398059D+02 -.484681035597930D+03
 0.299643376619460D+02 0.261953428932603D+02 -.205779979193017D+01 0.144024651445495D+02
0.235005556678D-03 0.000000000000D+00 0.000000000000D+00 0.172306652202D-06 0.000000000000D+00  6 2 2 25 2 2 21 0 0.14093339D+00 0.12570926D+00 0.36642229D+06 0.36642229D+06 0.36642229D+06 0.10781834D+01  1  2  2  1  6  1        2 0.365926090918D-02 0.100000000000D+01
0.633015619292D-04 0.000000000000D+00 -.902483216028D-06 0.172306652202D-06 0.000000000000D+00  6 2 2 25 2 2 21 2 0.14093339D+00 0.12570926D+00 0.36642229D+06 0.36642229D+06 0.36642229D+06 0.10781834D+01  1  2  3  1  6  1        2 0.114581627474D-02 0.100000000000D+01
-.136442756776D-03 0.000000000000D+00 0.000000000000D+00 0.172306652202D-06 0.000000000000D+00  6 2 2 25 2 2 21 2 0.14093339D+00 0.12570926D+00 0.36642229D+06 0.36642229D+06 0.36642229D+06 0.10781834D+01  1  2 15  1  6  1        2 -.246973892143D-02 0.100000000000D+01
0.532513813721D-03 0.000000000000D+00 0.000000000000D+00 0.172306652202D-06 0.000000000000D+00  6 2 2 25 2 2 21 2 0.14710733D+00 0.12570926D+00 0.38078368D+06 0.38078368D+06 0.38078368D+06 0.10769724D+01  1  2 12  1  6  1        2 0.904850213977D-02 0.100000000000D+01
0.202838732445D-07 0.000000000000D+00 0.000000000000D+00 0.172306652202D-06 0.000000000000D+00  6 2 2 25 2 2 21 2 0.14569055D+00 0.12570926D+00 0.38078368D+06 0.38078368D+06 0.38078368D+06 0.10769724D+01  1  2 12  1  6  1        2 0.349363088228D-06 0.100000000000D+01
-.142820444479D-03 0.000000000000D+00 0.000000000000D+00 0.172306652202D-06 0.000000000000D+00  6 2 2 25 2 2 21 2 0.14093339D+00 0.12570926D+00 0.36642229D+06 0.36642229D+06 0.36642229D+06 0.10781834D+01  1  2  4  1  6  1        2 -.258518091280D-02 0.100000000000D+01
-.127913443415D-01 0.000000000000D+00 -.172084368463D-02 0.172306652202D-06 0.000000000000D+00  6 2 2 25 2 2 21 2 0.14539036D+00 0.12570926D+00 0.36642229D+06 0.36642229D+06 0.36642229D+06 0.10781834D+01  1  2  5  1  6  1        2 -.221782795998D+00 0.100000000000D+01
0.128395326325D-01 0.000000000000D+00 0.172000994539D-02 0.172306652202D-06 0.000000000000D+00  6 2 2 25 2 2 21 2 0.14093339D+00 0.12570926D+00 0.36642229D+06 0.36642229D+06 0.36642229D+06 0.10781834D+01  1  2  6  1  6  1        2 0.232407305634D+00 0.100000000000D+01
0.192848776275D-04 0.000000000000D+00 0.000000000000D+00 0.172306652202D-06 0.000000000000D+00  6 21 2 25 2 2 -2 2 0.14710733D+00 0.12570926D+00 0.38078368D+06 0.38078368D+06 0.38078368D+06 0.10769724D+01  1  2 12  4  6  1        2 0.242377406647D-03 0.100000000000D+01
0.576831767386D-09 0.000000000000D+00 0.000000000000D+00 0.172306652202D-06 0.000000000000D+00  6 21 2 25 2 2 -2 2 0.14569055D+00 0.12570926D+00 0.38078368D+06 0.38078368D+06 0.38078368D+06 0.10769724D+01  1  2 12  4  6  1        2 0.746081980513D-08 0.100000000000D+01
-.707040419220D-04 0.000000000000D+00 -.959286744520D-05 0.172306652202D-06 0.000000000000D+00  6 21 2 25 2 2 -2 2 0.14539036D+00 0.12570926D+00 0.36642229D+06 0.36642229D+06 0.36642229D+06 0.10781834D+01  1  2  5  4  6  1        2 -.925088645071D-03 0.100000000000D+01
  </mgrwgt>
  </event>
  <event>
  5     66 -.18204334E-05 0.16520699E+02 0.75467711E-02 0.94587930E-01
        2 -1    0    0  501    0 0.00000000E+00 0.00000000E+00 0.17035973E+04 0.17035973E+04 0.32000000E+00 0.0000E+00 0.9000E+01
        2 -1    0    0  502    0 0.00000000E+00 0.00000000E+00 -.19205618E+03 0.19205645E+03 0.32000000E+00 0.0000E+00 0.9000E+01
       25  1    1    2    0    0 -.46892475E+03 -.90264285E+02 0.34214701E+03 0.60060606E+03 0.12500000E+03 0.0000E+00 0.9000E+01
        2  1    1    2  501    0 0.48509158E+03 0.86558737E+02 0.11776018E+04 0.12765392E+04 0.32000000E+00 0.0000E+00 0.9000E+01
        2  1    1    2  502    0 -.16166832E+02 0.37055479E+01 -.82076670E+01 0.18508532E+02 0.32000000E+00 0.0000E+00 0.9000E+01
#aMCatNLO 1  0  0  5  1 0.23519025D+01 0.00000000D+00  -5  6  0 0.00000000D+00 0.00000000D+00 0.00000000D+00 0.00000000D+00 0.00000000D+00
  <mgrwgt>
 -.6903397154D-02    6    2    0
 0.572002340089958D+03 0.000000000000000D+00 0.000000000000000D+00 0.572002340089958D+03
 0.572002340089958D+03 -.000000000000000D+00 -.000000000000000D+00 -.572002340089958D+03
 0.543310091972370D+03 -.469015433432168D+03 -.902533568020207D+02 -.226803242541697D+03
 0.559367175363941D+03 0.485118823565845D+03 0.865635981032391D+02 0.264684920953472D+03
 0.413274128436048D+02 -.161033901336767D+02 0.368975869878159D+01 -.378816784117748D+02
 0.000000000000000D+00 0.000000000000000D+00 -.000000000000000D+00 0.000000000000000D+00
 0.572002340089958D+03 0.000000000000000D+00 0.000000000000000D+00 0.572002340089958D+03
 0.572002340089958D+03 -.000000000000000D+00 -.000000000000000D+00 -.572002340089958D+03
 0.544585618342895D+03 -.469720398664909D+03 -.900918286034083D+02 -.228461605533372D+03
 0.557960290093525D+03 0.484394786317360D+03 0.867294962596931D+02 0.262981692876804D+03
 0.260571960319366D+01 -.655622606696588D-02 0.217284817823146D+01 0.143821502589986D+01
 0.388530521403022D+02 -.146678314263842D+02 0.118948416548372D+01 -.359583023693316D+02
0.861561392504D-03 0.000000000000D+00 0.000000000000D+00 0.842093376923D-07 0.000000000000D+00  6 2 2 25 2 2 21 0 0.26209192D+00 0.29547128D-01 0.25150659D+06 0.25150659D+06 0.25150659D+06 0.10902629D+01  1  2  2  3  6  5        2 0.252322895095D-01 0.100000000000D+01
0.324215632249D-03 0.000000000000D+00 -.330862260154D-05 0.842093376923D-07 0.000000000000D+00  6 2 2 25 2 2 21 2 0.26209192D+00 0.29547128D-01 0.25150659D+06 0.25150659D+06 0.25150659D+06 0.10902629D+01  1  2  3  3  6  5        2 0.112866957102D-01 0.100000000000D+01
-.616508624651D-03 0.000000000000D+00 0.000000000000D+00 0.842093376923D-07 0.000000000000D+00  6 2 2 25 2 2 21 2 0.26209192D+00 0.29547128D-01 0.25150659D+06 0.25150659D+06 0.25150659D+06 0.10902629D+01  1  2 15  3  6  5        2 -.214620905256D-01 0.100000000000D+01
0.421792666176D-09 0.000000000000D+00 0.000000000000D+00 0.842093376923D-07 0.000000000000D+00  6 2 2 25 2 2 21 2 0.26209192D+00 0.29547128D-01 0.25166955D+06 0.25166955D+06 0.25166955D+06 0.10902417D+01  1  2 12  3  6  5        2 0.146826847823D-07 0.100000000000D+01
-.693675816186D-03 0.000000000000D+00 0.000000000000D+00 0.842093376923D-07 0.000000000000D+00  6 2 2 25 2 2 21 2 0.26209192D+00 0.29547128D-01 0.25150659D+06 0.25150659D+06 0.25150659D+06 0.10902629D+01  1  2  4  3  6  5        2 -.241484588651D-01 0.100000000000D+01
0.628595260941D-04 0.000000000000D+00 0.000000000000D+00 0.842093376923D-07 0.679755075757D-09  6 2 2 25 2 2 21 2 0.26209192D+00 0.29547128D-01 0.25166955D+06 0.25166955D+06 0.25166955D+06 0.10902417D+01  1  2 11  3  6  5        2 0.218815233459D-02 0.100000000000D+01
  </mgrwgt>
  </event>
  <event>
  6     66 0.18204334E-05 0.64660563E+02 0.75467711E-02 0.93323563E-01
        2 -1    0    0  503    0 0.00000000E+00 0.00000000E+00 0.37302849E+03 0.37302862E+03 0.32000000E+00 0.0000E+00 0.9000E+01
        2 -1    0    0  502    0 0.00000000E+00 0.00000000E+00 -.23865961E+04 0.23865961E+04 0.32000000E+00 0.0000E+00 0.9000E+01
       25  1    1    2    0    0 0.19695643E+02 -.48092240E+03 -.10768947E+04 0.11861709E+04 0.12500000E+03 0.0000E+00 0.9000E+01
        2  1    1    2  501    0 -.10796927E+03 0.42131524E+03 -.13477974E+03 0.45533458E+03 0.32000000E+00 0.0000E+00 0.9000E+01
        2  1    1    2  502    0 0.10429974E+03 -.23274234E+02 -.94550912E+03 0.95152915E+03 0.32000000E+00 0.0000E+00 0.9000E+01
       21  1    1    2  503  501 -.16026112E+02 0.82881395E+02 0.14361594E+03 0.16659010E+03 0.75000000E+00 0.0000E+00 0.9000E+01
#aMCatNLO 2  0  0  1  4 0.84416597D+02 0.00000000D+00  -5  6  0 0.00000000D+00 0.00000000D+00 0.00000000D+00 0.00000000D+00 0.00000000D+00
  <mgrwgt>
 0.1265546256D-02    3    2    0
 0.718202898371802D+03 0.000000000000000D+00 0.000000000000000D+00 0.718202898371802D+03
 0.718202898371802D+03 0.000000000000000D+00 0.000000000000000D+00 -.718202898371802D+03
 0.496055081391706D+03 0.140101451407178D+02 -.451541134841366D+03 -.162357516468564D+03
 0.645079374363772D+03 -.115011265020134D+03 0.457735027871706D+03 0.439748169305242D+03
 0.295271340988126D+03 0.101001119879416D+03 -.619389303034006D+01 -.277390652836679D+03
 0.000000000000000D+00 -.000000000000000D+00 0.000000000000000D+00 0.000000000000000D+00
 0.123148644368197D+04 0.000000000000000D+00 0.000000000000000D+00 0.123148644368197D+04
 0.722921375822724D+03 0.000000000000000D+00 0.000000000000000D+00 -.722921375822724D+03
 0.523121470104686D+03 0.196907679462442D+02 -.480919310267674D+03 -.162357516468564D+03
 0.618497661335546D+03 -.107968418012916D+03 0.421311909850666D+03 0.439748169305242D+03
 0.297265080310010D+03 0.104303762491228D+03 -.232739945160100D+02 -.277390652836679D+03
 0.515523607754456D+03 -.160261124245560D+02 0.828813949330177D+02 0.508565067859249D+03
-.504496948039D-03 0.000000000000D+00 0.000000000000D+00 0.183444242329D-06 0.000000000000D+00  6 2 2 25 2 2 21 2 0.58246608D-01 0.36477201D+00 0.31556337D+06 0.31556337D+06 0.31556337D+06 0.10829305D+01  1  2 13  1  6  1        2 -.343535080023D-02 0.100000000000D+01
-.246323500198D-07 0.000000000000D+00 0.000000000000D+00 0.183444242329D-06 0.000000000000D+00  6 2 2 25 2 2 21 2 0.57636715D-01 0.36477201D+00 0.31556337D+06 0.31556337D+06 0.31556337D+06 0.10829305D+01  1  2 13  1  6  1        2 -.169700882508D-06 0.100000000000D+01
0.693146535398D-03 0.000000000000D+00 0.000000000000D+00 0.183444242329D-06 0.255811494772D-09  6 2 2 25 2 2 21 2 0.57388989D-01 0.36716850D+00 0.31556337D+06 0.31556337D+06 0.31556337D+06 0.10829305D+01  1  2  1  1  6  1        2 0.470106675684D-02 0.100000000000D+01
  </mgrwgt>
  </event>
  <event>
  6     66 0.18204334E-05 0.11275418E+03 0.75467711E-02 0.87140640E-01
        2 -1    0    0  501    0 0.00000000E+00 0.00000000E+00 0.13774888E+04 0.13774889E+04 0.32000000E+00 0.0000E+00 0.9000E+01
        2 -1    0    0  502    0 -.00000000E+00 -.00000000E+00 -.29975298E+04 0.29975298E+04 0.32000000E+00 0.0000E+00 0.9000E+01
       25  1    1    2    0    0 0.71678240E+03 0.60469134E+03 0.23692010E+02 0.94636935E+03 0.12500000E+03 0.0000E+00 0.9000E+01
        2  1    1    2  501    0 0.61266362E+02 0.52867508E+02 0.78419090E+03 0.78835526E+03 0.32000000E+00 0.0000E+00 0.9000E+01
        2  1    1    2  503    0 -.45479326E+03 -.44222461E+03 -.12824841E+04 0.14307918E+04 0.32000000E+00 0.0000E+00 0.9000E+01
       21  1    1    2  502  503 -.32325550E+03 -.21533424E+03 -.11454398E+04 0.12095023E+04 0.75000000E+00 0.0000E+00 0.9000E+01
#aMCatNLO 2  0  0  5  4 0.97753941D+02 0.00000000D+00  -5  6  0 0.00000000D+00 0.00000000D+00 0.00000000D+00 0.00000000D+00 0.00000000D+00
  <mgrwgt>
 0.2505955517D-02    1    2    0
 0.203200982839220D+04 0.000000000000000D+00 0.000000000000000D+00 0.203200982839220D+04
 0.203200982839220D+04 -.000000000000000D+00 -.000000000000000D+00 -.203200982839220D+04
 0.103050329286389D+04 0.717932686738927D+03 0.605663572099469D+03 0.405038678828153D+03
 0.116375240055030D+04 0.624941115381629D+02 0.539050163444805D+02 0.116082228830365D+04
 0.186976396337022D+04 -.780426798277089D+03 -.659568588443949D+03 -.156586096713181D+04
 0.000000000000000D+00 0.000000000000000D+00 0.000000000000000D+00 -.000000000000000D+00
 0.203200982839220D+04 0.000000000000000D+00 0.000000000000000D+00 0.203200982839220D+04
 0.203200982839220D+04 -.000000000000000D+00 -.000000000000000D+00 -.203200982839220D+04
 0.102833834528599D+04 0.716839862603846D+03 0.604739984552521D+03 0.402846018785161D+03
 0.116116890972508D+04 0.612600534770893D+02 0.528620665954494D+02 0.115834625422426D+04
 0.102878504473333D+04 -.454708692836977D+03 -.442156316192652D+03 -.810022508931941D+03
 0.845727357040005D+03 -.323391223243958D+03 -.215445734955319D+03 -.751169764077476D+03
0.565432892441D-02 0.000000000000D+00 0.000000000000D+00 0.309054100440D-05 0.101409008236D-08  6 2 2 25 2 2 21 2 0.21192136D+00 0.46115844D+00 0.10505113D+07 0.10505113D+07 0.10505113D+07 0.10464423D+01  1  2  1  3  6  5        2 0.250595551675D-02 0.100000000000D+01
  </mgrwgt>
  </event>
  <event>
  5     66 0.18204334E-05 0.43151158E+02 0.75467711E-02 0.93640243E-01
        2 -1    0    0  501    0 0.00000000E+00 0.00000000E+00 0.14176570E+04 0.14176571E+04 0.32000000E+00 0.0000E+00 0.9000E+01
        2 -1    0    0  502    0 0.00000000E+00 0.00000000E+00 -.69176200E+03 0.69176207E+03 0.32000000E+00 0.0000E+00 0.9000E+01
       25  1    1    2    0    0 0.49754888E+03 0.15233661E+03 0.10536579E+04 0.11817704E+04 0.12500000E+03 0.0000E+00 0.9000E+01
        2  1    1    2  501    0 -.47700726E+03 -.19027731E+03 0.78132083E+02 0.51946714E+03 0.32000000E+00 0.0000E+00 0.9000E+01
        2  1    1    2  502    0 -.20541614E+02 0.37940696E+02 -.40589491E+03 0.40818162E+03 0.32000000E+00 0.0000E+00 0.9000E+01
#aMCatNLO 1  0  0  5  1 0.36500219D+01 0.00000000D+00  -5  6  0 0.00000000D+00 0.00000000D+00 0.00000000D+00 0.00000000D+00 0.00000000D+00
  <mgrwgt>
 0.2898680422D-02    6    2    0
 0.990293579837739D+03 0.000000000000000D+00 0.000000000000000D+00 0.990293579837739D+03
 0.990293579837739D+03 -.000000000000000D+00 -.000000000000000D+00 -.990293579837739D+03
 0.872474756861833D+03 0.497425836912270D+03 0.152280520213083D+03 0.689177322099963D+03
 0.524482206978984D+03 -.476880873816750D+03 -.190226889573954D+03 -.107144519730770D+03
 0.583630195834661D+03 -.205449630955192D+02 0.379463693608710D+02 -.582032802369194D+03
 0.000000000000000D+00 0.000000000000000D+00 0.000000000000000D+00 -.000000000000000D+00
 0.990293579837739D+03 0.000000000000000D+00 0.000000000000000D+00 0.990293579837739D+03
 0.990293579837739D+03 -.000000000000000D+00 -.000000000000000D+00 -.990293579837739D+03
 0.872168151716243D+03 0.497412284353239D+03 0.152305551672540D+03 0.688793382061954D+03
 0.524531366530180D+03 -.476889022658160D+03 -.190211838734264D+03 -.107375374027259D+03
 0.815574075244333D+01 -.305999894368848D+01 0.279834942400289D+01 -.702294483724206D+01
 0.575731900676611D+03 -.174632627513904D+02 0.351079376377212D+02 -.574395063197452D+03
0.510190507439D-03 0.000000000000D+00 0.000000000000D+00 0.132788174441D-06 0.000000000000D+00  6 2 2 25 2 2 21 0 0.21810109D+00 0.10642493D+00 0.29789385D+06 0.29789385D+06 0.29789385D+06 0.10847783D+01  1  2  2  3  6  5        2 0.499062257560D-02 0.100000000000D+01
0.217094910023D-03 0.000000000000D+00 -.195926588481D-05 0.132788174441D-06 0.000000000000D+00  6 2 2 25 2 2 21 2 0.21810109D+00 0.10642493D+00 0.29789385D+06 0.29789385D+06 0.29789385D+06 0.10847783D+01  1  2  3  3  6  5        2 0.249892936283D-02 0.100000000000D+01
-.305297150388D-03 0.000000000000D+00 0.000000000000D+00 0.132788174441D-06 0.000000000000D+00  6 2 2 25 2 2 21 2 0.21810109D+00 0.10642493D+00 0.29789385D+06 0.29789385D+06 0.29789385D+06 0.10847783D+01  1  2 15  3  6  5        2 -.351420497796D-02 0.100000000000D+01
0.161617964977D-08 0.000000000000D+00 0.000000000000D+00 0.132788174441D-06 0.000000000000D+00  6 2 2 25 2 2 21 2 0.21810109D+00 0.10642493D+00 0.29800485D+06 0.29800485D+06 0.29800485D+06 0.10847663D+01  1  2 12  3  6  5        2 0.186027265316D-07 0.100000000000D+01
-.660071119628D-03 0.000000000000D+00 0.000000000000D+00 0.132788174441D-06 0.000000000000D+00  6 2 2 25 2 2 21 2 0.21810109D+00 0.10642493D+00 0.29789385D+06 0.29789385D+06 0.29789385D+06 0.10847783D+01  1  2  5  3  6  5        2 -.759792618914D-02 0.100000000000D+01
0.566556577370D-03 0.000000000000D+00 0.000000000000D+00 0.132788174441D-06 0.452548341270D-09  6 2 2 25 2 2 21 2 0.21810109D+00 0.10642493D+00 0.29800485D+06 0.29800485D+06 0.29800485D+06 0.10847663D+01  1  2 11  3  6  5        2 0.652124104828D-02 0.100000000000D+01
  </mgrwgt>
  </event>
  <event>
  6     66 0.18204334E-05 0.10927032E+02 0.75467711E-02 0.86762803E-01
        2 -1    0    0  501    0 0.00000000E+00 0.00000000E+00 0.13322551E+04 0.13322551E+04 0.32000000E+00 0.0000E+00 0.9000E+01
        2 -1    0    0  503    0 0.00000000E+00 0.00000000E+00 -.13201855E+04 0.13201855E+04 0.32000000E+00 0.0000E+00 0.9000E+01
       25  1    1    2    0    0 -.20419302E+03 -.10331032E+04 0.14230335E+03 0.10699870E+04 0.12500000E+03 0.0000E+00 0.9000E+01
        2  1    1    2  501    0 0.70464724E+01 -.88188372E+01 0.38967011E+03 0.38983371E+03 0.32000000E+00 0.0000E+00 0.9000E+01
        2  1    1    2  502    0 0.19669339E+03 0.10253603E+04 -.47941321E+03 0.11488643E+04 0.32000000E+00 0.0000E+00 0.9000E+01
       21  1    1    2  503  502 0.45315949E+00 0.16561688E+02 -.40490680E+02 0.43755600E+02 0.75000000E+00 0.0000E+00 0.9000E+01
#aMCatNLO 2  0  0  2  4 0.10242196D+03 0.00000000D+00  -5  6  0 0.00000000D+00 0.00000000D+00 0.00000000D+00 0.00000000D+00 0.00000000D+00
  <mgrwgt>
 0.6829470318D-02    1    2    0
 0.130405142325606D+04 0.000000000000000D+00 0.000000000000000D+00 0.130405142325606D+04
 0.130405142325606D+04 0.000000000000000D+00 0.000000000000000D+00 -.130405142325606D+04
 0.106090527392484D+04 -.204029620577964D+03 -.102647343456257D+04 0.120909893332538D+03
 0.381791463417430D+03 0.710872732384783D+01 -.638918883826032D+01 0.381671803779434D+03
 0.116540610916984D+04 0.196920893254116D+03 0.103286262340083D+04 -.502581697111972D+03
 0.000000000000000D+00 0.000000000000000D+00 0.000000000000000D+00 -.000000000000000D+00
 0.130567447723578D+04 0.000000000000000D+00 0.000000000000000D+00 0.130567447723578D+04
 0.134705505349757D+04 0.000000000000000D+00 0.000000000000000D+00 -.134705505349757D+04
 0.106748032836227D+04 -.204214522873070D+03 -.103323108634151D+04 0.120909893332538D+03
 0.381838503491490D+03 0.704238740248146D+01 -.881372384676169D+01 0.381671803779434D+03
 0.115883663759816D+04 0.196718975980386D+03 0.102548312265833D+04 -.502581697111972D+03
 0.445740612814288D+02 0.453159490202420D+00 0.165616875299364D+02 -.413805762617893D+02
0.155743604305D-02 0.000000000000D+00 0.000000000000D+00 0.566093152778D-06 0.239264864755D-07  6 2 2 25 2 2 21 2 0.20496183D+00 0.20310498D+00 0.11370397D+07 0.11370397D+07 0.11370397D+07 0.10441712D+01  1  2  1  2  6  2        2 0.682947031803D-02 0.100000000000D+01
  </mgrwgt>
  </event>
</LesHouchesEvents>
