<event>
 5    0  0.1911311E+001  0.3134086E+03  0.7546771E-02  0.1078723E+00
         21   -1    0    0  504  501  0.00000000000E+00  0.00000000000E+00  0.16161514747E+04  0.16161514747E+04  0.00000000000E+00 0.  1.
         21   -1    0    0  501  502 -0.00000000000E+00 -0.00000000000E+00 -0.78348053466E+02  0.78348053466E+02  0.00000000000E+00 0.  1.
         25    1    1    2    0    0  0.11408508519E+03  0.24711428300E+03  0.97515754865E+03  0.10201167189E+04  0.12500000000E+03 0.  0.
         21    1    1    2  503  502 -0.12627330538E+03 -0.29067457642E+03  0.53363008660E+03  0.62064299429E+03  0.00000000000E+00 0.  1.
         21    1    1    2  504  503  0.12188220182E+02  0.43560293425E+02  0.29015785947E+02  0.53739814929E+02  0.00000000000E+00 0. -1.
<mgrwt>
<rscale>  4 0.31340864E+03</rscale>
<asrwt>0</asrwt>
<pdfrwt beam="1">  1       21 0.24863866E+00 0.31340864E+03</pdfrwt>
<pdfrwt beam="2">  1       21 0.12053548E-01 0.31340864E+03</pdfrwt>
<totfact> 0.35641626E+03</totfact>
</mgrwt>
</event>
<event>
 5    0  0.1911311E+001  0.3293204E+03  0.7546771E-02  0.1071438E+00
         21   -1    0    0  502  501  0.00000000000E+00  0.00000000000E+00  0.84517490903E+03  0.84517490903E+03  0.00000000000E+00 0.  1.
         21   -1    0    0  504  502 -0.00000000000E+00 -0.00000000000E+00 -0.32809751172E+03  0.32809751172E+03  0.00000000000E+00 0.  1.
         25    1    1    2    0    0  0.29786634597E+03 -0.99095723960E+02 -0.49247859310E+02  0.34145962311E+03  0.12500000000E+03 0.  0.
         21    1    1    2  503  501 -0.16300246883E+02  0.13173548876E+02  0.53539843665E+03  0.53580847923E+03  0.00000000000E+00 0.  1.
         21    1    1    2  504  503 -0.28156609909E+03  0.85922175084E+02  0.30926819966E+02  0.29600431841E+03  0.00000000000E+00 0.  1.
<mgrwt>
<rscale>  4 0.32932036E+03</rscale>
<asrwt>0</asrwt>
<pdfrwt beam="1">  1       21 0.13002691E+00 0.32932036E+03</pdfrwt>
<pdfrwt beam="2">  1       21 0.50476541E-01 0.32932036E+03</pdfrwt>
<totfact> 0.14581712E+03</totfact>
</mgrwt>
</event>
<event>
 5    0  0.1911311E+001  0.2189523E+03  0.7546771E-02  0.1134667E+00
         21   -1    0    0  502  501  0.00000000000E+00  0.00000000000E+00  0.88552363793E+03  0.88552363793E+03  0.00000000000E+00 0. -1.
         21   -1    0    0  504  502 -0.00000000000E+00 -0.00000000000E+00 -0.99586292600E+02  0.99586292600E+02  0.00000000000E+00 0. -1.
         25    1    1    2    0    0 -0.18627070039E+03  0.97989462553E+02  0.68927418676E+03  0.73145239977E+03  0.12500000000E+03 0.  0.
         21    1    1    2  503  501  0.29518974773E+02 -0.19534595439E+02  0.67139976391E+02  0.75899583137E+02  0.00000000000E+00 0. -1.
         21    1    1    2  504  503  0.15675172562E+03 -0.78454867114E+02  0.29523182182E+02  0.17775794763E+03  0.00000000000E+00 0. -1.
<mgrwt>
<rscale>  4 0.21895232E+03</rscale>
<asrwt>0</asrwt>
<pdfrwt beam="1">  1       21 0.13623440E+00 0.21895232E+03</pdfrwt>
<pdfrwt beam="2">  1       21 0.15320969E-01 0.21895232E+03</pdfrwt>
<totfact> 0.14232144E+04</totfact>
</mgrwt>
</event>
<event>
 5    0  0.1911311E+001  0.2701310E+03  0.7546771E-02  0.1101205E+00
         21   -1    0    0  502  501  0.00000000000E+00  0.00000000000E+00  0.19374201469E+03  0.19374201469E+03  0.00000000000E+00 0.  1.
         21   -1    0    0  504  502 -0.00000000000E+00 -0.00000000000E+00 -0.97569483856E+03  0.97569483856E+03  0.00000000000E+00 0.  1.
         25    1    1    2    0    0 -0.31058981378E+03  0.50187329058E+02 -0.22510121897E+03  0.40654687209E+03  0.12500000000E+03 0.  0.
         21    1    1    2  503  501  0.88009384855E+02 -0.31924917237E+02  0.57046323589E+02  0.10963181654E+03  0.00000000000E+00 0.  1.
         21    1    1    2  504  503  0.22258042893E+03 -0.18262411820E+02 -0.61389792849E+03  0.65325816461E+03  0.00000000000E+00 0.  1.
<mgrwt>
<rscale>  4 0.27013098E+03</rscale>
<asrwt>0</asrwt>
<pdfrwt beam="1">  1       21 0.29806464E-01 0.27013098E+03</pdfrwt>
<pdfrwt beam="2">  1       21 0.15010690E+00 0.27013098E+03</pdfrwt>
<totfact> 0.30314865E+03</totfact>
</mgrwt>
</event>
