<event>
 5    0  0.2159162E+000  0.2363539E+03  0.7546771E-02  0.1122246E+00
         21   -1    0    0  502  501  0.00000000000E+00  0.00000000000E+00  0.14851331078E+03  0.14851331078E+03  0.00000000000E+00 0. -1.
         21   -1    0    0  503  502 -0.00000000000E+00 -0.00000000000E+00 -0.64750453671E+03  0.64750453671E+03  0.00000000000E+00 0. -1.
         25    1    1    2    0    0  0.75124731689E+02 -0.19281122073E+03  0.76740675133E+01  0.24187555367E+03  0.12500000000E+03 0.  0.
         21    1    1    2  503  504  0.90918527329E+01  0.38424103093E+02 -0.43679036204E+02  0.58880656317E+02  0.00000000000E+00 0. -1.
         21    1    1    2  504  501 -0.84216584422E+02  0.15438711764E+03 -0.46298625724E+03  0.49526163750E+03  0.00000000000E+00 0. -1.
<mgrwt>
<rscale>  4 0.23635392E+03</rscale>
<asrwt>0</asrwt>
<pdfrwt beam="1">  1       21 0.22848201E-01 0.23635392E+03</pdfrwt>
<pdfrwt beam="2">  1       21 0.99616085E-01 0.23635392E+03</pdfrwt>
<totfact> 0.14493548E+04</totfact>
</mgrwt>
</event>
<event>
 5    0  0.1101455E+001  0.2391740E+03  0.7546771E-02  0.1120344E+00
         21   -1    0    0  502  501  0.00000000000E+00  0.00000000000E+00  0.82542943099E+03  0.82542943099E+03  0.00000000000E+00 0. -1.
         21   -1    0    0  503  502 -0.00000000000E+00 -0.00000000000E+00 -0.81887236919E+02  0.81887236919E+02  0.00000000000E+00 0. -1.
         25    1    1    2    0    0 -0.16409840448E+03 -0.12104090499E+03  0.62667801737E+03  0.67076786185E+03  0.12500000000E+03 0.  0.
         21    1    1    2  503  504  0.21648476521E+02  0.91664770105E+01  0.21454770033E+02  0.31827472309E+02  0.00000000000E+00 0.  1.
         21    1    1    2  504  501  0.14244992795E+03  0.11187442798E+03  0.95409406663E+02  0.20472133375E+03  0.00000000000E+00 0. -1.
<mgrwt>
<rscale>  4 0.23917397E+03</rscale>
<asrwt>0</asrwt>
<pdfrwt beam="1">  1       21 0.12698914E+00 0.23917397E+03</pdfrwt>
<pdfrwt beam="2">  1       21 0.12598037E-01 0.23917397E+03</pdfrwt>
<totfact> 0.24003254E+04</totfact>
</mgrwt>
</event>
<event>
 5    0  0.2159162E+000  0.3388782E+03  0.7546771E-02  0.1067275E+00
         21   -1    0    0  502  501  0.00000000000E+00  0.00000000000E+00  0.80313206161E+03  0.80313206161E+03  0.00000000000E+00 0. -1.
         21   -1    0    0  503  502 -0.00000000000E+00 -0.00000000000E+00 -0.59370364244E+03  0.59370364244E+03  0.00000000000E+00 0.  1.
         25    1    1    2    0    0 -0.17679808410E+03 -0.26068351445E+03  0.71398994160E+03  0.79032910483E+03  0.12500000000E+03 0.  0.
         21    1    1    2  503  504  0.12416466696E+03  0.84686438153E+02 -0.26457247017E+03  0.30428152968E+03  0.00000000000E+00 0.  1.
         21    1    1    2  504  501  0.52633417137E+02  0.17599707630E+03 -0.23998905225E+03  0.30222506955E+03  0.00000000000E+00 0. -1.
<mgrwt>
<rscale>  4 0.33887823E+03</rscale>
<asrwt>0</asrwt>
<pdfrwt beam="1">  1       21 0.12355878E+00 0.33887823E+03</pdfrwt>
<pdfrwt beam="2">  1       21 0.91339022E-01 0.33887823E+03</pdfrwt>
<totfact> 0.44062486E+02</totfact>
</mgrwt>
</event>
<event>
 5    0  0.3040758E+000  0.2388880E+03  0.7546771E-02  0.1120536E+00
         21   -1    0    0  502  501  0.00000000000E+00  0.00000000000E+00  0.15407084293E+03  0.15407084293E+03  0.00000000000E+00 0. -1.
         21   -1    0    0  503  502 -0.00000000000E+00 -0.00000000000E+00 -0.67822744946E+03  0.67822744946E+03  0.00000000000E+00 0. -1.
         25    1    1    2    0    0 -0.86463165487E+02  0.18743667560E+03  0.15649229279E+02  0.24182283747E+03  0.12500000000E+03 0.  0.
         21    1    1    2  503  504 -0.30776900370E+02 -0.30831009752E+02 -0.10574806063E+03  0.11436966856E+03  0.00000000000E+00 0.  1.
         21    1    1    2  504  501  0.11724006586E+03 -0.15660566585E+03 -0.43405777518E+03  0.47610578636E+03  0.00000000000E+00 0. -1.
<mgrwt>
<rscale>  4 0.23888795E+03</rscale>
<asrwt>0</asrwt>
<pdfrwt beam="1">  1       21 0.23703207E-01 0.23888795E+03</pdfrwt>
<pdfrwt beam="2">  1       21 0.10434268E+00 0.23888795E+03</pdfrwt>
<totfact> 0.12072825E+04</totfact>
</mgrwt>
</event>
<event>
 5    0  0.2159162E+000  0.2626105E+03  0.7546771E-02  0.1105585E+00
         21   -1    0    0  502  501  0.00000000000E+00  0.00000000000E+00  0.93843810503E+03  0.93843810503E+03  0.00000000000E+00 0. -1.
         21   -1    0    0  503  502 -0.00000000000E+00 -0.00000000000E+00 -0.18075592055E+03  0.18075592055E+03  0.00000000000E+00 0. -1.
         25    1    1    2    0    0  0.20436485349E+03 -0.10758382096E+03  0.82413412266E+03  0.86496319229E+03  0.12500000000E+03 0.  0.
         21    1    1    2  503  504 -0.15956029569E+03  0.71333655996E+02 -0.84094301380E+02  0.19395832017E+03  0.00000000000E+00 0. -1.
         21    1    1    2  504  501 -0.44804557798E+02  0.36250164969E+02  0.17642363202E+02  0.60272513131E+02  0.00000000000E+00 0.  1.
<mgrwt>
<rscale>  4 0.26261049E+03</rscale>
<asrwt>0</asrwt>
<pdfrwt beam="1">  1       21 0.14437509E+00 0.26261049E+03</pdfrwt>
<pdfrwt beam="2">  1       21 0.27808604E-01 0.26261049E+03</pdfrwt>
<totfact> 0.38683767E+03</totfact>
</mgrwt>
</event>
<event>
 5    0  0.2159162E+000  0.2741347E+03  0.7546771E-02  0.1098936E+00
         21   -1    0    0  502  501  0.00000000000E+00  0.00000000000E+00  0.30372834503E+03  0.30372834503E+03  0.00000000000E+00 0.  1.
         21   -1    0    0  503  502 -0.00000000000E+00 -0.00000000000E+00 -0.25952849992E+03  0.25952849992E+03  0.00000000000E+00 0.  1.
         25    1    1    2    0    0  0.24438532621E+03 -0.41965337043E+02  0.40527288903E+02  0.28062918295E+03  0.12500000000E+03 0.  0.
         21    1    1    2  503  504 -0.23247289893E+03  0.63699251910E+02  0.34036041918E+02  0.24343314397E+03  0.00000000000E+00 0.  1.
         21    1    1    2  504  501 -0.11912427278E+02 -0.21733914867E+02 -0.30363485716E+02  0.39194518034E+02  0.00000000000E+00 0.  1.
<mgrwt>
<rscale>  4 0.27413469E+03</rscale>
<asrwt>0</asrwt>
<pdfrwt beam="1">  1       21 0.46727438E-01 0.27413469E+03</pdfrwt>
<pdfrwt beam="2">  1       21 0.39927462E-01 0.27413469E+03</pdfrwt>
<totfact> 0.25466645E+04</totfact>
</mgrwt>
</event>
<event>
 5    0  0.2159162E+000  0.4117291E+03  0.7546771E-02  0.1039792E+00
         21   -1    0    0  502  501  0.00000000000E+00  0.00000000000E+00  0.11759888415E+04  0.11759888415E+04  0.00000000000E+00 0. -1.
         21   -1    0    0  503  502 -0.00000000000E+00 -0.00000000000E+00 -0.52832636842E+03  0.52832636842E+03  0.00000000000E+00 0. -1.
         25    1    1    2    0    0 -0.33488280606E+03  0.20432651311E+03  0.10567170811E+04  0.11340951491E+04  0.12500000000E+03 0.  0.
         21    1    1    2  503  504  0.34039352346E+02 -0.23373415253E+01 -0.25747962061E+02  0.42744569525E+02  0.00000000000E+00 0.  1.
         21    1    1    2  504  501  0.30084345372E+03 -0.20198917159E+03 -0.38330664595E+03  0.52747549129E+03  0.00000000000E+00 0. -1.
<mgrwt>
<rscale>  4 0.41172906E+03</rscale>
<asrwt>0</asrwt>
<pdfrwt beam="1">  1       21 0.18092136E+00 0.41172906E+03</pdfrwt>
<pdfrwt beam="2">  1       21 0.81280980E-01 0.41172906E+03</pdfrwt>
<totfact> 0.19717008E+02</totfact>
</mgrwt>
</event>
<event>
 5    0  0.2159162E+000  0.6861970E+03  0.7546771E-02  0.9741133E-01
         21   -1    0    0  502  501  0.00000000000E+00  0.00000000000E+00  0.31609035739E+03  0.31609035739E+03  0.00000000000E+00 0. -1.
         21   -1    0    0  503  502 -0.00000000000E+00 -0.00000000000E+00 -0.17479223071E+04  0.17479223071E+04  0.00000000000E+00 0. -1.
         25    1    1    2    0    0 -0.42869271572E+03 -0.55852410118E+03 -0.47211379915E+03  0.85687983724E+03  0.12500000000E+03 0.  0.
         21    1    1    2  503  504  0.29911387231E+02  0.33784689899E+02 -0.28031014885E+01  0.45210106564E+02  0.00000000000E+00 0.  1.
         21    1    1    2  504  501  0.39878132849E+03  0.52473941128E+03 -0.95691504907E+03  0.11619227207E+04  0.00000000000E+00 0. -1.
<mgrwt>
<rscale>  4 0.68619697E+03</rscale>
<asrwt>0</asrwt>
<pdfrwt beam="1">  1       21 0.48629288E-01 0.68619697E+03</pdfrwt>
<pdfrwt beam="2">  1       21 0.26891111E+00 0.68619697E+03</pdfrwt>
<totfact> 0.14686093E+02</totfact>
</mgrwt>
</event>
<event>
 5    0  0.2159162E+000  0.3176522E+03  0.7546771E-02  0.1076735E+00
         21   -1    0    0  502  501  0.00000000000E+00  0.00000000000E+00  0.30916765460E+03  0.30916765460E+03  0.00000000000E+00 0.  1.
         21   -1    0    0  503  502 -0.00000000000E+00 -0.00000000000E+00 -0.63920166955E+03  0.63920166955E+03  0.00000000000E+00 0. -1.
         25    1    1    2    0    0 -0.57213807817E+02  0.28636425047E+03  0.17025952553E+03  0.36040423109E+03  0.12500000000E+03 0.  0.
         21    1    1    2  503  504 -0.12030260168E+00 -0.40917265569E+02 -0.15595143145E+03  0.16122991678E+03  0.00000000000E+00 0.  1.
         21    1    1    2  504  501  0.57334110419E+02 -0.24544698490E+03 -0.34434210904E+03  0.42673517628E+03  0.00000000000E+00 0. -1.
<mgrwt>
<rscale>  4 0.31765217E+03</rscale>
<asrwt>0</asrwt>
<pdfrwt beam="1">  1       21 0.47564255E-01 0.31765217E+03</pdfrwt>
<pdfrwt beam="2">  1       21 0.98338718E-01 0.31765217E+03</pdfrwt>
<totfact> 0.33243688E+03</totfact>
</mgrwt>
</event>
