<event>
 5    0  0.1856407E+000  0.2959416E+03  0.7546771E-02  0.1087287E+00
         21   -1    0    0  502  501  0.00000000000E+00  0.00000000000E+00  0.12218556778E+04  0.12218556778E+04  0.00000000000E+00 0.  1.
         21   -1    0    0  503  502 -0.00000000000E+00 -0.00000000000E+00 -0.98521912301E+02  0.98521912301E+02  0.00000000000E+00 0.  1.
         25    1    1    2    0    0  0.24200257824E+03 -0.11572022610E+03  0.95457159514E+03  0.99939399080E+03  0.12500000000E+03 0.  0.
         21    1    1    2  503  504 -0.19339140141E+03  0.71272235712E+02  0.11541391914E+03  0.23622095262E+03  0.00000000000E+00 0.  1.
         21    1    1    2  504  501 -0.48611176824E+02  0.44447990386E+02  0.53348251162E+02  0.84762646630E+02  0.00000000000E+00 0.  1.
<mgrwt>
<rscale>  4 0.29594158E+03</rscale>
<asrwt>0</asrwt>
<pdfrwt beam="1">  1       21 0.18797779E+00 0.29594158E+03</pdfrwt>
<pdfrwt beam="2">  1       21 0.15157218E-01 0.29594158E+03</pdfrwt>
<totfact> 0.57457706E+03</totfact>
</mgrwt>
</event>
<event>
 5    0  0.1856407E+000  0.2427362E+03  0.7546771E-02  0.1117983E+00
         21   -1    0    0  502  501  0.00000000000E+00  0.00000000000E+00  0.97879225484E+03  0.97879225484E+03  0.00000000000E+00 0. -1.
         21   -1    0    0  503  502 -0.00000000000E+00 -0.00000000000E+00 -0.32245826602E+03  0.32245826602E+03  0.00000000000E+00 0.  1.
         25    1    1    2    0    0 -0.20680263495E+03  0.22989776862E+02  0.92718332893E+03  0.95843089741E+03  0.12500000000E+03 0.  0.
         21    1    1    2  503  504  0.20974840430E+02  0.53979457439E+01 -0.21176898676E+02  0.30290968734E+02  0.00000000000E+00 0. -1.
         21    1    1    2  504  501  0.18582779452E+03 -0.28387722605E+02 -0.24967244143E+03  0.31252865472E+03  0.00000000000E+00 0.  1.
<mgrwt>
<rscale>  4 0.24273619E+03</rscale>
<asrwt>0</asrwt>
<pdfrwt beam="1">  1       21 0.15058342E+00 0.24273619E+03</pdfrwt>
<pdfrwt beam="2">  1       21 0.49608965E-01 0.24273619E+03</pdfrwt>
<totfact> 0.10932575E+03</totfact>
</mgrwt>
</event>
<event>
 5    0  0.1856407E+000  0.2616238E+03  0.7546771E-02  0.1106172E+00
         21   -1    0    0  502  501  0.00000000000E+00  0.00000000000E+00  0.57073947734E+03  0.57073947734E+03  0.00000000000E+00 0. -1.
         21   -1    0    0  503  502 -0.00000000000E+00 -0.00000000000E+00 -0.71729641429E+03  0.71729641429E+03  0.00000000000E+00 0.  1.
         25    1    1    2    0    0 -0.14869595262E+03  0.17524707662E+03  0.52014022929E+03  0.58223095273E+03  0.12500000000E+03 0.  0.
         21    1    1    2  503  504  0.13605980614E+03 -0.15505239443E+03 -0.61939483949E+03  0.65284261736E+03  0.00000000000E+00 0.  1.
         21    1    1    2  504  501  0.12636146486E+02 -0.20194682181E+02 -0.47302326756E+02  0.52962321541E+02  0.00000000000E+00 0.  1.
<mgrwt>
<rscale>  4 0.26162382E+03</rscale>
<asrwt>0</asrwt>
<pdfrwt beam="1">  1       21 0.87806073E-01 0.26162382E+03</pdfrwt>
<pdfrwt beam="2">  1       21 0.11035329E+00 0.26162382E+03</pdfrwt>
<totfact> 0.67616219E+02</totfact>
</mgrwt>
</event>
<event>
 5    0  0.1856407E+000  0.2605269E+03  0.7546771E-02  0.1106827E+00
         21   -1    0    0  502  501  0.00000000000E+00  0.00000000000E+00  0.14573163349E+04  0.14573163349E+04  0.00000000000E+00 0.  1.
         21   -1    0    0  503  502 -0.00000000000E+00 -0.00000000000E+00 -0.25414506748E+03  0.25414506748E+03  0.00000000000E+00 0.  1.
         25    1    1    2    0    0 -0.12057348667E+03 -0.19419403544E+03  0.13853755637E+04  0.14096594417E+04  0.12500000000E+03 0.  0.
         21    1    1    2  503  504  0.45222205364E+02  0.31277822134E+02 -0.16233000646E+02  0.57331146208E+02  0.00000000000E+00 0.  1.
         21    1    1    2  504  501  0.75351281309E+02  0.16291621331E+03 -0.16597129564E+03  0.24447081447E+03  0.00000000000E+00 0.  1.
<mgrwt>
<rscale>  4 0.26052695E+03</rscale>
<asrwt>0</asrwt>
<pdfrwt beam="1">  1       21 0.22420251E+00 0.26052695E+03</pdfrwt>
<pdfrwt beam="2">  1       21 0.39099242E-01 0.26052695E+03</pdfrwt>
<totfact> 0.55573389E+02</totfact>
</mgrwt>
</event>
<event>
 5    0  0.1856407E+000  0.2510382E+03  0.7546771E-02  0.1112650E+00
         21   -1    0    0  502  501  0.00000000000E+00  0.00000000000E+00  0.38990546062E+03  0.38990546062E+03  0.00000000000E+00 0. -1.
         21   -1    0    0  503  502 -0.00000000000E+00 -0.00000000000E+00 -0.24092499033E+03  0.24092499033E+03  0.00000000000E+00 0. -1.
         25    1    1    2    0    0  0.10152489175E+03  0.19258208076E+03  0.27696536072E+03  0.37380472511E+03  0.12500000000E+03 0.  0.
         21    1    1    2  503  504 -0.61889072767E+02 -0.10853362781E+03 -0.99842572893E+02  0.15993231398E+03  0.00000000000E+00 0. -1.
         21    1    1    2  504  501 -0.39635818984E+02 -0.84048452948E+02 -0.28142317539E+02  0.97093411856E+02  0.00000000000E+00 0. -1.
<mgrwt>
<rscale>  4 0.25103817E+03</rscale>
<asrwt>0</asrwt>
<pdfrwt beam="1">  1       21 0.59985455E-01 0.25103817E+03</pdfrwt>
<pdfrwt beam="2">  1       21 0.37065383E-01 0.25103817E+03</pdfrwt>
<totfact> 0.17615637E+04</totfact>
</mgrwt>
</event>
<event>
 5    0  0.1856407E+000  0.2761965E+03  0.7546771E-02  0.1097785E+00
         21   -1    0    0  502  501  0.00000000000E+00  0.00000000000E+00  0.24968048827E+03  0.24968048827E+03  0.00000000000E+00 0.  1.
         21   -1    0    0  503  502 -0.00000000000E+00 -0.00000000000E+00 -0.79982602333E+03  0.79982602333E+03  0.00000000000E+00 0.  1.
         25    1    1    2    0    0 -0.25623894900E+03  0.51108737740E+02  0.95176133056E+02  0.30488358165E+03  0.12500000000E+03 0.  0.
         21    1    1    2  503  504  0.80420698293E+02 -0.10351262950E+03 -0.87998616421E+02  0.15788004836E+03  0.00000000000E+00 0.  1.
         21    1    1    2  504  501  0.17581825070E+03  0.52403891757E+02 -0.55732305169E+03  0.58674288159E+03  0.00000000000E+00 0.  1.
<mgrwt>
<rscale>  4 0.27619651E+03</rscale>
<asrwt>0</asrwt>
<pdfrwt beam="1">  1       21 0.38412383E-01 0.27619651E+03</pdfrwt>
<pdfrwt beam="2">  1       21 0.12305016E+00 0.27619651E+03</pdfrwt>
<totfact> 0.30477458E+03</totfact>
</mgrwt>
</event>
<event>
 5    0  0.1856407E+000  0.2558987E+03  0.7546771E-02  0.1109633E+00
         21   -1    0    0  502  501  0.00000000000E+00  0.00000000000E+00  0.89332360965E+03  0.89332360965E+03  0.00000000000E+00 0. -1.
         21   -1    0    0  503  502 -0.00000000000E+00 -0.00000000000E+00 -0.93921749801E+02  0.93921749801E+02  0.00000000000E+00 0. -1.
         25    1    1    2    0    0 -0.85232442352E+02  0.20638456548E+03  0.68925836527E+03  0.73522870741E+03  0.12500000000E+03 0.  0.
         21    1    1    2  503  504  0.31747163772E+02 -0.35982051432E+02  0.20468639633E+02  0.52168531140E+02  0.00000000000E+00 0. -1.
         21    1    1    2  504  501  0.53485278580E+02 -0.17040251405E+03  0.89674854946E+02  0.19984812091E+03  0.00000000000E+00 0. -1.
<mgrwt>
<rscale>  4 0.25589873E+03</rscale>
<asrwt>0</asrwt>
<pdfrwt beam="1">  1       21 0.13743440E+00 0.25589873E+03</pdfrwt>
<pdfrwt beam="2">  1       21 0.14449501E-01 0.25589873E+03</pdfrwt>
<totfact> 0.15154906E+04</totfact>
</mgrwt>
</event>
<event>
 5    0  0.1856407E+000  0.2721140E+03  0.7546771E-02  0.1100076E+00
         21   -1    0    0  502  501  0.00000000000E+00  0.00000000000E+00  0.63543883953E+02  0.63543883953E+02  0.00000000000E+00 0.  1.
         21   -1    0    0  503  502 -0.00000000000E+00 -0.00000000000E+00 -0.18523206829E+04  0.18523206829E+04  0.00000000000E+00 0. -1.
         25    1    1    2    0    0  0.22755464597E+03  0.81485517015E+02 -0.29190239564E+03  0.39906517634E+03  0.12500000000E+03 0.  0.
         21    1    1    2  503  504 -0.18430928814E+03 -0.62777163276E+02 -0.12911120053E+04  0.13057109543E+04  0.00000000000E+00 0. -1.
         21    1    1    2  504  501 -0.43245357828E+02 -0.18708353739E+02 -0.20576239797E+03  0.21108843619E+03  0.00000000000E+00 0.  1.
<mgrwt>
<rscale>  4 0.27211396E+03</rscale>
<asrwt>0</asrwt>
<pdfrwt beam="1">  1       21 0.97759816E-02 0.27211396E+03</pdfrwt>
<pdfrwt beam="2">  1       21 0.28497243E+00 0.27211396E+03</pdfrwt>
<totfact> 0.32527906E+03</totfact>
</mgrwt>
</event>
<event>
 5    0  0.1856407E+000  0.4220891E+03  0.7546771E-02  0.1036389E+00
         21   -1    0    0  502  501  0.00000000000E+00  0.00000000000E+00  0.64732204057E+03  0.64732204057E+03  0.00000000000E+00 0.  1.
         21   -1    0    0  503  502 -0.00000000000E+00 -0.00000000000E+00 -0.55860573128E+03  0.55860573128E+03  0.00000000000E+00 0.  1.
         25    1    1    2    0    0 -0.18137215682E+03  0.38754632482E+03  0.45092842753E+03  0.63407370226E+03  0.12500000000E+03 0.  0.
         21    1    1    2  503  504  0.23143918327E+01 -0.30792472403E+02  0.27368227372E+01  0.31000370400E+02  0.00000000000E+00 0.  1.
         21    1    1    2  504  501  0.17905776498E+03 -0.35675385241E+03 -0.36494894097E+03  0.54085369919E+03  0.00000000000E+00 0.  1.
<mgrwt>
<rscale>  4 0.42208913E+03</rscale>
<asrwt>0</asrwt>
<pdfrwt beam="1">  1       21 0.99588006E-01 0.42208913E+03</pdfrwt>
<pdfrwt beam="2">  1       21 0.85939343E-01 0.42208913E+03</pdfrwt>
<totfact> 0.83003116E+02</totfact>
</mgrwt>
</event>
<event>
 5    0  0.5193707E+000  0.2423191E+03  0.7546771E-02  0.1118257E+00
         21   -1    0    0  502  501  0.00000000000E+00  0.00000000000E+00  0.47182571277E+03  0.47182571277E+03  0.00000000000E+00 0.  1.
         21   -1    0    0  503  502 -0.00000000000E+00 -0.00000000000E+00 -0.16764494687E+03  0.16764494687E+03  0.00000000000E+00 0.  1.
         25    1    1    2    0    0  0.17918953263E+03  0.10480776471E+03  0.34763622252E+03  0.42375641512E+03  0.12500000000E+03 0.  0.
         21    1    1    2  503  504 -0.29535968714E+02 -0.45543800202E+01  0.19525284183E+01  0.29948759448E+02  0.00000000000E+00 0. -1.
         21    1    1    2  504  501 -0.14965356392E+03 -0.10025338469E+03 -0.45407985045E+02  0.18576548507E+03  0.00000000000E+00 0.  1.
<mgrwt>
<rscale>  4 0.24231912E+03</rscale>
<asrwt>0</asrwt>
<pdfrwt beam="1">  1       21 0.72588571E-01 0.24231912E+03</pdfrwt>
<pdfrwt beam="2">  1       21 0.25791531E-01 0.24231912E+03</pdfrwt>
<totfact> 0.23754684E+04</totfact>
</mgrwt>
</event>
<event>
 5    0  0.1856407E+000  0.2422573E+03  0.7546771E-02  0.1118298E+00
         21   -1    0    0  502  501  0.00000000000E+00  0.00000000000E+00  0.80098312941E+02  0.80098312941E+02  0.00000000000E+00 0.  1.
         21   -1    0    0  503  502 -0.00000000000E+00 -0.00000000000E+00 -0.19040680016E+04  0.19040680016E+04  0.00000000000E+00 0. -1.
         25    1    1    2    0    0  0.62328663495E+02  0.22564005994E+03 -0.21542004781E+03  0.34180271494E+03  0.12500000000E+03 0.  0.
         21    1    1    2  503  504 -0.21004007863E+02 -0.20393552195E+03 -0.15654931679E+04  0.15788602612E+04  0.00000000000E+00 0. -1.
         21    1    1    2  504  501 -0.41324655631E+02 -0.21704537990E+02 -0.43056472937E+02  0.63503338449E+02  0.00000000000E+00 0. -1.
<mgrwt>
<rscale>  4 0.24225731E+03</rscale>
<asrwt>0</asrwt>
<pdfrwt beam="1">  1       21 0.12322819E-01 0.24225731E+03</pdfrwt>
<pdfrwt beam="2">  1       21 0.29293351E+00 0.24225731E+03</pdfrwt>
<totfact> 0.19838650E+03</totfact>
</mgrwt>
</event>
