<event>
 5    0  0.2374646E+000  0.2850827E+03  0.7546771E-02  0.1092945E+00
         21   -1    0    0  502  501  0.00000000000E+00  0.00000000000E+00  0.13899300220E+03  0.13899300220E+03  0.00000000000E+00 0.  1.
         21   -1    0    0  503  502 -0.00000000000E+00 -0.00000000000E+00 -0.95527589980E+03  0.95527589980E+03  0.00000000000E+00 0.  1.
         25    1    1    2    0    0 -0.10115292536E+03  0.23540442411E+03 -0.66705648490E+02  0.29278285595E+03  0.12500000000E+03 0.  0.
         21    1    1    2  503  504  0.89971693199E+02 -0.12976123717E+03 -0.29435541750E+03  0.33403292662E+03  0.00000000000E+00 0.  1.
         21    1    1    2  504  501  0.11181232160E+02 -0.10564318693E+03 -0.45522183161E+03  0.46745311944E+03  0.00000000000E+00 0.  1.
<mgrwt>
<rscale>  4 0.28508272E+03</rscale>
<asrwt>0</asrwt>
<pdfrwt beam="1">  1       21 0.21383538E-01 0.28508272E+03</pdfrwt>
<pdfrwt beam="2">  1       21 0.14696553E+00 0.28508272E+03</pdfrwt>
<totfact> 0.60298211E+03</totfact>
</mgrwt>
</event>
<event>
 5    0  0.4360988E+000  0.3405573E+03  0.7546771E-02  0.1066559E+00
         21   -1    0    0  502  501  0.00000000000E+00  0.00000000000E+00  0.17332808334E+04  0.17332808334E+04  0.00000000000E+00 0.  1.
         21   -1    0    0  503  502 -0.00000000000E+00 -0.00000000000E+00 -0.72530572907E+02  0.72530572907E+02  0.00000000000E+00 0.  1.
         25    1    1    2    0    0  0.19749856329E+03  0.25148259929E+03  0.59511339559E+03  0.68704740292E+03  0.12500000000E+03 0.  0.
         21    1    1    2  503  504 -0.20031282091E+02  0.93782089598E+01  0.40141352198E+02  0.45831552688E+02  0.00000000000E+00 0.  1.
         21    1    1    2  504  501 -0.17746728120E+03 -0.26086080825E+03  0.10254955127E+04  0.10729324507E+04  0.00000000000E+00 0.  1.
<mgrwt>
<rscale>  4 0.34055727E+03</rscale>
<asrwt>0</asrwt>
<pdfrwt beam="1">  1       21 0.26665856E+00 0.34055727E+03</pdfrwt>
<pdfrwt beam="2">  1       21 0.11158551E-01 0.34055727E+03</pdfrwt>
<totfact> 0.31371677E+03</totfact>
</mgrwt>
</event>
<event>
 5    0  0.2515989E+000  0.3404114E+03  0.7546771E-02  0.1066621E+00
         21   -1    0    0  502  501  0.00000000000E+00  0.00000000000E+00  0.28516233531E+03  0.28516233531E+03  0.00000000000E+00 0. -1.
         21   -1    0    0  503  502 -0.00000000000E+00 -0.00000000000E+00 -0.39503335826E+03  0.39503335826E+03  0.00000000000E+00 0. -1.
         25    1    1    2    0    0  0.23507991274E+03  0.21211396994E+03 -0.14400441183E+02  0.34071582635E+03  0.12500000000E+03 0.  0.
         21    1    1    2  503  504 -0.16193652089E+03 -0.18829933357E+03 -0.64809365904E+02  0.25667163796E+03  0.00000000000E+00 0. -1.
         21    1    1    2  504  501 -0.73143391845E+02 -0.23814636367E+02 -0.30661215856E+02  0.82808229262E+02  0.00000000000E+00 0. -1.
<mgrwt>
<rscale>  4 0.34041137E+03</rscale>
<asrwt>0</asrwt>
<pdfrwt beam="1">  1       21 0.43871128E-01 0.34041137E+03</pdfrwt>
<pdfrwt beam="2">  1       21 0.60774363E-01 0.34041137E+03</pdfrwt>
<totfact> 0.11672460E+04</totfact>
</mgrwt>
</event>
<event>
 5    0  0.2159162E+000  0.5229133E+03  0.7546771E-02  0.1007965E+00
         21   -1    0    0  502  501  0.00000000000E+00  0.00000000000E+00  0.15675838389E+04  0.15675838389E+04  0.00000000000E+00 0.  1.
         21   -1    0    0  503  502 -0.00000000000E+00 -0.00000000000E+00 -0.17836823429E+03  0.17836823429E+03  0.00000000000E+00 0.  1.
         25    1    1    2    0    0  0.43695672540E+03 -0.25861583643E+03  0.84507635938E+03  0.99377682802E+03  0.12500000000E+03 0.  0.
         21    1    1    2  503  504 -0.58866863924E+02  0.83676520238E+02  0.95810187510E+02  0.14016654286E+03  0.00000000000E+00 0.  1.
         21    1    1    2  504  501 -0.37808986148E+03  0.17493931619E+03  0.44832905773E+03  0.61200870231E+03  0.00000000000E+00 0.  1.
<mgrwt>
<rscale>  4 0.52291331E+03</rscale>
<asrwt>0</asrwt>
<pdfrwt beam="1">  1       21 0.24116674E+00 0.52291331E+03</pdfrwt>
<pdfrwt beam="2">  1       21 0.27441268E-01 0.52291331E+03</pdfrwt>
<totfact> 0.75290547E+02</totfact>
</mgrwt>
</event>
<event>
 5    0  0.2159162E+000  0.3192521E+03  0.7546771E-02  0.1075994E+00
         21   -1    0    0  502  501  0.00000000000E+00  0.00000000000E+00  0.50992108349E+03  0.50992108349E+03  0.00000000000E+00 0. -1.
         21   -1    0    0  503  502 -0.00000000000E+00 -0.00000000000E+00 -0.40650789044E+03  0.40650789044E+03  0.00000000000E+00 0. -1.
         25    1    1    2    0    0 -0.28076084279E+03 -0.86430555964E+02  0.38536944679E+03  0.50043131633E+03  0.12500000000E+03 0.  0.
         21    1    1    2  503  504  0.31616464727E+02 -0.15374173441E+02 -0.20131786686E+02  0.40512404101E+02  0.00000000000E+00 0. -1.
         21    1    1    2  504  501  0.24914437806E+03  0.10180472941E+03 -0.26182446705E+03  0.37548525350E+03  0.00000000000E+00 0. -1.
<mgrwt>
<rscale>  4 0.31925208E+03</rscale>
<asrwt>0</asrwt>
<pdfrwt beam="1">  1       21 0.78449397E-01 0.31925208E+03</pdfrwt>
<pdfrwt beam="2">  1       21 0.62539676E-01 0.31925208E+03</pdfrwt>
<totfact> 0.31342791E+03</totfact>
</mgrwt>
</event>
<event>
 5    0  0.2159162E+000  0.2729771E+03  0.7546771E-02  0.1099588E+00
         21   -1    0    0  502  501  0.00000000000E+00  0.00000000000E+00  0.47927883251E+03  0.47927883251E+03  0.00000000000E+00 0.  1.
         21   -1    0    0  503  502 -0.00000000000E+00 -0.00000000000E+00 -0.94098519551E+03  0.94098519551E+03  0.00000000000E+00 0. -1.
         25    1    1    2    0    0  0.19752063311E+03  0.14098614168E+03  0.41917146688E+03  0.50022116238E+03  0.12500000000E+03 0.  0.
         21    1    1    2  503  504 -0.76050306834E+02 -0.44857771602E+02 -0.16035231339E+03  0.18305390805E+03  0.00000000000E+00 0.  1.
         21    1    1    2  504  501 -0.12147032628E+03 -0.96128370073E+02 -0.72052551649E+03  0.73698895759E+03  0.00000000000E+00 0. -1.
<mgrwt>
<rscale>  4 0.27297709E+03</rscale>
<asrwt>0</asrwt>
<pdfrwt beam="1">  1       21 0.73735206E-01 0.27297709E+03</pdfrwt>
<pdfrwt beam="2">  1       21 0.14476695E+00 0.27297709E+03</pdfrwt>
<totfact> 0.50155933E+02</totfact>
</mgrwt>
</event>
