<event>
 5    0  0.1856407E+000  0.1995919E+03  0.7546771E-02  0.1150084E+00
         21   -1    0    0  502  501  0.00000000000E+00  0.00000000000E+00  0.37398934609E+02  0.37398934609E+02  0.00000000000E+00 0.  1.
         21   -1    0    0  503  502 -0.00000000000E+00 -0.00000000000E+00 -0.16098539751E+04  0.16098539751E+04  0.00000000000E+00 0.  1.
         25    1    1    2    0    0 -0.18918026196E+03  0.73519770651E+02 -0.72083276139E+03  0.75922275920E+03  0.12500000000E+03 0.  0.
         21    1    1    2  503  504  0.49543731927E+02 -0.56141589569E+02 -0.10929201096E+03  0.13248095377E+03  0.00000000000E+00 0.  1.
         21    1    1    2  504  501  0.13963653003E+03 -0.17378181082E+02 -0.74233026810E+03  0.75554919670E+03  0.00000000000E+00 0.  1.
<mgrwt>
<rscale>  4 0.19959192E+03</rscale>
<asrwt>0</asrwt>
<pdfrwt beam="1">  1       21 0.57536808E-02 0.19959192E+03</pdfrwt>
<pdfrwt beam="2">  1       21 0.24766990E+00 0.19959192E+03</pdfrwt>
<totfact> 0.14446969E+04</totfact>
</mgrwt>
</event>
<event>
 5    0  0.1856407E+000  0.3160779E+03  0.7546771E-02  0.1077469E+00
         21   -1    0    0  502  501  0.00000000000E+00  0.00000000000E+00  0.13014200342E+04  0.13014200342E+04  0.00000000000E+00 0.  1.
         21   -1    0    0  503  502 -0.00000000000E+00 -0.00000000000E+00 -0.84516004833E+03  0.84516004833E+03  0.00000000000E+00 0.  1.
         25    1    1    2    0    0  0.17306732632E+03  0.23435334363E+03  0.12509801836E+04  0.12905232306E+04  0.12500000000E+03 0.  0.
         21    1    1    2  503  504 -0.13938167619E+03 -0.22066533625E+03 -0.55159092711E+03  0.61022372385E+03  0.00000000000E+00 0.  1.
         21    1    1    2  504  501 -0.33685650128E+02 -0.13688007377E+02 -0.24312927065E+03  0.24583312799E+03  0.00000000000E+00 0.  1.
<mgrwt>
<rscale>  4 0.31607794E+03</rscale>
<asrwt>0</asrwt>
<pdfrwt beam="1">  1       21 0.20021847E+00 0.31607794E+03</pdfrwt>
<pdfrwt beam="2">  1       21 0.13002462E+00 0.31607794E+03</pdfrwt>
<totfact> 0.49916650E+01</totfact>
</mgrwt>
</event>
<event>
 5    0  0.1856407E+000  0.3673132E+03  0.7546771E-02  0.1055725E+00
         21   -1    0    0  502  501  0.00000000000E+00  0.00000000000E+00  0.24376041039E+03  0.24376041039E+03  0.00000000000E+00 0.  1.
         21   -1    0    0  503  502 -0.00000000000E+00 -0.00000000000E+00 -0.57059099041E+03  0.57059099041E+03  0.00000000000E+00 0. -1.
         25    1    1    2    0    0  0.34487540894E+03 -0.18838997991E+02 -0.59832651143E+02  0.37215440569E+03  0.12500000000E+03 0.  0.
         21    1    1    2  503  504 -0.23013488646E+03  0.44848035187E+02 -0.18732508791E+03  0.30010681563E+03  0.00000000000E+00 0. -1.
         21    1    1    2  504  501 -0.11474052248E+03 -0.26009037196E+02 -0.79672840971E+02  0.14209017947E+03  0.00000000000E+00 0. -1.
<mgrwt>
<rscale>  4 0.36731316E+03</rscale>
<asrwt>0</asrwt>
<pdfrwt beam="1">  1       21 0.37501602E-01 0.36731316E+03</pdfrwt>
<pdfrwt beam="2">  1       21 0.87783228E-01 0.36731316E+03</pdfrwt>
<totfact> 0.69477037E+03</totfact>
</mgrwt>
</event>
<event>
 5    0  0.1856407E+000  0.2139636E+03  0.7546771E-02  0.1138465E+00
         21   -1    0    0  502  501  0.00000000000E+00  0.00000000000E+00  0.88099008111E+03  0.88099008111E+03  0.00000000000E+00 0. -1.
         21   -1    0    0  503  502 -0.00000000000E+00 -0.00000000000E+00 -0.22687428184E+03  0.22687428184E+03  0.00000000000E+00 0. -1.
         25    1    1    2    0    0 -0.12963344005E+03 -0.16811158602E+03  0.72598256776E+03  0.76664334786E+03  0.12500000000E+03 0.  0.
         21    1    1    2  503  504  0.49965537789E+02  0.79819567625E+02 -0.16512769217E+03  0.19009174906E+03  0.00000000000E+00 0. -1.
         21    1    1    2  504  501  0.79667902258E+02  0.88292018397E+02  0.93260923684E+02  0.15112926602E+03  0.00000000000E+00 0. -1.
<mgrwt>
<rscale>  4 0.21396361E+03</rscale>
<asrwt>0</asrwt>
<pdfrwt beam="1">  1       21 0.13553693E+00 0.21396361E+03</pdfrwt>
<pdfrwt beam="2">  1       21 0.34903736E-01 0.21396361E+03</pdfrwt>
<totfact> 0.30209883E+03</totfact>
</mgrwt>
</event>
<event>
 5    0  0.3292293E+000  0.2664909E+03  0.7546771E-02  0.1103305E+00
         21   -1    0    0  502  501  0.00000000000E+00  0.00000000000E+00  0.47136621057E+03  0.47136621057E+03  0.00000000000E+00 0. -1.
         21   -1    0    0  503  502 -0.00000000000E+00 -0.00000000000E+00 -0.22159414794E+03  0.22159414794E+03  0.00000000000E+00 0. -1.
         25    1    1    2    0    0 -0.13024935389E+03  0.22662345298E+03  0.28619309234E+03  0.40725246437E+03  0.12500000000E+03 0.  0.
         21    1    1    2  503  504  0.98803027366E+02 -0.20661580497E+03 -0.65755545992E+02  0.23827698359E+03  0.00000000000E+00 0. -1.
         21    1    1    2  504  501  0.31446326524E+02 -0.20007648005E+02  0.29334516279E+02  0.47430910553E+02  0.00000000000E+00 0. -1.
<mgrwt>
<rscale>  4 0.26649087E+03</rscale>
<asrwt>0</asrwt>
<pdfrwt beam="1">  1       21 0.72517878E-01 0.26649087E+03</pdfrwt>
<pdfrwt beam="2">  1       21 0.34091407E-01 0.26649087E+03</pdfrwt>
<totfact> 0.13619847E+04</totfact>
</mgrwt>
</event>
<event>
 5    0  0.1856407E+000  0.2431188E+03  0.7546771E-02  0.1117732E+00
         21   -1    0    0  502  501  0.00000000000E+00  0.00000000000E+00  0.11447497227E+03  0.11447497227E+03  0.00000000000E+00 0.  1.
         21   -1    0    0  503  502 -0.00000000000E+00 -0.00000000000E+00 -0.46893057285E+03  0.46893057285E+03  0.00000000000E+00 0.  1.
         25    1    1    2    0    0  0.26902417478E+02 -0.20678012737E+03 -0.22920150911E+03  0.33412586389E+03  0.12500000000E+03 0.  0.
         21    1    1    2  503  504 -0.12218395616E+02  0.13306248388E+03 -0.49318035208E+02  0.14243308044E+03  0.00000000000E+00 0.  1.
         21    1    1    2  504  501 -0.14684021862E+02  0.73717643487E+02 -0.75936056264E+02  0.10684660079E+03  0.00000000000E+00 0.  1.
<mgrwt>
<rscale>  4 0.24311882E+03</rscale>
<asrwt>0</asrwt>
<pdfrwt beam="1">  1       21 0.17611534E-01 0.24311882E+03</pdfrwt>
<pdfrwt beam="2">  1       21 0.72143165E-01 0.24311882E+03</pdfrwt>
<totfact> 0.49506414E+04</totfact>
</mgrwt>
</event>
<event>
 5    0  0.1856407E+000  0.2692081E+03  0.7546771E-02  0.1101734E+00
         21   -1    0    0  502  501  0.00000000000E+00  0.00000000000E+00  0.33159754691E+03  0.33159754691E+03  0.00000000000E+00 0. -1.
         21   -1    0    0  503  502 -0.00000000000E+00 -0.00000000000E+00 -0.67400993179E+03  0.67400993179E+03  0.00000000000E+00 0.  1.
         25    1    1    2    0    0  0.17367112336E+03  0.20259396380E+03  0.18544030332E+03  0.34816530464E+03  0.12500000000E+03 0.  0.
         21    1    1    2  503  504  0.15689494083E+02 -0.61160057672E+02  0.15409892752E+02  0.64993674105E+02  0.00000000000E+00 0. -1.
         21    1    1    2  504  501 -0.18936061744E+03 -0.14143390612E+03 -0.54326258095E+03  0.59244849996E+03  0.00000000000E+00 0.  1.
<mgrwt>
<rscale>  4 0.26920809E+03</rscale>
<asrwt>0</asrwt>
<pdfrwt beam="1">  1       21 0.51015008E-01 0.26920809E+03</pdfrwt>
<pdfrwt beam="2">  1       21 0.10369383E+00 0.26920809E+03</pdfrwt>
<totfact> 0.25961150E+03</totfact>
</mgrwt>
</event>
<event>
 5    0  0.1856407E+000  0.3267276E+03  0.7546771E-02  0.1072594E+00
         21   -1    0    0  502  501  0.00000000000E+00  0.00000000000E+00  0.17754017824E+04  0.17754017824E+04  0.00000000000E+00 0.  1.
         21   -1    0    0  503  502 -0.00000000000E+00 -0.00000000000E+00 -0.16946705497E+03  0.16946705497E+03  0.00000000000E+00 0.  1.
         25    1    1    2    0    0 -0.19228346479E+02  0.30707550207E+03  0.14950770279E+04  0.15315173563E+04  0.12500000000E+03 0.  0.
         21    1    1    2  503  504 -0.87704499412E+02 -0.27144134349E+03  0.85843557551E+02  0.29789528118E+03  0.00000000000E+00 0.  1.
         21    1    1    2  504  501  0.10693284589E+03 -0.35634158583E+02  0.25014141945E+02  0.11545619986E+03  0.00000000000E+00 0.  1.
<mgrwt>
<rscale>  4 0.32672763E+03</rscale>
<asrwt>0</asrwt>
<pdfrwt beam="1">  1       21 0.27313872E+00 0.32672763E+03</pdfrwt>
<pdfrwt beam="2">  1       21 0.26071856E-01 0.32672763E+03</pdfrwt>
<totfact> 0.59455737E+02</totfact>
</mgrwt>
</event>
<event>
 5    0  0.1856407E+000  0.2894258E+03  0.7546771E-02  0.1090649E+00
         21   -1    0    0  502  501  0.00000000000E+00  0.00000000000E+00  0.19884697440E+04  0.19884697440E+04  0.00000000000E+00 0.  1.
         21   -1    0    0  503  502 -0.00000000000E+00 -0.00000000000E+00 -0.45852811865E+02  0.45852811865E+02  0.00000000000E+00 0.  1.
         25    1    1    2    0    0  0.25486608192E+03 -0.56441062203E+02  0.13957998570E+04  0.14254909870E+04  0.12500000000E+03 0.  0.
         21    1    1    2  503  504 -0.73853587655E+02  0.41434907893E+02  0.20379021179E+03  0.22068451332E+03  0.00000000000E+00 0.  1.
         21    1    1    2  504  501 -0.18101249427E+03  0.15006154310E+02  0.34302686337E+03  0.38814705556E+03  0.00000000000E+00 0.  1.
<mgrwt>
<rscale>  4 0.28942583E+03</rscale>
<asrwt>0</asrwt>
<pdfrwt beam="1">  1       21 0.30591836E+00 0.28942583E+03</pdfrwt>
<pdfrwt beam="2">  1       21 0.70542803E-02 0.28942583E+03</pdfrwt>
<totfact> 0.42903713E+03</totfact>
</mgrwt>
</event>
<event>
 5    0  0.1856407E+000  0.2391286E+03  0.7546771E-02  0.1120375E+00
         21   -1    0    0  502  501  0.00000000000E+00  0.00000000000E+00  0.24670150221E+04  0.24670150221E+04  0.00000000000E+00 0.  1.
         21   -1    0    0  503  502 -0.00000000000E+00 -0.00000000000E+00 -0.12346840897E+03  0.12346840897E+03  0.00000000000E+00 0. -1.
         25    1    1    2    0    0 -0.18795536557E+03 -0.78932041409E+02  0.23666339648E+04  0.23786842603E+04  0.12500000000E+03 0.  0.
         21    1    1    2  503  504  0.93743213800E+02  0.64296715838E+02 -0.25198080353E+02  0.11643367663E+03  0.00000000000E+00 0. -1.
         21    1    1    2  504  501  0.94212151767E+02  0.14635325571E+02  0.21107286219E+01  0.95365494128E+02  0.00000000000E+00 0.  1.
<mgrwt>
<rscale>  4 0.23912860E+03</rscale>
<asrwt>0</asrwt>
<pdfrwt beam="1">  1       21 0.37954074E+00 0.23912860E+03</pdfrwt>
<pdfrwt beam="2">  1       21 0.18995142E-01 0.23912860E+03</pdfrwt>
<totfact> 0.27580089E+02</totfact>
</mgrwt>
</event>
<event>
 5    0  0.1856407E+000  0.3570076E+03  0.7546771E-02  0.1059775E+00
         21   -1    0    0  502  501  0.00000000000E+00  0.00000000000E+00  0.36306877730E+03  0.36306877730E+03  0.00000000000E+00 0. -1.
         21   -1    0    0  503  502 -0.00000000000E+00 -0.00000000000E+00 -0.35198122403E+03  0.35198122403E+03  0.00000000000E+00 0. -1.
         25    1    1    2    0    0 -0.33116204379E+03  0.46487610987E+02 -0.31288232220E+02  0.35837599068E+03  0.12500000000E+03 0.  0.
         21    1    1    2  503  504  0.19906654768E+03 -0.65580804884E+02  0.68841536008E+02  0.22060709294E+03  0.00000000000E+00 0. -1.
         21    1    1    2  504  501  0.13209549611E+03  0.19093193897E+02 -0.26465750517E+02  0.13606691771E+03  0.00000000000E+00 0. -1.
<mgrwt>
<rscale>  4 0.35700756E+03</rscale>
<asrwt>0</asrwt>
<pdfrwt beam="1">  1       21 0.55856735E-01 0.35700756E+03</pdfrwt>
<pdfrwt beam="2">  1       21 0.54150957E-01 0.35700756E+03</pdfrwt>
<totfact> 0.89366190E+03</totfact>
</mgrwt>
</event>
<event>
 5    0  0.1856407E+000  0.2661559E+03  0.7546771E-02  0.1103500E+00
         21   -1    0    0  502  501  0.00000000000E+00  0.00000000000E+00  0.20058725465E+03  0.20058725465E+03  0.00000000000E+00 0.  1.
         21   -1    0    0  503  502 -0.00000000000E+00 -0.00000000000E+00 -0.40114214624E+03  0.40114214624E+03  0.00000000000E+00 0.  1.
         25    1    1    2    0    0 -0.61948220438E+02  0.22666354273E+03  0.28395946176E+02  0.26766634711E+03  0.12500000000E+03 0.  0.
         21    1    1    2  503  504  0.21472790999E+02 -0.12948091868E+03 -0.16519549058E+03  0.21098800716E+03  0.00000000000E+00 0.  1.
         21    1    1    2  504  501  0.40475429439E+02 -0.97182624046E+02 -0.63755347186E+02  0.12307504662E+03  0.00000000000E+00 0.  1.
<mgrwt>
<rscale>  4 0.26615586E+03</rscale>
<asrwt>0</asrwt>
<pdfrwt beam="1">  1       21 0.30859578E-01 0.26615586E+03</pdfrwt>
<pdfrwt beam="2">  1       21 0.61714176E-01 0.26615586E+03</pdfrwt>
<totfact> 0.23687603E+04</totfact>
</mgrwt>
</event>
<event>
 5    0  0.1862839E+000  0.3168636E+03  0.7546771E-02  0.1077102E+00
         21   -1    0    0  502  501  0.00000000000E+00  0.00000000000E+00  0.34227472833E+03  0.34227472833E+03  0.00000000000E+00 0.  1.
         21   -1    0    0  503  502 -0.00000000000E+00 -0.00000000000E+00 -0.34948234796E+03  0.34948234796E+03  0.00000000000E+00 0.  1.
         25    1    1    2    0    0 -0.25880729224E+03  0.16420249079E+03 -0.25418052513E+01  0.33102134866E+03  0.12500000000E+03 0.  0.
         21    1    1    2  503  504  0.56925628566E+02  0.33423534352E+02  0.36196723185E+02  0.75285208411E+02  0.00000000000E+00 0.  1.
         21    1    1    2  504  501  0.20188166367E+03 -0.19762602514E+03 -0.40862537561E+02  0.28545051921E+03  0.00000000000E+00 0.  1.
<mgrwt>
<rscale>  4 0.31686360E+03</rscale>
<asrwt>0</asrwt>
<pdfrwt beam="1">  1       21 0.52657651E-01 0.31686360E+03</pdfrwt>
<pdfrwt beam="2">  1       21 0.53766515E-01 0.31686360E+03</pdfrwt>
<totfact> 0.10461827E+04</totfact>
</mgrwt>
</event>
