<event>
 5    0  0.2193454E+000  0.2726555E+03  0.7546771E-02  0.1099769E+00
         21   -1    0    0  503  501  0.00000000000E+00  0.00000000000E+00  0.19309179565E+04  0.19309179565E+04  0.00000000000E+00 0. -1.
         21   -1    0    0  501  502 -0.00000000000E+00 -0.00000000000E+00 -0.10100114140E+04  0.10100114140E+04  0.00000000000E+00 0.  1.
         25    1    1    2    0    0  0.98112109126E+02 -0.22121214524E+03 -0.97541010516E+03  0.10127243813E+04  0.12500000000E+03 0.  0.
         21    1    1    2  503  504 -0.92802356422E+01 -0.24903809968E+02  0.82392584494E+03  0.82435436585E+03  0.00000000000E+00 0. -1.
         21    1    1    2  504  502 -0.88831873484E+02  0.24611595521E+03  0.10723908027E+04  0.11038506234E+04  0.00000000000E+00 0. -1.
<mgrwt>
<rscale>  4 0.27265553E+03</rscale>
<asrwt>0</asrwt>
<pdfrwt beam="1">  1       21 0.29706430E+00 0.27265553E+03</pdfrwt>
<pdfrwt beam="2">  1       21 0.15538637E+00 0.27265553E+03</pdfrwt>
<totfact> 0.84456186E+00</totfact>
</mgrwt>
</event>
<event>
 5    0  0.2193454E+000  0.2356224E+03  0.7546771E-02  0.1122744E+00
         21   -1    0    0  502  501  0.00000000000E+00  0.00000000000E+00  0.33407230156E+02  0.33407230156E+02  0.00000000000E+00 0. -1.
         21   -1    0    0  504  502 -0.00000000000E+00 -0.00000000000E+00 -0.16880709567E+04  0.16880709567E+04  0.00000000000E+00 0. -1.
         25    1    1    2    0    0 -0.76856381818E+02 -0.18696299300E+03 -0.85799268787E+03  0.89030248602E+03  0.12500000000E+03 0.  0.
         21    1    1    2  503  501  0.50797862731E+02  0.19198848038E+03 -0.76233949172E+03  0.78778264775E+03  0.00000000000E+00 0. -1.
         21    1    1    2  504  503  0.26058519087E+02 -0.50254873803E+01 -0.34331546992E+02  0.43393053123E+02  0.00000000000E+00 0.  1.
<mgrwt>
<rscale>  4 0.23562238E+03</rscale>
<asrwt>0</asrwt>
<pdfrwt beam="1">  1       21 0.51395729E-02 0.23562238E+03</pdfrwt>
<pdfrwt beam="2">  1       21 0.25970328E+00 0.23562238E+03</pdfrwt>
<totfact> 0.14429952E+04</totfact>
</mgrwt>
</event>
<event>
 5    0  0.2193454E+000  0.3289624E+03  0.7546771E-02  0.1071597E+00
         21   -1    0    0  503  501  0.00000000000E+00  0.00000000000E+00  0.11871311778E+03  0.11871311778E+03  0.00000000000E+00 0.  1.
         21   -1    0    0  504  502 -0.00000000000E+00 -0.00000000000E+00 -0.11015143410E+04  0.11015143410E+04  0.00000000000E+00 0.  1.
         25    1    1    2    0    0  0.17791044063E+03 -0.26601019311E+03 -0.39946415113E+03  0.52688723249E+03  0.12500000000E+03 0.  0.
         21    1    1    2  503  502 -0.21646587433E+03  0.20389407985E+03 -0.50603145655E+03  0.58693960981E+03  0.00000000000E+00 0.  1.
         21    1    1    2  504  501  0.38555433702E+02  0.62116113254E+02 -0.77305615555E+02  0.10640061649E+03  0.00000000000E+00 0.  1.
<mgrwt>
<rscale>  4 0.32896237E+03</rscale>
<asrwt>0</asrwt>
<pdfrwt beam="1">  1       21 0.18263557E-01 0.32896237E+03</pdfrwt>
<pdfrwt beam="2">  1       21 0.16946374E+00 0.32896237E+03</pdfrwt>
<totfact> 0.53750418E+03</totfact>
</mgrwt>
</event>
<event>
 5    0  0.2193454E+000  0.2653896E+03  0.7546771E-02  0.1103948E+00
         21   -1    0    0  503  501  0.00000000000E+00  0.00000000000E+00  0.40775438207E+03  0.40775438207E+03  0.00000000000E+00 0. -1.
         21   -1    0    0  501  502 -0.00000000000E+00 -0.00000000000E+00 -0.21243998723E+03  0.21243998723E+03  0.00000000000E+00 0. -1.
         25    1    1    2    0    0  0.10368106997E+03  0.20989733498E+03 -0.53061127605E+02  0.27064208610E+03  0.12500000000E+03 0.  0.
         21    1    1    2  503  504 -0.12917518165E+02 -0.60915134700E+02  0.27446100467E+02  0.68050013534E+02  0.00000000000E+00 0. -1.
         21    1    1    2  504  502 -0.90763551807E+02 -0.14898220028E+03  0.22092942197E+03  0.28150226967E+03  0.00000000000E+00 0. -1.
<mgrwt>
<rscale>  4 0.26538963E+03</rscale>
<asrwt>0</asrwt>
<pdfrwt beam="1">  1       21 0.62731443E-01 0.26538963E+03</pdfrwt>
<pdfrwt beam="2">  1       21 0.32683075E-01 0.26538963E+03</pdfrwt>
<totfact> 0.20413210E+04</totfact>
</mgrwt>
</event>
<event>
 5    0  0.2193454E+000  0.2943701E+03  0.7546771E-02  0.1088089E+00
         21   -1    0    0  502  501  0.00000000000E+00  0.00000000000E+00  0.26067788353E+03  0.26067788353E+03  0.00000000000E+00 0. -1.
         21   -1    0    0  504  502 -0.00000000000E+00 -0.00000000000E+00 -0.30856096897E+03  0.30856096897E+03  0.00000000000E+00 0.  1.
         25    1    1    2    0    0  0.22339203769E+03  0.14534354626E+03 -0.17432790567E+02  0.29488582728E+03  0.12500000000E+03 0.  0.
         21    1    1    2  503  501 -0.13302030044E+03 -0.11741833266E+03 -0.10891588517E+02  0.17776414677E+03  0.00000000000E+00 0. -1.
         21    1    1    2  504  503 -0.90371737241E+02 -0.27925213603E+02 -0.19558706361E+02  0.96588878456E+02  0.00000000000E+00 0. -1.
<mgrwt>
<rscale>  4 0.29437009E+03</rscale>
<asrwt>0</asrwt>
<pdfrwt beam="1">  1       21 0.40104290E-01 0.29437009E+03</pdfrwt>
<pdfrwt beam="2">  1       21 0.47470918E-01 0.29437009E+03</pdfrwt>
<totfact> 0.24222480E+04</totfact>
</mgrwt>
</event>
<event>
 5    0  0.2193454E+000  0.2320738E+03  0.7546771E-02  0.1125189E+00
         21   -1    0    0  503  501  0.00000000000E+00  0.00000000000E+00  0.63496073280E+03  0.63496073280E+03  0.00000000000E+00 0. -1.
         21   -1    0    0  501  502 -0.00000000000E+00 -0.00000000000E+00 -0.15670621203E+03  0.15670621203E+03  0.00000000000E+00 0.  1.
         25    1    1    2    0    0  0.13743984872E+03 -0.16728829037E+03  0.40598449216E+03  0.47678453413E+03  0.12500000000E+03 0.  0.
         21    1    1    2  503  504 -0.20986902434E+02  0.14756103748E+02  0.11537783345E+03  0.11819575764E+03  0.00000000000E+00 0. -1.
         21    1    1    2  504  502 -0.11645294628E+03  0.15253218662E+03 -0.43107804840E+02  0.19668665306E+03  0.00000000000E+00 0.  1.
<mgrwt>
<rscale>  4 0.23207384E+03</rscale>
<asrwt>0</asrwt>
<pdfrwt beam="1">  1       21 0.97686265E-01 0.23207384E+03</pdfrwt>
<pdfrwt beam="2">  1       21 0.24108648E-01 0.23207384E+03</pdfrwt>
<totfact> 0.13738797E+04</totfact>
</mgrwt>
</event>
<event>
 5    0  0.2193454E+000  0.2916794E+03  0.7546771E-02  0.1089476E+00
         21   -1    0    0  503  501  0.00000000000E+00  0.00000000000E+00  0.44706286470E+03  0.44706286470E+03  0.00000000000E+00 0. -1.
         21   -1    0    0  504  502 -0.00000000000E+00 -0.00000000000E+00 -0.26528258945E+03  0.26528258945E+03  0.00000000000E+00 0. -1.
         25    1    1    2    0    0  0.18726728164E+03 -0.18012579045E+03 -0.93818093107E+02  0.30321802346E+03  0.12500000000E+03 0.  0.
         21    1    1    2  503  502 -0.20794597879E+03  0.16393586125E+03  0.27650847603E+03  0.38284910084E+03  0.00000000000E+00 0. -1.
         21    1    1    2  504  501  0.20678697151E+02  0.16189929206E+02 -0.91010767952E+00  0.26278329847E+02  0.00000000000E+00 0. -1.
<mgrwt>
<rscale>  4 0.29167937E+03</rscale>
<asrwt>0</asrwt>
<pdfrwt beam="1">  1       21 0.68778902E-01 0.29167937E+03</pdfrwt>
<pdfrwt beam="2">  1       21 0.40812706E-01 0.29167937E+03</pdfrwt>
<totfact> 0.10530341E+04</totfact>
</mgrwt>
</event>
<event>
 5    0  0.2193454E+000  0.3036197E+03  0.7546771E-02  0.1083445E+00
         21   -1    0    0  503  501  0.00000000000E+00  0.00000000000E+00  0.75921068565E+03  0.75921068565E+03  0.00000000000E+00 0. -1.
         21   -1    0    0  504  502 -0.00000000000E+00 -0.00000000000E+00 -0.13647280644E+03  0.13647280644E+03  0.00000000000E+00 0. -1.
         25    1    1    2    0    0 -0.17489810600E+03  0.21110185144E+03  0.34275890719E+03  0.45635732449E+03  0.12500000000E+03 0.  0.
         21    1    1    2  503  502  0.19721410154E+03 -0.19700118498E+03  0.17061528852E+03  0.32682173338E+03  0.00000000000E+00 0. -1.
         21    1    1    2  504  501 -0.22315995545E+02 -0.14100666467E+02  0.10936368350E+03  0.11250443422E+03  0.00000000000E+00 0. -1.
<mgrwt>
<rscale>  4 0.30361972E+03</rscale>
<asrwt>0</asrwt>
<pdfrwt beam="1">  1       21 0.11680164E+00 0.30361972E+03</pdfrwt>
<pdfrwt beam="2">  1       21 0.20995817E-01 0.30361972E+03</pdfrwt>
<totfact> 0.11163729E+04</totfact>
</mgrwt>
</event>
<event>
 5    0  0.2193454E+000  0.2645916E+03  0.7546771E-02  0.1104415E+00
         21   -1    0    0  503  501  0.00000000000E+00  0.00000000000E+00  0.71535901174E+03  0.71535901174E+03  0.00000000000E+00 0. -1.
         21   -1    0    0  504  502 -0.00000000000E+00 -0.00000000000E+00 -0.13884302909E+03  0.13884302909E+03  0.00000000000E+00 0. -1.
         25    1    1    2    0    0  0.15216897910E+03 -0.17671541517E+03  0.43382406717E+02  0.26812454079E+03  0.12500000000E+03 0.  0.
         21    1    1    2  503  502 -0.14441458549E+03  0.14973277332E+03  0.40966377179E+03  0.45945607171E+03  0.00000000000E+00 0. -1.
         21    1    1    2  504  501 -0.77543936089E+01  0.26982641846E+02  0.12346980413E+03  0.12662142833E+03  0.00000000000E+00 0. -1.
<mgrwt>
<rscale>  4 0.26459164E+03</rscale>
<asrwt>0</asrwt>
<pdfrwt beam="1">  1       21 0.11005523E+00 0.26459164E+03</pdfrwt>
<pdfrwt beam="2">  1       21 0.21360466E-01 0.26459164E+03</pdfrwt>
<totfact> 0.12748246E+04</totfact>
</mgrwt>
</event>
<event>
 5    0  0.2193454E+000  0.3699268E+03  0.7546771E-02  0.1054721E+00
         21   -1    0    0  503  501  0.00000000000E+00  0.00000000000E+00  0.20732069161E+04  0.20732069161E+04  0.00000000000E+00 0.  1.
         21   -1    0    0  504  502 -0.00000000000E+00 -0.00000000000E+00 -0.72834226944E+02  0.72834226944E+02  0.00000000000E+00 0.  1.
         25    1    1    2    0    0  0.21600796031E+03  0.27160139288E+03  0.11707003939E+04  0.12274327549E+04  0.12500000000E+03 0.  0.
         21    1    1    2  503  502 -0.18895255505E+03 -0.29403570959E+03  0.67648410423E+03  0.76143995814E+03  0.00000000000E+00 0.  1.
         21    1    1    2  504  501 -0.27055405262E+02  0.22434316704E+02  0.15318819102E+03  0.15716843000E+03  0.00000000000E+00 0.  1.
<mgrwt>
<rscale>  4 0.36992685E+03</rscale>
<asrwt>0</asrwt>
<pdfrwt beam="1">  1       21 0.31895486E+00 0.36992685E+03</pdfrwt>
<pdfrwt beam="2">  1       21 0.11205267E-01 0.36992685E+03</pdfrwt>
<totfact> 0.14912612E+03</totfact>
</mgrwt>
</event>
<event>
 5    0  0.2193454E+000  0.2889649E+03  0.7546771E-02  0.1090891E+00
         21   -1    0    0  503  501  0.00000000000E+00  0.00000000000E+00  0.52945383657E+03  0.52945383657E+03  0.00000000000E+00 0.  1.
         21   -1    0    0  501  502 -0.00000000000E+00 -0.00000000000E+00 -0.49764985479E+03  0.49764985479E+03  0.00000000000E+00 0.  1.
         25    1    1    2    0    0 -0.12980786602E+03  0.22599696642E+03 -0.41063788201E+03  0.50216847875E+03  0.12500000000E+03 0.  0.
         21    1    1    2  503  504 -0.16823355866E+02 -0.10876454777E+02  0.51312737615E+02  0.55084658596E+02  0.00000000000E+00 0.  1.
         21    1    1    2  504  502  0.14663122188E+03 -0.21512051164E+03  0.39112912617E+03  0.46985055401E+03  0.00000000000E+00 0.  1.
<mgrwt>
<rscale>  4 0.28896490E+03</rscale>
<asrwt>0</asrwt>
<pdfrwt beam="1">  1       21 0.81454437E-01 0.28896490E+03</pdfrwt>
<pdfrwt beam="2">  1       21 0.76561516E-01 0.28896490E+03</pdfrwt>
<totfact> 0.18642783E+03</totfact>
</mgrwt>
</event>
<event>
 5    0  0.2193454E+000  0.2369990E+03  0.7546771E-02  0.1121808E+00
         21   -1    0    0  503  501  0.00000000000E+00  0.00000000000E+00  0.21290212250E+04  0.21290212250E+04  0.00000000000E+00 0.  1.
         21   -1    0    0  504  502 -0.00000000000E+00 -0.00000000000E+00 -0.37687734323E+02  0.37687734323E+02  0.00000000000E+00 0.  1.
         25    1    1    2    0    0 -0.24463952557E+02 -0.21610603413E+03  0.83940492482E+03  0.87608557275E+03  0.12500000000E+03 0.  0.
         21    1    1    2  503  502  0.38784867057E+02  0.18856052302E+03  0.46754964655E+03  0.50563030837E+03  0.00000000000E+00 0.  1.
         21    1    1    2  504  501 -0.14320914501E+02  0.27545511109E+02  0.78437891931E+03  0.78499307820E+03  0.00000000000E+00 0.  1.
<mgrwt>
<rscale>  4 0.23699899E+03</rscale>
<asrwt>0</asrwt>
<pdfrwt beam="1">  1       21 0.32754163E+00 0.23699899E+03</pdfrwt>
<pdfrwt beam="2">  1       21 0.57981146E-02 0.23699899E+03</pdfrwt>
<totfact> 0.47079178E+03</totfact>
</mgrwt>
</event>
<event>
 5    0  0.2193454E+000  0.2909566E+03  0.7546771E-02  0.1089851E+00
         21   -1    0    0  503  501  0.00000000000E+00  0.00000000000E+00  0.96369663222E+02  0.96369663222E+02  0.00000000000E+00 0. -1.
         21   -1    0    0  501  502 -0.00000000000E+00 -0.00000000000E+00 -0.12293227601E+04  0.12293227601E+04  0.00000000000E+00 0. -1.
         25    1    1    2    0    0  0.19171883147E+03  0.18729695938E+03 -0.90141157405E+03  0.94868545217E+03  0.12500000000E+03 0.  0.
         21    1    1    2  503  504 -0.32062969679E+02  0.71324613778E+01  0.30932638008E+01  0.32992034052E+02  0.00000000000E+00 0. -1.
         21    1    1    2  504  502 -0.15965586179E+03 -0.19442942076E+03 -0.23463478666E+03  0.34401493713E+03  0.00000000000E+00 0. -1.
<mgrwt>
<rscale>  4 0.29095660E+03</rscale>
<asrwt>0</asrwt>
<pdfrwt beam="1">  1       21 0.14826102E-01 0.29095660E+03</pdfrwt>
<pdfrwt beam="2">  1       21 0.18912658E+00 0.29095660E+03</pdfrwt>
<totfact> 0.58951488E+03</totfact>
</mgrwt>
</event>
<event>
 5    0  0.2193454E+000  0.3272920E+03  0.7546771E-02  0.1072341E+00
         21   -1    0    0  503  501  0.00000000000E+00  0.00000000000E+00  0.67305247222E+03  0.67305247222E+03  0.00000000000E+00 0. -1.
         21   -1    0    0  504  502 -0.00000000000E+00 -0.00000000000E+00 -0.25898024729E+03  0.25898024729E+03  0.00000000000E+00 0. -1.
         25    1    1    2    0    0 -0.29676449958E+03  0.84999193581E+02 -0.66470754169E+02  0.33961359260E+03  0.12500000000E+03 0.  0.
         21    1    1    2  503  502  0.27286808387E+03 -0.84566813055E+02  0.31534379030E+03  0.42549999194E+03  0.00000000000E+00 0. -1.
         21    1    1    2  504  501  0.23896415714E+02 -0.43238052597E+00  0.16519918881E+03  0.16691913497E+03  0.00000000000E+00 0. -1.
<mgrwt>
<rscale>  4 0.32729203E+03</rscale>
<asrwt>0</asrwt>
<pdfrwt beam="1">  1       21 0.10354653E+00 0.32729203E+03</pdfrwt>
<pdfrwt beam="2">  1       21 0.39843115E-01 0.32729203E+03</pdfrwt>
<totfact> 0.42141039E+03</totfact>
</mgrwt>
</event>
<event>
 5    0  0.2193454E+000  0.2363860E+03  0.7546771E-02  0.1122224E+00
         21   -1    0    0  503  501  0.00000000000E+00  0.00000000000E+00  0.11081449825E+04  0.11081449825E+04  0.00000000000E+00 0. -1.
         21   -1    0    0  504  502 -0.00000000000E+00 -0.00000000000E+00 -0.10033772617E+03  0.10033772617E+03  0.00000000000E+00 0. -1.
         25    1    1    2    0    0  0.17960437368E+03 -0.10835056285E+03  0.10750445783E+03  0.26679539720E+03  0.12500000000E+03 0.  0.
         21    1    1    2  503  502 -0.75942453579E+02 -0.32047425965E+02  0.14798720519E+03  0.16939452963E+03  0.00000000000E+00 0. -1.
         21    1    1    2  504  501 -0.10366192010E+03  0.14039798881E+03  0.75231559328E+03  0.77229278181E+03  0.00000000000E+00 0. -1.
<mgrwt>
<rscale>  4 0.23638605E+03</rscale>
<asrwt>0</asrwt>
<pdfrwt beam="1">  1       21 0.17048384E+00 0.23638605E+03</pdfrwt>
<pdfrwt beam="2">  1       21 0.15436574E-01 0.23638605E+03</pdfrwt>
<totfact> 0.76232314E+03</totfact>
</mgrwt>
</event>
<event>
 5    0  0.2193454E+000  0.3923665E+03  0.7546771E-02  0.1046455E+00
         21   -1    0    0  503  501  0.00000000000E+00  0.00000000000E+00  0.11545318585E+04  0.11545318585E+04  0.00000000000E+00 0. -1.
         21   -1    0    0  501  502 -0.00000000000E+00 -0.00000000000E+00 -0.26226002808E+03  0.26226002808E+03  0.00000000000E+00 0. -1.
         25    1    1    2    0    0 -0.52923187775E+02  0.38834144407E+03  0.68646144059E+03  0.80029010390E+03  0.12500000000E+03 0.  0.
         21    1    1    2  503  504 -0.10375848273E+02 -0.26304787823E+02  0.24523932877E+03  0.24686419033E+03  0.00000000000E+00 0. -1.
         21    1    1    2  504  502  0.63299036047E+02 -0.36203665624E+03 -0.39428938975E+02  0.36963759232E+03  0.00000000000E+00 0. -1.
<mgrwt>
<rscale>  4 0.39236649E+03</rscale>
<asrwt>0</asrwt>
<pdfrwt beam="1">  1       21 0.17762028E+00 0.39236649E+03</pdfrwt>
<pdfrwt beam="2">  1       21 0.40347697E-01 0.39236649E+03</pdfrwt>
<totfact> 0.96383859E+02</totfact>
</mgrwt>
</event>
<event>
 5    0  0.2193454E+000  0.3730320E+03  0.7546771E-02  0.1053540E+00
         21   -1    0    0  503  501  0.00000000000E+00  0.00000000000E+00  0.17731955719E+03  0.17731955719E+03  0.00000000000E+00 0.  1.
         21   -1    0    0  504  502 -0.00000000000E+00 -0.00000000000E+00 -0.12687842921E+04  0.12687842921E+04  0.00000000000E+00 0. -1.
         25    1    1    2    0    0  0.24382421974E+03 -0.24295231444E+03 -0.70218027777E+03  0.79193321670E+03  0.12500000000E+03 0.  0.
         21    1    1    2  503  502 -0.35253219625E+03  0.15302851488E+03 -0.29507473937E+03  0.48452634353E+03  0.00000000000E+00 0.  1.
         21    1    1    2  504  501  0.10870797650E+03  0.89923799557E+02 -0.94209717737E+02  0.16964428902E+03  0.00000000000E+00 0.  1.
<mgrwt>
<rscale>  4 0.37303197E+03</rscale>
<asrwt>0</asrwt>
<pdfrwt beam="1">  1       21 0.27279932E-01 0.37303197E+03</pdfrwt>
<pdfrwt beam="2">  1       21 0.19519758E+00 0.37303197E+03</pdfrwt>
<totfact> 0.16158373E+03</totfact>
</mgrwt>
</event>
<event>
 5    0  0.2193454E+000  0.2679488E+03  0.7546771E-02  0.1102459E+00
         21   -1    0    0  502  501  0.00000000000E+00  0.00000000000E+00  0.73240623966E+03  0.73240623966E+03  0.00000000000E+00 0.  1.
         21   -1    0    0  504  502 -0.00000000000E+00 -0.00000000000E+00 -0.18910438127E+03  0.18910438127E+03  0.00000000000E+00 0.  1.
         25    1    1    2    0    0  0.98466841071E+02 -0.21558259386E+03 -0.48542233832E+02  0.27231034140E+03  0.12500000000E+03 0.  0.
         21    1    1    2  503  501  0.39581707475E+01  0.13607752184E+03  0.33118495180E+03  0.35807294140E+03  0.00000000000E+00 0.  1.
         21    1    1    2  504  503 -0.10242501182E+03  0.79505072022E+02  0.26065914042E+03  0.29112733813E+03  0.00000000000E+00 0.  1.
<mgrwt>
<rscale>  4 0.26794883E+03</rscale>
<asrwt>0</asrwt>
<pdfrwt beam="1">  1       21 0.11267788E+00 0.26794883E+03</pdfrwt>
<pdfrwt beam="2">  1       21 0.29092982E-01 0.26794883E+03</pdfrwt>
<totfact> 0.66289947E+03</totfact>
</mgrwt>
</event>
<event>
 5    0  0.2193454E+000  0.2682054E+03  0.7546771E-02  0.1102311E+00
         21   -1    0    0  503  501  0.00000000000E+00  0.00000000000E+00  0.22843928472E+03  0.22843928472E+03  0.00000000000E+00 0. -1.
         21   -1    0    0  501  502 -0.00000000000E+00 -0.00000000000E+00 -0.88201289955E+03  0.88201289955E+03  0.00000000000E+00 0. -1.
         25    1    1    2    0    0  0.44102130226E+02  0.20608028899E+03 -0.21926318116E+03  0.32880910270E+03  0.12500000000E+03 0.  0.
         21    1    1    2  503  504 -0.18664031808E+03 -0.17779175807E+03  0.61476664347E+02  0.26499792043E+03  0.00000000000E+00 0. -1.
         21    1    1    2  504  502  0.14253818786E+03 -0.28288530920E+02 -0.49578709801E+03  0.51664516114E+03  0.00000000000E+00 0. -1.
<mgrwt>
<rscale>  4 0.26820536E+03</rscale>
<asrwt>0</asrwt>
<pdfrwt beam="1">  1       21 0.35144505E-01 0.26820536E+03</pdfrwt>
<pdfrwt beam="2">  1       21 0.13569429E+00 0.26820536E+03</pdfrwt>
<totfact> 0.28551372E+03</totfact>
</mgrwt>
</event>
<event>
 5    0  0.2193454E+000  0.2546223E+03  0.7546771E-02  0.1110418E+00
         21   -1    0    0  503  501  0.00000000000E+00  0.00000000000E+00  0.23849289163E+03  0.23849289163E+03  0.00000000000E+00 0. -1.
         21   -1    0    0  501  502 -0.00000000000E+00 -0.00000000000E+00 -0.69819872471E+03  0.69819872471E+03  0.00000000000E+00 0. -1.
         25    1    1    2    0    0 -0.21706323208E+03 -0.43637743596E+02 -0.48793988707E+03  0.55020998971E+03  0.12500000000E+03 0.  0.
         21    1    1    2  503  504 -0.97853506101E+01  0.50402683846E+02  0.12849421235E+03  0.13837249088E+03  0.00000000000E+00 0. -1.
         21    1    1    2  504  502  0.22684858269E+03 -0.67649402502E+01 -0.10026015836E+03  0.24810913574E+03  0.00000000000E+00 0. -1.
<mgrwt>
<rscale>  4 0.25462232E+03</rscale>
<asrwt>0</asrwt>
<pdfrwt beam="1">  1       21 0.36691215E-01 0.25462232E+03</pdfrwt>
<pdfrwt beam="2">  1       21 0.10741519E+00 0.25462232E+03</pdfrwt>
<totfact> 0.47400986E+03</totfact>
</mgrwt>
</event>
<event>
 5    0  0.2193454E+000  0.2076709E+03  0.7546771E-02  0.1143424E+00
         21   -1    0    0  502  501  0.00000000000E+00  0.00000000000E+00  0.14275562520E+04  0.14275562520E+04  0.00000000000E+00 0. -1.
         21   -1    0    0  503  502 -0.00000000000E+00 -0.00000000000E+00 -0.73148429530E+02  0.73148429530E+02  0.00000000000E+00 0. -1.
         25    1    1    2    0    0  0.23184481524E+03  0.22662232133E+02  0.26754529773E+03  0.37612641686E+03  0.12500000000E+03 0.  0.
         21    1    1    2  503  504 -0.11740527772E+03 -0.99298980652E+01  0.21520525191E+03  0.24534853283E+03  0.00000000000E+00 0. -1.
         21    1    1    2  504  501 -0.11443953752E+03 -0.12732334068E+02  0.87165727281E+03  0.87922973183E+03  0.00000000000E+00 0. -1.
<mgrwt>
<rscale>  4 0.20767087E+03</rscale>
<asrwt>0</asrwt>
<pdfrwt beam="1">  1       21 0.21962402E+00 0.20767087E+03</pdfrwt>
<pdfrwt beam="2">  1       21 0.11253606E-01 0.20767087E+03</pdfrwt>
<totfact> 0.65646134E+03</totfact>
</mgrwt>
</event>
<event>
 5    0  0.2193454E+000  0.2551984E+03  0.7546771E-02  0.1110063E+00
         21   -1    0    0  502  501  0.00000000000E+00  0.00000000000E+00  0.23734880785E+03  0.23734880785E+03  0.00000000000E+00 0. -1.
         21   -1    0    0  503  502 -0.00000000000E+00 -0.00000000000E+00 -0.45329371476E+03  0.45329371476E+03  0.00000000000E+00 0.  1.
         25    1    1    2    0    0 -0.16343310584E+03  0.13832189470E+03 -0.30058432477E+03  0.38963991445E+03  0.12500000000E+03 0.  0.
         21    1    1    2  503  504 -0.31156938423E+02 -0.25874725543E+02 -0.28367859360E+02  0.49446857114E+02  0.00000000000E+00 0.  1.
         21    1    1    2  504  501  0.19459004426E+03 -0.11244716915E+03  0.11300727722E+03  0.25155575104E+03  0.00000000000E+00 0. -1.
<mgrwt>
<rscale>  4 0.25519836E+03</rscale>
<asrwt>0</asrwt>
<pdfrwt beam="1">  1       21 0.36515202E-01 0.25519836E+03</pdfrwt>
<pdfrwt beam="2">  1       21 0.69737494E-01 0.25519836E+03</pdfrwt>
<totfact> 0.13024790E+04</totfact>
</mgrwt>
</event>
<event>
 5    0  0.2193454E+000  0.2801933E+03  0.7546771E-02  0.1095583E+00
         21   -1    0    0  503  501  0.00000000000E+00  0.00000000000E+00  0.31902926041E+03  0.31902926041E+03  0.00000000000E+00 0.  1.
         21   -1    0    0  501  502 -0.00000000000E+00 -0.00000000000E+00 -0.14443180086E+04  0.14443180086E+04  0.00000000000E+00 0. -1.
         25    1    1    2    0    0 -0.44763932620E+02 -0.24703978980E+03 -0.13698901257E+04  0.13983048394E+04  0.12500000000E+03 0.  0.
         21    1    1    2  503  504 -0.19269438092E+02  0.94427758571E+01  0.38424603705E+02  0.44010537717E+02  0.00000000000E+00 0.  1.
         21    1    1    2  504  502  0.64033370712E+02  0.23759701395E+03  0.20617677376E+03  0.32103189193E+03  0.00000000000E+00 0.  1.
<mgrwt>
<rscale>  4 0.28019333E+03</rscale>
<asrwt>0</asrwt>
<pdfrwt beam="1">  1       21 0.49081424E-01 0.28019333E+03</pdfrwt>
<pdfrwt beam="2">  1       21 0.22220277E+00 0.28019333E+03</pdfrwt>
<totfact> 0.35131620E+02</totfact>
</mgrwt>
</event>
<event>
 5    0  0.2193454E+000  0.2492282E+03  0.7546771E-02  0.1113794E+00
         21   -1    0    0  503  501  0.00000000000E+00  0.00000000000E+00  0.12306245157E+04  0.12306245157E+04  0.00000000000E+00 0.  1.
         21   -1    0    0  504  502 -0.00000000000E+00 -0.00000000000E+00 -0.51087769313E+02  0.51087769313E+02  0.00000000000E+00 0.  1.
         25    1    1    2    0    0  0.20072625571E+03  0.34372659371E+02  0.61593048379E+03  0.66065715035E+03  0.12500000000E+03 0.  0.
         21    1    1    2  503  502 -0.22053949839E+03 -0.39314788694E+02  0.42003160215E+03  0.47603557615E+03  0.00000000000E+00 0.  1.
         21    1    1    2  504  501  0.19813242676E+02  0.49421293234E+01  0.14357466043E+03  0.14501955849E+03  0.00000000000E+00 0.  1.
<mgrwt>
<rscale>  4 0.24922816E+03</rscale>
<asrwt>0</asrwt>
<pdfrwt beam="1">  1       21 0.18932683E+00 0.24922816E+03</pdfrwt>
<pdfrwt beam="2">  1       21 0.78596577E-02 0.24922816E+03</pdfrwt>
<totfact> 0.18768966E+04</totfact>
</mgrwt>
</event>
<event>
 5    0  0.2193454E+000  0.2417779E+03  0.7546771E-02  0.1118614E+00
         21   -1    0    0  503  501  0.00000000000E+00  0.00000000000E+00  0.14604455083E+04  0.14604455083E+04  0.00000000000E+00 0. -1.
         21   -1    0    0  504  502 -0.00000000000E+00 -0.00000000000E+00 -0.59938384061E+02  0.59938384061E+02  0.00000000000E+00 0. -1.
         25    1    1    2    0    0  0.18701476088E+03 -0.10890222135E+03  0.29934268732E+03  0.38995545778E+03  0.12500000000E+03 0.  0.
         21    1    1    2  503  502 -0.14906607589E+03  0.11829623778E+03  0.64221597259E+03  0.66981792325E+03  0.00000000000E+00 0. -1.
         21    1    1    2  504  501 -0.37948684985E+02 -0.93940164229E+01  0.45894846430E+03  0.46061051130E+03  0.00000000000E+00 0.  1.
<mgrwt>
<rscale>  4 0.24177789E+03</rscale>
<asrwt>0</asrwt>
<pdfrwt beam="1">  1       21 0.22468390E+00 0.24177789E+03</pdfrwt>
<pdfrwt beam="2">  1       21 0.92212909E-02 0.24177789E+03</pdfrwt>
<totfact> 0.84618481E+03</totfact>
</mgrwt>
</event>
<event>
 5    0  0.2193454E+000  0.2469466E+03  0.7546771E-02  0.1115250E+00
         21   -1    0    0  503  501  0.00000000000E+00  0.00000000000E+00  0.29393083162E+03  0.29393083162E+03  0.00000000000E+00 0.  1.
         21   -1    0    0  504  502 -0.00000000000E+00 -0.00000000000E+00 -0.29503468621E+03  0.29503468621E+03  0.00000000000E+00 0.  1.
         25    1    1    2    0    0 -0.16068771391E+03  0.15484010174E+03  0.68649292231E+02  0.26482772482E+03  0.12500000000E+03 0.  0.
         21    1    1    2  503  502  0.14057669136E+03 -0.15556867130E+03 -0.13930531020E+03  0.25173276921E+03  0.00000000000E+00 0.  1.
         21    1    1    2  504  501  0.20111022548E+02  0.72856955650E+00  0.69552163375E+02  0.72405023802E+02  0.00000000000E+00 0.  1.
<mgrwt>
<rscale>  4 0.24694664E+03</rscale>
<asrwt>0</asrwt>
<pdfrwt beam="1">  1       21 0.45220128E-01 0.24694664E+03</pdfrwt>
<pdfrwt beam="2">  1       21 0.45389952E-01 0.24694664E+03</pdfrwt>
<totfact> 0.21207011E+04</totfact>
</mgrwt>
</event>
<event>
 5    0  0.2193454E+000  0.2981869E+03  0.7546771E-02  0.1086150E+00
         21   -1    0    0  503  501  0.00000000000E+00  0.00000000000E+00  0.30747514155E+03  0.30747514155E+03  0.00000000000E+00 0. -1.
         21   -1    0    0  501  502 -0.00000000000E+00 -0.00000000000E+00 -0.33033466958E+03  0.33033466958E+03  0.00000000000E+00 0.  1.
         25    1    1    2    0    0  0.16235184790E+03  0.19839291541E+03 -0.55595449715E+02  0.29057481899E+03  0.12500000000E+03 0.  0.
         21    1    1    2  503  504  0.25607683257E+02  0.18905524600E+02  0.50148340650E+02  0.59397208454E+02  0.00000000000E+00 0.  1.
         21    1    1    2  504  502 -0.18795953116E+03 -0.21729844001E+03 -0.17412418972E+02  0.28783778369E+03  0.00000000000E+00 0. -1.
<mgrwt>
<rscale>  4 0.29818690E+03</rscale>
<asrwt>0</asrwt>
<pdfrwt beam="1">  1       21 0.47303868E-01 0.29818690E+03</pdfrwt>
<pdfrwt beam="2">  1       21 0.50820719E-01 0.29818690E+03</pdfrwt>
<totfact> 0.14899629E+04</totfact>
</mgrwt>
</event>
<event>
 5    0  0.2193454E+000  0.2706818E+03  0.7546771E-02  0.1100890E+00
         21   -1    0    0  503  501  0.00000000000E+00  0.00000000000E+00  0.87728000722E+03  0.87728000722E+03  0.00000000000E+00 0. -1.
         21   -1    0    0  504  502 -0.00000000000E+00 -0.00000000000E+00 -0.97826122736E+02  0.97826122736E+02  0.00000000000E+00 0. -1.
         25    1    1    2    0    0 -0.23813153766E+02 -0.22032423047E+03  0.29531485139E+03  0.38980212195E+03  0.12500000000E+03 0.  0.
         21    1    1    2  503  502  0.17339028507E+02  0.25817257468E+03  0.29541493707E+03  0.39271326088E+03  0.00000000000E+00 0. -1.
         21    1    1    2  504  501  0.64741252594E+01 -0.37848344210E+02  0.18872409603E+03  0.19259074713E+03  0.00000000000E+00 0.  1.
<mgrwt>
<rscale>  4 0.27068175E+03</rscale>
<asrwt>0</asrwt>
<pdfrwt beam="1">  1       21 0.13496615E+00 0.27068175E+03</pdfrwt>
<pdfrwt beam="2">  1       21 0.15050173E-01 0.27068175E+03</pdfrwt>
<totfact> 0.14625576E+04</totfact>
</mgrwt>
</event>
<event>
 5    0  0.2193454E+000  0.3382844E+03  0.7546771E-02  0.1067529E+00
         21   -1    0    0  503  501  0.00000000000E+00  0.00000000000E+00  0.41705448503E+03  0.41705448503E+03  0.00000000000E+00 0.  1.
         21   -1    0    0  501  502 -0.00000000000E+00 -0.00000000000E+00 -0.48236159912E+03  0.48236159912E+03  0.00000000000E+00 0.  1.
         25    1    1    2    0    0  0.15695421960E+03  0.27327277530E+03 -0.32034591617E+03  0.46643235605E+03  0.12500000000E+03 0.  0.
         21    1    1    2  503  504 -0.33433696184E+02  0.13868340572E+02  0.16489269833E+02  0.39774852990E+02  0.00000000000E+00 0. -1.
         21    1    1    2  504  502 -0.12352052342E+03 -0.28714111587E+03  0.23854953225E+03  0.39320887511E+03  0.00000000000E+00 0.  1.
<mgrwt>
<rscale>  4 0.33828435E+03</rscale>
<asrwt>0</asrwt>
<pdfrwt beam="1">  1       21 0.64162229E-01 0.33828435E+03</pdfrwt>
<pdfrwt beam="2">  1       21 0.74209476E-01 0.33828435E+03</pdfrwt>
<totfact> 0.33297875E+03</totfact>
</mgrwt>
</event>
<event>
 5    0  0.2193454E+000  0.2556190E+03  0.7546771E-02  0.1109804E+00
         21   -1    0    0  503  501  0.00000000000E+00  0.00000000000E+00  0.97662356677E+03  0.97662356677E+03  0.00000000000E+00 0.  1.
         21   -1    0    0  504  502 -0.00000000000E+00 -0.00000000000E+00 -0.11870530807E+03  0.11870530807E+03  0.00000000000E+00 0.  1.
         25    1    1    2    0    0 -0.19928492868E+03  0.81895744800E+02  0.12102222264E+03  0.27693460273E+03  0.12500000000E+03 0.  0.
         21    1    1    2  503  502  0.21807242158E+03 -0.90087007367E+02  0.30308164056E+03  0.38409599165E+03  0.00000000000E+00 0.  1.
         21    1    1    2  504  501 -0.18787492903E+02  0.81912625671E+01  0.43381439550E+03  0.43429828046E+03  0.00000000000E+00 0.  1.
<mgrwt>
<rscale>  4 0.25561902E+03</rscale>
<asrwt>0</asrwt>
<pdfrwt beam="1">  1       21 0.15024977E+00 0.25561902E+03</pdfrwt>
<pdfrwt beam="2">  1       21 0.18262356E-01 0.25561902E+03</pdfrwt>
<totfact> 0.77830492E+03</totfact>
</mgrwt>
</event>
<event>
 5    0  0.2193454E+000  0.2420138E+03  0.7546771E-02  0.1118459E+00
         21   -1    0    0  503  501  0.00000000000E+00  0.00000000000E+00  0.11170033752E+04  0.11170033752E+04  0.00000000000E+00 0.  1.
         21   -1    0    0  501  502 -0.00000000000E+00 -0.00000000000E+00 -0.26599989001E+03  0.26599989001E+03  0.00000000000E+00 0.  1.
         25    1    1    2    0    0  0.13387550851E+03 -0.15546901823E+03 -0.18056891934E+03  0.30053852006E+03  0.12500000000E+03 0.  0.
         21    1    1    2  503  504  0.18214584801E+02 -0.97188829631E+01  0.55773757946E+03  0.55811955290E+03  0.00000000000E+00 0.  1.
         21    1    1    2  504  502 -0.15209009331E+03  0.16518790119E+03  0.47383482503E+03  0.52434519221E+03  0.00000000000E+00 0.  1.
<mgrwt>
<rscale>  4 0.24201379E+03</rscale>
<asrwt>0</asrwt>
<pdfrwt beam="1">  1       21 0.17184667E+00 0.24201379E+03</pdfrwt>
<pdfrwt beam="2">  1       21 0.40923061E-01 0.24201379E+03</pdfrwt>
<totfact> 0.11359493E+03</totfact>
</mgrwt>
</event>
<event>
 5    0  0.2193454E+000  0.2615551E+03  0.7546771E-02  0.1106213E+00
         21   -1    0    0  503  501  0.00000000000E+00  0.00000000000E+00  0.10999151467E+04  0.10999151467E+04  0.00000000000E+00 0.  1.
         21   -1    0    0  501  502 -0.00000000000E+00 -0.00000000000E+00 -0.10278559736E+04  0.10278559736E+04  0.00000000000E+00 0.  1.
         25    1    1    2    0    0  0.20796596740E+03  0.49439855429E+02 -0.13511952000E+03  0.28209294140E+03  0.12500000000E+03 0.  0.
         21    1    1    2  503  504  0.13994815235E+02  0.23087295649E+02  0.10096050751E+04  0.10099659825E+04  0.00000000000E+00 0.  1.
         21    1    1    2  504  502 -0.22196078264E+03 -0.72527151078E+02 -0.80242638205E+03  0.83571219644E+03  0.00000000000E+00 0.  1.
<mgrwt>
<rscale>  4 0.26155505E+03</rscale>
<asrwt>0</asrwt>
<pdfrwt beam="1">  1       21 0.16921772E+00 0.26155505E+03</pdfrwt>
<pdfrwt beam="2">  1       21 0.15813169E+00 0.26155505E+03</pdfrwt>
<totfact> 0.51274174E+01</totfact>
</mgrwt>
</event>
<event>
 5    0  0.2193454E+000  0.1954485E+03  0.7546771E-02  0.1153637E+00
         21   -1    0    0  503  501  0.00000000000E+00  0.00000000000E+00  0.11414492881E+04  0.11414492881E+04  0.00000000000E+00 0.  1.
         21   -1    0    0  504  502 -0.00000000000E+00 -0.00000000000E+00 -0.76748378381E+03  0.76748378381E+03  0.00000000000E+00 0.  1.
         25    1    1    2    0    0  0.54079929792E+02 -0.22031783093E+03 -0.29963521211E+03  0.39606924365E+03  0.12500000000E+03 0.  0.
         21    1    1    2  503  502 -0.32430503593E+02  0.12933595202E+03 -0.40696819420E+03  0.42825534105E+03  0.00000000000E+00 0.  1.
         21    1    1    2  504  501 -0.21649426199E+02  0.90981878911E+02  0.10805689106E+04  0.10846084872E+04  0.00000000000E+00 0.  1.
<mgrwt>
<rscale>  4 0.19544845E+03</rscale>
<asrwt>0</asrwt>
<pdfrwt beam="1">  1       21 0.17560758E+00 0.19544845E+03</pdfrwt>
<pdfrwt beam="2">  1       21 0.11807443E+00 0.19544845E+03</pdfrwt>
<totfact> 0.10678046E+02</totfact>
</mgrwt>
</event>
<event>
 5    0  0.2193454E+000  0.2521850E+03  0.7546771E-02  0.1111932E+00
         21   -1    0    0  503  501  0.00000000000E+00  0.00000000000E+00  0.14393719255E+04  0.14393719255E+04  0.00000000000E+00 0. -1.
         21   -1    0    0  504  502 -0.00000000000E+00 -0.00000000000E+00 -0.75461274766E+02  0.75461274766E+02  0.00000000000E+00 0. -1.
         25    1    1    2    0    0 -0.22554556614E+03 -0.29020137412E+02  0.34718820413E+03  0.43344852043E+03  0.12500000000E+03 0.  0.
         21    1    1    2  503  502  0.20547942116E+03  0.53339424331E+02  0.32039254218E+03  0.38434134281E+03  0.00000000000E+00 0. -1.
         21    1    1    2  504  501  0.20066144974E+02 -0.24319286918E+02  0.69632990442E+03  0.69704333701E+03  0.00000000000E+00 0. -1.
<mgrwt>
<rscale>  4 0.25218495E+03</rscale>
<asrwt>0</asrwt>
<pdfrwt beam="1">  1       21 0.22144181E+00 0.25218495E+03</pdfrwt>
<pdfrwt beam="2">  1       21 0.11609428E-01 0.25218495E+03</pdfrwt>
<totfact> 0.58352640E+03</totfact>
</mgrwt>
</event>
<event>
 5    0  0.2193454E+000  0.2820417E+03  0.7546771E-02  0.1094579E+00
         21   -1    0    0  503  501  0.00000000000E+00  0.00000000000E+00  0.36983124281E+03  0.36983124281E+03  0.00000000000E+00 0.  1.
         21   -1    0    0  501  502 -0.00000000000E+00 -0.00000000000E+00 -0.39478449218E+03  0.39478449218E+03  0.00000000000E+00 0. -1.
         25    1    1    2    0    0 -0.22771234680E+03  0.10986175181E+03 -0.27541167752E+03  0.39420693742E+03  0.12500000000E+03 0.  0.
         21    1    1    2  503  504  0.26427611820E+02 -0.45349661260E+02  0.93170315968E+02  0.10693791760E+03  0.00000000000E+00 0. -1.
         21    1    1    2  504  502  0.20128473498E+03 -0.64512090552E+02  0.15728811217E+03  0.26347087997E+03  0.00000000000E+00 0.  1.
<mgrwt>
<rscale>  4 0.28204169E+03</rscale>
<asrwt>0</asrwt>
<pdfrwt beam="1">  1       21 0.56897114E-01 0.28204169E+03</pdfrwt>
<pdfrwt beam="2">  1       21 0.60736076E-01 0.28204169E+03</pdfrwt>
<totfact> 0.69309982E+03</totfact>
</mgrwt>
</event>
<event>
 5    0  0.2193454E+000  0.4839914E+03  0.7546771E-02  0.1018044E+00
         21   -1    0    0  502  501  0.00000000000E+00  0.00000000000E+00  0.13119635497E+04  0.13119635497E+04  0.00000000000E+00 0.  1.
         21   -1    0    0  503  502 -0.00000000000E+00 -0.00000000000E+00 -0.22054984707E+03  0.22054984707E+03  0.00000000000E+00 0.  1.
         25    1    1    2    0    0 -0.46144478095E+02 -0.46092237579E+03  0.22065079810E+03  0.52810086542E+03  0.12500000000E+03 0.  0.
         21    1    1    2  503  504  0.14828036031E+02 -0.16089063112E+02  0.50138807336E+02  0.54704923046E+02  0.00000000000E+00 0. -1.
         21    1    1    2  504  501  0.31316442063E+02  0.47701143890E+03  0.82062409724E+03  0.94970760835E+03  0.00000000000E+00 0.  1.
<mgrwt>
<rscale>  4 0.48399145E+03</rscale>
<asrwt>0</asrwt>
<pdfrwt beam="1">  1       21 0.20184054E+00 0.48399145E+03</pdfrwt>
<pdfrwt beam="2">  1       21 0.33930746E-01 0.48399145E+03</pdfrwt>
<totfact> 0.89655661E+02</totfact>
</mgrwt>
</event>
<event>
 5    0  0.2193454E+000  0.2545562E+03  0.7546771E-02  0.1110459E+00
         21   -1    0    0  503  501  0.00000000000E+00  0.00000000000E+00  0.11552641857E+04  0.11552641857E+04  0.00000000000E+00 0.  1.
         21   -1    0    0  504  502 -0.00000000000E+00 -0.00000000000E+00 -0.60469231449E+03  0.60469231449E+03  0.00000000000E+00 0. -1.
         25    1    1    2    0    0 -0.23060636756E+03  0.66195073279E+01  0.18573655640E+03  0.32147501150E+03  0.12500000000E+03 0.  0.
         21    1    1    2  503  502  0.21250549532E+03 -0.62751111629E+02 -0.51292699869E+03  0.55874000531E+03  0.00000000000E+00 0. -1.
         21    1    1    2  504  501  0.18100872233E+02  0.56131604301E+02  0.87776231352E+03  0.87974148340E+03  0.00000000000E+00 0.  1.
<mgrwt>
<rscale>  4 0.25455623E+03</rscale>
<asrwt>0</asrwt>
<pdfrwt beam="1">  1       21 0.17773295E+00 0.25455623E+03</pdfrwt>
<pdfrwt beam="2">  1       21 0.93029587E-01 0.25455623E+03</pdfrwt>
<totfact> 0.17070778E+02</totfact>
</mgrwt>
</event>
<event>
 5    0  0.2193454E+000  0.2417747E+03  0.7546771E-02  0.1118616E+00
         21   -1    0    0  503  501  0.00000000000E+00  0.00000000000E+00  0.39473856289E+03  0.39473856289E+03  0.00000000000E+00 0. -1.
         21   -1    0    0  501  502 -0.00000000000E+00 -0.00000000000E+00 -0.26545391965E+03  0.26545391965E+03  0.00000000000E+00 0.  1.
         25    1    1    2    0    0 -0.13878427516E+03 -0.14821019646E+03 -0.14939758556E+03  0.28137515160E+03  0.12500000000E+03 0.  0.
         21    1    1    2  503  504  0.41963797996E+00 -0.26867493809E+02  0.62903483480E+02  0.68402387045E+02  0.00000000000E+00 0.  1.
         21    1    1    2  504  502  0.13836463718E+03  0.17507769027E+03  0.21577874533E+03  0.31041494389E+03  0.00000000000E+00 0. -1.
<mgrwt>
<rscale>  4 0.24177465E+03</rscale>
<asrwt>0</asrwt>
<pdfrwt beam="1">  1       21 0.60729010E-01 0.24177465E+03</pdfrwt>
<pdfrwt beam="2">  1       21 0.40839065E-01 0.24177465E+03</pdfrwt>
<totfact> 0.14162452E+04</totfact>
</mgrwt>
</event>
<event>
 5    0  0.2193454E+000  0.2347225E+03  0.7546771E-02  0.1123359E+00
         21   -1    0    0  502  501  0.00000000000E+00  0.00000000000E+00  0.49492831468E+03  0.49492831468E+03  0.00000000000E+00 0.  1.
         21   -1    0    0  503  502 -0.00000000000E+00 -0.00000000000E+00 -0.18058118757E+03  0.18058118757E+03  0.00000000000E+00 0.  1.
         25    1    1    2    0    0 -0.44833059309E+02 -0.21839436374E+03  0.16782532494E+03  0.30577187741E+03  0.12500000000E+03 0.  0.
         21    1    1    2  503  504  0.13100342324E+03  0.39436055831E+02  0.32146046511E+02  0.14053635724E+03  0.00000000000E+00 0.  1.
         21    1    1    2  504  501 -0.86170363927E+02  0.17895830791E+03  0.11437575567E+03  0.22920126761E+03  0.00000000000E+00 0.  1.
<mgrwt>
<rscale>  4 0.23472246E+03</rscale>
<asrwt>0</asrwt>
<pdfrwt beam="1">  1       21 0.76142817E-01 0.23472246E+03</pdfrwt>
<pdfrwt beam="2">  1       21 0.27781721E-01 0.23472246E+03</pdfrwt>
<totfact> 0.18554768E+04</totfact>
</mgrwt>
</event>
<event>
 5    0  0.2193454E+000  0.3347908E+03  0.7546771E-02  0.1069037E+00
         21   -1    0    0  503  501  0.00000000000E+00  0.00000000000E+00  0.21349046586E+04  0.21349046586E+04  0.00000000000E+00 0.  1.
         21   -1    0    0  504  502 -0.00000000000E+00 -0.00000000000E+00 -0.83617249108E+02  0.83617249108E+02  0.00000000000E+00 0.  1.
         25    1    1    2    0    0  0.20872449375E+03 -0.23437368845E+03  0.35799061578E+03  0.49221867205E+03  0.12500000000E+03 0.  0.
         21    1    1    2  503  502 -0.17476881733E+03  0.24426035715E+03  0.14935170312E+04  0.15234173374E+04  0.00000000000E+00 0.  1.
         21    1    1    2  504  501 -0.33955676423E+02 -0.98866687094E+01  0.19977976257E+03  0.20288589826E+03  0.00000000000E+00 0. -1.
<mgrwt>
<rscale>  4 0.33479082E+03</rscale>
<asrwt>0</asrwt>
<pdfrwt beam="1">  1       21 0.32844683E+00 0.33479082E+03</pdfrwt>
<pdfrwt beam="2">  1       21 0.12864194E-01 0.33479082E+03</pdfrwt>
<totfact> 0.10445873E+03</totfact>
</mgrwt>
</event>
<event>
 5    0  0.2193454E+000  0.1689615E+03  0.7546771E-02  0.1178935E+00
         21   -1    0    0  502  501  0.00000000000E+00  0.00000000000E+00  0.94943341903E+03  0.94943341903E+03  0.00000000000E+00 0. -1.
         21   -1    0    0  503  502 -0.00000000000E+00 -0.00000000000E+00 -0.20598871196E+03  0.20598871196E+03  0.00000000000E+00 0. -1.
         25    1    1    2    0    0 -0.16911134826E+03  0.10952074213E+03 -0.10098014319E+03  0.25771191355E+03  0.12500000000E+03 0.  0.
         21    1    1    2  503  504  0.77437117610E+02 -0.45654088596E+02  0.66535623517E+02  0.11183824116E+03  0.00000000000E+00 0. -1.
         21    1    1    2  504  501  0.91674230646E+02 -0.63866653536E+02  0.77788922675E+03  0.78587197628E+03  0.00000000000E+00 0. -1.
<mgrwt>
<rscale>  4 0.16896153E+03</rscale>
<asrwt>0</asrwt>
<pdfrwt beam="1">  1       21 0.14606668E+00 0.16896153E+03</pdfrwt>
<pdfrwt beam="2">  1       21 0.31690572E-01 0.16896153E+03</pdfrwt>
<totfact> 0.31371929E+03</totfact>
</mgrwt>
</event>
<event>
 5    0  0.2193454E+000  0.2656825E+03  0.7546771E-02  0.1103776E+00
         21   -1    0    0  503  501  0.00000000000E+00  0.00000000000E+00  0.74753660000E+02  0.74753660000E+02  0.00000000000E+00 0.  1.
         21   -1    0    0  501  502 -0.00000000000E+00 -0.00000000000E+00 -0.18650992974E+04  0.18650992974E+04  0.00000000000E+00 0.  1.
         25    1    1    2    0    0  0.16550919214E+03 -0.17891512145E+03 -0.99461795725E+03  0.10316461575E+04  0.12500000000E+03 0.  0.
         21    1    1    2  503  504  0.15617987577E+01  0.25018794676E+02  0.37202013066E+02  0.44859436895E+02  0.00000000000E+00 0.  1.
         21    1    1    2  504  502 -0.16707099090E+03  0.15389632678E+03 -0.83292969317E+03  0.86334736298E+03  0.00000000000E+00 0.  1.
<mgrwt>
<rscale>  4 0.26568246E+03</rscale>
<asrwt>0</asrwt>
<pdfrwt beam="1">  1       21 0.11500564E-01 0.26568246E+03</pdfrwt>
<pdfrwt beam="2">  1       21 0.28693832E+00 0.26568246E+03</pdfrwt>
<totfact> 0.23825290E+03</totfact>
</mgrwt>
</event>
<event>
 5    0  0.2193454E+000  0.2800145E+03  0.7546771E-02  0.1095681E+00
         21   -1    0    0  503  501  0.00000000000E+00  0.00000000000E+00  0.13258874875E+03  0.13258874875E+03  0.00000000000E+00 0.  1.
         21   -1    0    0  501  502 -0.00000000000E+00 -0.00000000000E+00 -0.59975687197E+03  0.59975687197E+03  0.00000000000E+00 0.  1.
         25    1    1    2    0    0  0.22694673272E+03 -0.70483598056E+02 -0.23522012834E+03  0.35696815806E+03  0.12500000000E+03 0.  0.
         21    1    1    2  503  504  0.22605079666E+02 -0.13653154289E+02 -0.32968541629E+01  0.26613295476E+02  0.00000000000E+00 0.  1.
         21    1    1    2  504  502 -0.24955181239E+03  0.84136752345E+02 -0.22865114072E+03  0.34876416719E+03  0.00000000000E+00 0.  1.
<mgrwt>
<rscale>  4 0.28001452E+03</rscale>
<asrwt>0</asrwt>
<pdfrwt beam="1">  1       21 0.20398269E-01 0.28001452E+03</pdfrwt>
<pdfrwt beam="2">  1       21 0.92270286E-01 0.28001452E+03</pdfrwt>
<totfact> 0.21079147E+04</totfact>
</mgrwt>
</event>
<event>
 5    0  0.2193454E+000  0.2383425E+03  0.7546771E-02  0.1120902E+00
         21   -1    0    0  502  501  0.00000000000E+00  0.00000000000E+00  0.23087071366E+03  0.23087071366E+03  0.00000000000E+00 0. -1.
         21   -1    0    0  503  502 -0.00000000000E+00 -0.00000000000E+00 -0.69814082563E+03  0.69814082563E+03  0.00000000000E+00 0. -1.
         25    1    1    2    0    0 -0.16110005739E+03  0.13894078358E+03 -0.58391686899E+03  0.63390983564E+03  0.12500000000E+03 0.  0.
         21    1    1    2  503  504  0.49485612167E+02 -0.65663337125E+02 -0.38180052297E+02  0.90654376879E+02  0.00000000000E+00 0. -1.
         21    1    1    2  504  501  0.11161444522E+03 -0.73277446457E+02  0.15482680932E+03  0.20444732677E+03  0.00000000000E+00 0. -1.
<mgrwt>
<rscale>  4 0.23834249E+03</rscale>
<asrwt>0</asrwt>
<pdfrwt beam="1">  1       21 0.35518572E-01 0.23834249E+03</pdfrwt>
<pdfrwt beam="2">  1       21 0.10740628E+00 0.23834249E+03</pdfrwt>
<totfact> 0.51128916E+03</totfact>
</mgrwt>
</event>
<event>
 5    0  0.2193454E+000  0.2736306E+03  0.7546771E-02  0.1099220E+00
         21   -1    0    0  503  501  0.00000000000E+00  0.00000000000E+00  0.10639780040E+03  0.10639780040E+03  0.00000000000E+00 0. -1.
         21   -1    0    0  504  502 -0.00000000000E+00 -0.00000000000E+00 -0.79957151550E+03  0.79957151550E+03  0.00000000000E+00 0.  1.
         25    1    1    2    0    0 -0.22627180490E+03  0.97349408882E+02 -0.29415867072E+03  0.40352219352E+03  0.12500000000E+03 0.  0.
         21    1    1    2  503  502  0.19968113141E+03 -0.13934514394E+03 -0.37530901372E+03  0.44737733420E+03  0.00000000000E+00 0.  1.
         21    1    1    2  504  501  0.26590673493E+02  0.41995735059E+02 -0.23706030661E+02  0.55069788176E+02  0.00000000000E+00 0. -1.
<mgrwt>
<rscale>  4 0.27363055E+03</rscale>
<asrwt>0</asrwt>
<pdfrwt beam="1">  1       21 0.16368892E-01 0.27363055E+03</pdfrwt>
<pdfrwt beam="2">  1       21 0.12301100E+00 0.27363055E+03</pdfrwt>
<totfact> 0.15846248E+04</totfact>
</mgrwt>
</event>
<event>
 5    0  0.2193454E+000  0.4058601E+03  0.7546771E-02  0.1041769E+00
         21   -1    0    0  502  501  0.00000000000E+00  0.00000000000E+00  0.11837763234E+04  0.11837763234E+04  0.00000000000E+00 0. -1.
         21   -1    0    0  504  502 -0.00000000000E+00 -0.00000000000E+00 -0.18960674401E+03  0.18960674401E+03  0.00000000000E+00 0. -1.
         25    1    1    2    0    0 -0.37455070135E+02  0.36766317226E+03  0.19015919022E+03  0.43400991710E+03  0.12500000000E+03 0.  0.
         21    1    1    2  503  501  0.29521494529E+02 -0.42372572593E+03  0.66266386895E+03  0.78710762458E+03  0.00000000000E+00 0. -1.
         21    1    1    2  504  503  0.79335756058E+01  0.56062553672E+02  0.14134652018E+03  0.15226552568E+03  0.00000000000E+00 0. -1.
<mgrwt>
<rscale>  4 0.40586006E+03</rscale>
<asrwt>0</asrwt>
<pdfrwt beam="1">  1       21 0.18211943E+00 0.40586006E+03</pdfrwt>
<pdfrwt beam="2">  1       21 0.29170269E-01 0.40586006E+03</pdfrwt>
<totfact> 0.17110392E+03</totfact>
</mgrwt>
</event>
<event>
 5    0  0.2193454E+000  0.2352766E+03  0.7546771E-02  0.1122980E+00
         21   -1    0    0  503  501  0.00000000000E+00  0.00000000000E+00  0.27919728381E+04  0.27919728381E+04  0.00000000000E+00 0. -1.
         21   -1    0    0  501  502 -0.00000000000E+00 -0.00000000000E+00 -0.25587511686E+02  0.25587511686E+02  0.00000000000E+00 0. -1.
         25    1    1    2    0    0 -0.11138692719E+03 -0.20186698460E+03  0.12400985663E+04  0.12675278227E+04  0.12500000000E+03 0.  0.
         21    1    1    2  503  504 -0.31323714560E+01  0.61237691849E+02  0.76449814275E+03  0.76695324298E+03  0.00000000000E+00 0. -1.
         21    1    1    2  504  502  0.11451929865E+03  0.14062929276E+03  0.76178861733E+03  0.78307928413E+03  0.00000000000E+00 0. -1.
<mgrwt>
<rscale>  4 0.23527656E+03</rscale>
<asrwt>0</asrwt>
<pdfrwt beam="1">  1       21 0.42953404E+00 0.23527656E+03</pdfrwt>
<pdfrwt beam="2">  1       21 0.39365425E-02 0.23527656E+03</pdfrwt>
<totfact> 0.21509677E+03</totfact>
</mgrwt>
</event>
<event>
 5    0  0.2193454E+000  0.2252349E+03  0.7546771E-02  0.1130039E+00
         21   -1    0    0  503  501  0.00000000000E+00  0.00000000000E+00  0.59854036244E+02  0.59854036244E+02  0.00000000000E+00 0.  1.
         21   -1    0    0  501  502 -0.00000000000E+00 -0.00000000000E+00 -0.16560665274E+04  0.16560665274E+04  0.00000000000E+00 0.  1.
         25    1    1    2    0    0 -0.11882118208E+03  0.16721354476E+03 -0.12325404460E+04  0.12557307808E+04  0.12500000000E+03 0.  0.
         21    1    1    2  503  504  0.36589450982E+02 -0.27341672131E+02  0.15116786273E+02  0.48113118641E+02  0.00000000000E+00 0.  1.
         21    1    1    2  504  502  0.82231731099E+02 -0.13987187262E+03 -0.37878883139E+03  0.41207666415E+03  0.00000000000E+00 0.  1.
<mgrwt>
<rscale>  4 0.22523494E+03</rscale>
<asrwt>0</asrwt>
<pdfrwt beam="1">  1       21 0.92083134E-02 0.22523494E+03</pdfrwt>
<pdfrwt beam="2">  1       21 0.25477946E+00 0.22523494E+03</pdfrwt>
<totfact> 0.56665296E+03</totfact>
</mgrwt>
</event>
<event>
 5    0  0.2193454E+000  0.2330096E+03  0.7546771E-02  0.1124539E+00
         21   -1    0    0  503  501  0.00000000000E+00  0.00000000000E+00  0.12251694583E+03  0.12251694583E+03  0.00000000000E+00 0.  1.
         21   -1    0    0  501  502 -0.00000000000E+00 -0.00000000000E+00 -0.15160006558E+04  0.15160006558E+04  0.00000000000E+00 0.  1.
         25    1    1    2    0    0 -0.11611395617E+03  0.17487139137E+03 -0.13450744447E+04  0.13670818250E+04  0.12500000000E+03 0.  0.
         21    1    1    2  503  504  0.62540984823E+02 -0.33358619642E+02  0.53670629229E+02  0.88908428897E+02  0.00000000000E+00 0.  1.
         21    1    1    2  504  502  0.53572971346E+02 -0.14151277173E+03 -0.10207989445E+03  0.18252734774E+03  0.00000000000E+00 0.  1.
<mgrwt>
<rscale>  4 0.23300962E+03</rscale>
<asrwt>0</asrwt>
<pdfrwt beam="1">  1       21 0.18848760E-01 0.23300962E+03</pdfrwt>
<pdfrwt beam="2">  1       21 0.23323088E+00 0.23300962E+03</pdfrwt>
<totfact> 0.20682893E+03</totfact>
</mgrwt>
</event>
<event>
 5    0  0.2275832E+000  0.3122876E+03  0.7546771E-02  0.1079255E+00
         21   -1    0    0  503  501  0.00000000000E+00  0.00000000000E+00  0.22023546530E+03  0.22023546530E+03  0.00000000000E+00 0.  1.
         21   -1    0    0  504  502 -0.00000000000E+00 -0.00000000000E+00 -0.16178756955E+04  0.16178756955E+04  0.00000000000E+00 0.  1.
         25    1    1    2    0    0 -0.49424564155E+02 -0.26709020425E+03 -0.12487619562E+04  0.12840605080E+04  0.12500000000E+03 0.  0.
         21    1    1    2  503  502 -0.74938965911E+02  0.71983412699E+01 -0.24027003519E+03  0.25178831295E+03  0.00000000000E+00 0. -1.
         21    1    1    2  504  501  0.12436353007E+03  0.25989186298E+03  0.91391761273E+02  0.30226233984E+03  0.00000000000E+00 0.  1.
<mgrwt>
<rscale>  4 0.31228762E+03</rscale>
<asrwt>0</asrwt>
<pdfrwt beam="1">  1       21 0.33882380E-01 0.31228762E+03</pdfrwt>
<pdfrwt beam="2">  1       21 0.24890395E+00 0.31228762E+03</pdfrwt>
<totfact> 0.50128257E+02</totfact>
</mgrwt>
</event>
<event>
 5    0  0.2193454E+000  0.2677545E+03  0.7546771E-02  0.1102572E+00
         21   -1    0    0  503  501  0.00000000000E+00  0.00000000000E+00  0.10501101259E+04  0.10501101259E+04  0.00000000000E+00 0. -1.
         21   -1    0    0  504  502 -0.00000000000E+00 -0.00000000000E+00 -0.95233503007E+02  0.95233503007E+02  0.00000000000E+00 0. -1.
         25    1    1    2    0    0  0.17824945090E+03 -0.17752439327E+03  0.23130752936E+03  0.36389002472E+03  0.12500000000E+03 0.  0.
         21    1    1    2  503  502 -0.14025724800E+03  0.16463775658E+03  0.39406567026E+03  0.44951689510E+03  0.00000000000E+00 0. -1.
         21    1    1    2  504  501 -0.37992202901E+02  0.12886636690E+02  0.32950342326E+03  0.33193670906E+03  0.00000000000E+00 0. -1.
<mgrwt>
<rscale>  4 0.26775450E+03</rscale>
<asrwt>0</asrwt>
<pdfrwt beam="1">  1       21 0.16155540E+00 0.26775450E+03</pdfrwt>
<pdfrwt beam="2">  1       21 0.14651309E-01 0.26775450E+03</pdfrwt>
<totfact> 0.95415411E+03</totfact>
</mgrwt>
</event>
<event>
 5    0  0.2193454E+000  0.3217317E+03  0.7546771E-02  0.1074855E+00
         21   -1    0    0  503  501  0.00000000000E+00  0.00000000000E+00  0.16689351926E+04  0.16689351926E+04  0.00000000000E+00 0.  1.
         21   -1    0    0  501  502 -0.00000000000E+00 -0.00000000000E+00 -0.17721529536E+03  0.17721529536E+03  0.00000000000E+00 0.  1.
         25    1    1    2    0    0 -0.66554577877E+01  0.29638149175E+03 -0.25390174005E+01  0.32174171377E+03  0.12500000000E+03 0.  0.
         21    1    1    2  503  504 -0.12983877459E+02 -0.23318323021E+02  0.17707925211E+03  0.17907927515E+03  0.00000000000E+00 0.  1.
         21    1    1    2  504  502  0.19639335247E+02 -0.27306316873E+03  0.13171796625E+04  0.13453294991E+04  0.00000000000E+00 0.  1.
<mgrwt>
<rscale>  4 0.32173170E+03</rscale>
<asrwt>0</asrwt>
<pdfrwt beam="1">  1       21 0.25675925E+00 0.32173170E+03</pdfrwt>
<pdfrwt beam="2">  1       21 0.27263893E-01 0.32173170E+03</pdfrwt>
<totfact> 0.68545168E+02</totfact>
</mgrwt>
</event>
<event>
 5    0  0.2193454E+000  0.2494624E+03  0.7546771E-02  0.1113645E+00
         21   -1    0    0  503  501  0.00000000000E+00  0.00000000000E+00  0.85188063263E+03  0.85188063263E+03  0.00000000000E+00 0.  1.
         21   -1    0    0  501  502 -0.00000000000E+00 -0.00000000000E+00 -0.87742830254E+03  0.87742830254E+03  0.00000000000E+00 0.  1.
         25    1    1    2    0    0 -0.21257697590E+03  0.49512661860E+02 -0.63310317572E+03  0.68123792135E+03  0.12500000000E+03 0.  0.
         21    1    1    2  503  504 -0.19453011127E+01 -0.49257848664E+02  0.77460916245E+03  0.77617618773E+03  0.00000000000E+00 0.  1.
         21    1    1    2  504  502  0.21452227701E+03 -0.25481319607E+00 -0.16705365663E+03  0.27189482609E+03  0.00000000000E+00 0.  1.
<mgrwt>
<rscale>  4 0.24946241E+03</rscale>
<asrwt>0</asrwt>
<pdfrwt beam="1">  1       21 0.13105856E+00 0.24946241E+03</pdfrwt>
<pdfrwt beam="2">  1       21 0.13498897E+00 0.24946241E+03</pdfrwt>
<totfact> 0.15576844E+02</totfact>
</mgrwt>
</event>
<event>
 5    0  0.2193454E+000  0.3718108E+03  0.7546771E-02  0.1054003E+00
         21   -1    0    0  503  501  0.00000000000E+00  0.00000000000E+00  0.22446087444E+03  0.22446087444E+03  0.00000000000E+00 0.  1.
         21   -1    0    0  504  502 -0.00000000000E+00 -0.00000000000E+00 -0.12305359117E+04  0.12305359117E+04  0.00000000000E+00 0. -1.
         25    1    1    2    0    0 -0.81522283396E+02 -0.39447549905E+03 -0.86765793113E+03  0.96473420562E+03  0.12500000000E+03 0.  0.
         21    1    1    2  503  502  0.14154761420E+03  0.31028128218E+03 -0.33059060373E+02  0.34264136153E+03  0.00000000000E+00 0.  1.
         21    1    1    2  504  501 -0.60025330807E+02  0.84194216871E+02 -0.10535804579E+03  0.14762121902E+03  0.00000000000E+00 0.  1.
<mgrwt>
<rscale>  4 0.37181076E+03</rscale>
<asrwt>0</asrwt>
<pdfrwt beam="1">  1       21 0.34532442E-01 0.37181076E+03</pdfrwt>
<pdfrwt beam="2">  1       21 0.18931322E+00 0.37181076E+03</pdfrwt>
<totfact> 0.11097569E+03</totfact>
</mgrwt>
</event>
<event>
 5    0  0.2193454E+000  0.3479347E+03  0.7546771E-02  0.1063466E+00
         21   -1    0    0  503  501  0.00000000000E+00  0.00000000000E+00  0.49400384744E+03  0.49400384744E+03  0.00000000000E+00 0.  1.
         21   -1    0    0  504  502 -0.00000000000E+00 -0.00000000000E+00 -0.39982743478E+03  0.39982743478E+03  0.00000000000E+00 0.  1.
         25    1    1    2    0    0 -0.21755383688E+03  0.27326393215E+03 -0.11125341791E+03  0.38730501101E+03  0.12500000000E+03 0.  0.
         21    1    1    2  503  502  0.21343539977E+03 -0.20893788985E+03  0.79420646506E+01  0.29878552187E+03  0.00000000000E+00 0.  1.
         21    1    1    2  504  501  0.41184371121E+01 -0.64326042305E+02  0.19748776593E+03  0.20774074933E+03  0.00000000000E+00 0. -1.
<mgrwt>
<rscale>  4 0.34793466E+03</rscale>
<asrwt>0</asrwt>
<pdfrwt beam="1">  1       21 0.76000592E-01 0.34793466E+03</pdfrwt>
<pdfrwt beam="2">  1       21 0.61511913E-01 0.34793466E+03</pdfrwt>
<totfact> 0.34452244E+03</totfact>
</mgrwt>
</event>
<event>
 5    0  0.2193454E+000  0.1975158E+03  0.7546771E-02  0.1151852E+00
         21   -1    0    0  503  501  0.00000000000E+00  0.00000000000E+00  0.19809437262E+03  0.19809437262E+03  0.00000000000E+00 0.  1.
         21   -1    0    0  504  502 -0.00000000000E+00 -0.00000000000E+00 -0.95423790429E+03  0.95423790429E+03  0.00000000000E+00 0. -1.
         25    1    1    2    0    0 -0.29805924845E+02  0.20309896210E+03 -0.67496666522E+03  0.71647929539E+03  0.12500000000E+03 0.  0.
         21    1    1    2  503  502  0.88568094044E+02 -0.63249504746E+02 -0.21020397412E+03  0.23670766331E+03  0.00000000000E+00 0.  1.
         21    1    1    2  504  501 -0.58762169199E+02 -0.13984945735E+03  0.12902710767E+03  0.19914531821E+03  0.00000000000E+00 0.  1.
<mgrwt>
<rscale>  4 0.19751575E+03</rscale>
<asrwt>0</asrwt>
<pdfrwt beam="1">  1       21 0.30476058E-01 0.19751575E+03</pdfrwt>
<pdfrwt beam="2">  1       21 0.14680583E+00 0.19751575E+03</pdfrwt>
<totfact> 0.32542082E+03</totfact>
</mgrwt>
</event>
<event>
 5    0  0.2193454E+000  0.2504392E+03  0.7546771E-02  0.1113028E+00
         21   -1    0    0  502  501  0.00000000000E+00  0.00000000000E+00  0.16471684428E+04  0.16471684428E+04  0.00000000000E+00 0. -1.
         21   -1    0    0  504  502 -0.00000000000E+00 -0.00000000000E+00 -0.30234478630E+03  0.30234478630E+03  0.00000000000E+00 0. -1.
         25    1    1    2    0    0 -0.28127669217E+03 -0.11446692718E+03 -0.17682437664E+03  0.37297602489E+03  0.12500000000E+03 0.  0.
         21    1    1    2  503  501  0.19396499460E+03  0.91621347080E+02  0.14365994559E+04  0.14525270694E+04  0.00000000000E+00 0. -1.
         21    1    1    2  504  503  0.87311697566E+02  0.22845580097E+02  0.85048577166E+02  0.12401013483E+03  0.00000000000E+00 0. -1.
<mgrwt>
<rscale>  4 0.25043924E+03</rscale>
<asrwt>0</asrwt>
<pdfrwt beam="1">  1       21 0.25341052E+00 0.25043924E+03</pdfrwt>
<pdfrwt beam="2">  1       21 0.46514584E-01 0.25043924E+03</pdfrwt>
<totfact> 0.26160220E+02</totfact>
</mgrwt>
</event>
<event>
 5    0  0.2193454E+000  0.2861901E+03  0.7546771E-02  0.1092355E+00
         21   -1    0    0  503  501  0.00000000000E+00  0.00000000000E+00  0.95213611751E+03  0.95213611751E+03  0.00000000000E+00 0.  1.
         21   -1    0    0  501  502 -0.00000000000E+00 -0.00000000000E+00 -0.55661088498E+03  0.55661088498E+03  0.00000000000E+00 0.  1.
         25    1    1    2    0    0 -0.28809470355E+03 -0.86637318847E+02 -0.34793369182E+03  0.47664183318E+03  0.12500000000E+03 0.  0.
         21    1    1    2  503  504  0.99304530179E+02  0.92444344762E+00  0.80867806677E+03  0.81475300551E+03  0.00000000000E+00 0.  1.
         21    1    1    2  504  502  0.18879017338E+03  0.85712875399E+02 -0.65219142431E+02  0.21735216381E+03  0.00000000000E+00 0.  1.
<mgrwt>
<rscale>  4 0.28619006E+03</rscale>
<asrwt>0</asrwt>
<pdfrwt beam="1">  1       21 0.14648248E+00 0.28619006E+03</pdfrwt>
<pdfrwt beam="2">  1       21 0.85632444E-01 0.28619006E+03</pdfrwt>
<totfact> 0.34201131E+02</totfact>
</mgrwt>
</event>
<event>
 5    0  0.2193454E+000  0.3890885E+03  0.7546771E-02  0.1047625E+00
         21   -1    0    0  503  501  0.00000000000E+00  0.00000000000E+00  0.53144586353E+03  0.53144586353E+03  0.00000000000E+00 0.  1.
         21   -1    0    0  501  502 -0.00000000000E+00 -0.00000000000E+00 -0.87942096500E+03  0.87942096500E+03  0.00000000000E+00 0.  1.
         25    1    1    2    0    0  0.85965928491E+02 -0.35647144391E+03 -0.74546663636E+03  0.84012352491E+03  0.12500000000E+03 0.  0.
         21    1    1    2  503  504  0.12836114108E+02 -0.15642246528E+02  0.42428082518E+02  0.47006253711E+02  0.00000000000E+00 0.  1.
         21    1    1    2  504  502 -0.98802042599E+02  0.37211369044E+03  0.35506345237E+03  0.52373704990E+03  0.00000000000E+00 0.  1.
<mgrwt>
<rscale>  4 0.38908855E+03</rscale>
<asrwt>0</asrwt>
<pdfrwt beam="1">  1       21 0.81760903E-01 0.38908855E+03</pdfrwt>
<pdfrwt beam="2">  1       21 0.13529553E+00 0.38908855E+03</pdfrwt>
<totfact> 0.43876498E+02</totfact>
</mgrwt>
</event>
<event>
 5    0  0.2193454E+000  0.2908879E+03  0.7546771E-02  0.1089886E+00
         21   -1    0    0  502  501  0.00000000000E+00  0.00000000000E+00  0.24124342414E+03  0.24124342414E+03  0.00000000000E+00 0. -1.
         21   -1    0    0  504  502 -0.00000000000E+00 -0.00000000000E+00 -0.84849560095E+03  0.84849560095E+03  0.00000000000E+00 0. -1.
         25    1    1    2    0    0  0.99530452403E+02  0.17987679661E+03 -0.35662894831E+03  0.43019900010E+03  0.12500000000E+03 0.  0.
         21    1    1    2  503  501  0.16973368341E+03 -0.69159156546E+02 -0.31214111850E+03  0.36197318972E+03  0.00000000000E+00 0. -1.
         21    1    1    2  504  503 -0.26926413582E+03 -0.11071764007E+03  0.61517889996E+02  0.29756683526E+03  0.00000000000E+00 0. -1.
<mgrwt>
<rscale>  4 0.29088791E+03</rscale>
<asrwt>0</asrwt>
<pdfrwt beam="1">  1       21 0.37114372E-01 0.29088791E+03</pdfrwt>
<pdfrwt beam="2">  1       21 0.13053779E+00 0.29088791E+03</pdfrwt>
<totfact> 0.27866641E+03</totfact>
</mgrwt>
</event>
<event>
 5    0  0.2193454E+000  0.2569633E+03  0.7546771E-02  0.1108982E+00
         21   -1    0    0  503  501  0.00000000000E+00  0.00000000000E+00  0.13699314506E+04  0.13699314506E+04  0.00000000000E+00 0. -1.
         21   -1    0    0  504  502 -0.00000000000E+00 -0.00000000000E+00 -0.42042401818E+03  0.42042401818E+03  0.00000000000E+00 0. -1.
         25    1    1    2    0    0  0.14399876854E+03  0.17456810102E+03 -0.35319200232E+03  0.43769767847E+03  0.12500000000E+03 0.  0.
         21    1    1    2  503  502 -0.18198515860E+03 -0.76501661644E+02  0.11525937530E+04  0.11693773820E+04  0.00000000000E+00 0. -1.
         21    1    1    2  504  501  0.37986390058E+02 -0.98066439380E+02  0.15010568175E+03  0.18328040827E+03  0.00000000000E+00 0.  1.
<mgrwt>
<rscale>  4 0.25696333E+03</rscale>
<asrwt>0</asrwt>
<pdfrwt beam="1">  1       21 0.21075868E+00 0.25696333E+03</pdfrwt>
<pdfrwt beam="2">  1       21 0.64680619E-01 0.25696333E+03</pdfrwt>
<totfact> 0.23465295E+02</totfact>
</mgrwt>
</event>
<event>
 5    0  0.2193454E+000  0.3626793E+03  0.7546771E-02  0.1057528E+00
         21   -1    0    0  503  501  0.00000000000E+00  0.00000000000E+00  0.45397710564E+03  0.45397710564E+03  0.00000000000E+00 0.  1.
         21   -1    0    0  504  502 -0.00000000000E+00 -0.00000000000E+00 -0.13968462816E+04  0.13968462816E+04  0.00000000000E+00 0.  1.
         25    1    1    2    0    0  0.22098868747E+03  0.25544287522E+03 -0.11447809377E+04  0.12000981034E+04  0.12500000000E+03 0.  0.
         21    1    1    2  503  502 -0.24817701265E+03 -0.25339926769E+03 -0.83198400939E+02  0.36431441420E+03  0.00000000000E+00 0.  1.
         21    1    1    2  504  501  0.27188325178E+02 -0.20436075295E+01  0.28511016270E+03  0.28641086961E+03  0.00000000000E+00 0.  1.
<mgrwt>
<rscale>  4 0.36267933E+03</rscale>
<asrwt>0</asrwt>
<pdfrwt beam="1">  1       21 0.69842633E-01 0.36267933E+03</pdfrwt>
<pdfrwt beam="2">  1       21 0.21489942E+00 0.36267933E+03</pdfrwt>
<totfact> 0.17049717E+02</totfact>
</mgrwt>
</event>
<event>
 5    0  0.2193454E+000  0.3208429E+03  0.7546771E-02  0.1075262E+00
         21   -1    0    0  502  501  0.00000000000E+00  0.00000000000E+00  0.41486940208E+02  0.41486940208E+02  0.00000000000E+00 0.  1.
         21   -1    0    0  503  502 -0.00000000000E+00 -0.00000000000E+00 -0.28240770874E+04  0.28240770874E+04  0.00000000000E+00 0. -1.
         25    1    1    2    0    0  0.33582623484E+02  0.29556106359E+03 -0.17795140923E+04  0.18085296623E+04  0.12500000000E+03 0.  0.
         21    1    1    2  503  504  0.36673323162E+02 -0.10412989029E+02 -0.15226930461E+03  0.15696911830E+03  0.00000000000E+00 0. -1.
         21    1    1    2  504  501 -0.70255946646E+02 -0.28514807456E+03 -0.85080675031E+03  0.90006524699E+03  0.00000000000E+00 0.  1.
<mgrwt>
<rscale>  4 0.32084293E+03</rscale>
<asrwt>0</asrwt>
<pdfrwt beam="1">  1       21 0.63826047E-02 0.32084293E+03</pdfrwt>
<pdfrwt beam="2">  1       21 0.43447350E+00 0.32084293E+03</pdfrwt>
<totfact> 0.79927409E+02</totfact>
</mgrwt>
</event>
<event>
 5    0  0.2193454E+000  0.2382497E+03  0.7546771E-02  0.1120964E+00
         21   -1    0    0  503  501  0.00000000000E+00  0.00000000000E+00  0.54580465980E+03  0.54580465980E+03  0.00000000000E+00 0. -1.
         21   -1    0    0  504  502 -0.00000000000E+00 -0.00000000000E+00 -0.63002924111E+03  0.63002924111E+03  0.00000000000E+00 0.  1.
         25    1    1    2    0    0  0.14541860099E+03 -0.15241849319E+03 -0.49786919209E+03  0.55486637943E+03  0.12500000000E+03 0.  0.
         21    1    1    2  503  502 -0.12358330096E+03  0.13224484361E+03 -0.23759607823E+02  0.18255423825E+03  0.00000000000E+00 0.  1.
         21    1    1    2  504  501 -0.21835300038E+02  0.20173649579E+02  0.43740421861E+03  0.43841328324E+03  0.00000000000E+00 0. -1.
<mgrwt>
<rscale>  4 0.23824974E+03</rscale>
<asrwt>0</asrwt>
<pdfrwt beam="1">  1       21 0.83969948E-01 0.23824974E+03</pdfrwt>
<pdfrwt beam="2">  1       21 0.96927575E-01 0.23824974E+03</pdfrwt>
<totfact> 0.10441574E+03</totfact>
</mgrwt>
</event>
<event>
 5    0  0.2193454E+000  0.3090283E+03  0.7546771E-02  0.1080813E+00
         21   -1    0    0  502  501  0.00000000000E+00  0.00000000000E+00  0.55908543345E+03  0.55908543345E+03  0.00000000000E+00 0.  1.
         21   -1    0    0  504  502 -0.00000000000E+00 -0.00000000000E+00 -0.38103845695E+03  0.38103845695E+03  0.00000000000E+00 0.  1.
         25    1    1    2    0    0  0.20055456337E+02 -0.28190646253E+03 -0.26732718719E+03  0.40861020540E+03  0.12500000000E+03 0.  0.
         21    1    1    2  503  501 -0.46933800426E+01  0.26539516557E+03  0.42522467006E+03  0.50127102625E+03  0.00000000000E+00 0.  1.
         21    1    1    2  504  503 -0.15362076294E+02  0.16511296960E+02  0.20149493618E+02  0.30242658753E+02  0.00000000000E+00 0.  1.
<mgrwt>
<rscale>  4 0.30902828E+03</rscale>
<asrwt>0</asrwt>
<pdfrwt beam="1">  1       21 0.86013144E-01 0.30902828E+03</pdfrwt>
<pdfrwt beam="2">  1       21 0.58621301E-01 0.30902828E+03</pdfrwt>
<totfact> 0.29349811E+03</totfact>
</mgrwt>
</event>
<event>
 5    0  0.2193454E+000  0.5000430E+03  0.7546771E-02  0.1013768E+00
         21   -1    0    0  503  501  0.00000000000E+00  0.00000000000E+00  0.18203977857E+04  0.18203977857E+04  0.00000000000E+00 0. -1.
         21   -1    0    0  504  502 -0.00000000000E+00 -0.00000000000E+00 -0.47833897743E+03  0.47833897743E+03  0.00000000000E+00 0.  1.
         25    1    1    2    0    0 -0.27792344380E+02 -0.48336894896E+03 -0.30177816668E+03  0.58404881398E+03  0.12500000000E+03 0.  0.
         21    1    1    2  503  502  0.17673970659E+02  0.45770013977E+03  0.15059290923E+04  0.15740470826E+04  0.00000000000E+00 0. -1.
         21    1    1    2  504  501  0.10118373720E+02  0.25668809185E+02  0.13790788266E+03  0.14064086658E+03  0.00000000000E+00 0.  1.
<mgrwt>
<rscale>  4 0.50004295E+03</rscale>
<asrwt>0</asrwt>
<pdfrwt beam="1">  1       21 0.28006120E+00 0.50004295E+03</pdfrwt>
<pdfrwt beam="2">  1       21 0.73590612E-01 0.50004295E+03</pdfrwt>
<totfact> 0.54941519E+01</totfact>
</mgrwt>
</event>
<event>
 5    0  0.2193454E+000  0.2331991E+03  0.7546771E-02  0.1124408E+00
         21   -1    0    0  503  501  0.00000000000E+00  0.00000000000E+00  0.21272480980E+03  0.21272480980E+03  0.00000000000E+00 0. -1.
         21   -1    0    0  501  502 -0.00000000000E+00 -0.00000000000E+00 -0.86670220366E+03  0.86670220366E+03  0.00000000000E+00 0. -1.
         25    1    1    2    0    0 -0.20254273404E+03 -0.97292336500E+02 -0.48442673520E+03  0.54843743457E+03  0.12500000000E+03 0.  0.
         21    1    1    2  503  504  0.47043683051E+02  0.12173426616E+02  0.15431337006E+03  0.16178354864E+03  0.00000000000E+00 0. -1.
         21    1    1    2  504  502  0.15549905099E+03  0.85118909883E+02 -0.32386402872E+03  0.36920603025E+03  0.00000000000E+00 0. -1.
<mgrwt>
<rscale>  4 0.23319913E+03</rscale>
<asrwt>0</asrwt>
<pdfrwt beam="1">  1       21 0.32726894E-01 0.23319913E+03</pdfrwt>
<pdfrwt beam="2">  1       21 0.13333880E+00 0.23319913E+03</pdfrwt>
<totfact> 0.35253965E+03</totfact>
</mgrwt>
</event>
<event>
 5    0  0.2193454E+000  0.2305121E+03  0.7546771E-02  0.1126280E+00
         21   -1    0    0  503  501  0.00000000000E+00  0.00000000000E+00  0.32229442677E+03  0.32229442677E+03  0.00000000000E+00 0. -1.
         21   -1    0    0  504  502 -0.00000000000E+00 -0.00000000000E+00 -0.91305708007E+03  0.91305708007E+03  0.00000000000E+00 0.  1.
         25    1    1    2    0    0  0.20071758044E+03 -0.51118815891E+02 -0.66982198293E+03  0.71217074445E+03  0.12500000000E+03 0.  0.
         21    1    1    2  503  502 -0.17939702516E+02 -0.11173228986E+02 -0.19045818874E+03  0.19162723092E+03  0.00000000000E+00 0. -1.
         21    1    1    2  504  501 -0.18277787793E+03  0.62292044877E+02  0.26951751838E+03  0.33155353146E+03  0.00000000000E+00 0. -1.
<mgrwt>
<rscale>  4 0.23051205E+03</rscale>
<asrwt>0</asrwt>
<pdfrwt beam="1">  1       21 0.49583758E-01 0.23051205E+03</pdfrwt>
<pdfrwt beam="2">  1       21 0.14047032E+00 0.23051205E+03</pdfrwt>
<totfact> 0.13276188E+03</totfact>
</mgrwt>
</event>
<event>
 5    0  0.2193454E+000  0.3158014E+03  0.7546771E-02  0.1077598E+00
         21   -1    0    0  503  501  0.00000000000E+00  0.00000000000E+00  0.72663416284E+03  0.72663416284E+03  0.00000000000E+00 0.  1.
         21   -1    0    0  504  502 -0.00000000000E+00 -0.00000000000E+00 -0.24765146671E+03  0.24765146671E+03  0.00000000000E+00 0.  1.
         25    1    1    2    0    0 -0.26885484697E+03  0.91343276918E+02 -0.52559072865E+02  0.31466486795E+03  0.12500000000E+03 0.  0.
         21    1    1    2  503  502  0.28582455129E+03 -0.11376455207E+03  0.31154302860E+03  0.43783228079E+03  0.00000000000E+00 0.  1.
         21    1    1    2  504  501 -0.16969704319E+02  0.22421275156E+02  0.21999874040E+03  0.22178848081E+03  0.00000000000E+00 0.  1.
<mgrwt>
<rscale>  4 0.31580143E+03</rscale>
<asrwt>0</asrwt>
<pdfrwt beam="1">  1       21 0.11178987E+00 0.31580143E+03</pdfrwt>
<pdfrwt beam="2">  1       21 0.38100226E-01 0.31580143E+03</pdfrwt>
<totfact> 0.38487151E+03</totfact>
</mgrwt>
</event>
<event>
 5    0  0.2193454E+000  0.3726018E+03  0.7546771E-02  0.1053703E+00
         21   -1    0    0  503  501  0.00000000000E+00  0.00000000000E+00  0.21690028720E+03  0.21690028720E+03  0.00000000000E+00 0.  1.
         21   -1    0    0  501  502 -0.00000000000E+00 -0.00000000000E+00 -0.99764186564E+03  0.99764186564E+03  0.00000000000E+00 0.  1.
         25    1    1    2    0    0  0.22741271806E+03 -0.27108525648E+03 -0.47814127289E+03  0.60782220875E+03  0.12500000000E+03 0.  0.
         21    1    1    2  503  504  0.10819407325E+02  0.16925141164E+02  0.83974182241E+02  0.86343403114E+02  0.00000000000E+00 0.  1.
         21    1    1    2  504  502 -0.23823212539E+03  0.25416011532E+03 -0.38657448779E+03  0.52037654097E+03  0.00000000000E+00 0.  1.
<mgrwt>
<rscale>  4 0.37260180E+03</rscale>
<asrwt>0</asrwt>
<pdfrwt beam="1">  1       21 0.33369275E-01 0.37260180E+03</pdfrwt>
<pdfrwt beam="2">  1       21 0.15348336E+00 0.37260180E+03</pdfrwt>
<totfact> 0.21549835E+03</totfact>
</mgrwt>
</event>
<event>
 5    0  0.2193454E+000  0.2618486E+03  0.7546771E-02  0.1106038E+00
         21   -1    0    0  503  501  0.00000000000E+00  0.00000000000E+00  0.10157560752E+04  0.10157560752E+04  0.00000000000E+00 0.  1.
         21   -1    0    0  501  502 -0.00000000000E+00 -0.00000000000E+00 -0.15448281939E+03  0.15448281939E+03  0.00000000000E+00 0.  1.
         25    1    1    2    0    0  0.30467129854E+02 -0.22955501999E+03  0.63792368903E+01  0.26322888874E+03  0.12500000000E+03 0.  0.
         21    1    1    2  503  504  0.28173032197E+02  0.11202390951E+02  0.37824628199E+03  0.37945943544E+03  0.00000000000E+00 0.  1.
         21    1    1    2  504  502 -0.58640162051E+02  0.21835262904E+03  0.47664773689E+03  0.52755057037E+03  0.00000000000E+00 0.  1.
<mgrwt>
<rscale>  4 0.26184864E+03</rscale>
<asrwt>0</asrwt>
<pdfrwt beam="1">  1       21 0.15627016E+00 0.26184864E+03</pdfrwt>
<pdfrwt beam="2">  1       21 0.23766588E-01 0.26184864E+03</pdfrwt>
<totfact> 0.42428503E+03</totfact>
</mgrwt>
</event>
<event>
 5    0  0.2193454E+000  0.2662555E+03  0.7546771E-02  0.1103442E+00
         21   -1    0    0  503  501  0.00000000000E+00  0.00000000000E+00  0.23892383363E+03  0.23892383363E+03  0.00000000000E+00 0. -1.
         21   -1    0    0  504  502 -0.00000000000E+00 -0.00000000000E+00 -0.47565409920E+03  0.47565409920E+03  0.00000000000E+00 0. -1.
         25    1    1    2    0    0 -0.12950239271E+02 -0.24172737625E+03 -0.26428381134E+03  0.37956655024E+03  0.12500000000E+03 0.  0.
         21    1    1    2  503  502  0.75193237422E+02  0.21678024059E+03 -0.47552318578E+02  0.23432652148E+03  0.00000000000E+00 0. -1.
         21    1    1    2  504  501 -0.62242998152E+02  0.24947135652E+02  0.75105864349E+02  0.10068486111E+03  0.00000000000E+00 0. -1.
<mgrwt>
<rscale>  4 0.26625548E+03</rscale>
<asrwt>0</asrwt>
<pdfrwt beam="1">  1       21 0.36757513E-01 0.26625548E+03</pdfrwt>
<pdfrwt beam="2">  1       21 0.73177553E-01 0.26625548E+03</pdfrwt>
<totfact> 0.11479116E+04</totfact>
</mgrwt>
</event>
<event>
 5    0  0.2193454E+000  0.2319186E+03  0.7546771E-02  0.1125297E+00
         21   -1    0    0  503  501  0.00000000000E+00  0.00000000000E+00  0.59160911977E+03  0.59160911977E+03  0.00000000000E+00 0. -1.
         21   -1    0    0  504  502 -0.00000000000E+00 -0.00000000000E+00 -0.35217461720E+03  0.35217461720E+03  0.00000000000E+00 0. -1.
         25    1    1    2    0    0  0.20835038855E+03 -0.93529619643E+01 -0.17958572671E+03  0.30228032610E+03  0.12500000000E+03 0.  0.
         21    1    1    2  503  502 -0.17774324903E+03 -0.45182694891E+02 -0.32001037003E+02  0.18616714227E+03  0.00000000000E+00 0. -1.
         21    1    1    2  504  501 -0.30607139527E+02  0.54535656855E+02  0.45102126629E+03  0.45533626860E+03  0.00000000000E+00 0. -1.
<mgrwt>
<rscale>  4 0.23191861E+03</rscale>
<asrwt>0</asrwt>
<pdfrwt beam="1">  1       21 0.91016788E-01 0.23191861E+03</pdfrwt>
<pdfrwt beam="2">  1       21 0.54180710E-01 0.23191861E+03</pdfrwt>
<totfact> 0.31946066E+03</totfact>
</mgrwt>
</event>
<event>
 5    0  0.2193454E+000  0.2337086E+03  0.7546771E-02  0.1124056E+00
         21   -1    0    0  503  501  0.00000000000E+00  0.00000000000E+00  0.21922619152E+03  0.21922619152E+03  0.00000000000E+00 0.  1.
         21   -1    0    0  501  502 -0.00000000000E+00 -0.00000000000E+00 -0.54768305958E+03  0.54768305958E+03  0.00000000000E+00 0.  1.
         25    1    1    2    0    0  0.70157866166E+02 -0.18864668369E+03 -0.45726687601E+03  0.51500261489E+03  0.12500000000E+03 0.  0.
         21    1    1    2  503  504 -0.26631208705E+02  0.14286440885E+02  0.43518263218E+02  0.52982666068E+02  0.00000000000E+00 0.  1.
         21    1    1    2  504  502 -0.43526657461E+02  0.17436024280E+03  0.85291744725E+02  0.19892397015E+03  0.00000000000E+00 0.  1.
<mgrwt>
<rscale>  4 0.23370862E+03</rscale>
<asrwt>0</asrwt>
<pdfrwt beam="1">  1       21 0.33727107E-01 0.23370862E+03</pdfrwt>
<pdfrwt beam="2">  1       21 0.84258932E-01 0.23370862E+03</pdfrwt>
<totfact> 0.10078544E+04</totfact>
</mgrwt>
</event>
